Protein in INSANE! Membrane UpperLeaflet>POPC=1.0 LowerLeaflet>POPC=1.0
241526
    1AU     AUC    1   4.393  25.304   7.512
    1AU     AUC    2   4.665  25.309   7.344
    1AU     AUC    3   4.652  25.301   7.678
    1AU     AUC    4   4.114  25.295   7.350
    1AU     AUC    5   4.147  25.341   7.701
    1AU     AUC    6   4.221  25.575   7.512
    1AU     AUC    7   4.568  25.577   7.495
    1AU     AUC    8   4.209  25.044   7.521
    1AU     AUC    9   4.558  25.022   7.515
    1AU     AUC   10   4.401  25.137   7.788
    1AU     AUC   11   4.390  25.495   7.769
    1AU     AUC   12   4.382  25.133   7.245
    1AU     AUC   13   4.410  25.449   7.234
    1AU     AUC   14   4.989  25.306   7.182
    1AU     AUC   15   5.004  25.289   7.519
    1AU     AUC   16   4.953  25.283   7.870
    1AU     AUC   17   3.798  25.287   7.180
    1AU     AUC   18   3.787  25.341   7.542
    1AU     AUC   19   3.848  25.369   7.898
    1AU     AUC   20   4.057  25.888   7.495
    1AU     AUC   21   4.414  25.923   7.440
    1AU     AUC   22   4.743  25.868   7.472
    1AU     AUC   23   3.996  24.756   7.533
    1AU     AUC   24   4.357  24.705   7.505
    1AU     AUC   25   4.728  24.716   7.500
    1AU     AUC   26   4.385  24.959   8.088
    1AU     AUC   27   4.410  25.315   8.116
    1AU     AUC   28   4.425  25.670   8.059
    1AU     AUC   29   4.406  24.948   6.967
    1AU     AUC   30   4.378  25.281   6.903
    1AU     AUC   31   4.384  25.610   6.919
    1AU     AUC   32   4.680  25.085   8.005
    1AU     AUC   33   4.705  25.476   7.993
    1AU     AUC   34   4.710  25.134   7.020
    1AU     AUC   35   4.700  25.485   7.037
    1AU     AUC   36   4.095  25.178   8.030
    1AU     AUC   37   4.128  25.542   8.014
    1AU     AUC   38   4.080  25.099   7.058
    1AU     AUC   39   4.052  25.424   7.010
    1AU     AUC   40   4.921  25.587   7.334
    1AU     AUC   41   4.867  25.576   7.693
    1AU     AUC   42   3.904  25.598   7.348
    1AU     AUC   43   3.926  25.662   7.708
    1AU     AUC   44   4.882  25.002   7.347
    1AU     AUC   45   4.847  24.964   7.688
    1AU     AUC   46   3.874  24.987   7.364
    1AU     AUC   47   3.932  25.054   7.721
    1AU     AUC   48   4.238  25.834   7.770
    1AU     AUC   49   4.583  25.793   7.765
    1AU     AUC   50   4.184  24.845   7.811
    1AU     AUC   51   4.525  24.788   7.790
    1AU     AUC   52   4.216  25.723   7.189
    1AU     AUC   53   4.597  25.760   7.165
    1AU     AUC   54   4.196  24.822   7.227
    1AU     AUC   55   4.593  24.847   7.225
    1AU    AUSL   56   4.972  25.228   8.232
    1AU    AUSL   57   4.697  24.780   8.192
    1AU     AUL   58   5.021  24.827   8.333
    1AU       S   59   5.016  24.405   8.153
    1AU     LIG   60   4.860  24.185   8.478
    1AU     LIG   61   4.994  23.848   8.743
    1AU     LIG   62   5.252  23.540   8.969
    1AU     LIG   63   5.499  23.346   9.304
    1AU     LIG   64   5.619  23.349   9.751
    1AU       S   65   5.209  25.243   8.390
    1AU     LIG   66   5.113  25.310   8.846
    1AU     LIG   67   5.234  25.107   9.264
    1AU     LIG   68   5.617  25.040   9.568
    1AU     LIG   69   6.042  25.066   9.825
    1AU     LIG   70   6.288  25.238  10.208
    1AU    AUSL   71   4.576  25.130   8.419
    1AU    AUSL   72   4.297  25.491   8.457
    1AU     AUL   73   4.512  25.423   8.746
    1AU       S   74   4.750  25.058   8.613
    1AU     LIG   75   4.562  24.969   8.995
    1AU     LIG   76   4.780  24.799   9.379
    1AU     LIG   77   4.900  24.498   9.733
    1AU     LIG   78   4.966  24.331  10.173
    1AU     LIG   79   5.222  24.309  10.567
    1AU       S   80   4.107  25.224   8.690
    1AU     LIG   81   4.083  25.112   9.163
    1AU     LIG   82   3.781  25.139   9.527
    1AU     LIG   83   3.587  25.171   9.957
    1AU     LIG   84   3.482  25.433  10.337
    1AU     LIG   85   3.434  25.783  10.658
    1AU    AUSL   86   4.609  25.505   8.165
    1AU    AUSL   87   5.047  25.640   8.106
    1AU     AUL   88   4.858  25.534   8.441
    1AU       S   89   4.511  25.878   8.597
    1AU     LIG   90   4.857  25.776   8.897
    1AU     LIG   91   5.023  25.845   9.346
    1AU     LIG   92   4.981  25.942   9.832
    1AU     LIG   93   5.023  26.126  10.279
    1AU     LIG   94   5.254  26.171  10.690
    1AU       S   95   5.197  25.801   8.260
    1AU     LIG   96   5.591  25.706   8.360
    1AU     LIG   97   5.875  25.932   8.654
    1AU     LIG   98   6.112  26.203   8.959
    1AU     LIG   99   6.321  26.443   9.294
    1AU     LIG  100   6.650  26.368   9.632
    1AU    AUSL  101   4.844  25.349   6.896
    1AU    AUSL  102   4.768  25.783   6.859
    1AU     AUL  103   4.947  25.672   6.626
    1AU       S  104   4.761  25.444   6.293
    1AU     LIG  105   5.231  25.396   6.154
    1AU     LIG  106   5.325  25.139   5.781
    1AU     LIG  107   5.445  24.962   5.365
    1AU     LIG  108   5.670  24.976   4.944
    1AU     LIG  109   6.000  24.937   4.589
    1AU       S  110   5.175  26.010   6.874
    1AU     LIG  111   5.258  26.241   6.488
    1AU     LIG  112   5.485  26.435   6.106
    1AU     LIG  113   5.724  26.592   5.718
    1AU     LIG  114   5.690  26.689   5.241
    1AU     LIG  115   5.719  26.996   4.873
    1AU    AUSL  116   4.672  25.086   6.587
    1AU    AUSL  117   5.120  25.022   6.911
    1AU     AUL  118   5.046  25.204   6.647
    1AU       S  119   5.214  24.751   6.667
    1AU     LIG  120   5.312  24.358   6.362
    1AU     LIG  121   5.506  23.925   6.347
    1AU     LIG  122   5.787  23.655   6.080
    1AU     LIG  123   6.141  23.682   5.751
    1AU     LIG  124   6.504  23.866   5.482
    1AU       S  125   4.783  25.267   6.267
    1AU     LIG  126   4.935  24.917   6.070
    1AU     LIG  127   5.022  24.746   5.639
    1AU     LIG  128   5.015  24.735   5.175
    1AU     LIG  129   5.003  24.645   4.719
    1AU     LIG  130   5.193  24.576   4.302
    1AU    AUSL  131   4.484  25.491   6.692
    1AU    AUSL  132   4.274  25.087   6.765
    1AU     AUL  133   4.395  25.124   6.451
    1AU       S  134   3.963  25.109   6.301
    1AU     LIG  135   4.119  24.929   5.934
    1AU     LIG  136   3.910  24.685   5.603
    1AU     LIG  137   3.713  24.684   5.184
    1AU     LIG  138   3.491  24.602   4.777
    1AU     LIG  139   3.482  24.347   4.364
    1AU       S  140   4.524  25.575   6.408
    1AU     LIG  141   4.418  25.359   5.951
    1AU     LIG  142   4.793  25.220   5.649
    1AU     LIG  143   5.040  25.253   5.217
    1AU     LIG  144   5.129  25.369   4.739
    1AU     LIG  145   5.157  25.589   4.293
    1AU    AUSL  146   3.886  25.435   8.300
    1AU    AUSL  147   4.169  25.791   8.170
    1AU     AUL  148   4.052  25.723   8.496
    1AU       S  149   3.931  25.347   8.751
    1AU     LIG  150   3.598  25.152   8.955
    1AU     LIG  151   3.359  24.954   9.295
    1AU     LIG  152   3.177  24.980   9.712
    1AU     LIG  153   2.915  24.979  10.086
    1AU     LIG  154   2.541  25.089  10.332
    1AU       S  155   3.771  26.021   8.269
    1AU     LIG  156   3.812  26.145   8.688
    1AU     LIG  157   3.602  26.436   8.968
    1AU     LIG  158   3.416  26.581   9.365
    1AU     LIG  159   3.383  26.865   9.737
    1AU     LIG  160   3.243  27.257   9.953
    1AU    AUSL  161   4.198  25.135   8.201
    1AU    AUSL  162   3.733  25.064   8.119
    1AU     AUL  163   3.759  25.141   8.378
    1AU       S  164   3.557  24.719   8.257
    1AU     LIG  165   3.131  24.588   8.143
    1AU     LIG  166   2.804  24.316   8.329
    1AU     LIG  167   2.622  24.069   8.674
    1AU     LIG  168   2.440  23.838   9.028
    1AU     LIG  169   2.190  23.614   9.352
    1AU       S  170   4.157  25.046   8.604
    1AU     LIG  171   3.904  24.760   8.833
    1AU     LIG  172   3.795  24.681   9.285
    1AU     LIG  173   3.607  24.679   9.729
    1AU     LIG  174   3.467  24.473  10.151
    1AU     LIG  175   3.450  24.315  10.618
    1AU    AUSL  176   3.836  25.139   6.786
    1AU    AUSL  177   4.045  24.774   6.956
    1AU     AUL  178   4.083  24.804   6.637
    1AU       S  179   3.789  25.048   6.365
    1AU     LIG  180   3.604  24.974   5.949
    1AU     LIG  181   3.401  24.839   5.562
    1AU     LIG  182   3.219  24.885   5.140
    1AU     LIG  183   2.842  25.017   4.893
    1AU     LIG  184   2.479  25.086   4.591
    1AU       S  185   3.688  24.633   6.809
    1AU     LIG  186   3.522  24.223   6.699
    1AU     LIG  187   3.140  24.086   6.494
    1AU     LIG  188   2.833  23.964   6.155
    1AU     LIG  189   2.709  23.683   5.788
    1AU     LIG  190   2.654  23.506   5.349
    1AU    AUSL  191   4.064  25.461   6.595
    1AU    AUSL  192   3.699  25.546   6.922
    1AU     AUL  193   3.632  25.350   6.670
    1AU       S  194   3.702  25.801   6.668
    1AU     LIG  195   3.453  26.107   6.417
    1AU     LIG  196   3.215  26.245   6.026
    1AU     LIG  197   2.861  26.254   5.689
    1AU     LIG  198   2.465  26.290   5.401
    1AU     LIG  199   2.093  26.522   5.201
    1AU       S  200   4.003  25.399   6.360
    1AU     LIG  201   3.899  25.405   5.900
    1AU     LIG  202   3.793  25.177   5.499
    1AU     LIG  203   3.647  25.184   5.050
    1AU     LIG  204   3.704  25.398   4.626
    1AU     LIG  205   3.708  25.602   4.193
    1AU    AUSL  206   5.196  25.809   7.509
    1AU    AUSL  207   5.133  25.600   7.095
    1AU     AUL  208   5.461  25.911   7.287
    1AU       S  209   5.243  25.692   6.966
    1AU     LIG  210   5.444  25.728   6.549
    1AU     LIG  211   5.722  26.028   6.329
    1AU     LIG  212   5.995  26.307   6.066
    1AU     LIG  213   6.249  26.354   5.661
    1AU     LIG  214   6.595  26.437   5.333
    1AU       S  215   5.578  25.704   7.700
    1AU     LIG  216   6.028  25.875   7.608
    1AU     LIG  217   6.514  25.943   7.523
    1AU     LIG  218   6.943  26.160   7.593
    1AU     LIG  219   7.301  26.352   7.827
    1AU     LIG  220   7.421  26.794   7.893
    1AU    AUSL  221   5.382  25.399   7.391
    1AU    AUSL  222   5.319  25.077   7.713
    1AU     AUL  223   5.668  25.177   7.749
    1AU       S  224   5.534  25.479   7.441
    1AU     LIG  225   6.023  25.390   7.459
    1AU     LIG  226   6.515  25.441   7.343
    1AU     LIG  227   6.917  25.479   7.032
    1AU     LIG  228   7.346  25.696   6.979
    1AU     LIG  229   7.462  26.167   6.875
    1AU       S  230   5.567  24.763   7.558
    1AU     LIG  231   5.975  24.550   7.599
    1AU     LIG  232   6.393  24.321   7.642
    1AU     LIG  233   6.840  24.138   7.649
    1AU     LIG  234   7.283  24.302   7.728
    1AU     LIG  235   7.749  24.190   7.803
    1AU    AUSL  236   5.093  25.443   7.730
    1AU    AUSL  237   4.844  25.842   7.768
    1AU     AUL  238   5.165  25.904   7.803
    1AU       S  239   5.162  26.097   8.221
    1AU     LIG  240   5.565  26.230   8.364
    1AU     LIG  241   5.810  26.487   8.665
    1AU     LIG  242   6.117  26.759   8.901
    1AU     LIG  243   6.384  27.136   8.919
    1AU     LIG  244   6.369  27.603   8.904
    1AU       S  245   5.429  25.537   7.859
    1AU     LIG  246   5.931  25.527   7.989
    1AU     LIG  247   6.395  25.576   7.860
    1AU     LIG  248   6.817  25.809   7.953
    1AU     LIG  249   7.312  25.842   7.892
    1AU     LIG  250   7.722  26.088   8.047
    1AU    AUSL  251   3.725  25.887   7.547
    1AU    AUSL  252   3.823  25.646   7.927
    1AU     AUL  253   3.502  25.984   7.794
    1AU       S  254   3.661  25.815   8.189
    1AU     LIG  255   3.551  25.702   8.626
    1AU     LIG  256   3.357  25.974   8.979
    1AU     LIG  257   3.029  26.200   9.272
    1AU     LIG  258   2.603  26.231   9.537
    1AU     LIG  259   2.146  26.290   9.711
    1AU       S  260   3.734  26.255   7.469
    1AU     LIG  261   3.282  26.229   7.360
    1AU     LIG  262   2.894  26.528   7.385
    1AU     LIG  263   2.598  26.917   7.462
    1AU     LIG  264   2.219  27.136   7.652
    1AU     LIG  265   1.858  27.403   7.623
    1AU    AUSL  266   3.689  25.501   7.344
    1AU    AUSL  267   3.816  25.935   7.128
    1AU     AUL  268   3.521  25.809   7.181
    1AU       S  269   3.265  25.416   7.013
    1AU     LIG  270   2.957  25.808   7.051
    1AU     LIG  271   2.481  26.016   6.979
    1AU     LIG  272   1.978  26.180   6.935
    1AU     LIG  273   1.471  26.344   6.915
    1AU     LIG  274   0.961  26.362   6.829
    1AU       S  275   3.633  26.197   6.912
    1AU     LIG  276   3.786  26.485   6.576
    1AU     LIG  277   3.619  26.880   6.343
    1AU     LIG  278   3.291  27.232   6.286
    1AU     LIG  279   2.991  27.525   6.075
    1AU     LIG  280   2.628  27.766   5.909
    1AU    AUSL  281   3.454  25.533   7.744
    1AU    AUSL  282   3.412  25.179   7.392
    1AU     AUL  283   3.306  25.510   7.472
    1AU       S  284   3.117  25.073   7.591
    1AU     LIG  285   2.683  24.865   7.485
    1AU     LIG  286   2.227  24.769   7.364
    1AU     LIG  287   1.801  24.893   7.223
    1AU     LIG  288   1.413  24.658   7.115
    1AU     LIG  289   1.065  24.384   7.016
    1AU       S  290   3.362  25.478   7.982
    1AU     LIG  291   2.953  25.692   7.851
    1AU     LIG  292   2.480  25.872   7.935
    1AU     LIG  293   2.027  26.123   7.998
    1AU     LIG  294   1.548  26.333   7.991
    1AU     LIG  295   1.053  26.338   8.100
    1AU    AUSL  296   5.095  24.727   7.543
    1AU    AUSL  297   4.927  24.995   7.878
    1AU     AUL  298   5.263  24.886   7.924
    1AU       S  299   5.347  24.605   7.542
    1AU     LIG  300   5.567  24.234   7.488
    1AU     LIG  301   5.960  24.022   7.572
    1AU     LIG  302   6.365  23.852   7.436
    1AU     LIG  303   6.768  23.643   7.472
    1AU     LIG  304   7.143  23.439   7.630
    1AU       S  305   5.165  24.449   7.998
    1AU     LIG  306   5.345  24.060   8.263
    1AU     LIG  307   5.505  23.868   8.647
    1AU     LIG  308   5.767  23.607   8.936
    1AU     LIG  309   6.085  23.551   9.284
    1AU     LIG  310   6.526  23.582   9.485
    1AU    AUSL  311   5.074  25.110   7.328
    1AU    AUSL  312   5.004  24.647   7.125
    1AU     AUL  313   5.253  24.830   7.147
    1AU       S  314   5.620  24.937   7.361
    1AU     LIG  315   5.756  24.558   7.128
    1AU     LIG  316   6.154  24.288   7.173
    1AU     LIG  317   6.634  24.215   7.184
    1AU     LIG  318   7.117  24.215   7.204
    1AU     LIG  319   7.502  24.032   6.973
    1AU       S  320   5.193  24.500   6.815
    1AU     LIG  321   5.187  24.022   6.768
    1AU     LIG  322   5.215  23.554   6.617
    1AU     LIG  323   5.389  23.162   6.398
    1AU     LIG  324   5.725  22.891   6.235
    1AU     LIG  325   6.005  22.512   6.254
    1AU    AUSL  326   3.585  24.806   7.578
    1AU    AUSL  327   3.760  25.023   7.190
    1AU     AUL  328   3.400  24.908   7.253
    1AU       S  329   3.564  24.763   6.854
    1AU     LIG  330   3.136  24.534   6.843
    1AU     LIG  331   2.716  24.341   6.661
    1AU     LIG  332   2.393  24.095   6.404
    1AU     LIG  333   2.317  23.959   5.962
    1AU     LIG  334   2.176  23.827   5.539
    1AU       S  335   3.172  24.798   7.657
    1AU     LIG  336   2.970  24.442   7.462
    1AU     LIG  337   2.515  24.341   7.438
    1AU     LIG  338   2.159  24.393   7.733
    1AU     LIG  339   1.713  24.269   7.828
    1AU     LIG  340   1.442  24.043   7.519
    1AU    AUSL  341   3.723  25.209   7.715
    1AU    AUSL  342   3.935  24.813   7.827
    1AU     AUL  343   3.520  24.997   7.890
    1AU       S  344   3.638  24.574   8.019
    1AU     LIG  345   3.385  24.322   7.784
    1AU     LIG  346   3.095  24.038   8.012
    1AU     LIG  347   2.803  23.775   8.284
    1AU     LIG  348   2.516  23.559   8.588
    1AU     LIG  349   2.361  23.320   8.956
    1AU       S  350   3.112  25.128   7.750
    1AU     LIG  351   2.666  25.260   7.808
    1AU     LIG  352   2.226  25.083   7.769
    1AU     LIG  353   1.847  24.796   7.731
    1AU     LIG  354   1.422  24.665   7.633
    1AU     LIG  355   1.087  24.363   7.745
    1AU    AUSL  356   4.423  25.996   7.886
    1AU    AUSL  357   3.980  26.050   7.860
    1AU     AUL  358   4.242  26.115   8.190
    1AU       S  359   3.843  26.256   7.985
    1AU     LIG  360   3.662  26.516   8.355
    1AU     LIG  361   3.542  26.870   8.668
    1AU     LIG  362   3.429  27.326   8.810
    1AU     LIG  363   3.081  27.627   8.975
    1AU     LIG  364   2.631  27.697   9.126
    1AU       S  365   4.432  26.464   7.950
    1AU     LIG  366   4.565  26.528   8.342
    1AU     LIG  367   4.602  26.967   8.506
    1AU     LIG  368   4.501  27.394   8.715
    1AU     LIG  369   4.431  27.662   9.121
    1AU     LIG  370   4.573  27.945   9.495
    1AU    AUSL  371   4.227  26.259   7.578
    1AU    AUSL  372   4.564  26.203   7.173
    1AU     AUL  373   4.304  26.460   7.318
    1AU       S  374   4.270  26.465   7.792
    1AU     LIG  375   4.280  26.929   7.977
    1AU     LIG  376   4.338  27.320   8.219
    1AU     LIG  377   4.309  27.749   8.364
    1AU     LIG  378   4.017  28.105   8.408
    1AU     LIG  379   4.103  28.543   8.592
    1AU       S  380   4.480  26.473   6.891
    1AU     LIG  381   4.906  26.590   6.860
    1AU     LIG  382   5.044  27.020   6.731
    1AU     LIG  383   5.349  27.402   6.729
    1AU     LIG  384   5.348  27.850   6.631
    1AU     LIG  385   5.133  28.259   6.667
    1AU    AUSL  386   4.684  26.199   7.593
    1AU    AUSL  387   4.709  25.921   8.193
    1AU     AUL  388   4.782  26.168   7.950
    1AU       S  389   4.943  26.020   8.393
    1AU     LIG  390   5.298  25.970   8.721
    1AU     LIG  391   5.585  26.173   9.013
    1AU     LIG  392   5.797  26.527   9.225
    1AU     LIG  393   5.820  26.903   9.504
    1AU     LIG  394   5.759  27.045   9.956
    1AU       S  395   4.621  26.524   7.685
    1AU     LIG  396   4.789  26.848   8.004
    1AU     LIG  397   4.872  27.289   8.192
    1AU     LIG  398   5.146  27.695   8.243
    1AU     LIG  399   5.231  28.164   8.338
    1AU     LIG  400   5.359  28.640   8.373
    1AU    AUSL  401   4.349  24.663   7.954
    1AU    AUSL  402   4.771  24.595   7.797
    1AU     AUL  403   4.562  24.491   8.171
    1AU       S  404   4.370  24.096   8.028
    1AU     LIG  405   4.471  23.737   8.262
    1AU     LIG  406   4.242  23.365   8.391
    1AU     LIG  407   4.212  22.915   8.429
    1AU     LIG  408   4.265  22.571   8.721
    1AU     LIG  409   4.166  22.402   9.150
    1AU       S  410   4.920  24.394   7.853
    1AU     LIG  411   4.892  23.938   8.027
    1AU     LIG  412   5.096  23.591   8.308
    1AU     LIG  413   5.466  23.370   8.528
    1AU     LIG  414   5.654  23.099   8.871
    1AU     LIG  415   5.857  22.693   8.996
    1AU    AUSL  416   4.019  24.419   7.701
    1AU    AUSL  417   4.049  24.742   8.255
    1AU     AUL  418   4.078  24.462   8.044
    1AU       S  419   4.150  24.029   7.869
    1AU     LIG  420   4.085  23.573   7.937
    1AU     LIG  421   4.039  23.101   7.980
    1AU     LIG  422   3.820  22.683   8.097
    1AU     LIG  423   3.562  22.262   8.044
    1AU     LIG  424   3.467  21.813   8.199
    1AU       S  425   3.768  24.630   8.357
    1AU     LIG  426   3.466  24.234   8.351
    1AU     LIG  427   3.142  24.006   8.586
    1AU     LIG  428   2.926  23.692   8.870
    1AU     LIG  429   2.742  23.491   9.263
    1AU     LIG  430   2.622  23.319   9.688
    1AU    AUSL  431   4.452  24.356   7.645
    1AU    AUSL  432   4.213  24.600   7.348
    1AU     AUL  433   4.114  24.251   7.458
    1AU       S  434   4.483  24.161   7.208
    1AU     LIG  435   4.167  23.822   7.198
    1AU     LIG  436   4.099  23.403   7.047
    1AU     LIG  437   4.047  22.987   6.842
    1AU     LIG  438   3.793  22.582   6.817
    1AU     LIG  439   3.482  22.234   6.955
    1AU       S  440   4.472  24.164   7.780
    1AU     LIG  441   4.542  23.695   7.743
    1AU     LIG  442   4.541  23.285   7.972
    1AU     LIG  443   4.554  22.828   8.055
    1AU     LIG  444   4.808  22.491   8.262
    1AU     LIG  445   5.172  22.175   8.247
    1AU    AUSL  446   4.374  25.972   6.842
    1AU    AUSL  447   4.851  25.898   7.269
    1AU     AUL  448   4.719  26.089   6.864
    1AU       S  449   4.324  26.218   6.633
    1AU     LIG  450   4.651  26.496   6.420
    1AU     LIG  451   4.765  26.935   6.268
    1AU     LIG  452   4.719  27.225   5.881
    1AU     LIG  453   4.702  27.594   5.572
    1AU     LIG  454   4.730  28.005   5.345
    1AU       S  455   5.069  26.103   7.152
    1AU     LIG  456   5.436  26.409   6.958
    1AU     LIG  457   5.715  26.502   6.565
    1AU     LIG  458   5.852  26.808   6.209
    1AU     LIG  459   6.016  27.263   6.090
    1AU     LIG  460   6.394  27.492   5.902
    1AU    AUSL  461   4.217  25.960   7.281
    1AU    AUSL  462   4.119  25.660   6.966
    1AU     AUL  463   4.073  26.118   7.032
    1AU       S  464   4.287  26.458   6.832
    1AU     LIG  465   4.464  26.913   6.691
    1AU     LIG  466   4.446  27.373   6.667
    1AU     LIG  467   4.173  27.757   6.739
    1AU     LIG  468   4.114  28.226   6.715
    1AU     LIG  469   4.026  28.687   6.697
    1AU       S  470   3.910  25.906   6.657
    1AU     LIG  471   3.946  26.104   6.267
    1AU     LIG  472   3.714  26.424   6.012
    1AU     LIG  473   3.668  26.551   5.543
    1AU     LIG  474   3.481  26.752   5.150
    1AU     LIG  475   3.217  27.084   4.947
    1AU    AUSL  476   4.416  24.553   6.948
    1AU    AUSL  477   3.795  24.578   7.271
    1AU     AUL  478   4.076  24.419   7.013
    1AU       S  479   3.624  24.535   7.085
    1AU     LIG  480   3.357  24.229   7.205
    1AU     LIG  481   2.981  24.052   7.001
    1AU     LIG  482   2.738  23.811   6.663
    1AU     LIG  483   2.504  23.598   6.303
    1AU     LIG  484   2.312  23.390   5.931
    1AU       S  485   4.483  24.160   7.009
    1AU     LIG  486   4.502  23.751   6.788
    1AU     LIG  487   4.365  23.343   6.605
    1AU     LIG  488   4.298  22.962   6.349
    1AU     LIG  489   4.444  22.694   5.987
    1AU     LIG  490   4.360  22.325   5.693
    1AU    AUSL  491   4.647  24.587   7.338
    1AU    AUSL  492   4.674  24.898   6.970
    1AU     AUL  493   4.744  24.530   6.935
    1AU       S  494   4.733  24.225   7.291
    1AU     LIG  495   4.695  23.716   7.259
    1AU     LIG  496   4.606  23.284   7.064
    1AU     LIG  497   4.553  22.893   6.796
    1AU     LIG  498   4.868  22.555   6.707
    1AU     LIG  499   5.086  22.167   6.868
    1AU       S  500   4.963  24.711   6.580
    1AU     LIG  501   4.821  24.275   6.510
    1AU     LIG  502   4.992  23.892   6.294
    1AU     LIG  503   5.261  23.544   6.084
    1AU     LIG  504   5.558  23.257   5.835
    1AU     LIG  505   5.638  23.095   5.390
    2AU     AUC  506  15.055  31.343   7.497
    2AU     AUC  507  15.353  31.341   7.330
    2AU     AUC  508  15.296  31.329   7.671
    2AU     AUC  509  14.785  31.335   7.335
    2AU     AUC  510  14.793  31.384   7.678
    2AU     AUC  511  14.894  31.619   7.496
    2AU     AUC  512  15.241  31.611   7.488
    2AU     AUC  513  14.863  31.076   7.499
    2AU     AUC  514  15.219  31.068   7.505
    2AU     AUC  515  15.052  31.167   7.765
    2AU     AUC  516  15.047  31.534   7.755
    2AU     AUC  517  15.059  31.179   7.229
    2AU     AUC  518  15.092  31.493   7.225
    2AU     AUC  519  15.686  31.333   7.192
    2AU     AUC  520  15.668  31.324   7.530
    2AU     AUC  521  15.594  31.306   7.883
    2AU     AUC  522  14.468  31.345   7.171
    2AU     AUC  523  14.449  31.388   7.532
    2AU     AUC  524  14.502  31.430   7.861
    2AU     AUC  525  14.747  31.942   7.464
    2AU     AUC  526  15.099  31.960   7.440
    2AU     AUC  527  15.420  31.897   7.473
    2AU     AUC  528  14.664  30.796   7.495
    2AU     AUC  529  14.994  30.734   7.464
    2AU     AUC  530  15.385  30.750   7.490
    2AU     AUC  531  15.031  30.989   8.061
    2AU     AUC  532  15.046  31.349   8.100
    2AU     AUC  533  15.086  31.709   8.046
    2AU     AUC  534  15.092  31.011   6.946
    2AU     AUC  535  15.081  31.317   6.887
    2AU     AUC  536  15.087  31.637   6.917
    2AU     AUC  537  15.312  31.101   7.998
    2AU     AUC  538  15.347  31.490   7.997
    2AU     AUC  539  15.414  31.165   7.025
    2AU     AUC  540  15.410  31.505   7.030
    2AU     AUC  541  14.751  31.232   8.014
    2AU     AUC  542  14.781  31.607   7.982
    2AU     AUC  543  14.758  31.166   7.042
    2AU     AUC  544  14.743  31.473   6.995
    2AU     AUC  545  15.594  31.625   7.323
    2AU     AUC  546  15.514  31.608   7.692
    2AU     AUC  547  14.572  31.651   7.334
    2AU     AUC  548  14.603  31.721   7.679
    2AU     AUC  549  15.565  31.027   7.365
    2AU     AUC  550  15.505  30.998   7.689
    2AU     AUC  551  14.523  31.057   7.367
    2AU     AUC  552  14.578  31.108   7.713
    2AU     AUC  553  14.926  31.888   7.749
    2AU     AUC  554  15.251  31.828   7.768
    2AU     AUC  555  14.851  30.883   7.787
    2AU     AUC  556  15.171  30.815   7.765
    2AU     AUC  557  14.894  31.771   7.180
    2AU     AUC  558  15.280  31.791   7.157
    2AU     AUC  559  14.848  30.866   7.209
    2AU     AUC  560  15.238  30.894   7.216
    2AU    AUSL  561  15.576  31.214   8.265
    2AU    AUSL  562  15.318  30.801   8.162
    2AU     AUL  563  15.599  30.805   8.367
    2AU       S  564  15.674  30.452   8.088
    2AU     LIG  565  15.551  30.256   8.446
    2AU     LIG  566  15.783  29.992   8.738
    2AU     LIG  567  16.052  29.672   8.948
    2AU     LIG  568  16.357  29.409   9.192
    2AU     LIG  569  16.479  29.322   9.632
    2AU       S  570  15.798  31.211   8.415
    2AU     LIG  571  15.649  31.254   8.849
    2AU     LIG  572  15.798  31.135   9.276
    2AU     LIG  573  16.173  31.033   9.561
    2AU     LIG  574  16.592  31.036   9.805
    2AU     LIG  575  16.956  31.094  10.109
    2AU    AUSL  576  15.160  31.131   8.410
    2AU    AUSL  577  14.918  31.537   8.437
    2AU     AUL  578  15.100  31.427   8.740
    2AU       S  579  15.274  31.036   8.587
    2AU     LIG  580  15.220  31.004   9.038
    2AU     LIG  581  15.396  30.840   9.451
    2AU     LIG  582  15.546  30.647   9.873
    2AU     LIG  583  15.660  30.591  10.343
    2AU     LIG  584  15.731  30.459  10.797
    2AU       S  585  14.683  31.275   8.629
    2AU     LIG  586  14.764  31.275   9.101
    2AU     LIG  587  14.534  31.224   9.504
    2AU     LIG  588  14.288  31.226   9.903
    2AU     LIG  589  14.230  31.432  10.331
    2AU     LIG  590  14.146  31.717  10.709
    2AU    AUSL  591  15.243  31.513   8.164
    2AU    AUSL  592  15.693  31.610   8.122
    2AU     AUL  593  15.466  31.522   8.455
    2AU       S  594  15.159  31.889   8.611
    2AU     LIG  595  15.512  31.768   8.899
    2AU     LIG  596  15.724  31.908   9.313
    2AU     LIG  597  15.727  32.081   9.780
    2AU     LIG  598  15.781  32.141  10.257
    2AU     LIG  599  15.772  31.974  10.701
    2AU       S  600  15.848  31.764   8.338
    2AU     LIG  601  16.285  31.831   8.335
    2AU     LIG  602  16.531  32.046   8.667
    2AU     LIG  603  16.762  32.272   9.008
    2AU     LIG  604  16.949  32.422   9.413
    2AU     LIG  605  17.327  32.386   9.701
    2AU    AUSL  606  15.597  31.372   6.864
    2AU    AUSL  607  15.497  31.808   6.819
    2AU     AUL  608  15.751  31.646   6.592
    2AU       S  609  15.419  31.513   6.323
    2AU     LIG  610  15.711  31.552   5.920
    2AU     LIG  611  15.942  31.253   5.632
    2AU     LIG  612  16.178  30.997   5.304
    2AU     LIG  613  16.594  30.867   5.067
    2AU     LIG  614  16.863  30.826   4.671
    2AU       S  615  15.829  32.029   6.858
    2AU     LIG  616  15.998  32.160   6.460
    2AU     LIG  617  16.202  32.365   6.079
    2AU     LIG  618  16.436  32.605   5.747
    2AU     LIG  619  16.559  32.924   5.429
    2AU     LIG  620  16.503  33.151   5.011
    2AU    AUSL  621  15.381  31.111   6.581
    2AU    AUSL  622  15.822  31.013   6.953
    2AU     AUL  623  15.770  31.172   6.653
    2AU       S  624  15.905  30.725   6.745
    2AU     LIG  625  16.029  30.401   6.404
    2AU     LIG  626  16.262  30.012   6.292
    2AU     LIG  627  16.516  29.742   5.996
    2AU     LIG  628  16.911  29.738   5.731
    2AU     LIG  629  17.254  29.966   5.492
    2AU       S  630  15.509  31.318   6.298
    2AU     LIG  631  15.526  31.060   5.924
    2AU     LIG  632  15.614  30.884   5.489
    2AU     LIG  633  15.547  30.744   5.051
    2AU     LIG  634  15.735  30.568   4.664
    2AU     LIG  635  15.881  30.674   4.242
    2AU    AUSL  636  15.197  31.494   6.750
    2AU    AUSL  637  14.960  31.115   6.700
    2AU     AUL  638  15.103  31.153   6.431
    2AU       S  639  14.652  31.175   6.287
    2AU     LIG  640  14.797  30.902   5.965
    2AU     LIG  641  14.596  30.664   5.603
    2AU     LIG  642  14.357  30.669   5.180
    2AU     LIG  643  14.088  30.485   4.819
    2AU     LIG  644  14.027  30.437   4.331
    2AU       S  645  15.280  31.600   6.437
    2AU     LIG  646  15.173  31.451   5.917
    2AU     LIG  647  15.442  31.374   5.500
    2AU     LIG  648  15.696  31.253   5.095
    2AU     LIG  649  15.770  31.299   4.601
    2AU     LIG  650  15.873  31.531   4.169
    2AU    AUSL  651  14.515  31.500   8.247
    2AU    AUSL  652  14.847  31.836   8.129
    2AU     AUL  653  14.689  31.774   8.457
    2AU       S  654  14.501  31.392   8.679
    2AU     LIG  655  14.308  31.073   8.953
    2AU     LIG  656  14.105  30.970   9.373
    2AU     LIG  657  13.893  30.894   9.787
    2AU     LIG  658  13.479  30.966   9.990
    2AU     LIG  659  13.211  31.200  10.285
    2AU       S  660  14.446  32.101   8.216
    2AU     LIG  661  14.345  32.283   8.631
    2AU     LIG  662  14.158  32.506   9.008
    2AU     LIG  663  14.033  32.627   9.453
    2AU     LIG  664  13.975  32.834   9.880
    2AU     LIG  665  13.797  33.035  10.272
    2AU    AUSL  666  14.821  31.203   8.154
    2AU    AUSL  667  14.394  31.074   8.143
    2AU     AUL  668  14.311  31.309   8.267
    2AU       S  669  14.306  30.855   8.397
    2AU     LIG  670  13.871  30.805   8.248
    2AU     LIG  671  13.607  30.458   8.405
    2AU     LIG  672  13.357  30.118   8.600
    2AU     LIG  673  13.104  29.851   8.886
    2AU     LIG  674  12.917  29.745   9.308
    2AU       S  675  14.692  31.141   8.544
    2AU     LIG  676  14.756  30.825   8.872
    2AU     LIG  677  14.579  30.758   9.293
    2AU     LIG  678  14.400  30.741   9.736
    2AU     LIG  679  14.236  30.546  10.142
    2AU     LIG  680  14.048  30.529  10.578
    2AU    AUSL  681  14.554  31.260   6.777
    2AU    AUSL  682  14.744  30.886   6.990
    2AU     AUL  683  14.725  30.889   6.636
    2AU       S  684  14.418  31.160   6.413
    2AU     LIG  685  14.282  30.895   6.042
    2AU     LIG  686  14.109  30.857   5.602
    2AU     LIG  687  13.849  30.770   5.207
    2AU     LIG  688  13.570  30.843   4.828
    2AU     LIG  689  13.125  30.937   4.648
    2AU       S  690  14.312  30.756   6.789
    2AU     LIG  691  14.063  30.449   6.583
    2AU     LIG  692  13.855  30.064   6.432
    2AU     LIG  693  13.694  29.782   6.087
    2AU     LIG  694  13.577  29.595   5.665
    2AU     LIG  695  13.402  29.425   5.246
    2AU    AUSL  696  14.824  31.539   6.546
    2AU    AUSL  697  14.332  31.614   6.915
    2AU     AUL  698  14.464  31.583   6.590
    2AU       S  699  14.066  31.795   6.744
    2AU     LIG  700  13.977  32.014   6.298
    2AU     LIG  701  13.854  32.331   5.976
    2AU     LIG  702  13.636  32.448   5.565
    2AU     LIG  703  13.220  32.497   5.340
    2AU     LIG  704  12.833  32.629   5.102
    2AU       S  705  14.735  31.405   6.249
    2AU     LIG  706  14.515  31.311   5.826
    2AU     LIG  707  14.511  31.129   5.400
    2AU     LIG  708  14.486  31.185   4.940
    2AU     LIG  709  14.421  31.511   4.589
    2AU     LIG  710  14.244  31.811   4.257
    2AU    AUSL  711  15.849  31.865   7.525
    2AU    AUSL  712  15.834  31.635   7.109
    2AU     AUL  713  16.128  31.969   7.296
    2AU       S  714  15.942  31.717   6.989
    2AU     LIG  715  16.315  31.889   6.788
    2AU     LIG  716  16.491  32.016   6.367
    2AU     LIG  717  16.718  32.297   6.062
    2AU     LIG  718  16.915  32.427   5.640
    2AU     LIG  719  17.272  32.545   5.346
    2AU       S  720  16.302  31.912   7.718
    2AU     LIG  721  16.731  32.011   7.527
    2AU     LIG  722  17.210  32.051   7.497
    2AU     LIG  723  17.675  32.124   7.434
    2AU     LIG  724  18.013  32.436   7.359
    2AU     LIG  725  18.027  32.927   7.318
    2AU    AUSL  726  16.052  31.459   7.439
    2AU    AUSL  727  15.970  31.133   7.774
    2AU     AUL  728  16.138  31.370   7.907
    2AU       S  729  16.255  31.555   7.485
    2AU     LIG  730  16.631  31.607   7.230
    2AU     LIG  731  17.115  31.662   7.175
    2AU     LIG  732  17.586  31.775   7.076
    2AU     LIG  733  18.075  31.900   7.170
    2AU     LIG  734  18.360  32.243   7.007
    2AU       S  735  16.246  30.969   7.654
    2AU     LIG  736  16.662  30.668   7.668
    2AU     LIG  737  17.073  30.358   7.686
    2AU     LIG  738  17.534  30.145   7.698
    2AU     LIG  739  17.972  30.165   7.923
    2AU     LIG  740  18.356  30.478   8.004
    2AU    AUSL  741  15.720  31.475   7.717
    2AU    AUSL  742  15.510  31.860   7.796
    2AU     AUL  743  15.877  31.805   7.871
    2AU       S  744  15.838  32.060   8.258
    2AU     LIG  745  16.167  32.337   8.433
    2AU     LIG  746  16.476  32.577   8.696
    2AU     LIG  747  16.680  32.964   8.861
    2AU     LIG  748  16.891  33.388   8.761
    2AU     LIG  749  17.261  33.611   8.931
    2AU       S  750  16.308  31.738   7.699
    2AU     LIG  751  16.706  31.538   7.746
    2AU     LIG  752  17.165  31.575   7.689
    2AU     LIG  753  17.559  31.794   7.810
    2AU     LIG  754  18.012  31.933   7.779
    2AU     LIG  755  18.441  31.879   7.983
    2AU    AUSL  756  14.427  31.948   7.500
    2AU    AUSL  757  14.489  31.729   7.888
    2AU     AUL  758  14.198  32.068   7.732
    2AU       S  759  14.338  31.906   8.137
    2AU     LIG  760  14.181  31.790   8.550
    2AU     LIG  761  13.983  32.020   8.923
    2AU     LIG  762  13.706  32.297   9.211
    2AU     LIG  763  13.353  32.455   9.510
    2AU     LIG  764  12.954  32.557   9.784
    2AU       S  765  14.446  32.325   7.420
    2AU     LIG  766  13.982  32.343   7.342
    2AU     LIG  767  13.542  32.564   7.413
    2AU     LIG  768  13.090  32.770   7.453
    2AU     LIG  769  12.629  32.940   7.488
    2AU     LIG  770  12.292  33.273   7.559
    2AU    AUSL  771  14.376  31.540   7.328
    2AU    AUSL  772  14.501  31.993   7.079
    2AU     AUL  773  14.202  31.891   7.194
    2AU       S  774  13.982  31.325   6.962
    2AU     LIG  775  13.608  31.592   7.011
    2AU     LIG  776  13.161  31.754   6.904
    2AU     LIG  777  12.745  31.983   6.924
    2AU     LIG  778  12.305  32.135   7.010
    2AU     LIG  779  11.880  32.307   6.938
    2AU       S  780  14.343  32.244   6.894
    2AU     LIG  781  14.134  32.470   6.509
    2AU     LIG  782  14.052  32.784   6.172
    2AU     LIG  783  14.033  33.243   6.065
    2AU     LIG  784  13.774  33.634   6.028
    2AU     LIG  785  13.389  33.869   5.863
    2AU    AUSL  786  14.129  31.613   7.692
    2AU    AUSL  787  14.082  31.235   7.409
    2AU     AUL  788  13.968  31.544   7.392
    2AU       S  789  13.890  31.167   7.682
    2AU     LIG  790  13.592  31.137   7.303
    2AU     LIG  791  13.168  30.935   7.194
    2AU     LIG  792  12.672  30.878   7.258
    2AU     LIG  793  12.228  30.712   7.107
    2AU     LIG  794  11.799  30.460   6.974
    2AU       S  795  13.998  31.648   7.892
    2AU     LIG  796  13.541  31.723   7.903
    2AU     LIG  797  13.146  31.832   8.147
    2AU     LIG  798  12.823  32.158   8.110
    2AU     LIG  799  12.372  32.214   8.191
    2AU     LIG  800  11.941  32.372   8.125
    2AU    AUSL  801  15.795  30.767   7.587
    2AU    AUSL  802  15.566  31.029   7.881
    2AU     AUL  803  15.886  30.913   7.986
    2AU       S  804  16.135  30.696   7.631
    2AU     LIG  805  16.331  30.302   7.510
    2AU     LIG  806  16.700  30.017   7.557
    2AU     LIG  807  17.129  29.830   7.540
    2AU     LIG  808  17.556  29.730   7.376
    2AU     LIG  809  17.843  29.391   7.477
    2AU       S  810  15.798  30.468   7.963
    2AU     LIG  811  16.053  30.214   8.295
    2AU     LIG  812  16.297  29.992   8.622
    2AU     LIG  813  16.588  29.758   8.900
    2AU     LIG  814  16.909  29.541   9.164
    2AU     LIG  815  17.275  29.592   9.462
    2AU    AUSL  816  15.772  31.145   7.357
    2AU    AUSL  817  15.657  30.667   7.186
    2AU     AUL  818  15.955  30.824   7.221
    2AU       S  819  16.287  31.047   7.434
    2AU     LIG  820  16.454  30.693   7.196
    2AU     LIG  821  16.829  30.395   7.229
    2AU     LIG  822  17.290  30.211   7.233
    2AU     LIG  823  17.774  30.165   7.201
    2AU     LIG  824  18.231  30.122   7.033
    2AU       S  825  15.872  30.498   6.881
    2AU     LIG  826  15.952  30.046   6.771
    2AU     LIG  827  16.056  29.631   6.568
    2AU     LIG  828  16.350  29.366   6.322
    2AU     LIG  829  16.684  29.027   6.266
    2AU     LIG  830  16.996  28.878   5.955
    2AU    AUSL  831  14.269  30.861   7.567
    2AU    AUSL  832  14.388  31.094   7.142
    2AU     AUL  833  14.042  30.936   7.287
    2AU       S  834  14.255  30.918   6.876
    2AU     LIG  835  13.795  30.820   6.862
    2AU     LIG  836  13.545  30.470   6.645
    2AU     LIG  837  13.358  30.144   6.330
    2AU     LIG  838  13.208  29.873   5.952
    2AU     LIG  839  13.139  29.811   5.480
    2AU       S  840  13.848  30.936   7.726
    2AU     LIG  841  13.619  30.648   7.431
    2AU     LIG  842  13.190  30.439   7.367
    2AU     LIG  843  12.720  30.353   7.480
    2AU     LIG  844  12.378  30.061   7.681
    2AU     LIG  845  11.937  29.861   7.626
    2AU    AUSL  846  14.360  31.254   7.757
    2AU    AUSL  847  14.609  30.858   7.832
    2AU     AUL  848  14.265  30.836   7.902
    2AU       S  849  14.329  30.625   8.305
    2AU     LIG  850  14.044  30.303   8.174
    2AU     LIG  851  13.676  29.994   8.176
    2AU     LIG  852  13.407  29.657   8.378
    2AU     LIG  853  13.177  29.369   8.684
    2AU     LIG  854  12.870  28.981   8.726
    2AU       S  855  13.951  31.177   7.871
    2AU     LIG  856  13.423  31.240   7.788
    2AU     LIG  857  13.003  31.114   7.636
    2AU     LIG  858  12.633  30.895   7.774
    2AU     LIG  859  12.296  30.594   7.661
    2AU     LIG  860  11.918  30.365   7.808
    2AU    AUSL  861  15.122  32.081   7.894
    2AU    AUSL  862  14.684  32.113   7.814
    2AU     AUL  863  14.915  32.156   8.187
    2AU       S  864  14.561  32.310   7.920
    2AU     LIG  865  14.296  32.582   8.203
    2AU     LIG  866  14.185  32.838   8.590
    2AU     LIG  867  14.062  33.282   8.753
    2AU     LIG  868  13.703  33.516   8.939
    2AU     LIG  869  13.535  33.953   8.949
    2AU       S  870  15.152  32.465   7.940
    2AU     LIG  871  15.262  32.540   8.349
    2AU     LIG  872  15.284  32.967   8.557
    2AU     LIG  873  15.310  33.407   8.755
    2AU     LIG  874  15.299  33.644   9.183
    2AU     LIG  875  15.387  33.891   9.590
    2AU    AUSL  876  14.957  32.304   7.537
    2AU    AUSL  877  15.246  32.229   7.169
    2AU     AUL  878  15.175  32.569   7.323
    2AU       S  879  14.980  32.537   7.761
    2AU     LIG  880  15.115  32.953   8.040
    2AU     LIG  881  15.118  33.385   8.268
    2AU     LIG  882  15.003  33.832   8.406
    2AU     LIG  883  14.764  34.267   8.346
    2AU     LIG  884  14.705  34.766   8.283
    2AU       S  885  14.976  32.397   6.947
    2AU     LIG  886  15.358  32.700   6.879
    2AU     LIG  887  15.528  33.162   6.802
    2AU     LIG  888  15.655  33.636   6.680
    2AU     LIG  889  15.929  34.072   6.627
    2AU     LIG  890  16.219  34.497   6.622
    2AU    AUSL  891  15.407  32.214   7.579
    2AU    AUSL  892  15.367  31.921   8.209
    2AU     AUL  893  15.514  32.166   7.949
    2AU       S  894  15.600  32.000   8.409
    2AU     LIG  895  15.947  32.016   8.766
    2AU     LIG  896  16.233  32.276   9.035
    2AU     LIG  897  16.479  32.631   9.257
    2AU     LIG  898  16.562  32.826   9.696
    2AU     LIG  899  16.583  32.941  10.174
    2AU       S  900  15.338  32.548   7.757
    2AU     LIG  901  15.602  32.763   8.039
    2AU     LIG  902  15.592  33.185   8.214
    2AU     LIG  903  15.623  33.622   8.367
    2AU     LIG  904  15.981  33.954   8.358
    2AU     LIG  905  16.130  34.390   8.264
    2AU    AUSL  906  14.994  30.647   7.915
    2AU    AUSL  907  15.412  30.638   7.750
    2AU     AUL  908  15.216  30.501   8.128
    2AU       S  909  14.950  30.155   7.983
    2AU     LIG  910  14.969  29.804   8.264
    2AU     LIG  911  14.710  29.438   8.389
    2AU     LIG  912  14.677  28.973   8.414
    2AU     LIG  913  14.897  28.569   8.539
    2AU     LIG  914  15.176  28.231   8.736
    2AU       S  915  15.564  30.398   7.806
    2AU     LIG  916  15.648  29.958   8.030
    2AU     LIG  917  15.952  29.706   8.341
    2AU     LIG  918  16.321  29.464   8.567
    2AU     LIG  919  16.686  29.231   8.806
    2AU     LIG  920  17.088  28.935   8.808
    2AU    AUSL  921  14.674  30.489   7.633
    2AU    AUSL  922  14.777  30.793   8.252
    2AU     AUL  923  14.655  30.524   7.999
    2AU       S  924  14.772  30.094   7.845
    2AU     LIG  925  14.636  29.646   7.899
    2AU     LIG  926  14.501  29.188   7.972
    2AU     LIG  927  14.267  28.761   8.000
    2AU     LIG  928  14.109  28.349   8.179
    2AU     LIG  929  13.996  27.913   8.325
    2AU       S  930  14.548  30.682   8.447
    2AU     LIG  931  14.158  30.425   8.701
    2AU     LIG  932  13.870  30.054   8.649
    2AU     LIG  933  13.603  29.714   8.846
    2AU     LIG  934  13.355  29.491   9.175
    2AU     LIG  935  13.218  29.438   9.625
    2AU    AUSL  936  15.110  30.373   7.591
    2AU    AUSL  937  14.859  30.509   7.234
    2AU     AUL  938  14.741  30.250   7.411
    2AU       S  939  15.082  30.232   7.100
    2AU     LIG  940  14.692  29.989   6.993
    2AU     LIG  941  14.565  29.567   7.100
    2AU     LIG  942  14.505  29.115   6.988
    2AU     LIG  943  14.244  28.721   6.872
    2AU     LIG  944  14.203  28.250   6.805
    2AU       S  945  15.102  30.183   7.739
    2AU     LIG  946  15.146  29.716   7.790
    2AU     LIG  947  15.019  29.296   8.000
    2AU     LIG  948  15.038  28.812   8.081
    2AU     LIG  949  15.143  28.334   8.147
    2AU     LIG  950  15.088  27.909   8.335
    2AU    AUSL  951  15.082  31.951   6.846
    2AU    AUSL  952  15.519  31.909   7.244
    2AU     AUL  953  15.375  32.136   6.855
    2AU       S  954  14.976  32.360   6.723
    2AU     LIG  955  15.022  32.764   6.506
    2AU     LIG  956  15.298  33.100   6.341
    2AU     LIG  957  15.308  33.441   6.029
    2AU     LIG  958  15.102  33.780   5.789
    2AU     LIG  959  15.132  34.194   5.586
    2AU       S  960  15.737  32.123   7.130
    2AU     LIG  961  16.156  32.373   6.939
    2AU     LIG  962  16.406  32.495   6.539
    2AU     LIG  963  16.601  32.792   6.210
    2AU     LIG  964  16.821  33.231   6.134
    2AU     LIG  965  17.149  33.588   6.212
    2AU    AUSL  966  14.886  31.996   7.251
    2AU    AUSL  967  14.775  31.667   6.950
    2AU     AUL  968  14.735  31.974   6.805
    2AU       S  969  14.798  32.367   7.076
    2AU     LIG  970  14.863  32.867   6.995
    2AU     LIG  971  15.017  33.249   6.753
    2AU     LIG  972  15.056  33.717   6.637
    2AU     LIG  973  14.993  34.191   6.668
    2AU     LIG  974  14.627  34.499   6.672
    2AU       S  975  14.295  32.015   6.667
    2AU     LIG  976  14.535  32.186   6.359
    2AU     LIG  977  14.370  32.415   5.992
    2AU     LIG  978  14.117  32.651   5.662
    2AU     LIG  979  13.915  32.768   5.248
    2AU     LIG  980  13.820  33.105   4.935
    2AU    AUSL  981  15.085  30.647   6.870
    2AU    AUSL  982  14.459  30.660   7.236
    2AU     AUL  983  14.709  30.506   6.932
    2AU       S  984  14.266  30.615   7.035
    2AU     LIG  985  13.879  30.357   7.062
    2AU     LIG  986  13.600  30.018   6.881
    2AU     LIG  987  13.481  29.697   6.553
    2AU     LIG  988  13.271  29.407   6.240
    2AU     LIG  989  13.052  28.966   6.249
    2AU       S  990  15.110  30.250   6.858
    2AU     LIG  991  15.111  29.808   6.760
    2AU     LIG  992  14.797  29.488   6.642
    2AU     LIG  993  14.750  29.041   6.543
    2AU     LIG  994  14.804  28.680   6.261
    2AU     LIG  995  14.847  28.498   5.829
    2AU    AUSL  996  15.253  30.660   7.304
    2AU    AUSL  997  15.375  30.949   6.975
    2AU     AUL  998  15.420  30.580   6.949
    2AU       S  999  15.287  30.213   7.193
    2AU     LIG 1000  15.067  29.769   7.277
    2AU     LIG 1001  15.024  29.331   7.072
    2AU     LIG 1002  15.134  28.903   6.877
    2AU     LIG 1003  15.431  28.517   6.816
    2AU     LIG 1004  15.763  28.209   6.640
    2AU       S 1005  15.664  30.713   6.596
    2AU     LIG 1006  15.539  30.275   6.552
    2AU     LIG 1007  15.740  29.940   6.300
    2AU     LIG 1008  16.001  29.646   6.029
    2AU     LIG 1009  16.149  29.481   5.602
    2AU     LIG 1010  16.266  29.348   5.150
    3AU     AUC 1011   8.009  39.281   7.511
    3AU     AUC 1012   8.291  39.287   7.341
    3AU     AUC 1013   8.270  39.281   7.676
    3AU     AUC 1014   7.729  39.270   7.353
    3AU     AUC 1015   7.759  39.319   7.700
    3AU     AUC 1016   7.835  39.549   7.514
    3AU     AUC 1017   8.187  39.553   7.494
    3AU     AUC 1018   7.823  39.010   7.519
    3AU     AUC 1019   8.176  39.008   7.515
    3AU     AUC 1020   8.020  39.115   7.783
    3AU     AUC 1021   8.004  39.476   7.765
    3AU     AUC 1022   7.997  39.114   7.246
    3AU     AUC 1023   8.032  39.428   7.233
    3AU     AUC 1024   8.618  39.285   7.181
    3AU     AUC 1025   8.626  39.273   7.519
    3AU     AUC 1026   8.571  39.265   7.869
    3AU     AUC 1027   7.413  39.274   7.191
    3AU     AUC 1028   7.400  39.318   7.553
    3AU     AUC 1029   7.464  39.351   7.903
    3AU     AUC 1030   7.674  39.871   7.492
    3AU     AUC 1031   8.031  39.901   7.441
    3AU     AUC 1032   8.358  39.849   7.469
    3AU     AUC 1033   7.617  38.726   7.529
    3AU     AUC 1034   7.963  38.675   7.489
    3AU     AUC 1035   8.348  38.695   7.496
    3AU     AUC 1036   8.011  38.938   8.083
    3AU     AUC 1037   8.028  39.295   8.112
    3AU     AUC 1038   8.041  39.653   8.053
    3AU     AUC 1039   8.023  38.938   6.966
    3AU     AUC 1040   8.006  39.263   6.903
    3AU     AUC 1041   8.012  39.586   6.919
    3AU     AUC 1042   8.301  39.061   8.001
    3AU     AUC 1043   8.319  39.454   7.991
    3AU     AUC 1044   8.336  39.113   7.022
    3AU     AUC 1045   8.331  39.459   7.035
    3AU     AUC 1046   7.721  39.156   8.033
    3AU     AUC 1047   7.743  39.526   8.009
    3AU     AUC 1048   7.695  39.089   7.067
    3AU     AUC 1049   7.674  39.410   7.012
    3AU     AUC 1050   8.542  39.568   7.332
    3AU     AUC 1051   8.480  39.559   7.692
    3AU     AUC 1052   7.519  39.583   7.352
    3AU     AUC 1053   7.538  39.642   7.706
    3AU     AUC 1054   8.511  38.980   7.353
    3AU     AUC 1055   8.472  38.947   7.684
    3AU     AUC 1056   7.479  38.974   7.383
    3AU     AUC 1057   7.549  39.031   7.730
    3AU     AUC 1058   7.852  39.817   7.766
    3AU     AUC 1059   8.193  39.776   7.764
    3AU     AUC 1060   7.809  38.823   7.807
    3AU     AUC 1061   8.149  38.768   7.782
    3AU     AUC 1062   7.839  39.696   7.191
    3AU     AUC 1063   8.228  39.731   7.155
    3AU     AUC 1064   7.803  38.797   7.231
    3AU     AUC 1065   8.193  38.830   7.226
    3AU    AUSL 1066   8.588  39.207   8.231
    3AU    AUSL 1067   8.321  38.756   8.183
    3AU     AUL 1068   8.641  38.803   8.332
    3AU       S 1069   8.648  38.391   8.128
    3AU     LIG 1070   8.526  38.228   8.487
    3AU     LIG 1071   8.720  37.910   8.739
    3AU     LIG 1072   8.896  37.510   8.897
    3AU     LIG 1073   9.127  37.257   9.213
    3AU     LIG 1074   9.314  37.394   9.624
    3AU       S 1075   8.822  39.222   8.381
    3AU     LIG 1076   8.728  39.250   8.844
    3AU     LIG 1077   8.839  39.014   9.253
    3AU     LIG 1078   9.134  38.810   9.589
    3AU     LIG 1079   9.486  38.713   9.914
    3AU     LIG 1080   9.860  38.858  10.183
    3AU    AUSL 1081   8.190  39.102   8.416
    3AU    AUSL 1082   7.917  39.476   8.454
    3AU     AUL 1083   8.124  39.391   8.747
    3AU       S 1084   8.355  39.028   8.600
    3AU     LIG 1085   8.231  38.954   9.014
    3AU     LIG 1086   8.428  38.711   9.366
    3AU     LIG 1087   8.703  38.546   9.714
    3AU     LIG 1088   8.832  38.502  10.170
    3AU     LIG 1089   8.808  38.740  10.585
    3AU       S 1090   7.715  39.203   8.683
    3AU     LIG 1091   7.724  39.103   9.160
    3AU     LIG 1092   7.418  39.122   9.535
    3AU     LIG 1093   7.234  39.141   9.982
    3AU     LIG 1094   7.170  39.448  10.360
    3AU     LIG 1095   7.119  39.831  10.668
    3AU    AUSL 1096   8.224  39.477   8.159
    3AU    AUSL 1097   8.656  39.622   8.108
    3AU     AUL 1098   8.468  39.509   8.441
    3AU       S 1099   8.137  39.851   8.612
    3AU     LIG 1100   8.489  39.728   8.901
    3AU     LIG 1101   8.668  39.813   9.339
    3AU     LIG 1102   8.648  39.953   9.812
    3AU     LIG 1103   8.585  39.962  10.297
    3AU     LIG 1104   8.776  39.999  10.740
    3AU       S 1105   8.805  39.787   8.269
    3AU     LIG 1106   9.192  39.690   8.389
    3AU     LIG 1107   9.479  39.918   8.680
    3AU     LIG 1108   9.726  40.178   8.994
    3AU     LIG 1109   9.968  40.406   9.325
    3AU     LIG 1110  10.317  40.351   9.648
    3AU    AUSL 1111   8.489  39.324   6.888
    3AU    AUSL 1112   8.409  39.759   6.841
    3AU     AUL 1113   8.607  39.629   6.618
    3AU       S 1114   8.373  39.424   6.300
    3AU     LIG 1115   8.789  39.455   6.043
    3AU     LIG 1116   8.962  39.214   5.678
    3AU     LIG 1117   9.097  38.965   5.290
    3AU     LIG 1118   9.474  38.838   5.006
    3AU     LIG 1119   9.831  38.871   4.681
    3AU       S 1120   8.795  39.994   6.879
    3AU     LIG 1121   8.744  40.236   6.513
    3AU     LIG 1122   8.949  40.366   6.105
    3AU     LIG 1123   9.245  40.474   5.753
    3AU     LIG 1124   9.494  40.627   5.378
    3AU     LIG 1125   9.573  40.947   5.026
    3AU    AUSL 1126   8.298  39.059   6.588
    3AU    AUSL 1127   8.744  38.978   6.915
    3AU     AUL 1128   8.673  39.156   6.642
    3AU       S 1129   8.829  38.700   6.679
    3AU     LIG 1130   8.919  38.294   6.382
    3AU     LIG 1131   9.135  37.884   6.382
    3AU     LIG 1132   9.399  37.633   6.089
    3AU     LIG 1133   9.667  37.639   5.696
    3AU     LIG 1134  10.086  37.708   5.473
    3AU       S 1135   8.409  39.238   6.264
    3AU     LIG 1136   8.588  38.964   5.961
    3AU     LIG 1137   8.622  38.864   5.497
    3AU     LIG 1138   8.679  38.630   5.084
    3AU     LIG 1139   8.720  38.416   4.653
    3AU     LIG 1140   8.887  38.456   4.214
    3AU    AUSL 1141   8.114  39.460   6.711
    3AU    AUSL 1142   7.894  39.064   6.755
    3AU     AUL 1143   8.023  39.093   6.457
    3AU       S 1144   7.600  39.101   6.288
    3AU     LIG 1145   7.694  38.939   5.884
    3AU     LIG 1146   7.434  38.676   5.592
    3AU     LIG 1147   7.183  38.629   5.199
    3AU     LIG 1148   6.926  38.557   4.814
    3AU     LIG 1149   6.997  38.495   4.340
    3AU       S 1150   8.165  39.547   6.427
    3AU     LIG 1151   8.035  39.400   5.954
    3AU     LIG 1152   8.427  39.348   5.650
    3AU     LIG 1153   8.692  39.329   5.244
    3AU     LIG 1154   8.741  39.458   4.780
    3AU     LIG 1155   8.644  39.647   4.347
    3AU    AUSL 1156   7.508  39.421   8.295
    3AU    AUSL 1157   7.792  39.768   8.155
    3AU     AUL 1158   7.675  39.710   8.487
    3AU       S 1159   7.551  39.336   8.750
    3AU     LIG 1160   7.230  39.130   8.985
    3AU     LIG 1161   6.986  38.927   9.325
    3AU     LIG 1162   6.824  38.914   9.752
    3AU     LIG 1163   6.622  38.869  10.150
    3AU     LIG 1164   6.219  38.991  10.352
    3AU       S 1165   7.391  40.017   8.266
    3AU     LIG 1166   7.326  40.226   8.661
    3AU     LIG 1167   7.135  40.472   9.017
    3AU     LIG 1168   6.990  40.707   9.399
    3AU     LIG 1169   7.008  40.884   9.851
    3AU     LIG 1170   6.926  41.138  10.253
    3AU    AUSL 1171   7.817  39.122   8.195
    3AU    AUSL 1172   7.369  39.026   8.147
    3AU     AUL 1173   7.357  39.173   8.366
    3AU       S 1174   7.225  38.714   8.320
    3AU     LIG 1175   6.800  38.698   8.230
    3AU     LIG 1176   6.527  38.349   8.357
    3AU     LIG 1177   6.291  38.086   8.673
    3AU     LIG 1178   6.058  37.793   8.954
    3AU     LIG 1179   5.895  37.647   9.368
    3AU       S 1180   7.753  39.044   8.588
    3AU     LIG 1181   7.537  38.744   8.846
    3AU     LIG 1182   7.429  38.669   9.287
    3AU     LIG 1183   7.262  38.657   9.731
    3AU     LIG 1184   7.092  38.620  10.172
    3AU     LIG 1185   7.110  38.425  10.614
    3AU    AUSL 1186   7.468  39.157   6.810
    3AU    AUSL 1187   7.663  38.780   6.984
    3AU     AUL 1188   7.663  38.813   6.654
    3AU       S 1189   7.424  39.059   6.336
    3AU     LIG 1190   7.183  38.979   5.958
    3AU     LIG 1191   6.943  38.887   5.572
    3AU     LIG 1192   6.751  38.923   5.149
    3AU     LIG 1193   6.408  38.881   4.843
    3AU     LIG 1194   6.040  39.112   4.640
    3AU       S 1195   7.272  38.638   6.831
    3AU     LIG 1196   7.109  38.218   6.695
    3AU     LIG 1197   6.849  37.932   6.422
    3AU     LIG 1198   6.567  37.712   6.105
    3AU     LIG 1199   6.510  37.555   5.652
    3AU     LIG 1200   6.541  37.361   5.207
    3AU    AUSL 1201   7.703  39.453   6.584
    3AU    AUSL 1202   7.302  39.557   6.926
    3AU     AUL 1203   7.285  39.351   6.654
    3AU       S 1204   7.320  39.800   6.688
    3AU     LIG 1205   6.980  39.984   6.488
    3AU     LIG 1206   6.878  40.239   6.110
    3AU     LIG 1207   6.618  40.276   5.698
    3AU     LIG 1208   6.217  40.269   5.409
    3AU     LIG 1209   5.757  40.305   5.247
    3AU       S 1210   7.653  39.392   6.345
    3AU     LIG 1211   7.487  39.415   5.908
    3AU     LIG 1212   7.371  39.180   5.509
    3AU     LIG 1213   7.212  39.149   5.060
    3AU     LIG 1214   7.144  39.411   4.650
    3AU     LIG 1215   7.073  39.740   4.287
    3AU    AUSL 1216   8.802  39.801   7.512
    3AU    AUSL 1217   8.761  39.587   7.098
    3AU     AUL 1218   9.070  39.912   7.307
    3AU       S 1219   8.880  39.692   6.971
    3AU     LIG 1220   9.079  39.808   6.522
    3AU     LIG 1221   9.348  40.049   6.207
    3AU     LIG 1222   9.678  40.256   5.937
    3AU     LIG 1223   9.977  40.328   5.571
    3AU     LIG 1224  10.391  40.309   5.315
    3AU       S 1225   9.188  39.697   7.712
    3AU     LIG 1226   9.624  39.868   7.596
    3AU     LIG 1227  10.106  39.977   7.530
    3AU     LIG 1228  10.587  40.107   7.539
    3AU     LIG 1229  10.923  40.483   7.556
    3AU     LIG 1230  11.140  40.813   7.846
    3AU    AUSL 1231   9.004  39.393   7.400
    3AU    AUSL 1232   8.942  39.069   7.718
    3AU     AUL 1233   9.294  39.175   7.751
    3AU       S 1234   9.140  39.476   7.451
    3AU     LIG 1235   9.602  39.388   7.429
    3AU     LIG 1236  10.063  39.499   7.346
    3AU     LIG 1237  10.509  39.667   7.264
    3AU     LIG 1238  10.934  39.871   7.218
    3AU     LIG 1239  11.373  39.779   7.060
    3AU       S 1240   9.199  38.774   7.544
    3AU     LIG 1241   9.596  38.572   7.630
    3AU     LIG 1242   9.980  38.317   7.713
    3AU     LIG 1243  10.419  38.177   7.794
    3AU     LIG 1244  10.837  38.017   7.961
    3AU     LIG 1245  11.325  38.053   7.913
    3AU    AUSL 1246   8.707  39.430   7.732
    3AU    AUSL 1247   8.449  39.826   7.772
    3AU     AUL 1248   8.772  39.890   7.810
    3AU       S 1249   8.764  40.081   8.228
    3AU     LIG 1250   9.181  40.212   8.363
    3AU     LIG 1251   9.470  40.454   8.645
    3AU     LIG 1252   9.719  40.719   8.954
    3AU     LIG 1253   9.964  41.133   9.001
    3AU     LIG 1254  10.133  41.583   9.029
    3AU       S 1255   9.040  39.526   7.867
    3AU     LIG 1256   9.526  39.529   8.017
    3AU     LIG 1257   9.954  39.558   7.846
    3AU     LIG 1258  10.405  39.630   7.764
    3AU     LIG 1259  10.865  39.666   7.759
    3AU     LIG 1260  11.319  39.696   7.918
    3AU    AUSL 1261   7.333  39.862   7.543
    3AU    AUSL 1262   7.430  39.635   7.930
    3AU     AUL 1263   7.109  39.967   7.802
    3AU       S 1264   7.281  39.802   8.193
    3AU     LIG 1265   7.186  39.702   8.630
    3AU     LIG 1266   7.000  39.958   8.983
    3AU     LIG 1267   6.712  40.249   9.231
    3AU     LIG 1268   6.299  40.323   9.458
    3AU     LIG 1269   5.873  40.351   9.671
    3AU       S 1270   7.324  40.235   7.470
    3AU     LIG 1271   6.832  40.259   7.478
    3AU     LIG 1272   6.378  40.485   7.534
    3AU     LIG 1273   5.939  40.745   7.574
    3AU     LIG 1274   5.552  41.065   7.599
    3AU     LIG 1275   5.281  41.429   7.757
    3AU    AUSL 1276   7.308  39.469   7.342
    3AU    AUSL 1277   7.453  39.931   7.136
    3AU     AUL 1278   7.145  39.808   7.185
    3AU       S 1279   6.940  39.281   6.995
    3AU     LIG 1280   6.748  39.704   6.891
    3AU     LIG 1281   6.308  39.936   6.885
    3AU     LIG 1282   5.813  40.040   6.920
    3AU     LIG 1283   5.332  40.185   6.945
    3AU     LIG 1284   4.877  40.246   6.872
    3AU       S 1285   7.270  40.202   6.921
    3AU     LIG 1286   7.311  40.380   6.483
    3AU     LIG 1287   7.153  40.730   6.196
    3AU     LIG 1288   7.074  41.207   6.188
    3AU     LIG 1289   6.790  41.591   6.205
    3AU     LIG 1290   6.336  41.725   6.111
    3AU    AUSL 1291   7.068  39.518   7.732
    3AU    AUSL 1292   7.024  39.158   7.430
    3AU     AUL 1293   6.917  39.489   7.436
    3AU       S 1294   6.769  39.084   7.651
    3AU     LIG 1295   6.416  38.961   7.372
    3AU     LIG 1296   5.938  38.901   7.339
    3AU     LIG 1297   5.504  38.810   7.191
    3AU     LIG 1298   5.180  38.472   7.243
    3AU     LIG 1299   4.871  38.108   7.254
    3AU       S 1300   6.971  39.485   7.963
    3AU     LIG 1301   6.589  39.734   7.821
    3AU     LIG 1302   6.146  39.973   7.894
    3AU     LIG 1303   5.718  40.252   7.971
    3AU     LIG 1304   5.266  40.420   8.125
    3AU     LIG 1305   4.858  40.206   8.281
    3AU    AUSL 1306   8.731  38.713   7.546
    3AU    AUSL 1307   8.550  38.977   7.875
    3AU     AUL 1308   8.889  38.875   7.926
    3AU       S 1309   9.017  38.598   7.555
    3AU     LIG 1310   9.255  38.229   7.449
    3AU     LIG 1311   9.628  37.970   7.550
    3AU     LIG 1312  10.075  37.816   7.569
    3AU     LIG 1313  10.536  37.740   7.562
    3AU     LIG 1314  10.874  37.509   7.775
    3AU       S 1315   8.789  38.438   7.989
    3AU     LIG 1316   8.996  38.080   8.287
    3AU     LIG 1317   9.216  37.804   8.611
    3AU     LIG 1318   9.382  37.683   9.043
    3AU     LIG 1319   9.659  37.753   9.429
    3AU     LIG 1320  10.081  37.869   9.617
    3AU    AUSL 1321   8.707  39.094   7.326
    3AU    AUSL 1322   8.612  38.613   7.138
    3AU     AUL 1323   8.872  38.782   7.156
    3AU       S 1324   9.230  38.961   7.344
    3AU     LIG 1325   9.430  38.598   7.131
    3AU     LIG 1326   9.805  38.320   7.217
    3AU     LIG 1327  10.262  38.193   7.284
    3AU     LIG 1328  10.658  38.011   7.119
    3AU     LIG 1329  11.122  38.055   7.005
    3AU       S 1330   8.805  38.457   6.825
    3AU     LIG 1331   8.803  37.995   6.836
    3AU     LIG 1332   8.923  37.546   6.714
    3AU     LIG 1333   9.208  37.301   6.444
    3AU     LIG 1334   9.376  36.874   6.342
    3AU     LIG 1335   9.516  36.409   6.306
    3AU    AUSL 1336   7.201  38.785   7.604
    3AU    AUSL 1337   7.350  39.008   7.194
    3AU     AUL 1338   6.993  38.867   7.299
    3AU       S 1339   7.179  38.800   6.888
    3AU     LIG 1340   6.755  38.559   6.851
    3AU     LIG 1341   6.477  38.261   6.572
    3AU     LIG 1342   6.180  38.012   6.277
    3AU     LIG 1343   5.900  37.758   5.978
    3AU     LIG 1344   5.641  37.461   5.714
    3AU       S 1345   6.777  38.796   7.715
    3AU     LIG 1346   6.588  38.486   7.466
    3AU     LIG 1347   6.127  38.422   7.375
    3AU     LIG 1348   5.650  38.403   7.486
    3AU     LIG 1349   5.293  38.084   7.571
    3AU     LIG 1350   4.963  37.733   7.614
    3AU    AUSL 1351   7.334  39.187   7.750
    3AU    AUSL 1352   7.558  38.788   7.839
    3AU     AUL 1353   7.152  38.957   7.929
    3AU       S 1354   7.265  38.536   8.060
    3AU     LIG 1355   6.902  38.312   7.910
    3AU     LIG 1356   6.684  37.938   8.096
    3AU     LIG 1357   6.408  37.675   8.386
    3AU     LIG 1358   6.194  37.364   8.675
    3AU     LIG 1359   6.099  36.929   8.857
    3AU       S 1360   6.740  39.097   7.802
    3AU     LIG 1361   6.310  39.289   7.759
    3AU     LIG 1362   5.846  39.220   7.728
    3AU     LIG 1363   5.526  38.880   7.699
    3AU     LIG 1364   5.190  38.559   7.753
    3AU     LIG 1365   4.833  38.245   7.760
    3AU    AUSL 1366   8.036  40.004   7.886
    3AU    AUSL 1367   7.594  40.031   7.851
    3AU     AUL 1368   7.856  40.099   8.189
    3AU       S 1369   7.470  40.225   7.958
    3AU     LIG 1370   7.505  40.547   8.275
    3AU     LIG 1371   7.262  40.771   8.613
    3AU     LIG 1372   7.016  41.047   8.920
    3AU     LIG 1373   6.671  41.392   8.915
    3AU     LIG 1374   6.307  41.724   8.917
    3AU       S 1375   8.033  40.448   7.933
    3AU     LIG 1376   8.117  40.529   8.332
    3AU     LIG 1377   8.146  40.954   8.502
    3AU     LIG 1378   8.174  41.400   8.658
    3AU     LIG 1379   8.022  41.705   8.953
    3AU     LIG 1380   8.064  41.944   9.349
    3AU    AUSL 1381   7.831  40.241   7.561
    3AU    AUSL 1382   8.188  40.185   7.157
    3AU     AUL 1383   7.922  40.436   7.300
    3AU       S 1384   7.872  40.469   7.776
    3AU     LIG 1385   7.828  40.893   8.066
    3AU     LIG 1386   7.832  41.319   8.296
    3AU     LIG 1387   7.950  41.788   8.339
    3AU     LIG 1388   7.870  42.252   8.523
    3AU     LIG 1389   7.884  42.758   8.622
    3AU       S 1390   8.120  40.451   6.881
    3AU     LIG 1391   8.512  40.632   6.816
    3AU     LIG 1392   8.579  41.087   6.727
    3AU     LIG 1393   8.586  41.573   6.711
    3AU     LIG 1394   8.716  42.051   6.706
    3AU     LIG 1395   8.807  42.542   6.706
    3AU    AUSL 1396   8.296  40.178   7.579
    3AU    AUSL 1397   8.310  39.895   8.195
    3AU     AUL 1398   8.389  40.155   7.951
    3AU       S 1399   8.550  40.000   8.393
    3AU     LIG 1400   8.905  39.980   8.730
    3AU     LIG 1401   9.201  40.208   9.014
    3AU     LIG 1402   9.446  40.468   9.330
    3AU     LIG 1403   9.525  40.646   9.770
    3AU     LIG 1404   9.410  40.989  10.099
    3AU       S 1405   8.229  40.501   7.673
    3AU     LIG 1406   8.336  40.858   7.988
    3AU     LIG 1407   8.332  41.310   8.165
    3AU     LIG 1408   8.461  41.738   8.357
    3AU     LIG 1409   8.616  42.205   8.410
    3AU     LIG 1410   8.747  42.680   8.363
    3AU    AUSL 1411   7.978  38.640   7.937
    3AU    AUSL 1412   8.395  38.578   7.781
    3AU     AUL 1413   8.193  38.469   8.158
    3AU       S 1414   8.000  38.076   8.018
    3AU     LIG 1415   7.882  37.785   8.320
    3AU     LIG 1416   7.691  37.384   8.384
    3AU     LIG 1417   7.748  36.931   8.366
    3AU     LIG 1418   7.816  36.555   8.637
    3AU     LIG 1419   7.826  36.300   9.047
    3AU       S 1420   8.547  38.365   7.838
    3AU     LIG 1421   8.533  37.913   8.062
    3AU     LIG 1422   8.813  37.589   8.341
    3AU     LIG 1423   9.096  37.221   8.528
    3AU     LIG 1424   9.345  36.913   8.805
    3AU     LIG 1425   9.694  36.656   9.004
    3AU    AUSL 1426   7.649  38.403   7.693
    3AU    AUSL 1427   7.704  38.718   8.261
    3AU     AUL 1428   7.709  38.442   8.041
    3AU       S 1429   7.775  38.015   7.869
    3AU     LIG 1430   7.628  37.596   7.900
    3AU     LIG 1431   7.517  37.148   7.952
    3AU     LIG 1432   7.326  36.734   8.075
    3AU     LIG 1433   7.059  36.333   8.059
    3AU     LIG 1434   7.143  35.931   8.253
    3AU       S 1435   7.424  38.600   8.382
    3AU     LIG 1436   7.056  38.255   8.417
    3AU     LIG 1437   6.787  37.951   8.611
    3AU     LIG 1438   6.555  37.670   8.896
    3AU     LIG 1439   6.310  37.386   9.187
    3AU     LIG 1440   6.142  37.258   9.619
    3AU    AUSL 1441   8.081  38.329   7.631
    3AU    AUSL 1442   7.824  38.488   7.298
    3AU     AUL 1443   7.715  38.196   7.445
    3AU       S 1444   8.078  38.163   7.167
    3AU     LIG 1445   7.744  37.830   7.088
    3AU     LIG 1446   7.616  37.386   7.084
    3AU     LIG 1447   7.654  36.931   6.974
    3AU     LIG 1448   7.673  36.456   6.872
    3AU     LIG 1449   7.609  35.979   6.762
    3AU       S 1450   8.093  38.146   7.763
    3AU     LIG 1451   8.130  37.672   7.743
    3AU     LIG 1452   8.034  37.284   7.998
    3AU     LIG 1453   8.189  36.849   8.090
    3AU     LIG 1454   8.350  36.422   8.173
    3AU     LIG 1455   8.431  35.978   8.235
    3AU    AUSL 1456   8.004  39.928   6.840
    3AU    AUSL 1457   8.458  39.867   7.259
    3AU     AUL 1458   8.339  40.056   6.848
    3AU       S 1459   7.948  40.182   6.616
    3AU     LIG 1460   8.271  40.448   6.401
    3AU     LIG 1461   8.417  40.874   6.271
    3AU     LIG 1462   8.426  41.181   5.894
    3AU     LIG 1463   8.265  41.443   5.521
    3AU     LIG 1464   8.123  41.867   5.400
    3AU       S 1465   8.679  40.087   7.148
    3AU     LIG 1466   8.987  40.431   6.945
    3AU     LIG 1467   9.235  40.438   6.537
    3AU     LIG 1468   9.467  40.677   6.187
    3AU     LIG 1469   9.719  41.096   6.081
    3AU     LIG 1470  10.000  41.473   5.939
    3AU    AUSL 1471   7.857  39.928   7.280
    3AU    AUSL 1472   7.731  39.631   6.968
    3AU     AUL 1473   7.708  40.087   7.021
    3AU       S 1474   7.926  40.419   6.812
    3AU     LIG 1475   8.061  40.886   6.666
    3AU     LIG 1476   8.112  41.334   6.773
    3AU     LIG 1477   7.877  41.730   6.740
    3AU     LIG 1478   7.530  42.020   6.697
    3AU     LIG 1479   7.266  42.402   6.675
    3AU       S 1480   7.524  39.892   6.649
    3AU     LIG 1481   7.424  39.968   6.196
    3AU     LIG 1482   7.334  40.340   5.897
    3AU     LIG 1483   7.181  40.682   5.576
    3AU     LIG 1484   7.032  40.952   5.184
    3AU     LIG 1485   6.819  41.052   4.748
    3AU    AUSL 1486   8.030  38.562   6.909
    3AU    AUSL 1487   7.409  38.574   7.286
    3AU     AUL 1488   7.673  38.410   6.985
    3AU       S 1489   7.234  38.528   7.093
    3AU     LIG 1490   6.950  38.227   7.195
    3AU     LIG 1491   6.689  37.958   6.928
    3AU     LIG 1492   6.422  37.712   6.619
    3AU     LIG 1493   6.064  37.496   6.384
    3AU     LIG 1494   5.595  37.382   6.253
    3AU       S 1495   8.088  38.166   6.955
    3AU     LIG 1496   8.129  37.787   6.717
    3AU     LIG 1497   7.874  37.400   6.633
    3AU     LIG 1498   7.863  36.946   6.505
    3AU     LIG 1499   7.901  36.636   6.150
    3AU     LIG 1500   7.894  36.391   5.743
    3AU    AUSL 1501   8.238  38.592   7.327
    3AU    AUSL 1502   8.299  38.890   6.979
    3AU     AUL 1503   8.360  38.535   6.928
    3AU       S 1504   8.314  38.199   7.247
    3AU     LIG 1505   8.230  37.690   7.216
    3AU     LIG 1506   8.115  37.227   7.054
    3AU     LIG 1507   8.143  36.746   6.922
    3AU     LIG 1508   8.159  36.266   6.863
    3AU     LIG 1509   8.473  35.932   6.733
    3AU       S 1510   8.588  38.677   6.565
    3AU     LIG 1511   8.432  38.222   6.550
    3AU     LIG 1512   8.605  37.817   6.393
    3AU     LIG 1513   8.869  37.528   6.125
    3AU     LIG 1514   9.104  37.397   5.736
    3AU     LIG 1515   9.278  37.349   5.299
    4AU     AUC 1516  40.228  14.071   7.505
    4AU     AUC 1517  40.506  14.077   7.335
    4AU     AUC 1518  40.491  14.066   7.670
    4AU     AUC 1519  39.946  14.064   7.348
    4AU     AUC 1520  39.977  14.108   7.694
    4AU     AUC 1521  40.059  14.342   7.510
    4AU     AUC 1522  40.408  14.343   7.491
    4AU     AUC 1523  40.039  13.800   7.512
    4AU     AUC 1524  40.394  13.796   7.505
    4AU     AUC 1525  40.239  13.902   7.774
    4AU     AUC 1526  40.227  14.263   7.762
    4AU     AUC 1527  40.214  13.907   7.238
    4AU     AUC 1528  40.248  14.222   7.229
    4AU     AUC 1529  40.833  14.076   7.173
    4AU     AUC 1530  40.845  14.058   7.510
    4AU     AUC 1531  40.792  14.044   7.863
    4AU     AUC 1532  39.630  14.068   7.189
    4AU     AUC 1533  39.621  14.112   7.551
    4AU     AUC 1534  39.688  14.142   7.894
    4AU     AUC 1535  39.901  14.665   7.491
    4AU     AUC 1536  40.257  14.692   7.442
    4AU     AUC 1537  40.584  14.635   7.472
    4AU     AUC 1538  39.836  13.517   7.520
    4AU     AUC 1539  40.178  13.463   7.472
    4AU     AUC 1540  40.564  13.482   7.481
    4AU     AUC 1541  40.230  13.723   8.071
    4AU     AUC 1542  40.246  14.079   8.106
    4AU     AUC 1543  40.265  14.436   8.054
    4AU     AUC 1544  40.239  13.736   6.956
    4AU     AUC 1545  40.219  14.059   6.896
    4AU     AUC 1546  40.226  14.384   6.917
    4AU     AUC 1547  40.518  13.843   7.992
    4AU     AUC 1548  40.542  14.232   7.988
    4AU     AUC 1549  40.549  13.908   7.013
    4AU     AUC 1550  40.545  14.255   7.031
    4AU     AUC 1551  39.941  13.944   8.026
    4AU     AUC 1552  39.967  14.319   8.006
    4AU     AUC 1553  39.910  13.886   7.062
    4AU     AUC 1554  39.891  14.205   7.009
    4AU     AUC 1555  40.762  14.356   7.328
    4AU     AUC 1556  40.705  14.339   7.689
    4AU     AUC 1557  39.740  14.376   7.347
    4AU     AUC 1558  39.766  14.435   7.702
    4AU     AUC 1559  40.723  13.769   7.342
    4AU     AUC 1560  40.689  13.729   7.676
    4AU     AUC 1561  39.694  13.772   7.383
    4AU     AUC 1562  39.766  13.821   7.727
    4AU     AUC 1563  40.084  14.607   7.767
    4AU     AUC 1564  40.423  14.559   7.765
    4AU     AUC 1565  40.029  13.612   7.796
    4AU     AUC 1566  40.368  13.554   7.768
    4AU     AUC 1567  40.056  14.494   7.189
    4AU     AUC 1568  40.442  14.527   7.160
    4AU     AUC 1569  40.019  13.589   7.224
    4AU     AUC 1570  40.407  13.621   7.211
    4AU    AUSL 1571  40.800  13.977   8.228
    4AU    AUSL 1572  40.538  13.541   8.168
    4AU     AUL 1573  40.856  13.578   8.316
    4AU       S 1574  40.863  13.166   8.112
    4AU     LIG 1575  40.754  12.975   8.468
    4AU     LIG 1576  40.906  12.697   8.795
    4AU     LIG 1577  41.154  12.384   9.032
    4AU     LIG 1578  41.309  12.157   9.421
    4AU     LIG 1579  41.227  11.991   9.879
    4AU       S 1580  41.043  13.992   8.380
    4AU     LIG 1581  40.949  14.059   8.828
    4AU     LIG 1582  41.016  13.853   9.242
    4AU     LIG 1583  41.270  13.658   9.603
    4AU     LIG 1584  41.678  13.606   9.871
    4AU     LIG 1585  41.970  13.555  10.251
    4AU    AUSL 1586  40.398  13.877   8.410
    4AU    AUSL 1587  40.134  14.256   8.450
    4AU     AUL 1588  40.337  14.159   8.739
    4AU       S 1589  40.586  13.797   8.609
    4AU     LIG 1590  40.511  13.772   9.046
    4AU     LIG 1591  40.643  13.555   9.442
    4AU     LIG 1592  40.834  13.435   9.859
    4AU     LIG 1593  40.806  13.322  10.331
    4AU     LIG 1594  40.924  13.485  10.768
    4AU       S 1595  39.922  13.988   8.663
    4AU     LIG 1596  39.987  13.880   9.131
    4AU     LIG 1597  39.732  13.886   9.545
    4AU     LIG 1598  39.443  13.897   9.928
    4AU     LIG 1599  39.340  14.132  10.336
    4AU     LIG 1600  39.216  14.472  10.666
    4AU    AUSL 1601  40.444  14.256   8.158
    4AU    AUSL 1602  40.882  14.390   8.106
    4AU     AUL 1603  40.687  14.278   8.439
    4AU       S 1604  40.358  14.626   8.609
    4AU     LIG 1605  40.708  14.518   8.886
    4AU     LIG 1606  40.974  14.684   9.245
    4AU     LIG 1607  40.956  14.818   9.715
    4AU     LIG 1608  40.919  14.797  10.203
    4AU     LIG 1609  41.097  14.694  10.637
    4AU       S 1610  41.030  14.548   8.266
    4AU     LIG 1611  41.414  14.453   8.394
    4AU     LIG 1612  41.699  14.686   8.679
    4AU     LIG 1613  41.948  14.949   8.981
    4AU     LIG 1614  42.163  15.189   9.314
    4AU     LIG 1615  42.476  15.117   9.668
    4AU    AUSL 1616  40.697  14.121   6.885
    4AU    AUSL 1617  40.620  14.556   6.844
    4AU     AUL 1618  40.805  14.436   6.617
    4AU       S 1619  40.589  14.226   6.289
    4AU     LIG 1620  41.044  14.200   6.093
    4AU     LIG 1621  41.149  13.969   5.697
    4AU     LIG 1622  41.294  13.713   5.323
    4AU     LIG 1623  41.640  13.556   5.025
    4AU     LIG 1624  42.014  13.629   4.735
    4AU       S 1625  41.013  14.786   6.867
    4AU     LIG 1626  41.080  15.016   6.474
    4AU     LIG 1627  41.328  15.186   6.092
    4AU     LIG 1628  41.498  15.266   5.655
    4AU     LIG 1629  41.693  15.519   5.311
    4AU     LIG 1630  41.979  15.784   5.059
    4AU    AUSL 1631  40.513  13.863   6.578
    4AU    AUSL 1632  40.958  13.779   6.905
    4AU     AUL 1633  40.890  13.967   6.638
    4AU       S 1634  41.039  13.513   6.666
    4AU     LIG 1635  41.170  13.168   6.339
    4AU     LIG 1636  41.443  12.790   6.285
    4AU     LIG 1637  41.730  12.528   6.017
    4AU     LIG 1638  42.113  12.466   5.761
    4AU     LIG 1639  42.421  12.625   5.443
    4AU       S 1640  40.621  14.045   6.265
    4AU     LIG 1641  40.804  13.718   6.029
    4AU     LIG 1642  40.847  13.569   5.576
    4AU     LIG 1643  40.868  13.475   5.115
    4AU     LIG 1644  40.907  13.174   4.747
    4AU     LIG 1645  40.880  13.150   4.285
    4AU    AUSL 1646  40.326  14.262   6.702
    4AU    AUSL 1647  40.109  13.861   6.745
    4AU     AUL 1648  40.235  13.891   6.448
    4AU       S 1649  39.810  13.900   6.283
    4AU     LIG 1650  39.916  13.731   5.891
    4AU     LIG 1651  39.669  13.471   5.593
    4AU     LIG 1652  39.398  13.302   5.252
    4AU     LIG 1653  39.283  13.361   4.814
    4AU     LIG 1654  39.286  13.148   4.399
    4AU       S 1655  40.370  14.347   6.418
    4AU     LIG 1656  40.233  14.143   5.967
    4AU     LIG 1657  40.605  14.030   5.653
    4AU     LIG 1658  40.867  14.020   5.233
    4AU     LIG 1659  40.968  14.255   4.800
    4AU     LIG 1660  41.046  14.606   4.463
    4AU    AUSL 1661  39.726  14.212   8.284
    4AU    AUSL 1662  40.016  14.564   8.163
    4AU     AUL 1663  39.895  14.486   8.494
    4AU       S 1664  39.750  14.104   8.740
    4AU     LIG 1665  39.473  13.951   9.079
    4AU     LIG 1666  39.238  13.754   9.438
    4AU     LIG 1667  39.012  13.613   9.822
    4AU     LIG 1668  38.698  13.698  10.154
    4AU     LIG 1669  38.322  13.718  10.446
    4AU       S 1670  39.634  14.800   8.266
    4AU     LIG 1671  39.538  15.013   8.652
    4AU     LIG 1672  39.368  15.246   9.033
    4AU     LIG 1673  39.224  15.396   9.461
    4AU     LIG 1674  39.218  15.607   9.884
    4AU     LIG 1675  38.985  15.825  10.231
    4AU    AUSL 1676  40.031  13.911   8.182
    4AU    AUSL 1677  39.591  13.809   8.152
    4AU     AUL 1678  39.551  14.001   8.337
    4AU       S 1679  39.464  13.528   8.343
    4AU     LIG 1680  39.028  13.510   8.240
    4AU     LIG 1681  38.746  13.155   8.332
    4AU     LIG 1682  38.483  12.861   8.597
    4AU     LIG 1683  38.231  12.564   8.868
    4AU     LIG 1684  38.049  12.328   9.238
    4AU       S 1685  39.940  13.837   8.566
    4AU     LIG 1686  39.705  13.560   8.842
    4AU     LIG 1687  39.639  13.459   9.281
    4AU     LIG 1688  39.500  13.415   9.733
    4AU     LIG 1689  39.342  13.410  10.179
    4AU     LIG 1690  39.342  13.200  10.608
    4AU    AUSL 1691  39.681  13.947   6.804
    4AU    AUSL 1692  39.885  13.584   6.989
    4AU     AUL 1693  39.876  13.610   6.648
    4AU       S 1694  39.633  13.863   6.335
    4AU     LIG 1695  39.407  13.797   5.934
    4AU     LIG 1696  39.210  13.712   5.513
    4AU     LIG 1697  38.948  13.583   5.144
    4AU     LIG 1698  38.560  13.677   4.905
    4AU     LIG 1699  38.212  13.950   4.736
    4AU       S 1700  39.485  13.452   6.835
    4AU     LIG 1701  39.394  13.044   6.648
    4AU     LIG 1702  39.039  12.783   6.463
    4AU     LIG 1703  38.875  12.617   6.036
    4AU     LIG 1704  38.908  12.403   5.591
    4AU     LIG 1705  39.069  12.081   5.263
    4AU    AUSL 1706  39.912  14.248   6.583
    4AU    AUSL 1707  39.524  14.348   6.924
    4AU     AUL 1708  39.492  14.147   6.661
    4AU       S 1709  39.530  14.600   6.661
    4AU     LIG 1710  39.285  14.748   6.283
    4AU     LIG 1711  39.053  14.993   5.939
    4AU     LIG 1712  38.852  15.117   5.515
    4AU     LIG 1713  38.515  15.371   5.285
    4AU     LIG 1714  38.074  15.553   5.200
    4AU       S 1715  39.862  14.192   6.354
    4AU     LIG 1716  39.718  14.230   5.917
    4AU     LIG 1717  39.649  13.993   5.513
    4AU     LIG 1718  39.417  13.970   5.096
    4AU     LIG 1719  39.341  14.284   4.724
    4AU     LIG 1720  39.269  14.626   4.380
    4AU    AUSL 1721  41.029  14.581   7.508
    4AU    AUSL 1722  40.979  14.377   7.089
    4AU     AUL 1723  41.299  14.689   7.294
    4AU       S 1724  41.089  14.476   6.964
    4AU     LIG 1725  41.293  14.523   6.539
    4AU     LIG 1726  41.578  14.777   6.278
    4AU     LIG 1727  41.831  15.010   5.959
    4AU     LIG 1728  42.161  15.094   5.623
    4AU     LIG 1729  42.615  15.045   5.484
    4AU       S 1730  41.411  14.468   7.699
    4AU     LIG 1731  41.851  14.602   7.575
    4AU     LIG 1732  42.338  14.679   7.520
    4AU     LIG 1733  42.812  14.819   7.509
    4AU     LIG 1734  43.099  15.232   7.432
    4AU     LIG 1735  43.437  15.572   7.294
    4AU    AUSL 1736  41.223  14.171   7.384
    4AU    AUSL 1737  41.165  13.846   7.702
    4AU     AUL 1738  41.520  13.955   7.730
    4AU       S 1739  41.355  14.248   7.429
    4AU     LIG 1740  41.810  14.134   7.376
    4AU     LIG 1741  42.277  14.206   7.322
    4AU     LIG 1742  42.707  14.385   7.229
    4AU     LIG 1743  43.160  14.515   7.215
    4AU     LIG 1744  43.619  14.650   7.118
    4AU       S 1745  41.416  13.549   7.532
    4AU     LIG 1746  41.760  13.465   7.788
    4AU     LIG 1747  42.103  13.145   7.720
    4AU     LIG 1748  42.572  13.038   7.663
    4AU     LIG 1749  42.981  13.220   7.852
    4AU     LIG 1750  43.423  13.425   7.887
    4AU    AUSL 1751  40.932  14.208   7.723
    4AU    AUSL 1752  40.681  14.602   7.773
    4AU     AUL 1753  41.001  14.666   7.810
    4AU       S 1754  40.999  14.845   8.233
    4AU     LIG 1755  41.409  14.978   8.358
    4AU     LIG 1756  41.652  15.224   8.672
    4AU     LIG 1757  41.959  15.495   8.910
    4AU     LIG 1758  42.076  15.953   8.999
    4AU     LIG 1759  42.305  16.374   9.022
    4AU       S 1760  41.261  14.297   7.856
    4AU     LIG 1761  41.742  14.300   8.014
    4AU     LIG 1762  42.166  14.271   7.821
    4AU     LIG 1763  42.630  14.304   7.731
    4AU     LIG 1764  43.059  14.411   7.868
    4AU     LIG 1765  43.399  14.614   8.102
    4AU    AUSL 1766  39.567  14.660   7.539
    4AU    AUSL 1767  39.666  14.429   7.920
    4AU     AUL 1768  39.349  14.768   7.796
    4AU       S 1769  39.513  14.605   8.191
    4AU     LIG 1770  39.397  14.503   8.621
    4AU     LIG 1771  39.173  14.769   8.948
    4AU     LIG 1772  38.909  15.048   9.236
    4AU     LIG 1773  38.611  15.204   9.584
    4AU     LIG 1774  38.186  15.274   9.801
    4AU       S 1775  39.574  15.037   7.467
    4AU     LIG 1776  39.093  15.058   7.458
    4AU     LIG 1777  38.664  15.310   7.545
    4AU     LIG 1778  38.262  15.610   7.630
    4AU     LIG 1779  37.850  15.876   7.741
    4AU     LIG 1780  37.472  16.193   7.792
    4AU    AUSL 1781  39.527  14.266   7.343
    4AU    AUSL 1782  39.666  14.727   7.126
    4AU     AUL 1783  39.362  14.598   7.182
    4AU       S 1784  39.144  14.101   7.009
    4AU     LIG 1785  38.814  14.446   7.106
    4AU     LIG 1786  38.352  14.625   7.105
    4AU     LIG 1787  37.941  14.827   6.938
    4AU     LIG 1788  37.488  15.002   6.973
    4AU     LIG 1789  37.052  15.112   6.999
    4AU       S 1790  39.490  14.991   6.918
    4AU     LIG 1791  39.556  15.141   6.472
    4AU     LIG 1792  39.296  15.409   6.158
    4AU     LIG 1793  39.057  15.764   5.907
    4AU     LIG 1794  38.836  16.220   5.872
    4AU     LIG 1795  38.590  16.644   5.926
    4AU    AUSL 1796  39.296  14.319   7.736
    4AU    AUSL 1797  39.243  13.957   7.436
    4AU     AUL 1798  39.142  14.290   7.453
    4AU       S 1799  38.986  13.884   7.656
    4AU     LIG 1800  38.633  13.724   7.380
    4AU     LIG 1801  38.218  13.481   7.425
    4AU     LIG 1802  37.745  13.409   7.392
    4AU     LIG 1803  37.321  13.624   7.343
    4AU     LIG 1804  36.953  13.552   7.077
    4AU       S 1805  39.204  14.287   7.973
    4AU     LIG 1806  38.781  14.425   7.799
    4AU     LIG 1807  38.316  14.585   7.877
    4AU     LIG 1808  37.967  14.895   8.050
    4AU     LIG 1809  37.498  15.046   8.154
    4AU     LIG 1810  37.077  15.151   7.941
    4AU    AUSL 1811  40.949  13.495   7.531
    4AU    AUSL 1812  40.773  13.759   7.863
    4AU     AUL 1813  41.111  13.656   7.912
    4AU       S 1814  41.232  13.371   7.538
    4AU     LIG 1815  41.563  13.037   7.576
    4AU     LIG 1816  41.917  12.744   7.445
    4AU     LIG 1817  42.364  12.590   7.424
    4AU     LIG 1818  42.819  12.491   7.518
    4AU     LIG 1819  43.179  12.277   7.757
    4AU       S 1820  41.005  13.220   7.973
    4AU     LIG 1821  41.254  12.919   8.277
    4AU     LIG 1822  41.402  12.672   8.650
    4AU     LIG 1823  41.661  12.393   8.938
    4AU     LIG 1824  42.016  12.437   9.255
    4AU     LIG 1825  42.355  12.652   9.521
    4AU    AUSL 1826  40.917  13.880   7.319
    4AU    AUSL 1827  40.825  13.409   7.123
    4AU     AUL 1828  41.091  13.583   7.147
    4AU       S 1829  41.466  13.713   7.340
    4AU     LIG 1830  41.847  13.368   7.291
    4AU     LIG 1831  42.259  13.074   7.233
    4AU     LIG 1832  42.716  12.878   7.176
    4AU     LIG 1833  43.166  12.923   7.017
    4AU     LIG 1834  43.638  13.019   7.095
    4AU       S 1835  41.020  13.272   6.800
    4AU     LIG 1836  41.089  12.827   6.742
    4AU     LIG 1837  41.249  12.420   6.583
    4AU     LIG 1838  41.604  12.191   6.388
    4AU     LIG 1839  41.892  11.823   6.414
    4AU     LIG 1840  42.082  11.507   6.130
    4AU    AUSL 1841  39.417  13.580   7.601
    4AU    AUSL 1842  39.561  13.806   7.190
    4AU     AUL 1843  39.210  13.666   7.301
    4AU       S 1844  39.392  13.594   6.890
    4AU     LIG 1845  39.020  13.422   6.650
    4AU     LIG 1846  38.672  13.125   6.555
    4AU     LIG 1847  38.464  12.736   6.357
    4AU     LIG 1848  38.054  12.535   6.167
    4AU     LIG 1849  37.629  12.515   5.895
    4AU       S 1850  38.986  13.598   7.716
    4AU     LIG 1851  38.863  13.261   7.436
    4AU     LIG 1852  38.468  13.039   7.264
    4AU     LIG 1853  37.993  12.913   7.342
    4AU     LIG 1854  37.568  12.918   7.568
    4AU     LIG 1855  37.269  12.612   7.784
    4AU    AUSL 1856  39.551  13.979   7.758
    4AU    AUSL 1857  39.775  13.575   7.837
    4AU     AUL 1858  39.374  13.732   7.928
    4AU       S 1859  39.485  13.321   8.088
    4AU     LIG 1860  39.109  13.112   7.928
    4AU     LIG 1861  38.831  12.740   8.038
    4AU     LIG 1862  38.568  12.441   8.310
    4AU     LIG 1863  38.358  12.133   8.615
    4AU     LIG 1864  38.341  11.791   8.937
    4AU       S 1865  38.966  13.903   7.815
    4AU     LIG 1866  38.487  13.998   7.789
    4AU     LIG 1867  38.022  13.871   7.737
    4AU     LIG 1868  37.586  13.676   7.794
    4AU     LIG 1869  37.236  13.345   7.779
    4AU     LIG 1870  36.769  13.215   7.826
    4AU    AUSL 1871  40.271  14.779   7.888
    4AU    AUSL 1872  39.829  14.826   7.848
    4AU     AUL 1873  40.096  14.890   8.187
    4AU       S 1874  39.712  15.024   7.958
    4AU     LIG 1875  39.336  15.186   8.180
    4AU     LIG 1876  39.226  15.431   8.563
    4AU     LIG 1877  39.166  15.862   8.744
    4AU     LIG 1878  38.907  16.200   8.945
    4AU     LIG 1879  38.652  16.604   8.970
    4AU       S 1880  40.286  15.239   7.940
    4AU     LIG 1881  40.438  15.281   8.340
    4AU     LIG 1882  40.486  15.702   8.545
    4AU     LIG 1883  40.466  16.100   8.815
    4AU     LIG 1884  40.485  16.350   9.238
    4AU     LIG 1885  40.680  16.593   9.610
    4AU    AUSL 1886  40.081  15.034   7.570
    4AU    AUSL 1887  40.408  14.976   7.176
    4AU     AUL 1888  40.137  15.234   7.311
    4AU       S 1889  40.142  15.257   7.788
    4AU     LIG 1890  40.256  15.711   8.056
    4AU     LIG 1891  40.267  16.135   8.299
    4AU     LIG 1892  40.037  16.572   8.324
    4AU     LIG 1893  39.779  16.993   8.273
    4AU     LIG 1894  39.574  17.412   8.270
    4AU       S 1895  40.375  15.274   6.913
    4AU     LIG 1896  40.751  15.519   6.831
    4AU     LIG 1897  40.813  15.983   6.715
    4AU     LIG 1898  41.039  16.424   6.746
    4AU     LIG 1899  41.230  16.857   6.609
    4AU     LIG 1900  41.195  17.337   6.524
    4AU    AUSL 1901  40.540  14.963   7.591
    4AU    AUSL 1902  40.544  14.671   8.198
    4AU     AUL 1903  40.624  14.930   7.960
    4AU       S 1904  40.781  14.767   8.397
    4AU     LIG 1905  41.135  14.746   8.728
    4AU     LIG 1906  41.415  14.936   9.038
    4AU     LIG 1907  41.643  15.277   9.255
    4AU     LIG 1908  41.682  15.631   9.565
    4AU     LIG 1909  41.494  15.943   9.885
    4AU       S 1910  40.492  15.269   7.655
    4AU     LIG 1911  40.726  15.513   7.980
    4AU     LIG 1912  40.745  15.955   8.171
    4AU     LIG 1913  40.872  16.429   8.220
    4AU     LIG 1914  41.117  16.868   8.210
    4AU     LIG 1915  41.419  17.248   8.352
    4AU    AUSL 1916  40.197  13.427   7.919
    4AU    AUSL 1917  40.613  13.363   7.766
    4AU     AUL 1918  40.409  13.255   8.145
    4AU       S 1919  40.218  12.864   8.001
    4AU     LIG 1920  40.047  12.638   8.332
    4AU     LIG 1921  39.816  12.266   8.402
    4AU     LIG 1922  39.831  11.827   8.454
    4AU     LIG 1923  39.810  11.399   8.598
    4AU     LIG 1924  39.913  11.170   8.999
    4AU       S 1925  40.761  13.155   7.824
    4AU     LIG 1926  40.727  12.707   8.019
    4AU     LIG 1927  41.001  12.469   8.341
    4AU     LIG 1928  41.306  12.173   8.578
    4AU     LIG 1929  41.549  11.827   8.796
    4AU     LIG 1930  41.926  11.614   8.983
    4AU    AUSL 1931  39.869  13.197   7.675
    4AU    AUSL 1932  39.938  13.502   8.252
    4AU     AUL 1933  39.924  13.229   8.023
    4AU       S 1934  39.999  12.801   7.856
    4AU     LIG 1935  39.818  12.401   7.899
    4AU     LIG 1936  39.665  11.966   7.985
    4AU     LIG 1937  39.629  11.507   8.092
    4AU     LIG 1938  39.451  11.133   8.277
    4AU     LIG 1939  39.272  10.738   8.476
    4AU       S 1940  39.661  13.381   8.384
    4AU     LIG 1941  39.265  13.075   8.456
    4AU     LIG 1942  38.982  12.724   8.531
    4AU     LIG 1943  38.741  12.447   8.798
    4AU     LIG 1944  38.539  12.223   9.125
    4AU     LIG 1945  38.355  11.939   9.441
    4AU    AUSL 1946  40.299  13.115   7.613
    4AU    AUSL 1947  40.039  13.257   7.272
    4AU     AUL 1948  39.929  12.983   7.437
    4AU       S 1949  40.273  12.957   7.136
    4AU     LIG 1950  39.878  12.693   7.046
    4AU     LIG 1951  39.764  12.258   7.113
    4AU     LIG 1952  39.724  11.807   6.973
    4AU     LIG 1953  39.681  11.341   6.813
    4AU     LIG 1954  39.396  10.939   6.774
    4AU       S 1955  40.312  12.922   7.746
    4AU     LIG 1956  40.333  12.425   7.793
    4AU     LIG 1957  40.172  12.053   8.060
    4AU     LIG 1958  40.135  11.576   8.130
    4AU     LIG 1959  40.041  11.116   8.237
    4AU     LIG 1960  40.187  10.685   8.418
    4AU    AUSL 1961  40.221  14.736   6.846
    4AU    AUSL 1962  40.685  14.659   7.261
    4AU     AUL 1963  40.555  14.859   6.862
    4AU       S 1964  40.174  15.005   6.629
    4AU     LIG 1965  40.560  15.216   6.452
    4AU     LIG 1966  40.701  15.649   6.322
    4AU     LIG 1967  40.576  16.068   6.127
    4AU     LIG 1968  40.456  16.360   5.751
    4AU     LIG 1969  40.282  16.730   5.504
    4AU       S 1970  40.907  14.875   7.149
    4AU     LIG 1971  41.262  15.190   6.951
    4AU     LIG 1972  41.556  15.220   6.564
    4AU     LIG 1973  41.835  15.446   6.242
    4AU     LIG 1974  42.199  15.773   6.148
    4AU     LIG 1975  42.545  16.120   6.067
    4AU    AUSL 1976  40.066  14.726   7.282
    4AU    AUSL 1977  39.952  14.432   6.964
    4AU     AUL 1978  39.929  14.890   7.025
    4AU       S 1979  40.163  15.224   6.830
    4AU     LIG 1980  40.290  15.678   6.635
    4AU     LIG 1981  40.315  16.163   6.597
    4AU     LIG 1982  40.063  16.598   6.661
    4AU     LIG 1983  39.782  17.002   6.790
    4AU     LIG 1984  39.801  17.488   6.922
    4AU       S 1985  39.753  14.687   6.653
    4AU     LIG 1986  39.797  14.726   6.216
    4AU     LIG 1987  39.572  15.032   5.924
    4AU     LIG 1988  39.309  15.342   5.643
    4AU     LIG 1989  39.011  15.585   5.354
    4AU     LIG 1990  38.778  15.813   4.996
    4AU    AUSL 1991  40.241  13.360   6.888
    4AU    AUSL 1992  39.630  13.374   7.284
    4AU     AUL 1993  39.875  13.212   6.971
    4AU       S 1994  39.422  13.307   7.086
    4AU     LIG 1995  39.004  13.035   6.986
    4AU     LIG 1996  38.634  12.720   6.868
    4AU     LIG 1997  38.243  12.439   6.724
    4AU     LIG 1998  38.156  12.080   6.412
    4AU     LIG 1999  38.215  11.720   6.097
    4AU       S 2000  40.284  12.959   6.906
    4AU     LIG 2001  40.258  12.525   6.748
    4AU     LIG 2002  39.969  12.170   6.643
    4AU     LIG 2003  39.924  11.724   6.508
    4AU     LIG 2004  39.935  11.400   6.174
    4AU     LIG 2005  40.023  11.312   5.711
    4AU    AUSL 2006  40.448  13.382   7.309
    4AU    AUSL 2007  40.513  13.685   6.964
    4AU     AUL 2008  40.573  13.320   6.916
    4AU       S 2009  40.498  12.973   7.217
    4AU     LIG 2010  40.310  12.482   7.262
    4AU     LIG 2011  40.221  12.021   7.065
    4AU     LIG 2012  40.158  11.532   6.941
    4AU     LIG 2013  40.245  11.039   6.907
    4AU     LIG 2014  40.671  10.811   6.829
    4AU       S 2015  40.796  13.485   6.557
    4AU     LIG 2016  40.685  13.038   6.492
    4AU     LIG 2017  40.923  12.687   6.270
    4AU     LIG 2018  41.228  12.377   6.056
    4AU     LIG 2019  41.480  12.208   5.683
    4AU     LIG 2020  41.498  12.168   5.201
    5AU     AUC 2021  19.026  14.788   7.510
    5AU     AUC 2022  19.303  14.789   7.340
    5AU     AUC 2023  19.287  14.779   7.675
    5AU     AUC 2024  18.744  14.785   7.349
    5AU     AUC 2025  18.779  14.830   7.699
    5AU     AUC 2026  18.857  15.061   7.511
    5AU     AUC 2027  19.207  15.056   7.494
    5AU     AUC 2028  18.837  14.532   7.520
    5AU     AUC 2029  19.188  14.505   7.511
    5AU     AUC 2030  19.034  14.619   7.784
    5AU     AUC 2031  19.026  14.980   7.766
    5AU     AUC 2032  19.010  14.620   7.244
    5AU     AUC 2033  19.047  14.935   7.233
    5AU     AUC 2034  19.627  14.783   7.177
    5AU     AUC 2035  19.640  14.765   7.513
    5AU     AUC 2036  19.588  14.756   7.866
    5AU     AUC 2037  18.428  14.786   7.183
    5AU     AUC 2038  18.418  14.835   7.545
    5AU     AUC 2039  18.481  14.864   7.899
    5AU     AUC 2040  18.700  15.382   7.492
    5AU     AUC 2041  19.059  15.408   7.444
    5AU     AUC 2042  19.386  15.347   7.474
    5AU     AUC 2043  18.619  14.249   7.534
    5AU     AUC 2044  18.977  14.191   7.499
    5AU     AUC 2045  19.353  14.195   7.491
    5AU     AUC 2046  19.017  14.442   8.084
    5AU     AUC 2047  19.044  14.798   8.112
    5AU     AUC 2048  19.066  15.154   8.055
    5AU     AUC 2049  19.027  14.438   6.965
    5AU     AUC 2050  19.014  14.770   6.903
    5AU     AUC 2051  19.027  15.097   6.918
    5AU     AUC 2052  19.312  14.560   7.999
    5AU     AUC 2053  19.341  14.949   7.991
    5AU     AUC 2054  19.342  14.615   7.018
    5AU     AUC 2055  19.341  14.966   7.034
    5AU     AUC 2056  18.732  14.669   8.031
    5AU     AUC 2057  18.764  15.034   8.009
    5AU     AUC 2058  18.704  14.595   7.061
    5AU     AUC 2059  18.688  14.922   7.010
    5AU     AUC 2060  19.560  15.064   7.331
    5AU     AUC 2061  19.504  15.051   7.692
    5AU     AUC 2062  18.540  15.095   7.346
    5AU     AUC 2063  18.562  15.153   7.702
    5AU     AUC 2064  19.516  14.478   7.345
    5AU     AUC 2065  19.480  14.441   7.681
    5AU     AUC 2066  18.495  14.484   7.371
    5AU     AUC 2067  18.563  14.547   7.724
    5AU     AUC 2068  18.881  15.322   7.768
    5AU     AUC 2069  19.223  15.275   7.766
    5AU     AUC 2070  18.816  14.331   7.810
    5AU     AUC 2071  19.154  14.271   7.782
    5AU     AUC 2072  18.859  15.213   7.190
    5AU     AUC 2073  19.243  15.239   7.163
    5AU     AUC 2074  18.813  14.316   7.226
    5AU     AUC 2075  19.213  14.332   7.222
    5AU    AUSL 2076  19.601  14.695   8.230
    5AU    AUSL 2077  19.328  14.260   8.180
    5AU     AUL 2078  19.649  14.297   8.319
    5AU       S 2079  19.644  13.881   8.126
    5AU     LIG 2080  19.538  13.687   8.476
    5AU     LIG 2081  19.706  13.395   8.771
    5AU     LIG 2082  19.968  13.093   8.987
    5AU     LIG 2083  20.170  13.019   9.381
    5AU     LIG 2084  20.069  12.985   9.841
    5AU       S 2085  19.838  14.700   8.438
    5AU     LIG 2086  19.722  14.784   8.881
    5AU     LIG 2087  19.718  14.583   9.314
    5AU     LIG 2088  19.993  14.547   9.705
    5AU     LIG 2089  20.355  14.587  10.008
    5AU     LIG 2090  20.703  14.786  10.256
    5AU    AUSL 2091  19.202  14.602   8.418
    5AU    AUSL 2092  18.936  14.979   8.455
    5AU     AUL 2093  19.147  14.888   8.741
    5AU       S 2094  19.393  14.518   8.624
    5AU     LIG 2095  19.120  14.424   8.968
    5AU     LIG 2096  19.260  14.298   9.397
    5AU     LIG 2097  19.580  14.238   9.740
    5AU     LIG 2098  19.727  14.215  10.182
    5AU     LIG 2099  19.592  14.157  10.643
    5AU       S 2100  18.730  14.715   8.690
    5AU     LIG 2101  18.682  14.630   9.176
    5AU     LIG 2102  18.401  14.642   9.562
    5AU     LIG 2103  18.207  14.873   9.932
    5AU     LIG 2104  18.267  15.171  10.308
    5AU     LIG 2105  18.109  15.454  10.664
    5AU    AUSL 2106  19.245  14.977   8.161
    5AU    AUSL 2107  19.684  15.106   8.107
    5AU     AUL 2108  19.493  15.002   8.438
    5AU       S 2109  19.164  15.350   8.608
    5AU     LIG 2110  19.513  15.259   8.896
    5AU     LIG 2111  19.722  15.362   9.323
    5AU     LIG 2112  19.689  15.453   9.815
    5AU     LIG 2113  19.652  15.604  10.282
    5AU     LIG 2114  19.738  15.569  10.760
    5AU       S 2115  19.845  15.264   8.273
    5AU     LIG 2116  20.264  15.365   8.324
    5AU     LIG 2117  20.475  15.599   8.657
    5AU     LIG 2118  20.675  15.788   9.040
    5AU     LIG 2119  20.886  15.776   9.467
    5AU     LIG 2120  21.220  15.909   9.760
    5AU    AUSL 2121  19.488  14.828   6.893
    5AU    AUSL 2122  19.417  15.264   6.850
    5AU     AUL 2123  19.602  15.147   6.620
    5AU       S 2124  19.404  14.915   6.292
    5AU     LIG 2125  19.809  14.877   6.017
    5AU     LIG 2126  19.915  14.626   5.645
    5AU     LIG 2127  20.106  14.406   5.275
    5AU     LIG 2128  20.535  14.353   5.046
    5AU     LIG 2129  20.917  14.454   4.766
    5AU       S 2130  19.822  15.497   6.869
    5AU     LIG 2131  19.937  15.722   6.458
    5AU     LIG 2132  20.200  15.886   6.055
    5AU     LIG 2133  20.423  15.889   5.603
    5AU     LIG 2134  20.579  16.160   5.228
    5AU     LIG 2135  20.601  16.619   5.079
    5AU    AUSL 2136  19.301  14.566   6.588
    5AU    AUSL 2137  19.748  14.487   6.905
    5AU     AUL 2138  19.679  14.676   6.644
    5AU       S 2139  19.830  14.220   6.661
    5AU     LIG 2140  19.900  13.868   6.310
    5AU     LIG 2141  20.105  13.457   6.202
    5AU     LIG 2142  20.340  13.148   5.920
    5AU     LIG 2143  20.697  13.166   5.588
    5AU     LIG 2144  21.072  13.194   5.274
    5AU       S 2145  19.421  14.714   6.256
    5AU     LIG 2146  19.581  14.388   5.991
    5AU     LIG 2147  19.598  14.232   5.538
    5AU     LIG 2148  19.711  14.086   5.107
    5AU     LIG 2149  19.700  13.969   4.645
    5AU     LIG 2150  19.806  14.139   4.217
    5AU    AUSL 2151  19.126  14.974   6.697
    5AU    AUSL 2152  18.901  14.576   6.765
    5AU     AUL 2153  19.028  14.604   6.456
    5AU       S 2154  18.606  14.618   6.286
    5AU     LIG 2155  18.732  14.452   5.892
    5AU     LIG 2156  18.498  14.254   5.537
    5AU     LIG 2157  18.225  14.148   5.172
    5AU     LIG 2158  17.908  13.954   4.879
    5AU     LIG 2159  17.823  13.833   4.434
    5AU       S 2160  19.177  15.048   6.412
    5AU     LIG 2161  19.041  14.860   5.967
    5AU     LIG 2162  19.375  14.710   5.635
    5AU     LIG 2163  19.620  14.637   5.212
    5AU     LIG 2164  19.709  14.793   4.764
    5AU     LIG 2165  19.749  14.979   4.311
    5AU    AUSL 2166  18.524  14.932   8.296
    5AU    AUSL 2167  18.814  15.274   8.158
    5AU     AUL 2168  18.700  15.217   8.491
    5AU       S 2169  18.565  14.848   8.748
    5AU     LIG 2170  18.244  14.579   8.868
    5AU     LIG 2171  18.035  14.450   9.255
    5AU     LIG 2172  17.864  14.549   9.672
    5AU     LIG 2173  17.459  14.506   9.912
    5AU     LIG 2174  17.190  14.527  10.292
    5AU       S 2175  18.422  15.513   8.260
    5AU     LIG 2176  18.384  15.685   8.667
    5AU     LIG 2177  18.246  15.857   9.078
    5AU     LIG 2178  18.014  15.976   9.463
    5AU     LIG 2179  17.939  16.256   9.832
    5AU     LIG 2180  17.904  16.478  10.249
    5AU    AUSL 2181  18.829  14.629   8.195
    5AU    AUSL 2182  18.372  14.551   8.131
    5AU     AUL 2183  18.380  14.666   8.368
    5AU       S 2184  18.211  14.225   8.290
    5AU     LIG 2185  17.786  14.200   8.219
    5AU     LIG 2186  17.536  13.839   8.365
    5AU     LIG 2187  17.316  13.559   8.678
    5AU     LIG 2188  17.091  13.223   8.917
    5AU     LIG 2189  16.783  13.055   9.229
    5AU       S 2190  18.770  14.548   8.595
    5AU     LIG 2191  18.616  14.227   8.865
    5AU     LIG 2192  18.467  14.177   9.311
    5AU     LIG 2193  18.222  14.163   9.724
    5AU     LIG 2194  18.120  13.907  10.137
    5AU     LIG 2195  18.155  13.704  10.586
    5AU    AUSL 2196  18.467  14.655   6.795
    5AU    AUSL 2197  18.655  14.275   6.956
    5AU     AUL 2198  18.683  14.316   6.639
    5AU       S 2199  18.431  14.572   6.336
    5AU     LIG 2200  18.230  14.550   5.909
    5AU     LIG 2201  18.063  14.549   5.474
    5AU     LIG 2202  17.764  14.391   5.154
    5AU     LIG 2203  17.396  14.458   4.880
    5AU     LIG 2204  17.104  14.777   4.692
    5AU       S 2205  18.289  14.148   6.815
    5AU     LIG 2206  18.228  13.704   6.707
    5AU     LIG 2207  17.892  13.412   6.567
    5AU     LIG 2208  17.618  13.239   6.214
    5AU     LIG 2209  17.404  12.966   5.889
    5AU     LIG 2210  17.384  12.669   5.508
    5AU    AUSL 2211  18.708  14.959   6.591
    5AU    AUSL 2212  18.334  15.065   6.917
    5AU     AUL 2213  18.279  14.864   6.650
    5AU       S 2214  18.369  15.307   6.680
    5AU     LIG 2215  18.007  15.347   6.455
    5AU     LIG 2216  17.852  15.603   6.100
    5AU     LIG 2217  17.679  15.733   5.680
    5AU     LIG 2218  17.387  15.817   5.313
    5AU     LIG 2219  16.999  15.842   5.047
    5AU       S 2220  18.661  14.908   6.361
    5AU     LIG 2221  18.536  14.965   5.926
    5AU     LIG 2222  18.538  14.765   5.514
    5AU     LIG 2223  18.410  14.636   5.078
    5AU     LIG 2224  18.434  14.765   4.609
    5AU     LIG 2225  18.349  14.957   4.172
    5AU    AUSL 2226  19.832  15.286   7.511
    5AU    AUSL 2227  19.777  15.084   7.089
    5AU     AUL 2228  20.101  15.391   7.299
    5AU       S 2229  19.885  15.184   6.969
    5AU     LIG 2230  20.111  15.218   6.565
    5AU     LIG 2231  20.405  15.499   6.334
    5AU     LIG 2232  20.682  15.647   5.978
    5AU     LIG 2233  20.949  15.777   5.600
    5AU     LIG 2234  21.379  15.804   5.387
    5AU       S 2235  20.213  15.163   7.703
    5AU     LIG 2236  20.669  15.190   7.606
    5AU     LIG 2237  21.130  15.266   7.554
    5AU     LIG 2238  21.538  15.496   7.579
    5AU     LIG 2239  21.717  15.944   7.533
    5AU     LIG 2240  21.858  16.402   7.453
    5AU    AUSL 2241  20.016  14.875   7.384
    5AU    AUSL 2242  19.958  14.550   7.702
    5AU     AUL 2243  20.328  14.664   7.721
    5AU       S 2244  20.147  14.945   7.419
    5AU     LIG 2245  20.595  14.803   7.291
    5AU     LIG 2246  21.017  14.979   7.125
    5AU     LIG 2247  21.487  14.849   7.017
    5AU     LIG 2248  21.992  14.871   7.014
    5AU     LIG 2249  22.352  15.155   6.855
    5AU       S 2250  20.196  14.267   7.529
    5AU     LIG 2251  20.546  14.102   7.780
    5AU     LIG 2252  20.956  13.860   7.787
    5AU     LIG 2253  21.423  13.913   7.725
    5AU     LIG 2254  21.870  13.917   7.873
    5AU     LIG 2255  22.343  13.796   7.827
    5AU    AUSL 2256  19.730  14.915   7.728
    5AU    AUSL 2257  19.482  15.316   7.772
    5AU     AUL 2258  19.807  15.371   7.813
    5AU       S 2259  19.802  15.568   8.228
    5AU     LIG 2260  20.088  15.880   8.416
    5AU     LIG 2261  20.383  16.112   8.692
    5AU     LIG 2262  20.706  16.444   8.633
    5AU     LIG 2263  20.976  16.795   8.733
    5AU     LIG 2264  20.914  17.189   8.970
    5AU       S 2265  20.057  14.994   7.856
    5AU     LIG 2266  20.524  14.981   8.054
    5AU     LIG 2267  21.010  14.937   7.944
    5AU     LIG 2268  21.497  15.050   7.871
    5AU     LIG 2269  21.969  15.133   7.967
    5AU     LIG 2270  22.439  15.245   8.030
    5AU    AUSL 2271  18.360  15.377   7.541
    5AU    AUSL 2272  18.456  15.143   7.926
    5AU     AUL 2273  18.143  15.483   7.802
    5AU       S 2274  18.303  15.317   8.196
    5AU     LIG 2275  18.199  15.199   8.627
    5AU     LIG 2276  17.992  15.415   8.996
    5AU     LIG 2277  17.676  15.623   9.289
    5AU     LIG 2278  17.311  15.747   9.566
    5AU     LIG 2279  16.871  15.857   9.716
    5AU       S 2280  18.364  15.751   7.470
    5AU     LIG 2281  17.879  15.821   7.519
    5AU     LIG 2282  17.433  16.058   7.588
    5AU     LIG 2283  17.024  16.364   7.624
    5AU     LIG 2284  16.598  16.595   7.744
    5AU     LIG 2285  16.211  16.853   7.913
    5AU    AUSL 2286  18.322  14.989   7.337
    5AU    AUSL 2287  18.470  15.442   7.130
    5AU     AUL 2288  18.163  15.316   7.174
    5AU       S 2289  17.940  14.839   6.999
    5AU     LIG 2290  17.611  15.174   6.958
    5AU     LIG 2291  17.175  15.329   6.786
    5AU     LIG 2292  16.715  15.478   6.841
    5AU     LIG 2293  16.282  15.648   6.900
    5AU     LIG 2294  15.856  15.887   6.924
    5AU       S 2295  18.291  15.708   6.906
    5AU     LIG 2296  18.244  15.811   6.434
    5AU     LIG 2297  18.036  16.091   6.092
    5AU     LIG 2298  17.722  16.433   5.968
    5AU     LIG 2299  17.339  16.745   5.987
    5AU     LIG 2300  16.938  16.990   6.107
    5AU    AUSL 2301  18.088  15.035   7.734
    5AU    AUSL 2302  18.039  14.676   7.417
    5AU     AUL 2303  17.935  15.012   7.448
    5AU       S 2304  17.768  14.597   7.632
    5AU     LIG 2305  17.395  14.442   7.393
    5AU     LIG 2306  16.986  14.202   7.383
    5AU     LIG 2307  16.547  14.198   7.229
    5AU     LIG 2308  16.093  14.127   7.302
    5AU     LIG 2309  15.705  13.990   7.055
    5AU       S 2310  17.993  15.000   7.968
    5AU     LIG 2311  17.564  15.223   7.914
    5AU     LIG 2312  17.095  15.407   7.990
    5AU     LIG 2313  16.655  15.605   8.119
    5AU     LIG 2314  16.137  15.590   8.154
    5AU     LIG 2315  15.633  15.574   8.191
    5AU    AUSL 2316  19.729  14.199   7.538
    5AU    AUSL 2317  19.565  14.470   7.869
    5AU     AUL 2318  19.903  14.364   7.915
    5AU       S 2319  20.016  14.078   7.540
    5AU     LIG 2320  20.378  13.839   7.355
    5AU     LIG 2321  20.780  13.623   7.363
    5AU     LIG 2322  21.231  13.528   7.441
    5AU     LIG 2323  21.652  13.315   7.463
    5AU     LIG 2324  21.965  13.002   7.653
    5AU       S 2325  19.787  13.932   7.980
    5AU     LIG 2326  20.038  13.629   8.269
    5AU     LIG 2327  20.206  13.389   8.625
    5AU     LIG 2328  20.452  13.284   9.005
    5AU     LIG 2329  20.684  13.035   9.320
    5AU     LIG 2330  21.075  12.865   9.520
    5AU    AUSL 2331  19.711  14.583   7.320
    5AU    AUSL 2332  19.624  14.117   7.122
    5AU     AUL 2333  19.875  14.280   7.144
    5AU       S 2334  20.245  14.425   7.333
    5AU     LIG 2335  20.697  14.271   7.326
    5AU     LIG 2336  21.102  14.020   7.319
    5AU     LIG 2337  21.525  13.903   7.200
    5AU     LIG 2338  21.904  13.774   6.976
    5AU     LIG 2339  22.361  13.709   6.959
    5AU       S 2340  19.807  13.971   6.791
    5AU     LIG 2341  19.867  13.512   6.694
    5AU     LIG 2342  19.937  13.077   6.502
    5AU     LIG 2343  20.121  12.739   6.231
    5AU     LIG 2344  20.394  12.348   6.262
    5AU     LIG 2345  20.825  12.279   6.084
    5AU    AUSL 2346  18.214  14.301   7.592
    5AU    AUSL 2347  18.372  14.520   7.191
    5AU     AUL 2348  18.013  14.396   7.285
    5AU       S 2349  18.172  14.296   6.870
    5AU     LIG 2350  17.789  13.979   6.813
    5AU     LIG 2351  17.477  13.713   6.544
    5AU     LIG 2352  17.159  13.454   6.293
    5AU     LIG 2353  16.941  13.191   5.966
    5AU     LIG 2354  16.602  12.970   5.713
    5AU       S 2355  17.789  14.303   7.693
    5AU     LIG 2356  17.629  13.978   7.388
    5AU     LIG 2357  17.206  13.748   7.292
    5AU     LIG 2358  16.702  13.727   7.377
    5AU     LIG 2359  16.199  13.613   7.401
    5AU     LIG 2360  15.831  13.263   7.401
    5AU    AUSL 2361  18.354  14.704   7.731
    5AU    AUSL 2362  18.569  14.304   7.833
    5AU     AUL 2363  18.158  14.482   7.908
    5AU       S 2364  18.257  14.060   8.050
    5AU     LIG 2365  17.897  13.801   7.921
    5AU     LIG 2366  17.663  13.421   8.098
    5AU     LIG 2367  17.412  13.132   8.403
    5AU     LIG 2368  17.228  12.767   8.677
    5AU     LIG 2369  17.044  12.298   8.745
    5AU       S 2370  17.747  14.630   7.785
    5AU     LIG 2371  17.301  14.821   7.728
    5AU     LIG 2372  16.917  14.689   7.504
    5AU     LIG 2373  16.490  14.493   7.635
    5AU     LIG 2374  16.059  14.329   7.806
    5AU     LIG 2375  15.682  14.046   7.954
    5AU    AUSL 2376  19.071  15.497   7.891
    5AU    AUSL 2377  18.628  15.537   7.847
    5AU     AUL 2378  18.889  15.598   8.192
    5AU       S 2379  18.507  15.741   7.961
    5AU     LIG 2380  18.169  15.937   8.235
    5AU     LIG 2381  18.014  16.072   8.663
    5AU     LIG 2382  17.800  16.412   8.925
    5AU     LIG 2383  17.514  16.807   8.963
    5AU     LIG 2384  17.163  17.147   8.986
    5AU       S 2385  19.084  15.943   7.953
    5AU     LIG 2386  19.312  15.988   8.317
    5AU     LIG 2387  19.427  16.413   8.479
    5AU     LIG 2388  19.303  16.792   8.766
    5AU     LIG 2389  19.228  17.033   9.185
    5AU     LIG 2390  19.314  17.309   9.575
    5AU    AUSL 2391  18.880  15.752   7.574
    5AU    AUSL 2392  19.217  15.689   7.176
    5AU     AUL 2393  18.945  15.946   7.312
    5AU       S 2394  18.943  15.971   7.788
    5AU     LIG 2395  19.137  16.420   7.990
    5AU     LIG 2396  19.128  16.797   8.273
    5AU     LIG 2397  18.968  17.196   8.484
    5AU     LIG 2398  18.825  17.650   8.400
    5AU     LIG 2399  18.691  18.110   8.346
    5AU       S 2400  19.216  15.995   6.934
    5AU     LIG 2401  19.565  16.298   6.848
    5AU     LIG 2402  19.747  16.722   6.716
    5AU     LIG 2403  19.937  17.157   6.833
    5AU     LIG 2404  20.021  17.620   6.744
    5AU     LIG 2405  20.283  18.012   6.749
    5AU    AUSL 2406  19.339  15.678   7.592
    5AU    AUSL 2407  19.349  15.391   8.196
    5AU     AUL 2408  19.432  15.645   7.952
    5AU       S 2409  19.587  15.489   8.392
    5AU     LIG 2410  19.934  15.497   8.725
    5AU     LIG 2411  20.156  15.746   9.046
    5AU     LIG 2412  20.366  15.788   9.469
    5AU     LIG 2413  20.582  16.021   9.822
    5AU     LIG 2414  20.637  16.418  10.083
    5AU       S 2415  19.287  15.996   7.668
    5AU     LIG 2416  19.614  16.197   7.962
    5AU     LIG 2417  19.850  16.558   8.188
    5AU     LIG 2418  20.178  16.920   8.228
    5AU     LIG 2419  20.206  17.365   8.396
    5AU     LIG 2420  19.906  17.718   8.418
    5AU    AUSL 2421  18.977  14.139   7.948
    5AU    AUSL 2422  19.393  14.077   7.781
    5AU     AUL 2423  19.191  13.971   8.162
    5AU       S 2424  18.988  13.583   8.018
    5AU     LIG 2425  19.032  13.221   8.264
    5AU     LIG 2426  18.767  12.863   8.387
    5AU     LIG 2427  18.777  12.404   8.351
    5AU     LIG 2428  18.917  12.019   8.563
    5AU     LIG 2429  18.981  11.811   8.997
    5AU       S 2430  19.538  13.867   7.836
    5AU     LIG 2431  19.508  13.419   8.034
    5AU     LIG 2432  19.808  13.164   8.322
    5AU     LIG 2433  20.131  12.874   8.551
    5AU     LIG 2434  20.387  12.776   8.935
    5AU     LIG 2435  20.829  12.636   9.034
    5AU    AUSL 2436  18.640  13.911   7.699
    5AU    AUSL 2437  18.694  14.232   8.259
    5AU     AUL 2438  18.699  13.953   8.045
    5AU       S 2439  18.766  13.522   7.864
    5AU     LIG 2440  18.667  13.080   7.917
    5AU     LIG 2441  18.525  12.646   7.973
    5AU     LIG 2442  18.246  12.331   8.190
    5AU     LIG 2443  17.976  11.952   8.275
    5AU     LIG 2444  17.823  11.577   8.063
    5AU       S 2445  18.423  14.134   8.388
    5AU     LIG 2446  18.067  13.770   8.423
    5AU     LIG 2447  17.808  13.431   8.594
    5AU     LIG 2448  17.595  13.142   8.889
    5AU     LIG 2449  17.514  13.020   9.335
    5AU     LIG 2450  17.727  12.902   9.754
    5AU    AUSL 2451  19.071  13.838   7.632
    5AU    AUSL 2452  18.828  14.087   7.340
    5AU     AUL 2453  18.723  13.739   7.450
    5AU       S 2454  19.078  13.656   7.181
    5AU     LIG 2455  18.721  13.339   7.080
    5AU     LIG 2456  18.557  12.898   6.992
    5AU     LIG 2457  18.504  12.430   6.885
    5AU     LIG 2458  18.209  12.034   6.838
    5AU     LIG 2459  17.995  11.610   6.739
    5AU       S 2460  19.088  13.642   7.766
    5AU     LIG 2461  19.147  13.159   7.762
    5AU     LIG 2462  19.079  12.724   8.000
    5AU     LIG 2463  19.246  12.265   8.134
    5AU     LIG 2464  19.473  11.838   8.150
    5AU     LIG 2465  19.607  11.412   8.375
    5AU    AUSL 2466  19.025  15.456   6.845
    5AU    AUSL 2467  19.487  15.369   7.266
    5AU     AUL 2468  19.363  15.568   6.862
    5AU       S 2469  18.994  15.748   6.640
    5AU     LIG 2470  19.411  15.950   6.478
    5AU     LIG 2471  19.557  16.392   6.339
    5AU     LIG 2472  19.604  16.749   6.021
    5AU     LIG 2473  19.463  17.020   5.642
    5AU     LIG 2474  19.377  17.439   5.419
    5AU       S 2475  19.710  15.582   7.155
    5AU     LIG 2476  19.957  15.967   6.945
    5AU     LIG 2477  20.217  16.153   6.577
    5AU     LIG 2478  20.516  16.463   6.357
    5AU     LIG 2479  20.939  16.664   6.277
    5AU     LIG 2480  21.081  17.127   6.293
    5AU    AUSL 2481  18.871  15.446   7.284
    5AU    AUSL 2482  18.760  15.152   6.967
    5AU     AUL 2483  18.731  15.609   7.021
    5AU       S 2484  18.980  15.943   6.838
    5AU     LIG 2485  19.098  16.352   6.608
    5AU     LIG 2486  19.194  16.806   6.662
    5AU     LIG 2487  18.920  17.211   6.731
    5AU     LIG 2488  18.796  17.657   6.622
    5AU     LIG 2489  18.718  18.109   6.705
    5AU       S 2490  18.562  15.410   6.644
    5AU     LIG 2491  18.457  15.412   6.184
    5AU     LIG 2492  18.285  15.709   5.844
    5AU     LIG 2493  18.075  16.021   5.530
    5AU     LIG 2494  17.855  16.242   5.155
    5AU     LIG 2495  17.817  16.608   4.842
    5AU    AUSL 2496  19.026  14.054   6.935
    5AU    AUSL 2497  18.408  14.077   7.272
    5AU     AUL 2498  18.679  13.920   7.006
    5AU       S 2499  18.228  14.036   7.085
    5AU     LIG 2500  17.995  13.675   7.174
    5AU     LIG 2501  17.604  13.501   7.001
    5AU     LIG 2502  17.404  13.204   6.682
    5AU     LIG 2503  17.154  12.929   6.366
    5AU     LIG 2504  16.800  12.710   6.118
    5AU       S 2505  19.085  13.666   6.984
    5AU     LIG 2506  19.118  13.305   6.729
    5AU     LIG 2507  18.826  12.990   6.559
    5AU     LIG 2508  18.720  12.561   6.430
    5AU     LIG 2509  18.836  12.120   6.331
    5AU     LIG 2510  19.131  11.753   6.225
    5AU    AUSL 2511  19.259  14.073   7.325
    5AU    AUSL 2512  19.301  14.384   6.972
    5AU     AUL 2513  19.363  14.025   6.922
    5AU       S 2514  19.324  13.702   7.261
    5AU     LIG 2515  19.211  13.194   7.236
    5AU     LIG 2516  19.067  12.809   6.977
    5AU     LIG 2517  19.036  12.360   6.785
    5AU     LIG 2518  19.060  11.891   6.731
    5AU     LIG 2519  19.367  11.557   6.696
    5AU       S 2520  19.583  14.189   6.561
    5AU     LIG 2521  19.432  13.740   6.519
    5AU     LIG 2522  19.585  13.375   6.274
    5AU     LIG 2523  19.819  13.090   5.965
    5AU     LIG 2524  19.987  13.059   5.517
    5AU     LIG 2525  20.069  12.908   5.063
    6AU     AUC 2526  30.774  13.023   7.506
    6AU     AUC 2527  31.036  13.033   7.330
    6AU     AUC 2528  31.034  13.015   7.670
    6AU     AUC 2529  30.496  13.019   7.344
    6AU     AUC 2530  30.531  13.061   7.697
    6AU     AUC 2531  30.606  13.297   7.508
    6AU     AUC 2532  30.950  13.295   7.486
    6AU     AUC 2533  30.591  12.763   7.515
    6AU     AUC 2534  30.938  12.738   7.507
    6AU     AUC 2535  30.783  12.854   7.782
    6AU     AUC 2536  30.778  13.212   7.766
    6AU     AUC 2537  30.761  12.854   7.236
    6AU     AUC 2538  30.784  13.173   7.226
    6AU     AUC 2539  31.356  13.033   7.166
    6AU     AUC 2540  31.379  13.000   7.503
    6AU     AUC 2541  31.337  12.990   7.857
    6AU     AUC 2542  30.179  13.008   7.177
    6AU     AUC 2543  30.171  13.062   7.540
    6AU     AUC 2544  30.235  13.090   7.896
    6AU     AUC 2545  30.444  13.609   7.494
    6AU     AUC 2546  30.799  13.643   7.444
    6AU     AUC 2547  31.129  13.582   7.467
    6AU     AUC 2548  30.382  12.476   7.527
    6AU     AUC 2549  30.743  12.425   7.495
    6AU     AUC 2550  31.107  12.433   7.493
    6AU     AUC 2551  30.766  12.677   8.082
    6AU     AUC 2552  30.797  13.033   8.112
    6AU     AUC 2553  30.823  13.386   8.056
    6AU     AUC 2554  30.785  12.672   6.956
    6AU     AUC 2555  30.748  13.006   6.892
    6AU     AUC 2556  30.751  13.339   6.910
    6AU     AUC 2557  31.060  12.799   7.999
    6AU     AUC 2558  31.099  13.183   7.986
    6AU     AUC 2559  31.085  12.862   7.008
    6AU     AUC 2560  31.066  13.213   7.021
    6AU     AUC 2561  30.482  12.897   8.026
    6AU     AUC 2562  30.518  13.263   8.011
    6AU     AUC 2563  30.458  12.821   7.052
    6AU     AUC 2564  30.427  13.149   7.006
    6AU     AUC 2565  31.296  13.304   7.315
    6AU     AUC 2566  31.253  13.283   7.678
    6AU     AUC 2567  30.286  13.318   7.343
    6AU     AUC 2568  30.315  13.380   7.705
    6AU     AUC 2569  31.257  12.722   7.339
    6AU     AUC 2570  31.220  12.668   7.690
    6AU     AUC 2571  30.259  12.708   7.361
    6AU     AUC 2572  30.317  12.773   7.716
    6AU     AUC 2573  30.633  13.552   7.770
    6AU     AUC 2574  30.978  13.507   7.762
    6AU     AUC 2575  30.568  12.563   7.805
    6AU     AUC 2576  30.905  12.503   7.783
    6AU     AUC 2577  30.591  13.453   7.186
    6AU     AUC 2578  30.965  13.488   7.164
    6AU     AUC 2579  30.580  12.545   7.219
    6AU     AUC 2580  30.977  12.570   7.213
    6AU    AUSL 2581  31.351  12.927   8.232
    6AU    AUSL 2582  31.067  12.505   8.183
    6AU     AUL 2583  31.380  12.532   8.322
    6AU       S 2584  31.380  12.101   8.162
    6AU     LIG 2585  31.257  11.844   8.476
    6AU     LIG 2586  31.330  11.524   8.782
    6AU     LIG 2587  31.599  11.222   8.984
    6AU     LIG 2588  31.838  11.101   9.356
    6AU     LIG 2589  31.824  11.088   9.828
    6AU       S 2590  31.590  12.923   8.449
    6AU     LIG 2591  31.483  13.053   8.878
    6AU     LIG 2592  31.497  12.927   9.321
    6AU     LIG 2593  31.735  12.675   9.648
    6AU     LIG 2594  32.074  12.540   9.967
    6AU     LIG 2595  32.468  12.652  10.214
    6AU    AUSL 2596  30.956  12.846   8.424
    6AU    AUSL 2597  30.687  13.211   8.454
    6AU     AUL 2598  30.905  13.140   8.738
    6AU       S 2599  31.154  12.767   8.640
    6AU     LIG 2600  31.021  12.753   9.063
    6AU     LIG 2601  31.195  12.525   9.433
    6AU     LIG 2602  31.411  12.287   9.773
    6AU     LIG 2603  31.505  12.169  10.216
    6AU     LIG 2604  31.747  12.286  10.599
    6AU       S 2605  30.496  12.945   8.690
    6AU     LIG 2606  30.469  12.815   9.162
    6AU     LIG 2607  30.213  12.766   9.565
    6AU     LIG 2608  30.059  12.869   9.996
    6AU     LIG 2609  30.143  13.150  10.383
    6AU     LIG 2610  30.251  13.376  10.792
    6AU    AUSL 2611  31.000  13.218   8.162
    6AU    AUSL 2612  31.449  13.326   8.086
    6AU     AUL 2613  31.255  13.237   8.432
    6AU       S 2614  30.915  13.595   8.582
    6AU     LIG 2615  31.235  13.496   8.915
    6AU     LIG 2616  31.365  13.432   9.388
    6AU     LIG 2617  31.364  13.591   9.862
    6AU     LIG 2618  31.282  13.772  10.309
    6AU     LIG 2619  31.465  13.910  10.736
    6AU       S 2620  31.614  13.482   8.259
    6AU     LIG 2621  32.030  13.490   8.335
    6AU     LIG 2622  32.283  13.702   8.660
    6AU     LIG 2623  32.494  13.966   8.983
    6AU     LIG 2624  32.809  14.055   9.328
    6AU     LIG 2625  33.206  13.977   9.599
    6AU    AUSL 2626  31.206  13.078   6.874
    6AU    AUSL 2627  31.117  13.511   6.857
    6AU     AUL 2628  31.290  13.420   6.604
    6AU       S 2629  31.145  13.155   6.275
    6AU     LIG 2630  31.590  13.152   6.111
    6AU     LIG 2631  31.766  12.910   5.751
    6AU     LIG 2632  31.878  12.688   5.359
    6AU     LIG 2633  32.032  12.455   4.986
    6AU     LIG 2634  32.367  12.583   4.691
    6AU       S 2635  31.532  13.749   6.849
    6AU     LIG 2636  31.682  13.939   6.461
    6AU     LIG 2637  31.905  14.111   6.074
    6AU     LIG 2638  32.110  14.116   5.646
    6AU     LIG 2639  32.290  14.350   5.287
    6AU     LIG 2640  32.241  14.717   5.011
    6AU    AUSL 2641  31.039  12.806   6.570
    6AU    AUSL 2642  31.512  12.781   6.916
    6AU     AUL 2643  31.412  12.951   6.633
    6AU       S 2644  31.629  12.525   6.692
    6AU     LIG 2645  31.713  12.160   6.369
    6AU     LIG 2646  31.892  11.739   6.282
    6AU     LIG 2647  32.167  11.475   6.009
    6AU     LIG 2648  32.469  11.413   5.648
    6AU     LIG 2649  32.911  11.462   5.450
    6AU       S 2650  31.153  12.962   6.238
    6AU     LIG 2651  31.377  12.669   6.009
    6AU     LIG 2652  31.425  12.552   5.557
    6AU     LIG 2653  31.501  12.442   5.102
    6AU     LIG 2654  31.485  12.193   4.701
    6AU     LIG 2655  31.664  12.145   4.280
    6AU    AUSL 2656  30.850  13.219   6.665
    6AU    AUSL 2657  30.647  12.816   6.760
    6AU     AUL 2658  30.759  12.855   6.438
    6AU       S 2659  30.326  12.838   6.296
    6AU     LIG 2660  30.481  12.655   5.926
    6AU     LIG 2661  30.260  12.398   5.607
    6AU     LIG 2662  30.067  12.339   5.185
    6AU     LIG 2663  30.017  12.232   4.739
    6AU     LIG 2664  29.732  12.287   4.375
    6AU       S 2665  30.893  13.296   6.366
    6AU     LIG 2666  30.862  13.177   5.880
    6AU     LIG 2667  31.263  13.046   5.636
    6AU     LIG 2668  31.455  12.972   5.192
    6AU     LIG 2669  31.437  13.103   4.708
    6AU     LIG 2670  31.421  13.414   4.325
    6AU    AUSL 2671  30.276  13.158   8.298
    6AU    AUSL 2672  30.563  13.508   8.165
    6AU     AUL 2673  30.448  13.444   8.497
    6AU       S 2674  30.324  13.069   8.751
    6AU     LIG 2675  29.971  12.912   8.925
    6AU     LIG 2676  29.801  12.666   9.275
    6AU     LIG 2677  29.673  12.609   9.724
    6AU     LIG 2678  29.291  12.507  10.003
    6AU     LIG 2679  28.900  12.518  10.278
    6AU       S 2680  30.174  13.740   8.263
    6AU     LIG 2681  30.150  13.929   8.676
    6AU     LIG 2682  30.016  14.146   9.080
    6AU     LIG 2683  29.745  14.338   9.410
    6AU     LIG 2684  29.483  14.416   9.795
    6AU     LIG 2685  29.481  14.621  10.231
    6AU    AUSL 2686  30.585  12.857   8.197
    6AU    AUSL 2687  30.122  12.787   8.118
    6AU     AUL 2688  30.145  12.872   8.375
    6AU       S 2689  29.951  12.446   8.269
    6AU     LIG 2690  29.526  12.419   8.160
    6AU     LIG 2691  29.272  12.065   8.299
    6AU     LIG 2692  29.058  11.773   8.604
    6AU     LIG 2693  28.877  11.499   8.941
    6AU     LIG 2694  28.592  11.503   9.318
    6AU       S 2695  30.535  12.764   8.607
    6AU     LIG 2696  30.247  12.488   8.846
    6AU     LIG 2697  30.189  12.326   9.294
    6AU     LIG 2698  30.076  12.285   9.762
    6AU     LIG 2699  29.881  12.143  10.180
    6AU     LIG 2700  29.891  12.096  10.660
    6AU    AUSL 2701  30.207  12.856   6.781
    6AU    AUSL 2702  30.425  12.496   6.947
    6AU     AUL 2703  30.458  12.531   6.629
    6AU       S 2704  30.157  12.769   6.359
    6AU     LIG 2705  29.971  12.740   5.931
    6AU     LIG 2706  29.790  12.615   5.522
    6AU     LIG 2707  29.557  12.529   5.131
    6AU     LIG 2708  29.118  12.657   4.998
    6AU     LIG 2709  28.768  12.778   4.717
    6AU       S 2710  30.066  12.353   6.803
    6AU     LIG 2711  29.790  12.001   6.683
    6AU     LIG 2712  29.441  11.848   6.446
    6AU     LIG 2713  29.300  11.527   6.149
    6AU     LIG 2714  29.247  11.402   5.700
    6AU     LIG 2715  29.227  11.202   5.267
    6AU    AUSL 2716  30.427  13.185   6.595
    6AU    AUSL 2717  30.080  13.265   6.921
    6AU     AUL 2718  29.998  13.062   6.671
    6AU       S 2719  30.077  13.510   6.678
    6AU     LIG 2720  29.709  13.669   6.509
    6AU     LIG 2721  29.565  13.926   6.142
    6AU     LIG 2722  29.379  14.056   5.717
    6AU     LIG 2723  29.009  14.078   5.390
    6AU     LIG 2724  28.647  14.221   5.093
    6AU       S 2725  30.364  13.129   6.362
    6AU     LIG 2726  30.321  13.147   5.897
    6AU     LIG 2727  30.222  12.903   5.501
    6AU     LIG 2728  29.991  12.861   5.084
    6AU     LIG 2729  29.931  13.137   4.682
    6AU     LIG 2730  29.930  13.407   4.274
    6AU    AUSL 2731  31.582  13.515   7.486
    6AU    AUSL 2732  31.500  13.334   7.057
    6AU     AUL 2733  31.836  13.619   7.253
    6AU       S 2734  31.596  13.429   6.933
    6AU     LIG 2735  31.815  13.439   6.538
    6AU     LIG 2736  32.138  13.710   6.312
    6AU     LIG 2737  32.416  14.008   6.052
    6AU     LIG 2738  32.629  14.123   5.622
    6AU     LIG 2739  32.804  14.380   5.246
    6AU       S 2740  31.981  13.410   7.663
    6AU     LIG 2741  32.402  13.602   7.649
    6AU     LIG 2742  32.869  13.679   7.545
    6AU     LIG 2743  33.282  13.902   7.423
    6AU     LIG 2744  33.500  14.344   7.344
    6AU     LIG 2745  33.617  14.774   7.173
    6AU    AUSL 2746  31.743  13.111   7.337
    6AU    AUSL 2747  31.705  12.773   7.689
    6AU     AUL 2748  31.987  12.824   7.469
    6AU       S 2749  31.999  13.271   7.518
    6AU     LIG 2750  32.448  13.141   7.428
    6AU     LIG 2751  32.943  13.208   7.349
    6AU     LIG 2752  33.417  13.373   7.292
    6AU     LIG 2753  33.864  13.441   7.090
    6AU     LIG 2754  34.142  13.738   6.854
    6AU       S 2755  31.944  12.387   7.666
    6AU     LIG 2756  32.333  12.238   7.843
    6AU     LIG 2757  32.777  12.100   7.787
    6AU     LIG 2758  33.240  12.063   7.709
    6AU     LIG 2759  33.706  12.008   7.801
    6AU     LIG 2760  34.117  12.060   8.028
    6AU    AUSL 2761  31.482  13.143   7.703
    6AU    AUSL 2762  31.241  13.544   7.758
    6AU     AUL 2763  31.576  13.577   7.800
    6AU       S 2764  31.586  13.783   8.210
    6AU     LIG 2765  31.942  14.010   8.420
    6AU     LIG 2766  32.246  14.304   8.650
    6AU     LIG 2767  32.408  14.764   8.752
    6AU     LIG 2768  32.689  15.183   8.734
    6AU     LIG 2769  33.117  15.380   8.823
    6AU       S 2770  31.847  13.195   7.821
    6AU     LIG 2771  32.303  13.168   7.949
    6AU     LIG 2772  32.754  13.256   7.837
    6AU     LIG 2773  33.220  13.350   7.773
    6AU     LIG 2774  33.666  13.349   7.928
    6AU     LIG 2775  34.104  13.530   7.933
    6AU    AUSL 2776  30.115  13.608   7.545
    6AU    AUSL 2777  30.213  13.367   7.925
    6AU     AUL 2778  29.897  13.706   7.794
    6AU       S 2779  30.052  13.539   8.190
    6AU     LIG 2780  29.944  13.451   8.631
    6AU     LIG 2781  29.717  13.749   8.932
    6AU     LIG 2782  29.411  14.034   9.168
    6AU     LIG 2783  29.103  14.142   9.533
    6AU     LIG 2784  28.672  14.225   9.741
    6AU       S 2785  30.129  13.979   7.468
    6AU     LIG 2786  29.653  14.042   7.456
    6AU     LIG 2787  29.258  14.358   7.501
    6AU     LIG 2788  28.930  14.743   7.564
    6AU     LIG 2789  28.617  15.080   7.750
    6AU     LIG 2790  28.158  15.179   7.836
    6AU    AUSL 2791  30.070  13.222   7.344
    6AU    AUSL 2792  30.187  13.657   7.123
    6AU     AUL 2793  29.899  13.531   7.183
    6AU       S 2794  29.649  13.125   7.014
    6AU     LIG 2795  29.402  13.514   6.959
    6AU     LIG 2796  28.919  13.624   6.980
    6AU     LIG 2797  28.419  13.611   7.065
    6AU     LIG 2798  27.966  13.755   6.970
    6AU     LIG 2799  27.648  13.795   6.596
    6AU       S 2800  30.000  13.919   6.895
    6AU     LIG 2801  29.956  14.121   6.455
    6AU     LIG 2802  29.718  14.436   6.160
    6AU     LIG 2803  29.478  14.881   6.101
    6AU     LIG 2804  29.213  15.318   6.098
    6AU     LIG 2805  28.830  15.598   6.224
    6AU    AUSL 2806  29.841  13.255   7.746
    6AU    AUSL 2807  29.797  12.897   7.393
    6AU     AUL 2808  29.688  13.228   7.473
    6AU       S 2809  29.516  12.789   7.595
    6AU     LIG 2810  29.147  12.580   7.361
    6AU     LIG 2811  28.681  12.520   7.441
    6AU     LIG 2812  28.249  12.541   7.251
    6AU     LIG 2813  27.806  12.436   7.037
    6AU     LIG 2814  27.383  12.188   6.965
    6AU       S 2815  29.752  13.194   7.984
    6AU     LIG 2816  29.322  13.330   7.840
    6AU     LIG 2817  28.827  13.373   7.876
    6AU     LIG 2818  28.344  13.424   7.951
    6AU     LIG 2819  27.999  13.649   8.221
    6AU     LIG 2820  27.589  13.900   8.393
    6AU    AUSL 2821  31.466  12.431   7.539
    6AU    AUSL 2822  31.312  12.709   7.868
    6AU     AUL 2823  31.635  12.609   7.923
    6AU       S 2824  31.646  12.265   7.537
    6AU     LIG 2825  31.992  11.889   7.616
    6AU     LIG 2826  32.460  11.769   7.552
    6AU     LIG 2827  32.918  11.609   7.564
    6AU     LIG 2828  33.144  11.178   7.565
    6AU     LIG 2829  33.570  10.979   7.639
    6AU       S 2830  31.545  12.173   8.012
    6AU     LIG 2831  31.751  11.788   8.230
    6AU     LIG 2832  31.829  11.576   8.643
    6AU     LIG 2833  32.102  11.318   8.933
    6AU     LIG 2834  32.487  11.335   9.211
    6AU     LIG 2835  32.904  11.432   9.423
    6AU    AUSL 2836  31.431  12.817   7.334
    6AU    AUSL 2837  31.396  12.394   7.113
    6AU     AUL 2838  31.672  12.611   7.178
    6AU       S 2839  31.916  12.349   7.447
    6AU     LIG 2840  32.374  12.228   7.336
    6AU     LIG 2841  32.836  12.044   7.283
    6AU     LIG 2842  33.285  11.846   7.254
    6AU     LIG 2843  33.762  11.820   7.316
    6AU     LIG 2844  34.135  11.780   7.036
    6AU       S 2845  31.594  12.274   6.843
    6AU     LIG 2846  31.625  11.794   6.745
    6AU     LIG 2847  31.725  11.331   6.576
    6AU     LIG 2848  31.833  10.863   6.426
    6AU     LIG 2849  32.129  10.470   6.370
    6AU     LIG 2850  32.455  10.135   6.292
    6AU    AUSL 2851  29.971  12.524   7.573
    6AU    AUSL 2852  30.145  12.744   7.188
    6AU     AUL 2853  29.786  12.631   7.245
    6AU       S 2854  29.941  12.478   6.849
    6AU     LIG 2855  29.470  12.337   6.914
    6AU     LIG 2856  29.071  12.131   6.695
    6AU     LIG 2857  28.939  11.874   6.311
    6AU     LIG 2858  28.810  11.513   6.016
    6AU     LIG 2859  28.751  11.423   5.555
    6AU       S 2860  29.571  12.513   7.652
    6AU     LIG 2861  29.354  12.155   7.547
    6AU     LIG 2862  28.920  12.112   7.652
    6AU     LIG 2863  28.447  12.090   7.650
    6AU     LIG 2864  28.121  11.749   7.730
    6AU     LIG 2865  27.785  11.430   7.774
    6AU    AUSL 2866  30.107  12.927   7.713
    6AU    AUSL 2867  30.317  12.531   7.826
    6AU     AUL 2868  29.909  12.713   7.894
    6AU       S 2869  30.006  12.287   8.027
    6AU     LIG 2870  29.667  11.983   7.928
    6AU     LIG 2871  29.416  11.613   8.108
    6AU     LIG 2872  29.247  11.315   8.459
    6AU     LIG 2873  29.050  10.899   8.615
    6AU     LIG 2874  28.697  10.615   8.765
    6AU       S 2875  29.500  12.837   7.752
    6AU     LIG 2876  29.033  12.918   7.727
    6AU     LIG 2877  28.570  12.920   7.762
    6AU     LIG 2878  28.264  12.575   7.775
    6AU     LIG 2879  27.996  12.216   7.887
    6AU     LIG 2880  27.641  11.935   7.928
    6AU    AUSL 2881  30.829  13.713   7.893
    6AU    AUSL 2882  30.381  13.765   7.852
    6AU     AUL 2883  30.644  13.828   8.191
    6AU       S 2884  30.253  13.966   7.971
    6AU     LIG 2885  29.907  14.154   8.256
    6AU     LIG 2886  29.699  14.216   8.682
    6AU     LIG 2887  29.502  14.521   8.981
    6AU     LIG 2888  29.267  14.941   9.019
    6AU     LIG 2889  29.021  15.350   8.945
    6AU       S 2890  30.859  14.166   7.959
    6AU     LIG 2891  31.014  14.193   8.348
    6AU     LIG 2892  31.092  14.628   8.509
    6AU     LIG 2893  31.065  15.049   8.742
    6AU     LIG 2894  31.021  15.332   9.135
    6AU     LIG 2895  30.987  15.718   9.418
    6AU    AUSL 2896  30.639  13.980   7.586
    6AU    AUSL 2897  30.937  13.925   7.189
    6AU     AUL 2898  30.674  14.183   7.332
    6AU       S 2899  30.694  14.190   7.808
    6AU     LIG 2900  30.804  14.640   8.045
    6AU     LIG 2901  30.920  15.057   8.239
    6AU     LIG 2902  30.777  15.507   8.355
    6AU     LIG 2903  30.573  15.951   8.290
    6AU     LIG 2904  30.353  16.387   8.282
    6AU       S 2905  30.909  14.246   6.929
    6AU     LIG 2906  31.233  14.556   6.801
    6AU     LIG 2907  31.409  14.984   6.685
    6AU     LIG 2908  31.761  15.317   6.751
    6AU     LIG 2909  31.959  15.744   6.694
    6AU     LIG 2910  31.965  16.209   6.619
    6AU    AUSL 2911  31.092  13.912   7.596
    6AU    AUSL 2912  31.128  13.627   8.184
    6AU     AUL 2913  31.209  13.870   7.938
    6AU       S 2914  31.359  13.713   8.378
    6AU     LIG 2915  31.687  13.681   8.722
    6AU     LIG 2916  31.967  13.982   8.960
    6AU     LIG 2917  32.192  14.352   9.171
    6AU     LIG 2918  32.204  14.682   9.521
    6AU     LIG 2919  32.072  14.984   9.878
    6AU       S 2920  31.038  14.227   7.674
    6AU     LIG 2921  31.287  14.461   8.005
    6AU     LIG 2922  31.428  14.877   8.194
    6AU     LIG 2923  31.781  15.206   8.251
    6AU     LIG 2924  31.948  15.638   8.340
    6AU     LIG 2925  31.878  16.114   8.401
    6AU    AUSL 2926  30.726  12.372   7.944
    6AU    AUSL 2927  31.150  12.304   7.801
    6AU     AUL 2928  30.931  12.214   8.177
    6AU       S 2929  30.748  11.822   8.013
    6AU     LIG 2930  30.808  11.469   8.246
    6AU     LIG 2931  30.547  11.121   8.384
    6AU     LIG 2932  30.553  10.666   8.419
    6AU     LIG 2933  30.525  10.398   8.803
    6AU     LIG 2934  30.503  10.378   9.285
    6AU       S 2935  31.291  12.111   7.866
    6AU     LIG 2936  31.255  11.649   8.001
    6AU     LIG 2937  31.464  11.355   8.314
    6AU     LIG 2938  31.796  11.077   8.520
    6AU     LIG 2939  31.994  10.672   8.649
    6AU     LIG 2940  32.174  10.254   8.806
    6AU    AUSL 2941  30.402  12.142   7.685
    6AU    AUSL 2942  30.438  12.463   8.253
    6AU     AUL 2943  30.448  12.182   8.035
    6AU       S 2944  30.525  11.755   7.856
    6AU     LIG 2945  30.416  11.317   7.918
    6AU     LIG 2946  30.329  10.859   7.988
    6AU     LIG 2947  30.120  10.459   8.153
    6AU     LIG 2948  29.876  10.034   8.173
    6AU     LIG 2949  29.847   9.643   8.440
    6AU       S 2950  30.163  12.361   8.364
    6AU     LIG 2951  29.874  11.972   8.402
    6AU     LIG 2952  29.567  11.713   8.588
    6AU     LIG 2953  29.391  11.520   8.958
    6AU     LIG 2954  29.444  11.521   9.429
    6AU     LIG 2955  29.481  11.313   9.854
    6AU    AUSL 2956  30.835  12.074   7.627
    6AU    AUSL 2957  30.603  12.323   7.336
    6AU     AUL 2958  30.499  11.968   7.439
    6AU       S 2959  30.870  11.879   7.193
    6AU     LIG 2960  30.584  11.481   7.180
    6AU     LIG 2961  30.379  11.052   7.027
    6AU     LIG 2962  30.161  10.638   6.865
    6AU     LIG 2963  29.898  10.210   6.839
    6AU     LIG 2964  29.948   9.731   6.871
    6AU       S 2965  30.849  11.884   7.768
    6AU     LIG 2966  30.885  11.412   7.720
    6AU     LIG 2967  30.847  11.005   7.974
    6AU     LIG 2968  30.968  10.550   8.050
    6AU     LIG 2969  31.282  10.172   8.043
    6AU     LIG 2970  31.599   9.840   8.129
    6AU    AUSL 2971  30.736  13.721   6.846
    6AU    AUSL 2972  31.231  13.620   7.260
    6AU     AUL 2973  31.077  13.825   6.871
    6AU       S 2974  30.695  13.998   6.653
    6AU     LIG 2975  31.012  14.266   6.428
    6AU     LIG 2976  31.124  14.723   6.312
    6AU     LIG 2977  31.078  15.151   6.088
    6AU     LIG 2978  31.012  15.475   5.716
    6AU     LIG 2979  30.938  15.948   5.598
    6AU       S 2980  31.443  13.829   7.142
    6AU     LIG 2981  31.874  14.073   6.949
    6AU     LIG 2982  32.136  14.188   6.543
    6AU     LIG 2983  32.300  14.528   6.234
    6AU     LIG 2984  32.464  14.999   6.132
    6AU     LIG 2985  32.779  15.312   5.923
    6AU    AUSL 2986  30.583  13.689   7.285
    6AU    AUSL 2987  30.499  13.391   6.960
    6AU     AUL 2988  30.439  13.848   7.033
    6AU       S 2989  30.674  14.198   6.861
    6AU     LIG 2990  30.737  14.640   6.662
    6AU     LIG 2991  30.864  15.093   6.585
    6AU     LIG 2992  30.644  15.529   6.554
    6AU     LIG 2993  30.338  15.904   6.465
    6AU     LIG 2994  30.106  16.277   6.266
    6AU       S 2995  30.283  13.637   6.650
    6AU     LIG 2996  30.152  13.707   6.208
    6AU     LIG 2997  30.003  14.045   5.907
    6AU     LIG 2998  29.836  14.185   5.480
    6AU     LIG 2999  29.766  14.402   5.059
    6AU     LIG 3000  29.566  14.703   4.752
    6AU    AUSL 3001  30.802  12.281   6.936
    6AU    AUSL 3002  30.182  12.300   7.265
    6AU     AUL 3003  30.458  12.146   7.000
    6AU       S 3004  30.004  12.251   7.081
    6AU     LIG 3005  29.693  11.971   7.195
    6AU     LIG 3006  29.343  11.782   6.955
    6AU     LIG 3007  29.089  11.516   6.643
    6AU     LIG 3008  28.914  11.151   6.383
    6AU     LIG 3009  28.616  10.802   6.235
    6AU       S 3010  30.862  11.895   7.023
    6AU     LIG 3011  30.896  11.538   6.757
    6AU     LIG 3012  30.636  11.186   6.600
    6AU     LIG 3013  30.608  10.723   6.574
    6AU     LIG 3014  30.683  10.409   6.224
    6AU     LIG 3015  30.622  10.287   5.766
    6AU    AUSL 3016  31.039  12.301   7.323
    6AU    AUSL 3017  31.058  12.628   6.956
    6AU     AUL 3018  31.134  12.252   6.924
    6AU       S 3019  31.134  11.951   7.285
    6AU     LIG 3020  31.098  11.444   7.240
    6AU     LIG 3021  30.905  11.064   7.019
    6AU     LIG 3022  30.984  10.595   6.916
    6AU     LIG 3023  30.873  10.137   6.881
    6AU     LIG 3024  31.067   9.703   6.854
    6AU       S 3025  31.366  12.461   6.592
    6AU     LIG 3026  31.229  12.018   6.502
    6AU     LIG 3027  31.383  11.621   6.309
    6AU     LIG 3028  31.666  11.324   6.053
    6AU     LIG 3029  31.898  11.221   5.644
    6AU     LIG 3030  31.944  11.045   5.210
    7AU     AUC 3031  22.626   5.794   7.506
    7AU     AUC 3032  22.912   5.799   7.337
    7AU     AUC 3033  22.887   5.792   7.672
    7AU     AUC 3034  22.346   5.783   7.348
    7AU     AUC 3035  22.367   5.828   7.692
    7AU     AUC 3036  22.455   6.061   7.508
    7AU     AUC 3037  22.807   6.066   7.490
    7AU     AUC 3038  22.436   5.521   7.515
    7AU     AUC 3039  22.794   5.523   7.509
    7AU     AUC 3040  22.635   5.626   7.774
    7AU     AUC 3041  22.621   5.988   7.761
    7AU     AUC 3042  22.620   5.630   7.240
    7AU     AUC 3043  22.653   5.943   7.228
    7AU     AUC 3044  23.242   5.798   7.181
    7AU     AUC 3045  23.245   5.785   7.518
    7AU     AUC 3046  23.186   5.776   7.869
    7AU     AUC 3047  22.033   5.789   7.187
    7AU     AUC 3048  22.017   5.831   7.549
    7AU     AUC 3049  22.082   5.863   7.887
    7AU     AUC 3050  22.297   6.386   7.484
    7AU     AUC 3051  22.653   6.414   7.437
    7AU     AUC 3052  22.979   6.361   7.468
    7AU     AUC 3053  22.240   5.236   7.517
    7AU     AUC 3054  22.577   5.182   7.468
    7AU     AUC 3055  22.966   5.205   7.487
    7AU     AUC 3056  22.626   5.449   8.070
    7AU     AUC 3057  22.639   5.806   8.105
    7AU     AUC 3058  22.656   6.165   8.050
    7AU     AUC 3059  22.649   5.460   6.957
    7AU     AUC 3060  22.630   5.776   6.896
    7AU     AUC 3061  22.635   6.099   6.916
    7AU     AUC 3062  22.912   5.572   7.994
    7AU     AUC 3063  22.932   5.963   7.989
    7AU     AUC 3064  22.960   5.627   7.019
    7AU     AUC 3065  22.955   5.973   7.033
    7AU     AUC 3066  22.336   5.666   8.025
    7AU     AUC 3067  22.359   6.044   8.001
    7AU     AUC 3068  22.318   5.609   7.063
    7AU     AUC 3069  22.299   5.923   7.005
    7AU     AUC 3070  23.163   6.081   7.330
    7AU     AUC 3071  23.098   6.069   7.691
    7AU     AUC 3072  22.139   6.097   7.342
    7AU     AUC 3073  22.161   6.158   7.696
    7AU     AUC 3074  23.129   5.490   7.350
    7AU     AUC 3075  23.089   5.458   7.681
    7AU     AUC 3076  22.093   5.497   7.387
    7AU     AUC 3077  22.160   5.545   7.729
    7AU     AUC 3078  22.477   6.332   7.761
    7AU     AUC 3079  22.814   6.287   7.762
    7AU     AUC 3080  22.428   5.336   7.796
    7AU     AUC 3081  22.766   5.279   7.769
    7AU     AUC 3082  22.460   6.209   7.184
    7AU     AUC 3083  22.849   6.244   7.154
    7AU     AUC 3084  22.421   5.310   7.226
    7AU     AUC 3085  22.808   5.345   7.216
    7AU    AUSL 3086  23.192   5.713   8.232
    7AU    AUSL 3087  22.926   5.266   8.170
    7AU     AUL 3088  23.219   5.333   8.340
    7AU       S 3089  23.258   4.925   8.130
    7AU     LIG 3090  23.124   4.753   8.485
    7AU     LIG 3091  23.317   4.458   8.763
    7AU     LIG 3092  23.528   4.106   8.974
    7AU     LIG 3093  23.713   3.900   9.353
    7AU     LIG 3094  23.595   3.708   9.784
    7AU       S 3095  23.459   5.735   8.390
    7AU     LIG 3096  23.497   5.929   8.814
    7AU     LIG 3097  23.543   5.769   9.267
    7AU     LIG 3098  23.819   5.707   9.666
    7AU     LIG 3099  24.186   5.753   9.976
    7AU     LIG 3100  24.504   5.740  10.332
    7AU    AUSL 3101  22.793   5.605   8.411
    7AU    AUSL 3102  22.522   5.985   8.447
    7AU     AUL 3103  22.727   5.860   8.716
    7AU       S 3104  23.120   5.604   8.699
    7AU     LIG 3105  22.744   5.395   8.907
    7AU     LIG 3106  22.681   5.223   9.355
    7AU     LIG 3107  22.950   5.077   9.754
    7AU     LIG 3108  23.173   5.072  10.182
    7AU     LIG 3109  23.189   5.047  10.651
    7AU       S 3110  22.296   5.713   8.663
    7AU     LIG 3111  22.354   5.655   9.142
    7AU     LIG 3112  22.070   5.646   9.521
    7AU     LIG 3113  21.867   5.666   9.947
    7AU     LIG 3114  21.885   5.951  10.337
    7AU     LIG 3115  21.863   6.370  10.584
    7AU    AUSL 3116  22.835   5.985   8.158
    7AU    AUSL 3117  23.272   6.126   8.110
    7AU     AUL 3118  23.084   6.012   8.437
    7AU       S 3119  22.756   6.341   8.616
    7AU     LIG 3120  23.100   6.244   8.888
    7AU     LIG 3121  23.425   6.325   9.222
    7AU     LIG 3122  23.512   6.490   9.665
    7AU     LIG 3123  23.520   6.469  10.147
    7AU     LIG 3124  23.622   6.411  10.604
    7AU       S 3125  23.422   6.290   8.271
    7AU     LIG 3126  23.810   6.191   8.393
    7AU     LIG 3127  24.091   6.421   8.688
    7AU     LIG 3128  24.349   6.668   9.005
    7AU     LIG 3129  24.563   6.838   9.388
    7AU     LIG 3130  24.904   6.758   9.724
    7AU    AUSL 3131  23.118   5.838   6.890
    7AU    AUSL 3132  23.034   6.272   6.836
    7AU     AUL 3133  23.238   6.137   6.618
    7AU       S 3134  22.987   5.953   6.300
    7AU     LIG 3135  23.443   5.999   6.118
    7AU     LIG 3136  23.572   5.763   5.726
    7AU     LIG 3137  23.818   5.652   5.328
    7AU     LIG 3138  24.218   5.663   5.050
    7AU     LIG 3139  24.582   5.727   4.735
    7AU       S 3140  23.413   6.509   6.868
    7AU     LIG 3141  23.454   6.767   6.503
    7AU     LIG 3142  23.717   6.891   6.121
    7AU     LIG 3143  24.034   6.944   5.771
    7AU     LIG 3144  24.200   7.168   5.396
    7AU     LIG 3145  24.098   7.336   4.954
    7AU    AUSL 3146  22.933   5.580   6.583
    7AU    AUSL 3147  23.367   5.486   6.919
    7AU     AUL 3148  23.307   5.668   6.645
    7AU       S 3149  23.449   5.212   6.683
    7AU     LIG 3150  23.582   4.860   6.357
    7AU     LIG 3151  23.832   4.471   6.238
    7AU     LIG 3152  24.076   4.197   5.925
    7AU     LIG 3153  24.441   4.131   5.616
    7AU     LIG 3154  24.849   4.338   5.456
    7AU       S 3155  23.047   5.763   6.267
    7AU     LIG 3156  22.890   5.405   6.036
    7AU     LIG 3157  22.898   5.266   5.578
    7AU     LIG 3158  23.142   5.243   5.163
    7AU     LIG 3159  23.173   5.082   4.708
    7AU     LIG 3160  23.288   4.927   4.280
    7AU    AUSL 3161  22.739   5.970   6.717
    7AU    AUSL 3162  22.521   5.569   6.730
    7AU     AUL 3163  22.660   5.606   6.450
    7AU       S 3164  22.245   5.608   6.269
    7AU     LIG 3165  22.383   5.432   5.882
    7AU     LIG 3166  22.165   5.164   5.570
    7AU     LIG 3167  21.939   5.120   5.164
    7AU     LIG 3168  21.694   5.056   4.775
    7AU     LIG 3169  21.722   4.927   4.325
    7AU       S 3170  22.791   6.064   6.430
    7AU     LIG 3171  22.642   5.869   5.977
    7AU     LIG 3172  23.017   5.763   5.684
    7AU     LIG 3173  23.288   5.738   5.282
    7AU     LIG 3174  23.417   5.929   4.856
    7AU     LIG 3175  23.494   6.256   4.505
    7AU    AUSL 3176  22.117   5.938   8.276
    7AU    AUSL 3177  22.409   6.289   8.155
    7AU     AUL 3178  22.285   6.218   8.485
    7AU       S 3179  22.131   5.832   8.722
    7AU     LIG 3180  21.871   5.559   8.977
    7AU     LIG 3181  21.641   5.408   9.356
    7AU     LIG 3182  21.427   5.407   9.777
    7AU     LIG 3183  21.063   5.521  10.059
    7AU     LIG 3184  20.897   5.657  10.470
    7AU       S 3185  22.014   6.531   8.259
    7AU     LIG 3186  21.969   6.686   8.683
    7AU     LIG 3187  21.753   6.939   9.021
    7AU     LIG 3188  21.675   7.024   9.486
    7AU     LIG 3189  21.650   7.235   9.917
    7AU     LIG 3190  21.488   7.582  10.191
    7AU    AUSL 3191  22.425   5.639   8.181
    7AU    AUSL 3192  21.990   5.524   8.163
    7AU     AUL 3193  21.929   5.742   8.317
    7AU       S 3194  21.884   5.276   8.397
    7AU     LIG 3195  21.438   5.234   8.271
    7AU     LIG 3196  21.150   4.901   8.420
    7AU     LIG 3197  20.902   4.567   8.634
    7AU     LIG 3198  20.640   4.245   8.863
    7AU     LIG 3199  20.406   3.910   9.107
    7AU       S 3200  22.320   5.570   8.560
    7AU     LIG 3201  22.253   5.235   8.876
    7AU     LIG 3202  22.130   5.184   9.313
    7AU     LIG 3203  21.907   5.180   9.736
    7AU     LIG 3204  21.631   5.048  10.103
    7AU     LIG 3205  21.639   4.795  10.509
    7AU    AUSL 3206  22.103   5.676   6.810
    7AU    AUSL 3207  22.307   5.318   7.006
    7AU     AUL 3208  22.278   5.338   6.653
    7AU       S 3209  22.073   5.593   6.316
    7AU     LIG 3210  21.870   5.455   5.928
    7AU     LIG 3211  21.666   5.352   5.531
    7AU     LIG 3212  21.402   5.182   5.189
    7AU     LIG 3213  21.140   5.267   4.829
    7AU     LIG 3214  20.950   5.639   4.626
    7AU       S 3215  21.890   5.172   6.837
    7AU     LIG 3216  21.873   4.746   6.689
    7AU     LIG 3217  21.521   4.517   6.498
    7AU     LIG 3218  21.192   4.398   6.172
    7AU     LIG 3219  20.986   4.231   5.776
    7AU     LIG 3220  20.982   3.988   5.356
    7AU    AUSL 3221  22.332   5.964   6.573
    7AU    AUSL 3222  21.922   6.070   6.916
    7AU     AUL 3223  21.906   5.842   6.656
    7AU       S 3224  21.954   6.291   6.680
    7AU     LIG 3225  21.586   6.430   6.517
    7AU     LIG 3226  21.440   6.675   6.151
    7AU     LIG 3227  21.213   6.748   5.741
    7AU     LIG 3228  20.837   6.735   5.437
    7AU     LIG 3229  20.653   6.964   5.070
    7AU       S 3230  22.280   5.908   6.350
    7AU     LIG 3231  22.129   5.918   5.897
    7AU     LIG 3232  22.087   5.668   5.495
    7AU     LIG 3233  22.005   5.642   5.024
    7AU     LIG 3234  22.037   5.909   4.607
    7AU     LIG 3235  22.033   6.259   4.265
    7AU    AUSL 3236  23.420   6.314   7.513
    7AU    AUSL 3237  23.387   6.105   7.097
    7AU     AUL 3238  23.693   6.428   7.312
    7AU       S 3239  23.502   6.212   6.974
    7AU     LIG 3240  23.716   6.291   6.538
    7AU     LIG 3241  24.023   6.496   6.245
    7AU     LIG 3242  24.394   6.676   6.018
    7AU     LIG 3243  24.638   6.904   5.684
    7AU     LIG 3244  25.071   6.922   5.467
    7AU       S 3245  23.807   6.207   7.715
    7AU     LIG 3246  24.250   6.358   7.596
    7AU     LIG 3247  24.722   6.489   7.545
    7AU     LIG 3248  25.180   6.648   7.522
    7AU     LIG 3249  25.460   7.032   7.427
    7AU     LIG 3250  25.478   7.512   7.384
    7AU    AUSL 3251  23.623   5.906   7.401
    7AU    AUSL 3252  23.561   5.582   7.722
    7AU     AUL 3253  23.916   5.690   7.747
    7AU       S 3254  23.756   5.989   7.449
    7AU     LIG 3255  24.213   5.889   7.400
    7AU     LIG 3256  24.682   6.013   7.362
    7AU     LIG 3257  25.145   6.176   7.302
    7AU     LIG 3258  25.632   6.251   7.246
    7AU     LIG 3259  26.103   6.361   7.085
    7AU       S 3260  23.827   5.281   7.554
    7AU     LIG 3261  24.265   5.107   7.623
    7AU     LIG 3262  24.650   4.822   7.693
    7AU     LIG 3263  25.060   4.600   7.776
    7AU     LIG 3264  25.474   4.471   7.964
    7AU     LIG 3265  25.838   4.773   7.973
    7AU    AUSL 3266  23.323   5.941   7.730
    7AU    AUSL 3267  23.069   6.334   7.774
    7AU     AUL 3268  23.391   6.398   7.813
    7AU       S 3269  23.384   6.583   8.234
    7AU     LIG 3270  23.801   6.723   8.375
    7AU     LIG 3271  24.055   6.960   8.705
    7AU     LIG 3272  24.388   7.222   8.940
    7AU     LIG 3273  24.642   7.656   8.933
    7AU     LIG 3274  24.845   8.100   8.824
    7AU       S 3275  23.660   6.036   7.870
    7AU     LIG 3276  24.153   6.042   8.015
    7AU     LIG 3277  24.607   6.088   7.870
    7AU     LIG 3278  25.074   6.207   7.808
    7AU     LIG 3279  25.542   6.337   7.769
    7AU     LIG 3280  25.936   6.526   8.000
    7AU    AUSL 3281  21.964   6.382   7.530
    7AU    AUSL 3282  22.060   6.154   7.912
    7AU     AUL 3283  21.740   6.491   7.787
    7AU       S 3284  21.909   6.334   8.184
    7AU     LIG 3285  21.783   6.202   8.600
    7AU     LIG 3286  21.607   6.436   8.976
    7AU     LIG 3287  21.321   6.698   9.258
    7AU     LIG 3288  20.913   6.724   9.522
    7AU     LIG 3289  20.538   6.807   9.814
    7AU       S 3290  21.958   6.757   7.456
    7AU     LIG 3291  21.476   6.878   7.517
    7AU     LIG 3292  21.024   7.134   7.523
    7AU     LIG 3293  20.576   7.396   7.523
    7AU     LIG 3294  20.187   7.711   7.594
    7AU     LIG 3295  19.789   7.977   7.702
    7AU    AUSL 3296  21.930   5.986   7.334
    7AU    AUSL 3297  22.073   6.446   7.119
    7AU     AUL 3298  21.767   6.324   7.173
    7AU       S 3299  21.550   5.812   6.998
    7AU     LIG 3300  21.304   6.233   6.946
    7AU     LIG 3301  20.860   6.492   6.908
    7AU     LIG 3302  20.400   6.732   6.903
    7AU     LIG 3303  19.951   6.980   6.871
    7AU     LIG 3304  19.497   7.073   6.698
    7AU       S 3305  21.893   6.706   6.889
    7AU     LIG 3306  21.868   6.853   6.434
    7AU     LIG 3307  21.637   7.161   6.130
    7AU     LIG 3308  21.389   7.579   6.042
    7AU     LIG 3309  21.146   8.021   6.049
    7AU     LIG 3310  20.948   8.489   6.057
    7AU    AUSL 3311  21.695   6.042   7.722
    7AU    AUSL 3312  21.644   5.679   7.432
    7AU     AUL 3313  21.538   6.012   7.434
    7AU       S 3314  21.422   5.610   7.673
    7AU     LIG 3315  21.068   5.516   7.365
    7AU     LIG 3316  20.594   5.411   7.426
    7AU     LIG 3317  20.138   5.351   7.287
    7AU     LIG 3318  19.768   5.077   7.201
    7AU     LIG 3319  19.325   5.194   7.068
    7AU       S 3320  21.598   6.028   7.964
    7AU     LIG 3321  21.194   6.151   7.802
    7AU     LIG 3322  20.723   6.217   7.867
    7AU     LIG 3323  20.290   6.399   7.976
    7AU     LIG 3324  19.843   6.532   8.097
    7AU     LIG 3325  19.452   6.766   8.127
    7AU    AUSL 3326  23.357   5.224   7.548
    7AU    AUSL 3327  23.166   5.487   7.872
    7AU     AUL 3328  23.502   5.389   7.938
    7AU       S 3329  23.641   5.113   7.566
    7AU     LIG 3330  23.914   4.754   7.487
    7AU     LIG 3331  24.296   4.487   7.517
    7AU     LIG 3332  24.743   4.345   7.450
    7AU     LIG 3333  25.224   4.274   7.415
    7AU     LIG 3334  25.634   4.091   7.590
    7AU       S 3335  23.395   4.953   7.993
    7AU     LIG 3336  23.610   4.631   8.308
    7AU     LIG 3337  23.824   4.394   8.652
    7AU     LIG 3338  24.048   4.147   8.989
    7AU     LIG 3339  24.419   4.147   9.288
    7AU     LIG 3340  24.747   4.253   9.621
    7AU    AUSL 3341  23.327   5.605   7.328
    7AU    AUSL 3342  23.223   5.123   7.145
    7AU     AUL 3343  23.490   5.281   7.162
    7AU       S 3344  23.845   5.471   7.344
    7AU     LIG 3345  24.079   5.107   7.142
    7AU     LIG 3346  24.491   4.849   7.205
    7AU     LIG 3347  24.979   4.760   7.263
    7AU     LIG 3348  25.431   4.761   7.068
    7AU     LIG 3349  25.940   4.749   7.100
    7AU       S 3350  23.422   4.973   6.814
    7AU     LIG 3351  23.469   4.525   6.748
    7AU     LIG 3352  23.616   4.126   6.555
    7AU     LIG 3353  23.941   3.885   6.327
    7AU     LIG 3354  24.259   3.528   6.362
    7AU     LIG 3355  24.639   3.236   6.398
    7AU    AUSL 3356  21.822   5.300   7.591
    7AU    AUSL 3357  21.958   5.524   7.182
    7AU     AUL 3358  21.605   5.388   7.293
    7AU       S 3359  21.810   5.320   6.890
    7AU     LIG 3360  21.427   5.040   6.709
    7AU     LIG 3361  21.068   4.773   6.525
    7AU     LIG 3362  20.712   4.571   6.279
    7AU     LIG 3363  20.495   4.314   5.960
    7AU     LIG 3364  20.522   4.115   5.548
    7AU       S 3365  21.390   5.335   7.714
    7AU     LIG 3366  21.236   5.030   7.402
    7AU     LIG 3367  20.777   4.933   7.309
    7AU     LIG 3368  20.301   4.881   7.421
    7AU     LIG 3369  19.905   4.607   7.453
    7AU     LIG 3370  19.546   4.315   7.590
    7AU    AUSL 3371  21.936   5.694   7.771
    7AU    AUSL 3372  22.170   5.293   7.844
    7AU     AUL 3373  21.795   5.375   7.934
    7AU       S 3374  21.892   5.028   8.211
    7AU     LIG 3375  21.527   4.740   8.109
    7AU     LIG 3376  21.156   4.427   8.188
    7AU     LIG 3377  20.900   4.086   8.431
    7AU     LIG 3378  20.623   3.755   8.664
    7AU     LIG 3379  20.444   3.319   8.804
    7AU       S 3380  21.409   5.612   7.840
    7AU     LIG 3381  20.914   5.721   7.800
    7AU     LIG 3382  20.426   5.806   7.724
    7AU     LIG 3383  20.031   5.549   7.743
    7AU     LIG 3384  19.890   5.100   7.697
    7AU     LIG 3385  19.537   4.798   7.779
    7AU    AUSL 3386  22.659   6.514   7.882
    7AU    AUSL 3387  22.218   6.554   7.844
    7AU     AUL 3388  22.478   6.618   8.182
    7AU       S 3389  22.091   6.763   7.959
    7AU     LIG 3390  21.864   7.020   8.296
    7AU     LIG 3391  21.750   7.356   8.631
    7AU     LIG 3392  21.650   7.839   8.722
    7AU     LIG 3393  21.331   8.197   8.834
    7AU     LIG 3394  20.962   8.527   8.897
    7AU       S 3395  22.663   6.961   7.925
    7AU     LIG 3396  22.761   7.069   8.329
    7AU     LIG 3397  22.747   7.488   8.536
    7AU     LIG 3398  22.657   7.917   8.715
    7AU     LIG 3399  22.701   8.222   9.060
    7AU     LIG 3400  22.667   8.682   9.092
    7AU    AUSL 3401  22.463   6.753   7.554
    7AU    AUSL 3402  22.807   6.698   7.161
    7AU     AUL 3403  22.531   6.950   7.289
    7AU       S 3404  22.519   6.980   7.764
    7AU     LIG 3405  22.618   7.446   7.984
    7AU     LIG 3406  22.632   7.870   8.200
    7AU     LIG 3407  22.613   8.316   8.372
    7AU     LIG 3408  22.237   8.597   8.325
    7AU     LIG 3409  22.094   8.987   8.084
    7AU       S 3410  22.761   6.981   6.884
    7AU     LIG 3411  23.119   7.221   6.778
    7AU     LIG 3412  23.112   7.670   6.661
    7AU     LIG 3413  23.078   8.142   6.679
    7AU     LIG 3414  23.207   8.607   6.677
    7AU     LIG 3415  23.383   9.066   6.669
    7AU    AUSL 3416  22.926   6.688   7.579
    7AU    AUSL 3417  22.926   6.402   8.197
    7AU     AUL 3418  23.011   6.663   7.956
    7AU       S 3419  23.168   6.503   8.398
    7AU     LIG 3420  23.531   6.474   8.731
    7AU     LIG 3421  23.814   6.659   9.057
    7AU     LIG 3422  24.057   6.990   9.291
    7AU     LIG 3423  24.086   7.252   9.691
    7AU     LIG 3424  24.132   7.591  10.029
    7AU       S 3425  22.872   6.989   7.641
    7AU     LIG 3426  23.098   7.225   7.968
    7AU     LIG 3427  23.096   7.637   8.188
    7AU     LIG 3428  23.072   8.070   8.393
    7AU     LIG 3429  23.180   8.542   8.388
    7AU     LIG 3430  23.439   8.961   8.349
    7AU    AUSL 3431  22.592   5.146   7.914
    7AU    AUSL 3432  23.010   5.091   7.766
    7AU     AUL 3433  22.798   4.977   8.142
    7AU       S 3434  22.596   4.592   8.003
    7AU     LIG 3435  22.582   4.252   8.282
    7AU     LIG 3436  22.260   3.967   8.424
    7AU     LIG 3437  22.186   3.529   8.491
    7AU     LIG 3438  22.341   3.126   8.647
    7AU     LIG 3439  22.359   2.665   8.740
    7AU       S 3440  23.162   4.882   7.836
    7AU     LIG 3441  23.149   4.439   8.070
    7AU     LIG 3442  23.442   4.147   8.370
    7AU     LIG 3443  23.797   3.876   8.596
    7AU     LIG 3444  24.066   3.492   8.741
    7AU     LIG 3445  24.423   3.168   8.743
    7AU    AUSL 3446  22.273   4.925   7.664
    7AU    AUSL 3447  22.349   5.227   8.257
    7AU     AUL 3448  22.298   4.958   8.017
    7AU       S 3449  22.399   4.528   7.869
    7AU     LIG 3450  22.210   4.129   7.925
    7AU     LIG 3451  22.034   3.709   8.024
    7AU     LIG 3452  21.987   3.252   8.097
    7AU     LIG 3453  22.109   2.850   8.277
    7AU     LIG 3454  22.010   2.438   8.440
    7AU       S 3455  22.097   5.117   8.425
    7AU     LIG 3456  21.678   4.866   8.613
    7AU     LIG 3457  21.417   4.483   8.624
    7AU     LIG 3458  21.158   4.176   8.874
    7AU     LIG 3459  20.917   4.011   9.247
    7AU     LIG 3460  20.908   3.912   9.717
    7AU    AUSL 3461  22.704   4.834   7.613
    7AU    AUSL 3462  22.443   4.952   7.257
    7AU     AUL 3463  22.335   4.692   7.442
    7AU       S 3464  22.674   4.681   7.130
    7AU     LIG 3465  22.266   4.435   7.030
    7AU     LIG 3466  22.126   3.997   7.026
    7AU     LIG 3467  22.094   3.536   6.899
    7AU     LIG 3468  22.099   3.074   6.731
    7AU     LIG 3469  22.106   2.605   6.690
    7AU       S 3470  22.715   4.641   7.756
    7AU     LIG 3471  22.726   4.144   7.797
    7AU     LIG 3472  22.555   3.753   8.049
    7AU     LIG 3473  22.504   3.276   8.168
    7AU     LIG 3474  22.635   2.828   8.326
    7AU     LIG 3475  22.883   2.433   8.484
    7AU    AUSL 3476  22.629   6.440   6.839
    7AU    AUSL 3477  23.080   6.380   7.255
    7AU     AUL 3478  22.958   6.573   6.851
    7AU       S 3479  22.574   6.698   6.612
    7AU     LIG 3480  22.924   6.925   6.408
    7AU     LIG 3481  23.014   7.359   6.246
    7AU     LIG 3482  22.984   7.669   5.870
    7AU     LIG 3483  22.986   8.095   5.649
    7AU     LIG 3484  22.796   8.479   5.460
    7AU       S 3485  23.304   6.601   7.145
    7AU     LIG 3486  23.706   6.874   6.975
    7AU     LIG 3487  23.969   6.900   6.575
    7AU     LIG 3488  24.215   7.122   6.225
    7AU     LIG 3489  24.518   7.465   6.049
    7AU     LIG 3490  24.801   7.861   5.971
    7AU    AUSL 3491  22.473   6.439   7.273
    7AU    AUSL 3492  22.352   6.143   6.959
    7AU     AUL 3493  22.329   6.598   7.010
    7AU       S 3494  22.559   6.927   6.805
    7AU     LIG 3495  22.644   7.392   6.630
    7AU     LIG 3496  22.619   7.870   6.712
    7AU     LIG 3497  22.590   8.340   6.676
    7AU     LIG 3498  22.290   8.702   6.711
    7AU     LIG 3499  22.007   9.079   6.692
    7AU       S 3500  22.151   6.401   6.636
    7AU     LIG 3501  22.029   6.412   6.193
    7AU     LIG 3502  21.883   6.752   5.903
    7AU     LIG 3503  21.641   7.028   5.605
    7AU     LIG 3504  21.608   7.301   5.212
    7AU     LIG 3505  21.429   7.668   4.970
    7AU    AUSL 3506  22.648   5.085   6.882
    7AU    AUSL 3507  22.042   5.096   7.281
    7AU     AUL 3508  22.287   4.941   6.957
    7AU       S 3509  21.851   5.038   7.104
    7AU     LIG 3510  21.526   4.702   7.076
    7AU     LIG 3511  21.188   4.420   6.880
    7AU     LIG 3512  20.903   4.187   6.558
    7AU     LIG 3513  20.489   3.976   6.368
    7AU     LIG 3514  20.158   3.602   6.364
    7AU       S 3515  22.693   4.676   6.895
    7AU     LIG 3516  22.645   4.232   6.754
    7AU     LIG 3517  22.388   3.869   6.596
    7AU     LIG 3518  22.329   3.433   6.441
    7AU     LIG 3519  22.222   3.039   6.191
    7AU     LIG 3520  22.223   2.788   5.774
    7AU    AUSL 3521  22.837   5.112   7.313
    7AU    AUSL 3522  22.922   5.405   6.971
    7AU     AUL 3523  22.977   5.040   6.928
    7AU       S 3524  22.896   4.687   7.216
    7AU     LIG 3525  22.692   4.212   7.270
    7AU     LIG 3526  22.589   3.770   7.060
    7AU     LIG 3527  22.542   3.294   6.912
    7AU     LIG 3528  22.543   2.798   6.911
    7AU     LIG 3529  22.894   2.470   6.863
    7AU       S 3530  23.206   5.193   6.568
    7AU     LIG 3531  23.079   4.760   6.497
    7AU     LIG 3532  23.300   4.414   6.263
    7AU     LIG 3533  23.559   4.092   6.020
    7AU     LIG 3534  23.755   3.914   5.620
    7AU     LIG 3535  23.971   3.760   5.224
    8AU     AUC 3536   3.814   2.490   7.505
    8AU     AUC 3537   4.102   2.492   7.336
    8AU     AUC 3538   4.074   2.487   7.672
    8AU     AUC 3539   3.539   2.479   7.346
    8AU     AUC 3540   3.557   2.523   7.697
    8AU     AUC 3541   3.638   2.755   7.513
    8AU     AUC 3542   3.994   2.757   7.491
    8AU     AUC 3543   3.625   2.219   7.508
    8AU     AUC 3544   3.979   2.219   7.510
    8AU     AUC 3545   3.820   2.321   7.775
    8AU     AUC 3546   3.806   2.678   7.762
    8AU     AUC 3547   3.806   2.327   7.237
    8AU     AUC 3548   3.843   2.640   7.226
    8AU     AUC 3549   4.432   2.488   7.181
    8AU     AUC 3550   4.432   2.478   7.521
    8AU     AUC 3551   4.372   2.473   7.868
    8AU     AUC 3552   3.222   2.498   7.184
    8AU     AUC 3553   3.204   2.531   7.545
    8AU     AUC 3554   3.260   2.555   7.898
    8AU     AUC 3555   3.481   3.076   7.496
    8AU     AUC 3556   3.835   3.103   7.438
    8AU     AUC 3557   4.164   3.055   7.465
    8AU     AUC 3558   3.419   1.934   7.508
    8AU     AUC 3559   3.757   1.880   7.471
    8AU     AUC 3560   4.147   1.902   7.487
    8AU     AUC 3561   3.809   2.137   8.072
    8AU     AUC 3562   3.830   2.493   8.106
    8AU     AUC 3563   3.840   2.851   8.051
    8AU     AUC 3564   3.835   2.158   6.954
    8AU     AUC 3565   3.822   2.478   6.894
    8AU     AUC 3566   3.831   2.797   6.915
    8AU     AUC 3567   4.103   2.267   7.996
    8AU     AUC 3568   4.120   2.663   7.988
    8AU     AUC 3569   4.150   2.320   7.019
    8AU     AUC 3570   4.151   2.663   7.032
    8AU     AUC 3571   3.518   2.354   8.023
    8AU     AUC 3572   3.540   2.718   8.010
    8AU     AUC 3573   3.506   2.313   7.057
    8AU     AUC 3574   3.492   2.632   7.008
    8AU     AUC 3575   4.351   2.772   7.332
    8AU     AUC 3576   4.283   2.767   7.691
    8AU     AUC 3577   3.331   2.801   7.352
    8AU     AUC 3578   3.339   2.850   7.714
    8AU     AUC 3579   4.318   2.182   7.351
    8AU     AUC 3580   4.274   2.154   7.680
    8AU     AUC 3581   3.280   2.194   7.370
    8AU     AUC 3582   3.346   2.239   7.716
    8AU     AUC 3583   3.645   3.014   7.769
    8AU     AUC 3584   3.991   2.979   7.762
    8AU     AUC 3585   3.605   2.030   7.790
    8AU     AUC 3586   3.946   1.975   7.771
    8AU     AUC 3587   3.653   2.903   7.191
    8AU     AUC 3588   4.051   2.932   7.147
    8AU     AUC 3589   3.606   2.008   7.218
    8AU     AUC 3590   3.993   2.039   7.217
    8AU    AUSL 3591   4.398   2.419   8.224
    8AU    AUSL 3592   4.114   1.949   8.173
    8AU     AUL 3593   4.440   2.005   8.332
    8AU       S 3594   4.432   1.598   8.115
    8AU     LIG 3595   4.301   1.429   8.475
    8AU     LIG 3596   4.466   1.172   8.804
    8AU     LIG 3597   4.687   0.855   9.049
    8AU     LIG 3598   4.865   0.649   9.429
    8AU     LIG 3599   4.751   0.407   9.834
    8AU       S 3600   4.617   2.426   8.354
    8AU     LIG 3601   4.501   2.469   8.813
    8AU     LIG 3602   4.604   2.372   9.264
    8AU     LIG 3603   4.981   2.286   9.559
    8AU     LIG 3604   5.378   2.199   9.817
    8AU     LIG 3605   5.726   2.306  10.126
    8AU    AUSL 3606   4.003   2.304   8.402
    8AU    AUSL 3607   3.720   2.662   8.454
    8AU     AUL 3608   3.939   2.598   8.749
    8AU       S 3609   4.132   2.232   8.569
    8AU     LIG 3610   4.069   2.176   9.016
    8AU     LIG 3611   4.255   1.971   9.410
    8AU     LIG 3612   4.297   1.730   9.835
    8AU     LIG 3613   4.379   1.682  10.309
    8AU     LIG 3614   4.388   1.633  10.789
    8AU       S 3615   3.544   2.391   8.678
    8AU     LIG 3616   3.538   2.273   9.152
    8AU     LIG 3617   3.216   2.328   9.508
    8AU     LIG 3618   3.039   2.345   9.944
    8AU     LIG 3619   2.958   2.590  10.347
    8AU     LIG 3620   2.863   2.937  10.668
    8AU    AUSL 3621   4.026   2.684   8.157
    8AU    AUSL 3622   4.456   2.837   8.107
    8AU     AUL 3623   4.272   2.720   8.436
    8AU       S 3624   3.928   3.051   8.604
    8AU     LIG 3625   4.278   2.935   8.910
    8AU     LIG 3626   4.477   2.954   9.353
    8AU     LIG 3627   4.421   3.080   9.832
    8AU     LIG 3628   4.436   3.235  10.296
    8AU     LIG 3629   4.462   3.261  10.771
    8AU       S 3630   4.599   3.010   8.267
    8AU     LIG 3631   4.953   2.849   8.409
    8AU     LIG 3632   5.279   3.060   8.661
    8AU     LIG 3633   5.535   3.296   8.980
    8AU     LIG 3634   5.758   3.524   9.324
    8AU     LIG 3635   6.073   3.451   9.682
    8AU    AUSL 3636   4.320   2.528   6.881
    8AU    AUSL 3637   4.238   2.965   6.832
    8AU     AUL 3638   4.453   2.823   6.617
    8AU       S 3639   4.197   2.638   6.305
    8AU     LIG 3640   4.679   2.590   6.179
    8AU     LIG 3641   4.813   2.323   5.814
    8AU     LIG 3642   4.908   2.135   5.398
    8AU     LIG 3643   5.028   2.101   4.946
    8AU     LIG 3644   5.422   2.017   4.668
    8AU       S 3645   4.612   3.198   6.869
    8AU     LIG 3646   4.746   3.381   6.475
    8AU     LIG 3647   5.013   3.576   6.120
    8AU     LIG 3648   5.307   3.745   5.781
    8AU     LIG 3649   5.496   3.823   5.359
    8AU     LIG 3650   5.397   4.090   4.995
    8AU    AUSL 3651   4.113   2.269   6.583
    8AU    AUSL 3652   4.555   2.168   6.920
    8AU     AUL 3653   4.497   2.351   6.644
    8AU       S 3654   4.631   1.896   6.683
    8AU     LIG 3655   4.735   1.620   6.304
    8AU     LIG 3656   5.004   1.266   6.216
    8AU     LIG 3657   5.325   0.971   6.083
    8AU     LIG 3658   5.769   0.975   5.913
    8AU     LIG 3659   5.998   1.004   5.503
    8AU       S 3660   4.231   2.445   6.275
    8AU     LIG 3661   4.434   2.096   6.089
    8AU     LIG 3662   4.525   1.904   5.663
    8AU     LIG 3663   4.527   1.848   5.182
    8AU     LIG 3664   4.562   1.827   4.707
    8AU     LIG 3665   4.620   1.710   4.242
    8AU    AUSL 3666   3.939   2.665   6.721
    8AU    AUSL 3667   3.700   2.281   6.729
    8AU     AUL 3668   3.827   2.315   6.439
    8AU       S 3669   3.377   2.326   6.303
    8AU     LIG 3670   3.281   2.119   5.923
    8AU     LIG 3671   3.000   1.932   5.623
    8AU     LIG 3672   2.958   1.835   5.179
    8AU     LIG 3673   2.845   1.815   4.731
    8AU     LIG 3674   2.813   1.554   4.333
    8AU       S 3675   4.005   2.756   6.424
    8AU     LIG 3676   3.895   2.557   5.933
    8AU     LIG 3677   4.282   2.381   5.646
    8AU     LIG 3678   4.495   2.367   5.193
    8AU     LIG 3679   4.607   2.488   4.732
    8AU     LIG 3680   4.785   2.814   4.425
    8AU    AUSL 3681   3.311   2.605   8.295
    8AU    AUSL 3682   3.591   2.952   8.156
    8AU     AUL 3683   3.473   2.888   8.492
    8AU       S 3684   3.363   2.510   8.754
    8AU     LIG 3685   3.029   2.358   9.019
    8AU     LIG 3686   2.758   2.143   9.319
    8AU     LIG 3687   2.604   2.161   9.741
    8AU     LIG 3688   2.384   2.049  10.122
    8AU     LIG 3689   2.076   2.175  10.438
    8AU       S 3690   3.182   3.194   8.294
    8AU     LIG 3691   2.993   3.284   8.692
    8AU     LIG 3692   2.792   3.520   9.038
    8AU     LIG 3693   2.887   3.792   9.412
    8AU     LIG 3694   2.820   4.107   9.759
    8AU     LIG 3695   2.564   4.349  10.073
    8AU    AUSL 3696   3.623   2.311   8.190
    8AU    AUSL 3697   3.161   2.227   8.129
    8AU     AUL 3698   3.187   2.318   8.376
    8AU       S 3699   2.998   1.889   8.277
    8AU     LIG 3700   2.562   1.900   8.193
    8AU     LIG 3701   2.293   1.544   8.328
    8AU     LIG 3702   2.034   1.244   8.605
    8AU     LIG 3703   1.753   0.908   8.811
    8AU     LIG 3704   1.342   0.847   9.053
    8AU       S 3705   3.587   2.213   8.592
    8AU     LIG 3706   3.288   1.967   8.815
    8AU     LIG 3707   3.193   1.879   9.251
    8AU     LIG 3708   3.030   1.869   9.691
    8AU     LIG 3709   2.775   1.710  10.055
    8AU     LIG 3710   2.608   1.760  10.498
    8AU    AUSL 3711   3.290   2.412   6.810
    8AU    AUSL 3712   3.487   2.013   6.987
    8AU     AUL 3713   3.474   2.037   6.652
    8AU       S 3714   3.156   2.268   6.410
    8AU     LIG 3715   2.865   2.510   6.197
    8AU     LIG 3716   2.757   2.382   5.770
    8AU     LIG 3717   2.660   2.232   5.338
    8AU     LIG 3718   2.448   2.076   4.943
    8AU     LIG 3719   2.173   1.958   4.561
    8AU       S 3720   3.073   1.873   6.819
    8AU     LIG 3721   2.810   1.542   6.644
    8AU     LIG 3722   2.568   1.180   6.474
    8AU     LIG 3723   2.350   0.941   6.131
    8AU     LIG 3724   2.296   0.778   5.681
    8AU     LIG 3725   2.328   0.526   5.271
    8AU    AUSL 3726   3.540   2.691   6.564
    8AU    AUSL 3727   3.095   2.801   6.934
    8AU     AUL 3728   3.160   2.663   6.633
    8AU       S 3729   2.959   3.060   6.728
    8AU     LIG 3730   2.746   3.013   6.334
    8AU     LIG 3731   2.576   3.305   6.027
    8AU     LIG 3732   2.292   3.474   5.701
    8AU     LIG 3733   1.939   3.514   5.372
    8AU     LIG 3734   1.576   3.709   5.119
    8AU       S 3735   3.452   2.576   6.276
    8AU     LIG 3736   3.237   2.621   5.860
    8AU     LIG 3737   3.158   2.387   5.439
    8AU     LIG 3738   3.027   2.311   4.977
    8AU     LIG 3739   2.999   2.494   4.533
    8AU     LIG 3740   3.007   2.746   4.115
    8AU    AUSL 3741   4.604   3.009   7.514
    8AU    AUSL 3742   4.575   2.796   7.104
    8AU     AUL 3743   4.881   3.126   7.322
    8AU       S 3744   4.691   2.898   6.992
    8AU     LIG 3745   4.947   2.902   6.613
    8AU     LIG 3746   5.195   3.134   6.311
    8AU     LIG 3747   5.490   3.322   6.012
    8AU     LIG 3748   5.749   3.466   5.649
    8AU     LIG 3749   6.114   3.690   5.461
    8AU       S 3750   4.992   2.901   7.725
    8AU     LIG 3751   5.441   3.022   7.615
    8AU     LIG 3752   5.933   3.096   7.590
    8AU     LIG 3753   6.365   3.317   7.492
    8AU     LIG 3754   6.631   3.746   7.443
    8AU     LIG 3755   6.881   4.148   7.549
    8AU    AUSL 3756   4.810   2.600   7.409
    8AU    AUSL 3757   4.742   2.276   7.725
    8AU     AUL 3758   5.095   2.381   7.755
    8AU       S 3759   4.945   2.687   7.459
    8AU     LIG 3760   5.395   2.559   7.406
    8AU     LIG 3761   5.866   2.633   7.373
    8AU     LIG 3762   6.318   2.783   7.363
    8AU     LIG 3763   6.777   2.865   7.313
    8AU     LIG 3764   7.003   3.219   7.089
    8AU       S 3765   5.006   1.981   7.545
    8AU     LIG 3766   5.435   1.816   7.582
    8AU     LIG 3767   5.828   1.558   7.640
    8AU     LIG 3768   6.231   1.338   7.683
    8AU     LIG 3769   6.695   1.333   7.737
    8AU     LIG 3770   7.132   1.510   7.870
    8AU    AUSL 3771   4.509   2.638   7.735
    8AU    AUSL 3772   4.250   3.037   7.769
    8AU     AUL 3773   4.575   3.098   7.808
    8AU       S 3774   4.556   3.301   8.223
    8AU     LIG 3775   4.984   3.373   8.361
    8AU     LIG 3776   5.238   3.594   8.686
    8AU     LIG 3777   5.587   3.822   8.906
    8AU     LIG 3778   5.806   4.232   8.976
    8AU     LIG 3779   6.028   4.652   8.949
    8AU       S 3780   4.840   2.731   7.875
    8AU     LIG 3781   5.308   2.724   8.050
    8AU     LIG 3782   5.727   2.673   7.867
    8AU     LIG 3783   6.186   2.709   7.849
    8AU     LIG 3784   6.584   2.933   7.789
    8AU     LIG 3785   6.964   3.178   7.885
    8AU    AUSL 3786   3.152   3.073   7.551
    8AU    AUSL 3787   3.214   2.837   7.944
    8AU     AUL 3788   2.908   3.175   7.822
    8AU       S 3789   3.066   2.978   8.203
    8AU     LIG 3790   2.656   3.117   8.329
    8AU     LIG 3791   2.471   3.211   8.746
    8AU     LIG 3792   2.237   3.331   9.127
    8AU     LIG 3793   1.890   3.457   9.429
    8AU     LIG 3794   1.525   3.523   9.733
    8AU       S 3795   3.112   3.443   7.492
    8AU     LIG 3796   2.604   3.426   7.503
    8AU     LIG 3797   2.214   3.748   7.539
    8AU     LIG 3798   1.803   4.047   7.560
    8AU     LIG 3799   1.392   4.352   7.578
    8AU     LIG 3800   0.930   4.465   7.691
    8AU    AUSL 3801   3.130   2.683   7.339
    8AU    AUSL 3802   3.279   3.159   7.147
    8AU     AUL 3803   2.962   3.050   7.213
    8AU       S 3804   2.778   2.475   6.946
    8AU     LIG 3805   2.523   2.856   6.784
    8AU     LIG 3806   2.078   2.965   6.829
    8AU     LIG 3807   1.600   2.992   6.775
    8AU     LIG 3808   1.132   3.021   6.712
    8AU     LIG 3809   0.833   3.251   6.982
    8AU       S 3810   3.112   3.446   6.945
    8AU     LIG 3811   2.967   3.492   6.468
    8AU     LIG 3812   2.779   3.773   6.150
    8AU     LIG 3813   2.671   4.193   5.950
    8AU     LIG 3814   2.537   4.658   6.008
    8AU     LIG 3815   2.202   4.988   6.077
    8AU    AUSL 3816   2.868   2.736   7.708
    8AU    AUSL 3817   2.828   2.382   7.405
    8AU     AUL 3818   2.731   2.690   7.390
    8AU       S 3819   2.562   2.302   7.622
    8AU     LIG 3820   2.245   2.120   7.342
    8AU     LIG 3821   1.834   1.929   7.426
    8AU     LIG 3822   1.393   1.756   7.396
    8AU     LIG 3823   0.954   1.805   7.231
    8AU     LIG 3824   0.480   1.786   7.172
    8AU       S 3825   2.745   2.697   7.914
    8AU     LIG 3826   2.404   3.028   7.878
    8AU     LIG 3827   2.048   3.281   8.117
    8AU     LIG 3828   1.535   3.216   8.172
    8AU     LIG 3829   1.063   3.358   8.060
    8AU     LIG 3830   0.606   3.487   8.187
    8AU    AUSL 3831   4.539   1.918   7.549
    8AU    AUSL 3832   4.347   2.180   7.876
    8AU     AUL 3833   4.690   2.082   7.929
    8AU       S 3834   4.829   1.806   7.566
    8AU     LIG 3835   5.081   1.449   7.479
    8AU     LIG 3836   5.461   1.204   7.535
    8AU     LIG 3837   5.876   1.070   7.388
    8AU     LIG 3838   6.316   0.933   7.382
    8AU     LIG 3839   6.618   0.604   7.479
    8AU       S 3840   4.572   1.648   7.986
    8AU     LIG 3841   4.806   1.354   8.313
    8AU     LIG 3842   4.969   1.121   8.685
    8AU     LIG 3843   5.201   0.860   9.008
    8AU     LIG 3844   5.527   0.875   9.353
    8AU     LIG 3845   5.898   0.898   9.656
    8AU    AUSL 3846   4.518   2.298   7.326
    8AU    AUSL 3847   4.405   1.811   7.147
    8AU     AUL 3848   4.672   1.962   7.161
    8AU       S 3849   5.020   2.169   7.344
    8AU     LIG 3850   5.202   1.797   7.115
    8AU     LIG 3851   5.608   1.536   7.166
    8AU     LIG 3852   6.092   1.493   7.197
    8AU     LIG 3853   6.542   1.382   7.235
    8AU     LIG 3854   6.973   1.462   7.044
    8AU       S 3855   4.607   1.657   6.807
    8AU     LIG 3856   4.743   1.236   6.674
    8AU     LIG 3857   4.906   0.829   6.469
    8AU     LIG 3858   5.179   0.493   6.257
    8AU     LIG 3859   5.432   0.076   6.195
    8AU     LIG 3860   5.654  44.743   5.917
    8AU    AUSL 3861   2.994   2.003   7.580
    8AU    AUSL 3862   3.153   2.228   7.172
    8AU     AUL 3863   2.797   2.092   7.272
    8AU       S 3864   3.017   2.036   6.875
    8AU     LIG 3865   2.562   1.968   6.851
    8AU     LIG 3866   2.293   1.623   6.685
    8AU     LIG 3867   2.071   1.290   6.431
    8AU     LIG 3868   1.888   1.150   6.015
    8AU     LIG 3869   1.594   1.246   5.656
    8AU       S 3870   2.594   1.984   7.682
    8AU     LIG 3871   2.304   1.654   7.550
    8AU     LIG 3872   1.947   1.419   7.339
    8AU     LIG 3873   1.495   1.230   7.390
    8AU     LIG 3874   1.058   1.152   7.558
    8AU     LIG 3875   0.670   0.927   7.393
    8AU    AUSL 3876   3.127   2.400   7.738
    8AU    AUSL 3877   3.350   1.996   7.817
    8AU     AUL 3878   2.947   2.170   7.914
    8AU       S 3879   3.038   1.734   8.026
    8AU     LIG 3880   2.660   1.483   7.917
    8AU     LIG 3881   2.407   1.108   8.082
    8AU     LIG 3882   2.140   0.803   8.361
    8AU     LIG 3883   1.954   0.455   8.649
    8AU     LIG 3884   1.683   0.050   8.633
    8AU       S 3885   2.538   2.280   7.764
    8AU     LIG 3886   2.127   2.079   7.847
    8AU     LIG 3887   1.709   2.270   7.811
    8AU     LIG 3888   1.258   2.190   7.650
    8AU     LIG 3889   0.840   1.933   7.716
    8AU     LIG 3890   0.570   1.608   7.994
    8AU    AUSL 3891   3.825   3.196   7.885
    8AU    AUSL 3892   3.384   3.237   7.882
    8AU     AUL 3893   3.647   3.282   8.206
    8AU       S 3894   3.251   3.441   8.010
    8AU     LIG 3895   2.884   3.598   8.287
    8AU     LIG 3896   2.760   3.891   8.655
    8AU     LIG 3897   2.663   4.361   8.803
    8AU     LIG 3898   2.448   4.809   8.815
    8AU     LIG 3899   2.039   5.051   8.887
    8AU       S 3900   3.806   3.622   7.933
    8AU     LIG 3901   3.997   3.666   8.315
    8AU     LIG 3902   4.071   4.096   8.478
    8AU     LIG 3903   4.169   4.544   8.609
    8AU     LIG 3904   4.162   4.820   9.007
    8AU     LIG 3905   4.079   4.946   9.468
    8AU    AUSL 3906   3.600   3.425   7.560
    8AU    AUSL 3907   4.006   3.396   7.145
    8AU     AUL 3908   3.702   3.624   7.290
    8AU       S 3909   3.659   3.659   7.766
    8AU     LIG 3910   3.807   4.105   8.009
    8AU     LIG 3911   3.797   4.540   8.218
    8AU     LIG 3912   3.477   4.932   8.249
    8AU     LIG 3913   3.229   5.352   8.355
    8AU     LIG 3914   3.361   5.758   8.568
    8AU       S 3915   3.962   3.668   6.903
    8AU     LIG 3916   4.339   3.906   6.844
    8AU     LIG 3917   4.438   4.368   6.794
    8AU     LIG 3918   4.664   4.794   6.843
    8AU     LIG 3919   4.726   5.237   6.687
    8AU     LIG 3920   4.580   5.676   6.651
    8AU    AUSL 3921   4.071   3.376   7.573
    8AU    AUSL 3922   4.107   3.104   8.191
    8AU     AUL 3923   4.185   3.360   7.941
    8AU       S 3924   4.338   3.216   8.389
    8AU     LIG 3925   4.689   3.173   8.730
    8AU     LIG 3926   5.005   3.296   9.040
    8AU     LIG 3927   5.243   3.640   9.244
    8AU     LIG 3928   5.287   4.004   9.540
    8AU     LIG 3929   5.149   4.318   9.879
    8AU       S 3930   4.002   3.687   7.660
    8AU     LIG 3931   4.277   3.915   7.965
    8AU     LIG 3932   4.315   4.373   8.122
    8AU     LIG 3933   4.474   4.825   8.211
    8AU     LIG 3934   4.557   5.299   8.127
    8AU     LIG 3935   4.535   5.761   8.254
    8AU    AUSL 3936   3.769   1.848   7.921
    8AU    AUSL 3937   4.187   1.789   7.763
    8AU     AUL 3938   3.975   1.667   8.139
    8AU       S 3939   3.773   1.282   7.996
    8AU     LIG 3940   3.699   1.041   8.334
    8AU     LIG 3941   3.433   0.707   8.471
    8AU     LIG 3942   3.429   0.264   8.500
    8AU     LIG 3943   3.466  44.825   8.586
    8AU     LIG 3944   3.641  44.552   8.915
    8AU       S 3945   4.336   1.572   7.826
    8AU     LIG 3946   4.294   1.133   8.047
    8AU     LIG 3947   4.571   0.896   8.379
    8AU     LIG 3948   4.888   0.617   8.629
    8AU     LIG 3949   5.124   0.238   8.811
    8AU     LIG 3950   5.362  44.859   8.989
    8AU    AUSL 3951   3.448   1.616   7.665
    8AU    AUSL 3952   3.485   1.912   8.240
    8AU     AUL 3953   3.486   1.649   8.013
    8AU       S 3954   3.571   1.219   7.854
    8AU     LIG 3955   3.357   0.854   7.977
    8AU     LIG 3956   3.188   0.429   8.077
    8AU     LIG 3957   3.227  44.955   8.131
    8AU     LIG 3958   3.163  44.479   8.154
    8AU     LIG 3959   2.881  44.095   8.001
    8AU       S 3960   3.198   1.787   8.358
    8AU     LIG 3961   2.827   1.444   8.409
    8AU     LIG 3962   2.534   1.122   8.581
    8AU     LIG 3963   2.272   0.844   8.856
    8AU     LIG 3964   2.076   0.713   9.252
    8AU     LIG 3965   2.185   0.667   9.718
    8AU    AUSL 3966   3.878   1.535   7.616
    8AU    AUSL 3967   3.623   1.659   7.259
    8AU     AUL 3968   3.511   1.396   7.432
    8AU       S 3969   3.863   1.379   7.135
    8AU     LIG 3970   3.503   1.063   7.072
    8AU     LIG 3971   3.272   0.662   7.007
    8AU     LIG 3972   3.248   0.211   6.879
    8AU     LIG 3973   3.258  44.747   6.745
    8AU     LIG 3974   3.029  44.301   6.747
    8AU       S 3975   3.888   1.331   7.748
    8AU     LIG 3976   3.897   0.832   7.850
    8AU     LIG 3977   3.707   0.475   8.084
    8AU     LIG 3978   3.737   0.012   8.167
    8AU     LIG 3979   3.691  44.544   8.218
    8AU     LIG 3980   3.864  44.129   8.364
    8AU    AUSL 3981   3.828   3.121   6.836
    8AU    AUSL 3982   4.263   3.071   7.256
    8AU     AUL 3983   4.154   3.260   6.840
    8AU       S 3984   3.779   3.407   6.601
    8AU     LIG 3985   4.123   3.683   6.426
    8AU     LIG 3986   4.273   4.126   6.358
    8AU     LIG 3987   4.219   4.536   6.150
    8AU     LIG 3988   4.227   4.785   5.751
    8AU     LIG 3989   4.019   5.016   5.400
    8AU       S 3990   4.494   3.291   7.142
    8AU     LIG 3991   4.904   3.560   6.984
    8AU     LIG 3992   5.212   3.565   6.614
    8AU     LIG 3993   5.469   3.775   6.276
    8AU     LIG 3994   5.625   4.176   6.077
    8AU     LIG 3995   5.714   4.654   6.097
    8AU    AUSL 3996   3.687   3.128   7.274
    8AU    AUSL 3997   3.531   2.842   6.962
    8AU     AUL 3998   3.539   3.279   6.989
    8AU       S 3999   3.757   3.629   6.808
    8AU     LIG 4000   3.874   4.101   6.680
    8AU     LIG 4001   3.971   4.566   6.624
    8AU     LIG 4002   3.771   5.019   6.662
    8AU     LIG 4003   3.526   5.450   6.697
    8AU     LIG 4004   3.538   5.925   6.625
    8AU       S 4005   3.286   3.127   6.646
    8AU     LIG 4006   3.225   3.101   6.195
    8AU     LIG 4007   3.045   3.406   5.868
    8AU     LIG 4008   2.785   3.749   5.639
    8AU     LIG 4009   2.721   4.045   5.268
    8AU     LIG 4010   2.548   4.405   5.005
    8AU    AUSL 4011   3.836   1.781   6.884
    8AU    AUSL 4012   3.221   1.799   7.271
    8AU     AUL 4013   3.470   1.636   6.955
    8AU       S 4014   3.028   1.739   7.077
    8AU     LIG 4015   2.597   1.524   7.116
    8AU     LIG 4016   2.309   1.172   6.925
    8AU     LIG 4017   2.162   0.809   6.622
    8AU     LIG 4018   1.894   0.389   6.565
    8AU     LIG 4019   1.679  44.966   6.542
    8AU       S 4020   3.880   1.376   6.909
    8AU     LIG 4021   3.898   0.930   6.784
    8AU     LIG 4022   3.621   0.565   6.637
    8AU     LIG 4023   3.516   0.140   6.444
    8AU     LIG 4024   3.544  44.811   6.109
    8AU     LIG 4025   3.586  44.630   5.664
    8AU    AUSL 4026   4.020   1.809   7.315
    8AU    AUSL 4027   4.108   2.102   6.974
    8AU     AUL 4028   4.164   1.741   6.924
    8AU       S 4029   4.092   1.402   7.228
    8AU     LIG 4030   3.940   0.953   7.348
    8AU     LIG 4031   3.760   0.573   7.147
    8AU     LIG 4032   3.755   0.157   6.920
    8AU     LIG 4033   3.785  44.759   6.681
    8AU     LIG 4034   4.078  44.394   6.662
    8AU       S 4035   4.389   1.883   6.561
    8AU     LIG 4036   4.282   1.435   6.494
    8AU     LIG 4037   4.510   1.106   6.234
    8AU     LIG 4038   4.813   0.854   5.957
    8AU     LIG 4039   4.803   0.612   5.553
    8AU     LIG 4040   4.961   0.357   5.187
    9AU     AUC 4041   1.835  31.892   7.510
    9AU     AUC 4042   2.109  31.896   7.341
    9AU     AUC 4043   2.095  31.888   7.675
    9AU     AUC 4044   1.554  31.886   7.349
    9AU     AUC 4045   1.589  31.932   7.701
    9AU     AUC 4046   1.662  32.163   7.512
    9AU     AUC 4047   2.012  32.164   7.493
    9AU     AUC 4048   1.650  31.634   7.519
    9AU     AUC 4049   2.000  31.610   7.511
    9AU     AUC 4050   1.844  31.725   7.785
    9AU     AUC 4051   1.832  32.084   7.768
    9AU     AUC 4052   1.822  31.722   7.243
    9AU     AUC 4053   1.854  32.038   7.233
    9AU     AUC 4054   2.433  31.892   7.179
    9AU     AUC 4055   2.447  31.875   7.516
    9AU     AUC 4056   2.396  31.869   7.866
    9AU     AUC 4057   1.238  31.882   7.181
    9AU     AUC 4058   1.227  31.931   7.543
    9AU     AUC 4059   1.291  31.959   7.900
    9AU     AUC 4060   1.497  32.481   7.496
    9AU     AUC 4061   1.859  32.512   7.440
    9AU     AUC 4062   2.188  32.456   7.470
    9AU     AUC 4063   1.436  31.347   7.532
    9AU     AUC 4064   1.795  31.295   7.501
    9AU     AUC 4065   2.167  31.303   7.494
    9AU     AUC 4066   1.829  31.546   8.086
    9AU     AUC 4067   1.855  31.903   8.114
    9AU     AUC 4068   1.869  32.259   8.057
    9AU     AUC 4069   1.843  31.539   6.964
    9AU     AUC 4070   1.821  31.872   6.902
    9AU     AUC 4071   1.829  32.199   6.919
    9AU     AUC 4072   2.122  31.671   8.000
    9AU     AUC 4073   2.148  32.063   7.991
    9AU     AUC 4074   2.152  31.721   7.018
    9AU     AUC 4075   2.145  32.072   7.035
    9AU     AUC 4076   1.541  31.768   8.031
    9AU     AUC 4077   1.571  32.132   8.014
    9AU     AUC 4078   1.518  31.692   7.058
    9AU     AUC 4079   1.494  32.019   7.011
    9AU     AUC 4080   2.365  32.173   7.332
    9AU     AUC 4081   2.310  32.163   7.691
    9AU     AUC 4082   1.344  32.192   7.350
    9AU     AUC 4083   1.365  32.251   7.708
    9AU     AUC 4084   2.325  31.588   7.344
    9AU     AUC 4085   2.288  31.550   7.683
    9AU     AUC 4086   1.313  31.579   7.365
    9AU     AUC 4087   1.375  31.644   7.721
    9AU     AUC 4088   1.680  32.423   7.769
    9AU     AUC 4089   2.025  32.381   7.764
    9AU     AUC 4090   1.628  31.434   7.809
    9AU     AUC 4091   1.965  31.375   7.785
    9AU     AUC 4092   1.662  32.313   7.191
    9AU     AUC 4093   2.046  32.345   7.161
    9AU     AUC 4094   1.633  31.415   7.224
    9AU     AUC 4095   2.031  31.436   7.221
    9AU    AUSL 4096   2.416  31.814   8.225
    9AU    AUSL 4097   2.138  31.366   8.185
    9AU     AUL 4098   2.446  31.424   8.330
    9AU       S 4099   2.467  31.008   8.136
    9AU     LIG 4100   2.338  30.872   8.503
    9AU     LIG 4101   2.517  30.591   8.794
    9AU     LIG 4102   2.662  30.200   8.970
    9AU     LIG 4103   2.837  29.819   9.152
    9AU     LIG 4104   2.824  29.590   9.564
    9AU       S 4105   2.674  31.830   8.375
    9AU     LIG 4106   2.673  31.994   8.813
    9AU     LIG 4107   2.768  31.737   9.211
    9AU     LIG 4108   3.109  31.557   9.515
    9AU     LIG 4109   3.439  31.473   9.864
    9AU     LIG 4110   3.663  31.602  10.260
    9AU    AUSL 4111   2.023  31.713   8.419
    9AU    AUSL 4112   1.744  32.080   8.456
    9AU     AUL 4113   1.964  31.980   8.732
    9AU       S 4114   2.314  31.682   8.682
    9AU     LIG 4115   1.976  31.452   8.937
    9AU     LIG 4116   1.969  31.225   9.384
    9AU     LIG 4117   2.247  31.081   9.779
    9AU     LIG 4118   2.450  31.002  10.226
    9AU     LIG 4119   2.653  30.852  10.640
    9AU       S 4120   1.541  31.822   8.696
    9AU     LIG 4121   1.616  31.749   9.155
    9AU     LIG 4122   1.351  31.752   9.546
    9AU     LIG 4123   1.192  31.823   9.989
    9AU     LIG 4124   1.128  32.147  10.359
    9AU     LIG 4125   1.011  32.482  10.699
    9AU    AUSL 4126   2.054  32.088   8.162
    9AU    AUSL 4127   2.490  32.227   8.103
    9AU     AUL 4128   2.311  32.117   8.436
    9AU       S 4129   1.977  32.448   8.610
    9AU     LIG 4130   2.279  32.340   8.950
    9AU     LIG 4131   2.320  32.404   9.437
    9AU     LIG 4132   2.341  32.510   9.915
    9AU     LIG 4133   2.410  32.658  10.363
    9AU     LIG 4134   2.613  32.594  10.802
    9AU       S 4135   2.644  32.392   8.257
    9AU     LIG 4136   3.049  32.324   8.339
    9AU     LIG 4137   3.353  32.528   8.629
    9AU     LIG 4138   3.578  32.765   8.973
    9AU     LIG 4139   3.724  32.962   9.366
    9AU     LIG 4140   4.010  32.860   9.730
    9AU    AUSL 4141   2.289  31.936   6.891
    9AU    AUSL 4142   2.217  32.371   6.853
    9AU     AUL 4143   2.396  32.257   6.620
    9AU       S 4144   2.206  32.025   6.290
    9AU     LIG 4145   2.664  32.002   6.134
    9AU     LIG 4146   2.774  31.778   5.736
    9AU     LIG 4147   2.948  31.566   5.355
    9AU     LIG 4148   3.321  31.490   5.068
    9AU     LIG 4149   3.569  31.372   4.676
    9AU       S 4150   2.621  32.593   6.866
    9AU     LIG 4151   2.770  32.773   6.465
    9AU     LIG 4152   3.009  32.957   6.084
    9AU     LIG 4153   3.275  33.165   5.752
    9AU     LIG 4154   3.250  33.449   5.381
    9AU     LIG 4155   3.346  33.660   4.974
    9AU    AUSL 4156   2.110  31.673   6.584
    9AU    AUSL 4157   2.563  31.606   6.908
    9AU     AUL 4158   2.484  31.789   6.641
    9AU       S 4159   2.658  31.344   6.665
    9AU     LIG 4160   2.772  31.005   6.324
    9AU     LIG 4161   3.029  30.622   6.205
    9AU     LIG 4162   3.294  30.378   5.884
    9AU     LIG 4163   3.693  30.355   5.603
    9AU     LIG 4164   4.117  30.444   5.380
    9AU       S 4165   2.227  31.827   6.250
    9AU     LIG 4166   2.421  31.503   6.014
    9AU     LIG 4167   2.489  31.380   5.552
    9AU     LIG 4168   2.455  31.287   5.079
    9AU     LIG 4169   2.441  31.026   4.663
    9AU     LIG 4170   2.634  30.831   4.265
    9AU    AUSL 4171   1.928  32.081   6.692
    9AU    AUSL 4172   1.713  31.680   6.765
    9AU     AUL 4173   1.835  31.716   6.451
    9AU       S 4174   1.406  31.715   6.293
    9AU     LIG 4175   1.559  31.546   5.912
    9AU     LIG 4176   1.351  31.304   5.563
    9AU     LIG 4177   1.131  31.229   5.159
    9AU     LIG 4178   0.959  31.000   4.798
    9AU     LIG 4179   0.890  30.983   4.328
    9AU       S 4180   1.974  32.161   6.404
    9AU     LIG 4181   1.857  31.972   5.950
    9AU     LIG 4182   2.232  31.837   5.656
    9AU     LIG 4183   2.490  31.800   5.239
    9AU     LIG 4184   2.571  31.911   4.767
    9AU     LIG 4185   2.730  32.082   4.341
    9AU    AUSL 4186   1.333  32.024   8.302
    9AU    AUSL 4187   1.615  32.378   8.165
    9AU     AUL 4188   1.508  32.314   8.500
    9AU       S 4189   1.364  31.941   8.754
    9AU     LIG 4190   1.121  31.677   9.047
    9AU     LIG 4191   0.940  31.453   9.419
    9AU     LIG 4192   0.712  31.363   9.823
    9AU     LIG 4193   0.271  31.351  10.009
    9AU     LIG 4194  44.934  31.382  10.356
    9AU       S 4195   1.225  32.607   8.269
    9AU     LIG 4196   1.243  32.802   8.668
    9AU     LIG 4197   1.137  33.010   9.068
    9AU     LIG 4198   0.827  33.232   9.324
    9AU     LIG 4199   0.669  33.437   9.718
    9AU     LIG 4200   0.612  33.556  10.181
    9AU    AUSL 4201   1.646  31.726   8.200
    9AU    AUSL 4202   1.180  31.652   8.123
    9AU     AUL 4203   1.202  31.737   8.375
    9AU       S 4204   1.013  31.308   8.268
    9AU     LIG 4205   0.581  31.261   8.176
    9AU     LIG 4206   0.280  30.939   8.323
    9AU     LIG 4207   0.034  30.675   8.629
    9AU     LIG 4208  44.861  30.476   9.015
    9AU     LIG 4209  44.800  30.445   9.483
    9AU       S 4210   1.597  31.643   8.601
    9AU     LIG 4211   1.458  31.330   8.874
    9AU     LIG 4212   1.430  31.285   9.339
    9AU     LIG 4213   1.262  31.290   9.792
    9AU     LIG 4214   1.169  31.048  10.193
    9AU     LIG 4215   0.989  30.878  10.606
    9AU    AUSL 4216   1.275  31.742   6.789
    9AU    AUSL 4217   1.477  31.369   6.951
    9AU     AUL 4218   1.511  31.408   6.634
    9AU       S 4219   1.234  31.658   6.347
    9AU     LIG 4220   1.051  31.610   5.913
    9AU     LIG 4221   0.882  31.543   5.477
    9AU     LIG 4222   0.612  31.320   5.145
    9AU     LIG 4223   0.179  31.311   4.925
    9AU     LIG 4224  44.910  31.540   4.596
    9AU       S 4225   1.118  31.232   6.806
    9AU     LIG 4226   1.071  30.787   6.708
    9AU     LIG 4227   0.708  30.528   6.583
    9AU     LIG 4228   0.484  30.354   6.208
    9AU     LIG 4229   0.302  30.105   5.846
    9AU     LIG 4230   0.447  29.894   5.438
    9AU    AUSL 4231   1.509  32.058   6.595
    9AU    AUSL 4232   1.141  32.150   6.921
    9AU     AUL 4233   1.076  31.948   6.662
    9AU       S 4234   1.161  32.393   6.691
    9AU     LIG 4235   0.783  32.491   6.500
    9AU     LIG 4236   0.584  32.747   6.151
    9AU     LIG 4237   0.189  32.768   5.855
    9AU     LIG 4238  44.858  32.938   5.538
    9AU     LIG 4239  44.656  33.136   5.148
    9AU       S 4240   1.453  32.006   6.366
    9AU     LIG 4241   1.343  32.048   5.922
    9AU     LIG 4242   1.332  31.817   5.517
    9AU     LIG 4243   1.200  31.739   5.073
    9AU     LIG 4244   1.193  31.956   4.641
    9AU     LIG 4245   1.200  32.262   4.262
    9AU    AUSL 4246   2.639  32.396   7.508
    9AU    AUSL 4247   2.579  32.186   7.093
    9AU     AUL 4248   2.909  32.492   7.289
    9AU       S 4249   2.688  32.281   6.965
    9AU     LIG 4250   2.898  32.271   6.559
    9AU     LIG 4251   3.193  32.511   6.286
    9AU     LIG 4252   3.491  32.781   6.046
    9AU     LIG 4253   3.762  32.921   5.692
    9AU     LIG 4254   4.144  32.845   5.406
    9AU       S 4255   3.017  32.286   7.706
    9AU     LIG 4256   3.459  32.377   7.563
    9AU     LIG 4257   3.942  32.411   7.597
    9AU     LIG 4258   4.331  32.662   7.471
    9AU     LIG 4259   4.606  33.055   7.362
    9AU     LIG 4260   4.761  33.527   7.334
    9AU    AUSL 4261   2.825  31.986   7.391
    9AU    AUSL 4262   2.761  31.662   7.710
    9AU     AUL 4263   3.103  31.760   7.757
    9AU       S 4264   2.982  32.064   7.446
    9AU     LIG 4265   3.452  31.886   7.431
    9AU     LIG 4266   3.917  31.979   7.318
    9AU     LIG 4267   4.380  32.164   7.285
    9AU     LIG 4268   4.835  32.312   7.125
    9AU     LIG 4269   5.317  32.352   6.982
    9AU       S 4270   3.008  31.374   7.528
    9AU     LIG 4271   3.452  31.389   7.677
    9AU     LIG 4272   3.742  31.033   7.726
    9AU     LIG 4273   4.164  30.934   7.841
    9AU     LIG 4274   4.586  30.988   8.018
    9AU     LIG 4275   4.970  31.116   8.237
    9AU    AUSL 4276   2.535  32.029   7.729
    9AU    AUSL 4277   2.286  32.431   7.767
    9AU     AUL 4278   2.607  32.493   7.800
    9AU       S 4279   2.606  32.684   8.220
    9AU     LIG 4280   2.986  32.839   8.428
    9AU     LIG 4281   3.322  33.074   8.662
    9AU     LIG 4282   3.634  33.348   8.908
    9AU     LIG 4283   3.758  33.802   8.833
    9AU     LIG 4284   4.020  34.193   8.806
    9AU       S 4285   2.872  32.127   7.859
    9AU     LIG 4286   3.379  32.088   7.982
    9AU     LIG 4287   3.814  31.943   7.822
    9AU     LIG 4288   4.285  32.053   7.800
    9AU     LIG 4289   4.658  32.326   7.687
    9AU     LIG 4290   5.056  32.398   7.914
    9AU    AUSL 4291   1.148  32.475   7.552
    9AU    AUSL 4292   1.261  32.235   7.932
    9AU     AUL 4293   0.937  32.566   7.826
    9AU       S 4294   1.106  32.407   8.216
    9AU     LIG 4295   1.006  32.338   8.649
    9AU     LIG 4296   0.792  32.654   8.923
    9AU     LIG 4297   0.461  32.930   9.116
    9AU     LIG 4298   0.061  32.924   9.382
    9AU     LIG 4299  44.675  33.062   9.623
    9AU       S 4300   1.128  32.828   7.479
    9AU     LIG 4301   0.619  32.745   7.493
    9AU     LIG 4302   0.139  32.878   7.638
    9AU     LIG 4303  44.745  33.191   7.700
    9AU     LIG 4304  44.624  33.656   7.736
    9AU     LIG 4305  44.316  33.955   7.532
    9AU    AUSL 4306   1.130  32.090   7.343
    9AU    AUSL 4307   1.269  32.530   7.141
    9AU     AUL 4308   0.962  32.405   7.177
    9AU       S 4309   0.721  31.980   7.010
    9AU     LIG 4310   0.448  32.358   6.934
    9AU     LIG 4311  44.973  32.501   6.925
    9AU     LIG 4312  44.536  32.522   6.715
    9AU     LIG 4313  44.085  32.605   6.590
    9AU     LIG 4314  43.710  32.897   6.691
    9AU       S 4315   1.081  32.798   6.910
    9AU     LIG 4316   1.016  32.947   6.455
    9AU     LIG 4317   0.780  33.253   6.151
    9AU     LIG 4318   0.527  33.663   6.030
    9AU     LIG 4319   0.181  34.030   5.990
    9AU     LIG 4320  44.934  34.464   6.018
    9AU    AUSL 4321   0.894  32.120   7.743
    9AU    AUSL 4322   0.853  31.769   7.403
    9AU     AUL 4323   0.743  32.108   7.465
    9AU       S 4324   0.584  31.675   7.610
    9AU     LIG 4325   0.212  31.531   7.372
    9AU     LIG 4326  44.801  31.288   7.424
    9AU     LIG 4327  44.342  31.240   7.399
    9AU     LIG 4328  43.949  31.314   7.213
    9AU     LIG 4329  43.567  31.110   7.108
    9AU       S 4330   0.803  32.077   7.980
    9AU     LIG 4331   0.429  32.365   7.870
    9AU     LIG 4332  44.953  32.508   7.965
    9AU     LIG 4333  44.538  32.696   8.195
    9AU     LIG 4334  44.061  32.714   8.136
    9AU     LIG 4335  43.669  32.582   8.359
    9AU    AUSL 4336   2.539  31.311   7.540
    9AU    AUSL 4337   2.369  31.580   7.872
    9AU     AUL 4338   2.703  31.465   7.920
    9AU       S 4339   2.828  31.191   7.541
    9AU     LIG 4340   3.214  30.922   7.602
    9AU     LIG 4341   3.522  30.593   7.553
    9AU     LIG 4342   3.975  30.545   7.563
    9AU     LIG 4343   4.365  30.446   7.802
    9AU     LIG 4344   4.790  30.282   7.690
    9AU       S 4345   2.603  31.029   7.984
    9AU     LIG 4346   2.792  30.679   8.295
    9AU     LIG 4347   2.989  30.425   8.634
    9AU     LIG 4348   3.197  30.163   8.961
    9AU     LIG 4349   3.573  30.201   9.251
    9AU     LIG 4350   3.929  30.352   9.533
    9AU    AUSL 4351   2.519  31.695   7.325
    9AU    AUSL 4352   2.442  31.232   7.121
    9AU     AUL 4353   2.693  31.403   7.149
    9AU       S 4354   3.061  31.548   7.345
    9AU     LIG 4355   3.382  31.220   7.203
    9AU     LIG 4356   3.748  30.923   7.226
    9AU     LIG 4357   4.209  30.921   7.283
    9AU     LIG 4358   4.673  31.000   7.147
    9AU     LIG 4359   5.109  30.913   6.968
    9AU       S 4360   2.628  31.096   6.796
    9AU     LIG 4361   2.706  30.643   6.701
    9AU     LIG 4362   2.840  30.236   6.489
    9AU     LIG 4363   3.121  29.984   6.200
    9AU     LIG 4364   3.392  29.608   6.071
    9AU     LIG 4365   3.829  29.424   6.139
    9AU    AUSL 4366   1.029  31.396   7.582
    9AU    AUSL 4367   1.195  31.616   7.190
    9AU     AUL 4368   0.837  31.497   7.259
    9AU       S 4369   0.994  31.368   6.851
    9AU     LIG 4370   0.622  31.055   6.706
    9AU     LIG 4371   0.275  30.782   6.456
    9AU     LIG 4372  44.987  30.447   6.246
    9AU     LIG 4373  44.648  30.260   6.010
    9AU     LIG 4374  44.228  30.301   5.813
    9AU       S 4375   0.613  31.392   7.668
    9AU     LIG 4376   0.407  31.047   7.431
    9AU     LIG 4377   0.001  30.825   7.319
    9AU     LIG 4378  44.595  30.806   7.566
    9AU     LIG 4379  44.312  30.412   7.554
    9AU     LIG 4380  43.883  30.296   7.503
    9AU    AUSL 4381   1.167  31.798   7.720
    9AU    AUSL 4382   1.380  31.404   7.829
    9AU     AUL 4383   0.968  31.582   7.899
    9AU       S 4384   1.073  31.158   8.032
    9AU     LIG 4385   0.754  30.909   7.847
    9AU     LIG 4386   0.491  30.571   8.036
    9AU     LIG 4387   0.184  30.313   8.298
    9AU     LIG 4388  44.831  30.158   8.592
    9AU     LIG 4389  44.439  29.867   8.666
    9AU       S 4390   0.558  31.718   7.764
    9AU     LIG 4391   0.169  31.961   7.661
    9AU     LIG 4392  44.770  31.795   7.463
    9AU     LIG 4393  44.453  31.621   7.713
    9AU     LIG 4394  44.104  31.325   7.855
    9AU     LIG 4395  43.707  31.064   7.826
    9AU    AUSL 4396   1.865  32.592   7.886
    9AU    AUSL 4397   1.422  32.634   7.853
    9AU     AUL 4398   1.688  32.705   8.187
    9AU       S 4399   1.290  32.842   7.978
    9AU     LIG 4400   0.952  33.019   8.289
    9AU     LIG 4401   0.774  33.142   8.723
    9AU     LIG 4402   0.519  33.468   8.971
    9AU     LIG 4403   0.250  33.883   9.006
    9AU     LIG 4404  44.898  34.235   9.036
    9AU       S 4405   1.877  33.053   7.942
    9AU     LIG 4406   2.004  33.118   8.337
    9AU     LIG 4407   2.017  33.545   8.522
    9AU     LIG 4408   2.016  33.985   8.691
    9AU     LIG 4409   1.882  34.364   8.930
    9AU     LIG 4410   1.896  34.627   9.310
    9AU    AUSL 4411   1.664  32.852   7.575
    9AU    AUSL 4412   2.016  32.794   7.167
    9AU     AUL 4413   1.751  33.047   7.310
    9AU       S 4414   1.718  33.067   7.788
    9AU     LIG 4415   1.821  33.531   8.015
    9AU     LIG 4416   1.821  33.967   8.215
    9AU     LIG 4417   1.823  34.394   8.411
    9AU     LIG 4418   1.710  34.775   8.648
    9AU     LIG 4419   1.534  35.176   8.788
    9AU       S 4420   1.959  33.081   6.893
    9AU     LIG 4421   2.289  33.354   6.800
    9AU     LIG 4422   2.358  33.804   6.743
    9AU     LIG 4423   2.338  34.240   6.599
    9AU     LIG 4424   2.405  34.703   6.621
    9AU     LIG 4425   2.319  35.172   6.695
    9AU    AUSL 4426   2.125  32.785   7.588
    9AU    AUSL 4427   2.149  32.505   8.193
    9AU     AUL 4428   2.225  32.755   7.951
    9AU       S 4429   2.389  32.606   8.390
    9AU     LIG 4430   2.719  32.519   8.731
    9AU     LIG 4431   3.039  32.760   8.969
    9AU     LIG 4432   3.257  33.116   9.184
    9AU     LIG 4433   3.410  33.448   9.472
    9AU     LIG 4434   3.356  33.708   9.871
    9AU       S 4435   2.072  33.099   7.669
    9AU     LIG 4436   2.304  33.344   7.984
    9AU     LIG 4437   2.304  33.776   8.168
    9AU     LIG 4438   2.293  34.223   8.319
    9AU     LIG 4439   2.240  34.703   8.362
    9AU     LIG 4440   2.507  35.081   8.290
    9AU    AUSL 4441   1.789  31.245   7.950
    9AU    AUSL 4442   2.209  31.182   7.788
    9AU     AUL 4443   2.008  31.074   8.163
    9AU       S 4444   1.798  30.688   8.022
    9AU     LIG 4445   1.806  30.325   8.267
    9AU     LIG 4446   1.513  29.996   8.389
    9AU     LIG 4447   1.448  29.539   8.377
    9AU     LIG 4448   1.326  29.201   8.677
    9AU     LIG 4449   1.363  28.984   9.094
    9AU       S 4450   2.358  30.972   7.842
    9AU     LIG 4451   2.302  30.539   8.094
    9AU     LIG 4452   2.549  30.233   8.415
    9AU     LIG 4453   2.882  29.911   8.610
    9AU     LIG 4454   3.183  29.605   8.833
    9AU     LIG 4455   3.398  29.188   8.918
    9AU    AUSL 4456   1.457  31.011   7.698
    9AU    AUSL 4457   1.498  31.333   8.257
    9AU     AUL 4458   1.515  31.058   8.048
    9AU       S 4459   1.581  30.632   7.867
    9AU     LIG 4460   1.425  30.235   7.917
    9AU     LIG 4461   1.244  29.830   7.973
    9AU     LIG 4462   1.113  29.406   8.007
    9AU     LIG 4463   1.191  29.015   8.216
    9AU     LIG 4464   0.945  28.631   8.254
    9AU       S 4465   1.217  31.222   8.379
    9AU     LIG 4466   0.862  30.847   8.371
    9AU     LIG 4467   0.551  30.566   8.564
    9AU     LIG 4468   0.299  30.267   8.817
    9AU     LIG 4469   0.142  30.086   9.220
    9AU     LIG 4470   0.202  29.742   9.538
    9AU    AUSL 4471   1.889  30.943   7.636
    9AU    AUSL 4472   1.648  31.191   7.343
    9AU     AUL 4473   1.547  30.844   7.452
    9AU       S 4474   1.908  30.756   7.193
    9AU     LIG 4475   1.551  30.434   7.170
    9AU     LIG 4476   1.365  30.009   7.140
    9AU     LIG 4477   1.193  29.596   6.975
    9AU     LIG 4478   1.048  29.195   6.763
    9AU     LIG 4479   0.733  28.826   6.768
    9AU       S 4480   1.907  30.748   7.773
    9AU     LIG 4481   1.929  30.267   7.768
    9AU     LIG 4482   1.784  29.857   7.975
    9AU     LIG 4483   1.913  29.414   8.109
    9AU     LIG 4484   2.264  29.063   8.087
    9AU     LIG 4485   2.365  28.602   8.172
    9AU    AUSL 4486   1.822  32.557   6.841
    9AU    AUSL 4487   2.293  32.481   7.266
    9AU     AUL 4488   2.165  32.677   6.862
    9AU       S 4489   1.774  32.813   6.634
    9AU     LIG 4490   2.050  33.119   6.398
    9AU     LIG 4491   2.172  33.570   6.322
    9AU     LIG 4492   2.159  34.006   6.160
    9AU     LIG 4493   2.226  34.328   5.827
    9AU     LIG 4494   2.227  34.787   5.728
    9AU       S 4495   2.522  32.686   7.143
    9AU     LIG 4496   2.969  32.910   6.954
    9AU     LIG 4497   3.245  32.972   6.550
    9AU     LIG 4498   3.448  33.275   6.233
    9AU     LIG 4499   3.664  33.720   6.171
    9AU     LIG 4500   3.905  34.154   6.226
    9AU    AUSL 4501   1.674  32.548   7.283
    9AU    AUSL 4502   1.563  32.250   6.970
    9AU     AUL 4503   1.521  32.706   7.031
    9AU       S 4504   1.747  33.041   6.831
    9AU     LIG 4505   1.796  33.501   6.673
    9AU     LIG 4506   1.880  33.959   6.599
    9AU     LIG 4507   1.885  34.393   6.419
    9AU     LIG 4508   1.668  34.768   6.284
    9AU     LIG 4509   1.734  35.233   6.412
    9AU       S 4510   1.352  32.506   6.654
    9AU     LIG 4511   1.236  32.534   6.207
    9AU     LIG 4512   1.051  32.869   5.924
    9AU     LIG 4513   0.960  33.247   5.634
    9AU     LIG 4514   0.898  33.509   5.226
    9AU     LIG 4515   0.617  33.775   4.944
    9AU    AUSL 4516   1.849  31.150   6.940
    9AU    AUSL 4517   1.230  31.171   7.267
    9AU     AUL 4518   1.506  31.015   7.007
    9AU       S 4519   1.050  31.124   7.076
    9AU     LIG 4520   0.752  30.802   7.131
    9AU     LIG 4521   0.356  30.639   6.951
    9AU     LIG 4522   0.235  30.273   6.661
    9AU     LIG 4523   0.169  29.946   6.328
    9AU     LIG 4524   0.133  29.614   5.980
    9AU       S 4525   1.910  30.755   7.000
    9AU     LIG 4526   1.871  30.357   6.777
    9AU     LIG 4527   1.578  30.004   6.668
    9AU     LIG 4528   1.517  29.554   6.567
    9AU     LIG 4529   1.560  29.265   6.197
    9AU     LIG 4530   1.665  29.157   5.740
    9AU    AUSL 4531   2.081  31.176   7.330
    9AU    AUSL 4532   2.115  31.488   6.968
    9AU     AUL 4533   2.181  31.120   6.926
    9AU       S 4534   2.159  30.809   7.278
    9AU     LIG 4535   2.056  30.302   7.269
    9AU     LIG 4536   1.879  29.905   7.072
    9AU     LIG 4537   1.963  29.472   6.864
    9AU     LIG 4538   2.246  29.060   6.831
    9AU     LIG 4539   2.277  28.579   6.911
    9AU       S 4540   2.402  31.302   6.573
    9AU     LIG 4541   2.289  30.869   6.483
    9AU     LIG 4542   2.506  30.538   6.229
    9AU     LIG 4543   2.768  30.260   5.943
    9AU     LIG 4544   3.003  30.062   5.571
    9AU     LIG 4545   3.082  29.927   5.106
   10AU     AUC 4546  34.140   2.695   7.505
   10AU     AUC 4547  34.405   2.698   7.335
   10AU     AUC 4548  34.402   2.684   7.669
   10AU     AUC 4549  33.859   2.693   7.344
   10AU     AUC 4550  33.897   2.738   7.695
   10AU     AUC 4551  33.976   2.970   7.508
   10AU     AUC 4552  34.322   2.965   7.488
   10AU     AUC 4553  33.953   2.441   7.514
   10AU     AUC 4554  34.300   2.408   7.503
   10AU     AUC 4555  34.149   2.526   7.779
   10AU     AUC 4556  34.146   2.887   7.762
   10AU     AUC 4557  34.122   2.527   7.235
   10AU     AUC 4558  34.157   2.844   7.228
   10AU     AUC 4559  34.726   2.694   7.168
   10AU     AUC 4560  34.748   2.665   7.502
   10AU     AUC 4561  34.704   2.656   7.855
   10AU     AUC 4562  33.542   2.692   7.178
   10AU     AUC 4563  33.536   2.742   7.541
   10AU     AUC 4564  33.602   2.771   7.895
   10AU     AUC 4565  33.819   3.288   7.492
   10AU     AUC 4566  34.177   3.316   7.441
   10AU     AUC 4567  34.505   3.251   7.469
   10AU     AUC 4568  33.736   2.157   7.527
   10AU     AUC 4569  34.094   2.098   7.495
   10AU     AUC 4570  34.462   2.101   7.485
   10AU     AUC 4571  34.132   2.348   8.080
   10AU     AUC 4572  34.164   2.705   8.108
   10AU     AUC 4573  34.190   3.060   8.052
   10AU     AUC 4574  34.142   2.347   6.957
   10AU     AUC 4575  34.116   2.680   6.892
   10AU     AUC 4576  34.127   3.012   6.912
   10AU     AUC 4577  34.427   2.465   7.993
   10AU     AUC 4578  34.463   2.854   7.984
   10AU     AUC 4579  34.445   2.526   7.007
   10AU     AUC 4580  34.440   2.881   7.027
   10AU     AUC 4581  33.849   2.577   8.026
   10AU     AUC 4582  33.887   2.942   8.006
   10AU     AUC 4583  33.819   2.503   7.052
   10AU     AUC 4584  33.797   2.829   7.006
   10AU     AUC 4585  34.671   2.970   7.323
   10AU     AUC 4586  34.624   2.953   7.682
   10AU     AUC 4587  33.653   2.999   7.343
   10AU     AUC 4588  33.684   3.060   7.700
   10AU     AUC 4589  34.616   2.384   7.330
   10AU     AUC 4590  34.587   2.339   7.677
   10AU     AUC 4591  33.614   2.391   7.363
   10AU     AUC 4592  33.681   2.455   7.718
   10AU     AUC 4593  34.006   3.231   7.766
   10AU     AUC 4594  34.347   3.180   7.761
   10AU     AUC 4595  33.930   2.239   7.805
   10AU     AUC 4596  34.266   2.175   7.778
   10AU     AUC 4597  33.969   3.121   7.188
   10AU     AUC 4598  34.344   3.156   7.163
   10AU     AUC 4599  33.932   2.222   7.219
   10AU     AUC 4600  34.330   2.235   7.210
   10AU    AUSL 4601  34.719   2.595   8.221
   10AU    AUSL 4602  34.441   2.166   8.176
   10AU     AUL 4603  34.761   2.194   8.315
   10AU       S 4604  34.760   1.777   8.122
   10AU     LIG 4605  34.680   1.592   8.484
   10AU     LIG 4606  34.806   1.324   8.826
   10AU     LIG 4607  35.070   0.994   9.006
   10AU     LIG 4608  35.213   0.683   9.319
   10AU     LIG 4609  35.144   0.504   9.754
   10AU       S 4610  34.961   2.601   8.390
   10AU     LIG 4611  34.863   2.684   8.842
   10AU     LIG 4612  34.937   2.517   9.278
   10AU     LIG 4613  35.249   2.344   9.611
   10AU     LIG 4614  35.680   2.395   9.841
   10AU     LIG 4615  36.050   2.543  10.110
   10AU    AUSL 4616  34.321   2.510   8.413
   10AU    AUSL 4617  34.056   2.886   8.450
   10AU     AUL 4618  34.275   2.802   8.739
   10AU       S 4619  34.504   2.428   8.608
   10AU     LIG 4620  34.410   2.398   9.029
   10AU     LIG 4621  34.572   2.161   9.386
   10AU     LIG 4622  34.832   2.023   9.745
   10AU     LIG 4623  34.821   1.932  10.205
   10AU     LIG 4624  34.837   1.753  10.640
   10AU       S 4625  33.858   2.637   8.678
   10AU     LIG 4626  33.897   2.506   9.133
   10AU     LIG 4627  33.646   2.549   9.528
   10AU     LIG 4628  33.365   2.600   9.900
   10AU     LIG 4629  33.291   2.864  10.296
   10AU     LIG 4630  33.230   3.214  10.625
   10AU    AUSL 4631  34.367   2.884   8.156
   10AU    AUSL 4632  34.811   3.002   8.093
   10AU     AUL 4633  34.619   2.903   8.431
   10AU       S 4634  34.284   3.261   8.594
   10AU     LIG 4635  34.630   3.145   8.889
   10AU     LIG 4636  34.878   3.180   9.301
   10AU     LIG 4637  34.857   3.244   9.794
   10AU     LIG 4638  34.771   3.300  10.274
   10AU     LIG 4639  34.835   3.416  10.741
   10AU       S 4640  34.969   3.157   8.255
   10AU     LIG 4641  35.371   3.114   8.333
   10AU     LIG 4642  35.617   3.304   8.673
   10AU     LIG 4643  35.867   3.524   9.000
   10AU     LIG 4644  36.069   3.763   9.347
   10AU     LIG 4645  36.410   3.762   9.672
   10AU    AUSL 4646  34.575   2.747   6.890
   10AU    AUSL 4647  34.502   3.182   6.861
   10AU     AUL 4648  34.670   3.090   6.617
   10AU       S 4649  34.530   2.826   6.281
   10AU     LIG 4650  34.978   2.764   6.112
   10AU     LIG 4651  35.136   2.510   5.753
   10AU     LIG 4652  35.282   2.256   5.379
   10AU     LIG 4653  35.506   2.184   4.969
   10AU     LIG 4654  35.843   2.268   4.629
   10AU       S 4655  34.918   3.403   6.868
   10AU     LIG 4656  35.051   3.580   6.494
   10AU     LIG 4657  35.249   3.781   6.130
   10AU     LIG 4658  35.428   4.005   5.784
   10AU     LIG 4659  35.596   4.252   5.438
   10AU     LIG 4660  35.641   4.557   5.090
   10AU    AUSL 4661  34.412   2.485   6.577
   10AU    AUSL 4662  34.851   2.420   6.895
   10AU     AUL 4663  34.789   2.627   6.647
   10AU       S 4664  34.933   2.170   6.656
   10AU     LIG 4665  35.059   1.840   6.314
   10AU     LIG 4666  35.304   1.440   6.227
   10AU     LIG 4667  35.550   1.165   5.932
   10AU     LIG 4668  35.849   1.190   5.561
   10AU     LIG 4669  36.316   1.227   5.478
   10AU       S 4670  34.538   2.605   6.252
   10AU     LIG 4671  34.775   2.265   6.064
   10AU     LIG 4672  34.820   2.130   5.603
   10AU     LIG 4673  34.863   2.072   5.125
   10AU     LIG 4674  34.749   1.959   4.673
   10AU     LIG 4675  34.890   2.017   4.229
   10AU    AUSL 4676  34.226   2.895   6.672
   10AU    AUSL 4677  34.012   2.493   6.751
   10AU     AUL 4678  34.129   2.530   6.437
   10AU       S 4679  33.690   2.516   6.301
   10AU     LIG 4680  33.829   2.289   5.945
   10AU     LIG 4681  33.596   2.000   5.652
   10AU     LIG 4682  33.423   1.951   5.224
   10AU     LIG 4683  33.261   1.892   4.788
   10AU     LIG 4684  33.273   1.762   4.315
   10AU       S 4685  34.277   2.964   6.375
   10AU     LIG 4686  34.174   2.741   5.944
   10AU     LIG 4687  34.595   2.606   5.707
   10AU     LIG 4688  34.863   2.577   5.296
   10AU     LIG 4689  34.910   2.761   4.838
   10AU     LIG 4690  34.956   3.071   4.458
   10AU    AUSL 4691  33.644   2.842   8.292
   10AU    AUSL 4692  33.937   3.185   8.157
   10AU     AUL 4693  33.817   3.125   8.488
   10AU       S 4694  33.681   2.755   8.750
   10AU     LIG 4695  33.387   2.634   9.075
   10AU     LIG 4696  33.154   2.410   9.414
   10AU     LIG 4697  32.959   2.279   9.814
   10AU     LIG 4698  32.566   2.273  10.043
   10AU     LIG 4699  32.326   2.409  10.403
   10AU       S 4700  33.546   3.428   8.251
   10AU     LIG 4701  33.584   3.585   8.655
   10AU     LIG 4702  33.526   3.810   9.071
   10AU     LIG 4703  33.391   4.105   9.403
   10AU     LIG 4704  33.214   4.221   9.831
   10AU     LIG 4705  33.182   4.575  10.157
   10AU    AUSL 4706  33.948   2.535   8.192
   10AU    AUSL 4707  33.488   2.463   8.125
   10AU     AUL 4708  33.504   2.570   8.368
   10AU       S 4709  33.319   2.139   8.295
   10AU     LIG 4710  32.895   2.135   8.177
   10AU     LIG 4711  32.608   1.808   8.288
   10AU     LIG 4712  32.396   1.501   8.571
   10AU     LIG 4713  32.167   1.181   8.825
   10AU     LIG 4714  31.972   1.037   9.232
   10AU       S 4715  33.895   2.452   8.597
   10AU     LIG 4716  33.582   2.228   8.828
   10AU     LIG 4717  33.549   2.112   9.265
   10AU     LIG 4718  33.445   2.103   9.719
   10AU     LIG 4719  33.332   1.912  10.118
   10AU     LIG 4720  33.257   1.851  10.573
   10AU    AUSL 4721  33.576   2.553   6.784
   10AU    AUSL 4722  33.783   2.186   6.951
   10AU     AUL 4723  33.821   2.209   6.629
   10AU       S 4724  33.508   2.442   6.374
   10AU     LIG 4725  33.318   2.345   5.960
   10AU     LIG 4726  33.118   2.207   5.562
   10AU     LIG 4727  32.949   2.169   5.133
   10AU     LIG 4728  32.527   2.202   4.921
   10AU     LIG 4729  32.238   2.507   4.681
   10AU       S 4730  33.415   2.067   6.799
   10AU     LIG 4731  33.226   1.719   6.578
   10AU     LIG 4732  32.848   1.541   6.371
   10AU     LIG 4733  32.667   1.312   5.991
   10AU     LIG 4734  32.655   1.130   5.540
   10AU     LIG 4735  32.453   0.949   5.143
   10AU    AUSL 4736  33.804   2.874   6.590
   10AU    AUSL 4737  33.448   2.961   6.918
   10AU     AUL 4738  33.381   2.778   6.657
   10AU       S 4739  33.451   3.229   6.661
   10AU     LIG 4740  33.236   3.523   6.364
   10AU     LIG 4741  33.007   3.660   5.967
   10AU     LIG 4742  32.724   3.828   5.615
   10AU     LIG 4743  32.330   3.842   5.333
   10AU     LIG 4744  31.960   3.978   5.056
   10AU       S 4745  33.738   2.797   6.337
   10AU     LIG 4746  33.634   2.763   5.872
   10AU     LIG 4747  33.544   2.489   5.495
   10AU     LIG 4748  33.411   2.446   5.038
   10AU     LIG 4749  33.489   2.682   4.616
   10AU     LIG 4750  33.484   3.026   4.279
   10AU    AUSL 4751  34.959   3.180   7.498
   10AU    AUSL 4752  34.881   2.989   7.072
   10AU     AUL 4753  35.224   3.280   7.264
   10AU       S 4754  34.980   3.081   6.947
   10AU     LIG 4755  35.173   3.072   6.538
   10AU     LIG 4756  35.477   3.339   6.294
   10AU     LIG 4757  35.709   3.593   5.969
   10AU     LIG 4758  35.932   3.933   5.722
   10AU     LIG 4759  36.273   4.104   5.455
   10AU       S 4760  35.334   3.053   7.666
   10AU     LIG 4761  35.766   3.262   7.599
   10AU     LIG 4762  36.238   3.392   7.536
   10AU     LIG 4763  36.695   3.568   7.504
   10AU     LIG 4764  36.955   3.990   7.410
   10AU     LIG 4765  37.114   4.466   7.376
   10AU    AUSL 4766  35.121   2.765   7.357
   10AU    AUSL 4767  35.068   2.441   7.683
   10AU     AUL 4768  35.425   2.537   7.665
   10AU       S 4769  35.255   2.836   7.382
   10AU     LIG 4770  35.742   2.798   7.402
   10AU     LIG 4771  36.212   2.915   7.351
   10AU     LIG 4772  36.668   3.083   7.279
   10AU     LIG 4773  37.144   3.104   7.148
   10AU     LIG 4774  37.510   3.310   6.906
   10AU       S 4775  35.298   2.096   7.575
   10AU     LIG 4776  35.691   2.077   7.777
   10AU     LIG 4777  36.017   1.756   7.782
   10AU     LIG 4778  36.446   1.560   7.713
   10AU     LIG 4779  36.914   1.475   7.626
   10AU     LIG 4780  37.325   1.369   7.842
   10AU    AUSL 4781  34.849   2.811   7.713
   10AU    AUSL 4782  34.609   3.217   7.762
   10AU     AUL 4783  34.937   3.265   7.798
   10AU       S 4784  34.944   3.453   8.218
   10AU     LIG 4785  35.317   3.632   8.389
   10AU     LIG 4786  35.519   3.817   8.761
   10AU     LIG 4787  35.860   4.062   8.970
   10AU     LIG 4788  36.106   4.464   9.000
   10AU     LIG 4789  36.366   4.847   8.867
   10AU       S 4790  35.184   2.881   7.834
   10AU     LIG 4791  35.673   2.875   7.968
   10AU     LIG 4792  36.122   2.976   7.854
   10AU     LIG 4793  36.582   3.097   7.784
   10AU     LIG 4794  37.047   3.159   7.657
   10AU     LIG 4795  37.512   3.285   7.708
   10AU    AUSL 4796  33.485   3.288   7.539
   10AU    AUSL 4797  33.583   3.052   7.920
   10AU     AUL 4798  33.272   3.394   7.785
   10AU       S 4799  33.428   3.227   8.182
   10AU     LIG 4800  33.327   3.132   8.626
   10AU     LIG 4801  33.192   3.416   8.989
   10AU     LIG 4802  32.893   3.675   9.266
   10AU     LIG 4803  32.501   3.742   9.546
   10AU     LIG 4804  32.080   3.810   9.771
   10AU       S 4805  33.510   3.667   7.462
   10AU     LIG 4806  33.182   3.978   7.353
   10AU     LIG 4807  32.718   4.149   7.359
   10AU     LIG 4808  32.252   4.323   7.373
   10AU     LIG 4809  31.806   4.534   7.401
   10AU     LIG 4810  31.496   4.795   7.654
   10AU    AUSL 4811  33.436   2.900   7.340
   10AU    AUSL 4812  33.570   3.345   7.122
   10AU     AUL 4813  33.275   3.220   7.174
   10AU       S 4814  33.033   2.781   7.010
   10AU     LIG 4815  32.714   3.131   7.058
   10AU     LIG 4816  32.257   3.328   6.968
   10AU     LIG 4817  31.770   3.469   6.928
   10AU     LIG 4818  31.322   3.684   6.896
   10AU     LIG 4819  30.886   3.505   6.936
   10AU       S 4820  33.404   3.625   6.915
   10AU     LIG 4821  33.506   3.913   6.561
   10AU     LIG 4822  33.145   4.045   6.288
   10AU     LIG 4823  32.996   4.461   6.134
   10AU     LIG 4824  32.782   4.903   6.140
   10AU     LIG 4825  32.639   5.380   6.164
   10AU    AUSL 4826  33.210   2.942   7.742
   10AU    AUSL 4827  33.157   2.583   7.408
   10AU     AUL 4828  33.056   2.924   7.464
   10AU       S 4829  32.898   2.501   7.623
   10AU     LIG 4830  32.574   2.365   7.339
   10AU     LIG 4831  32.192   2.124   7.430
   10AU     LIG 4832  31.806   2.024   7.202
   10AU     LIG 4833  31.392   1.824   7.180
   10AU     LIG 4834  30.957   1.966   7.149
   10AU       S 4835  33.123   2.885   7.982
   10AU     LIG 4836  32.685   3.010   7.842
   10AU     LIG 4837  32.186   3.064   7.903
   10AU     LIG 4838  31.725   3.234   8.025
   10AU     LIG 4839  31.264   3.401   8.112
   10AU     LIG 4840  30.896   3.553   7.828
   10AU    AUSL 4841  34.830   2.099   7.524
   10AU    AUSL 4842  34.678   2.371   7.861
   10AU     AUL 4843  35.007   2.262   7.907
   10AU       S 4844  35.054   1.951   7.514
   10AU     LIG 4845  35.403   1.633   7.682
   10AU     LIG 4846  35.779   1.370   7.536
   10AU     LIG 4847  36.217   1.166   7.474
   10AU     LIG 4848  36.685   1.029   7.527
   10AU     LIG 4849  37.063   0.697   7.550
   10AU       S 4850  34.903   1.827   7.973
   10AU     LIG 4851  35.186   1.564   8.261
   10AU     LIG 4852  35.298   1.362   8.672
   10AU     LIG 4853  35.571   1.109   8.972
   10AU     LIG 4854  35.909   1.167   9.310
   10AU     LIG 4855  36.278   1.357   9.555
   10AU    AUSL 4856  34.803   2.484   7.316
   10AU    AUSL 4857  34.738   2.043   7.104
   10AU     AUL 4858  35.010   2.256   7.141
   10AU       S 4859  35.349   2.156   7.402
   10AU     LIG 4860  35.700   1.857   7.310
   10AU     LIG 4861  36.131   1.656   7.286
   10AU     LIG 4862  36.561   1.467   7.221
   10AU     LIG 4863  36.991   1.588   7.118
   10AU     LIG 4864  37.420   1.526   6.950
   10AU       S 4865  34.922   1.923   6.801
   10AU     LIG 4866  34.997   1.471   6.688
   10AU     LIG 4867  35.115   1.048   6.502
   10AU     LIG 4868  35.379   0.743   6.251
   10AU     LIG 4869  35.507   0.283   6.187
   10AU     LIG 4870  35.800  44.919   6.239
   10AU    AUSL 4871  33.335   2.206   7.580
   10AU    AUSL 4872  33.493   2.429   7.185
   10AU     AUL 4873  33.136   2.305   7.264
   10AU       S 4874  33.289   2.193   6.850
   10AU     LIG 4875  32.851   2.022   6.764
   10AU     LIG 4876  32.498   1.700   6.710
   10AU     LIG 4877  32.325   1.525   6.322
   10AU     LIG 4878  31.976   1.284   6.141
   10AU     LIG 4879  31.589   1.038   6.005
   10AU       S 4880  32.917   2.211   7.673
   10AU     LIG 4881  32.601   1.918   7.719
   10AU     LIG 4882  32.219   1.688   7.740
   10AU     LIG 4883  31.777   1.651   7.566
   10AU     LIG 4884  31.443   1.367   7.429
   10AU     LIG 4885  31.109   1.039   7.486
   10AU    AUSL 4886  33.472   2.610   7.722
   10AU    AUSL 4887  33.684   2.212   7.829
   10AU     AUL 4888  33.280   2.381   7.902
   10AU       S 4889  33.366   1.959   8.055
   10AU     LIG 4890  32.996   1.678   7.954
   10AU     LIG 4891  32.611   1.385   8.008
   10AU     LIG 4892  32.415   1.053   8.320
   10AU     LIG 4893  32.246   0.696   8.628
   10AU     LIG 4894  31.986   0.255   8.683
   10AU       S 4895  32.869   2.525   7.776
   10AU     LIG 4896  32.395   2.590   7.757
   10AU     LIG 4897  31.940   2.523   7.652
   10AU     LIG 4898  31.668   2.144   7.680
   10AU     LIG 4899  31.290   1.867   7.678
   10AU     LIG 4900  30.872   1.776   7.888
   10AU    AUSL 4901  34.200   3.398   7.888
   10AU    AUSL 4902  33.757   3.445   7.841
   10AU     AUL 4903  34.016   3.505   8.190
   10AU       S 4904  33.638   3.645   7.951
   10AU     LIG 4905  33.347   3.885   8.224
   10AU     LIG 4906  33.394   4.067   8.643
   10AU     LIG 4907  33.254   4.368   8.971
   10AU     LIG 4908  32.913   4.693   9.065
   10AU     LIG 4909  32.561   5.018   9.058
   10AU       S 4910  34.223   3.845   7.958
   10AU     LIG 4911  34.322   3.929   8.377
   10AU     LIG 4912  34.211   4.344   8.569
   10AU     LIG 4913  34.169   4.596   8.976
   10AU     LIG 4914  34.310   4.891   9.338
   10AU     LIG 4915  34.389   5.247   9.656
   10AU    AUSL 4916  34.015   3.664   7.576
   10AU    AUSL 4917  34.323   3.588   7.180
   10AU     AUL 4918  34.126   3.859   7.316
   10AU       S 4919  34.072   3.871   7.791
   10AU     LIG 4920  34.177   4.313   8.042
   10AU     LIG 4921  34.157   4.774   8.077
   10AU     LIG 4922  34.105   5.252   8.031
   10AU     LIG 4923  34.002   5.732   8.159
   10AU     LIG 4924  33.779   6.163   8.313
   10AU       S 4925  34.188   3.868   6.853
   10AU     LIG 4926  34.530   4.115   6.829
   10AU     LIG 4927  34.646   4.566   6.843
   10AU     LIG 4928  34.578   4.984   6.628
   10AU     LIG 4929  34.702   5.441   6.538
   10AU     LIG 4930  34.498   5.859   6.697
   10AU    AUSL 4931  34.469   3.586   7.592
   10AU    AUSL 4932  34.483   3.295   8.189
   10AU     AUL 4933  34.568   3.543   7.949
   10AU       S 4934  34.724   3.383   8.390
   10AU     LIG 4935  35.076   3.325   8.724
   10AU     LIG 4936  35.334   3.452   9.089
   10AU     LIG 4937  35.550   3.805   9.300
   10AU     LIG 4938  35.754   4.186   9.484
   10AU     LIG 4939  35.698   4.555   9.788
   10AU       S 4940  34.419   3.909   7.694
   10AU     LIG 4941  34.655   4.112   8.031
   10AU     LIG 4942  34.601   4.524   8.254
   10AU     LIG 4943  34.599   5.004   8.212
   10AU     LIG 4944  34.531   5.479   8.227
   10AU     LIG 4945  34.453   5.948   8.300
   10AU    AUSL 4946  34.089   2.046   7.945
   10AU    AUSL 4947  34.506   1.975   7.781
   10AU     AUL 4948  34.306   1.874   8.158
   10AU       S 4949  34.095   1.487   8.013
   10AU     LIG 4950  34.125   1.082   8.183
   10AU     LIG 4951  33.871   0.721   8.267
   10AU     LIG 4952  33.694   0.365   8.481
   10AU     LIG 4953  33.649   0.161   8.888
   10AU     LIG 4954  34.023  44.997   9.102
   10AU       S 4955  34.650   1.766   7.827
   10AU     LIG 4956  34.603   1.325   8.030
   10AU     LIG 4957  34.910   1.128   8.354
   10AU     LIG 4958  35.269   0.867   8.553
   10AU     LIG 4959  35.480   0.586   8.874
   10AU     LIG 4960  35.639   0.131   8.965
   10AU    AUSL 4961  33.747   1.819   7.689
   10AU    AUSL 4962  33.804   2.140   8.255
   10AU     AUL 4963  33.811   1.857   8.033
   10AU       S 4964  33.865   1.419   7.848
   10AU     LIG 4965  33.772   0.926   7.787
   10AU     LIG 4966  33.635   0.442   7.906
   10AU     LIG 4967  33.290   0.230   8.198
   10AU     LIG 4968  33.026  44.824   8.252
   10AU     LIG 4969  33.028  44.292   8.278
   10AU       S 4970  33.529   2.036   8.369
   10AU     LIG 4971  33.146   1.714   8.456
   10AU     LIG 4972  32.871   1.351   8.458
   10AU     LIG 4973  32.665   1.063   8.766
   10AU     LIG 4974  32.463   0.874   9.138
   10AU     LIG 4975  32.504   0.652   9.553
   10AU    AUSL 4976  34.179   1.745   7.630
   10AU    AUSL 4977  33.947   2.001   7.340
   10AU     AUL 4978  33.840   1.650   7.440
   10AU       S 4979  34.211   1.536   7.205
   10AU     LIG 4980  33.942   1.103   7.290
   10AU     LIG 4981  33.758   0.606   7.201
   10AU     LIG 4982  33.649   0.162   6.941
   10AU     LIG 4983  33.463  44.834   6.611
   10AU     LIG 4984  33.246  44.383   6.635
   10AU       S 4985  34.193   1.554   7.765
   10AU     LIG 4986  34.257   1.097   7.695
   10AU     LIG 4987  34.195   0.652   7.860
   10AU     LIG 4988  34.088   0.264   8.129
   10AU     LIG 4989  34.196  44.834   8.325
   10AU     LIG 4990  34.289  44.348   8.456
   10AU    AUSL 4991  34.117   3.384   6.842
   10AU    AUSL 4992  34.612   3.283   7.267
   10AU     AUL 4993  34.465   3.503   6.879
   10AU       S 4994  34.066   3.647   6.646
   10AU     LIG 4995  34.144   4.038   6.389
   10AU     LIG 4996  34.451   4.392   6.396
   10AU     LIG 4997  34.429   4.790   6.164
   10AU     LIG 4998  34.406   5.113   5.823
   10AU     LIG 4999  34.493   5.466   5.514
   10AU       S 5000  34.831   3.483   7.149
   10AU     LIG 5001  35.267   3.718   6.970
   10AU     LIG 5002  35.530   3.793   6.566
   10AU     LIG 5003  35.741   4.047   6.211
   10AU     LIG 5004  36.084   4.348   6.043
   10AU     LIG 5005  36.415   4.707   6.117
   10AU    AUSL 5006  33.965   3.360   7.287
   10AU    AUSL 5007  33.871   3.064   6.965
   10AU     AUL 5008  33.832   3.518   7.043
   10AU       S 5009  33.962   3.904   6.870
   10AU     LIG 5010  34.089   4.324   7.022
   10AU     LIG 5011  34.164   4.698   6.764
   10AU     LIG 5012  33.936   5.056   6.665
   10AU     LIG 5013  33.820   5.543   6.661
   10AU     LIG 5014  33.813   6.049   6.770
   10AU       S 5015  33.665   3.326   6.654
   10AU     LIG 5016  33.742   3.562   6.269
   10AU     LIG 5017  33.507   3.846   5.995
   10AU     LIG 5018  33.204   4.054   5.692
   10AU     LIG 5019  33.000   4.135   5.255
   10AU     LIG 5020  32.994   4.361   4.825
   10AU    AUSL 5021  34.140   1.941   6.940
   10AU    AUSL 5022  33.529   1.984   7.258
   10AU     AUL 5023  33.794   1.828   7.000
   10AU       S 5024  33.335   1.940   7.046
   10AU     LIG 5025  33.018   1.613   7.041
   10AU     LIG 5026  32.728   1.289   6.862
   10AU     LIG 5027  32.283   1.170   6.684
   10AU     LIG 5028  31.942   0.868   6.470
   10AU     LIG 5029  31.788   0.399   6.369
   10AU       S 5030  34.187   1.559   7.036
   10AU     LIG 5031  34.174   1.133   6.834
   10AU     LIG 5032  34.025   0.686   6.763
   10AU     LIG 5033  33.934   0.276   6.523
   10AU     LIG 5034  33.991  44.879   6.240
   10AU     LIG 5035  34.051  44.884   5.761
   10AU    AUSL 5036  34.383   1.967   7.321
   10AU    AUSL 5037  34.402   2.285   6.953
   10AU     AUL 5038  34.469   1.908   6.918
   10AU       S 5039  34.475   1.619   7.288
   10AU     LIG 5040  34.485   1.125   7.244
   10AU     LIG 5041  34.263   0.692   7.250
   10AU     LIG 5042  34.149   0.263   7.039
   10AU     LIG 5043  34.079  44.870   6.780
   10AU     LIG 5044  34.356  44.608   6.502
   10AU       S 5045  34.688   2.110   6.572
   10AU     LIG 5046  34.584   1.692   6.463
   10AU     LIG 5047  34.792   1.358   6.219
   10AU     LIG 5048  35.047   1.043   5.981
   10AU     LIG 5049  35.313   0.742   5.727
   10AU     LIG 5050  35.550   0.659   5.331
   11POPC   NC3 5051  27.955  30.626   9.407
   11POPC   PO4 5052  28.587  30.769   9.448
   11POPC   GL1 5053  28.329  30.766   9.094
   11POPC   GL2 5054  28.138  31.013   9.095
   11POPC   C1A 5055  28.126  30.707   8.687
   11POPC   D2A 5056  28.370  30.665   8.309
   11POPC   C3A 5057  28.307  30.588   7.868
   11POPC   C4A 5058  28.569  30.370   7.572
   11POPC   C1B 5059  28.059  31.240   8.782
   11POPC   C2B 5060  28.140  31.141   8.394
   11POPC   C3B 5061  27.902  31.108   8.035
   11POPC   C4B 5062  28.039  30.980   7.639
   12POPC   NC3 5063  37.702   7.780   9.385
   12POPC   PO4 5064  38.120   7.323   9.485
   12POPC   GL1 5065  37.866   7.194   9.110
   12POPC   GL2 5066  37.529   7.366   9.097
   12POPC   C1A 5067  37.843   7.403   8.680
   12POPC   D2A 5068  37.875   7.592   8.265
   12POPC   C3A 5069  37.680   7.336   7.932
   12POPC   C4A 5070  37.858   7.222   7.529
   12POPC   C1B 5071  37.460   7.718   8.774
   12POPC   C2B 5072  37.544   7.952   8.421
   12POPC   C3B 5073  37.504   7.836   8.002
   12POPC   C4B 5074  37.260   8.004   7.728
   13POPC   NC3 5075  28.236  23.555   9.500
   13POPC   PO4 5076  28.836  24.086   9.504
   13POPC   GL1 5077  28.585  23.804   9.178
   13POPC   GL2 5078  28.219  23.802   9.059
   13POPC   C1A 5079  28.566  23.622   8.744
   13POPC   D2A 5080  28.832  23.548   8.388
   13POPC   C3A 5081  28.622  23.639   7.993
   13POPC   C4A 5082  28.634  24.049   7.789
   13POPC   C1B 5083  28.322  24.089   8.724
   13POPC   C2B 5084  28.367  24.022   8.272
   13POPC   C3B 5085  28.132  23.783   7.974
   13POPC   C4B 5086  28.003  23.807   7.549
   14POPC   NC3 5087  14.784  18.831   9.350
   14POPC   PO4 5088  14.833  18.160   9.533
   14POPC   GL1 5089  15.029  18.231   9.132
   14POPC   GL2 5090  15.336  18.028   9.107
   14POPC   C1A 5091  15.208  18.346   8.732
   14POPC   D2A 5092  15.004  18.410   8.346
   14POPC   C3A 5093  15.157  18.429   7.932
   14POPC   C4A 5094  15.196  18.156   7.608
   14POPC   C1B 5095  15.502  17.907   8.742
   14POPC   C2B 5096  15.335  18.010   8.356
   14POPC   C3B 5097  15.521  18.068   7.990
   14POPC   C4B 5098  15.456  17.716   7.750
   15POPC   NC3 5099  13.154  17.393   9.407
   15POPC   PO4 5100  13.714  17.124   9.691
   15POPC   GL1 5101  13.969  17.225   9.145
   15POPC   GL2 5102  13.719  17.518   8.961
   15POPC   C1A 5103  13.856  17.095   8.697
   15POPC   D2A 5104  13.593  17.398   8.486
   15POPC   C3A 5105  13.614  17.413   8.047
   15POPC   C4A 5106  13.285  17.463   7.772
   15POPC   C1B 5107  13.338  17.721   8.819
   15POPC   C2B 5108  13.260  17.832   8.406
   15POPC   C3B 5109  13.452  17.899   8.027
   15POPC   C4B 5110  13.354  17.959   7.631
   16POPC   NC3 5111   1.623  21.053   9.437
   16POPC   PO4 5112   2.143  21.440   9.752
   16POPC   GL1 5113   2.192  21.461   9.265
   16POPC   GL2 5114   1.986  21.277   9.150
   16POPC   C1A 5115   2.062  21.592   8.780
   16POPC   D2A 5116   2.283  21.473   8.371
   16POPC   C3A 5117   2.053  21.388   8.003
   16POPC   C4A 5118   2.214  21.516   7.617
   16POPC   C1B 5119   1.844  21.090   8.778
   16POPC   C2B 5120   1.705  21.059   8.387
   16POPC   C3B 5121   1.904  20.910   8.047
   16POPC   C4B 5122   1.792  20.964   7.654
   17POPC   NC3 5123   8.453  33.949   9.488
   17POPC   PO4 5124   7.827  33.942   9.201
   17POPC   GL1 5125   8.207  33.997   9.051
   17POPC   GL2 5126   8.363  33.665   9.044
   17POPC   C1A 5127   8.297  34.029   8.653
   17POPC   D2A 5128   8.055  33.917   8.314
   17POPC   C3A 5129   8.324  33.712   8.051
   17POPC   C4A 5130   8.273  33.970   7.707
   17POPC   C1B 5131   8.050  33.571   8.711
   17POPC   C2B 5132   7.956  33.396   8.303
   17POPC   C3B 5133   7.886  33.536   7.863
   17POPC   C4B 5134   8.031  33.514   7.440
   18POPC   NC3 5135  13.132  39.400   9.434
   18POPC   PO4 5136  12.468  39.173   9.604
   18POPC   GL1 5137  12.676  39.260   9.206
   18POPC   GL2 5138  12.879  38.967   9.250
   18POPC   C1A 5139  12.786  39.453   8.794
   18POPC   D2A 5140  12.731  39.510   8.348
   18POPC   C3A 5141  12.670  39.287   7.966
   18POPC   C4A 5142  12.628  39.346   7.529
   18POPC   C1B 5143  13.093  39.067   8.864
   18POPC   C2B 5144  13.167  39.263   8.481
   18POPC   C3B 5145  13.157  39.345   8.047
   18POPC   C4B 5146  13.065  39.102   7.688
   19POPC   NC3 5147   4.367  38.740   9.570
   19POPC   PO4 5148   4.420  38.126   9.621
   19POPC   GL1 5149   4.108  38.290   9.262
   19POPC   GL2 5150   4.087  38.659   9.106
   19POPC   C1A 5151   4.001  38.228   8.815
   19POPC   D2A 5152   4.027  38.324   8.367
   19POPC   C3A 5153   4.349  38.380   8.049
   19POPC   C4A 5154   4.281  38.639   7.678
   19POPC   C1B 5155   4.378  38.574   8.718
   19POPC   C2B 5156   4.696  38.583   8.347
   19POPC   C3B 5157   4.722  38.726   7.888
   19POPC   C4B 5158   4.710  38.601   7.413
   20POPC   NC3 5159  27.436  37.664   9.556
   20POPC   PO4 5160  27.975  37.284   9.316
   20POPC   GL1 5161  27.810  37.702   9.186
   20POPC   GL2 5162  27.530  37.529   9.082
   20POPC   C1A 5163  27.567  37.954   8.841
   20POPC   D2A 5164  27.376  37.669   8.550
   20POPC   C3A 5165  27.701  37.763   8.267
   20POPC   C4A 5166  27.696  37.833   7.847
   20POPC   C1B 5167  27.774  37.420   8.737
   20POPC   C2B 5168  27.656  37.250   8.392
   20POPC   C3B 5169  27.426  37.394   8.050
   20POPC   C4B 5170  27.536  37.344   7.640
   21POPC   NC3 5171   7.184  13.825   9.455
   21POPC   PO4 5172   7.612  13.272   9.411
   21POPC   GL1 5173   7.388  13.336   9.044
   21POPC   GL2 5174   7.223  13.641   8.975
   21POPC   C1A 5175   7.586  13.349   8.651
   21POPC   D2A 5176   7.522  13.446   8.246
   21POPC   C3A 5177   7.255  13.749   8.077
   21POPC   C4A 5178   7.370  13.486   7.732
   21POPC   C1B 5179   7.409  13.827   8.603
   21POPC   C2B 5180   7.795  13.877   8.391
   21POPC   C3B 5181   7.783  13.787   7.960
   21POPC   C4B 5182   7.505  14.011   7.705
   22POPC   NC3 5183  39.322  42.041   9.566
   22POPC   PO4 5184  39.448  42.761   9.401
   22POPC   GL1 5185  39.229  42.398   9.187
   22POPC   GL2 5186  39.365  42.124   9.045
   22POPC   C1A 5187  38.904  42.260   8.862
   22POPC   D2A 5188  38.860  42.368   8.442
   22POPC   C3A 5189  39.058  42.095   8.190
   22POPC   C4A 5190  38.979  41.931   7.812
   22POPC   C1B 5191  39.331  42.458   8.695
   22POPC   C2B 5192  39.468  42.381   8.269
   22POPC   C3B 5193  39.399  42.265   7.829
   22POPC   C4B 5194  39.624  42.354   7.417
   23POPC   NC3 5195  17.285   9.210   9.615
   23POPC   PO4 5196  17.796   8.818   9.582
   23POPC   GL1 5197  17.438   8.850   9.269
   23POPC   GL2 5198  17.687   9.053   9.089
   23POPC   C1A 5199  17.225   8.986   8.870
   23POPC   D2A 5200  17.480   9.057   8.498
   23POPC   C3A 5201  17.363   8.873   8.130
   23POPC   C4A 5202  17.208   8.796   7.757
   23POPC   C1B 5203  18.068   8.810   8.892
   23POPC   C2B 5204  18.060   8.700   8.460
   23POPC   C3B 5205  17.885   8.885   8.091
   23POPC   C4B 5206  17.725   8.965   7.682
   24POPC   NC3 5207   2.068  38.175   9.293
   24POPC   PO4 5208   1.918  38.666   9.706
   24POPC   GL1 5209   1.964  38.696   9.212
   24POPC   GL2 5210   2.321  38.583   9.096
   24POPC   C1A 5211   1.815  38.710   8.749
   24POPC   D2A 5212   1.890  38.335   8.495
   24POPC   C3A 5213   1.962  38.385   8.055
   24POPC   C4A 5214   2.226  38.267   7.694
   24POPC   C1B 5215   2.306  38.863   8.771
   24POPC   C2B 5216   2.162  38.799   8.380
   24POPC   C3B 5217   2.352  38.707   8.035
   24POPC   C4B 5218   2.226  38.766   7.664
   25POPC   NC3 5219  12.864   1.839   9.763
   25POPC   PO4 5220  12.843   2.347   9.307
   25POPC   GL1 5221  13.043   2.107   9.077
   25POPC   GL2 5222  13.107   1.766   9.227
   25POPC   C1A 5223  12.941   2.132   8.665
   25POPC   D2A 5224  13.137   2.115   8.305
   25POPC   C3A 5225  12.999   2.322   7.976
   25POPC   C4A 5226  13.097   2.215   7.589
   25POPC   C1B 5227  12.969   1.628   8.811
   25POPC   C2B 5228  12.746   1.697   8.423
   25POPC   C3B 5229  12.849   1.822   8.007
   25POPC   C4B 5230  12.630   2.039   7.725
   26POPC   NC3 5231  27.228  34.287   9.313
   26POPC   PO4 5232  27.742  34.552   9.701
   26POPC   GL1 5233  27.708  34.553   9.224
   26POPC   GL2 5234  27.832  34.857   9.111
   26POPC   C1A 5235  27.766  34.420   8.766
   26POPC   D2A 5236  27.527  34.267   8.385
   26POPC   C3A 5237  27.515  34.489   7.984
   26POPC   C4A 5238  27.149  34.593   7.734
   26POPC   C1B 5239  27.665  34.910   8.714
   26POPC   C2B 5240  27.597  35.148   8.358
   26POPC   C3B 5241  27.489  35.022   7.954
   26POPC   C4B 5242  27.689  35.138   7.669
   27POPC   NC3 5243   0.171  12.620   9.489
   27POPC   PO4 5244   0.565  13.060   9.407
   27POPC   GL1 5245   0.393  12.848   9.087
   27POPC   GL2 5246   0.113  13.036   9.115
   27POPC   C1A 5247   0.583  12.757   8.700
   27POPC   D2A 5248   0.623  13.046   8.348
   27POPC   C3A 5249   0.430  12.878   7.974
   27POPC   C4A 5250   0.673  12.513   7.893
   27POPC   C1B 5251   0.246  13.162   8.707
   27POPC   C2B 5252   0.121  13.162   8.286
   27POPC   C3B 5253   0.041  13.238   7.847
   27POPC   C4B 5254   0.142  13.091   7.399
   28POPC   NC3 5255  23.381  20.142   9.566
   28POPC   PO4 5256  22.769  19.876   9.430
   28POPC   GL1 5257  22.762  19.844   9.042
   28POPC   GL2 5258  22.729  20.140   8.951
   28POPC   C1A 5259  22.771  19.624   8.672
   28POPC   D2A 5260  22.696  19.502   8.273
   28POPC   C3A 5261  22.721  19.847   8.026
   28POPC   C4A 5262  22.793  20.009   7.614
   28POPC   C1B 5263  23.131  20.001   8.750
   28POPC   C2B 5264  23.140  19.826   8.352
   28POPC   C3B 5265  23.180  20.047   7.975
   28POPC   C4B 5266  23.218  20.276   7.631
   29POPC   NC3 5267   8.239  31.163   9.338
   29POPC   PO4 5268   8.360  31.762   9.615
   29POPC   GL1 5269   8.342  31.635   9.169
   29POPC   GL2 5270   8.544  31.337   8.989
   29POPC   C1A 5271   8.160  31.578   8.752
   29POPC   D2A 5272   8.419  31.589   8.386
   29POPC   C3A 5273   8.184  31.636   8.019
   29POPC   C4A 5274   8.187  31.458   7.686
   29POPC   C1B 5275   8.378  31.126   8.595
   29POPC   C2B 5276   8.231  31.138   8.153
   29POPC   C3B 5277   8.513  31.100   7.804
   29POPC   C4B 5278   8.656  30.972   7.370
   30POPC   NC3 5279  27.096  29.472   9.698
   30POPC   PO4 5280  26.700  30.098   9.660
   30POPC   GL1 5281  26.776  29.983   9.237
   30POPC   GL2 5282  27.109  29.830   9.310
   30POPC   C1A 5283  26.644  30.065   8.802
   30POPC   D2A 5284  26.448  30.015   8.368
   30POPC   C3A 5285  26.705  29.971   7.999
   30POPC   C4A 5286  26.652  29.683   7.676
   30POPC   C1B 5287  27.137  29.850   8.869
   30POPC   C2B 5288  26.989  29.949   8.450
   30POPC   C3B 5289  27.204  29.946   8.097
   30POPC   C4B 5290  27.146  29.817   7.693
   31POPC   NC3 5291   7.574  34.208   9.466
   31POPC   PO4 5292   7.502  34.843   9.486
   31POPC   GL1 5293   7.372  34.549   9.137
   31POPC   GL2 5294   7.034  34.387   9.169
   31POPC   C1A 5295   7.444  34.420   8.697
   31POPC   D2A 5296   7.704  34.306   8.328
   31POPC   C3A 5297   7.568  34.520   7.966
   31POPC   C4A 5298   7.172  34.464   7.802
   31POPC   C1B 5299   6.999  34.660   8.779
   31POPC   C2B 5300   7.109  34.746   8.324
   31POPC   C3B 5301   6.937  34.890   7.901
   31POPC   C4B 5302   7.200  35.059   7.601
   32POPC   NC3 5303  32.203   6.398   9.646
   32POPC   PO4 5304  32.151   7.054   9.683
   32POPC   GL1 5305  32.205   6.763   9.293
   32POPC   GL2 5306  32.016   6.456   9.181
   32POPC   C1A 5307  32.379   6.722   8.876
   32POPC   D2A 5308  32.566   6.805   8.477
   32POPC   C3A 5309  32.355   6.802   8.095
   32POPC   C4A 5310  32.372   6.593   7.680
   32POPC   C1B 5311  32.053   6.306   8.777
   32POPC   C2B 5312  32.074   6.455   8.366
   32POPC   C3B 5313  32.162   6.262   7.988
   32POPC   C4B 5314  31.971   6.247   7.592
   33POPC   NC3 5315  25.635  39.416   9.549
   33POPC   PO4 5316  25.095  39.082   9.829
   33POPC   GL1 5317  25.235  39.153   9.327
   33POPC   GL2 5318  25.295  39.510   9.191
   33POPC   C1A 5319  25.225  39.152   8.834
   33POPC   D2A 5320  25.111  38.995   8.403
   33POPC   C3A 5321  25.200  39.190   8.002
   33POPC   C4A 5322  25.080  39.289   7.546
   33POPC   C1B 5323  25.609  39.495   8.818
   33POPC   C2B 5324  25.561  39.465   8.345
   33POPC   C3B 5325  25.546  39.542   7.879
   33POPC   C4B 5326  25.454  39.630   7.429
   34POPC   NC3 5327  24.265  44.008   9.290
   34POPC   PO4 5328  24.771  43.656   9.558
   34POPC   GL1 5329  24.582  43.617   9.137
   34POPC   GL2 5330  24.741  43.959   9.070
   34POPC   C1A 5331  24.524  43.741   8.686
   34POPC   D2A 5332  24.444  44.068   8.367
   34POPC   C3A 5333  24.466  43.848   7.970
   34POPC   C4A 5334  24.396  43.489   7.699
   34POPC   C1B 5335  24.885  44.171   8.654
   34POPC   C2B 5336  24.864  44.306   8.175
   34POPC   C3B 5337  24.840  44.110   7.750
   34POPC   C4B 5338  24.646  43.839   7.430
   35POPC   NC3 5339  11.518   6.323   9.374
   35POPC   PO4 5340  11.065   6.762   9.476
   35POPC   GL1 5341  11.375   6.775   9.142
   35POPC   GL2 5342  11.225   6.521   9.027
   35POPC   C1A 5343  11.529   6.696   8.681
   35POPC   D2A 5344  11.415   6.462   8.302
   35POPC   C3A 5345  11.733   6.577   7.989
   35POPC   C4A 5346  11.846   6.828   7.663
   35POPC   C1B 5347  11.037   6.525   8.689
   35POPC   C2B 5348  10.851   6.625   8.367
   35POPC   C3B 5349  10.960   6.498   7.972
   35POPC   C4B 5350  11.339   6.370   7.765
   36POPC   NC3 5351  26.229  20.111   9.657
   36POPC   PO4 5352  25.778  20.604   9.546
   36POPC   GL1 5353  26.070  20.589   9.209
   36POPC   GL2 5354  26.353  20.387   9.232
   36POPC   C1A 5355  25.958  20.743   8.815
   36POPC   D2A 5356  25.790  20.566   8.469
   36POPC   C3A 5357  25.991  20.607   8.101
   36POPC   C4A 5358  25.870  20.779   7.730
   36POPC   C1B 5359  26.463  20.219   8.818
   36POPC   C2B 5360  26.344  20.362   8.427
   36POPC   C3B 5361  26.313  20.200   8.005
   36POPC   C4B 5362  26.072  20.317   7.671
   37POPC   NC3 5363  39.038  38.598   9.393
   37POPC   PO4 5364  39.463  38.106   9.462
   37POPC   GL1 5365  39.339  38.318   9.081
   37POPC   GL2 5366  39.001  38.310   8.972
   37POPC   C1A 5367  39.438  38.509   8.663
   37POPC   D2A 5368  39.653  38.789   8.342
   37POPC   C3A 5369  39.586  38.611   7.942
   37POPC   C4A 5370  39.486  38.795   7.549
   37POPC   C1B 5371  38.983  38.182   8.557
   37POPC   C2B 5372  39.157  38.430   8.233
   37POPC   C3B 5373  39.061  38.515   7.846
   37POPC   C4B 5374  38.732  38.435   7.547
   38POPC   NC3 5375  19.313  38.278   9.434
   38POPC   PO4 5376  18.817  38.747   9.447
   38POPC   GL1 5377  18.796  38.375   9.166
   38POPC   GL2 5378  18.966  38.047   9.100
   38POPC   C1A 5379  18.968  38.458   8.771
   38POPC   D2A 5380  19.210  38.698   8.535
   38POPC   C3A 5381  19.107  38.652   8.096
   38POPC   C4A 5382  19.358  38.623   7.742
   38POPC   C1B 5383  19.268  38.053   8.748
   38POPC   C2B 5384  19.264  38.190   8.320
   38POPC   C3B 5385  19.113  38.172   7.897
   38POPC   C4B 5386  19.383  38.147   7.546
   39POPC   NC3 5387  43.239  23.106   9.555
   39POPC   PO4 5388  42.541  23.069   9.552
   39POPC   GL1 5389  42.796  23.194   9.195
   39POPC   GL2 5390  42.956  22.875   9.164
   39POPC   C1A 5391  43.076  23.242   8.814
   39POPC   D2A 5392  43.375  23.185   8.470
   39POPC   C3A 5393  43.239  22.928   8.102
   39POPC   C4A 5394  43.042  23.033   7.688
   39POPC   C1B 5395  43.105  22.709   8.763
   39POPC   C2B 5396  43.061  22.508   8.380
   39POPC   C3B 5397  42.867  22.563   8.014
   39POPC   C4B 5398  43.176  22.548   7.731
   40POPC   NC3 5399  38.346   8.963   9.778
   40POPC   PO4 5400  38.869   8.880   9.383
   40POPC   GL1 5401  38.461   9.016   9.258
   40POPC   GL2 5402  38.642   9.110   8.994
   40POPC   C1A 5403  38.207   8.818   8.909
   40POPC   D2A 5404  38.098   8.771   8.477
   40POPC   C3A 5405  38.351   8.919   8.146
   40POPC   C4A 5406  38.422   8.787   7.763
   40POPC   C1B 5407  38.559   9.055   8.599
   40POPC   C2B 5408  38.740   9.241   8.282
   40POPC   C3B 5409  38.780   9.161   7.896
   40POPC   C4B 5410  38.938   8.797   7.719
   41POPC   NC3 5411   9.071  30.612   9.306
   41POPC   PO4 5412   8.691  30.060   9.570
   41POPC   GL1 5413   8.986  30.076   9.182
   41POPC   GL2 5414   9.245  30.253   9.007
   41POPC   C1A 5415   9.027  29.783   8.828
   41POPC   D2A 5416   8.738  29.819   8.469
   41POPC   C3A 5417   8.949  29.809   8.061
   41POPC   C4A 5418   9.041  29.711   7.642
   41POPC   C1B 5419   8.929  30.273   8.684
   41POPC   C2B 5420   8.814  30.307   8.245
   41POPC   C3B 5421   8.775  30.243   7.799
   41POPC   C4B 5422   9.104  30.189   7.520
   42POPC   NC3 5423  36.741  44.841   9.954
   42POPC   PO4 5424  37.327  44.745   9.651
   42POPC   GL1 5425  37.137  44.625   9.253
   42POPC   GL2 5426  36.953  44.911   9.199
   42POPC   C1A 5427  36.930  44.519   8.850
   42POPC   D2A 5428  36.891  44.700   8.445
   42POPC   C3A 5429  36.879  44.447   8.083
   42POPC   C4A 5430  36.616  44.470   7.772
   42POPC   C1B 5431  37.257  44.925   8.850
   42POPC   C2B 5432  37.371  44.932   8.433
   42POPC   C3B 5433  37.191  44.861   8.025
   42POPC   C4B 5434  37.268  44.768   7.608
   43POPC   NC3 5435  39.643  36.881   9.415
   43POPC   PO4 5436  40.310  37.031   9.558
   43POPC   GL1 5437  40.110  36.843   9.186
   43POPC   GL2 5438  40.315  36.534   9.094
   43POPC   C1A 5439  39.866  37.065   8.832
   43POPC   D2A 5440  39.568  37.153   8.498
   43POPC   C3A 5441  39.715  37.133   8.046
   43POPC   C4A 5442  39.725  36.863   7.653
   43POPC   C1B 5443  40.008  36.586   8.761
   43POPC   C2B 5444  39.961  36.834   8.394
   43POPC   C3B 5445  40.081  36.776   7.998
   43POPC   C4B 5446  40.234  36.601   7.664
   44POPC   NC3 5447  14.838  17.701   9.527
   44POPC   PO4 5448  15.413  17.785   9.555
   44POPC   GL1 5449  15.351  17.524   9.167
   44POPC   GL2 5450  14.992  17.553   9.079
   44POPC   C1A 5451  15.314  17.408   8.721
   44POPC   D2A 5452  15.065  17.509   8.375
   44POPC   C3A 5453  15.147  17.355   7.982
   44POPC   C4A 5454  15.426  17.210   7.679
   44POPC   C1B 5455  15.007  17.864   8.766
   44POPC   C2B 5456  14.803  17.935   8.399
   44POPC   C3B 5457  14.920  17.973   8.000
   44POPC   C4B 5458  14.971  17.709   7.653
   45POPC   NC3 5459   3.698  37.816   9.434
   45POPC   PO4 5460   3.361  37.245   9.638
   45POPC   GL1 5461   3.263  37.494   9.201
   45POPC   GL2 5462   3.106  37.854   9.169
   45POPC   C1A 5463   3.286  37.630   8.737
   45POPC   D2A 5464   3.642  37.806   8.466
   45POPC   C3A 5465   3.645  37.633   8.041
   45POPC   C4A 5466   3.997  37.465   7.818
   45POPC   C1B 5467   3.122  38.130   8.780
   45POPC   C2B 5468   3.244  38.111   8.353
   45POPC   C3B 5469   3.591  38.143   8.067
   45POPC   C4B 5470   3.583  37.953   7.635
   46POPC   NC3 5471  28.514  20.866   9.798
   46POPC   PO4 5472  28.339  21.538   9.600
   46POPC   GL1 5473  28.322  21.552   9.191
   46POPC   GL2 5474  28.326  21.905   9.178
   46POPC   C1A 5475  28.180  21.370   8.804
   46POPC   D2A 5476  28.021  21.470   8.417
   46POPC   C3A 5477  28.333  21.343   8.144
   46POPC   C4A 5478  28.345  21.096   7.791
   46POPC   C1B 5479  28.433  21.820   8.769
   46POPC   C2B 5480  28.317  21.881   8.369
   46POPC   C3B 5481  28.546  21.864   8.019
   46POPC   C4B 5482  28.613  21.569   7.724
   47POPC   NC3 5483  39.559  18.213   9.417
   47POPC   PO4 5484  38.895  18.146   9.509
   47POPC   GL1 5485  39.137  18.165   9.154
   47POPC   GL2 5486  39.203  18.475   9.053
   47POPC   C1A 5487  39.163  17.981   8.771
   47POPC   D2A 5488  39.426  17.929   8.409
   47POPC   C3A 5489  39.342  18.132   8.026
   47POPC   C4A 5490  39.619  18.254   7.722
   47POPC   C1B 5491  39.116  18.455   8.609
   47POPC   C2B 5492  39.327  18.599   8.246
   47POPC   C3B 5493  39.293  18.638   7.792
   47POPC   C4B 5494  39.041  18.567   7.411
   48POPC   NC3 5495  11.871  10.438   9.456
   48POPC   PO4 5496  12.466  10.704   9.633
   48POPC   GL1 5497  12.258  10.663   9.180
   48POPC   GL2 5498  12.024  10.473   8.988
   48POPC   C1A 5499  12.180  10.868   8.737
   48POPC   D2A 5500  12.264  10.743   8.309
   48POPC   C3A 5501  11.989  10.604   7.992
   48POPC   C4A 5502  12.079  10.544   7.546
   48POPC   C1B 5503  11.884  10.204   8.683
   48POPC   C2B 5504  12.005  10.081   8.305
   48POPC   C3B 5505  11.964  10.090   7.896
   48POPC   C4B 5506  11.625  10.258   7.717
   49POPC   NC3 5507  42.860  26.625   9.581
   49POPC   PO4 5508  42.839  27.279   9.557
   49POPC   GL1 5509  42.885  27.015   9.198
   49POPC   GL2 5510  43.196  26.857   9.207
   49POPC   C1A 5511  42.882  26.891   8.751
   49POPC   D2A 5512  43.112  26.932   8.359
   49POPC   C3A 5513  42.928  27.009   7.939
   49POPC   C4A 5514  42.768  26.842   7.516
   49POPC   C1B 5515  43.302  26.571   8.884
   49POPC   C2B 5516  43.325  26.437   8.461
   49POPC   C3B 5517  43.481  26.486   8.045
   49POPC   C4B 5518  43.259  26.704   7.718
   50POPC   NC3 5519  14.257  16.177   9.446
   50POPC   PO4 5520  13.933  15.497   9.515
   50POPC   GL1 5521  14.067  15.794   9.153
   50POPC   GL2 5522  14.440  15.914   9.067
   50POPC   C1A 5523  14.089  16.062   8.752
   50POPC   D2A 5524  14.324  16.001   8.370
   50POPC   C3A 5525  14.178  16.161   8.000
   50POPC   C4A 5526  14.218  15.950   7.685
   50POPC   C1B 5527  14.710  15.865   8.721
   50POPC   C2B 5528  14.847  15.974   8.339
   50POPC   C3B 5529  14.682  15.964   7.958
   50POPC   C4B 5530  14.667  16.159   7.595
   51POPC   NC3 5531  33.343  39.139   9.584
   51POPC   PO4 5532  32.706  39.086   9.379
   51POPC   GL1 5533  32.815  39.480   9.185
   51POPC   GL2 5534  33.158  39.477   9.249
   51POPC   C1A 5535  32.914  39.507   8.765
   51POPC   D2A 5536  33.001  39.117   8.548
   51POPC   C3A 5537  32.950  39.132   8.125
   51POPC   C4A 5538  33.041  39.276   7.723
   51POPC   C1B 5539  33.407  39.581   8.905
   51POPC   C2B 5540  33.353  39.490   8.503
   51POPC   C3B 5541  33.341  39.473   8.092
   51POPC   C4B 5542  33.330  39.725   7.746
   52POPC   NC3 5543  36.685  38.530   9.550
   52POPC   PO4 5544  37.234  38.627   9.185
   52POPC   GL1 5545  36.976  38.527   8.910
   52POPC   GL2 5546  36.756  38.359   9.087
   52POPC   C1A 5547  36.857  38.367   8.524
   52POPC   D2A 5548  37.031  38.034   8.310
   52POPC   C3A 5549  37.002  38.239   7.933
   52POPC   C4A 5550  36.954  38.700   7.827
   52POPC   C1B 5551  36.452  38.443   8.830
   52POPC   C2B 5552  36.276  38.558   8.477
   52POPC   C3B 5553  36.534  38.619   8.116
   52POPC   C4B 5554  36.515  38.327   7.746
   53POPC   NC3 5555  13.486   3.241   9.610
   53POPC   PO4 5556  13.937   3.817   9.577
   53POPC   GL1 5557  13.609   3.729   9.253
   53POPC   GL2 5558  13.570   3.400   9.103
   53POPC   C1A 5559  13.335   3.817   8.889
   53POPC   D2A 5560  13.206   3.634   8.496
   53POPC   C3A 5561  13.376   3.819   8.119
   53POPC   C4A 5562  13.721   3.952   7.860
   53POPC   C1B 5563  13.719   3.536   8.669
   53POPC   C2B 5564  13.809   3.528   8.193
   53POPC   C3B 5565  13.819   3.306   7.772
   53POPC   C4B 5566  13.892   3.110   7.332
   54POPC   NC3 5567  28.486  33.701   9.452
   54POPC   PO4 5568  28.032  34.190   9.391
   54POPC   GL1 5569  28.203  33.962   9.089
   54POPC   GL2 5570  28.538  34.090   9.124
   54POPC   C1A 5571  28.269  33.693   8.739
   54POPC   D2A 5572  27.996  33.561   8.369
   54POPC   C3A 5573  28.123  33.763   7.990
   54POPC   C4A 5574  28.551  33.787   7.867
   54POPC   C1B 5575  28.536  34.154   8.711
   54POPC   C2B 5576  28.383  34.035   8.327
   54POPC   C3B 5577  28.180  34.288   7.998
   54POPC   C4B 5578  27.817  34.120   7.765
   55POPC   NC3 5579  15.329  11.796   9.548
   55POPC   PO4 5580  14.833  12.290   9.545
   55POPC   GL1 5581  14.953  11.994   9.221
   55POPC   GL2 5582  14.887  11.657   9.284
   55POPC   C1A 5583  15.198  11.988   8.826
   55POPC   D2A 5584  15.229  12.315   8.484
   55POPC   C3A 5585  15.299  12.257   8.030
   55POPC   C4A 5586  14.986  12.164   7.749
   55POPC   C1B 5587  14.795  11.666   8.836
   55POPC   C2B 5588  14.936  11.796   8.404
   55POPC   C3B 5589  15.177  11.741   8.020
   55POPC   C4B 5590  15.251  11.766   7.580
   56POPC   NC3 5591   7.989  10.463   9.533
   56POPC   PO4 5592   8.176  11.062   9.436
   56POPC   GL1 5593   8.383  10.807   9.123
   56POPC   GL2 5594   8.215  10.466   9.077
   56POPC   C1A 5595   8.363  10.739   8.679
   56POPC   D2A 5596   8.149  10.446   8.448
   56POPC   C3A 5597   8.352  10.468   8.107
   56POPC   C4A 5598   8.210  10.724   7.807
   56POPC   C1B 5599   8.407  10.171   8.775
   56POPC   C2B 5600   8.420   9.986   8.342
   56POPC   C3B 5601   8.451  10.014   7.903
   56POPC   C4B 5602   8.517  10.343   7.621
   57POPC   NC3 5603  10.021  36.646   9.718
   57POPC   PO4 5604  10.210  36.087   9.548
   57POPC   GL1 5605   9.960  35.843   9.189
   57POPC   GL2 5606   9.581  35.905   9.169
   57POPC   C1A 5607   9.784  35.699   8.753
   57POPC   D2A 5608   9.749  35.570   8.328
   57POPC   C3A 5609   9.761  35.898   8.050
   57POPC   C4A 5610   9.589  35.935   7.629
   57POPC   C1B 5611   9.686  36.188   8.803
   57POPC   C2B 5612   9.774  36.307   8.350
   57POPC   C3B 5613   9.684  36.387   7.872
   57POPC   C4B 5614   9.384  36.370   7.464
   58POPC   NC3 5615   1.251  22.279   9.687
   58POPC   PO4 5616   1.459  21.696   9.615
   58POPC   GL1 5617   1.212  21.905   9.236
   58POPC   GL2 5618   1.254  22.229   9.092
   58POPC   C1A 5619   0.976  21.834   8.845
   58POPC   D2A 5620   1.128  21.744   8.419
   58POPC   C3A 5621   1.013  21.983   8.041
   58POPC   C4A 5622   0.885  22.115   7.639
   58POPC   C1B 5623   1.302  22.173   8.613
   58POPC   C2B 5624   1.394  22.297   8.169
   58POPC   C3B 5625   1.465  22.071   7.829
   58POPC   C4B 5626   1.721  21.770   7.847
   59POPC   NC3 5627  23.877   1.453   9.636
   59POPC   PO4 5628  23.759   0.781   9.525
   59POPC   GL1 5629  23.636   1.050   9.172
   59POPC   GL2 5630  23.532   1.384   9.244
   59POPC   C1A 5631  23.754   1.228   8.761
   59POPC   D2A 5632  23.966   1.230   8.339
   59POPC   C3A 5633  23.747   1.118   7.923
   59POPC   C4A 5634  23.370   1.049   7.645
   59POPC   C1B 5635  23.346   1.539   8.859
   59POPC   C2B 5636  23.420   1.480   8.408
   59POPC   C3B 5637  23.377   1.486   7.950
   59POPC   C4B 5638  23.629   1.471   7.546
   60POPC   NC3 5639  26.594  19.544   9.283
   60POPC   PO4 5640  26.675  20.164   9.573
   60POPC   GL1 5641  26.768  20.032   9.168
   60POPC   GL2 5642  27.006  19.752   9.091
   60POPC   C1A 5643  26.997  20.198   8.823
   60POPC   D2A 5644  27.088  20.127   8.402
   60POPC   C3A 5645  26.803  19.906   8.138
   60POPC   C4A 5646  26.779  19.830   7.700
   60POPC   C1B 5647  26.769  19.764   8.666
   60POPC   C2B 5648  26.651  19.432   8.325
   60POPC   C3B 5649  26.531  19.396   7.874
   60POPC   C4B 5650  26.557  19.455   7.404
   61POPC   NC3 5651   9.635  13.261   9.430
   61POPC   PO4 5652   9.794  13.903   9.561
   61POPC   GL1 5653   9.627  13.754   9.182
   61POPC   GL2 5654   9.918  13.557   9.074
   61POPC   C1A 5655   9.650  13.888   8.756
   61POPC   D2A 5656   9.908  13.638   8.488
   61POPC   C3A 5657   9.707  13.636   8.088
   61POPC   C4A 5658   9.673  13.905   7.716
   61POPC   C1B 5659   9.601  13.369   8.797
   61POPC   C2B 5660   9.676  13.181   8.399
   61POPC   C3B 5661   9.866  13.167   7.996
   61POPC   C4B 5662   9.689  13.393   7.640
   62POPC   NC3 5663  44.412  20.155   9.303
   62POPC   PO4 5664  44.797  19.630   9.404
   62POPC   GL1 5665  44.878  19.877   9.063
   62POPC   GL2 5666  44.977  20.231   9.063
   62POPC   C1A 5667  44.589  19.913   8.719
   62POPC   D2A 5668  44.250  19.870   8.408
   62POPC   C3A 5669  44.432  19.955   8.011
   62POPC   C4A 5670  44.463  19.767   7.595
   62POPC   C1B 5671   0.088  20.102   8.657
   62POPC   C2B 5672  44.844  20.038   8.304
   62POPC   C3B 5673  44.918  19.828   7.924
   62POPC   C4B 5674  44.807  20.156   7.651
   63POPC   NC3 5675  30.142  29.338   9.540
   63POPC   PO4 5676  30.262  28.796   9.102
   63POPC   GL1 5677  29.929  29.033   8.987
   63POPC   GL2 5678  29.850  29.340   9.069
   63POPC   C1A 5679  29.893  29.187   8.592
   63POPC   D2A 5680  30.053  28.997   8.278
   63POPC   C3A 5681  29.782  29.184   8.007
   63POPC   C4A 5682  29.649  29.055   7.620
   63POPC   C1B 5683  29.535  29.514   8.752
   63POPC   C2B 5684  29.394  29.346   8.351
   63POPC   C3B 5685  29.443  29.551   7.911
   63POPC   C4B 5686  29.361  29.475   7.473
   64POPC   NC3 5687  19.004  44.800   9.474
   64POPC   PO4 5688  19.122  44.185   9.499
   64POPC   GL1 5689  18.858  44.439   9.135
   64POPC   GL2 5690  18.752  44.827   9.039
   64POPC   C1A 5691  18.753  44.490   8.675
   64POPC   D2A 5692  18.945  44.706   8.299
   64POPC   C3A 5693  18.912  44.549   7.877
   64POPC   C4A 5694  19.286  44.375   7.741
   64POPC   C1B 5695  19.158  44.849   8.770
   64POPC   C2B 5696  19.422  44.916   8.350
   64POPC   C3B 5697  19.231  44.964   7.923
   64POPC   C4B 5698  19.222  44.874   7.472
   65POPC   NC3 5699  31.866  21.286   9.411
   65POPC   PO4 5700  31.390  21.754   9.360
   65POPC   GL1 5701  31.470  21.392   9.106
   65POPC   GL2 5702  31.819  21.476   8.952
   65POPC   C1A 5703  31.420  21.156   8.731
   65POPC   D2A 5704  31.484  21.066   8.302
   65POPC   C3A 5705  31.732  21.351   8.137
   65POPC   C4A 5706  31.887  21.388   7.747
   65POPC   C1B 5707  31.572  21.671   8.655
   65POPC   C2B 5708  31.648  21.907   8.299
   65POPC   C3B 5709  31.598  21.803   7.871
   65POPC   C4B 5710  31.165  21.681   7.818
   66POPC   NC3 5711  44.592  26.354   9.619
   66POPC   PO4 5712  44.449  25.724   9.656
   66POPC   GL1 5713  44.646  25.807   9.247
   66POPC   GL2 5714  44.517  26.117   9.166
   66POPC   C1A 5715  44.856  25.962   8.825
   66POPC   D2A 5716  44.891  26.220   8.422
   66POPC   C3A 5717  44.973  25.991   8.016
   66POPC   C4A 5718  44.801  26.020   7.554
   66POPC   C1B 5719  44.375  25.810   8.809
   66POPC   C2B 5720  44.548  25.856   8.371
   66POPC   C3B 5721  44.494  26.156   7.987
   66POPC   C4B 5722  44.224  25.957   7.670
   67POPC   NC3 5723   5.934  32.214   9.669
   67POPC   PO4 5724   6.496  31.858   9.576
   67POPC   GL1 5725   6.160  32.058   9.236
   67POPC   GL2 5726   5.800  32.203   9.177
   67POPC   C1A 5727   5.985  31.970   8.774
   67POPC   D2A 5728   6.008  32.183   8.362
   67POPC   C3A 5729   5.852  32.136   7.935
   67POPC   C4A 5730   6.065  32.087   7.501
   67POPC   C1B 5731   5.622  32.323   8.723
   67POPC   C2B 5732   5.611  32.480   8.257
   67POPC   C3B 5733   5.538  32.514   7.790
   67POPC   C4B 5734   5.213  32.540   7.446
   68POPC   NC3 5735  21.370  34.965   9.732
   68POPC   PO4 5736  21.543  34.284   9.474
   68POPC   GL1 5737  21.309  34.376   9.119
   68POPC   GL2 5738  21.605  34.203   8.967
   68POPC   C1A 5739  21.354  34.523   8.688
   68POPC   D2A 5740  21.137  34.439   8.320
   68POPC   C3A 5741  21.264  34.675   7.985
   68POPC   C4A 5742  21.382  34.654   7.565
   68POPC   C1B 5743  21.806  34.280   8.570
   68POPC   C2B 5744  21.627  34.361   8.166
   68POPC   C3B 5745  21.782  34.383   7.751
   68POPC   C4B 5746  21.652  34.259   7.327
   69POPC   NC3 5747  34.949   9.103   9.370
   69POPC   PO4 5748  35.592   8.897   9.545
   69POPC   GL1 5749  35.389   8.742   9.137
   69POPC   GL2 5750  35.121   8.962   8.920
   69POPC   C1A 5751  35.318   8.548   8.735
   69POPC   D2A 5752  35.364   8.877   8.426
   69POPC   C3A 5753  35.273   8.784   8.011
   69POPC   C4A 5754  35.367   9.000   7.635
   69POPC   C1B 5755  35.099   9.270   8.588
   69POPC   C2B 5756  34.967   9.218   8.164
   69POPC   C3B 5757  35.060   9.378   7.737
   69POPC   C4B 5758  35.034   9.329   7.281
   70POPC   NC3 5759  40.366   7.004   9.511
   70POPC   PO4 5760  40.104   6.395   9.633
   70POPC   GL1 5761  40.031   6.571   9.254
   70POPC   GL2 5762  40.192   6.326   9.104
   70POPC   C1A 5763  39.834   6.587   8.850
   70POPC   D2A 5764  40.083   6.731   8.513
   70POPC   C3A 5765  39.860   6.724   8.163
   70POPC   C4A 5766  40.098   6.633   7.803
   70POPC   C1B 5767  40.090   6.176   8.697
   70POPC   C2B 5768  40.041   6.257   8.288
   70POPC   C3B 5769  40.265   6.173   7.954
   70POPC   C4B 5770  40.083   6.136   7.604
   71POPC   NC3 5771  33.150  37.563   9.525
   71POPC   PO4 5772  32.985  38.205   9.353
   71POPC   GL1 5773  32.993  37.943   9.040
   71POPC   GL2 5774  33.259  37.753   9.087
   71POPC   C1A 5775  32.980  38.018   8.622
   71POPC   D2A 5776  32.842  38.023   8.204
   71POPC   C3A 5777  32.753  37.594   8.108
   71POPC   C4A 5778  32.940  37.291   7.858
   71POPC   C1B 5779  33.165  37.497   8.783
   71POPC   C2B 5780  33.189  37.593   8.375
   71POPC   C3B 5781  33.252  37.761   7.980
   71POPC   C4B 5782  33.366  37.500   7.666
   72POPC   NC3 5783  22.511  37.003   9.362
   72POPC   PO4 5784  23.038  37.265   9.615
   72POPC   GL1 5785  23.161  36.930   9.264
   72POPC   GL2 5786  22.906  36.770   9.054
   72POPC   C1A 5787  23.324  36.939   8.817
   72POPC   D2A 5788  23.079  36.888   8.408
   72POPC   C3A 5789  23.193  36.838   7.957
   72POPC   C4A 5790  22.909  36.695   7.618
   72POPC   C1B 5791  22.822  37.151   8.779
   72POPC   C2B 5792  22.689  37.332   8.363
   72POPC   C3B 5793  22.631  37.178   7.929
   72POPC   C4B 5794  22.732  37.174   7.476
   73POPC   NC3 5795  44.762  37.179   9.392
   73POPC   PO4 5796  44.357  36.769   9.615
   73POPC   GL1 5797  44.575  36.598   9.196
   73POPC   GL2 5798  44.803  36.864   9.010
   73POPC   C1A 5799  44.523  36.574   8.716
   73POPC   D2A 5800  44.773  36.867   8.479
   73POPC   C3A 5801  44.939  36.753   8.108
   73POPC   C4A 5802  44.696  36.738   7.755
   73POPC   C1B 5803  44.890  37.277   8.763
   73POPC   C2B 5804   0.072  37.280   8.332
   73POPC   C3B 5805  44.877  37.235   7.917
   73POPC   C4B 5806  44.994  37.239   7.472
   74POPC   NC3 5807  13.806  28.626   9.968
   74POPC   PO4 5808  13.550  28.125   9.644
   74POPC   GL1 5809  13.438  27.932   9.200
   74POPC   GL2 5810  13.499  28.264   9.068
   74POPC   C1A 5811  13.310  27.962   8.711
   74POPC   D2A 5812  13.468  27.856   8.281
   74POPC   C3A 5813  13.484  28.143   7.914
   74POPC   C4A 5814  13.886  28.329   7.727
   74POPC   C1B 5815  13.469  28.439   8.628
   74POPC   C2B 5816  13.611  28.538   8.204
   74POPC   C3B 5817  13.740  28.799   7.859
   74POPC   C4B 5818  13.853  28.817   7.409
   75POPC   NC3 5819  27.745   1.650   9.372
   75POPC   PO4 5820  27.383   2.279   9.545
   75POPC   GL1 5821  27.507   2.097   9.130
   75POPC   GL2 5822  27.874   2.168   9.070
   75POPC   C1A 5823  27.439   1.992   8.662
   75POPC   D2A 5824  27.489   2.118   8.203
   75POPC   C3A 5825  27.476   1.885   7.811
   75POPC   C4A 5826  27.569   1.703   7.377
   75POPC   C1B 5827  27.944   1.837   8.730
   75POPC   C2B 5828  27.853   1.693   8.292
   75POPC   C3B 5829  28.027   1.853   7.905
   75POPC   C4B 5830  27.870   2.233   7.766
   76POPC   NC3 5831  42.629  28.643   9.588
   76POPC   PO4 5832  42.610  29.321   9.475
   76POPC   GL1 5833  42.510  29.196   9.044
   76POPC   GL2 5834  42.596  28.881   9.139
   76POPC   C1A 5835  42.105  29.161   8.774
   76POPC   D2A 5836  42.010  29.050   8.364
   76POPC   C3A 5837  42.255  29.266   8.051
   76POPC   C4A 5838  42.179  29.199   7.622
   76POPC   C1B 5839  42.411  28.736   8.741
   76POPC   C2B 5840  42.517  28.800   8.302
   76POPC   C3B 5841  42.359  28.796   7.888
   76POPC   C4B 5842  42.541  28.856   7.508
   77POPC   NC3 5843  44.154  43.394   9.361
   77POPC   PO4 5844  44.830  43.410   9.479
   77POPC   GL1 5845  44.635  43.202   9.149
   77POPC   GL2 5846  44.632  42.832   9.152
   77POPC   C1A 5847  44.564  43.116   8.718
   77POPC   D2A 5848  44.731  43.209   8.333
   77POPC   C3A 5849  44.471  43.307   8.007
   77POPC   C4A 5850  44.597  43.281   7.570
   77POPC   C1B 5851  44.482  42.624   8.786
   77POPC   C2B 5852  44.634  42.693   8.386
   77POPC   C3B 5853  44.689  42.782   7.966
   77POPC   C4B 5854  44.328  42.891   7.770
   78POPC   NC3 5855   8.429  26.545   9.706
   78POPC   PO4 5856   8.332  25.919   9.379
   78POPC   GL1 5857   8.247  25.983   8.970
   78POPC   GL2 5858   7.926  26.100   9.026
   78POPC   C1A 5859   8.375  26.226   8.595
   78POPC   D2A 5860   8.153  26.335   8.229
   78POPC   C3A 5861   8.370  26.258   7.910
   78POPC   C4A 5862   8.511  25.832   7.792
   78POPC   C1B 5863   7.916  26.006   8.576
   78POPC   C2B 5864   8.200  25.829   8.282
   78POPC   C3B 5865   8.023  25.662   7.946
   78POPC   C4B 5866   7.767  25.771   7.636
   79POPC   NC3 5867   2.072  11.547   9.407
   79POPC   PO4 5868   1.670  11.034   9.370
   79POPC   GL1 5869   1.981  11.135   9.064
   79POPC   GL2 5870   2.317  11.002   8.975
   79POPC   C1A 5871   1.952  11.107   8.634
   79POPC   D2A 5872   2.177  11.277   8.320
   79POPC   C3A 5873   1.838  11.461   8.115
   79POPC   C4A 5874   1.827  11.256   7.764
   79POPC   C1B 5875   2.302  11.464   8.792
   79POPC   C2B 5876   2.159  11.769   8.429
   79POPC   C3B 5877   2.273  11.683   8.001
   79POPC   C4B 5878   2.269  11.551   7.603
   80POPC   NC3 5879  11.007  21.710   9.456
   80POPC   PO4 5880  11.534  21.371   9.634
   80POPC   GL1 5881  11.431  21.255   9.248
   80POPC   GL2 5882  11.065  21.189   9.253
   80POPC   C1A 5883  11.368  21.373   8.832
   80POPC   D2A 5884  11.464  21.140   8.465
   80POPC   C3A 5885  11.328  21.303   8.086
   80POPC   C4A 5886  11.530  21.376   7.699
   80POPC   C1B 5887  10.857  21.286   8.850
   80POPC   C2B 5888  11.021  21.507   8.483
   80POPC   C3B 5889  10.939  21.656   8.084
   80POPC   C4B 5890  11.121  21.690   7.712
   81POPC   NC3 5891   1.908  27.535   9.615
   81POPC   PO4 5892   2.187  27.972   9.800
   81POPC   GL1 5893   2.166  27.905   9.338
   81POPC   GL2 5894   1.822  27.909   9.240
   81POPC   C1A 5895   2.151  27.604   8.971
   81POPC   D2A 5896   2.248  27.648   8.528
   81POPC   C3A 5897   2.092  27.474   8.120
   81POPC   C4A 5898   2.306  27.639   7.770
   81POPC   C1B 5899   1.883  27.979   8.765
   81POPC   C2B 5900   1.795  27.836   8.322
   81POPC   C3B 5901   1.847  27.868   7.852
   81POPC   C4B 5902   1.573  27.843   7.469
   82POPC   NC3 5903  42.659  37.305   9.432
   82POPC   PO4 5904  42.404  37.792   9.810
   82POPC   GL1 5905  42.387  37.726   9.278
   82POPC   GL2 5906  42.069  37.630   9.064
   82POPC   C1A 5907  42.470  37.939   8.904
   82POPC   D2A 5908  42.556  38.052   8.471
   82POPC   C3A 5909  42.330  37.936   8.130
   82POPC   C4A 5910  42.400  38.078   7.709
   82POPC   C1B 5911  42.161  37.676   8.595
   82POPC   C2B 5912  42.526  37.522   8.378
   82POPC   C3B 5913  42.461  37.445   7.951
   82POPC   C4B 5914  42.098  37.644   7.760
   83POPC   NC3 5915  40.604  36.688   9.495
   83POPC   PO4 5916  41.127  37.180   9.421
   83POPC   GL1 5917  40.890  36.921   9.136
   83POPC   GL2 5918  40.570  37.038   9.110
   83POPC   C1A 5919  40.899  36.918   8.697
   83POPC   D2A 5920  41.156  37.243   8.534
   83POPC   C3A 5921  41.132  37.289   8.101
   83POPC   C4A 5922  41.024  37.040   7.718
   83POPC   C1B 5923  40.375  36.946   8.719
   83POPC   C2B 5924  40.485  36.824   8.311
   83POPC   C3B 5925  40.550  36.954   7.874
   83POPC   C4B 5926  40.629  36.817   7.429
   84POPC   NC3 5927  40.855  31.795   9.781
   84POPC   PO4 5928  41.060  31.251   9.443
   84POPC   GL1 5929  41.012  31.445   9.047
   84POPC   GL2 5930  41.284  31.668   9.040
   84POPC   C1A 5931  40.685  31.552   8.702
   84POPC   D2A 5932  40.457  31.720   8.332
   84POPC   C3A 5933  40.550  31.486   7.958
   84POPC   C4A 5934  40.613  31.347   7.529
   84POPC   C1B 5935  41.118  31.810   8.694
   84POPC   C2B 5936  40.946  31.867   8.306
   84POPC   C3B 5937  40.974  31.768   7.905
   84POPC   C4B 5938  41.090  31.507   7.574
   85POPC   NC3 5939  25.400   3.019   9.801
   85POPC   PO4 5940  25.576   2.545   9.383
   85POPC   GL1 5941  25.334   2.732   9.061
   85POPC   GL2 5942  24.989   2.839   9.086
   85POPC   C1A 5943  25.138   2.694   8.624
   85POPC   D2A 5944  25.110   2.814   8.214
   85POPC   C3A 5945  25.358   2.596   7.927
   85POPC   C4A 5946  25.636   2.589   7.587
   85POPC   C1B 5947  25.275   3.145   8.796
   85POPC   C2B 5948  25.498   3.115   8.381
   85POPC   C3B 5949  25.404   3.127   7.925
   85POPC   C4B 5950  25.696   3.192   7.622
   86POPC   NC3 5951   4.003  35.474   9.390
   86POPC   PO4 5952   3.474  35.082   9.437
   86POPC   GL1 5953   3.580  35.383   9.101
   86POPC   GL2 5954   3.569  35.735   9.247
   86POPC   C1A 5955   3.736  35.389   8.629
   86POPC   D2A 5956   3.848  35.459   8.152
   86POPC   C3A 5957   3.680  35.384   7.724
   86POPC   C4A 5958   3.830  35.582   7.308
   86POPC   C1B 5959   3.455  35.792   8.820
   86POPC   C2B 5960   3.461  35.763   8.383
   86POPC   C3B 5961   3.483  35.855   7.950
   86POPC   C4B 5962   3.385  35.773   7.504
   87POPC   NC3 5963  23.521  18.444   9.448
   87POPC   PO4 5964  23.957  17.909   9.448
   87POPC   GL1 5965  23.755  18.136   9.095
   87POPC   GL2 5966  23.832  18.513   9.029
   87POPC   C1A 5967  23.634  18.210   8.665
   87POPC   D2A 5968  23.803  18.598   8.488
   87POPC   C3A 5969  23.831  18.588   8.032
   87POPC   C4A 5970  23.915  18.156   7.967
   87POPC   C1B 5971  23.414  18.638   8.835
   87POPC   C2B 5972  23.273  18.619   8.384
   87POPC   C3B 5973  23.362  18.369   7.982
   87POPC   C4B 5974  23.427  18.530   7.523
   88POPC   NC3 5975  10.497  18.660   9.404
   88POPC   PO4 5976  10.079  19.181   9.309
   88POPC   GL1 5977  10.458  19.106   9.047
   88POPC   GL2 5978  10.781  19.315   9.098
   88POPC   C1A 5979  10.423  18.906   8.629
   88POPC   D2A 5980  10.565  18.783   8.205
   88POPC   C3A 5981  10.400  19.008   7.823
   88POPC   C4A 5982  10.613  18.939   7.393
   88POPC   C1B 5983  10.908  19.084   8.737
   88POPC   C2B 5984  10.760  19.229   8.377
   88POPC   C3B 5985  10.856  19.172   7.973
   88POPC   C4B 5986  10.882  19.327   7.574
   89POPC   NC3 5987  14.684  14.295   9.527
   89POPC   PO4 5988  15.316  14.586   9.738
   89POPC   GL1 5989  15.276  14.627   9.260
   89POPC   GL2 5990  14.949  14.617   9.118
   89POPC   C1A 5991  15.284  14.432   8.805
   89POPC   D2A 5992  15.124  14.528   8.390
   89POPC   C3A 5993  15.372  14.454   8.029
   89POPC   C4A 5994  15.394  14.657   7.643
   89POPC   C1B 5995  15.005  14.878   8.743
   89POPC   C2B 5996  14.859  14.974   8.303
   89POPC   C3B 5997  14.917  14.658   7.935
   89POPC   C4B 5998  14.728  14.237   7.793
   90POPC   NC3 5999  30.519  19.677   9.435
   90POPC   PO4 6000  30.730  20.319   9.481
   90POPC   GL1 6001  30.767  19.995   9.128
   90POPC   GL2 6002  30.913  19.635   9.131
   90POPC   C1A 6003  30.653  19.878   8.735
   90POPC   D2A 6004  30.718  19.951   8.334
   90POPC   C3A 6005  30.603  19.625   8.083
   90POPC   C4A 6006  30.398  19.612   7.706
   90POPC   C1B 6007  31.122  19.654   8.745
   90POPC   C2B 6008  31.057  19.579   8.313
   90POPC   C3B 6009  31.180  19.727   7.907
   90POPC   C4B 6010  31.332  19.542   7.547
   91POPC   NC3 6011   9.106  27.062   9.417
   91POPC   PO4 6012   8.525  26.807   9.331
   91POPC   GL1 6013   8.876  26.663   9.098
   91POPC   GL2 6014   9.197  26.536   9.198
   91POPC   C1A 6015   8.930  26.605   8.671
   91POPC   D2A 6016   8.739  26.486   8.272
   91POPC   C3A 6017   8.856  26.716   7.904
   91POPC   C4A 6018   9.079  26.977   7.633
   91POPC   C1B 6019   9.306  26.255   8.831
   91POPC   C2B 6020   9.264  26.351   8.382
   91POPC   C3B 6021   9.322  26.638   8.061
   91POPC   C4B 6022   9.248  26.485   7.663
   92POPC   NC3 6023  34.033  10.350   9.488
   92POPC   PO4 6024  33.954  10.994   9.389
   92POPC   GL1 6025  34.039  10.639   9.027
   92POPC   GL2 6026  34.168  10.287   9.013
   92POPC   C1A 6027  34.084  10.509   8.543
   92POPC   D2A 6028  34.166  10.569   8.087
   92POPC   C3A 6029  33.910  10.569   7.690
   92POPC   C4A 6030  33.937  10.816   7.291
   92POPC   C1B 6031  33.824  10.115   8.734
   92POPC   C2B 6032  33.741  10.205   8.273
   92POPC   C3B 6033  33.590  10.198   7.856
   92POPC   C4B 6034  33.445  10.426   7.490
   93POPC   NC3 6035  24.700  38.371   9.619
   93POPC   PO4 6036  24.099  38.545   9.521
   93POPC   GL1 6037  24.354  38.324   9.192
   93POPC   GL2 6038  24.725  38.248   9.144
   93POPC   C1A 6039  24.437  38.450   8.764
   93POPC   D2A 6040  24.186  38.447   8.390
   93POPC   C3A 6041  24.409  38.518   8.050
   93POPC   C4A 6042  24.336  38.563   7.614
   93POPC   C1B 6043  24.952  38.286   8.799
   93POPC   C2B 6044  24.913  38.530   8.477
   93POPC   C3B 6045  24.914  38.543   8.073
   93POPC   C4B 6046  24.743  38.256   7.775
   94POPC   NC3 6047  12.875  23.884   9.482
   94POPC   PO4 6048  12.910  23.162   9.423
   94POPC   GL1 6049  12.651  23.352   9.099
   94POPC   GL2 6050  12.627  23.726   9.082
   94POPC   C1A 6051  12.824  23.433   8.725
   94POPC   D2A 6052  13.145  23.669   8.584
   94POPC   C3A 6053  13.067  23.579   8.195
   94POPC   C4A 6054  13.174  23.732   7.834
   94POPC   C1B 6055  12.834  23.999   8.816
   94POPC   C2B 6056  12.668  23.836   8.447
   94POPC   C3B 6057  12.656  23.881   8.041
   94POPC   C4B 6058  12.730  24.063   7.678
   95POPC   NC3 6059   3.264  20.053   9.281
   95POPC   PO4 6060   2.560  20.047   9.399
   95POPC   GL1 6061   2.594  19.953   9.003
   95POPC   GL2 6062   2.878  19.803   9.020
   95POPC   C1A 6063   2.427  19.891   8.607
   95POPC   D2A 6064   2.360  19.602   8.245
   95POPC   C3A 6065   2.318  19.747   7.829
   95POPC   C4A 6066   2.563  19.732   7.459
   95POPC   C1B 6067   2.986  19.574   8.687
   95POPC   C2B 6068   2.860  19.642   8.297
   95POPC   C3B 6069   2.786  19.852   7.938
   95POPC   C4B 6070   2.876  20.131   7.606
   96POPC   NC3 6071   0.101  41.237   9.547
   96POPC   PO4 6072   0.554  41.767   9.463
   96POPC   GL1 6073   0.424  41.462   9.197
   96POPC   GL2 6074   0.310  41.723   8.972
   96POPC   C1A 6075   0.301  41.239   8.850
   96POPC   D2A 6076   0.235  41.501   8.499
   96POPC   C3A 6077   0.291  41.388   8.082
   96POPC   C4A 6078   0.270  41.326   7.657
   96POPC   C1B 6079   0.335  42.012   8.595
   96POPC   C2B 6080   0.262  41.905   8.154
   96POPC   C3B 6081   0.538  41.747   7.815
   96POPC   C4B 6082   0.650  41.595   7.385
   97POPC   NC3 6083  35.537   9.762   9.354
   97POPC   PO4 6084  35.372  10.346   9.569
   97POPC   GL1 6085  35.248  10.447   9.132
   97POPC   GL2 6086  35.099  10.799   9.093
   97POPC   C1A 6087  35.366  10.243   8.729
   97POPC   D2A 6088  35.449  10.018   8.313
   97POPC   C3A 6089  35.456  10.320   7.972
   97POPC   C4A 6090  35.462  10.775   7.919
   97POPC   C1B 6091  34.961  10.602   8.725
   97POPC   C2B 6092  35.113  10.471   8.341
   97POPC   C3B 6093  34.980  10.604   7.958
   97POPC   C4B 6094  35.151  10.522   7.589
   98POPC   NC3 6095  16.921  35.121   9.629
   98POPC   PO4 6096  16.935  35.844   9.686
   98POPC   GL1 6097  17.021  35.716   9.226
   98POPC   GL2 6098  17.058  35.343   9.201
   98POPC   C1A 6099  16.708  35.553   8.886
   98POPC   D2A 6100  16.633  35.200   8.599
   98POPC   C3A 6101  16.520  35.369   8.195
   98POPC   C4A 6102  16.523  35.427   7.727
   98POPC   C1B 6103  17.128  35.296   8.784
   98POPC   C2B 6104  16.958  35.555   8.431
   98POPC   C3B 6105  16.995  35.551   8.001
   98POPC   C4B 6106  17.109  35.368   7.623
   99POPC   NC3 6107  32.743  40.834   9.775
   99POPC   PO4 6108  33.327  40.459   9.578
   99POPC   GL1 6109  33.093  40.513   9.227
   99POPC   GL2 6110  32.954  40.866   9.280
   99POPC   C1A 6111  33.184  40.724   8.850
   99POPC   D2A 6112  32.939  40.747   8.510
   99POPC   C3A 6113  33.220  40.902   8.222
   99POPC   C4A 6114  33.167  40.906   7.821
   99POPC   C1B 6115  32.762  41.062   8.906
   99POPC   C2B 6116  32.587  41.121   8.487
   99POPC   C3B 6117  32.756  41.035   8.109
   99POPC   C4B 6118  32.681  41.137   7.708
  100POPC   NC3 6119  40.887  28.077   9.545
  100POPC   PO4 6120  40.538  28.563   9.359
  100POPC   GL1 6121  40.834  28.354   9.109
  100POPC   GL2 6122  41.180  28.372   9.224
  100POPC   C1A 6123  40.753  28.249   8.698
  100POPC   D2A 6124  40.959  28.081   8.339
  100POPC   C3A 6125  40.900  28.313   7.974
  100POPC   C4A 6126  40.669  28.628   7.822
  100POPC   C1B 6127  41.289  28.382   8.798
  100POPC   C2B 6128  41.072  28.562   8.465
  100POPC   C3B 6129  41.043  28.804   8.145
  100POPC   C4B 6130  41.172  28.752   7.737
  101POPC   NC3 6131  11.767  34.741   9.480
  101POPC   PO4 6132  12.286  34.332   9.585
  101POPC   GL1 6133  12.131  34.508   9.158
  101POPC   GL2 6134  11.945  34.816   9.007
  101POPC   C1A 6135  11.867  34.367   8.801
  101POPC   D2A 6136  11.748  34.525   8.384
  101POPC   C3A 6137  11.973  34.651   8.097
  101POPC   C4A 6138  11.930  34.534   7.693
  101POPC   C1B 6139  12.178  34.745   8.614
  101POPC   C2B 6140  12.457  34.710   8.259
  101POPC   C3B 6141  12.405  34.630   7.821
  101POPC   C4B 6142  12.297  34.808   7.393
  102POPC   NC3 6143  26.709  10.164   9.502
  102POPC   PO4 6144  27.096   9.625   9.433
  102POPC   GL1 6145  26.695   9.705   9.176
  102POPC   GL2 6146  26.676  10.030   9.024
  102POPC   C1A 6147  26.588   9.588   8.732
  102POPC   D2A 6148  26.907   9.560   8.387
  102POPC   C3A 6149  26.824   9.417   7.987
  102POPC   C4A 6150  26.903   9.597   7.640
  102POPC   C1B 6151  26.624  10.086   8.615
  102POPC   C2B 6152  26.529  10.191   8.227
  102POPC   C3B 6153  26.739  10.002   7.906
  102POPC   C4B 6154  26.967  10.059   7.480
  103POPC   NC3 6155   6.568  32.367   9.496
  103POPC   PO4 6156   7.212  32.118   9.400
  103POPC   GL1 6157   6.860  32.087   9.108
  103POPC   GL2 6158   6.590  32.341   8.997
  103POPC   C1A 6159   6.839  32.064   8.617
  103POPC   D2A 6160   6.480  32.315   8.482
  103POPC   C3A 6161   6.413  32.378   8.054
  103POPC   C4A 6162   6.550  32.141   7.724
  103POPC   C1B 6163   6.464  31.894   8.881
  103POPC   C2B 6164   6.374  31.822   8.465
  103POPC   C3B 6165   6.250  31.837   8.029
  103POPC   C4B 6166   6.416  31.665   7.644
  104POPC   NC3 6167  31.266   6.051   9.716
  104POPC   PO4 6168  31.508   5.454   9.686
  104POPC   GL1 6169  31.446   5.790   9.311
  104POPC   GL2 6170  31.657   6.099   9.356
  104POPC   C1A 6171  31.231   5.833   8.890
  104POPC   D2A 6172  31.024   5.865   8.462
  104POPC   C3A 6173  31.254   5.916   8.084
  104POPC   C4A 6174  31.387   5.735   7.689
  104POPC   C1B 6175  31.585   6.206   8.933
  104POPC   C2B 6176  31.501   6.085   8.518
  104POPC   C3B 6177  31.676   6.193   8.098
  104POPC   C4B 6178  31.459   6.247   7.705
  105POPC   NC3 6179  38.553   8.529   9.399
  105POPC   PO4 6180  38.001   8.136   9.434
  105POPC   GL1 6181  38.248   8.045   9.122
  105POPC   GL2 6182  38.569   8.046   9.170
  105POPC   C1A 6183  38.351   8.323   8.788
  105POPC   D2A 6184  38.548   8.338   8.429
  105POPC   C3A 6185  38.350   8.378   8.073
  105POPC   C4A 6186  38.463   8.272   7.675
  105POPC   C1B 6187  38.812   8.090   8.796
  105POPC   C2B 6188  38.880   7.940   8.375
  105POPC   C3B 6189  38.825   7.851   7.954
  105POPC   C4B 6190  38.683   7.850   7.532
  106POPC   NC3 6191  19.107   2.322   9.479
  106POPC   PO4 6192  18.704   1.744   9.402
  106POPC   GL1 6193  18.705   2.156   9.226
  106POPC   GL2 6194  19.028   2.033   9.068
  106POPC   C1A 6195  18.683   2.270   8.793
  106POPC   D2A 6196  18.913   2.036   8.451
  106POPC   C3A 6197  19.030   2.151   8.020
  106POPC   C4A 6198  18.859   2.107   7.620
  106POPC   C1B 6199  19.275   1.791   8.777
  106POPC   C2B 6200  19.363   1.794   8.357
  106POPC   C3B 6201  19.431   1.672   7.970
  106POPC   C4B 6202  19.313   1.915   7.656
  107POPC   NC3 6203  14.027   6.819   9.600
  107POPC   PO4 6204  14.533   6.427   9.563
  107POPC   GL1 6205  14.499   6.677   9.235
  107POPC   GL2 6206  14.445   6.383   9.066
  107POPC   C1A 6207  14.599   6.780   8.789
  107POPC   D2A 6208  14.397   6.735   8.385
  107POPC   C3A 6209  14.561   6.913   8.004
  107POPC   C4A 6210  14.606   6.712   7.613
  107POPC   C1B 6211  14.646   6.231   8.730
  107POPC   C2B 6212  14.871   6.395   8.413
  107POPC   C3B 6213  14.655   6.404   8.047
  107POPC   C4B 6214  14.499   6.207   7.686
  108POPC   NC3 6215  12.542   9.313   9.467
  108POPC   PO4 6216  12.688   8.695   9.406
  108POPC   GL1 6217  12.970   9.006   9.253
  108POPC   GL2 6218  13.037   9.381   9.227
  108POPC   C1A 6219  13.017   9.007   8.830
  108POPC   D2A 6220  12.787   9.102   8.459
  108POPC   C3A 6221  12.719   8.839   8.087
  108POPC   C4A 6222  12.810   8.899   7.659
  108POPC   C1B 6223  12.998   9.520   8.785
  108POPC   C2B 6224  13.119   9.465   8.316
  108POPC   C3B 6225  13.124   9.174   7.962
  108POPC   C4B 6226  13.258   9.181   7.515
  109POPC   NC3 6227  42.045  27.169   9.379
  109POPC   PO4 6228  42.145  26.566   9.461
  109POPC   GL1 6229  42.266  26.551   9.055
  109POPC   GL2 6230  42.399  26.882   9.092
  109POPC   C1A 6231  42.429  26.648   8.630
  109POPC   D2A 6232  42.563  26.933   8.302
  109POPC   C3A 6233  42.550  26.661   7.936
  109POPC   C4A 6234  42.222  26.466   7.759
  109POPC   C1B 6235  42.034  26.917   8.795
  109POPC   C2B 6236  41.954  26.772   8.407
  109POPC   C3B 6237  42.106  26.902   8.044
  109POPC   C4B 6238  41.945  27.183   7.763
  110POPC   NC3 6239   0.785   2.475   9.824
  110POPC   PO4 6240   1.275   2.910   9.663
  110POPC   GL1 6241   1.242   2.915   9.193
  110POPC   GL2 6242   1.472   2.685   9.054
  110POPC   C1A 6243   1.019   2.818   8.777
  110POPC   D2A 6244   1.081   2.942   8.336
  110POPC   C3A 6245   0.873   2.823   7.941
  110POPC   C4A 6246   1.022   2.634   7.564
  110POPC   C1B 6247   1.505   2.887   8.662
  110POPC   C2B 6248   1.456   2.579   8.359
  110POPC   C3B 6249   1.377   2.675   7.966
  110POPC   C4B 6250   1.308   3.045   7.721
  111POPC   NC3 6251  26.067  10.539   9.528
  111POPC   PO4 6252  25.398  10.518   9.564
  111POPC   GL1 6253  25.712  10.527   9.136
  111POPC   GL2 6254  26.094  10.594   9.031
  111POPC   C1A 6255  25.739  10.664   8.669
  111POPC   D2A 6256  26.041  10.814   8.334
  111POPC   C3A 6257  26.023  10.692   7.919
  111POPC   C4A 6258  25.696  10.913   7.723
  111POPC   C1B 6259  26.209  10.415   8.630
  111POPC   C2B 6260  25.981  10.282   8.264
  111POPC   C3B 6261  26.165  10.189   7.867
  111POPC   C4B 6262  26.108  10.405   7.482
  112POPC   NC3 6263  19.736  27.986   9.441
  112POPC   PO4 6264  20.021  28.611   9.369
  112POPC   GL1 6265  19.623  28.509   9.178
  112POPC   GL2 6266  19.743  28.209   9.002
  112POPC   C1A 6267  19.659  28.651   8.772
  112POPC   D2A 6268  20.041  28.506   8.537
  112POPC   C3A 6269  20.035  28.650   8.122
  112POPC   C4A 6270  19.760  28.471   7.788
  112POPC   C1B 6271  20.095  28.067   8.810
  112POPC   C2B 6272  20.141  27.980   8.386
  112POPC   C3B 6273  19.911  28.028   8.003
  112POPC   C4B 6274  20.096  28.115   7.583
  113POPC   NC3 6275  35.388  42.164   9.356
  113POPC   PO4 6276  35.182  42.682   9.771
  113POPC   GL1 6277  35.374  42.680   9.306
  113POPC   GL2 6278  35.688  42.557   9.212
  113POPC   C1A 6279  35.331  42.648   8.831
  113POPC   D2A 6280  35.270  42.593   8.393
  113POPC   C3A 6281  35.194  42.207   8.181
  113POPC   C4A 6282  35.063  42.315   7.777
  113POPC   C1B 6283  35.765  42.378   8.757
  113POPC   C2B 6284  35.710  42.239   8.330
  113POPC   C3B 6285  35.621  42.206   7.889
  113POPC   C4B 6286  35.774  42.064   7.520
  114POPC   NC3 6287  39.709   4.659   9.345
  114POPC   PO4 6288  40.221   5.108   9.642
  114POPC   GL1 6289  40.032   5.067   9.246
  114POPC   GL2 6290  40.205   4.794   9.129
  114POPC   C1A 6291  39.812   5.246   8.869
  114POPC   D2A 6292  39.670   5.364   8.459
  114POPC   C3A 6293  39.883   5.360   8.070
  114POPC   C4A 6294  39.699   5.247   7.648
  114POPC   C1B 6295  39.929   4.769   8.731
  114POPC   C2B 6296  39.817   4.895   8.313
  114POPC   C3B 6297  39.830   4.824   7.877
  114POPC   C4B 6298  40.018   4.825   7.438
  115POPC   NC3 6299  20.752  35.100   9.646
  115POPC   PO4 6300  20.436  35.664   9.394
  115POPC   GL1 6301  20.533  35.443   9.056
  115POPC   GL2 6302  20.688  35.151   9.150
  115POPC   C1A 6303  20.741  35.359   8.685
  115POPC   D2A 6304  20.460  35.372   8.340
  115POPC   C3A 6305  20.617  35.501   7.954
  115POPC   C4A 6306  20.399  35.512   7.588
  115POPC   C1B 6307  20.486  34.904   8.836
  115POPC   C2B 6308  20.324  34.873   8.403
  115POPC   C3B 6309  20.435  35.007   7.956
  115POPC   C4B 6310  20.488  34.763   7.586
  116POPC   NC3 6311  19.829   9.274   9.543
  116POPC   PO4 6312  19.408   9.730   9.548
  116POPC   GL1 6313  19.641   9.584   9.189
  116POPC   GL2 6314  19.901   9.831   9.250
  116POPC   C1A 6315  19.886   9.571   8.807
  116POPC   D2A 6316  19.835   9.754   8.439
  116POPC   C3A 6317  19.796   9.532   8.091
  116POPC   C4A 6318  19.857   9.648   7.694
  116POPC   C1B 6319  19.740  10.054   8.889
  116POPC   C2B 6320  19.634  10.199   8.474
  116POPC   C3B 6321  19.610  10.010   8.029
  116POPC   C4B 6322  19.806  10.147   7.664
  117POPC   NC3 6323  44.938   2.680   9.575
  117POPC   PO4 6324  44.357   2.931   9.738
  117POPC   GL1 6325  44.555   2.828   9.255
  117POPC   GL2 6326  44.869   2.889   9.070
  117POPC   C1A 6327  44.455   2.720   8.809
  117POPC   D2A 6328  44.624   2.840   8.388
  117POPC   C3A 6329  44.468   2.669   7.979
  117POPC   C4A 6330  44.579   2.773   7.548
  117POPC   C1B 6331   0.024   3.106   8.671
  117POPC   C2B 6332   0.020   3.188   8.236
  117POPC   C3B 6333  44.923   2.973   7.878
  117POPC   C4B 6334   0.050   3.131   7.487
  118POPC   NC3 6335  38.048  11.352   9.499
  118POPC   PO4 6336  37.619  10.858   9.343
  118POPC   GL1 6337  37.829  11.123   9.105
  118POPC   GL2 6338  38.137  10.921   9.142
  118POPC   C1A 6339  37.730  11.227   8.702
  118POPC   D2A 6340  37.898  11.344   8.331
  118POPC   C3A 6341  37.643  11.278   8.011
  118POPC   C4A 6342  37.519  11.509   7.690
  118POPC   C1B 6343  37.935  10.776   8.754
  118POPC   C2B 6344  37.728  10.849   8.362
  118POPC   C3B 6345  37.929  10.858   7.949
  118POPC   C4B 6346  37.996  11.165   7.604
  119POPC   NC3 6347  17.690  23.211   9.440
  119POPC   PO4 6348  17.634  22.490   9.277
  119POPC   GL1 6349  17.730  22.862   9.056
  119POPC   GL2 6350  17.417  22.993   9.077
  119POPC   C1A 6351  17.664  23.013   8.618
  119POPC   D2A 6352  17.516  22.773   8.247
  119POPC   C3A 6353  17.652  22.940   7.871
  119POPC   C4A 6354  17.949  23.096   7.612
  119POPC   C1B 6355  17.226  23.238   8.761
  119POPC   C2B 6356  17.255  23.230   8.328
  119POPC   C3B 6357  17.186  23.105   7.935
  119POPC   C4B 6358  17.446  23.357   7.696
  120POPC   NC3 6359  40.213   2.290   9.444
  120POPC   PO4 6360  40.356   1.722   9.678
  120POPC   GL1 6361  40.193   1.823   9.199
  120POPC   GL2 6362  39.906   2.078   9.101
  120POPC   C1A 6363  40.272   2.000   8.752
  120POPC   D2A 6364  40.167   1.756   8.386
  120POPC   C3A 6365  40.014   1.824   7.968
  120POPC   C4A 6366  40.090   2.130   7.653
  120POPC   C1B 6367  39.766   2.005   8.668
  120POPC   C2B 6368  39.851   2.224   8.266
  120POPC   C3B 6369  39.630   2.210   7.869
  120POPC   C4B 6370  39.630   1.966   7.493
  121POPC   NC3 6371  32.157  33.204   9.551
  121POPC   PO4 6372  32.407  32.530   9.606
  121POPC   GL1 6373  32.355  32.851   9.228
  121POPC   GL2 6374  31.979  32.854   9.209
  121POPC   C1A 6375  32.291  33.228   8.894
  121POPC   D2A 6376  32.359  33.362   8.430
  121POPC   C3A 6377  32.385  33.056   8.062
  121POPC   C4A 6378  32.484  32.939   7.614
  121POPC   C1B 6379  32.081  32.772   8.782
  121POPC   C2B 6380  31.980  33.055   8.487
  121POPC   C3B 6381  31.874  33.096   8.098
  121POPC   C4B 6382  31.988  32.987   7.713
  122POPC   NC3 6383   6.395  10.554   9.631
  122POPC   PO4 6384   6.977  10.495   9.390
  122POPC   GL1 6385   6.620  10.371   9.200
  122POPC   GL2 6386   6.828  10.320   8.939
  122POPC   C1A 6387   6.374  10.490   8.832
  122POPC   D2A 6388   6.416  10.776   8.474
  122POPC   C3A 6389   6.259  10.710   8.062
  122POPC   C4A 6390   6.339  10.458   7.713
  122POPC   C1B 6391   6.881  10.724   8.739
  122POPC   C2B 6392   6.918  10.801   8.310
  122POPC   C3B 6393   6.749  10.606   7.979
  122POPC   C4B 6394   6.768  10.738   7.551
  123POPC   NC3 6395  40.329  32.906   9.462
  123POPC   PO4 6396  40.824  33.325   9.450
  123POPC   GL1 6397  40.714  33.053   9.131
  123POPC   GL2 6398  40.726  32.696   9.184
  123POPC   C1A 6399  40.651  33.104   8.724
  123POPC   D2A 6400  40.408  33.239   8.385
  123POPC   C3A 6401  40.722  33.171   8.070
  123POPC   C4A 6402  40.958  33.368   7.778
  123POPC   C1B 6403  40.672  32.579   8.756
  123POPC   C2B 6404  40.596  32.747   8.339
  123POPC   C3B 6405  40.675  32.696   7.885
  123POPC   C4B 6406  40.662  32.751   7.413
  124POPC   NC3 6407   3.009  18.193   9.492
  124POPC   PO4 6408   2.285  18.202   9.406
  124POPC   GL1 6409   2.625  18.413   9.114
  124POPC   GL2 6410   2.868  18.138   9.030
  124POPC   C1A 6411   2.799  18.442   8.652
  124POPC   D2A 6412   2.690  18.053   8.424
  124POPC   C3A 6413   2.513  18.100   8.008
  124POPC   C4A 6414   2.549  18.437   7.730
  124POPC   C1B 6415   3.178  17.995   8.751
  124POPC   C2B 6416   3.212  18.194   8.386
  124POPC   C3B 6417   2.966  18.346   8.073
  124POPC   C4B 6418   2.980  18.136   7.667
  125POPC   NC3 6419  26.635  34.641   9.530
  125POPC   PO4 6420  27.256  34.754   9.372
  125POPC   GL1 6421  26.893  34.597   9.078
  125POPC   GL2 6422  26.575  34.828   9.044
  125POPC   C1A 6423  27.047  34.408   8.686
  125POPC   D2A 6424  27.086  34.558   8.272
  125POPC   C3A 6425  26.749  34.386   8.061
  125POPC   C4A 6426  26.567  34.355   7.670
  125POPC   C1B 6427  26.765  34.845   8.627
  125POPC   C2B 6428  26.614  35.075   8.283
  125POPC   C3B 6429  26.558  34.851   7.944
  125POPC   C4B 6430  26.613  34.834   7.540
  126POPC   NC3 6431  37.850  31.373   9.700
  126POPC   PO4 6432  37.471  31.930   9.599
  126POPC   GL1 6433  37.527  31.581   9.286
  126POPC   GL2 6434  37.853  31.426   9.196
  126POPC   C1A 6435  37.417  31.392   8.876
  126POPC   D2A 6436  37.190  31.381   8.448
  126POPC   C3A 6437  37.439  31.480   8.097
  126POPC   C4A 6438  37.391  31.553   7.665
  126POPC   C1B 6439  37.906  31.578   8.800
  126POPC   C2B 6440  38.055  31.460   8.402
  126POPC   C3B 6441  37.998  31.548   7.975
  126POPC   C4B 6442  37.862  31.611   7.520
  127POPC   NC3 6443  29.829  25.036   9.419
  127POPC   PO4 6444  29.815  25.729   9.575
  127POPC   GL1 6445  29.783  25.510   9.166
  127POPC   GL2 6446  30.092  25.315   9.085
  127POPC   C1A 6447  29.902  25.622   8.722
  127POPC   D2A 6448  30.101  25.545   8.307
  127POPC   C3A 6449  29.809  25.582   7.960
  127POPC   C4A 6450  29.667  25.396   7.558
  127POPC   C1B 6451  29.893  25.118   8.737
  127POPC   C2B 6452  29.965  24.966   8.345
  127POPC   C3B 6453  29.879  25.094   7.945
  127POPC   C4B 6454  29.873  24.925   7.550
  128POPC   NC3 6455  37.801  29.568   9.373
  128POPC   PO4 6456  37.951  30.212   9.515
  128POPC   GL1 6457  37.677  30.035   9.135
  128POPC   GL2 6458  37.535  29.704   8.953
  128POPC   C1A 6459  37.510  30.137   8.726
  128POPC   D2A 6460  37.603  30.285   8.354
  128POPC   C3A 6461  37.619  30.110   7.968
  128POPC   C4A 6462  37.442  30.091   7.572
  128POPC   C1B 6463  37.948  29.780   8.787
  128POPC   C2B 6464  37.868  29.854   8.404
  128POPC   C3B 6465  38.039  29.826   8.044
  128POPC   C4B 6466  37.735  29.649   7.796
  129POPC   NC3 6467  32.951  33.448   9.593
  129POPC   PO4 6468  33.166  34.029   9.647
  129POPC   GL1 6469  33.307  33.855   9.213
  129POPC   GL2 6470  33.227  33.491   9.153
  129POPC   C1A 6471  33.194  33.846   8.749
  129POPC   D2A 6472  33.135  33.925   8.280
  129POPC   C3A 6473  33.387  34.092   7.951
  129POPC   C4A 6474  33.179  34.067   7.534
  129POPC   C1B 6475  32.845  33.463   8.876
  129POPC   C2B 6476  32.766  33.638   8.472
  129POPC   C3B 6477  32.872  33.526   8.036
  129POPC   C4B 6478  33.234  33.643   7.796
  130POPC   NC3 6479  27.032  35.397   9.503
  130POPC   PO4 6480  26.395  35.114   9.435
  130POPC   GL1 6481  26.668  35.337   9.161
  130POPC   GL2 6482  26.975  35.115   9.097
  130POPC   C1A 6483  26.713  35.327   8.732
  130POPC   D2A 6484  26.924  35.507   8.460
  130POPC   C3A 6485  26.827  35.488   8.049
  130POPC   C4A 6486  26.544  35.327   7.735
  130POPC   C1B 6487  27.195  35.117   8.700
  130POPC   C2B 6488  27.103  35.084   8.252
  130POPC   C3B 6489  26.999  35.074   7.789
  130POPC   C4B 6490  27.208  35.189   7.387
  131POPC   NC3 6491  22.219  23.876   9.517
  131POPC   PO4 6492  22.261  23.212   9.512
  131POPC   GL1 6493  22.199  23.264   9.087
  131POPC   GL2 6494  22.527  23.425   9.101
  131POPC   C1A 6495  22.002  23.293   8.650
  131POPC   D2A 6496  22.154  23.512   8.246
  131POPC   C3A 6497  21.916  23.818   8.002
  131POPC   C4A 6498  21.826  23.759   7.573
  131POPC   C1B 6499  22.463  23.538   8.663
  131POPC   C2B 6500  22.456  23.912   8.383
  131POPC   C3B 6501  22.424  23.901   7.953
  131POPC   C4B 6502  22.286  23.570   7.726
  132POPC   NC3 6503  17.068  22.612   9.477
  132POPC   PO4 6504  16.527  23.100   9.499
  132POPC   GL1 6505  16.658  22.845   9.188
  132POPC   GL2 6506  16.917  23.057   9.135
  132POPC   C1A 6507  16.736  22.748   8.751
  132POPC   D2A 6508  16.487  22.759   8.372
  132POPC   C3A 6509  16.719  22.831   7.999
  132POPC   C4A 6510  16.583  22.883   7.592
  132POPC   C1B 6511  16.728  23.314   8.804
  132POPC   C2B 6512  16.754  23.194   8.377
  132POPC   C3B 6513  16.765  23.371   7.960
  132POPC   C4B 6514  16.581  23.385   7.546
  133POPC   NC3 6515  39.882  35.167   9.497
  133POPC   PO4 6516  40.496  35.569   9.413
  133POPC   GL1 6517  40.178  35.431   9.099
  133POPC   GL2 6518  39.960  35.141   9.023
  133POPC   C1A 6519  40.023  35.570   8.692
  133POPC   D2A 6520  39.851  35.487   8.294
  133POPC   C3A 6521  40.122  35.599   7.931
  133POPC   C4A 6522  39.887  35.354   7.652
  133POPC   C1B 6523  40.143  35.067   8.680
  133POPC   C2B 6524  40.026  34.980   8.301
  133POPC   C3B 6525  40.224  35.099   7.945
  133POPC   C4B 6526  40.134  34.908   7.581
  134POPC   NC3 6527  41.937   3.901   9.541
  134POPC   PO4 6528  42.409   4.442   9.430
  134POPC   GL1 6529  42.502   4.258   9.093
  134POPC   GL2 6530  42.170   4.153   9.034
  134POPC   C1A 6531  42.621   4.172   8.712
  134POPC   D2A 6532  42.416   4.035   8.346
  134POPC   C3A 6533  42.423   4.325   8.056
  134POPC   C4A 6534  42.477   4.268   7.656
  134POPC   C1B 6535  42.144   4.383   8.638
  134POPC   C2B 6536  41.930   4.244   8.242
  134POPC   C3B 6537  41.996   4.181   7.808
  134POPC   C4B 6538  42.128   4.085   7.350
  135POPC   NC3 6539  18.114  27.181   9.374
  135POPC   PO4 6540  18.291  27.764   9.586
  135POPC   GL1 6541  18.368  27.696   9.192
  135POPC   GL2 6542  18.543  27.380   9.146
  135POPC   C1A 6543  18.399  27.858   8.797
  135POPC   D2A 6544  18.228  27.638   8.466
  135POPC   C3A 6545  18.081  27.837   8.115
  135POPC   C4A 6546  18.161  27.723   7.716
  135POPC   C1B 6547  18.367  27.150   8.771
  135POPC   C2B 6548  18.207  27.141   8.357
  135POPC   C3B 6549  18.371  27.315   7.974
  135POPC   C4B 6550  18.542  27.407   7.551
  136POPC   NC3 6551  24.943  32.716   9.490
  136POPC   PO4 6552  25.416  33.272   9.447
  136POPC   GL1 6553  25.278  32.912   9.129
  136POPC   GL2 6554  24.928  32.798   9.001
  136POPC   C1A 6555  25.283  32.906   8.656
  136POPC   D2A 6556  25.172  33.244   8.349
  136POPC   C3A 6557  25.260  33.048   7.971
  136POPC   C4A 6558  25.317  32.618   7.779
  136POPC   C1B 6559  24.804  33.036   8.656
  136POPC   C2B 6560  24.889  32.807   8.248
  136POPC   C3B 6561  24.855  32.788   7.785
  136POPC   C4B 6562  24.840  32.689   7.322
  137POPC   NC3 6563  24.109  36.623   9.459
  137POPC   PO4 6564  24.496  37.240   9.519
  137POPC   GL1 6565  24.359  36.987   9.145
  137POPC   GL2 6566  24.289  36.633   8.996
  137POPC   C1A 6567  24.216  37.050   8.706
  137POPC   D2A 6568  24.345  36.955   8.258
  137POPC   C3A 6569  24.231  36.888   7.801
  137POPC   C4A 6570  24.243  37.175   7.432
  137POPC   C1B 6571  24.688  36.740   8.827
  137POPC   C2B 6572  24.799  36.720   8.421
  137POPC   C3B 6573  24.882  36.649   8.002
  137POPC   C4B 6574  24.598  36.451   7.716
  138POPC   NC3 6575  35.361  29.117   9.533
  138POPC   PO4 6576  35.379  29.776   9.480
  138POPC   GL1 6577  35.565  29.436   9.128
  138POPC   GL2 6578  35.296  29.174   9.054
  138POPC   C1A 6579  35.623  29.169   8.700
  138POPC   D2A 6580  35.328  29.030   8.421
  138POPC   C3A 6581  35.468  28.918   8.002
  138POPC   C4A 6582  35.260  28.891   7.620
  138POPC   C1B 6583  34.995  29.228   8.796
  138POPC   C2B 6584  34.891  29.374   8.434
  138POPC   C3B 6585  35.067  29.276   8.050
  138POPC   C4B 6586  34.926  29.280   7.660
  139POPC   NC3 6587   6.300  34.859   9.538
  139POPC   PO4 6588   6.365  34.209   9.577
  139POPC   GL1 6589   6.452  34.435   9.183
  139POPC   GL2 6590   6.460  34.803   9.063
  139POPC   C1A 6591   6.564  34.390   8.753
  139POPC   D2A 6592   6.758  34.387   8.376
  139POPC   C3A 6593   6.636  34.461   7.977
  139POPC   C4A 6594   6.746  34.272   7.585
  139POPC   C1B 6595   6.530  34.883   8.631
  139POPC   C2B 6596   6.279  34.701   8.315
  139POPC   C3B 6597   6.190  34.756   7.885
  139POPC   C4B 6598   6.515  34.764   7.594
  140POPC   NC3 6599  41.723  26.671   9.651
  140POPC   PO4 6600  41.326  27.109   9.271
  140POPC   GL1 6601  41.656  26.926   9.126
  140POPC   GL2 6602  41.733  26.597   9.141
  140POPC   C1A 6603  41.529  26.834   8.707
  140POPC   D2A 6604  41.266  26.882   8.370
  140POPC   C3A 6605  41.579  26.981   8.080
  140POPC   C4A 6606  41.449  27.087   7.680
  140POPC   C1B 6607  41.784  26.395   8.739
  140POPC   C2B 6608  41.551  26.430   8.360
  140POPC   C3B 6609  41.755  26.474   8.023
  140POPC   C4B 6610  41.787  26.710   7.697
  141POPC   NC3 6611   2.098   5.678   9.576
  141POPC   PO4 6612   1.731   6.247   9.415
  141POPC   GL1 6613   1.922   5.949   9.137
  141POPC   GL2 6614   1.752   5.586   9.216
  141POPC   C1A 6615   2.075   6.075   8.691
  141POPC   D2A 6616   1.986   6.010   8.250
  141POPC   C3A 6617   2.111   6.176   7.856
  141POPC   C4A 6618   2.232   5.818   7.623
  141POPC   C1B 6619   1.966   5.567   8.823
  141POPC   C2B 6620   1.857   5.531   8.404
  141POPC   C3B 6621   2.034   5.548   8.007
  141POPC   C4B 6622   1.866   5.382   7.626
  142POPC   NC3 6623  17.272  42.348   9.488
  142POPC   PO4 6624  17.871  42.093   9.492
  142POPC   GL1 6625  17.662  42.309   9.128
  142POPC   GL2 6626  17.464  42.652   9.095
  142POPC   C1A 6627  17.730  42.436   8.704
  142POPC   D2A 6628  17.776  42.228   8.304
  142POPC   C3A 6629  17.760  42.442   7.900
  142POPC   C4A 6630  17.810  42.253   7.442
  142POPC   C1B 6631  17.224  42.367   8.813
  142POPC   C2B 6632  17.033  42.201   8.437
  142POPC   C3B 6633  17.305  42.166   8.097
  142POPC   C4B 6634  17.341  42.313   7.663
  143POPC   NC3 6635  22.219  26.424   9.402
  143POPC   PO4 6636  21.983  27.038   9.652
  143POPC   GL1 6637  22.061  26.892   9.217
  143POPC   GL2 6638  21.802  26.628   9.179
  143POPC   C1A 6639  22.315  26.882   8.804
  143POPC   D2A 6640  22.402  26.893   8.338
  143POPC   C3A 6641  22.139  27.001   7.964
  143POPC   C4A 6642  21.992  27.096   7.530
  143POPC   C1B 6643  21.823  26.790   8.736
  143POPC   C2B 6644  21.941  26.652   8.317
  143POPC   C3B 6645  21.819  26.470   7.938
  143POPC   C4B 6646  21.701  26.634   7.540
  144POPC   NC3 6647  21.524  22.331   9.452
  144POPC   PO4 6648  21.609  21.635   9.462
  144POPC   GL1 6649  21.535  21.929   9.121
  144POPC   GL2 6650  21.246  21.879   8.906
  144POPC   C1A 6651  21.611  22.169   8.720
  144POPC   D2A 6652  21.332  22.187   8.388
  144POPC   C3A 6653  21.494  22.250   7.964
  144POPC   C4A 6654  21.453  21.941   7.687
  144POPC   C1B 6655  21.140  22.335   8.867
  144POPC   C2B 6656  20.922  22.499   8.517
  144POPC   C3B 6657  21.080  22.516   8.089
  144POPC   C4B 6658  21.008  22.274   7.708
  145POPC   NC3 6659  43.454  17.980   9.615
  145POPC   PO4 6660  44.100  18.209   9.786
  145POPC   GL1 6661  43.868  18.187   9.321
  145POPC   GL2 6662  43.630  17.994   9.147
  145POPC   C1A 6663  43.897  18.324   8.879
  145POPC   D2A 6664  43.635  18.272   8.510
  145POPC   C3A 6665  43.797  18.418   8.115
  145POPC   C4A 6666  44.177  18.409   7.863
  145POPC   C1B 6667  43.812  17.838   8.757
  145POPC   C2B 6668  43.671  17.777   8.326
  145POPC   C3B 6669  43.812  17.935   7.915
  145POPC   C4B 6670  43.734  18.255   7.613
  146POPC   NC3 6671  17.270  36.149   9.542
  146POPC   PO4 6672  17.915  35.880   9.491
  146POPC   GL1 6673  17.610  35.950   9.179
  146POPC   GL2 6674  17.578  36.302   9.157
  146POPC   C1A 6675  17.531  35.958   8.741
  146POPC   D2A 6676  17.788  36.001   8.371
  146POPC   C3A 6677  17.623  36.077   8.017
  146POPC   C4A 6678  17.322  35.869   7.720
  146POPC   C1B 6679  17.283  36.383   8.844
  146POPC   C2B 6680  17.059  36.437   8.495
  146POPC   C3B 6681  17.271  36.438   8.120
  146POPC   C4B 6682  17.411  36.388   7.693
  147POPC   NC3 6683  10.544   7.690   9.606
  147POPC   PO4 6684  10.264   7.031   9.575
  147POPC   GL1 6685  10.584   7.225   9.248
  147POPC   GL2 6686  10.426   7.533   9.145
  147POPC   C1A 6687  10.792   7.434   8.832
  147POPC   D2A 6688  10.565   7.614   8.462
  147POPC   C3A 6689  10.478   7.424   8.063
  147POPC   C4A 6690  10.529   7.287   7.628
  147POPC   C1B 6691  10.240   7.755   8.816
  147POPC   C2B 6692  10.077   8.036   8.511
  147POPC   C3B 6693  10.214   7.979   8.092
  147POPC   C4B 6694  10.284   7.737   7.708
  148POPC   NC3 6695  12.298   8.460   9.507
  148POPC   PO4 6696  11.968   9.188   9.524
  148POPC   GL1 6697  12.088   8.965   9.186
  148POPC   GL2 6698  11.965   8.589   9.157
  148POPC   C1A 6699  12.018   9.215   8.799
  148POPC   D2A 6700  12.266   9.102   8.425
  148POPC   C3A 6701  12.131   9.211   8.016
  148POPC   C4A 6702  12.371   9.153   7.640
  148POPC   C1B 6703  12.049   8.709   8.737
  148POPC   C2B 6704  11.751   8.916   8.460
  148POPC   C3B 6705  11.789   8.780   8.045
  148POPC   C4B 6706  12.024   8.790   7.689
  149POPC   NC3 6707  33.960  24.085   9.441
  149POPC   PO4 6708  33.761  23.444   9.413
  149POPC   GL1 6709  33.679  23.629   9.025
  149POPC   GL2 6710  33.687  23.985   9.010
  149POPC   C1A 6711  33.484  23.676   8.621
  149POPC   D2A 6712  33.366  24.017   8.339
  149POPC   C3A 6713  33.550  23.898   7.927
  149POPC   C4A 6714  33.704  23.521   7.726
  149POPC   C1B 6715  34.064  23.814   8.791
  149POPC   C2B 6716  34.041  23.637   8.395
  149POPC   C3B 6717  34.076  23.745   7.989
  149POPC   C4B 6718  34.146  23.712   7.564
  150POPC   NC3 6719  22.415   9.486   9.485
  150POPC   PO4 6720  22.048  10.080   9.450
  150POPC   GL1 6721  22.011   9.871   9.104
  150POPC   GL2 6722  22.339   9.942   9.046
  150POPC   C1A 6723  21.945   9.938   8.700
  150POPC   D2A 6724  22.142   9.921   8.316
  150POPC   C3A 6725  22.024   9.732   7.960
  150POPC   C4A 6726  21.976   9.364   7.746
  150POPC   C1B 6727  22.383  10.201   8.679
  150POPC   C2B 6728  22.608  10.118   8.298
  150POPC   C3B 6729  22.569   9.846   7.933
  150POPC   C4B 6730  22.341   9.723   7.560
  151POPC   NC3 6731  30.582  22.256   9.527
  151POPC   PO4 6732  30.289  22.681   9.064
  151POPC   GL1 6733  30.616  22.329   9.039
  151POPC   GL2 6734  30.609  21.971   9.083
  151POPC   C1A 6735  30.777  22.210   8.660
  151POPC   D2A 6736  30.586  22.482   8.368
  151POPC   C3A 6737  30.801  22.458   8.008
  151POPC   C4A 6738  30.844  22.081   7.808
  151POPC   C1B 6739  30.559  21.728   8.683
  151POPC   C2B 6740  30.678  21.708   8.239
  151POPC   C3B 6741  30.611  21.628   7.817
  151POPC   C4B 6742  30.415  21.926   7.561
  152POPC   NC3 6743  41.912  35.715   9.620
  152POPC   PO4 6744  42.343  35.225   9.674
  152POPC   GL1 6745  42.335  35.409   9.217
  152POPC   GL2 6746  42.080  35.625   9.080
  152POPC   C1A 6747  42.449  35.402   8.767
  152POPC   D2A 6748  42.304  35.396   8.332
  152POPC   C3A 6749  42.543  35.145   8.010
  152POPC   C4A 6750  42.481  35.263   7.582
  152POPC   C1B 6751  42.053  35.768   8.627
  152POPC   C2B 6752  42.259  35.881   8.200
  152POPC   C3B 6753  42.222  35.604   7.839
  152POPC   C4B 6754  42.187  35.604   7.345
  153POPC   NC3 6755  32.510   8.887   9.899
  153POPC   PO4 6756  32.416   8.836   9.327
  153POPC   GL1 6757  32.212   8.832   9.034
  153POPC   GL2 6758  31.985   9.062   9.100
  153POPC   C1A 6759  32.383   8.732   8.661
  153POPC   D2A 6760  32.385   8.899   8.276
  153POPC   C3A 6761  32.377   8.632   7.939
  153POPC   C4A 6762  32.198   8.931   7.667
  153POPC   C1B 6763  31.876   8.911   8.682
  153POPC   C2B 6764  31.734   8.998   8.287
  153POPC   C3B 6765  31.836   9.207   7.899
  153POPC   C4B 6766  31.835   9.609   7.733
  154POPC   NC3 6767  25.766  44.999   9.404
  154POPC   PO4 6768  26.159  44.482   9.307
  154POPC   GL1 6769  26.065  44.805   9.031
  154POPC   GL2 6770  26.396  44.909   8.956
  154POPC   C1A 6771  25.966  44.958   8.623
  154POPC   D2A 6772  25.748  44.892   8.218
  154POPC   C3A 6773  25.966  44.696   7.875
  154POPC   C4A 6774  25.782  44.363   7.664
  154POPC   C1B 6775  26.333  44.530   8.657
  154POPC   C2B 6776  26.100  44.340   8.298
  154POPC   C3B 6777  26.228  44.249   7.884
  154POPC   C4B 6778  26.210  44.410   7.416
  155POPC   NC3 6779  34.962  17.857   9.432
  155POPC   PO4 6780  34.349  18.129   9.494
  155POPC   GL1 6781  34.410  18.210   9.117
  155POPC   GL2 6782  34.174  18.499   9.064
  155POPC   C1A 6783  34.782  18.251   8.826
  155POPC   D2A 6784  35.008  18.438   8.464
  155POPC   C3A 6785  34.845  18.460   8.055
  155POPC   C4A 6786  34.625  18.319   7.685
  155POPC   C1B 6787  34.320  18.396   8.673
  155POPC   C2B 6788  34.449  18.251   8.319
  155POPC   C3B 6789  34.300  18.484   8.014
  155POPC   C4B 6790  34.254  18.659   7.632
  156POPC   NC3 6791  24.160  39.830   9.396
  156POPC   PO4 6792  24.871  39.784   9.352
  156POPC   GL1 6793  24.622  40.048   9.111
  156POPC   GL2 6794  24.346  40.264   9.206
  156POPC   C1A 6795  24.711  40.186   8.714
  156POPC   D2A 6796  24.708  39.920   8.356
  156POPC   C3A 6797  24.353  39.770   8.196
  156POPC   C4A 6798  24.298  40.065   7.901
  156POPC   C1B 6799  24.226  40.065   8.771
  156POPC   C2B 6800  24.305  40.301   8.369
  156POPC   C3B 6801  24.205  40.563   7.978
  156POPC   C4B 6802  24.131  40.404   7.549
  157POPC   NC3 6803  28.508  21.033   9.341
  157POPC   PO4 6804  28.143  20.568   9.739
  157POPC   GL1 6805  28.291  20.524   9.265
  157POPC   GL2 6806  28.334  20.760   8.973
  157POPC   C1A 6807  28.266  20.291   8.842
  157POPC   D2A 6808  28.526  20.328   8.461
  157POPC   C3A 6809  28.295  20.320   8.053
  157POPC   C4A 6810  28.225  20.589   7.681
  157POPC   C1B 6811  28.647  20.843   8.661
  157POPC   C2B 6812  28.669  20.848   8.206
  157POPC   C3B 6813  28.709  20.715   7.755
  157POPC   C4B 6814  28.502  20.859   7.367
  158POPC   NC3 6815  37.601  33.122   9.533
  158POPC   PO4 6816  37.347  33.494   9.058
  158POPC   GL1 6817  37.814  33.480   8.958
  158POPC   GL2 6818  37.950  33.184   9.114
  158POPC   C1A 6819  38.052  33.276   8.591
  158POPC   D2A 6820  38.116  33.242   8.133
  158POPC   C3A 6821  37.748  33.136   7.899
  158POPC   C4A 6822  37.326  33.369   7.837
  158POPC   C1B 6823  37.739  32.883   8.831
  158POPC   C2B 6824  37.631  32.813   8.387
  158POPC   C3B 6825  37.358  32.860   8.033
  158POPC   C4B 6826  37.390  32.931   7.592
  159POPC   NC3 6827  38.636   1.730   9.535
  159POPC   PO4 6828  38.368   1.056   9.539
  159POPC   GL1 6829  38.599   1.018   9.186
  159POPC   GL2 6830  38.712   1.353   9.177
  159POPC   C1A 6831  38.801   0.995   8.810
  159POPC   D2A 6832  38.520   1.004   8.447
  159POPC   C3A 6833  38.642   1.191   8.045
  159POPC   C4A 6834  38.451   1.232   7.650
  159POPC   C1B 6835  38.410   1.350   8.827
  159POPC   C2B 6836  38.325   1.474   8.366
  159POPC   C3B 6837  38.300   1.628   7.911
  159POPC   C4B 6838  38.125   1.589   7.460
  160POPC   NC3 6839  41.414  17.763   9.463
  160POPC   PO4 6840  41.234  17.177   9.515
  160POPC   GL1 6841  41.584  17.352   9.205
  160POPC   GL2 6842  41.846  17.651   9.209
  160POPC   C1A 6843  41.594  17.555   8.776
  160POPC   D2A 6844  41.651  17.752   8.376
  160POPC   C3A 6845  41.497  17.584   7.965
  160POPC   C4A 6846  41.383  17.271   7.669
  160POPC   C1B 6847  42.047  17.351   8.950
  160POPC   C2B 6848  42.049  17.402   8.520
  160POPC   C3B 6849  41.900  17.289   8.132
  160POPC   C4B 6850  41.949  17.347   7.708
  161POPC   NC3 6851   3.682  39.360   9.651
  161POPC   PO4 6852   3.137  39.538   9.432
  161POPC   GL1 6853   3.391  39.225   9.234
  161POPC   GL2 6854   3.108  39.080   9.098
  161POPC   C1A 6855   3.634  39.026   8.888
  161POPC   D2A 6856   3.695  39.257   8.484
  161POPC   C3A 6857   3.823  39.151   8.061
  161POPC   C4A 6858   3.597  38.983   7.718
  161POPC   C1B 6859   3.237  39.326   8.742
  161POPC   C2B 6860   3.257  39.488   8.317
  161POPC   C3B 6861   3.229  39.306   7.892
  161POPC   C4B 6862   3.219  39.411   7.436
  162POPC   NC3 6863  40.874   2.427   9.407
  162POPC   PO4 6864  41.123   3.152   9.426
  162POPC   GL1 6865  40.917   2.835   9.120
  162POPC   GL2 6866  41.042   2.492   8.948
  162POPC   C1A 6867  40.707   2.898   8.743
  162POPC   D2A 6868  40.987   3.117   8.492
  162POPC   C3A 6869  40.882   3.180   8.100
  162POPC   C4A 6870  40.762   2.813   7.818
  162POPC   C1B 6871  41.114   2.608   8.545
  162POPC   C2B 6872  40.960   2.463   8.159
  162POPC   C3B 6873  41.088   2.409   7.746
  162POPC   C4B 6874  40.778   2.398   7.449
  163POPC   NC3 6875  44.753  10.061   9.528
  163POPC   PO4 6876   0.187   9.589   9.243
  163POPC   GL1 6877  44.775   9.642   9.170
  163POPC   GL2 6878  44.678   9.964   9.032
  163POPC   C1A 6879  44.621   9.488   8.778
  163POPC   D2A 6880  44.532   9.701   8.393
  163POPC   C3A 6881  44.387   9.453   8.044
  163POPC   C4A 6882  44.616   9.538   7.674
  163POPC   C1B 6883  44.847  10.217   8.719
  163POPC   C2B 6884  44.943  10.083   8.294
  163POPC   C3B 6885  44.834   9.970   7.901
  163POPC   C4B 6886  44.904  10.332   7.669
  164POPC   NC3 6887  44.381  41.450   9.433
  164POPC   PO4 6888  44.650  42.024   9.471
  164POPC   GL1 6889  44.820  41.803   9.123
  164POPC   GL2 6890  44.875  41.441   9.126
  164POPC   C1A 6891  44.640  41.683   8.731
  164POPC   D2A 6892  44.674  41.509   8.323
  164POPC   C3A 6893  44.498  41.675   7.959
  164POPC   C4A 6894  44.327  41.390   7.682
  164POPC   C1B 6895  44.784  41.181   8.732
  164POPC   C2B 6896  44.941  41.088   8.313
  164POPC   C3B 6897  44.784  41.186   7.881
  164POPC   C4B 6898  44.784  41.481   7.526
  165POPC   NC3 6899  44.361   5.978   9.524
  165POPC   PO4 6900  44.926   5.619   9.434
  165POPC   GL1 6901  44.707   5.813   9.130
  165POPC   GL2 6902  44.366   5.697   9.110
  165POPC   C1A 6903  44.869   6.045   8.783
  165POPC   D2A 6904  44.947   6.187   8.376
  165POPC   C3A 6905   0.025   5.921   8.051
  165POPC   C4A 6906  44.714   6.141   7.870
  165POPC   C1B 6907  44.365   5.887   8.731
  165POPC   C2B 6908  44.575   5.838   8.356
  165POPC   C3B 6909  44.554   5.650   7.973
  165POPC   C4B 6910  44.406   5.847   7.613
  166POPC   NC3 6911  31.650  30.912   9.358
  166POPC   PO4 6912  31.292  30.385   9.587
  166POPC   GL1 6913  31.464  30.460   9.176
  166POPC   GL2 6914  31.800  30.349   9.068
  166POPC   C1A 6915  31.356  30.694   8.795
  166POPC   D2A 6916  31.503  30.656   8.384
  166POPC   C3A 6917  31.380  30.804   8.000
  166POPC   C4A 6918  31.491  30.549   7.682
  166POPC   C1B 6919  31.894  30.582   8.693
  166POPC   C2B 6920  31.961  30.861   8.308
  166POPC   C3B 6921  31.886  30.857   7.850
  166POPC   C4B 6922  31.931  30.667   7.407
  167POPC   NC3 6923  41.116  30.724   9.487
  167POPC   PO4 6924  40.451  30.976   9.451
  167POPC   GL1 6925  40.651  30.752   9.110
  167POPC   GL2 6926  40.956  30.911   9.048
  167POPC   C1A 6927  40.612  30.690   8.654
  167POPC   D2A 6928  40.833  30.766   8.244
  167POPC   C3A 6929  40.665  30.679   7.804
  167POPC   C4A 6930  40.512  30.833   7.397
  167POPC   C1B 6931  40.922  31.105   8.659
  167POPC   C2B 6932  40.909  31.328   8.280
  167POPC   C3B 6933  40.917  31.120   7.879
  167POPC   C4B 6934  41.178  30.750   7.763
  168POPC   NC3 6935  44.071  25.540   9.880
  168POPC   PO4 6936  44.491  25.123   9.545
  168POPC   GL1 6937  44.638  25.287   9.160
  168POPC   GL2 6938  44.915  25.071   9.174
  168POPC   C1A 6939  44.771  25.425   8.741
  168POPC   D2A 6940  44.944  25.174   8.361
  168POPC   C3A 6941  44.786  25.318   8.014
  168POPC   C4A 6942  44.604  25.670   7.876
  168POPC   C1B 6943  44.775  24.912   8.753
  168POPC   C2B 6944  44.498  24.918   8.356
  168POPC   C3B 6945  44.580  24.854   7.919
  168POPC   C4B 6946  44.332  24.932   7.544
  169POPC   NC3 6947  12.348  28.701   9.478
  169POPC   PO4 6948  11.915  28.195   9.398
  169POPC   GL1 6949  11.913  28.447   9.072
  169POPC   GL2 6950  12.260  28.416   9.064
  169POPC   C1A 6951  11.996  28.311   8.654
  169POPC   D2A 6952  11.774  28.280   8.339
  169POPC   C3A 6953  11.901  28.371   7.949
  169POPC   C4A 6954  11.855  28.517   7.565
  169POPC   C1B 6955  12.445  28.568   8.696
  169POPC   C2B 6956  12.286  28.518   8.275
  169POPC   C3B 6957  12.423  28.345   7.865
  169POPC   C4B 6958  12.348  28.465   7.431
  170POPC   NC3 6959  12.566  34.709   9.487
  170POPC   PO4 6960  13.198  34.602   9.276
  170POPC   GL1 6961  12.849  34.761   9.050
  170POPC   GL2 6962  12.475  34.884   9.019
  170POPC   C1A 6963  12.624  34.482   8.715
  170POPC   D2A 6964  12.688  34.266   8.293
  170POPC   C3A 6965  12.876  34.556   7.984
  170POPC   C4A 6966  13.132  34.837   7.750
  170POPC   C1B 6967  12.676  34.974   8.647
  170POPC   C2B 6968  12.934  34.965   8.345
  170POPC   C3B 6969  12.767  35.080   8.024
  170POPC   C4B 6970  12.667  35.016   7.644
  171POPC   NC3 6971  23.680  32.727   9.566
  171POPC   PO4 6972  23.434  32.095   9.612
  171POPC   GL1 6973  23.647  32.057   9.183
  171POPC   GL2 6974  24.008  32.199   9.146
  171POPC   C1A 6975  23.416  32.009   8.772
  171POPC   D2A 6976  23.327  32.302   8.426
  171POPC   C3A 6977  23.366  32.199   7.995
  171POPC   C4A 6978  23.562  32.262   7.595
  171POPC   C1B 6979  23.929  31.982   8.729
  171POPC   C2B 6980  23.719  31.957   8.348
  171POPC   C3B 6981  23.882  32.107   7.969
  171POPC   C4B 6982  24.105  32.081   7.601
  172POPC   NC3 6983  43.370   8.314   9.459
  172POPC   PO4 6984  42.790   8.013   9.329
  172POPC   GL1 6985  43.079   8.183   9.058
  172POPC   GL2 6986  43.320   7.921   9.137
  172POPC   C1A 6987  43.164   8.216   8.621
  172POPC   D2A 6988  42.916   8.403   8.285
  172POPC   C3A 6989  43.174   8.547   7.941
  172POPC   C4A 6990  43.149   8.508   7.488
  172POPC   C1B 6991  43.100   7.713   8.812
  172POPC   C2B 6992  43.147   7.738   8.393
  172POPC   C3B 6993  43.299   8.032   8.124
  172POPC   C4B 6994  43.130   8.064   7.735
  173POPC   NC3 6995  37.389  19.400   9.532
  173POPC   PO4 6996  37.958  19.824   9.482
  173POPC   GL1 6997  37.671  19.754   9.162
  173POPC   GL2 6998  37.800  20.057   8.997
  173POPC   C1A 6999  37.462  19.747   8.767
  173POPC   D2A 7000  37.442  19.965   8.381
  173POPC   C3A 7001  37.602  19.752   8.073
  173POPC   C4A 7002  37.447  19.620   7.665
  173POPC   C1B 7003  37.555  20.326   8.730
  173POPC   C2B 7004  37.647  20.457   8.337
  173POPC   C3B 7005  37.696  20.242   7.983
  173POPC   C4B 7006  37.620  20.104   7.574
  174POPC   NC3 7007   9.854  21.094   9.977
  174POPC   PO4 7008   9.607  21.529   9.409
  174POPC   GL1 7009   9.613  21.279   9.068
  174POPC   GL2 7010   9.381  21.492   8.926
  174POPC   C1A 7011   9.682  21.211   8.628
  174POPC   D2A 7012   9.554  21.421   8.289
  174POPC   C3A 7013   9.926  21.442   8.084
  174POPC   C4A 7014  10.082  21.246   7.715
  174POPC   C1B 7015   9.307  21.832   8.650
  174POPC   C2B 7016   9.396  21.942   8.234
  174POPC   C3B 7017   9.508  21.721   7.878
  174POPC   C4B 7018   9.528  21.265   7.783
  175POPC   NC3 7019  44.390  24.607   9.562
  175POPC   PO4 7020   0.046  24.291   9.536
  175POPC   GL1 7021  44.800  24.256   9.148
  175POPC   GL2 7022  44.670  24.604   9.129
  175POPC   C1A 7023  44.849  24.379   8.703
  175POPC   D2A 7024  44.873  24.585   8.308
  175POPC   C3A 7025  44.736  24.368   7.938
  175POPC   C4A 7026  44.673  24.526   7.515
  175POPC   C1B 7027  44.381  24.600   8.741
  175POPC   C2B 7028  44.398  24.375   8.379
  175POPC   C3B 7029  44.233  24.468   7.997
  175POPC   C4B 7030  44.229  24.319   7.591
  176POPC   NC3 7031  22.302  36.418   9.691
  176POPC   PO4 7032  22.215  35.769   9.540
  176POPC   GL1 7033  22.246  36.104   9.212
  176POPC   GL2 7034  22.237  36.492   9.188
  176POPC   C1A 7035  22.227  36.139   8.767
  176POPC   D2A 7036  22.358  35.944   8.380
  176POPC   C3A 7037  22.058  36.013   8.066
  176POPC   C4A 7038  21.902  35.817   7.697
  176POPC   C1B 7039  22.475  36.592   8.811
  176POPC   C2B 7040  22.417  36.467   8.394
  176POPC   C3B 7041  22.538  36.463   7.970
  176POPC   C4B 7042  22.206  36.359   7.732
  177POPC   NC3 7043  43.576  20.476   9.749
  177POPC   PO4 7044  43.049  20.791   9.515
  177POPC   GL1 7045  43.067  20.803   9.131
  177POPC   GL2 7046  43.322  21.029   9.164
  177POPC   C1A 7047  43.005  20.544   8.775
  177POPC   D2A 7048  43.050  20.668   8.363
  177POPC   C3A 7049  42.994  20.354   8.078
  177POPC   C4A 7050  43.189  20.443   7.683
  177POPC   C1B 7051  43.261  21.006   8.710
  177POPC   C2B 7052  43.495  20.911   8.349
  177POPC   C3B 7053  43.407  20.853   7.935
  177POPC   C4B 7054  43.160  21.101   7.690
  178POPC   NC3 7055  37.907  21.941   9.427
  178POPC   PO4 7056  37.550  22.532   9.623
  178POPC   GL1 7057  37.549  22.383   9.157
  178POPC   GL2 7058  37.589  22.038   9.042
  178POPC   C1A 7059  37.325  22.341   8.705
  178POPC   D2A 7060  37.178  22.442   8.248
  178POPC   C3A 7061  37.484  22.265   7.946
  178POPC   C4A 7062  37.593  21.821   7.923
  178POPC   C1B 7063  37.869  22.235   8.737
  178POPC   C2B 7064  37.868  22.077   8.317
  178POPC   C3B 7065  38.002  22.145   7.913
  178POPC   C4B 7066  37.929  22.466   7.674
  179POPC   NC3 7067   0.397  26.429   9.497
  179POPC   PO4 7068   0.241  25.784   9.564
  179POPC   GL1 7069   0.352  26.019   9.169
  179POPC   GL2 7070   0.663  26.222   9.090
  179POPC   C1A 7071   0.290  26.224   8.756
  179POPC   D2A 7072   0.367  26.085   8.353
  179POPC   C3A 7073   0.441  26.277   7.984
  179POPC   C4A 7074   0.303  26.082   7.634
  179POPC   C1B 7075   0.723  25.934   8.727
  179POPC   C2B 7076   0.643  25.682   8.328
  179POPC   C3B 7077   0.665  25.785   7.861
  179POPC   C4B 7078   0.823  26.063   7.507
  180POPC   NC3 7079  24.026  27.033   9.434
  180POPC   PO4 7080  23.461  26.531   9.494
  180POPC   GL1 7081  23.664  26.730   9.135
  180POPC   GL2 7082  23.589  27.097   9.118
  180POPC   C1A 7083  23.522  26.777   8.691
  180POPC   D2A 7084  23.250  26.752   8.315
  180POPC   C3A 7085  23.539  26.734   7.961
  180POPC   C4A 7086  23.957  26.613   8.021
  180POPC   C1B 7087  23.854  27.178   8.758
  180POPC   C2B 7088  23.905  27.022   8.337
  180POPC   C3B 7089  23.903  27.116   7.880
  180POPC   C4B 7090  23.799  26.891   7.504
  181POPC   NC3 7091  14.952   9.725   9.619
  181POPC   PO4 7092  15.531   9.435   9.708
  181POPC   GL1 7093  15.459   9.681   9.253
  181POPC   GL2 7094  15.065   9.735   9.114
  181POPC   C1A 7095  15.429   9.776   8.787
  181POPC   D2A 7096  15.177   9.908   8.440
  181POPC   C3A 7097  15.322   9.833   8.037
  181POPC   C4A 7098  15.489  10.080   7.724
  181POPC   C1B 7099  14.788   9.831   8.772
  181POPC   C2B 7100  14.721   9.719   8.327
  181POPC   C3B 7101  14.891   9.577   7.936
  181POPC   C4B 7102  15.313   9.362   7.818
  182POPC   NC3 7103  32.921  20.896   9.427
  182POPC   PO4 7104  33.216  20.237   9.343
  182POPC   GL1 7105  32.971  20.483   9.115
  182POPC   GL2 7106  32.647  20.337   9.205
  182POPC   C1A 7107  33.065  20.745   8.755
  182POPC   D2A 7108  32.984  20.645   8.327
  182POPC   C3A 7109  33.233  20.736   7.968
  182POPC   C4A 7110  33.067  20.870   7.590
  182POPC   C1B 7111  32.623  20.433   8.745
  182POPC   C2B 7112  32.685  20.186   8.383
  182POPC   C3B 7113  32.665  20.332   7.993
  182POPC   C4B 7114  32.961  20.380   7.679
  183POPC   NC3 7115   1.242  38.689   9.526
  183POPC   PO4 7116   1.643  38.310   9.189
  183POPC   GL1 7117   1.283  38.310   9.008
  183POPC   GL2 7118   1.152  38.632   9.023
  183POPC   C1A 7119   1.243  38.409   8.563
  183POPC   D2A 7120   1.503  38.598   8.281
  183POPC   C3A 7121   1.465  38.455   7.882
  183POPC   C4A 7122   1.749  38.592   7.623
  183POPC   C1B 7123   0.940  38.800   8.656
  183POPC   C2B 7124   0.985  38.692   8.209
  183POPC   C3B 7125   1.021  38.690   7.758
  183POPC   C4B 7126   0.919  38.674   7.306
  184POPC   NC3 7127  38.606  26.386   9.525
  184POPC   PO4 7128  38.356  25.699   9.442
  184POPC   GL1 7129  38.465  25.869   9.057
  184POPC   GL2 7130  38.540  26.204   9.065
  184POPC   C1A 7131  38.457  25.970   8.621
  184POPC   D2A 7132  38.343  25.696   8.301
  184POPC   C3A 7133  38.453  25.791   7.914
  184POPC   C4A 7134  38.346  26.163   7.718
  184POPC   C1B 7135  38.830  26.382   8.820
  184POPC   C2B 7136  38.970  26.234   8.466
  184POPC   C3B 7137  38.677  26.204   8.131
  184POPC   C4B 7138  38.795  26.393   7.763
  185POPC   NC3 7139  36.115  17.056   9.689
  185POPC   PO4 7140  35.787  17.636   9.510
  185POPC   GL1 7141  35.821  17.741   9.097
  185POPC   GL2 7142  36.143  17.753   9.093
  185POPC   C1A 7143  35.984  17.586   8.649
  185POPC   D2A 7144  36.302  17.388   8.352
  185POPC   C3A 7145  36.245  17.520   7.965
  185POPC   C4A 7146  35.878  17.741   7.919
  185POPC   C1B 7147  36.399  17.897   8.816
  185POPC   C2B 7148  36.321  17.898   8.402
  185POPC   C3B 7149  36.302  18.025   7.998
  185POPC   C4B 7150  36.162  18.083   7.589
  186POPC   NC3 7151  11.547  42.140   9.623
  186POPC   PO4 7152  11.378  42.779   9.603
  186POPC   GL1 7153  11.499  42.515   9.231
  186POPC   GL2 7154  11.297  42.270   9.181
  186POPC   C1A 7155  11.648  42.381   8.816
  186POPC   D2A 7156  11.465  42.250   8.425
  186POPC   C3A 7157  11.513  42.411   8.038
  186POPC   C4A 7158  11.223  42.678   7.803
  186POPC   C1B 7159  11.290  42.001   8.835
  186POPC   C2B 7160  11.014  41.982   8.502
  186POPC   C3B 7161  11.095  41.909   8.090
  186POPC   C4B 7162  11.220  42.125   7.743
  187POPC   NC3 7163   5.480  10.625   9.232
  187POPC   PO4 7164   5.974  10.425   9.540
  187POPC   GL1 7165   5.984  10.453   9.175
  187POPC   GL2 7166   5.738  10.161   9.144
  187POPC   C1A 7167   5.958  10.748   8.821
  187POPC   D2A 7168   5.893  10.654   8.425
  187POPC   C3A 7169   5.744  10.807   8.061
  187POPC   C4A 7170   5.880  10.656   7.658
  187POPC   C1B 7171   5.914  10.228   8.748
  187POPC   C2B 7172   6.137  10.206   8.398
  187POPC   C3B 7173   5.955  10.309   8.040
  187POPC   C4B 7174   5.856  10.162   7.664
  188POPC   NC3 7175  32.275  16.150   9.530
  188POPC   PO4 7176  31.775  16.581   9.373
  188POPC   GL1 7177  32.188  16.401   9.088
  188POPC   GL2 7178  32.423  16.076   9.052
  188POPC   C1A 7179  32.439  16.404   8.685
  188POPC   D2A 7180  32.319  16.322   8.249
  188POPC   C3A 7181  32.438  16.035   7.936
  188POPC   C4A 7182  32.142  15.705   7.848
  188POPC   C1B 7183  32.298  15.931   8.630
  188POPC   C2B 7184  32.451  15.657   8.315
  188POPC   C3B 7185  32.644  15.554   7.957
  188POPC   C4B 7186  32.492  15.439   7.585
  189POPC   NC3 7187  25.807  24.922   9.566
  189POPC   PO4 7188  26.419  25.187   9.635
  189POPC   GL1 7189  26.110  25.197   9.256
  189POPC   GL2 7190  26.247  25.447   9.098
  189POPC   C1A 7191  25.991  25.135   8.814
  189POPC   D2A 7192  25.703  25.181   8.488
  189POPC   C3A 7193  25.904  25.056   8.111
  189POPC   C4A 7194  25.898  25.147   7.659
  189POPC   C1B 7195  26.480  25.251   8.733
  189POPC   C2B 7196  26.315  25.245   8.351
  189POPC   C3B 7197  26.278  25.361   7.924
  189POPC   C4B 7198  26.467  25.172   7.559
  190POPC   NC3 7199  17.451  38.494   9.771
  190POPC   PO4 7200  17.810  37.985   9.355
  190POPC   GL1 7201  17.564  38.112   9.079
  190POPC   GL2 7202  17.402  38.381   9.225
  190POPC   C1A 7203  17.653  38.362   8.738
  190POPC   D2A 7204  17.814  38.506   8.357
  190POPC   C3A 7205  18.041  38.200   8.102
  190POPC   C4A 7206  17.687  38.166   7.846
  190POPC   C1B 7207  17.187  38.511   8.834
  190POPC   C2B 7208  17.147  38.680   8.359
  190POPC   C3B 7209  17.277  38.560   7.917
  190POPC   C4B 7210  17.109  38.395   7.485
  191POPC   NC3 7211  38.962  18.627   9.493
  191POPC   PO4 7212  38.614  19.288   9.387
  191POPC   GL1 7213  38.575  19.087   9.037
  191POPC   GL2 7214  38.838  18.874   9.079
  191POPC   C1A 7215  38.264  19.043   8.708
  191POPC   D2A 7216  38.400  18.985   8.308
  191POPC   C3A 7217  38.280  18.852   7.930
  191POPC   C4A 7218  38.489  19.180   7.695
  191POPC   C1B 7219  38.693  18.732   8.690
  191POPC   C2B 7220  38.878  18.829   8.291
  191POPC   C3B 7221  38.803  18.797   7.860
  191POPC   C4B 7222  38.560  18.698   7.492
  192POPC   NC3 7223  28.713  36.432   9.463
  192POPC   PO4 7224  29.285  36.132   9.388
  192POPC   GL1 7225  29.173  36.168   8.970
  192POPC   GL2 7226  28.814  36.199   9.022
  192POPC   C1A 7227  29.379  36.302   8.595
  192POPC   D2A 7228  29.471  36.319   8.164
  192POPC   C3A 7229  29.206  36.097   7.885
  192POPC   C4A 7230  29.232  36.101   7.448
  192POPC   C1B 7231  28.626  35.920   8.749
  192POPC   C2B 7232  28.606  36.029   8.351
  192POPC   C3B 7233  28.754  35.812   7.986
  192POPC   C4B 7234  28.756  36.019   7.613
  193POPC   NC3 7235  44.837  11.022   9.922
  193POPC   PO4 7236  44.431  11.466   9.547
  193POPC   GL1 7237  44.579  11.352   9.140
  193POPC   GL2 7238  44.469  10.970   9.129
  193POPC   C1A 7239  44.901  11.385   8.832
  193POPC   D2A 7240  44.715  11.362   8.435
  193POPC   C3A 7241  44.974  11.413   8.078
  193POPC   C4A 7242  44.816  11.327   7.684
  193POPC   C1B 7243  44.327  11.074   8.735
  193POPC   C2B 7244  44.419  10.946   8.356
  193POPC   C3B 7245  44.597  10.929   7.975
  193POPC   C4B 7246  44.388  11.057   7.618
  194POPC   NC3 7247  44.498  19.277   9.409
  194POPC   PO4 7248  44.535  18.579   9.482
  194POPC   GL1 7249  44.817  18.693   9.127
  194POPC   GL2 7250  44.726  19.047   9.012
  194POPC   C1A 7251  44.732  18.687   8.663
  194POPC   D2A 7252  44.626  19.039   8.403
  194POPC   C3A 7253  44.685  18.945   7.976
  194POPC   C4A 7254  44.372  18.856   7.677
  194POPC   C1B 7255  44.787  19.421   8.732
  194POPC   C2B 7256  44.649  19.557   8.323
  194POPC   C3B 7257  44.484  19.414   7.948
  194POPC   C4B 7258  44.689  19.283   7.565
  195POPC   NC3 7259  11.997  26.703   9.541
  195POPC   PO4 7260  12.524  26.878   9.334
  195POPC   GL1 7261  12.205  26.939   9.039
  195POPC   GL2 7262  11.848  26.859   9.088
  195POPC   C1A 7263  12.254  26.835   8.614
  195POPC   D2A 7264  12.431  26.755   8.194
  195POPC   C3A 7265  12.238  26.916   7.817
  195POPC   C4A 7266  12.063  26.676   7.452
  195POPC   C1B 7267  11.751  26.941   8.661
  195POPC   C2B 7268  11.909  26.918   8.234
  195POPC   C3B 7269  11.739  27.040   7.835
  195POPC   C4B 7270  11.853  27.148   7.395
  196POPC   NC3 7271  26.492  36.397   9.346
  196POPC   PO4 7272  26.753  35.760   9.523
  196POPC   GL1 7273  26.858  36.023   9.179
  196POPC   GL2 7274  26.530  35.959   9.123
  196POPC   C1A 7275  26.886  35.954   8.742
  196POPC   D2A 7276  27.094  35.956   8.354
  196POPC   C3A 7277  26.779  35.995   8.084
  196POPC   C4A 7278  26.772  36.268   7.766
  196POPC   C1B 7279  26.420  35.699   8.841
  196POPC   C2B 7280  26.473  35.750   8.442
  196POPC   C3B 7281  26.323  35.625   8.083
  196POPC   C4B 7282  26.380  35.925   7.765
  197POPC   NC3 7283  10.149  34.857   9.470
  197POPC   PO4 7284   9.661  34.373   9.581
  197POPC   GL1 7285   9.840  34.506   9.211
  197POPC   GL2 7286   9.489  34.597   9.115
  197POPC   C1A 7287   9.872  34.696   8.793
  197POPC   D2A 7288   9.645  34.571   8.438
  197POPC   C3A 7289   9.878  34.733   8.053
  197POPC   C4A 7290   9.945  34.623   7.641
  197POPC   C1B 7291   9.487  34.230   8.898
  197POPC   C2B 7292   9.295  34.150   8.504
  197POPC   C3B 7293   9.407  34.260   8.108
  197POPC   C4B 7294   9.601  34.269   7.724
  198POPC   NC3 7295   9.462   3.443   9.497
  198POPC   PO4 7296  10.023   3.726   9.518
  198POPC   GL1 7297   9.883   3.584   9.121
  198POPC   GL2 7298   9.713   3.279   9.065
  198POPC   C1A 7299   9.703   3.658   8.721
  198POPC   D2A 7300   9.567   3.565   8.312
  198POPC   C3A 7301   9.867   3.756   8.081
  198POPC   C4A 7302   9.923   3.991   7.734
  198POPC   C1B 7303   9.377   3.223   8.722
  198POPC   C2B 7304   9.244   3.172   8.254
  198POPC   C3B 7305   9.516   3.126   7.855
  198POPC   C4B 7306   9.701   3.204   7.413
  199POPC   NC3 7307  14.588  44.316   9.317
  199POPC   PO4 7308  14.642  44.866   9.664
  199POPC   GL1 7309  14.420  44.962   9.171
  199POPC   GL2 7310  14.270  44.634   9.077
  199POPC   C1A 7311  14.467  44.883   8.677
  199POPC   D2A 7312  14.252  44.659   8.423
  199POPC   C3A 7313  14.456  44.578   8.109
  199POPC   C4A 7314  14.472  44.826   7.744
  199POPC   C1B 7315  14.027  44.382   8.760
  199POPC   C2B 7316  14.107  44.167   8.365
  199POPC   C3B 7317  14.030  44.314   8.006
  199POPC   C4B 7318  14.316  44.364   7.681
  200POPC   NC3 7319  30.439  20.674   9.417
  200POPC   PO4 7320  29.859  20.999   9.549
  200POPC   GL1 7321  29.962  20.758   9.170
  200POPC   GL2 7322  29.999  20.431   9.209
  200POPC   C1A 7323  30.167  20.684   8.751
  200POPC   D2A 7324  30.269  20.827   8.312
  200POPC   C3A 7325  30.082  20.714   7.875
  200POPC   C4A 7326  29.703  20.767   7.580
  200POPC   C1B 7327  29.761  20.380   8.777
  200POPC   C2B 7328  29.862  20.470   8.344
  200POPC   C3B 7329  29.858  20.243   7.967
  200POPC   C4B 7330  29.701  20.244   7.574
  201POPC   NC3 7331   7.539  22.442   9.525
  201POPC   PO4 7332   7.460  23.110   9.554
  201POPC   GL1 7333   7.427  22.813   9.190
  201POPC   GL2 7334   7.763  22.716   9.098
  201POPC   C1A 7335   7.290  22.748   8.768
  201POPC   D2A 7336   7.470  22.762   8.344
  201POPC   C3A 7337   7.226  22.773   7.955
  201POPC   C4A 7338   7.383  22.955   7.573
  201POPC   C1B 7339   7.729  22.488   8.707
  201POPC   C2B 7340   7.662  22.299   8.298
  201POPC   C3B 7341   7.679  22.553   7.901
  201POPC   C4B 7342   7.658  22.566   7.410
  202POPC   NC3 7343  32.574   9.487   9.550
  202POPC   PO4 7344  31.965   9.441   9.746
  202POPC   GL1 7345  32.151   9.500   9.276
  202POPC   GL2 7346  32.451   9.301   9.108
  202POPC   C1A 7347  32.227   9.709   8.854
  202POPC   D2A 7348  31.970   9.873   8.496
  202POPC   C3A 7349  32.121   9.884   8.064
  202POPC   C4A 7350  32.515   9.914   7.831
  202POPC   C1B 7351  32.305   9.227   8.694
  202POPC   C2B 7352  32.127   9.375   8.309
  202POPC   C3B 7353  32.305   9.421   7.901
  202POPC   C4B 7354  32.380   9.461   7.478
  203POPC   NC3 7355  35.076  11.547   9.538
  203POPC   PO4 7356  35.761  11.497   9.753
  203POPC   GL1 7357  35.555  11.502   9.291
  203POPC   GL2 7358  35.291  11.274   9.147
  203POPC   C1A 7359  35.605  11.487   8.805
  203POPC   D2A 7360  35.356  11.525   8.449
  203POPC   C3A 7361  35.428  11.263   8.127
  203POPC   C4A 7362  35.435  11.398   7.704
  203POPC   C1B 7363  35.262  11.088   8.700
  203POPC   C2B 7364  35.016  10.991   8.310
  203POPC   C3B 7365  35.039  11.096   7.851
  203POPC   C4B 7366  35.283  10.984   7.464
  204POPC   NC3 7367  25.621  19.329   9.375
  204POPC   PO4 7368  26.271  18.942   9.549
  204POPC   GL1 7369  26.131  18.836   9.143
  204POPC   GL2 7370  25.753  18.840   9.166
  204POPC   C1A 7371  26.008  19.105   8.785
  204POPC   D2A 7372  26.064  19.386   8.422
  204POPC   C3A 7373  26.001  19.189   8.018
  204POPC   C4A 7374  26.099  19.334   7.624
  204POPC   C1B 7375  25.820  18.615   8.789
  204POPC   C2B 7376  25.636  18.623   8.393
  204POPC   C3B 7377  25.832  18.657   7.987
  204POPC   C4B 7378  25.935  18.847   7.606
  205POPC   NC3 7379  31.710  41.056   9.541
  205POPC   PO4 7380  32.349  40.714   9.581
  205POPC   GL1 7381  32.265  40.709   9.168
  205POPC   GL2 7382  32.577  40.581   9.111
  205POPC   C1A 7383  32.274  40.880   8.788
  205POPC   D2A 7384  32.236  40.719   8.366
  205POPC   C3A 7385  32.293  40.918   7.970
  205POPC   C4A 7386  32.182  41.148   7.630
  205POPC   C1B 7387  32.517  40.428   8.730
  205POPC   C2B 7388  32.614  40.375   8.324
  205POPC   C3B 7389  32.472  40.425   7.925
  205POPC   C4B 7390  32.741  40.643   7.654
  206POPC   NC3 7391  25.072  40.211   9.323
  206POPC   PO4 7392  25.609  39.880   9.515
  206POPC   GL1 7393  25.452  39.983   9.065
  206POPC   GL2 7394  25.104  39.911   8.918
  206POPC   C1A 7395  25.481  39.942   8.584
  206POPC   D2A 7396  25.152  40.138   8.400
  206POPC   C3A 7397  25.193  40.304   7.992
  206POPC   C4A 7398  25.402  40.053   7.699
  206POPC   C1B 7399  25.100  39.602   8.608
  206POPC   C2B 7400  25.123  39.678   8.173
  206POPC   C3B 7401  24.887  39.913   7.873
  206POPC   C4B 7402  24.947  39.791   7.474
  207POPC   NC3 7403  24.262  34.985   9.428
  207POPC   PO4 7404  24.674  35.480   9.673
  207POPC   GL1 7405  24.603  35.425   9.228
  207POPC   GL2 7406  24.284  35.607   9.236
  207POPC   C1A 7407  24.687  35.170   8.818
  207POPC   D2A 7408  24.623  35.057   8.358
  207POPC   C3A 7409  24.719  35.392   8.075
  207POPC   C4A 7410  24.726  35.145   7.705
  207POPC   C1B 7411  24.208  35.353   8.857
  207POPC   C2B 7412  24.320  35.448   8.457
  207POPC   C3B 7413  24.236  35.291   8.073
  207POPC   C4B 7414  23.958  35.238   7.751
  208POPC   NC3 7415  33.821  35.443   9.729
  208POPC   PO4 7416  33.741  34.846   9.616
  208POPC   GL1 7417  33.888  35.156   9.255
  208POPC   GL2 7418  33.744  35.500   9.226
  208POPC   C1A 7419  33.872  35.295   8.780
  208POPC   D2A 7420  33.690  35.312   8.349
  208POPC   C3A 7421  33.953  35.296   7.988
  208POPC   C4A 7422  34.019  35.571   7.653
  208POPC   C1B 7423  33.701  35.794   8.876
  208POPC   C2B 7424  33.839  35.794   8.467
  208POPC   C3B 7425  33.666  35.741   8.064
  208POPC   C4B 7426  33.614  35.899   7.667
  209POPC   NC3 7427  30.975  21.557   9.401
  209POPC   PO4 7428  30.401  21.794   9.510
  209POPC   GL1 7429  30.528  21.452   9.109
  209POPC   GL2 7430  30.362  21.072   9.065
  209POPC   C1A 7431  30.914  21.349   8.798
  209POPC   D2A 7432  31.137  21.463   8.395
  209POPC   C3A 7433  30.940  21.285   8.018
  209POPC   C4A 7434  30.919  21.294   7.561
  209POPC   C1B 7435  30.595  20.958   8.731
  209POPC   C2B 7436  30.573  21.250   8.424
  209POPC   C3B 7437  30.333  21.298   8.092
  209POPC   C4B 7438  30.490  21.103   7.759
  210POPC   NC3 7439  44.598   6.828   9.365
  210POPC   PO4 7440  44.125   6.332   9.325
  210POPC   GL1 7441  44.461   6.287   9.023
  210POPC   GL2 7442  44.753   6.527   8.977
  210POPC   C1A 7443  44.502   6.364   8.559
  210POPC   D2A 7444  44.709   6.639   8.239
  210POPC   C3A 7445  44.579   6.623   7.810
  210POPC   C4A 7446  44.437   6.324   7.481
  210POPC   C1B 7447  44.641   6.898   8.694
  210POPC   C2B 7448  44.510   7.130   8.309
  210POPC   C3B 7449  44.406   7.085   7.889
  210POPC   C4B 7450  44.727   7.059   7.571
  211POPC   NC3 7451   3.181  19.067   9.380
  211POPC   PO4 7452   3.815  19.166   9.601
  211POPC   GL1 7453   3.653  19.195   9.175
  211POPC   GL2 7454   3.582  18.856   9.072
  211POPC   C1A 7455   3.396  19.223   8.775
  211POPC   D2A 7456   3.589  19.085   8.431
  211POPC   C3A 7457   3.526  19.214   8.032
  211POPC   C4A 7458   3.209  19.148   7.740
  211POPC   C1B 7459   3.820  18.677   8.688
  211POPC   C2B 7460   3.952  18.797   8.245
  211POPC   C3B 7461   3.816  18.776   7.839
  211POPC   C4B 7462   3.617  18.656   7.420
  212POPC   NC3 7463  37.319  27.706   9.478
  212POPC   PO4 7464  36.685  27.442   9.546
  212POPC   GL1 7465  36.837  27.660   9.204
  212POPC   GL2 7466  36.684  28.000   9.168
  212POPC   C1A 7467  36.899  27.409   8.834
  212POPC   D2A 7468  36.905  27.165   8.444
  212POPC   C3A 7469  37.175  27.387   8.116
  212POPC   C4A 7470  37.208  27.565   7.678
  212POPC   C1B 7471  36.561  27.808   8.791
  212POPC   C2B 7472  36.759  27.649   8.400
  212POPC   C3B 7473  36.617  27.384   8.073
  212POPC   C4B 7474  36.634  27.461   7.649
  213POPC   NC3 7475  30.384   9.069   9.490
  213POPC   PO4 7476  31.111   8.982   9.500
  213POPC   GL1 7477  30.900   8.900   9.101
  213POPC   GL2 7478  30.691   9.156   9.074
  213POPC   C1A 7479  30.849   8.884   8.652
  213POPC   D2A 7480  30.606   8.867   8.296
  213POPC   C3A 7481  30.889   8.839   7.930
  213POPC   C4A 7482  30.991   9.186   7.659
  213POPC   C1B 7483  30.356   8.998   8.818
  213POPC   C2B 7484  30.072   9.217   8.591
  213POPC   C3B 7485  30.118   9.308   8.135
  213POPC   C4B 7486  30.322   9.000   7.857
  214POPC   NC3 7487  23.137  33.424   9.592
  214POPC   PO4 7488  23.712  33.141   9.759
  214POPC   GL1 7489  23.673  33.148   9.288
  214POPC   GL2 7490  23.775  33.464   9.325
  214POPC   C1A 7491  23.826  32.970   8.852
  214POPC   D2A 7492  23.959  33.075   8.394
  214POPC   C3A 7493  23.862  32.887   7.979
  214POPC   C4A 7494  23.433  32.851   7.828
  214POPC   C1B 7495  23.671  33.453   8.884
  214POPC   C2B 7496  23.653  33.489   8.439
  214POPC   C3B 7497  23.717  33.401   7.999
  214POPC   C4B 7498  23.753  33.216   7.597
  215POPC   NC3 7499  22.562  25.910   9.445
  215POPC   PO4 7500  21.924  26.176   9.670
  215POPC   GL1 7501  22.045  25.916   9.261
  215POPC   GL2 7502  21.998  26.169   9.047
  215POPC   C1A 7503  22.035  25.787   8.752
  215POPC   D2A 7504  22.263  25.731   8.334
  215POPC   C3A 7505  22.146  25.953   7.939
  215POPC   C4A 7506  21.857  25.844   7.596
  215POPC   C1B 7507  22.153  26.387   8.688
  215POPC   C2B 7508  22.341  26.275   8.311
  215POPC   C3B 7509  22.342  26.488   7.962
  215POPC   C4B 7510  22.194  26.637   7.608
  216POPC   NC3 7511  13.473  24.360   9.433
  216POPC   PO4 7512  13.965  24.719   9.227
  216POPC   GL1 7513  13.718  24.475   8.983
  216POPC   GL2 7514  13.365  24.596   9.002
  216POPC   C1A 7515  13.860  24.361   8.582
  216POPC   D2A 7516  14.065  24.678   8.344
  216POPC   C3A 7517  13.985  24.653   7.899
  216POPC   C4A 7518  13.641  24.417   7.797
  216POPC   C1B 7519  13.344  24.284   8.697
  216POPC   C2B 7520  13.446  24.452   8.286
  216POPC   C3B 7521  13.278  24.718   7.970
  216POPC   C4B 7522  13.369  24.747   7.506
  217POPC   NC3 7523  15.527  38.585   9.608
  217POPC   PO4 7524  14.877  38.329   9.527
  217POPC   GL1 7525  15.015  38.480   9.132
  217POPC   GL2 7526  15.357  38.427   9.161
  217POPC   C1A 7527  15.079  38.283   8.720
  217POPC   D2A 7528  15.110  38.080   8.328
  217POPC   C3A 7529  15.168  38.377   8.016
  217POPC   C4A 7530  14.969  38.542   7.688
  217POPC   C1B 7531  15.428  38.635   8.804
  217POPC   C2B 7532  15.267  38.703   8.416
  217POPC   C3B 7533  15.480  38.795   8.036
  217POPC   C4B 7534  15.560  38.617   7.671
  218POPC   NC3 7535   2.933   6.339   9.527
  218POPC   PO4 7536   2.349   6.063   9.500
  218POPC   GL1 7537   2.608   6.062   9.172
  218POPC   GL2 7538   2.668   5.699   9.160
  218POPC   C1A 7539   2.566   5.978   8.743
  218POPC   D2A 7540   2.380   5.745   8.417
  218POPC   C3A 7541   2.508   5.954   8.061
  218POPC   C4A 7542   2.776   6.069   7.735
  218POPC   C1B 7543   2.901   5.604   8.769
  218POPC   C2B 7544   2.903   5.793   8.353
  218POPC   C3B 7545   2.934   5.617   7.945
  218POPC   C4B 7546   3.152   5.752   7.552
  219POPC   NC3 7547  14.121   5.225   9.387
  219POPC   PO4 7548  14.837   5.164   9.535
  219POPC   GL1 7549  14.550   5.008   9.162
  219POPC   GL2 7550  14.196   4.850   9.039
  219POPC   C1A 7551  14.448   5.210   8.751
  219POPC   D2A 7552  14.561   5.432   8.355
  219POPC   C3A 7553  14.407   5.159   8.028
  219POPC   C4A 7554  14.282   5.158   7.606
  219POPC   C1B 7555  14.010   4.885   8.588
  219POPC   C2B 7556  14.008   4.821   8.108
  219POPC   C3B 7557  13.913   4.811   7.671
  219POPC   C4B 7558  13.922   5.052   7.253
  220POPC   NC3 7559  15.061  41.932   9.708
  220POPC   PO4 7560  14.796  42.502   9.501
  220POPC   GL1 7561  15.094  42.283   9.287
  220POPC   GL2 7562  14.960  41.975   9.195
  220POPC   C1A 7563  15.171  42.311   8.856
  220POPC   D2A 7564  15.116  42.188   8.439
  220POPC   C3A 7565  15.390  42.303   8.104
  220POPC   C4A 7566  15.241  42.320   7.659
  220POPC   C1B 7567  14.721  42.050   8.799
  220POPC   C2B 7568  14.597  42.300   8.442
  220POPC   C3B 7569  14.775  42.189   8.028
  220POPC   C4B 7570  14.819  42.063   7.598
  221POPC   NC3 7571  11.825   2.021   9.668
  221POPC   PO4 7572  12.515   2.176   9.691
  221POPC   GL1 7573  12.224   2.228   9.266
  221POPC   GL2 7574  11.895   2.072   9.159
  221POPC   C1A 7575  12.234   2.071   8.788
  221POPC   D2A 7576  12.021   2.185   8.396
  221POPC   C3A 7577  12.171   2.065   7.995
  221POPC   C4A 7578  12.178   1.741   7.712
  221POPC   C1B 7579  11.757   1.876   8.736
  221POPC   C2B 7580  11.778   1.774   8.260
  221POPC   C3B 7581  11.696   1.875   7.809
  221POPC   C4B 7582  11.453   1.884   7.406
  222POPC   NC3 7583  19.357  31.744   9.578
  222POPC   PO4 7584  18.824  31.493   9.827
  222POPC   GL1 7585  18.969  31.416   9.333
  222POPC   GL2 7586  19.329  31.335   9.229
  222POPC   C1A 7587  18.996  31.286   8.837
  222POPC   D2A 7588  19.211  31.205   8.384
  222POPC   C3A 7589  18.960  31.211   7.967
  222POPC   C4A 7590  18.835  31.590   7.710
  222POPC   C1B 7591  19.470  31.468   8.792
  222POPC   C2B 7592  19.414  31.774   8.429
  222POPC   C3B 7593  19.339  31.803   7.972
  222POPC   C4B 7594  19.404  31.393   7.809
  223POPC   NC3 7595  26.941  14.066   9.540
  223POPC   PO4 7596  27.057  14.730   9.596
  223POPC   GL1 7597  26.836  14.478   9.187
  223POPC   GL2 7598  26.853  14.112   9.055
  223POPC   C1A 7599  26.864  14.457   8.694
  223POPC   D2A 7600  26.977  14.193   8.304
  223POPC   C3A 7601  26.833  14.415   7.937
  223POPC   C4A 7602  26.530  14.734   7.935
  223POPC   C1B 7603  26.545  14.050   8.736
  223POPC   C2B 7604  26.572  13.846   8.365
  223POPC   C3B 7605  26.606  13.976   7.979
  223POPC   C4B 7606  26.772  14.016   7.602
  224POPC   NC3 7607  28.601  40.607   9.859
  224POPC   PO4 7608  29.165  40.859   9.487
  224POPC   GL1 7609  29.286  40.990   9.097
  224POPC   GL2 7610  28.998  40.856   8.968
  224POPC   C1A 7611  29.379  40.887   8.669
  224POPC   D2A 7612  29.220  40.681   8.309
  224POPC   C3A 7613  29.256  40.906   7.949
  224POPC   C4A 7614  29.471  40.846   7.621
  224POPC   C1B 7615  28.759  40.720   8.634
  224POPC   C2B 7616  28.740  40.461   8.311
  224POPC   C3B 7617  28.951  40.466   7.938
  224POPC   C4B 7618  28.818  40.336   7.578
  225POPC   NC3 7619  24.042  24.553   9.486
  225POPC   PO4 7620  23.532  24.143   9.534
  225POPC   GL1 7621  23.755  24.322   9.105
  225POPC   GL2 7622  24.002  24.599   9.004
  225POPC   C1A 7623  23.647  24.506   8.667
  225POPC   D2A 7624  23.515  24.359   8.268
  225POPC   C3A 7625  23.546  24.623   7.918
  225POPC   C4A 7626  23.645  24.266   7.699
  225POPC   C1B 7627  24.150  24.415   8.631
  225POPC   C2B 7628  24.014  24.527   8.212
  225POPC   C3B 7629  24.117  24.474   7.769
  225POPC   C4B 7630  24.050  24.806   7.456
  226POPC   NC3 7631   1.275  14.623   9.484
  226POPC   PO4 7632   1.095  13.977   9.414
  226POPC   GL1 7633   1.188  14.236   9.124
  226POPC   GL2 7634   0.891  14.460   9.202
  226POPC   C1A 7635   1.435  14.272   8.752
  226POPC   D2A 7636   1.377  14.311   8.352
  226POPC   C3A 7637   1.310  14.551   8.015
  226POPC   C4A 7638   1.431  14.439   7.566
  226POPC   C1B 7639   1.094  14.637   8.832
  226POPC   C2B 7640   0.929  14.609   8.432
  226POPC   C3B 7641   0.869  14.786   8.043
  226POPC   C4B 7642   0.926  14.615   7.667
  227POPC   NC3 7643  22.461  10.317   9.362
  227POPC   PO4 7644  22.106  10.962   9.415
  227POPC   GL1 7645  22.075  10.736   9.067
  227POPC   GL2 7646  22.054  10.391   9.051
  227POPC   C1A 7647  22.308  10.712   8.703
  227POPC   D2A 7648  22.496  10.614   8.354
  227POPC   C3A 7649  22.298  10.759   8.045
  227POPC   C4A 7650  22.424  10.643   7.714
  227POPC   C1B 7651  21.870  10.439   8.654
  227POPC   C2B 7652  22.016  10.400   8.258
  227POPC   C3B 7653  22.211  10.209   7.892
  227POPC   C4B 7654  21.966  10.051   7.532
  228POPC   NC3 7655   0.694   6.833   9.437
  228POPC   PO4 7656   0.002   6.615   9.473
  228POPC   GL1 7657   0.244   6.433   9.114
  228POPC   GL2 7658   0.580   6.386   9.192
  228POPC   C1A 7659   0.240   6.483   8.660
  228POPC   D2A 7660   0.311   6.497   8.193
  228POPC   C3A 7661   0.098   6.765   7.883
  228POPC   C4A 7662   0.347   7.069   7.665
  228POPC   C1B 7663   0.710   6.624   8.827
  228POPC   C2B 7664   0.806   6.449   8.451
  228POPC   C3B 7665   0.837   6.596   8.092
  228POPC   C4B 7666   0.601   6.616   7.778
  229POPC   NC3 7667  40.916   8.568   9.455
  229POPC   PO4 7668  40.648   7.929   9.594
  229POPC   GL1 7669  40.638   8.053   9.126
  229POPC   GL2 7670  40.603   8.416   9.091
  229POPC   C1A 7671  40.795   8.136   8.703
  229POPC   D2A 7672  40.726   7.949   8.340
  229POPC   C3A 7673  40.958   8.180   8.015
  229POPC   C4A 7674  40.922   8.145   7.572
  229POPC   C1B 7675  40.542   8.617   8.658
  229POPC   C2B 7676  40.708   8.631   8.201
  229POPC   C3B 7677  40.703   8.566   7.731
  229POPC   C4B 7678  40.751   8.475   7.222
  230POPC   NC3 7679  43.553  18.970   9.522
  230POPC   PO4 7680  42.928  18.965   9.653
  230POPC   GL1 7681  43.075  19.005   9.230
  230POPC   GL2 7682  43.352  18.815   9.097
  230POPC   C1A 7683  43.073  19.184   8.815
  230POPC   D2A 7684  43.254  19.118   8.418
  230POPC   C3A 7685  43.033  18.998   8.017
  230POPC   C4A 7686  42.884  19.189   7.588
  230POPC   C1B 7687  43.229  18.692   8.707
  230POPC   C2B 7688  43.365  18.647   8.282
  230POPC   C3B 7689  43.373  18.605   7.863
  230POPC   C4B 7690  43.032  18.695   7.613
  231POPC   NC3 7691  30.454  33.782   9.499
  231POPC   PO4 7692  31.102  33.741   9.543
  231POPC   GL1 7693  30.876  33.931   9.160
  231POPC   GL2 7694  30.542  34.124   9.104
  231POPC   C1A 7695  30.752  33.797   8.751
  231POPC   D2A 7696  30.779  33.908   8.341
  231POPC   C3A 7697  30.679  33.576   8.025
  231POPC   C4A 7698  30.738  33.878   7.671
  231POPC   C1B 7699  30.275  33.991   8.770
  231POPC   C2B 7700  30.292  33.759   8.396
  231POPC   C3B 7701  30.324  33.939   7.988
  231POPC   C4B 7702  30.193  34.029   7.578
  232POPC   NC3 7703  36.436  31.654   9.145
  232POPC   PO4 7704  35.944  31.300   9.378
  232POPC   GL1 7705  36.042  31.277   8.986
  232POPC   GL2 7706  36.392  31.144   8.973
  232POPC   C1A 7707  35.926  31.521   8.632
  232POPC   D2A 7708  36.060  31.720   8.260
  232POPC   C3A 7709  36.083  31.447   7.907
  232POPC   C4A 7710  36.113  31.269   7.490
  232POPC   C1B 7711  36.672  31.289   8.622
  232POPC   C2B 7712  36.652  31.712   8.401
  232POPC   C3B 7713  36.492  31.788   7.979
  232POPC   C4B 7714  36.569  31.424   7.700
  233POPC   NC3 7715  13.144  22.797   9.578
  233POPC   PO4 7716  12.467  22.656   9.568
  233POPC   GL1 7717  12.581  22.776   9.150
  233POPC   GL2 7718  12.934  22.762   9.125
  233POPC   C1A 7719  12.540  22.981   8.757
  233POPC   D2A 7720  12.460  23.228   8.418
  233POPC   C3A 7721  12.657  23.051   8.069
  233POPC   C4A 7722  12.920  23.259   7.776
  233POPC   C1B 7723  13.056  22.972   8.765
  233POPC   C2B 7724  13.098  23.067   8.339
  233POPC   C3B 7725  13.131  22.837   7.938
  233POPC   C4B 7726  13.030  22.759   7.519
  234POPC   NC3 7727  36.063  34.191   9.343
  234POPC   PO4 7728  36.241  34.803   9.442
  234POPC   GL1 7729  36.200  34.886   9.029
  234POPC   GL2 7730  35.861  34.758   9.038
  234POPC   C1A 7731  36.249  34.617   8.660
  234POPC   D2A 7732  36.318  34.384   8.250
  234POPC   C3A 7733  36.374  34.703   7.925
  234POPC   C4A 7734  36.095  34.831   7.606
  234POPC   C1B 7735  35.715  34.553   8.657
  234POPC   C2B 7736  35.563  34.453   8.230
  234POPC   C3B 7737  35.786  34.261   7.872
  234POPC   C4B 7738  36.191  34.303   7.664
  235POPC   NC3 7739  31.403   0.475   9.330
  235POPC   PO4 7740  31.892   0.023   9.360
  235POPC   GL1 7741  31.497   0.008   9.095
  235POPC   GL2 7742  31.125   0.106   9.083
  235POPC   C1A 7743  31.423   0.171   8.678
  235POPC   D2A 7744  31.603   0.029   8.314
  235POPC   C3A 7745  31.500   0.331   7.967
  235POPC   C4A 7746  31.879   0.512   7.786
  235POPC   C1B 7747  30.998   0.470   8.777
  235POPC   C2B 7748  31.121   0.695   8.409
  235POPC   C3B 7749  31.188   0.747   7.944
  235POPC   C4B 7750  31.230   0.530   7.539
  236POPC   NC3 7751  32.292  40.275   9.425
  236POPC   PO4 7752  31.962  39.706   9.597
  236POPC   GL1 7753  32.063  39.888   9.215
  236POPC   GL2 7754  31.852  40.214   9.187
  236POPC   C1A 7755  32.278  39.971   8.844
  236POPC   D2A 7756  32.259  39.769   8.483
  236POPC   C3A 7757  32.455  39.928   8.149
  236POPC   C4A 7758  32.400  39.854   7.736
  236POPC   C1B 7759  31.991  40.421   8.819
  236POPC   C2B 7760  32.098  40.248   8.450
  236POPC   C3B 7761  31.987  40.145   8.080
  236POPC   C4B 7762  32.066  40.232   7.677
  237POPC   NC3 7763  39.309  40.966   9.666
  237POPC   PO4 7764  39.118  41.597   9.592
  237POPC   GL1 7765  39.042  41.402   9.193
  237POPC   GL2 7766  39.372  41.217   9.165
  237POPC   C1A 7767  38.927  41.649   8.807
  237POPC   D2A 7768  39.171  41.645   8.424
  237POPC   C3A 7769  39.080  41.480   8.022
  237POPC   C4A 7770  39.295  41.278   7.673
  237POPC   C1B 7771  39.448  41.630   8.920
  237POPC   C2B 7772  39.526  41.963   8.579
  237POPC   C3B 7773  39.539  41.873   8.124
  237POPC   C4B 7774  39.444  41.781   7.701
  238POPC   NC3 7775   6.022  12.243   9.650
  238POPC   PO4 7776   6.345  11.730   9.326
  238POPC   GL1 7777   6.029  11.984   9.122
  238POPC   GL2 7778   6.211  12.248   9.154
  238POPC   C1A 7779   5.805  11.945   8.698
  238POPC   D2A 7780   5.957  11.806   8.300
  238POPC   C3A 7781   5.726  11.874   7.938
  238POPC   C4A 7782   5.900  12.227   7.778
  238POPC   C1B 7783   6.097  12.372   8.764
  238POPC   C2B 7784   5.951  12.323   8.312
  238POPC   C3B 7785   6.211  12.555   8.018
  238POPC   C4B 7786   6.432  12.511   7.638
  239POPC   NC3 7787  27.619  44.143   9.737
  239POPC   PO4 7788  27.151  43.625   9.737
  239POPC   GL1 7789  27.377  43.610   9.289
  239POPC   GL2 7790  27.763  43.480   9.270
  239POPC   C1A 7791  27.518  43.832   8.870
  239POPC   D2A 7792  27.681  43.866   8.424
  239POPC   C3A 7793  27.664  44.053   7.971
  239POPC   C4A 7794  27.494  44.046   7.537
  239POPC   C1B 7795  27.915  43.526   8.817
  239POPC   C2B 7796  27.914  43.398   8.376
  239POPC   C3B 7797  27.683  43.539   8.053
  239POPC   C4B 7798  27.700  43.613   7.667
  240POPC   NC3 7799   8.605  35.380   9.457
  240POPC   PO4 7800   9.118  35.844   9.408
  240POPC   GL1 7801   8.912  35.544   9.087
  240POPC   GL2 7802   8.532  35.495   8.978
  240POPC   C1A 7803   8.988  35.327   8.724
  240POPC   D2A 7804   9.233  35.364   8.381
  240POPC   C3A 7805   9.042  35.153   8.023
  240POPC   C4A 7806   9.220  35.170   7.598
  240POPC   C1B 7807   8.652  35.723   8.616
  240POPC   C2B 7808   8.949  35.802   8.275
  240POPC   C3B 7809   9.217  35.620   7.939
  240POPC   C4B 7810   8.857  35.511   7.703
  241POPC   NC3 7811   5.054  15.854   9.515
  241POPC   PO4 7812   5.118  16.472   9.714
  241POPC   GL1 7813   5.107  16.309   9.249
  241POPC   GL2 7814   5.392  16.468   9.076
  241POPC   C1A 7815   4.921  16.085   8.831
  241POPC   D2A 7816   4.852  15.934   8.351
  241POPC   C3A 7817   5.068  15.937   7.911
  241POPC   C4A 7818   5.108  15.794   7.433
  241POPC   C1B 7819   5.344  16.325   8.704
  241POPC   C2B 7820   5.304  16.203   8.295
  241POPC   C3B 7821   5.383  16.439   7.939
  241POPC   C4B 7822   5.342  16.227   7.585
  242POPC   NC3 7823   7.997  43.079   9.560
  242POPC   PO4 7824   7.329  43.156   9.526
  242POPC   GL1 7825   7.479  43.237   9.122
  242POPC   GL2 7826   7.746  43.007   9.096
  242POPC   C1A 7827   7.614  43.313   8.712
  242POPC   D2A 7828   7.787  43.243   8.350
  242POPC   C3A 7829   7.467  43.315   8.101
  242POPC   C4A 7830   7.415  43.225   7.666
  242POPC   C1B 7831   7.404  42.859   8.775
  242POPC   C2B 7832   7.478  42.833   8.306
  242POPC   C3B 7833   7.765  42.923   7.930
  242POPC   C4B 7834   7.695  42.828   7.466
  243POPC   NC3 7835   5.139  36.826   9.531
  243POPC   PO4 7836   5.648  36.625   9.336
  243POPC   GL1 7837   5.242  36.544   9.074
  243POPC   GL2 7838   4.951  36.738   9.060
  243POPC   C1A 7839   4.972  36.390   8.708
  243POPC   D2A 7840   4.640  36.539   8.446
  243POPC   C3A 7841   4.857  36.658   8.072
  243POPC   C4A 7842   4.784  36.746   7.656
  243POPC   C1B 7843   4.927  36.916   8.655
  243POPC   C2B 7844   4.896  37.163   8.273
  243POPC   C3B 7845   4.849  37.240   7.835
  243POPC   C4B 7846   4.939  37.243   7.413
  244POPC   NC3 7847  30.800  44.165   9.323
  244POPC   PO4 7848  30.532  43.660   9.659
  244POPC   GL1 7849  30.444  43.731   9.215
  244POPC   GL2 7850  30.752  43.600   9.013
  244POPC   C1A 7851  30.424  43.868   8.764
  244POPC   D2A 7852  30.783  43.714   8.504
  244POPC   C3A 7853  30.649  43.628   8.108
  244POPC   C4A 7854  30.416  43.867   7.782
  244POPC   C1B 7855  31.131  43.401   8.800
  244POPC   C2B 7856  31.366  43.493   8.414
  244POPC   C3B 7857  31.167  43.747   8.086
  244POPC   C4B 7858  30.921  43.714   7.691
  245POPC   NC3 7859   0.995  39.467   9.933
  245POPC   PO4 7860   1.371  39.142   9.623
  245POPC   GL1 7861   1.267  39.117   9.195
  245POPC   GL2 7862   1.079  39.413   9.084
  245POPC   C1A 7863   1.393  39.029   8.776
  245POPC   D2A 7864   1.290  39.061   8.362
  245POPC   C3A 7865   1.239  39.305   8.018
  245POPC   C4A 7866   1.392  39.026   7.682
  245POPC   C1B 7867   1.038  39.423   8.639
  245POPC   C2B 7868   0.783  39.186   8.365
  245POPC   C3B 7869   0.690  39.039   7.991
  245POPC   C4B 7870   0.892  39.193   7.643
  246POPC   NC3 7871  41.782  27.778   9.534
  246POPC   PO4 7872  41.679  27.135   9.666
  246POPC   GL1 7873  41.677  27.438   9.205
  246POPC   GL2 7874  41.390  27.638   9.152
  246POPC   C1A 7875  41.731  27.369   8.774
  246POPC   D2A 7876  41.500  27.362   8.397
  246POPC   C3A 7877  41.599  27.525   7.977
  246POPC   C4A 7878  41.971  27.677   7.755
  246POPC   C1B 7879  41.242  27.839   8.789
  246POPC   C2B 7880  41.406  27.869   8.369
  246POPC   C3B 7881  41.222  27.889   7.932
  246POPC   C4B 7882  41.050  27.759   7.500
  247POPC   NC3 7883  39.552  36.041   9.444
  247POPC   PO4 7884  39.079  36.378   9.650
  247POPC   GL1 7885  39.079  36.126   9.223
  247POPC   GL2 7886  39.228  35.791   9.158
  247POPC   C1A 7887  39.169  36.229   8.794
  247POPC   D2A 7888  39.132  36.050   8.392
  247POPC   C3A 7889  39.263  36.194   7.990
  247POPC   C4A 7890  39.137  36.260   7.512
  247POPC   C1B 7891  39.099  35.682   8.765
  247POPC   C2B 7892  39.318  35.567   8.400
  247POPC   C3B 7893  39.121  35.686   8.009
  247POPC   C4B 7894  39.323  35.818   7.635
  248POPC   NC3 7895   7.409  28.758   9.383
  248POPC   PO4 7896   7.056  28.279   9.583
  248POPC   GL1 7897   7.136  28.371   9.155
  248POPC   GL2 7898   7.054  28.688   9.005
  248POPC   C1A 7899   7.348  28.279   8.740
  248POPC   D2A 7900   7.668  28.019   8.456
  248POPC   C3A 7901   7.546  28.080   8.036
  248POPC   C4A 7902   7.649  28.410   7.790
  248POPC   C1B 7903   7.213  28.848   8.615
  248POPC   C2B 7904   7.400  28.719   8.216
  248POPC   C3B 7905   7.324  28.807   7.774
  248POPC   C4B 7906   7.131  28.813   7.356
  249POPC   NC3 7907  42.697  41.426   9.544
  249POPC   PO4 7908  43.311  41.641   9.491
  249POPC   GL1 7909  43.073  41.379   9.192
  249POPC   GL2 7910  42.996  41.708   9.039
  249POPC   C1A 7911  42.905  41.319   8.751
  249POPC   D2A 7912  43.086  41.553   8.382
  249POPC   C3A 7913  42.995  41.332   7.998
  249POPC   C4A 7914  42.858  41.538   7.616
  249POPC   C1B 7915  43.391  41.535   8.817
  249POPC   C2B 7916  43.638  41.562   8.443
  249POPC   C3B 7917  43.573  41.791   8.042
  249POPC   C4B 7918  43.337  41.605   7.703
  250POPC   NC3 7919   7.439  12.864   9.534
  250POPC   PO4 7920   6.971  12.505   9.412
  250POPC   GL1 7921   7.155  12.855   9.102
  250POPC   GL2 7922   7.509  12.840   9.032
  250POPC   C1A 7923   7.185  13.013   8.658
  250POPC   D2A 7924   7.507  12.935   8.303
  250POPC   C3A 7925   7.356  12.991   7.891
  250POPC   C4A 7926   7.365  12.774   7.516
  250POPC   C1B 7927   7.453  12.580   8.657
  250POPC   C2B 7928   7.696  12.421   8.346
  250POPC   C3B 7929   7.776  12.577   7.945
  250POPC   C4B 7930   7.660  12.390   7.578
  251POPC   NC3 7931   1.543  13.861   9.295
  251POPC   PO4 7932   2.065  13.412   9.353
  251POPC   GL1 7933   1.916  13.557   9.038
  251POPC   GL2 7934   2.157  13.811   9.048
  251POPC   C1A 7935   1.885  13.367   8.632
  251POPC   D2A 7936   1.587  13.335   8.345
  251POPC   C3A 7937   1.680  13.615   8.030
  251POPC   C4A 7938   1.808  13.507   7.641
  251POPC   C1B 7939   2.329  13.572   8.728
  251POPC   C2B 7940   2.141  13.676   8.327
  251POPC   C3B 7941   2.208  13.680   7.918
  251POPC   C4B 7942   2.358  13.748   7.515
  252POPC   NC3 7943  23.720  43.225   9.320
  252POPC   PO4 7944  23.186  43.584   9.371
  252POPC   GL1 7945  23.326  43.323   9.010
  252POPC   GL2 7946  23.427  42.985   8.937
  252POPC   C1A 7947  23.672  43.363   8.703
  252POPC   D2A 7948  23.872  43.208   8.399
  252POPC   C3A 7949  23.636  43.316   8.107
  252POPC   C4A 7950  23.704  43.227   7.745
  252POPC   C1B 7951  23.879  42.854   8.807
  252POPC   C2B 7952  24.049  42.727   8.406
  252POPC   C3B 7953  23.749  42.794   8.059
  252POPC   C4B 7954  23.737  42.737   7.611
  253POPC   NC3 7955  11.873  16.196   9.506
  253POPC   PO4 7956  11.830  16.880   9.660
  253POPC   GL1 7957  11.985  16.901   9.232
  253POPC   GL2 7958  11.925  16.570   9.139
  253POPC   C1A 7959  12.101  16.996   8.791
  253POPC   D2A 7960  11.978  16.824   8.388
  253POPC   C3A 7961  11.901  17.000   8.009
  253POPC   C4A 7962  12.014  16.711   7.688
  253POPC   C1B 7963  12.058  16.445   8.727
  253POPC   C2B 7964  11.770  16.332   8.415
  253POPC   C3B 7965  11.682  16.492   8.018
  253POPC   C4B 7966  11.733  16.293   7.623
  254POPC   NC3 7967  34.760   9.833   9.510
  254POPC   PO4 7968  34.471   9.204   9.517
  254POPC   GL1 7969  34.492   9.534   9.200
  254POPC   GL2 7970  34.281   9.822   9.249
  254POPC   C1A 7971  34.698   9.575   8.799
  254POPC   D2A 7972  34.482   9.567   8.401
  254POPC   C3A 7973  34.548   9.811   8.047
  254POPC   C4A 7974  34.732   9.748   7.677
  254POPC   C1B 7975  34.232   9.821   8.788
  254POPC   C2B 7976  34.212  10.033   8.358
  254POPC   C3B 7977  34.136  10.083   7.871
  254POPC   C4B 7978  34.466  10.109   7.466
  255POPC   NC3 7979  22.447   0.190   9.467
  255POPC   PO4 7980  22.219  44.629   9.732
  255POPC   GL1 7981  22.090  44.804   9.321
  255POPC   GL2 7982  22.342  44.658   9.199
  255POPC   C1A 7983  21.990  44.707   8.851
  255POPC   D2A 7984  22.158  44.467   8.486
  255POPC   C3A 7985  22.118  44.724   8.120
  255POPC   C4A 7986  21.834  44.952   7.844
  255POPC   C1B 7987  22.544  44.470   8.838
  255POPC   C2B 7988  22.715  44.308   8.473
  255POPC   C3B 7989  22.596  44.461   8.092
  255POPC   C4B 7990  22.426  44.615   7.714
  256POPC   NC3 7991  42.159  34.804   9.767
  256POPC   PO4 7992  42.536  34.249   9.745
  256POPC   GL1 7993  42.482  34.517   9.322
  256POPC   GL2 7994  42.180  34.753   9.255
  256POPC   C1A 7995  42.555  34.773   8.909
  256POPC   D2A 7996  42.390  34.923   8.507
  256POPC   C3A 7997  42.514  34.661   8.157
  256POPC   C4A 7998  42.637  34.402   7.785
  256POPC   C1B 7999  42.027  34.630   8.804
  256POPC   C2B 8000  41.956  34.589   8.351
  256POPC   C3B 8001  42.122  34.431   7.954
  256POPC   C4B 8002  42.293  34.777   7.691
  257POPC   NC3 8003   4.688  41.044   9.713
  257POPC   PO4 8004   5.243  41.349   9.753
  257POPC   GL1 8005   5.033  41.097   9.319
  257POPC   GL2 8006   4.878  40.732   9.170
  257POPC   C1A 8007   4.988  41.088   8.827
  257POPC   D2A 8008   5.223  40.904   8.433
  257POPC   C3A 8009   5.174  40.921   7.960
  257POPC   C4A 8010   5.269  40.635   7.598
  257POPC   C1B 8011   4.888  40.597   8.682
  257POPC   C2B 8012   4.785  40.721   8.232
  257POPC   C3B 8013   4.833  40.526   7.846
  257POPC   C4B 8014   5.033  40.110   7.779
  258POPC   NC3 8015   5.344  41.799   9.707
  258POPC   PO4 8016   5.878  42.235   9.635
  258POPC   GL1 8017   5.901  42.439   9.231
  258POPC   GL2 8018   5.597  42.613   9.220
  258POPC   C1A 8019   6.000  42.382   8.816
  258POPC   D2A 8020   5.980  42.570   8.404
  258POPC   C3A 8021   5.919  42.317   8.008
  258POPC   C4A 8022   5.605  42.116   7.717
  258POPC   C1B 8023   5.698  42.803   8.822
  258POPC   C2B 8024   5.626  42.932   8.418
  258POPC   C3B 8025   5.628  42.751   8.049
  258POPC   C4B 8026   5.719  42.603   7.645
  259POPC   NC3 8027   5.759  13.295   9.391
  259POPC   PO4 8028   6.036  13.879   9.543
  259POPC   GL1 8029   5.997  13.730   9.146
  259POPC   GL2 8030   6.284  13.510   9.244
  259POPC   C1A 8031   5.706  13.586   8.781
  259POPC   D2A 8032   5.662  13.176   8.538
  259POPC   C3A 8033   5.691  13.204   8.071
  259POPC   C4A 8034   5.856  13.438   7.703
  259POPC   C1B 8035   6.212  13.432   8.797
  259POPC   C2B 8036   6.035  13.494   8.380
  259POPC   C3B 8037   6.239  13.544   7.994
  259POPC   C4B 8038   6.343  13.673   7.579
  260POPC   NC3 8039  30.400  18.091   9.650
  260POPC   PO4 8040  30.834  18.600   9.356
  260POPC   GL1 8041  30.669  18.378   9.000
  260POPC   GL2 8042  30.766  18.033   8.960
  260POPC   C1A 8043  30.739  18.318   8.545
  260POPC   D2A 8044  30.959  18.412   8.179
  260POPC   C3A 8045  30.589  18.505   7.876
  260POPC   C4A 8046  30.222  18.454   7.650
  260POPC   C1B 8047  30.649  17.826   8.600
  260POPC   C2B 8048  30.594  17.921   8.192
  260POPC   C3B 8049  30.815  18.060   7.858
  260POPC   C4B 8050  31.021  17.919   7.497
  261POPC   NC3 8051  20.833   8.761   9.538
  261POPC   PO4 8052  20.276   8.444   9.566
  261POPC   GL1 8053  20.498   8.734   9.160
  261POPC   GL2 8054  20.669   9.096   9.151
  261POPC   C1A 8055  20.579   8.830   8.700
  261POPC   D2A 8056  20.634   9.183   8.372
  261POPC   C3A 8057  20.608   9.078   7.917
  261POPC   C4A 8058  20.433   8.730   7.677
  261POPC   C1B 8059  20.936   9.176   8.802
  261POPC   C2B 8060  21.043   8.894   8.438
  261POPC   C3B 8061  21.121   9.013   7.990
  261POPC   C4B 8062  21.201   9.397   7.754
  262POPC   NC3 8063   7.222  14.503   9.563
  262POPC   PO4 8064   7.605  14.045   9.346
  262POPC   GL1 8065   7.603  14.496   9.193
  262POPC   GL2 8066   7.270  14.505   9.050
  262POPC   C1A 8067   7.659  14.798   8.834
  262POPC   D2A 8068   7.448  14.817   8.430
  262POPC   C3A 8069   7.599  14.673   8.000
  262POPC   C4A 8070   7.552  14.495   7.554
  262POPC   C1B 8071   7.451  14.336   8.687
  262POPC   C2B 8072   7.416  14.239   8.249
  262POPC   C3B 8073   7.184  14.349   7.887
  262POPC   C4B 8074   7.112  14.266   7.416
  263POPC   NC3 8075  34.895  32.665   9.500
  263POPC   PO4 8076  34.211  32.827   9.550
  263POPC   GL1 8077  34.536  32.955   9.220
  263POPC   GL2 8078  34.516  32.643   9.168
  263POPC   C1A 8079  34.682  33.124   8.806
  263POPC   D2A 8080  34.559  33.403   8.436
  263POPC   C3A 8081  34.708  33.366   8.005
  263POPC   C4A 8082  34.677  33.045   7.703
  263POPC   C1B 8083  34.661  32.590   8.777
  263POPC   C2B 8084  34.577  32.774   8.426
  263POPC   C3B 8085  34.516  32.687   8.030
  263POPC   C4B 8086  34.227  32.800   7.701
  264POPC   NC3 8087  26.455  32.820   9.492
  264POPC   PO4 8088  27.134  33.102   9.510
  264POPC   GL1 8089  27.049  33.156   9.107
  264POPC   GL2 8090  26.740  32.958   9.085
  264POPC   C1A 8091  27.086  33.006   8.718
  264POPC   D2A 8092  26.931  32.789   8.389
  264POPC   C3A 8093  26.999  32.990   7.983
  264POPC   C4A 8094  27.113  32.958   7.537
  264POPC   C1B 8095  26.618  33.219   8.720
  264POPC   C2B 8096  26.579  33.159   8.279
  264POPC   C3B 8097  26.538  33.184   7.839
  264POPC   C4B 8098  26.419  33.521   7.545
  265POPC   NC3 8099   0.846  19.817   9.472
  265POPC   PO4 8100   1.439  20.024   9.657
  265POPC   GL1 8101   1.440  19.695   9.273
  265POPC   GL2 8102   1.647  19.892   9.086
  265POPC   C1A 8103   1.475  19.533   8.791
  265POPC   D2A 8104   1.511  19.748   8.354
  265POPC   C3A 8105   1.167  19.732   7.996
  265POPC   C4A 8106   0.940  19.673   7.513
  265POPC   C1B 8107   1.371  20.060   8.780
  265POPC   C2B 8108   1.290  20.237   8.371
  265POPC   C3B 8109   1.455  20.149   7.982
  265POPC   C4B 8110   1.223  20.064   7.615
  266POPC   NC3 8111  32.108  24.631   9.504
  266POPC   PO4 8112  32.525  24.155   9.520
  266POPC   GL1 8113  32.429  24.390   9.154
  266POPC   GL2 8114  32.083  24.441   9.056
  266POPC   C1A 8115  32.431  24.366   8.716
  266POPC   D2A 8116  32.414  24.622   8.389
  266POPC   C3A 8117  32.339  24.384   8.086
  266POPC   C4A 8118  32.403  24.603   7.780
  266POPC   C1B 8119  31.801  24.493   8.752
  266POPC   C2B 8120  31.756  24.774   8.432
  266POPC   C3B 8121  31.918  24.706   8.010
  266POPC   C4B 8122  31.788  24.872   7.614
  267POPC   NC3 8123  21.128  21.681   9.365
  267POPC   PO4 8124  21.498  21.245   9.799
  267POPC   GL1 8125  21.498  21.201   9.264
  267POPC   GL2 8126  21.177  21.235   9.133
  267POPC   C1A 8127  21.552  21.483   8.837
  267POPC   D2A 8128  21.448  21.660   8.399
  267POPC   C3A 8129  21.671  21.506   8.017
  267POPC   C4A 8130  21.532  21.466   7.585
  267POPC   C1B 8131  21.399  21.017   8.795
  267POPC   C2B 8132  21.587  20.959   8.407
  267POPC   C3B 8133  21.366  21.077   8.059
  267POPC   C4B 8134  21.152  21.422   7.940
  268POPC   NC3 8135  29.341   1.520   9.601
  268POPC   PO4 8136  28.897   1.044   9.709
  268POPC   GL1 8137  29.161   1.088   9.317
  268POPC   GL2 8138  29.487   0.909   9.254
  268POPC   C1A 8139  29.218   1.326   8.923
  268POPC   D2A 8140  29.041   1.237   8.512
  268POPC   C3A 8141  29.142   1.423   8.143
  268POPC   C4A 8142  28.913   1.502   7.767
  268POPC   C1B 8143  29.654   1.051   8.832
  268POPC   C2B 8144  29.539   1.306   8.474
  268POPC   C3B 8145  29.594   1.183   8.056
  268POPC   C4B 8146  29.329   1.191   7.711
  269POPC   NC3 8147  29.606  16.774   9.494
  269POPC   PO4 8148  30.283  16.831   9.552
  269POPC   GL1 8149  30.023  16.739   9.146
  269POPC   GL2 8150  29.720  16.540   9.065
  269POPC   C1A 8151  30.057  16.565   8.705
  269POPC   D2A 8152  29.819  16.453   8.347
  269POPC   C3A 8153  30.007  16.569   7.933
  269POPC   C4A 8154  30.243  16.447   7.577
  269POPC   C1B 8155  29.547  16.723   8.746
  269POPC   C2B 8156  29.424  16.804   8.353
  269POPC   C3B 8157  29.512  16.601   7.964
  269POPC   C4B 8158  29.607  16.903   7.707
  270POPC   NC3 8159  10.077  34.101   9.553
  270POPC   PO4 8160   9.735  33.526   9.457
  270POPC   GL1 8161   9.623  33.726   9.114
  270POPC   GL2 8162   9.943  33.893   9.098
  270POPC   C1A 8163   9.659  33.811   8.682
  270POPC   D2A 8164   9.777  34.052   8.356
  270POPC   C3A 8165   9.784  33.846   7.984
  270POPC   C4A 8166   9.632  33.482   7.866
  270POPC   C1B 8167  10.004  34.211   8.798
  270POPC   C2B 8168  10.125  34.420   8.374
  270POPC   C3B 8169  10.110  34.240   7.946
  270POPC   C4B 8170  10.052  34.132   7.476
  271POPC   NC3 8171   0.535  11.693   9.579
  271POPC   PO4 8172   0.084  12.171   9.498
  271POPC   GL1 8173   0.341  12.058   9.151
  271POPC   GL2 8174   0.091  11.957   8.896
  271POPC   C1A 8175   0.591  12.106   8.752
  271POPC   D2A 8176   0.565  12.296   8.350
  271POPC   C3A 8177   0.608  12.017   7.973
  271POPC   C4A 8178   0.352  11.791   7.668
  271POPC   C1B 8179   0.187  12.414   8.805
  271POPC   C2B 8180   0.172  12.658   8.423
  271POPC   C3B 8181   0.191  12.420   8.032
  271POPC   C4B 8182   0.162  12.253   7.608
  272POPC   NC3 8183  42.047   6.120   9.410
  272POPC   PO4 8184  42.374   6.766   9.412
  272POPC   GL1 8185  42.162   6.543   9.118
  272POPC   GL2 8186  41.924   6.765   8.985
  272POPC   C1A 8187  42.291   6.555   8.700
  272POPC   D2A 8188  42.144   6.767   8.360
  272POPC   C3A 8189  42.393   6.585   8.054
  272POPC   C4A 8190  42.287   6.351   7.674
  272POPC   C1B 8191  42.248   7.052   8.800
  272POPC   C2B 8192  42.212   7.292   8.437
  272POPC   C3B 8193  41.963   7.171   8.107
  272POPC   C4B 8194  42.188   6.953   7.794
  273POPC   NC3 8195  29.547  31.625   9.451
  273POPC   PO4 8196  30.107  31.363   9.546
  273POPC   GL1 8197  29.899  31.301   9.155
  273POPC   GL2 8198  29.617  31.058   9.237
  273POPC   C1A 8199  29.957  31.465   8.704
  273POPC   D2A 8200  29.978  31.471   8.242
  273POPC   C3A 8201  30.115  31.726   7.933
  273POPC   C4A 8202  29.870  31.941   7.618
  273POPC   C1B 8203  29.570  31.128   8.804
  273POPC   C2B 8204  29.754  31.055   8.420
  273POPC   C3B 8205  29.639  31.133   8.006
  273POPC   C4B 8206  29.790  31.399   7.720
  274POPC   NC3 8207  16.028  25.498   9.426
  274POPC   PO4 8208  15.639  24.990   9.318
  274POPC   GL1 8209  15.804  25.246   9.016
  274POPC   GL2 8210  15.732  25.638   9.025
  274POPC   C1A 8211  15.964  25.037   8.659
  274POPC   D2A 8212  16.052  24.841   8.280
  274POPC   C3A 8213  15.825  25.030   7.961
  274POPC   C4A 8214  16.006  24.983   7.525
  274POPC   C1B 8215  16.124  25.543   8.747
  274POPC   C2B 8216  16.288  25.313   8.358
  274POPC   C3B 8217  16.255  25.262   7.896
  274POPC   C4B 8218  16.304  25.429   7.453
  275POPC   NC3 8219  36.696  30.080   9.391
  275POPC   PO4 8220  37.344  29.705   9.401
  275POPC   GL1 8221  37.011  29.736   9.124
  275POPC   GL2 8222  37.129  30.072   9.076
  275POPC   C1A 8223  36.686  29.657   8.793
  275POPC   D2A 8224  36.664  29.834   8.333
  275POPC   C3A 8225  36.857  29.640   7.992
  275POPC   C4A 8226  37.209  29.695   7.750
  275POPC   C1B 8227  37.054  29.954   8.654
  275POPC   C2B 8228  37.235  29.924   8.269
  275POPC   C3B 8229  37.081  30.133   7.931
  275POPC   C4B 8230  36.677  30.111   7.814
  276POPC   NC3 8231   6.418  44.100   9.540
  276POPC   PO4 8232   7.002  43.826   9.529
  276POPC   GL1 8233   6.715  43.781   9.162
  276POPC   GL2 8234   6.447  44.015   9.011
  276POPC   C1A 8235   6.812  43.779   8.723
  276POPC   D2A 8236   6.610  43.906   8.326
  276POPC   C3A 8237   6.734  43.712   7.963
  276POPC   C4A 8238   6.869  43.904   7.630
  276POPC   C1B 8239   6.268  43.712   8.694
  276POPC   C2B 8240   6.197  43.600   8.262
  276POPC   C3B 8241   6.229  43.719   7.841
  276POPC   C4B 8242   6.275  43.845   7.435
  277POPC   NC3 8243  28.186  38.969   9.636
  277POPC   PO4 8244  28.341  39.555   9.396
  277POPC   GL1 8245  28.228  39.200   9.110
  277POPC   GL2 8246  28.033  38.857   9.164
  277POPC   C1A 8247  28.372  39.297   8.670
  277POPC   D2A 8248  28.601  39.385   8.301
  277POPC   C3A 8249  28.452  39.530   7.951
  277POPC   C4A 8250  28.473  39.357   7.568
  277POPC   C1B 8251  27.924  39.018   8.745
  277POPC   C2B 8252  28.011  39.117   8.337
  277POPC   C3B 8253  27.961  38.896   7.992
  277POPC   C4B 8254  28.120  38.995   7.589
  278POPC   NC3 8255  13.242   9.819   9.515
  278POPC   PO4 8256  13.847  10.113   9.499
  278POPC   GL1 8257  13.739   9.865   9.096
  278POPC   GL2 8258  13.415   9.706   9.050
  278POPC   C1A 8259  13.887   9.665   8.697
  278POPC   D2A 8260  13.820   9.339   8.381
  278POPC   C3A 8261  13.921   9.523   7.974
  278POPC   C4A 8262  13.856   9.968   7.864
  278POPC   C1B 8263  13.403   9.784   8.631
  278POPC   C2B 8264  13.543   9.748   8.239
  278POPC   C3B 8265  13.390   9.597   7.851
  278POPC   C4B 8266  13.205   9.686   7.446
  279POPC   NC3 8267   7.869  16.621   9.546
  279POPC   PO4 8268   8.458  16.870   9.407
  279POPC   GL1 8269   8.096  16.834   9.132
  279POPC   GL2 8270   7.974  16.455   9.089
  279POPC   C1A 8271   8.156  16.810   8.698
  279POPC   D2A 8272   8.412  16.635   8.362
  279POPC   C3A 8273   8.354  16.752   7.906
  279POPC   C4A 8274   8.325  17.024   7.527
  279POPC   C1B 8275   7.981  16.312   8.683
  279POPC   C2B 8276   7.917  16.524   8.324
  279POPC   C3B 8277   7.868  16.417   7.922
  279POPC   C4B 8278   7.915  16.696   7.601
  280POPC   NC3 8279  35.605  22.957   9.837
  280POPC   PO4 8280  35.114  22.734   9.459
  280POPC   GL1 8281  35.450  22.834   9.173
  280POPC   GL2 8282  35.559  23.153   9.239
  280POPC   C1A 8283  35.470  22.763   8.716
  280POPC   D2A 8284  35.149  22.873   8.376
  280POPC   C3A 8285  35.228  22.740   7.954
  280POPC   C4A 8286  35.616  22.827   7.712
  280POPC   C1B 8287  35.395  23.279   8.803
  280POPC   C2B 8288  35.431  23.435   8.351
  280POPC   C3B 8289  35.353  23.235   7.926
  280POPC   C4B 8290  35.322  23.144   7.426
  281POPC   NC3 8291  13.644  13.419   9.262
  281POPC   PO4 8292  13.922  13.997   9.314
  281POPC   GL1 8293  13.677  13.841   8.978
  281POPC   GL2 8294  13.318  13.784   9.086
  281POPC   C1A 8295  13.500  13.596   8.620
  281POPC   D2A 8296  13.560  13.462   8.208
  281POPC   C3A 8297  13.862  13.704   7.967
  281POPC   C4A 8298  13.975  13.568   7.547
  281POPC   C1B 8299  13.307  14.057   8.724
  281POPC   C2B 8300  13.204  14.045   8.302
  281POPC   C3B 8301  13.332  13.998   7.897
  281POPC   C4B 8302  13.430  13.622   7.692
  282POPC   NC3 8303   2.315   9.991   9.651
  282POPC   PO4 8304   2.154   9.406   9.339
  282POPC   GL1 8305   2.253   9.679   9.017
  282POPC   GL2 8306   2.198   9.982   9.151
  282POPC   C1A 8307   2.244   9.658   8.580
  282POPC   D2A 8308   1.908   9.498   8.330
  282POPC   C3A 8309   2.105   9.349   7.992
  282POPC   C4A 8310   2.270   9.542   7.674
  282POPC   C1B 8311   1.935  10.065   8.783
  282POPC   C2B 8312   1.959  10.031   8.372
  282POPC   C3B 8313   2.048   9.890   7.987
  282POPC   C4B 8314   1.899   9.880   7.573
  283POPC   NC3 8315  11.173   3.692   9.746
  283POPC   PO4 8316  11.386   4.302   9.546
  283POPC   GL1 8317  11.546   4.312   9.131
  283POPC   GL2 8318  11.261   4.288   8.945
  283POPC   C1A 8319  11.667   4.091   8.770
  283POPC   D2A 8320  11.487   4.311   8.446
  283POPC   C3A 8321  11.618   4.155   8.058
  283POPC   C4A 8322  11.414   4.239   7.711
  283POPC   C1B 8323  10.984   4.223   8.620
  283POPC   C2B 8324  11.019   4.565   8.391
  283POPC   C3B 8325  11.118   4.574   7.979
  283POPC   C4B 8326  10.932   4.405   7.617
  284POPC   NC3 8327  17.843  21.196   9.347
  284POPC   PO4 8328  17.363  21.614   9.677
  284POPC   GL1 8329  17.403  21.482   9.256
  284POPC   GL2 8330  17.049  21.450   9.267
  284POPC   C1A 8331  17.514  21.484   8.810
  284POPC   D2A 8332  17.585  21.224   8.465
  284POPC   C3A 8333  17.588  21.420   8.077
  284POPC   C4A 8334  17.709  21.360   7.664
  284POPC   C1B 8335  16.999  21.502   8.833
  284POPC   C2B 8336  17.182  21.570   8.423
  284POPC   C3B 8337  17.081  21.427   8.018
  284POPC   C4B 8338  17.009  21.592   7.600
  285POPC   NC3 8339  15.213  27.051   9.411
  285POPC   PO4 8340  15.558  26.467   9.273
  285POPC   GL1 8341  15.335  26.718   9.048
  285POPC   GL2 8342  15.036  26.710   9.047
  285POPC   C1A 8343  15.354  26.954   8.711
  285POPC   D2A 8344  15.338  26.709   8.348
  285POPC   C3A 8345  15.335  26.892   7.956
  285POPC   C4A 8346  15.261  26.827   7.537
  285POPC   C1B 8347  14.864  26.705   8.609
  285POPC   C2B 8348  14.843  26.737   8.153
  285POPC   C3B 8349  14.843  27.022   7.803
  285POPC   C4B 8350  14.792  26.894   7.373
  286POPC   NC3 8351  12.769  12.332   9.595
  286POPC   PO4 8352  12.681  11.659   9.411
  286POPC   GL1 8353  12.956  11.971   9.115
  286POPC   GL2 8354  13.103  12.346   9.141
  286POPC   C1A 8355  13.073  11.913   8.646
  286POPC   D2A 8356  12.987  11.794   8.196
  286POPC   C3A 8357  13.127  12.025   7.800
  286POPC   C4A 8358  12.991  11.900   7.363
  286POPC   C1B 8359  13.004  12.403   8.693
  286POPC   C2B 8360  13.051  12.316   8.252
  286POPC   C3B 8361  12.765  12.380   7.906
  286POPC   C4B 8362  12.794  12.347   7.464
  287POPC   NC3 8363  13.304   2.496   9.447
  287POPC   PO4 8364  13.731   2.859   9.790
  287POPC   GL1 8365  13.541   2.902   9.247
  287POPC   GL2 8366  13.457   2.583   8.999
  287POPC   C1A 8367  13.703   2.966   8.809
  287POPC   D2A 8368  13.875   3.058   8.398
  287POPC   C3A 8369  13.827   2.843   8.034
  287POPC   C4A 8370  13.697   2.791   7.663
  287POPC   C1B 8371  13.348   2.463   8.614
  287POPC   C2B 8372  13.400   2.571   8.200
  287POPC   C3B 8373  13.516   2.336   7.863
  287POPC   C4B 8374  13.536   2.385   7.417
  288POPC   NC3 8375   2.084  12.678   9.624
  288POPC   PO4 8376   1.941  11.985   9.520
  288POPC   GL1 8377   2.127  12.023   9.114
  288POPC   GL2 8378   2.184  12.357   9.157
  288POPC   C1A 8379   2.010  12.184   8.685
  288POPC   D2A 8380   1.711  12.377   8.368
  288POPC   C3A 8381   1.610  12.123   7.981
  288POPC   C4A 8382   1.845  11.826   7.720
  288POPC   C1B 8383   2.419  12.469   8.804
  288POPC   C2B 8384   2.275  12.512   8.380
  288POPC   C3B 8385   2.124  12.232   8.048
  288POPC   C4B 8386   2.329  12.094   7.667
  289POPC   NC3 8387   5.506  34.864   9.418
  289POPC   PO4 8388   5.705  34.318   9.791
  289POPC   GL1 8389   5.939  34.356   9.325
  289POPC   GL2 8390   5.940  34.701   9.197
  289POPC   C1A 8391   6.052  34.401   8.823
  289POPC   D2A 8392   5.868  34.397   8.392
  289POPC   C3A 8393   6.160  34.260   8.058
  289POPC   C4A 8394   6.243  34.302   7.631
  289POPC   C1B 8395   5.699  34.764   8.794
  289POPC   C2B 8396   5.432  34.739   8.436
  289POPC   C3B 8397   5.600  34.697   8.031
  289POPC   C4B 8398   5.767  34.460   7.734
  290POPC   NC3 8399  28.076  32.168   9.451
  290POPC   PO4 8400  28.651  32.277   9.349
  290POPC   GL1 8401  28.500  31.971   9.097
  290POPC   GL2 8402  28.164  31.937   8.976
  290POPC   C1A 8403  28.662  32.026   8.703
  290POPC   D2A 8404  28.479  31.974   8.335
  290POPC   C3A 8405  28.643  32.042   7.959
  290POPC   C4A 8406  28.355  31.835   7.683
  290POPC   C1B 8407  28.276  32.365   8.833
  290POPC   C2B 8408  28.334  32.562   8.439
  290POPC   C3B 8409  28.268  32.417   7.995
  290POPC   C4B 8410  28.540  32.424   7.621
  291POPC   NC3 8411  15.553  27.991   9.438
  291POPC   PO4 8412  15.173  27.508   9.493
  291POPC   GL1 8413  15.156  27.409   9.070
  291POPC   GL2 8414  15.510  27.346   9.072
  291POPC   C1A 8415  14.930  27.200   8.731
  291POPC   D2A 8416  15.109  27.175   8.305
  291POPC   C3A 8417  14.956  27.496   8.008
  291POPC   C4A 8418  14.885  27.944   7.866
  291POPC   C1B 8419  15.394  27.464   8.628
  291POPC   C2B 8420  15.440  27.570   8.207
  291POPC   C3B 8421  15.420  27.705   7.820
  291POPC   C4B 8422  15.409  27.300   7.651
  292POPC   NC3 8423  27.659  31.749   9.620
  292POPC   PO4 8424  27.866  31.072   9.512
  292POPC   GL1 8425  27.763  31.360   9.186
  292POPC   GL2 8426  27.464  31.577   9.178
  292POPC   C1A 8427  27.555  31.260   8.787
  292POPC   D2A 8428  27.682  31.382   8.422
  292POPC   C3A 8429  27.407  31.354   8.113
  292POPC   C4A 8430  27.518  31.212   7.712
  292POPC   C1B 8431  27.713  31.737   8.846
  292POPC   C2B 8432  27.586  31.895   8.461
  292POPC   C3B 8433  27.736  31.771   8.085
  292POPC   C4B 8434  27.524  31.734   7.729
  293POPC   NC3 8435   9.207  28.844   9.404
  293POPC   PO4 8436   8.722  28.396   9.558
  293POPC   GL1 8437   8.881  28.312   9.157
  293POPC   GL2 8438   8.991  27.936   9.134
  293POPC   C1A 8439   8.967  28.558   8.760
  293POPC   D2A 8440   9.150  28.731   8.366
  293POPC   C3A 8441   8.900  28.662   8.001
  293POPC   C4A 8442   8.859  28.378   7.690
  293POPC   C1B 8443   8.745  28.044   8.759
  293POPC   C2B 8444   8.730  28.301   8.366
  293POPC   C3B 8445   8.558  28.098   7.996
  293POPC   C4B 8446   8.646  27.928   7.604
  294POPC   NC3 8447  36.871  41.330   9.441
  294POPC   PO4 8448  36.812  40.646   9.449
  294POPC   GL1 8449  36.666  40.729   9.066
  294POPC   GL2 8450  36.683  41.098   9.006
  294POPC   C1A 8451  36.766  40.657   8.658
  294POPC   D2A 8452  36.756  41.000   8.426
  294POPC   C3A 8453  36.868  40.864   8.047
  294POPC   C4A 8454  36.692  40.942   7.642
  294POPC   C1B 8455  37.103  40.991   8.845
  294POPC   C2B 8456  37.274  40.901   8.434
  294POPC   C3B 8457  37.328  41.112   8.039
  294POPC   C4B 8458  37.213  40.897   7.655
  295POPC   NC3 8459  41.069  25.132   9.318
  295POPC   PO4 8460  41.124  24.533   9.476
  295POPC   GL1 8461  40.781  24.502   9.190
  295POPC   GL2 8462  40.644  24.845   9.177
  295POPC   C1A 8463  40.680  24.445   8.755
  295POPC   D2A 8464  40.821  24.556   8.348
  295POPC   C3A 8465  40.869  24.303   8.001
  295POPC   C4A 8466  40.841  24.446   7.584
  295POPC   C1B 8467  40.413  24.907   8.800
  295POPC   C2B 8468  40.326  24.711   8.406
  295POPC   C3B 8469  40.504  24.775   8.000
  295POPC   C4B 8470  40.652  24.904   7.598
  296POPC   NC3 8471  31.331  35.205   9.402
  296POPC   PO4 8472  31.945  35.129   9.542
  296POPC   GL1 8473  31.770  35.178   9.126
  296POPC   GL2 8474  31.538  35.423   8.973
  296POPC   C1A 8475  31.847  35.082   8.698
  296POPC   D2A 8476  31.815  35.136   8.259
  296POPC   C3A 8477  31.449  35.225   8.024
  296POPC   C4A 8478  31.575  34.927   7.720
  296POPC   C1B 8479  31.436  35.386   8.527
  296POPC   C2B 8480  31.088  35.630   8.311
  296POPC   C3B 8481  31.058  35.699   7.892
  296POPC   C4B 8482  31.429  35.604   7.644
  297POPC   NC3 8483  19.199  39.097   9.449
  297POPC   PO4 8484  18.773  39.694   9.507
  297POPC   GL1 8485  18.833  39.351   9.178
  297POPC   GL2 8486  19.175  39.474   9.062
  297POPC   C1A 8487  18.880  39.024   8.813
  297POPC   D2A 8488  18.780  38.965   8.340
  297POPC   C3A 8489  18.966  39.121   7.895
  297POPC   C4A 8490  18.721  39.175   7.464
  297POPC   C1B 8491  19.354  39.221   8.718
  297POPC   C2B 8492  19.320  39.100   8.256
  297POPC   C3B 8493  19.501  39.094   7.838
  297POPC   C4B 8494  19.522  39.366   7.504
  298POPC   NC3 8495  16.431  34.259   9.759
  298POPC   PO4 8496  16.907  34.646   9.671
  298POPC   GL1 8497  16.963  34.616   9.210
  298POPC   GL2 8498  17.228  34.823   9.087
  298POPC   C1A 8499  16.759  34.371   8.852
  298POPC   D2A 8500  16.539  34.153   8.478
  298POPC   C3A 8501  16.620  34.382   8.102
  298POPC   C4A 8502  16.992  34.569   7.956
  298POPC   C1B 8503  17.067  34.797   8.677
  298POPC   C2B 8504  17.044  35.055   8.304
  298POPC   C3B 8505  16.809  35.052   7.931
  298POPC   C4B 8506  16.530  34.750   7.745
  299POPC   NC3 8507   3.077  14.145  10.023
  299POPC   PO4 8508   2.554  14.129   9.660
  299POPC   GL1 8509   2.664  14.285   9.226
  299POPC   GL2 8510   2.988  14.116   9.133
  299POPC   C1A 8511   2.511  14.529   8.832
  299POPC   D2A 8512   2.681  14.620   8.428
  299POPC   C3A 8513   2.618  14.449   8.054
  299POPC   C4A 8514   2.387  14.661   7.723
  299POPC   C1B 8515   2.973  14.313   8.717
  299POPC   C2B 8516   2.977  14.168   8.295
  299POPC   C3B 8517   3.110  14.219   7.863
  299POPC   C4B 8518   3.075  14.255   7.377
  300POPC   NC3 8519  35.122  19.271   9.443
  300POPC   PO4 8520  35.718  18.936   9.491
  300POPC   GL1 8521  35.541  19.015   9.072
  300POPC   GL2 8522  35.246  19.227   8.942
  300POPC   C1A 8523  35.643  19.129   8.643
  300POPC   D2A 8524  35.431  19.271   8.290
  300POPC   C3A 8525  35.094  19.041   8.109
  300POPC   C4A 8526  35.224  19.000   7.695
  300POPC   C1B 8527  34.993  19.454   8.617
  300POPC   C2B 8528  35.120  19.664   8.225
  300POPC   C3B 8529  35.185  19.518   7.797
  300POPC   C4B 8530  35.019  19.589   7.356
  301POPC   NC3 8531   4.916  36.191   9.422
  301POPC   PO4 8532   5.506  36.009   9.612
  301POPC   GL1 8533   5.361  36.064   9.161
  301POPC   GL2 8534   5.649  36.212   9.013
  301POPC   C1A 8535   5.006  35.908   8.833
  301POPC   D2A 8536   5.044  35.867   8.378
  301POPC   C3A 8537   4.802  36.136   8.116
  301POPC   C4A 8538   4.724  36.228   7.695
  301POPC   C1B 8539   5.431  36.098   8.648
  301POPC   C2B 8540   5.264  36.315   8.273
  301POPC   C3B 8541   5.230  36.300   7.824
  301POPC   C4B 8542   5.564  36.410   7.520
  302POPC   NC3 8543  44.063   0.964   9.509
  302POPC   PO4 8544  43.670   1.377   9.713
  302POPC   GL1 8545  43.701   1.248   9.261
  302POPC   GL2 8546  44.020   1.432   9.256
  302POPC   C1A 8547  43.967   1.130   8.858
  302POPC   D2A 8548  44.119   1.232   8.438
  302POPC   C3A 8549  43.955   1.086   8.041
  302POPC   C4A 8550  43.797   0.830   7.671
  302POPC   C1B 8551  44.098   1.651   8.864
  302POPC   C2B 8552  44.290   1.708   8.480
  302POPC   C3B 8553  44.153   1.630   8.077
  302POPC   C4B 8554  44.037   1.436   7.695
  303POPC   NC3 8555  21.477  27.146   9.574
  303POPC   PO4 8556  21.642  27.883   9.542
  303POPC   GL1 8557  21.529  27.733   9.185
  303POPC   GL2 8558  21.320  27.481   9.215
  303POPC   C1A 8559  21.431  27.705   8.777
  303POPC   D2A 8560  21.633  27.667   8.426
  303POPC   C3A 8561  21.387  27.666   8.087
  303POPC   C4A 8562  21.456  27.821   7.702
  303POPC   C1B 8563  21.180  27.245   8.849
  303POPC   C2B 8564  21.355  27.233   8.445
  303POPC   C3B 8565  21.156  27.196   8.044
  303POPC   C4B 8566  21.125  27.451   7.688
  304POPC   NC3 8567  19.737  25.490   9.583
  304POPC   PO4 8568  19.460  24.839   9.442
  304POPC   GL1 8569  19.614  25.176   9.167
  304POPC   GL2 8570  19.915  25.367   9.114
  304POPC   C1A 8571  19.583  25.197   8.732
  304POPC   D2A 8572  19.878  25.291   8.411
  304POPC   C3A 8573  19.679  25.165   8.042
  304POPC   C4A 8574  19.567  25.219   7.652
  304POPC   C1B 8575  20.038  25.007   8.858
  304POPC   C2B 8576  20.170  24.865   8.436
  304POPC   C3B 8577  20.130  24.934   8.032
  304POPC   C4B 8578  20.091  25.258   7.724
  305POPC   NC3 8579  21.897  22.933   9.434
  305POPC   PO4 8580  21.272  23.099   9.609
  305POPC   GL1 8581  21.333  23.247   9.210
  305POPC   GL2 8582  20.975  23.249   9.187
  305POPC   C1A 8583  21.499  23.078   8.803
  305POPC   D2A 8584  21.326  22.843   8.442
  305POPC   C3A 8585  21.404  22.942   8.006
  305POPC   C4A 8586  21.713  22.712   7.804
  305POPC   C1B 8587  21.038  23.355   8.813
  305POPC   C2B 8588  21.258  23.381   8.462
  305POPC   C3B 8589  21.103  23.349   8.089
  305POPC   C4B 8590  21.032  23.212   7.719
  306POPC   NC3 8591  39.027  32.187   9.741
  306POPC   PO4 8592  39.677  32.426   9.556
  306POPC   GL1 8593  39.297  32.322   9.282
  306POPC   GL2 8594  39.007  32.071   9.220
  306POPC   C1A 8595  39.279  32.334   8.830
  306POPC   D2A 8596  39.509  32.186   8.472
  306POPC   C3A 8597  39.299  32.272   8.104
  306POPC   C4A 8598  39.395  32.109   7.683
  306POPC   C1B 8599  38.837  32.050   8.761
  306POPC   C2B 8600  38.846  31.876   8.303
  306POPC   C3B 8601  38.915  32.010   7.862
  306POPC   C4B 8602  38.982  32.443   7.752
  307POPC   NC3 8603  11.561  26.303   9.490
  307POPC   PO4 8604  11.665  25.653   9.454
  307POPC   GL1 8605  11.552  25.959   9.101
  307POPC   GL2 8606  11.250  26.023   9.037
  307POPC   C1A 8607  11.546  26.140   8.643
  307POPC   D2A 8608  11.294  26.118   8.274
  307POPC   C3A 8609  11.420  26.184   7.866
  307POPC   C4A 8610  11.407  26.178   7.415
  307POPC   C1B 8611  11.058  25.883   8.663
  307POPC   C2B 8612  11.121  25.630   8.299
  307POPC   C3B 8613  11.178  25.722   7.875
  307POPC   C4B 8614  10.979  26.041   7.640
  308POPC   NC3 8615  24.944  15.530   9.524
  308POPC   PO4 8616  24.253  15.327   9.443
  308POPC   GL1 8617  24.396  15.155   9.061
  308POPC   GL2 8618  24.715  15.259   9.150
  308POPC   C1A 8619  24.346  14.983   8.678
  308POPC   D2A 8620  24.335  15.230   8.293
  308POPC   C3A 8621  24.391  15.013   7.914
  308POPC   C4A 8622  24.426  15.116   7.496
  308POPC   C1B 8623  24.988  15.491   8.879
  308POPC   C2B 8624  25.049  15.414   8.448
  308POPC   C3B 8625  24.800  15.388   8.099
  308POPC   C4B 8626  24.864  15.212   7.719
  309POPC   NC3 8627  37.269  29.260   9.413
  309POPC   PO4 8628  36.714  28.916   9.452
  309POPC   GL1 8629  36.780  29.242   9.146
  309POPC   GL2 8630  37.061  29.248   8.931
  309POPC   C1A 8631  36.564  29.170   8.764
  309POPC   D2A 8632  36.677  29.327   8.371
  309POPC   C3A 8633  37.003  29.137   8.114
  309POPC   C4A 8634  37.052  28.880   7.733
  309POPC   C1B 8635  37.199  29.473   8.568
  309POPC   C2B 8636  37.444  29.461   8.182
  309POPC   C3B 8637  37.394  29.252   7.799
  309POPC   C4B 8638  37.149  29.300   7.416
  310POPC   NC3 8639  22.611   0.774   9.501
  310POPC   PO4 8640  22.049   0.441   9.477
  310POPC   GL1 8641  22.150   0.686   9.116
  310POPC   GL2 8642  22.449   0.874   9.032
  310POPC   C1A 8643  22.280   0.431   8.783
  310POPC   D2A 8644  22.105   0.128   8.528
  310POPC   C3A 8645  22.161   0.245   8.110
  310POPC   C4A 8646  21.889   0.462   7.841
  310POPC   C1B 8647  22.564   0.802   8.621
  310POPC   C2B 8648  22.272   0.748   8.247
  310POPC   C3B 8649  22.388   0.643   7.815
  310POPC   C4B 8650  22.620   0.680   7.395
  311POPC   NC3 8651   6.037  15.678   9.479
  311POPC   PO4 8652   5.555  16.128   9.401
  311POPC   GL1 8653   5.748  15.891   9.080
  311POPC   GL2 8654   6.098  15.927   9.051
  311POPC   C1A 8655   5.798  16.109   8.684
  311POPC   D2A 8656   5.785  16.357   8.306
  311POPC   C3A 8657   5.783  16.111   7.902
  311POPC   C4A 8658   5.540  15.781   7.714
  311POPC   C1B 8659   6.326  15.991   8.691
  311POPC   C2B 8660   6.442  16.116   8.299
  311POPC   C3B 8661   6.301  15.962   7.906
  311POPC   C4B 8662   6.076  15.755   7.600
  312POPC   NC3 8663  29.944  41.743   9.603
  312POPC   PO4 8664  30.189  41.132   9.638
  312POPC   GL1 8665  29.902  41.344   9.286
  312POPC   GL2 8666  29.896  41.754   9.112
  312POPC   C1A 8667  29.652  41.389   8.914
  312POPC   D2A 8668  29.902  41.580   8.524
  312POPC   C3A 8669  29.938  41.315   8.178
  312POPC   C4A 8670  29.985  41.372   7.737
  312POPC   C1B 8671  29.594  41.884   8.771
  312POPC   C2B 8672  29.433  41.854   8.344
  312POPC   C3B 8673  29.711  41.742   7.997
  312POPC   C4B 8674  29.760  41.835   7.567
  313POPC   NC3 8675  40.230  25.442   9.408
  313POPC   PO4 8676  40.856  25.521   9.364
  313POPC   GL1 8677  40.595  25.435   9.043
  313POPC   GL2 8678  40.823  25.250   8.886
  313POPC   C1A 8679  40.459  25.462   8.617
  313POPC   D2A 8680  40.608  25.128   8.376
  313POPC   C3A 8681  40.712  25.232   7.980
  313POPC   C4A 8682  40.644  25.411   7.570
  313POPC   C1B 8683  40.958  24.909   8.706
  313POPC   C2B 8684  41.092  24.974   8.316
  313POPC   C3B 8685  41.041  24.838   7.914
  313POPC   C4B 8686  41.094  25.175   7.643
  314POPC   NC3 8687  25.648  38.632   9.499
  314POPC   PO4 8688  25.116  38.205   9.487
  314POPC   GL1 8689  25.239  38.475   9.194
  314POPC   GL2 8690  25.456  38.254   9.049
  314POPC   C1A 8691  25.321  38.655   8.780
  314POPC   D2A 8692  25.419  38.459   8.400
  314POPC   C3A 8693  25.399  38.714   8.031
  314POPC   C4A 8694  25.104  38.785   7.664
  314POPC   C1B 8695  25.651  38.001   8.760
  314POPC   C2B 8696  25.554  37.949   8.346
  314POPC   C3B 8697  25.556  38.181   8.003
  314POPC   C4B 8698  25.247  38.303   7.759
  315POPC   NC3 8699   5.913  36.260   9.466
  315POPC   PO4 8700   5.762  35.593   9.363
  315POPC   GL1 8701   5.871  35.739   9.011
  315POPC   GL2 8702   6.099  35.977   9.085
  315POPC   C1A 8703   5.941  35.917   8.604
  315POPC   D2A 8704   5.806  36.250   8.356
  315POPC   C3A 8705   5.660  36.078   8.006
  315POPC   C4A 8706   5.877  36.040   7.674
  315POPC   C1B 8707   6.139  36.346   8.802
  315POPC   C2B 8708   6.261  36.466   8.363
  315POPC   C3B 8709   6.061  36.451   7.928
  315POPC   C4B 8710   6.089  36.465   7.458
  316POPC   NC3 8711  17.404  37.972   9.557
  316POPC   PO4 8712  17.779  37.481   9.800
  316POPC   GL1 8713  17.617  37.535   9.304
  316POPC   GL2 8714  17.264  37.670   9.159
  316POPC   C1A 8715  17.658  37.659   8.828
  316POPC   D2A 8716  17.677  37.464   8.441
  316POPC   C3A 8717  17.571  37.718   8.111
  316POPC   C4A 8718  17.730  37.673   7.717
  316POPC   C1B 8719  17.201  37.966   8.774
  316POPC   C2B 8720  17.323  38.181   8.359
  316POPC   C3B 8721  17.193  38.059   7.943
  316POPC   C4B 8722  17.158  37.678   7.794
  317POPC   NC3 8723  19.820  22.390   9.575
  317POPC   PO4 8724  20.050  21.780   9.497
  317POPC   GL1 8725  20.024  22.153   9.174
  317POPC   GL2 8726  19.673  22.253   9.072
  317POPC   C1A 8727  20.049  22.224   8.721
  317POPC   D2A 8728  19.897  21.910   8.427
  317POPC   C3A 8729  19.849  21.961   7.995
  317POPC   C4A 8730  19.633  22.189   7.696
  317POPC   C1B 8731  19.521  22.217   8.638
  317POPC   C2B 8732  19.697  22.391   8.260
  317POPC   C3B 8733  19.822  22.615   7.904
  317POPC   C4B 8734  20.050  22.488   7.536
  318POPC   NC3 8735   7.257  16.987   9.507
  318POPC   PO4 8736   7.519  16.343   9.438
  318POPC   GL1 8737   7.285  16.599   9.195
  318POPC   GL2 8738   7.563  16.807   9.130
  318POPC   C1A 8739   7.124  16.787   8.839
  318POPC   D2A 8740   7.171  16.570   8.462
  318POPC   C3A 8741   7.477  16.710   8.158
  318POPC   C4A 8742   7.457  16.869   7.740
  318POPC   C1B 8743   7.630  16.743   8.710
  318POPC   C2B 8744   7.780  17.037   8.428
  318POPC   C3B 8745   7.914  16.987   8.027
  318POPC   C4B 8746   7.844  17.222   7.667
  319POPC   NC3 8747  42.585   4.909   9.473
  319POPC   PO4 8748  41.903   4.986   9.586
  319POPC   GL1 8749  42.135   5.048   9.196
  319POPC   GL2 8750  42.315   4.762   9.024
  319POPC   C1A 8751  42.021   5.239   8.790
  319POPC   D2A 8752  41.837   5.300   8.350
  319POPC   C3A 8753  42.166   5.112   8.052
  319POPC   C4A 8754  42.033   4.684   7.987
  319POPC   C1B 8755  42.549   4.718   8.631
  319POPC   C2B 8756  42.611   4.780   8.169
  319POPC   C3B 8757  42.452   4.779   7.727
  319POPC   C4B 8758  42.571   4.951   7.305
  320POPC   NC3 8759  18.365   3.393   9.530
  320POPC   PO4 8760  18.008   4.051   9.493
  320POPC   GL1 8761  18.126   3.748   9.178
  320POPC   GL2 8762  18.100   3.377   9.090
  320POPC   C1A 8763  18.353   3.714   8.802
  320POPC   D2A 8764  18.225   3.595   8.383
  320POPC   C3A 8765  18.363   3.572   7.958
  320POPC   C4A 8766  18.364   3.830   7.582
  320POPC   C1B 8767  18.018   3.115   8.711
  320POPC   C2B 8768  18.024   3.129   8.252
  320POPC   C3B 8769  18.154   3.116   7.818
  320POPC   C4B 8770  17.968   3.355   7.455
  321POPC   NC3 8771  29.136   2.949   9.565
  321POPC   PO4 8772  29.265   2.321   9.301
  321POPC   GL1 8773  28.987   2.654   9.096
  321POPC   GL2 8774  28.988   3.052   9.102
  321POPC   C1A 8775  29.054   2.609   8.658
  321POPC   D2A 8776  29.225   2.235   8.431
  321POPC   C3A 8777  29.326   2.392   8.022
  321POPC   C4A 8778  29.070   2.725   7.808
  321POPC   C1B 8779  28.827   3.097   8.689
  321POPC   C2B 8780  28.900   3.132   8.226
  321POPC   C3B 8781  28.844   3.172   7.789
  321POPC   C4B 8782  29.102   3.083   7.416
  322POPC   NC3 8783  40.518  18.254   9.512
  322POPC   PO4 8784  41.088  18.078   9.376
  322POPC   GL1 8785  40.868  18.325   9.062
  322POPC   GL2 8786  40.504  18.455   9.042
  322POPC   C1A 8787  40.914  18.559   8.721
  322POPC   D2A 8788  40.761  18.414   8.340
  322POPC   C3A 8789  41.033  18.388   8.002
  322POPC   C4A 8790  40.968  18.005   7.754
  322POPC   C1B 8791  40.330  18.578   8.646
  322POPC   C2B 8792  40.350  18.658   8.205
  322POPC   C3B 8793  40.538  18.407   7.820
  322POPC   C4B 8794  40.458  18.515   7.350
  323POPC   NC3 8795  44.064   5.491   9.639
  323POPC   PO4 8796  43.878   4.846   9.678
  323POPC   GL1 8797  43.898   4.979   9.236
  323POPC   GL2 8798  43.648   4.778   9.089
  323POPC   C1A 8799  43.974   4.982   8.787
  323POPC   D2A 8800  44.005   5.075   8.385
  323POPC   C3A 8801  44.232   4.901   8.056
  323POPC   C4A 8802  44.216   5.273   7.779
  323POPC   C1B 8803  43.476   4.774   8.669
  323POPC   C2B 8804  43.542   4.884   8.247
  323POPC   C3B 8805  43.764   4.936   7.868
  323POPC   C4B 8806  43.721   4.715   7.475
  324POPC   NC3 8807  40.775  38.353   9.511
  324POPC   PO4 8808  41.324  38.756   9.355
  324POPC   GL1 8809  41.053  38.466   9.106
  324POPC   GL2 8810  41.115  38.087   9.198
  324POPC   C1A 8811  40.647  38.532   8.875
  324POPC   D2A 8812  40.583  38.650   8.451
  324POPC   C3A 8813  40.573  38.415   8.084
  324POPC   C4A 8814  40.943  38.470   7.867
  324POPC   C1B 8815  40.842  38.070   8.842
  324POPC   C2B 8816  40.713  38.064   8.427
  324POPC   C3B 8817  40.836  37.960   8.023
  324POPC   C4B 8818  40.695  38.087   7.646
  325POPC   NC3 8819   7.102  25.114   9.738
  325POPC   PO4 8820   7.680  25.315   9.686
  325POPC   GL1 8821   7.615  25.195   9.268
  325POPC   GL2 8822   7.274  25.260   9.193
  325POPC   C1A 8823   7.720  25.067   8.827
  325POPC   D2A 8824   7.588  24.977   8.384
  325POPC   C3A 8825   7.479  25.066   7.926
  325POPC   C4A 8826   7.489  24.902   7.488
  325POPC   C1B 8827   7.361  25.410   8.734
  325POPC   C2B 8828   7.338  25.438   8.257
  325POPC   C3B 8829   7.078  25.382   7.855
  325POPC   C4B 8830   6.970  25.657   7.496
  326POPC   NC3 8831  35.015  30.063   9.450
  326POPC   PO4 8832  35.572  30.510   9.427
  326POPC   GL1 8833  35.463  30.245   9.048
  326POPC   GL2 8834  35.367  29.905   9.008
  326POPC   C1A 8835  35.168  30.247   8.691
  326POPC   D2A 8836  35.104  30.251   8.251
  326POPC   C3A 8837  35.494  30.175   8.063
  326POPC   C4A 8838  35.663  30.051   7.677
  326POPC   C1B 8839  35.371  29.609   8.671
  326POPC   C2B 8840  35.210  29.747   8.283
  326POPC   C3B 8841  35.344  29.697   7.876
  326POPC   C4B 8842  35.476  29.352   7.716
  327POPC   NC3 8843  13.850  26.916   9.669
  327POPC   PO4 8844  13.521  26.518   9.857
  327POPC   GL1 8845  13.513  26.706   9.351
  327POPC   GL2 8846  13.282  26.877   9.180
  327POPC   C1A 8847  13.652  26.912   8.864
  327POPC   D2A 8848  13.570  27.077   8.429
  327POPC   C3A 8849  13.711  26.923   8.033
  327POPC   C4A 8850  13.974  26.760   7.710
  327POPC   C1B 8851  13.253  26.620   8.738
  327POPC   C2B 8852  13.463  26.588   8.332
  327POPC   C3B 8853  13.367  26.524   7.899
  327POPC   C4B 8854  13.155  26.676   7.541
  328POPC   NC3 8855  31.271  18.735   9.272
  328POPC   PO4 8856  31.127  19.331   9.501
  328POPC   GL1 8857  31.425  19.245   9.169
  328POPC   GL2 8858  31.717  19.000   9.244
  328POPC   C1A 8859  31.338  19.192   8.743
  328POPC   D2A 8860  31.114  19.073   8.391
  328POPC   C3A 8861  31.294  19.228   8.020
  328POPC   C4A 8862  31.298  19.035   7.636
  328POPC   C1B 8863  31.796  18.958   8.809
  328POPC   C2B 8864  31.726  19.185   8.419
  328POPC   C3B 8865  31.753  19.022   8.037
  328POPC   C4B 8866  31.754  19.215   7.667
  329POPC   NC3 8867   1.803   9.705   9.302
  329POPC   PO4 8868   1.127   9.665   9.547
  329POPC   GL1 8869   1.007   9.758   9.130
  329POPC   GL2 8870   1.338   9.682   9.038
  329POPC   C1A 8871   1.065   9.929   8.679
  329POPC   D2A 8872   0.921   9.922   8.221
  329POPC   C3A 8873   1.134   9.697   7.864
  329POPC   C4A 8874   1.025   9.847   7.415
  329POPC   C1B 8875   1.551   9.737   8.642
  329POPC   C2B 8876   1.500   9.832   8.220
  329POPC   C3B 8877   1.642   9.595   7.876
  329POPC   C4B 8878   1.463   9.603   7.466
  330POPC   NC3 8879  14.532  23.263   9.504
  330POPC   PO4 8880  14.115  23.789   9.561
  330POPC   GL1 8881  14.330  23.660   9.187
  330POPC   GL2 8882  14.675  23.688   9.234
  330POPC   C1A 8883  14.265  23.545   8.750
  330POPC   D2A 8884  14.457  23.558   8.337
  330POPC   C3A 8885  14.149  23.607   8.012
  330POPC   C4A 8886  14.183  23.726   7.615
  330POPC   C1B 8887  14.717  23.786   8.781
  330POPC   C2B 8888  14.631  24.056   8.420
  330POPC   C3B 8889  14.514  23.953   7.984
  330POPC   C4B 8890  14.654  23.952   7.569
  331POPC   NC3 8891  34.484  14.767   9.461
  331POPC   PO4 8892  34.444  14.114   9.479
  331POPC   GL1 8893  34.772  14.299   9.177
  331POPC   GL2 8894  34.659  14.611   9.019
  331POPC   C1A 8895  34.832  14.244   8.739
  331POPC   D2A 8896  34.528  14.448   8.487
  331POPC   C3A 8897  34.537  14.420   8.044
  331POPC   C4A 8898  34.804  14.253   7.742
  331POPC   C1B 8899  34.849  14.815   8.677
  331POPC   C2B 8900  34.951  14.695   8.266
  331POPC   C3B 8901  34.815  14.817   7.855
  331POPC   C4B 8902  34.791  14.811   7.398
  332POPC   NC3 8903  11.003  25.081   9.320
  332POPC   PO4 8904  11.341  24.579   9.622
  332POPC   GL1 8905  11.025  24.555   9.250
  332POPC   GL2 8906  10.889  24.215   9.133
  332POPC   C1A 8907  11.059  24.625   8.797
  332POPC   D2A 8908  11.382  24.346   8.573
  332POPC   C3A 8909  11.495  24.416   8.162
  332POPC   C4A 8910  11.529  24.242   7.768
  332POPC   C1B 8911  10.878  24.178   8.661
  332POPC   C2B 8912  11.022  24.185   8.213
  332POPC   C3B 8913  10.996  24.415   7.809
  332POPC   C4B 8914  10.869  24.257   7.395
  333POPC   NC3 8915  30.432  24.645   9.650
  333POPC   PO4 8916  30.787  24.180   9.374
  333POPC   GL1 8917  30.613  24.336   9.020
  333POPC   GL2 8918  30.693  24.682   9.121
  333POPC   C1A 8919  30.686  24.325   8.584
  333POPC   D2A 8920  30.943  24.569   8.319
  333POPC   C3A 8921  30.732  24.732   7.963
  333POPC   C4A 8922  30.568  24.446   7.660
  333POPC   C1B 8923  30.467  24.831   8.762
  333POPC   C2B 8924  30.392  24.672   8.332
  333POPC   C3B 8925  30.200  24.695   7.936
  333POPC   C4B 8926  30.378  24.967   7.629
  334POPC   NC3 8927   8.301  23.084   9.592
  334POPC   PO4 8928   8.025  22.451   9.455
  334POPC   GL1 8929   8.295  22.731   9.193
  334POPC   GL2 8930   8.168  23.077   9.108
  334POPC   C1A 8931   8.285  22.685   8.735
  334POPC   D2A 8932   8.098  22.585   8.319
  334POPC   C3A 8933   8.124  22.902   7.979
  334POPC   C4A 8934   7.911  22.970   7.592
  334POPC   C1B 8935   8.530  23.129   8.866
  334POPC   C2B 8936   8.557  23.039   8.422
  334POPC   C3B 8937   8.654  22.985   7.977
  334POPC   C4B 8938   8.602  23.299   7.603
  335POPC   NC3 8939  23.701  25.519   9.418
  335POPC   PO4 8940  24.102  25.013   9.534
  335POPC   GL1 8941  23.934  25.131   9.105
  335POPC   GL2 8942  23.756  25.457   8.915
  335POPC   C1A 8943  23.784  25.013   8.694
  335POPC   D2A 8944  23.734  25.355   8.390
  335POPC   C3A 8945  23.710  25.123   7.999
  335POPC   C4A 8946  23.668  25.123   7.559
  335POPC   C1B 8947  23.967  25.775   8.622
  335POPC   C2B 8948  24.066  25.723   8.197
  335POPC   C3B 8949  24.074  25.443   7.879
  335POPC   C4B 8950  24.088  25.405   7.411
  336POPC   NC3 8951  37.745  44.536   9.595
  336POPC   PO4 8952  37.968   0.166   9.419
  336POPC   GL1 8953  37.912  44.910   9.105
  336POPC   GL2 8954  37.622  44.676   9.134
  336POPC   C1A 8955  37.805  44.819   8.699
  336POPC   D2A 8956  37.801  44.543   8.384
  336POPC   C3A 8957  37.708  44.812   8.080
  336POPC   C4A 8958  37.765  44.781   7.677
  336POPC   C1B 8959  37.435  44.456   8.763
  336POPC   C2B 8960  37.317  44.413   8.328
  336POPC   C3B 8961  37.494  44.390   7.916
  336POPC   C4B 8962  37.580  44.367   7.475
  337POPC   NC3 8963  32.744   7.894   9.794
  337POPC   PO4 8964  33.221   8.265   9.484
  337POPC   GL1 8965  33.093   8.240   9.123
  337POPC   GL2 8966  32.802   8.092   9.141
  337POPC   C1A 8967  33.278   8.184   8.746
  337POPC   D2A 8968  33.049   8.277   8.406
  337POPC   C3A 8969  33.224   8.249   8.039
  337POPC   C4A 8970  33.217   8.334   7.636
  337POPC   C1B 8971  32.695   8.341   8.785
  337POPC   C2B 8972  32.516   8.328   8.387
  337POPC   C3B 8973  32.689   8.125   8.062
  337POPC   C4B 8974  32.706   8.301   7.698
  338POPC   NC3 8975  25.120  23.326   9.645
  338POPC   PO4 8976  25.586  23.614   9.400
  338POPC   GL1 8977  25.412  23.650   9.048
  338POPC   GL2 8978  25.056  23.626   9.152
  338POPC   C1A 8979  25.556  23.876   8.693
  338POPC   D2A 8980  25.649  23.884   8.245
  338POPC   C3A 8981  25.451  23.812   7.859
  338POPC   C4A 8982  25.340  23.382   7.872
  338POPC   C1B 8983  25.045  23.770   8.710
  338POPC   C2B 8984  24.878  24.032   8.363
  338POPC   C3B 8985  24.972  23.810   8.032
  338POPC   C4B 8986  24.816  23.706   7.689
  339POPC   NC3 8987  42.920  30.432   9.559
  339POPC   PO4 8988  42.609  31.000   9.680
  339POPC   GL1 8989  42.812  31.006   9.233
  339POPC   GL2 8990  43.039  30.700   9.127
  339POPC   C1A 8991  42.866  30.978   8.739
  339POPC   D2A 8992  42.786  31.030   8.256
  339POPC   C3A 8993  43.005  30.767   7.928
  339POPC   C4A 8994  43.047  30.590   7.480
  339POPC   C1B 8995  43.241  30.616   8.698
  339POPC   C2B 8996  43.377  30.643   8.246
  339POPC   C3B 8997  43.302  30.358   7.849
  339POPC   C4B 8998  43.403  30.231   7.392
  340POPC   NC3 8999  10.748  33.395   9.637
  340POPC   PO4 9000  10.509  34.035   9.754
  340POPC   GL1 9001  10.493  33.876   9.300
  340POPC   GL2 9002  10.823  33.857   9.138
  340POPC   C1A 9003  10.398  33.823   8.854
  340POPC   D2A 9004  10.246  33.926   8.445
  340POPC   C3A 9005  10.329  33.760   8.051
  340POPC   C4A 9006  10.474  33.948   7.676
  340POPC   C1B 9007  10.901  34.024   8.751
  340POPC   C2B 9008  10.739  33.947   8.340
  340POPC   C3B 9009  10.912  33.857   7.932
  340POPC   C4B 9010  10.932  33.881   7.467
  341POPC   NC3 9011  27.338   1.892   9.814
  341POPC   PO4 9012  26.733   1.829   9.536
  341POPC   GL1 9013  26.700   1.976   9.059
  341POPC   GL2 9014  26.501   2.321   9.125
  341POPC   C1A 9015  26.931   2.171   8.695
  341POPC   D2A 9016  26.809   2.360   8.291
  341POPC   C3A 9017  27.049   2.185   7.894
  341POPC   C4A 9018  27.082   1.899   7.476
  341POPC   C1B 9019  26.414   2.178   8.707
  341POPC   C2B 9020  26.229   2.005   8.355
  341POPC   C3B 9021  26.470   2.125   8.010
  341POPC   C4B 9022  26.643   2.114   7.593
  342POPC   NC3 9023  17.934  37.162   9.482
  342POPC   PO4 9024  17.528  36.571   9.608
  342POPC   GL1 9025  17.622  36.802   9.269
  342POPC   GL2 9026  17.416  37.061   9.343
  342POPC   C1A 9027  17.634  36.754   8.826
  342POPC   D2A 9028  17.407  36.877   8.447
  342POPC   C3A 9029  17.544  36.843   8.030
  342POPC   C4A 9030  17.712  36.797   7.638
  342POPC   C1B 9031  17.433  37.226   8.930
  342POPC   C2B 9032  17.192  37.370   8.583
  342POPC   C3B 9033  17.271  37.293   8.154
  342POPC   C4B 9034  17.408  37.240   7.731
  343POPC   NC3 9035  10.029   6.428   9.523
  343POPC   PO4 9036   9.475   6.790   9.425
  343POPC   GL1 9037   9.782   6.731   9.134
  343POPC   GL2 9038   9.701   6.396   9.124
  343POPC   C1A 9039   9.902   6.852   8.702
  343POPC   D2A 9040   9.996   6.602   8.312
  343POPC   C3A 9041   9.773   6.606   7.962
  343POPC   C4A 9042   9.735   6.886   7.680
  343POPC   C1B 9043   9.866   6.324   8.718
  343POPC   C2B 9044  10.000   6.080   8.346
  343POPC   C3B 9045  10.115   6.235   7.933
  343POPC   C4B 9046  10.026   6.457   7.536
  344POPC   NC3 9047   7.560  15.612   9.646
  344POPC   PO4 9048   7.378  14.936   9.588
  344POPC   GL1 9049   7.445  15.242   9.269
  344POPC   GL2 9050   7.236  15.013   9.103
  344POPC   C1A 9051   7.557  15.354   8.830
  344POPC   D2A 9052   7.781  15.205   8.442
  344POPC   C3A 9053   7.513  15.191   8.086
  344POPC   C4A 9054   7.485  15.462   7.741
  344POPC   C1B 9055   6.914  14.806   8.852
  344POPC   C2B 9056   7.008  14.578   8.480
  344POPC   C3B 9057   7.071  14.797   8.085
  344POPC   C4B 9058   7.250  14.884   7.689
  345POPC   NC3 9059   2.812  12.995   9.578
  345POPC   PO4 9060   2.505  12.527   9.503
  345POPC   GL1 9061   2.707  12.769   9.128
  345POPC   GL2 9062   2.638  13.171   9.149
  345POPC   C1A 9063   2.833  12.746   8.692
  345POPC   D2A 9064   2.787  12.628   8.274
  345POPC   C3A 9065   2.469  12.838   8.028
  345POPC   C4A 9066   2.276  12.629   7.711
  345POPC   C1B 9067   2.761  13.260   8.750
  345POPC   C2B 9068   2.887  13.125   8.331
  345POPC   C3B 9069   2.957  12.955   7.897
  345POPC   C4B 9070   2.673  12.928   7.549
  346POPC   NC3 9071  20.597  16.938   9.518
  346POPC   PO4 9072  20.609  16.427   9.291
  346POPC   GL1 9073  20.563  16.796   9.027
  346POPC   GL2 9074  20.257  16.936   9.064
  346POPC   C1A 9075  20.526  17.020   8.630
  346POPC   D2A 9076  20.691  16.832   8.277
  346POPC   C3A 9077  20.553  16.818   7.857
  346POPC   C4A 9078  20.837  16.952   7.516
  346POPC   C1B 9079  20.215  16.620   8.681
  346POPC   C2B 9080  20.341  16.431   8.264
  346POPC   C3B 9081  20.200  16.426   7.818
  346POPC   C4B 9082  20.055  16.297   7.383
  347POPC   NC3 9083   5.294  35.636   9.395
  347POPC   PO4 9084   5.227  35.062   9.770
  347POPC   GL1 9085   5.194  35.208   9.215
  347POPC   GL2 9086   5.265  34.979   8.965
  347POPC   C1A 9087   5.056  35.407   8.774
  347POPC   D2A 9088   4.753  35.468   8.389
  347POPC   C3A 9089   4.857  35.441   7.956
  347POPC   C4A 9090   4.813  35.064   7.747
  347POPC   C1B 9091   5.010  34.923   8.636
  347POPC   C2B 9092   5.139  35.148   8.300
  347POPC   C3B 9093   5.355  35.235   7.954
  347POPC   C4B 9094   5.325  35.697   7.932
  348POPC   NC3 9095   7.835  19.080   9.514
  348POPC   PO4 9096   8.490  19.165   9.567
  348POPC   GL1 9097   8.292  18.970   9.221
  348POPC   GL2 9098   8.373  19.251   9.059
  348POPC   C1A 9099   8.060  18.864   8.811
  348POPC   D2A 9100   8.257  18.725   8.402
  348POPC   C3A 9101   8.093  18.718   7.984
  348POPC   C4A 9102   8.084  18.843   7.528
  348POPC   C1B 9103   8.500  19.097   8.709
  348POPC   C2B 9104   8.333  19.219   8.349
  348POPC   C3B 9105   8.500  19.042   7.993
  348POPC   C4B 9106   8.425  19.208   7.619
  349POPC   NC3 9107  10.116  17.396   9.640
  349POPC   PO4 9108   9.594  17.818   9.537
  349POPC   GL1 9109   9.885  17.644   9.224
  349POPC   GL2 9110   9.653  17.363   9.147
  349POPC   C1A 9111   9.990  17.495   8.790
  349POPC   D2A 9112   9.701  17.319   8.477
  349POPC   C3A 9113   9.705  17.440   8.058
  349POPC   C4A 9114   9.947  17.403   7.702
  349POPC   C1B 9115   9.478  17.633   8.811
  349POPC   C2B 9116   9.284  17.644   8.402
  349POPC   C3B 9117   9.391  17.851   8.031
  349POPC   C4B 9118   9.523  17.727   7.633
  350POPC   NC3 9119  17.104  44.634   9.516
  350POPC   PO4 9120  16.544  44.994   9.504
  350POPC   GL1 9121  16.655  44.665   9.185
  350POPC   GL2 9122  16.958  44.574   9.037
  350POPC   C1A 9123  16.388  44.534   8.855
  350POPC   D2A 9124  16.297  44.745   8.473
  350POPC   C3A 9125  16.492  44.627   8.099
  350POPC   C4A 9126  16.470  44.818   7.705
  350POPC   C1B 9127  16.853  44.577   8.608
  350POPC   C2B 9128  17.036  44.546   8.215
  350POPC   C3B 9129  16.943  44.741   7.850
  350POPC   C4B 9130  17.060  44.492   7.503
  351POPC   NC3 9131  38.689  27.295   9.442
  351POPC   PO4 9132  38.195  27.012   9.614
  351POPC   GL1 9133  38.319  26.859   9.190
  351POPC   GL2 9134  38.245  27.196   9.116
  351POPC   C1A 9135  38.340  26.602   8.758
  351POPC   D2A 9136  38.629  26.630   8.386
  351POPC   C3A 9137  38.606  26.829   7.962
  351POPC   C4A 9138  38.424  26.705   7.569
  351POPC   C1B 9139  38.412  27.092   8.720
  351POPC   C2B 9140  38.232  26.942   8.334
  351POPC   C3B 9141  38.142  27.039   7.925
  351POPC   C4B 9142  38.395  27.202   7.567
  352POPC   NC3 9143  10.066  12.474   9.334
  352POPC   PO4 9144  10.619  12.768   9.626
  352POPC   GL1 9145  10.427  12.818   9.183
  352POPC   GL2 9146  10.266  13.150   9.102
  352POPC   C1A 9147  10.435  12.719   8.716
  352POPC   D2A 9148  10.351  12.488   8.312
  352POPC   C3A 9149  10.596  12.654   7.937
  352POPC   C4A 9150  10.854  13.017   7.804
  352POPC   C1B 9151  10.110  13.137   8.669
  352POPC   C2B 9152  10.300  13.007   8.260
  352POPC   C3B 9153  10.333  13.109   7.799
  352POPC   C4B 9154  10.141  13.260   7.389
  353POPC   NC3 9155  26.441  13.542   9.545
  353POPC   PO4 9156  25.898  13.937   9.769
  353POPC   GL1 9157  25.968  13.913   9.266
  353POPC   GL2 9158  25.694  14.098   9.125
  353POPC   C1A 9159  25.841  13.669   8.820
  353POPC   D2A 9160  25.707  13.647   8.338
  353POPC   C3A 9161  25.920  13.307   8.035
  353POPC   C4A 9162  26.116  13.417   7.638
  353POPC   C1B 9163  26.027  14.130   8.809
  353POPC   C2B 9164  26.081  14.025   8.388
  353POPC   C3B 9165  26.140  13.780   8.014
  353POPC   C4B 9166  26.270  13.926   7.587
  354POPC   NC3 9167   8.562   5.286   9.553
  354POPC   PO4 9168   9.155   5.090   9.897
  354POPC   GL1 9169   8.976   5.021   9.376
  354POPC   GL2 9170   8.941   5.327   9.178
  354POPC   C1A 9171   8.871   4.944   8.849
  354POPC   D2A 9172   8.923   4.815   8.377
  354POPC   C3A 9173   8.983   4.992   7.961
  354POPC   C4A 9174   9.345   4.945   7.636
  354POPC   C1B 9175   9.165   5.364   8.782
  354POPC   C2B 9176   9.117   5.298   8.346
  354POPC   C3B 9177   9.275   5.389   7.931
  354POPC   C4B 9178   9.242   5.486   7.505
  355POPC   NC3 9179  31.186  29.920   9.553
  355POPC   PO4 9180  30.533  29.734   9.603
  355POPC   GL1 9181  30.567  30.028   9.246
  355POPC   GL2 9182  30.634  29.772   9.005
  355POPC   C1A 9183  30.471  30.208   8.820
  355POPC   D2A 9184  30.459  29.875   8.513
  355POPC   C3A 9185  30.455  29.872   8.070
  355POPC   C4A 9186  30.566  30.204   7.827
  355POPC   C1B 9187  30.879  29.596   8.679
  355POPC   C2B 9188  31.028  29.743   8.304
  355POPC   C3B 9189  30.961  29.759   7.893
  355POPC   C4B 9190  30.655  29.533   7.743
  356POPC   NC3 9191  34.176  21.094   9.421
  356POPC   PO4 9192  33.434  21.055   9.431
  356POPC   GL1 9193  33.747  21.356   9.226
  356POPC   GL2 9194  33.606  21.668   9.075
  356POPC   C1A 9195  34.027  21.499   8.870
  356POPC   D2A 9196  33.971  21.317   8.470
  356POPC   C3A 9197  33.645  21.404   8.203
  356POPC   C4A 9198  33.843  21.478   7.808
  356POPC   C1B 9199  33.697  21.810   8.644
  356POPC   C2B 9200  33.908  21.829   8.261
  356POPC   C3B 9201  33.653  21.937   7.917
  356POPC   C4B 9202  33.560  21.791   7.497
  357POPC   NC3 9203  17.592  25.306   9.599
  357POPC   PO4 9204  17.192  24.697   9.623
  357POPC   GL1 9205  17.493  24.880   9.284
  357POPC   GL2 9206  17.295  24.835   9.003
  357POPC   C1A 9207  17.609  25.204   8.933
  357POPC   D2A 9208  17.503  25.143   8.493
  357POPC   C3A 9209  17.785  25.301   8.204
  357POPC   C4A 9210  17.796  25.342   7.793
  357POPC   C1B 9211  17.094  25.222   8.819
  357POPC   C2B 9212  17.035  25.400   8.401
  357POPC   C3B 9213  17.208  25.377   7.952
  357POPC   C4B 9214  17.103  25.129   7.540
  358POPC   NC3 9215  12.915  42.432   9.508
  358POPC   PO4 9216  12.663  41.750   9.441
  358POPC   GL1 9217  12.818  42.055   9.145
  358POPC   GL2 9218  12.627  42.385   9.101
  358POPC   C1A 9219  12.762  42.110   8.697
  358POPC   D2A 9220  13.038  42.015   8.372
  358POPC   C3A 9221  12.904  42.161   8.007
  358POPC   C4A 9222  13.170  42.183   7.683
  358POPC   C1B 9223  12.875  42.600   8.776
  358POPC   C2B 9224  13.059  42.528   8.378
  358POPC   C3B 9225  13.080  42.631   7.946
  358POPC   C4B 9226  12.945  42.932   7.715
  359POPC   NC3 9227  34.750  12.334   9.520
  359POPC   PO4 9228  34.604  11.645   9.500
  359POPC   GL1 9229  34.682  11.970   9.167
  359POPC   GL2 9230  34.421  12.251   9.123
  359POPC   C1A 9231  34.913  11.925   8.770
  359POPC   D2A 9232  35.051  11.914   8.325
  359POPC   C3A 9233  34.712  11.884   8.029
  359POPC   C4A 9234  34.543  12.144   7.744
  359POPC   C1B 9235  34.449  12.153   8.659
  359POPC   C2B 9236  34.490  12.373   8.242
  359POPC   C3B 9237  34.259  12.529   7.877
  359POPC   C4B 9238  34.072  12.236   7.530
  360POPC   NC3 9239  10.194  15.998   9.436
  360POPC   PO4 9240  10.744  15.624   9.517
  360POPC   GL1 9241  10.630  15.789   9.082
  360POPC   GL2 9242  10.263  15.875   8.961
  360POPC   C1A 9243  10.614  15.734   8.616
  360POPC   D2A 9244  10.224  15.717   8.411
  360POPC   C3A 9245  10.267  15.760   7.988
  360POPC   C4A 9246  10.619  15.722   7.719
  360POPC   C1B 9247  10.408  16.203   8.719
  360POPC   C2B 9248  10.495  16.163   8.296
  360POPC   C3B 9249  10.358  16.265   7.912
  360POPC   C4B 9250  10.326  16.070   7.514
  361POPC   NC3 9251  43.547   1.808   9.651
  361POPC   PO4 9252  43.772   2.449   9.685
  361POPC   GL1 9253  43.722   2.251   9.210
  361POPC   GL2 9254  43.600   1.857   9.152
  361POPC   C1A 9255  43.822   2.089   8.756
  361POPC   D2A 9256  43.993   2.112   8.323
  361POPC   C3A 9257  43.891   2.037   7.876
  361POPC   C4A 9258  44.253   1.886   7.617
  361POPC   C1B 9259  43.603   1.519   8.831
  361POPC   C2B 9260  43.768   1.622   8.429
  361POPC   C3B 9261  43.638   1.562   8.003
  361POPC   C4B 9262  43.612   1.713   7.562
  362POPC   NC3 9263  27.299  13.328   9.405
  362POPC   PO4 9264  26.863  13.680   9.812
  362POPC   GL1 9265  26.854  13.611   9.290
  362POPC   GL2 9266  27.073  13.622   9.046
  362POPC   C1A 9267  26.621  13.551   8.848
  362POPC   D2A 9268  26.697  13.356   8.412
  362POPC   C3A 9269  26.724  13.493   7.972
  362POPC   C4A 9270  26.613  13.532   7.547
  362POPC   C1B 9271  27.018  13.817   8.664
  362POPC   C2B 9272  27.101  13.670   8.275
  362POPC   C3B 9273  27.118  13.827   7.887
  362POPC   C4B 9274  27.092  13.653   7.433
  363POPC   NC3 9275  13.266  37.768   9.491
  363POPC   PO4 9276  13.674  37.254   9.521
  363POPC   GL1 9277  13.613  37.538   9.188
  363POPC   GL2 9278  13.264  37.406   9.141
  363POPC   C1A 9279  13.708  37.823   8.805
  363POPC   D2A 9280  13.547  37.888   8.369
  363POPC   C3A 9281  13.776  37.756   7.975
  363POPC   C4A 9282  13.612  37.864   7.521
  363POPC   C1B 9283  13.456  37.395   8.737
  363POPC   C2B 9284  13.705  37.411   8.417
  363POPC   C3B 9285  13.531  37.286   8.063
  363POPC   C4B 9286  13.549  37.401   7.681
  364POPC   NC3 9287  21.848  31.622   9.514
  364POPC   PO4 9288  22.130  31.018   9.533
  364POPC   GL1 9289  22.177  31.329   9.215
  364POPC   GL2 9290  22.121  31.646   9.085
  364POPC   C1A 9291  22.230  31.279   8.761
  364POPC   D2A 9292  22.297  31.079   8.384
  364POPC   C3A 9293  22.016  31.173   8.069
  364POPC   C4A 9294  22.099  31.169   7.661
  364POPC   C1B 9295  22.053  31.774   8.682
  364POPC   C2B 9296  22.154  31.618   8.292
  364POPC   C3B 9297  21.949  31.662   7.892
  364POPC   C4B 9298  21.808  31.732   7.465
  365POPC   NC3 9299   9.263  22.909   9.453
  365POPC   PO4 9300   8.601  22.725   9.637
  365POPC   GL1 9301   8.786  22.942   9.254
  365POPC   GL2 9302   8.878  22.593   9.206
  365POPC   C1A 9303   9.030  23.147   8.830
  365POPC   D2A 9304   8.964  23.363   8.418
  365POPC   C3A 9305   9.201  23.181   8.092
  365POPC   C4A 9306   9.056  23.081   7.690
  365POPC   C1B 9307   8.809  22.701   8.788
  365POPC   C2B 9308   9.031  22.812   8.413
  365POPC   C3B 9309   9.066  22.642   8.000
  365POPC   C4B 9310   8.838  22.636   7.599
  366POPC   NC3 9311  21.168  40.960   9.544
  366POPC   PO4 9312  21.586  40.469   9.457
  366POPC   GL1 9313  21.286  40.622   9.128
  366POPC   GL2 9314  21.355  41.012   9.068
  366POPC   C1A 9315  21.121  40.741   8.708
  366POPC   D2A 9316  21.300  41.146   8.547
  366POPC   C3A 9317  21.281  41.087   8.109
  366POPC   C4A 9318  21.308  40.666   7.911
  366POPC   C1B 9319  21.638  40.787   8.756
  366POPC   C2B 9320  21.664  40.794   8.295
  366POPC   C3B 9321  21.770  40.851   7.842
  366POPC   C4B 9322  21.594  40.922   7.419
  367POPC   NC3 9323  20.195  31.908   9.655
  367POPC   PO4 9324  19.821  32.471   9.528
  367POPC   GL1 9325  19.995  32.299   9.147
  367POPC   GL2 9326  20.210  32.080   9.191
  367POPC   C1A 9327  19.939  32.339   8.699
  367POPC   D2A 9328  19.681  32.231   8.365
  367POPC   C3A 9329  19.752  32.188   7.909
  367POPC   C4A 9330  19.725  32.482   7.542
  367POPC   C1B 9331  20.269  31.970   8.779
  367POPC   C2B 9332  20.167  32.017   8.325
  367POPC   C3B 9333  20.235  31.986   7.866
  367POPC   C4B 9334  20.020  32.062   7.466
  368POPC   NC3 9335  12.670  15.096   9.632
  368POPC   PO4 9336  11.982  15.087   9.667
  368POPC   GL1 9337  11.767  15.094   9.258
  368POPC   GL2 9338  11.783  15.437   9.211
  368POPC   C1A 9339  11.850  14.943   8.814
  368POPC   D2A 9340  12.067  15.122   8.418
  368POPC   C3A 9341  11.877  15.139   8.034
  368POPC   C4A 9342  11.905  14.949   7.634
  368POPC   C1B 9343  11.910  15.442   8.800
  368POPC   C2B 9344  12.242  15.566   8.565
  368POPC   C3B 9345  12.214  15.586   8.155
  368POPC   C4B 9346  12.239  15.491   7.741
  369POPC   NC3 9347  41.226   3.661   9.460
  369POPC   PO4 9348  41.825   3.437   9.527
  369POPC   GL1 9349  41.585   3.395   9.179
  369POPC   GL2 9350  41.586   3.767   9.114
  369POPC   C1A 9351  41.289   3.376   8.824
  369POPC   D2A 9352  41.145   3.595   8.449
  369POPC   C3A 9353  41.428   3.410   8.137
  369POPC   C4A 9354  41.545   3.348   7.683
  369POPC   C1B 9355  41.742   3.594   8.738
  369POPC   C2B 9356  42.016   3.727   8.435
  369POPC   C3B 9357  41.901   3.650   8.027
  369POPC   C4B 9358  41.796   3.780   7.612
  370POPC   NC3 9359   4.264  13.215   9.443
  370POPC   PO4 9360   4.502  12.579   9.496
  370POPC   GL1 9361   4.088  12.724   9.296
  370POPC   GL2 9362   3.913  13.039   9.110
  370POPC   C1A 9363   3.985  12.575   8.907
  370POPC   D2A 9364   4.261  12.471   8.551
  370POPC   C3A 9365   4.250  12.727   8.150
  370POPC   C4A 9366   4.134  12.926   7.747
  370POPC   C1B 9367   4.328  12.947   8.856
  370POPC   C2B 9368   4.547  12.977   8.472
  370POPC   C3B 9369   4.712  12.973   8.070
  370POPC   C4B 9370   4.732  13.145   7.684
  371POPC   NC3 9371  24.993  30.653   9.433
  371POPC   PO4 9372  25.584  30.970   9.730
  371POPC   GL1 9373  25.505  30.767   9.301
  371POPC   GL2 9374  25.310  31.024   9.191
  371POPC   C1A 9375  25.289  30.604   8.879
  371POPC   D2A 9376  25.406  30.485   8.459
  371POPC   C3A 9377  25.138  30.441   8.102
  371POPC   C4A 9378  25.114  30.672   7.717
  371POPC   C1B 9379  25.588  31.000   8.816
  371POPC   C2B 9380  25.400  30.993   8.404
  371POPC   C3B 9381  25.220  31.082   8.014
  371POPC   C4B 9382  25.469  31.066   7.659
  372POPC   NC3 9383  29.744   5.650   9.586
  372POPC   PO4 9384  29.133   5.892   9.411
  372POPC   GL1 9385  29.283   5.662   9.063
  372POPC   GL2 9386  28.968   5.818   8.928
  372POPC   C1A 9387  29.276   5.611   8.600
  372POPC   D2A 9388  28.985   5.844   8.318
  372POPC   C3A 9389  29.106   5.714   7.907
  372POPC   C4A 9390  29.444   5.894   7.667
  372POPC   C1B 9391  28.764   6.187   8.704
  372POPC   C2B 9392  28.979   6.404   8.398
  372POPC   C3B 9393  29.159   6.267   8.025
  372POPC   C4B 9394  28.982   6.138   7.647
  373POPC   NC3 9395  21.855  37.907   9.592
  373POPC   PO4 9396  22.553  37.768   9.800
  373POPC   GL1 9397  22.283  37.911   9.348
  373POPC   GL2 9398  22.086  37.646   9.190
  373POPC   C1A 9399  22.353  38.014   8.900
  373POPC   D2A 9400  22.363  37.712   8.544
  373POPC   C3A 9401  22.265  37.836   8.112
  373POPC   C4A 9402  22.433  37.643   7.726
  373POPC   C1B 9403  21.920  37.763   8.821
  373POPC   C2B 9404  21.877  37.533   8.447
  373POPC   C3B 9405  22.165  37.344   8.167
  373POPC   C4B 9406  22.143  37.228   7.731
  374POPC   NC3 9407  19.022  34.215   9.397
  374POPC   PO4 9408  18.757  34.765   9.337
  374POPC   GL1 9409  19.076  34.640   9.042
  374POPC   GL2 9410  19.225  34.328   8.957
  374POPC   C1A 9411  18.947  34.534   8.592
  374POPC   D2A 9412  18.789  34.769   8.230
  374POPC   C3A 9413  18.938  34.653   7.799
  374POPC   C4A 9414  19.240  34.625   7.455
  374POPC   C1B 9415  19.422  34.629   8.671
  374POPC   C2B 9416  19.301  34.603   8.220
  374POPC   C3B 9417  19.503  34.692   7.873
  374POPC   C4B 9418  19.618  35.051   7.722
  375POPC   NC3 9419  21.977  44.308   9.436
  375POPC   PO4 9420  21.913  43.676   9.644
  375POPC   GL1 9421  22.083  43.541   9.236
  375POPC   GL2 9422  22.300  43.791   9.171
  375POPC   C1A 9423  21.976  43.608   8.780
  375POPC   D2A 9424  21.872  43.432   8.347
  375POPC   C3A 9425  22.076  43.636   7.988
  375POPC   C4A 9426  22.012  43.905   7.637
  375POPC   C1B 9427  22.261  44.041   8.801
  375POPC   C2B 9428  22.312  43.971   8.362
  375POPC   C3B 9429  22.169  44.205   8.007
  375POPC   C4B 9430  21.914  44.449   7.724
  376POPC   NC3 9431  18.457  21.486   9.580
  376POPC   PO4 9432  17.921  21.642   9.283
  376POPC   GL1 9433  18.252  21.395   9.102
  376POPC   GL2 9434  18.600  21.283   9.126
  376POPC   C1A 9435  18.132  21.282   8.718
  376POPC   D2A 9436  18.001  21.526   8.393
  376POPC   C3A 9437  18.103  21.420   7.993
  376POPC   C4A 9438  18.299  21.656   7.707
  376POPC   C1B 9439  18.655  21.356   8.690
  376POPC   C2B 9440  18.479  21.229   8.294
  376POPC   C3B 9441  18.580  21.241   7.852
  376POPC   C4B 9442  18.643  21.043   7.462
  377POPC   NC3 9443  27.532   9.503   9.403
  377POPC   PO4 9444  27.977  10.029   9.510
  377POPC   GL1 9445  27.698   9.940   9.169
  377POPC   GL2 9446  27.330   9.986   9.162
  377POPC   C1A 9447  27.588   9.780   8.768
  377POPC   D2A 9448  27.439   9.696   8.393
  377POPC   C3A 9449  27.697   9.714   8.021
  377POPC   C4A 9450  27.634   9.492   7.646
  377POPC   C1B 9451  27.075   9.854   8.777
  377POPC   C2B 9452  27.046  10.037   8.334
  377POPC   C3B 9453  27.215   9.872   7.957
  377POPC   C4B 9454  27.478   9.993   7.649
  378POPC   NC3 9455  22.498  33.081   9.590
  378POPC   PO4 9456  23.231  32.905   9.497
  378POPC   GL1 9457  22.875  32.801   9.266
  378POPC   GL2 9458  22.848  33.118   9.231
  378POPC   C1A 9459  22.689  32.923   8.822
  378POPC   D2A 9460  22.873  33.137   8.501
  378POPC   C3A 9461  22.757  33.134   8.074
  378POPC   C4A 9462  22.927  32.880   7.755
  378POPC   C1B 9463  23.142  33.353   8.945
  378POPC   C2B 9464  23.143  33.565   8.549
  378POPC   C3B 9465  23.238  33.319   8.182
  378POPC   C4B 9466  23.263  33.339   7.764
  379POPC   NC3 9467  34.303  19.398   9.545
  379POPC   PO4 9468  34.901  19.683   9.488
  379POPC   GL1 9469  34.635  19.881   9.170
  379POPC   GL2 9470  34.327  19.699   9.144
  379POPC   C1A 9471  34.550  19.836   8.707
  379POPC   D2A 9472  34.290  20.096   8.416
  379POPC   C3A 9473  34.418  20.082   7.979
  379POPC   C4A 9474  34.804  19.880   7.815
  379POPC   C1B 9475  34.067  19.632   8.802
  379POPC   C2B 9476  34.015  19.667   8.378
  379POPC   C3B 9477  34.252  19.561   8.017
  379POPC   C4B 9478  34.307  19.715   7.628
  380POPC   NC3 9479  22.259  39.574   9.794
  380POPC   PO4 9480  21.913  39.055   9.524
  380POPC   GL1 9481  22.116  39.249   9.188
  380POPC   GL2 9482  21.834  39.450   9.122
  380POPC   C1A 9483  22.310  39.053   8.791
  380POPC   D2A 9484  22.176  38.778   8.432
  380POPC   C3A 9485  22.382  38.851   8.029
  380POPC   C4A 9486  22.230  38.930   7.606
  380POPC   C1B 9487  21.962  39.425   8.697
  380POPC   C2B 9488  22.164  39.296   8.297
  380POPC   C3B 9489  22.439  39.356   7.931
  380POPC   C4B 9490  22.435  39.405   7.471
  381POPC   NC3 9491   8.323   0.549   9.475
  381POPC   PO4 9492   7.750   0.261   9.198
  381POPC   GL1 9493   8.215   0.272   9.078
  381POPC   GL2 9494   8.418   0.615   8.995
  381POPC   C1A 9495   8.480   0.173   8.746
  381POPC   D2A 9496   8.456   0.391   8.392
  381POPC   C3A 9497   8.475   0.194   8.041
  381POPC   C4A 9498   8.482   0.604   7.893
  381POPC   C1B 9499   8.116   0.612   8.685
  381POPC   C2B 9500   8.006   0.701   8.235
  381POPC   C3B 9501   8.031   0.802   7.781
  381POPC   C4B 9502   7.992   0.907   7.342
  382POPC   NC3 9503  30.746  29.423   9.352
  382POPC   PO4 9504  30.443  28.880   9.588
  382POPC   GL1 9505  30.702  28.981   9.157
  382POPC   GL2 9506  30.382  29.272   9.073
  382POPC   C1A 9507  30.785  29.090   8.698
  382POPC   D2A 9508  31.003  29.211   8.273
  382POPC   C3A 9509  30.861  29.010   7.874
  382POPC   C4A 9510  30.791  28.709   7.500
  382POPC   C1B 9511  30.384  29.400   8.696
  382POPC   C2B 9512  30.533  29.407   8.289
  382POPC   C3B 9513  30.280  29.306   7.956
  382POPC   C4B 9514  30.050  29.365   7.597
  383POPC   NC3 9515  20.976  38.332   9.632
  383POPC   PO4 9516  20.378  38.685   9.487
  383POPC   GL1 9517  20.514  38.594   9.098
  383POPC   GL2 9518  20.855  38.476   9.140
  383POPC   C1A 9519  20.314  38.565   8.685
  383POPC   D2A 9520  20.122  38.521   8.279
  383POPC   C3A 9521  20.313  38.528   7.867
  383POPC   C4A 9522  20.290  38.203   7.564
  383POPC   C1B 9523  20.841  38.597   8.694
  383POPC   C2B 9524  20.665  38.547   8.267
  383POPC   C3B 9525  20.821  38.423   7.844
  383POPC   C4B 9526  21.087  38.584   7.525
  384POPC   NC3 9527  12.218  17.125   9.637
  384POPC   PO4 9528  12.188  17.791   9.711
  384POPC   GL1 9529  12.035  17.527   9.363
  384POPC   GL2 9530  12.353  17.511   9.221
  384POPC   C1A 9531  11.934  17.538   8.894
  384POPC   D2A 9532  11.862  17.351   8.460
  384POPC   C3A 9533  11.870  17.637   8.098
  384POPC   C4A 9534  11.811  17.534   7.658
  384POPC   C1B 9535  12.444  17.415   8.779
  384POPC   C2B 9536  12.489  17.211   8.392
  384POPC   C3B 9537  12.289  17.342   8.017
  384POPC   C4B 9538  12.330  17.601   7.662
  385POPC   NC3 9539  29.497   6.118   9.249
  385POPC   PO4 9540  30.122   5.885   9.449
  385POPC   GL1 9541  29.874   5.810   9.106
  385POPC   GL2 9542  29.884   6.147   8.913
  385POPC   C1A 9543  29.809   5.671   8.714
  385POPC   D2A 9544  30.046   5.874   8.395
  385POPC   C3A 9545  29.963   5.705   8.012
  385POPC   C4A 9546  30.006   5.811   7.614
  385POPC   C1B 9547  29.530   6.068   8.604
  385POPC   C2B 9548  29.556   5.983   8.183
  385POPC   C3B 9549  29.803   6.203   7.862
  385POPC   C4B 9550  29.787   6.186   7.360
  386POPC   NC3 9551  21.089  36.127   9.588
  386POPC   PO4 9552  21.459  35.639   9.420
  386POPC   GL1 9553  21.494  36.026   9.181
  386POPC   GL2 9554  21.462  36.400   9.243
  386POPC   C1A 9555  21.693  36.183   8.798
  386POPC   D2A 9556  21.689  35.958   8.413
  386POPC   C3A 9557  21.541  36.165   8.052
  386POPC   C4A 9558  21.433  36.034   7.658
  386POPC   C1B 9559  21.208  36.309   8.868
  386POPC   C2B 9560  21.193  36.139   8.461
  386POPC   C3B 9561  21.081  36.377   8.116
  386POPC   C4B 9562  20.991  36.280   7.708
  387POPC   NC3 9563  29.107  34.812   9.241
  387POPC   PO4 9564  29.546  34.375   9.541
  387POPC   GL1 9565  29.358  34.388   9.117
  387POPC   GL2 9566  29.017  34.410   8.932
  387POPC   C1A 9567  29.439  34.527   8.692
  387POPC   D2A 9568  29.567  34.437   8.285
  387POPC   C3A 9569  29.195  34.532   8.113
  387POPC   C4A 9570  28.958  34.660   7.742
  387POPC   C1B 9571  29.006  34.270   8.535
  387POPC   C2B 9572  28.734  34.369   8.213
  387POPC   C3B 9573  28.669  34.264   7.807
  387POPC   C4B 9574  28.737  34.299   7.363
  388POPC   NC3 9575  15.369  40.507   9.557
  388POPC   PO4 9576  14.806  40.884   9.569
  388POPC   GL1 9577  15.129  40.889   9.269
  388POPC   GL2 9578  14.926  41.018   9.025
  388POPC   C1A 9579  15.273  40.665   8.892
  388POPC   D2A 9580  15.348  40.780   8.449
  388POPC   C3A 9581  15.204  40.512   8.110
  388POPC   C4A 9582  15.077  40.598   7.719
  388POPC   C1B 9583  14.963  41.142   8.598
  388POPC   C2B 9584  14.880  40.931   8.210
  388POPC   C3B 9585  14.865  41.057   7.768
  388POPC   C4B 9586  14.945  41.204   7.366
  389POPC   NC3 9587  36.221  19.027   9.557
  389POPC   PO4 9588  36.982  19.041   9.599
  389POPC   GL1 9589  37.142  19.054   9.170
  389POPC   GL2 9590  36.903  19.020   8.914
  389POPC   C1A 9591  37.307  19.222   8.766
  389POPC   D2A 9592  36.985  19.119   8.426
  389POPC   C3A 9593  37.089  19.042   8.008
  389POPC   C4A 9594  36.778  19.123   7.708
  389POPC   C1B 9595  36.683  18.756   8.669
  389POPC   C2B 9596  36.562  18.860   8.280
  389POPC   C3B 9597  36.757  18.646   7.959
  389POPC   C4B 9598  36.560  18.669   7.582
  390POPC   NC3 9599  20.645  42.783   9.521
  390POPC   PO4 9600  20.975  43.360   9.502
  390POPC   GL1 9601  20.806  43.240   9.126
  390POPC   GL2 9602  20.456  43.113   9.186
  390POPC   C1A 9603  20.631  43.306   8.738
  390POPC   D2A 9604  20.694  43.028   8.424
  390POPC   C3A 9605  20.508  43.219   8.099
  390POPC   C4A 9606  20.713  43.154   7.725
  390POPC   C1B 9607  20.301  42.926   8.811
  390POPC   C2B 9608  20.225  42.833   8.384
  390POPC   C3B 9609  20.041  42.984   8.042
  390POPC   C4B 9610  20.187  43.092   7.655
  391POPC   NC3 9611  33.268  31.993   9.489
  391POPC   PO4 9612  33.897  32.001   9.701
  391POPC   GL1 9613  33.777  32.215   9.291
  391POPC   GL2 9614  33.508  32.096   9.039
  391POPC   C1A 9615  33.917  32.462   8.942
  391POPC   D2A 9616  33.794  32.652   8.533
  391POPC   C3A 9617  34.008  32.582   8.135
  391POPC   C4A 9618  33.846  32.452   7.717
  391POPC   C1B 9619  33.880  31.953   8.836
  391POPC   C2B 9620  33.845  32.084   8.425
  391POPC   C3B 9621  33.591  32.229   8.100
  391POPC   C4B 9622  33.592  31.998   7.733
  392POPC   NC3 9623  30.296  39.046   9.425
  392POPC   PO4 9624  30.930  39.143   9.617
  392POPC   GL1 9625  30.772  39.166   9.205
  392POPC   GL2 9626  30.725  39.514   9.028
  392POPC   C1A 9627  30.972  39.157   8.793
  392POPC   D2A 9628  30.816  39.416   8.457
  392POPC   C3A 9629  30.952  39.160   8.116
  392POPC   C4A 9630  30.850  38.878   7.792
  392POPC   C1B 9631  30.455  39.207   8.798
  392POPC   C2B 9632  30.562  38.976   8.434
  392POPC   C3B 9633  30.445  39.099   8.039
  392POPC   C4B 9634  30.613  39.432   7.803
  393POPC   NC3 9635  35.978  17.294   9.254
  393POPC   PO4 9636  36.115  16.619   9.520
  393POPC   GL1 9637  36.089  16.574   9.077
  393POPC   GL2 9638  36.070  16.864   9.018
  393POPC   C1A 9639  36.110  16.568   8.586
  393POPC   D2A 9640  35.817  16.491   8.239
  393POPC   C3A 9641  35.968  16.548   7.820
  393POPC   C4A 9642  36.212  16.241   7.637
  393POPC   C1B 9643  36.063  17.067   8.654
  393POPC   C2B 9644  36.027  16.953   8.240
  393POPC   C3B 9645  36.254  17.007   7.898
  393POPC   C4B 9646  35.953  17.182   7.673
  394POPC   NC3 9647  11.467  23.319   9.560
  394POPC   PO4 9648  10.996  23.031   9.286
  394POPC   GL1 9649  11.237  22.966   8.980
  394POPC   GL2 9650  11.559  22.997   9.132
  394POPC   C1A 9651  11.158  22.759   8.597
  394POPC   D2A 9652  10.936  22.569   8.279
  394POPC   C3A 9653  10.964  22.856   7.952
  394POPC   C4A 9654  11.199  22.997   7.634
  394POPC   C1B 9655  11.650  22.802   8.731
  394POPC   C2B 9656  11.573  22.856   8.274
  394POPC   C3B 9657  11.638  23.068   7.862
  394POPC   C4B 9658  11.656  23.068   7.367
  395POPC   NC3 9659  27.189   5.297   9.905
  395POPC   PO4 9660  27.681   4.840   9.678
  395POPC   GL1 9661  27.593   4.854   9.187
  395POPC   GL2 9662  27.367   4.520   9.109
  395POPC   C1A 9663  27.540   5.130   8.814
  395POPC   D2A 9664  27.826   5.272   8.518
  395POPC   C3A 9665  27.700   5.288   8.109
  395POPC   C4A 9666  27.819   5.142   7.727
  395POPC   C1B 9667  27.606   4.504   8.755
  395POPC   C2B 9668  27.426   4.609   8.372
  395POPC   C3B 9669  27.601   4.770   7.999
  395POPC   C4B 9670  27.737   4.639   7.574
  396POPC   NC3 9671  37.083  35.641   9.379
  396POPC   PO4 9672  36.855  35.031   9.475
  396POPC   GL1 9673  36.979  35.230   9.093
  396POPC   GL2 9674  36.701  35.425   8.963
  396POPC   C1A 9675  37.183  35.471   8.768
  396POPC   D2A 9676  37.167  35.761   8.429
  396POPC   C3A 9677  37.028  35.492   8.107
  396POPC   C4A 9678  37.172  35.356   7.709
  396POPC   C1B 9679  36.726  35.362   8.517
  396POPC   C2B 9680  36.716  35.090   8.169
  396POPC   C3B 9681  36.733  35.044   7.718
  396POPC   C4B 9682  36.634  34.768   7.371
  397POPC   NC3 9683  10.777   9.075   9.236
  397POPC   PO4 9684  10.233   8.928   9.668
  397POPC   GL1 9685  10.158   8.972   9.221
  397POPC   GL2 9686  10.255   9.316   9.121
  397POPC   C1A 9687  10.275   8.819   8.814
  397POPC   D2A 9688  10.575   8.776   8.474
  397POPC   C3A 9689  10.413   8.920   8.075
  397POPC   C4A 9690  10.166   8.908   7.696
  397POPC   C1B 9691  10.459   9.295   8.692
  397POPC   C2B 9692  10.723   9.310   8.316
  397POPC   C3B 9693  10.869   9.156   7.923
  397POPC   C4B 9694  10.834   9.323   7.500
  398POPC   NC3 9695  18.875  35.212   9.387
  398POPC   PO4 9696  19.557  35.207   9.532
  398POPC   GL1 9697  19.309  35.086   9.157
  398POPC   GL2 9698  19.207  35.414   9.036
  398POPC   C1A 9699  19.132  35.029   8.726
  398POPC   D2A 9700  19.396  35.072   8.368
  398POPC   C3A 9701  19.166  35.071   7.986
  398POPC   C4A 9702  19.166  35.179   7.533
  398POPC   C1B 9703  18.938  35.485   8.643
  398POPC   C2B 9704  18.947  35.627   8.198
  398POPC   C3B 9705  18.854  35.442   7.839
  398POPC   C4B 9706  18.629  35.079   7.841
  399POPC   NC3 9707  13.123  25.541   9.337
  399POPC   PO4 9708  12.508  25.301   9.390
  399POPC   GL1 9709  12.814  25.198   9.076
  399POPC   GL2 9710  13.081  24.991   9.163
  399POPC   C1A 9711  12.800  24.950   8.694
  399POPC   D2A 9712  12.963  24.925   8.305
  399POPC   C3A 9713  12.811  25.301   8.135
  399POPC   C4A 9714  12.493  25.414   7.830
  399POPC   C1B 9715  13.244  25.217   8.773
  399POPC   C2B 9716  13.333  25.285   8.347
  399POPC   C3B 9717  13.282  25.546   8.008
  399POPC   C4B 9718  12.977  25.609   7.761
  400POPC   NC3 9719  31.178  37.753   9.479
  400POPC   PO4 9720  31.814  37.449   9.399
  400POPC   GL1 9721  31.520  37.646   9.117
  400POPC   GL2 9722  31.197  37.418   9.106
  400POPC   C1A 9723  31.530  37.891   8.735
  400POPC   D2A 9724  31.353  37.779   8.322
  400POPC   C3A 9725  31.349  37.975   7.907
  400POPC   C4A 9726  31.466  37.741   7.514
  400POPC   C1B 9727  31.390  37.358   8.705
  400POPC   C2B 9728  31.210  37.264   8.306
  400POPC   C3B 9729  31.291  37.428   7.901
  400POPC   C4B 9730  31.120  37.375   7.502
  401POPC   NC3 9731  18.311   2.503   9.435
  401POPC   PO4 9732  17.994   3.105   9.509
  401POPC   GL1 9733  18.107   2.864   9.154
  401POPC   GL2 9734  18.462   2.965   9.136
  401POPC   C1A 9735  18.282   2.640   8.783
  401POPC   D2A 9736  18.399   2.812   8.387
  401POPC   C3A 9737  18.270   2.627   8.022
  401POPC   C4A 9738  18.130   2.605   7.618
  401POPC   C1B 9739  18.525   3.216   8.737
  401POPC   C2B 9740  18.631   3.246   8.279
  401POPC   C3B 9741  18.638   2.986   7.921
  401POPC   C4B 9742  18.722   2.547   7.822
  402POPC   NC3 9743   4.953  12.491   9.452
  402POPC   PO4 9744   5.322  13.152   9.524
  402POPC   GL1 9745   5.174  12.891   9.199
  402POPC   GL2 9746   4.799  12.918   9.141
  402POPC   C1A 9747   5.281  12.831   8.769
  402POPC   D2A 9748   5.109  13.029   8.401
  402POPC   C3A 9749   5.244  12.939   7.978
  402POPC   C4A 9750   5.253  12.721   7.597
  402POPC   C1B 9751   4.754  12.622   8.771
  402POPC   C2B 9752   4.705  12.502   8.315
  402POPC   C3B 9753   4.906  12.535   7.926
  402POPC   C4B 9754   4.571  12.658   7.641
  403POPC   NC3 9755  37.560  20.218   9.424
  403POPC   PO4 9756  38.040  20.785   9.490
  403POPC   GL1 9757  37.900  20.566   9.125
  403POPC   GL2 9758  37.729  20.833   8.986
  403POPC   C1A 9759  38.021  20.581   8.667
  403POPC   D2A 9760  38.053  20.903   8.338
  403POPC   C3A 9761  37.776  20.821   7.999
  403POPC   C4A 9762  37.641  20.620   7.646
  403POPC   C1B 9763  37.456  20.908   8.669
  403POPC   C2B 9764  37.349  20.871   8.291
  403POPC   C3B 9765  37.286  21.014   7.923
  403POPC   C4B 9766  37.244  20.906   7.555
  404POPC   NC3 9767  38.257  37.228   9.545
  404POPC   PO4 9768  38.501  36.566   9.530
  404POPC   GL1 9769  38.413  36.818   9.203
  404POPC   GL2 9770  38.643  37.064   9.242
  404POPC   C1A 9771  38.406  36.775   8.769
  404POPC   D2A 9772  38.167  36.769   8.391
  404POPC   C3A 9773  38.400  36.804   7.982
  404POPC   C4A 9774  38.421  36.926   7.512
  404POPC   C1B 9775  38.724  37.172   8.813
  404POPC   C2B 9776  38.683  36.990   8.387
  404POPC   C3B 9777  38.782  37.141   7.969
  404POPC   C4B 9778  38.948  37.524   7.823
  405POPC   NC3 9779  36.486  32.449   9.349
  405POPC   PO4 9780  35.947  32.067   9.498
  405POPC   GL1 9781  36.193  32.100   9.113
  405POPC   GL2 9782  36.110  32.425   8.957
  405POPC   C1A 9783  36.455  32.127   8.720
  405POPC   D2A 9784  36.285  32.418   8.445
  405POPC   C3A 9785  36.380  32.333   8.038
  405POPC   C4A 9786  36.119  32.409   7.752
  405POPC   C1B 9787  35.959  32.086   8.648
  405POPC   C2B 9788  35.846  32.185   8.216
  405POPC   C3B 9789  35.844  31.969   7.816
  405POPC   C4B 9790  35.915  32.116   7.382
  406POPC   NC3 9791  20.847   2.087   9.902
  406POPC   PO4 9792  20.347   2.084   9.587
  406POPC   GL1 9793  20.488   1.926   9.211
  406POPC   GL2 9794  20.624   1.628   9.174
  406POPC   C1A 9795  20.447   1.879   8.772
  406POPC   D2A 9796  20.686   1.829   8.404
  406POPC   C3A 9797  20.559   1.967   8.002
  406POPC   C4A 9798  20.322   2.319   7.803
  406POPC   C1B 9799  20.891   1.559   8.806
  406POPC   C2B 9800  20.836   1.342   8.411
  406POPC   C3B 9801  20.822   1.476   7.993
  406POPC   C4B 9802  20.767   1.563   7.554
  407POPC   NC3 9803  20.736   9.710   9.502
  407POPC   PO4 9804  20.257   9.168   9.430
  407POPC   GL1 9805  20.310   9.519   9.132
  407POPC   GL2 9806  20.418   9.882   9.144
  407POPC   C1A 9807  20.567   9.587   8.760
  407POPC   D2A 9808  20.612   9.857   8.391
  407POPC   C3A 9809  20.755   9.583   8.050
  407POPC   C4A 9810  20.732   9.512   7.611
  407POPC   C1B 9811  20.227   9.978   8.757
  407POPC   C2B 9812  20.141  10.191   8.376
  407POPC   C3B 9813  20.132   9.945   8.035
  407POPC   C4B 9814  20.459   9.911   7.768
  408POPC   NC3 9815  37.207  42.664   9.460
  408POPC   PO4 9816  37.849  42.508   9.472
  408POPC   GL1 9817  37.671  42.467   9.076
  408POPC   GL2 9818  37.428  42.199   8.953
  408POPC   C1A 9819  37.916  42.417   8.718
  408POPC   D2A 9820  37.919  42.356   8.295
  408POPC   C3A 9821  37.667  42.032   8.101
  408POPC   C4A 9822  37.771  42.134   7.705
  408POPC   C1B 9823  37.229  42.610   8.818
  408POPC   C2B 9824  37.231  42.806   8.429
  408POPC   C3B 9825  37.438  42.514   8.168
  408POPC   C4B 9826  37.322  42.312   7.792
  409POPC   NC3 9827  24.785  19.629   9.243
  409POPC   PO4 9828  25.429  19.673   9.629
  409POPC   GL1 9829  25.250  19.930   9.248
  409POPC   GL2 9830  25.468  20.197   9.107
  409POPC   C1A 9831  25.089  19.993   8.795
  409POPC   D2A 9832  25.003  19.636   8.483
  409POPC   C3A 9833  25.087  19.676   8.040
  409POPC   C4A 9834  25.131  19.379   7.703
  409POPC   C1B 9835  25.594  19.863   8.812
  409POPC   C2B 9836  25.503  19.791   8.356
  409POPC   C3B 9837  25.605  19.540   7.982
  409POPC   C4B 9838  25.603  19.429   7.534
  410POPC   NC3 9839   4.580  39.370   9.344
  410POPC   PO4 9840   3.977  39.019   9.537
  410POPC   GL1 9841   4.049  39.202   9.137
  410POPC   GL2 9842   4.054  39.549   9.202
  410POPC   C1A 9843   4.116  39.046   8.698
  410POPC   D2A 9844   4.269  38.854   8.302
  410POPC   C3A 9845   4.333  39.076   7.952
  410POPC   C4A 9846   4.089  39.151   7.582
  410POPC   C1B 9847   4.144  39.589   8.750
  410POPC   C2B 9848   4.172  39.409   8.334
  410POPC   C3B 9849   4.178  39.553   7.920
  410POPC   C4B 9850   4.387  39.572   7.536
  411POPC   NC3 9851  30.614  41.330   9.656
  411POPC   PO4 9852  30.851  41.874   9.529
  411POPC   GL1 9853  30.695  41.587   9.226
  411POPC   GL2 9854  30.357  41.615   9.292
  411POPC   C1A 9855  30.739  41.320   8.852
  411POPC   D2A 9856  31.041  41.294   8.520
  411POPC   C3A 9857  30.852  41.314   8.103
  411POPC   C4A 9858  30.969  41.570   7.741
  411POPC   C1B 9859  30.223  41.419   8.893
  411POPC   C2B 9860  30.374  41.347   8.471
  411POPC   C3B 9861  30.362  41.572   8.069
  411POPC   C4B 9862  30.493  41.404   7.713
  412POPC   NC3 9863  15.554  10.826   9.452
  412POPC   PO4 9864  15.719  10.120   9.445
  412POPC   GL1 9865  15.879  10.297   9.090
  412POPC   GL2 9866  15.921  10.620   9.140
  412POPC   C1A 9867  15.959  10.402   8.683
  412POPC   D2A 9868  15.822  10.464   8.311
  412POPC   C3A 9869  15.949  10.244   7.967
  412POPC   C4A 9870  15.975  10.411   7.518
  412POPC   C1B 9871  16.138  10.852   8.867
  412POPC   C2B 9872  16.042  10.906   8.466
  412POPC   C3B 9873  15.942  10.889   8.051
  412POPC   C4B 9874  16.120  11.106   7.738
  413POPC   NC3 9875  12.034  12.912   9.608
  413POPC   PO4 9876  12.677  12.892   9.811
  413POPC   GL1 9877  12.428  12.742   9.356
  413POPC   GL2 9878  12.333  13.029   9.107
  413POPC   C1A 9879  12.156  12.599   8.953
  413POPC   D2A 9880  12.156  12.820   8.535
  413POPC   C3A 9881  12.190  12.638   8.117
  413POPC   C4A 9882  12.238  12.862   7.741
  413POPC   C1B 9883  11.915  13.114   8.897
  413POPC   C2B 9884  11.824  13.198   8.424
  413POPC   C3B 9885  11.793  12.969   8.014
  413POPC   C4B 9886  11.778  13.188   7.604
  414POPC   NC3 9887  22.273  42.433   9.483
  414POPC   PO4 9888  21.701  42.058   9.475
  414POPC   GL1 9889  21.961  42.300   9.097
  414POPC   GL2 9890  22.198  42.548   9.008
  414POPC   C1A 9891  21.862  42.500   8.664
  414POPC   D2A 9892  22.085  42.567   8.266
  414POPC   C3A 9893  21.881  42.457   7.870
  414POPC   C4A 9894  21.841  42.438   7.389
  414POPC   C1B 9895  22.422  42.403   8.667
  414POPC   C2B 9896  22.647  42.496   8.310
  414POPC   C3B 9897  22.481  42.581   7.920
  414POPC   C4B 9898  22.313  42.530   7.534
  415POPC   NC3 9899  12.422  21.406   9.549
  415POPC   PO4 9900  13.071  21.585   9.727
  415POPC   GL1 9901  12.885  21.579   9.297
  415POPC   GL2 9902  12.799  21.234   9.239
  415POPC   C1A 9903  13.017  21.550   8.829
  415POPC   D2A 9904  13.050  21.314   8.426
  415POPC   C3A 9905  13.208  21.397   8.023
  415POPC   C4A 9906  12.890  21.444   7.693
  415POPC   C1B 9907  12.704  21.076   8.819
  415POPC   C2B 9908  12.565  20.875   8.419
  415POPC   C3B 9909  12.361  21.054   8.044
  415POPC   C4B 9910  12.516  21.093   7.629
  416POPC   NC3 9911  22.685  35.924   9.437
  416POPC   PO4 9912  22.680  36.545   9.464
  416POPC   GL1 9913  22.736  36.290   9.115
  416POPC   GL2 9914  23.071  36.187   9.105
  416POPC   C1A 9915  22.761  36.151   8.704
  416POPC   D2A 9916  22.894  36.374   8.357
  416POPC   C3A 9917  22.782  36.041   8.088
  416POPC   C4A 9918  22.871  36.161   7.713
  416POPC   C1B 9919  23.301  35.964   8.800
  416POPC   C2B 9920  23.180  35.978   8.395
  416POPC   C3B 9921  23.280  35.942   7.943
  416POPC   C4B 9922  23.259  35.921   7.496
  417POPC   NC3 9923   2.097  36.733   9.963
  417POPC   PO4 9924   2.092  37.039   9.392
  417POPC   GL1 9925   1.971  37.211   9.099
  417POPC   GL2 9926   2.290  37.398   9.073
  417POPC   C1A 9927   1.755  37.086   8.751
  417POPC   D2A 9928   1.765  36.847   8.394
  417POPC   C3A 9929   1.722  37.063   8.039
  417POPC   C4A 9930   1.803  36.821   7.755
  417POPC   C1B 9931   2.285  37.111   8.744
  417POPC   C2B 9932   2.164  37.154   8.363
  417POPC   C3B 9933   2.199  36.860   8.091
  417POPC   C4B 9934   2.305  37.075   7.756
  418POPC   NC3 9935   2.649  41.936   9.571
  418POPC   PO4 9936   2.664  41.292   9.520
  418POPC   GL1 9937   2.726  41.598   9.174
  418POPC   GL2 9938   2.373  41.698   9.185
  418POPC   C1A 9939   2.820  41.696   8.718
  418POPC   D2A 9940   2.732  41.484   8.301
  418POPC   C3A 9941   2.820  41.741   7.915
  418POPC   C4A 9942   2.985  41.497   7.596
  418POPC   C1B 9943   2.348  41.485   8.793
  418POPC   C2B 9944   2.235  41.625   8.405
  418POPC   C3B 9945   2.245  41.412   8.068
  418POPC   C4B 9946   2.540  41.350   7.771
  419POPC   NC3 9947  11.628   2.852   9.888
  419POPC   PO4 9948  11.028   2.914   9.557
  419POPC   GL1 9949  11.343   2.833   9.243
  419POPC   GL2 9950  11.157   2.617   9.031
  419POPC   C1A 9951  11.537   2.849   8.807
  419POPC   D2A 9952  11.352   2.950   8.390
  419POPC   C3A 9953  11.596   2.890   8.040
  419POPC   C4A 9954  11.596   2.748   7.631
  419POPC   C1B 9955  10.956   2.772   8.665
  419POPC   C2B 9956  11.032   2.558   8.248
  419POPC   C3B 9957  11.134   2.721   7.836
  419POPC   C4B 9958  11.052   2.642   7.374
  420POPC   NC3 9959  27.439  18.154   9.797
  420POPC   PO4 9960  27.737  18.636   9.424
  420POPC   GL1 9961  27.742  18.361   9.137
  420POPC   GL2 9962  27.469  18.132   9.266
  420POPC   C1A 9963  27.829  18.454   8.708
  420POPC   D2A 9964  27.554  18.615   8.379
  420POPC   C3A 9965  27.700  18.608   7.960
  420POPC   C4A 9966  27.664  18.399   7.600
  420POPC   C1B 9967  27.599  17.986   8.854
  420POPC   C2B 9968  27.566  18.107   8.448
  420POPC   C3B 9969  27.476  18.152   8.031
  420POPC   C4B 9970  27.543  17.905   7.675
  421POPC   NC3 9971  17.483   0.283   9.583
  421POPC   PO4 9972  17.393   0.863   9.830
  421POPC   GL1 9973  17.603   0.581   9.225
  421POPC   GL2 9974  17.451   0.270   9.074
  421POPC   C1A 9975  17.679   0.664   8.777
  421POPC   D2A 9976  17.523   0.387   8.442
  421POPC   C3A 9977  17.623   0.457   7.992
  421POPC   C4A 9978  17.792   0.717   7.664
  421POPC   C1B 9979  17.188   0.012   8.796
  421POPC   C2B 9980  17.221  44.974   8.399
  421POPC   C3B 9981  17.152   0.246   8.084
  421POPC   C4B 9982  17.120   0.200   7.672
  422POPC   NC3 9983   0.395  10.221   9.705
  422POPC   PO4 9984   0.178  10.814   9.668
  422POPC   GL1 9985   0.322  10.735   9.227
  422POPC   GL2 9986   0.581  10.480   9.237
  422POPC   C1A 9987   0.262  10.563   8.795
  422POPC   D2A 9988   0.426  10.687   8.391
  422POPC   C3A 9989   0.652  10.518   8.086
  422POPC   C4A 9990   0.381  10.457   7.765
  422POPC   C1B 9991   0.683  10.283   8.839
  422POPC   C2B 9992   0.436  10.152   8.474
  422POPC   C3B 9993   0.446  10.023   8.044
  422POPC   C4B 9994   0.807  10.157   7.748
  423POPC   NC3 9995  19.243  22.633   9.344
  423POPC   PO4 9996  18.593  22.617   9.441
  423POPC   GL1 9997  18.857  22.890   9.145
  423POPC   GL2 9998  18.930  23.257   9.190
  423POPC   C1A 9999  19.079  22.962   8.758
  423POPC   D2A10000  18.964  23.127   8.358
  423POPC   C3A10001  19.022  22.896   7.980
  423POPC   C4A10002  19.309  22.563   7.824
  423POPC   C1B10003  18.985  23.460   8.795
  423POPC   C2B10004  18.796  23.603   8.400
  423POPC   C3B10005  18.842  23.409   7.942
  423POPC   C4B10006  18.748  23.090   7.572
  424POPC   NC310007  30.385  42.519   9.334
  424POPC   PO410008  30.997  42.756   9.501
  424POPC   GL110009  30.826  42.480   9.093
  424POPC   GL210010  30.633  42.127   9.140
  424POPC   C1A10011  30.770  42.266   8.652
  424POPC   D2A10012  30.412  42.246   8.320
  424POPC   C3A10013  30.480  42.416   7.870
  424POPC   C4A10014  30.737  42.370   7.482
  424POPC   C1B10015  30.534  41.829   8.817
  424POPC   C2B10016  30.678  41.768   8.408
  424POPC   C3B10017  30.736  41.969   8.029
  424POPC   C4B10018  30.574  41.917   7.659
  425POPC   NC310019  37.844  40.288   9.520
  425POPC   PO410020  37.755  39.640   9.247
  425POPC   GL110021  37.865  40.015   9.080
  425POPC   GL210022  38.151  40.065   9.166
  425POPC   C1A10023  37.916  40.151   8.670
  425POPC   D2A10024  37.674  39.893   8.401
  425POPC   C3A10025  37.649  40.028   8.015
  425POPC   C4A10026  37.366  40.252   7.756
  425POPC   C1B10027  38.299  39.825   8.810
  425POPC   C2B10028  38.200  39.777   8.388
  425POPC   C3B10029  38.060  39.603   8.013
  425POPC   C4B10030  37.862  39.672   7.640
  426POPC   NC310031  38.423  18.158   9.489
  426POPC   PO410032  38.549  18.808   9.542
  426POPC   GL110033  38.384  18.586   9.173
  426POPC   GL210034  38.667  18.390   9.097
  426POPC   C1A10035  38.220  18.495   8.748
  426POPC   D2A10036  38.428  18.472   8.323
  426POPC   C3A10037  38.418  18.102   8.079
  426POPC   C4A10038  38.275  18.102   7.656
  426POPC   C1B10039  38.659  18.191   8.709
  426POPC   C2B10040  38.877  18.066   8.366
  426POPC   C3B10041  38.894  18.348   8.082
  426POPC   C4B10042  38.747  18.298   7.707
  427POPC   NC310043  16.863   3.260   9.564
  427POPC   PO410044  16.479   3.893   9.606
  427POPC   GL110045  16.537   3.584   9.212
  427POPC   GL210046  16.852   3.391   9.077
  427POPC   C1A10047  16.454   3.624   8.745
  427POPC   D2A10048  16.444   3.638   8.284
  427POPC   C3A10049  16.340   3.737   7.878
  427POPC   C4A10050  16.333   3.440   7.595
  427POPC   C1B10051  16.873   3.309   8.634
  427POPC   C2B10052  16.937   3.567   8.265
  427POPC   C3B10053  16.830   3.560   7.838
  427POPC   C4B10054  17.062   3.175   7.796
  428POPC   NC310055  13.315  26.911   9.913
  428POPC   PO410056  12.974  26.642   9.509
  428POPC   GL110057  12.864  26.615   9.066
  428POPC   GL210058  12.830  26.946   8.958
  428POPC   C1A10059  12.724  26.561   8.641
  428POPC   D2A10060  12.972  26.416   8.324
  428POPC   C3A10061  12.864  26.622   7.972
  428POPC   C4A10062  12.731  26.904   7.681
  428POPC   C1B10063  13.126  27.103   8.729
  428POPC   C2B10064  13.101  26.916   8.333
  428POPC   C3B10065  13.196  27.016   7.959
  428POPC   C4B10066  13.047  27.309   7.688
  429POPC   NC310067   6.543   7.976   9.319
  429POPC   PO410068   6.762   8.581   9.506
  429POPC   GL110069   6.762   8.557   9.081
  429POPC   GL210070   7.055   8.434   9.011
  429POPC   C1A10071   6.622   8.453   8.660
  429POPC   D2A10072   6.664   8.125   8.341
  429POPC   C3A10073   6.610   8.248   7.933
  429POPC   C4A10074   6.447   7.992   7.678
  429POPC   C1B10075   7.008   8.127   8.714
  429POPC   C2B10076   7.071   8.449   8.377
  429POPC   C3B10077   6.961   8.617   7.936
  429POPC   C4B10078   6.839   8.428   7.493
  430POPC   NC310079  30.317   6.343   9.601
  430POPC   PO410080  29.558   6.379   9.612
  430POPC   GL110081  29.762   6.572   9.218
  430POPC   GL210082  30.116   6.652   9.211
  430POPC   C1A10083  29.860   6.661   8.769
  430POPC   D2A10084  30.010   6.397   8.431
  430POPC   C3A10085  29.964   6.669   8.084
  430POPC   C4A10086  29.867   6.656   7.649
  430POPC   C1B10087  30.349   6.922   8.906
  430POPC   C2B10088  30.130   7.078   8.554
  430POPC   C3B10089  30.189   7.235   8.151
  430POPC   C4B10090  30.264   6.987   7.774
  431POPC   NC310091  37.912  17.811   9.426
  431POPC   PO410092  37.448  17.385   9.536
  431POPC   GL110093  37.640  17.490   9.156
  431POPC   GL210094  37.354  17.668   9.066
  431POPC   C1A10095  37.708  17.342   8.737
  431POPC   D2A10096  37.529  17.528   8.332
  431POPC   C3A10097  37.642  17.407   7.900
  431POPC   C4A10098  37.603  17.355   7.442
  431POPC   C1B10099  37.648  17.830   8.755
  431POPC   C2B10100  37.819  17.967   8.371
  431POPC   C3B10101  37.962  17.836   7.995
  431POPC   C4B10102  37.919  17.728   7.583
  432POPC   NC310103  24.892  26.707   9.814
  432POPC   PO410104  24.313  26.594   9.458
  432POPC   GL110105  24.518  26.904   9.242
  432POPC   GL210106  24.828  26.730   9.265
  432POPC   C1A10107  24.476  27.022   8.818
  432POPC   D2A10108  24.620  27.075   8.395
  432POPC   C3A10109  24.345  26.952   8.077
  432POPC   C4A10110  24.270  26.778   7.652
  432POPC   C1B10111  24.666  26.558   8.856
  432POPC   C2B10112  24.779  26.558   8.444
  432POPC   C3B10113  24.839  26.742   8.034
  432POPC   C4B10114  24.744  26.607   7.615
  433POPC   NC310115  42.574   8.227   9.660
  433POPC   PO410116  41.966   8.162   9.507
  433POPC   GL110117  42.300   8.344   9.223
  433POPC   GL210118  42.035   8.452   9.042
  433POPC   C1A10119  42.610   8.381   8.830
  433POPC   D2A10120  42.703   7.980   8.558
  433POPC   C3A10121  42.670   7.965   8.082
  433POPC   C4A10122  42.331   7.926   7.761
  433POPC   C1B10123  42.163   8.169   8.737
  433POPC   C2B10124  42.365   8.328   8.363
  433POPC   C3B10125  42.366   8.410   7.941
  433POPC   C4B10126  42.172   8.332   7.500
  434POPC   NC310127  33.406  18.728   9.847
  434POPC   PO410128  33.818  19.222   9.532
  434POPC   GL110129  33.993  19.220   9.142
  434POPC   GL210130  34.277  19.003   9.198
  434POPC   C1A10131  33.747  19.227   8.756
  434POPC   D2A10132  33.901  19.172   8.352
  434POPC   C3A10133  33.791  19.356   7.977
  434POPC   C4A10134  33.931  19.350   7.544
  434POPC   C1B10135  34.164  18.904   8.754
  434POPC   C2B10136  34.039  18.694   8.382
  434POPC   C3B10137  33.891  18.812   7.983
  434POPC   C4B10138  33.783  18.822   7.571
  435POPC   NC310139   9.213  17.943   9.308
  435POPC   PO410140   8.633  17.552   9.463
  435POPC   GL110141   8.720  17.376   9.084
  435POPC   GL210142   9.096  17.337   9.127
  435POPC   C1A10143   8.835  17.527   8.703
  435POPC   D2A10144   8.749  17.458   8.284
  435POPC   C3A10145   8.937  17.606   7.920
  435POPC   C4A10146   9.066  17.506   7.479
  435POPC   C1B10147   9.224  17.197   8.729
  435POPC   C2B10148   9.192  17.157   8.299
  435POPC   C3B10149   9.284  17.210   7.864
  435POPC   C4B10150   9.206  16.904   7.524
  436POPC   NC310151  13.056   8.427   9.342
  436POPC   PO410152  13.322   7.790   9.494
  436POPC   GL110153  12.993   7.925   9.127
  436POPC   GL210154  12.694   8.192   9.087
  436POPC   C1A10155  12.908   7.972   8.668
  436POPC   D2A10156  12.956   8.268   8.316
  436POPC   C3A10157  13.111   8.225   7.882
  436POPC   C4A10158  12.901   8.371   7.558
  436POPC   C1B10159  12.521   8.322   8.701
  436POPC   C2B10160  12.463   8.043   8.346
  436POPC   C3B10161  12.600   8.141   7.938
  436POPC   C4B10162  12.440   8.513   7.714
  437POPC   NC310163  11.368  16.916   9.609
  437POPC   PO410164  11.402  16.238   9.463
  437POPC   GL110165  11.400  16.613   9.181
  437POPC   GL210166  11.044  16.747   9.200
  437POPC   C1A10167  11.596  16.722   8.766
  437POPC   D2A10168  11.494  16.936   8.372
  437POPC   C3A10169  11.294  16.834   7.989
  437POPC   C4A10170  11.351  16.615   7.610
  437POPC   C1B10171  11.082  16.912   8.762
  437POPC   C2B10172  10.907  17.084   8.361
  437POPC   C3B10173  10.954  17.223   7.923
  437POPC   C4B10174  11.110  17.059   7.492
  438POPC   NC310175  42.277  33.864   9.631
  438POPC   PO410176  42.613  33.353   9.393
  438POPC   GL110177  42.323  33.642   9.163
  438POPC   GL210178  42.534  33.940   9.096
  438POPC   C1A10179  42.042  33.892   8.878
  438POPC   D2A10180  41.889  34.082   8.473
  438POPC   C3A10181  41.964  33.908   8.036
  438POPC   C4A10182  42.199  33.621   7.731
  438POPC   C1B10183  42.483  33.696   8.677
  438POPC   C2B10184  42.405  33.687   8.222
  438POPC   C3B10185  42.614  33.880   7.848
  438POPC   C4B10186  42.588  33.759   7.409
  439POPC   NC310187  17.557   2.967   9.461
  439POPC   PO410188  16.996   2.820   9.646
  439POPC   GL110189  17.140   2.783   9.223
  439POPC   GL210190  17.415   2.527   9.177
  439POPC   C1A10191  17.334   2.980   8.844
  439POPC   D2A10192  17.575   2.963   8.477
  439POPC   C3A10193  17.294   2.861   8.148
  439POPC   C4A10194  17.260   2.705   7.743
  439POPC   C1B10195  17.759   2.635   8.848
  439POPC   C2B10196  17.921   2.585   8.411
  439POPC   C3B10197  17.777   2.734   8.016
  439POPC   C4B10198  17.689   2.985   7.692
  440POPC   NC310199  21.931  28.228   9.708
  440POPC   PO410200  22.599  28.145   9.422
  440POPC   GL110201  22.209  28.299   9.218
  440POPC   GL210202  21.893  28.191   9.211
  440POPC   C1A10203  22.119  28.401   8.787
  440POPC   D2A10204  22.415  28.302   8.453
  440POPC   C3A10205  22.239  28.274   8.046
  440POPC   C4A10206  22.355  28.465   7.658
  440POPC   C1B10207  21.641  28.167   8.878
  440POPC   C2B10208  21.617  28.242   8.459
  440POPC   C3B10209  21.746  28.053   8.086
  440POPC   C4B10210  21.969  27.913   7.721
  441POPC   NC310211  38.790  29.424   9.332
  441POPC   PO410212  39.161  29.934   9.604
  441POPC   GL110213  39.273  30.042   9.172
  441POPC   GL210214  39.408  29.731   9.094
  441POPC   C1A10215  39.132  30.091   8.771
  441POPC   D2A10216  38.947  30.231   8.400
  441POPC   C3A10217  39.063  29.991   8.030
  441POPC   C4A10218  39.198  30.071   7.611
  441POPC   C1B10219  39.582  29.789   8.724
  441POPC   C2B10220  39.308  29.708   8.410
  441POPC   C3B10221  39.379  29.542   8.032
  441POPC   C4B10222  39.529  29.705   7.647
  442POPC   NC310223   6.291  27.405   9.561
  442POPC   PO410224   5.761  27.598   9.600
  442POPC   GL110225   5.923  27.634   9.173
  442POPC   GL210226   5.957  27.285   9.151
  442POPC   C1A10227   5.939  27.846   8.748
  442POPC   D2A10228   5.645  27.824   8.393
  442POPC   C3A10229   5.765  27.864   7.948
  442POPC   C4A10230   5.502  28.099   7.650
  442POPC   C1B10231   5.957  27.338   8.690
  442POPC   C2B10232   6.043  27.521   8.259
  442POPC   C3B10233   6.039  27.436   7.789
  442POPC   C4B10234   6.028  27.312   7.326
  443POPC   NC310235  44.370  38.081   9.572
  443POPC   PO410236  43.867  37.572   9.788
  443POPC   GL110237  44.023  37.754   9.364
  443POPC   GL210238  43.976  37.450   9.193
  443POPC   C1A10239  44.140  37.915   8.918
  443POPC   D2A10240  44.309  37.943   8.461
  443POPC   C3A10241  44.041  37.836   8.092
  443POPC   C4A10242  43.754  37.969   7.758
  443POPC   C1B10243  43.925  37.401   8.753
  443POPC   C2B10244  44.036  37.319   8.324
  443POPC   C3B10245  43.919  37.365   7.881
  443POPC   C4B10246  44.076  37.620   7.543
  444POPC   NC310247  37.334  37.171   9.297
  444POPC   PO410248  37.939  36.898   9.423
  444POPC   GL110249  37.675  36.708   9.116
  444POPC   GL210250  37.327  36.557   9.162
  444POPC   C1A10251  37.743  36.837   8.712
  444POPC   D2A10252  37.603  36.692   8.355
  444POPC   C3A10253  37.854  36.782   7.991
  444POPC   C4A10254  38.069  37.153   7.839
  444POPC   C1B10255  37.225  36.734   8.762
  444POPC   C2B10256  37.086  36.694   8.341
  444POPC   C3B10257  37.319  36.750   7.939
  444POPC   C4B10258  37.556  37.134   7.773
  445POPC   NC310259   8.353   7.885   9.502
  445POPC   PO410260   8.339   8.465   9.328
  445POPC   GL110261   8.101   8.161   9.121
  445POPC   GL210262   8.317   8.254   8.837
  445POPC   C1A10263   7.884   8.045   8.735
  445POPC   D2A10264   8.127   8.075   8.328
  445POPC   C3A10265   8.169   8.252   7.910
  445POPC   C4A10266   7.784   8.276   7.766
  445POPC   C1B10267   8.535   7.946   8.579
  445POPC   C2B10268   8.470   7.689   8.220
  445POPC   C3B10269   8.476   7.836   7.796
  445POPC   C4B10270   8.512   8.209   7.529
  446POPC   NC310271  39.445  33.259   9.768
  446POPC   PO410272  39.435  34.020   9.566
  446POPC   GL110273  39.447  34.061   9.132
  446POPC   GL210274  39.260  33.749   9.117
  446POPC   C1A10275  39.204  34.060   8.715
  446POPC   D2A10276  38.925  33.879   8.385
  446POPC   C3A10277  39.120  33.906   7.991
  446POPC   C4A10278  39.420  34.224   7.828
  446POPC   C1B10279  38.919  33.608   8.833
  446POPC   C2B10280  38.952  33.355   8.466
  446POPC   C3B10281  38.984  33.352   8.040
  446POPC   C4B10282  39.160  33.448   7.651
  447POPC   NC310283  34.352  17.679   9.315
  447POPC   PO410284  34.853  17.307   9.648
  447POPC   GL110285  34.551  17.117   9.158
  447POPC   GL210286  34.347  17.383   8.917
  447POPC   C1A10287  34.691  17.158   8.640
  447POPC   D2A10288  34.871  17.310   8.225
  447POPC   C3A10289  34.637  17.272   7.829
  447POPC   C4A10290  34.337  17.484   7.559
  447POPC   C1B10291  34.469  17.824   8.696
  447POPC   C2B10292  34.839  17.935   8.419
  447POPC   C3B10293  34.886  17.799   7.999
  447POPC   C4B10294  34.703  17.821   7.613
  448POPC   NC310295   6.947  31.729   9.490
  448POPC   PO410296   7.568  31.452   9.317
  448POPC   GL110297   7.370  31.554   8.981
  448POPC   GL210298   7.057  31.616   8.999
  448POPC   C1A10299   7.436  31.685   8.575
  448POPC   D2A10300   7.774  31.592   8.303
  448POPC   C3A10301   7.681  31.544   7.853
  448POPC   C4A10302   7.787  31.487   7.392
  448POPC   C1B10303   7.136  31.264   8.672
  448POPC   C2B10304   7.260  31.300   8.254
  448POPC   C3B10305   7.179  31.329   7.835
  448POPC   C4B10306   7.285  31.432   7.433
  449POPC   NC310307  33.961  30.145   9.284
  449POPC   PO410308  34.391  29.688   9.611
  449POPC   GL110309  34.632  29.777   9.229
  449POPC   GL210310  34.968  29.591   9.168
  449POPC   C1A10311  34.445  29.953   8.843
  449POPC   D2A10312  34.160  29.968   8.512
  449POPC   C3A10313  34.277  30.133   8.112
  449POPC   C4A10314  34.376  29.908   7.778
  449POPC   C1B10315  34.911  29.796   8.746
  449POPC   C2B10316  34.714  29.885   8.324
  449POPC   C3B10317  34.834  29.737   7.889
  449POPC   C4B10318  35.022  29.704   7.442
  450POPC   NC310319  17.016   8.249   9.553
  450POPC   PO410320  16.434   7.949   9.721
  450POPC   GL110321  16.593   8.119   9.284
  450POPC   GL210322  16.680   8.436   9.186
  450POPC   C1A10323  16.801   8.060   8.851
  450POPC   D2A10324  16.787   8.296   8.484
  450POPC   C3A10325  16.649   8.156   8.111
  450POPC   C4A10326  16.552   8.007   7.722
  450POPC   C1B10327  17.091   8.488   8.949
  450POPC   C2B10328  17.183   8.592   8.521
  450POPC   C3B10329  17.131   8.412   8.104
  450POPC   C4B10330  17.057   8.164   7.744
  451POPC   NC310331  11.804   3.083   9.365
  451POPC   PO410332  11.730   2.482   9.634
  451POPC   GL110333  11.810   2.585   9.195
  451POPC   GL210334  12.147   2.725   9.189
  451POPC   C1A10335  11.997   2.535   8.763
  451POPC   D2A10336  12.241   2.639   8.380
  451POPC   C3A10337  11.995   2.554   8.002
  451POPC   C4A10338  12.118   2.682   7.599
  451POPC   C1B10339  12.208   3.003   8.814
  451POPC   C2B10340  11.911   2.990   8.490
  451POPC   C3B10341  12.064   3.048   8.094
  451POPC   C4B10342  11.970   3.144   7.717
  452POPC   NC310343  10.943  44.024   9.453
  452POPC   PO410344  11.513  44.102   9.738
  452POPC   GL110345  11.437  43.730   9.320
  452POPC   GL210346  11.061  43.678   9.117
  452POPC   C1A10347  11.448  43.637   8.819
  452POPC   D2A10348  11.529  43.953   8.470
  452POPC   C3A10349  11.307  43.875   8.123
  452POPC   C4A10350  11.370  43.717   7.699
  452POPC   C1B10351  11.030  43.821   8.647
  452POPC   C2B10352  10.892  43.628   8.266
  452POPC   C3B10353  10.895  43.773   7.837
  452POPC   C4B10354  10.950  43.963   7.427
  453POPC   NC310355  42.218  29.512   9.311
  453POPC   PO410356  42.090  30.169   9.569
  453POPC   GL110357  42.214  29.980   9.127
  453POPC   GL210358  42.576  29.889   9.061
  453POPC   C1A10359  42.082  29.966   8.679
  453POPC   D2A10360  42.115  30.272   8.341
  453POPC   C3A10361  42.327  30.100   7.962
  453POPC   C4A10362  42.146  29.766   7.706
  453POPC   C1B10363  42.496  30.221   8.718
  453POPC   C2B10364  42.578  30.022   8.392
  453POPC   C3B10365  42.589  29.683   8.101
  453POPC   C4B10366  42.675  29.793   7.692
  454POPC   NC310367  26.168  22.439   9.314
  454POPC   PO410368  26.403  23.041   9.447
  454POPC   GL110369  26.284  22.874   9.076
  454POPC   GL210370  25.912  22.942   9.105
  454POPC   C1A10371  26.145  22.823   8.656
  454POPC   D2A10372  25.936  22.882   8.286
  454POPC   C3A10373  26.215  22.864   7.952
  454POPC   C4A10374  26.313  22.504   7.754
  454POPC   C1B10375  25.778  23.265   8.767
  454POPC   C2B10376  25.792  23.381   8.284
  454POPC   C3B10377  25.805  23.154   7.867
  454POPC   C4B10378  25.758  22.667   7.811
  455POPC   NC310379   2.419  17.766   9.417
  455POPC   PO410380   1.786  17.630   9.453
  455POPC   GL110381   2.020  17.515   9.143
  455POPC   GL210382   2.104  17.190   9.225
  455POPC   C1A10383   1.931  17.341   8.745
  455POPC   D2A10384   2.148  17.234   8.369
  455POPC   C3A10385   1.969  17.435   8.023
  455POPC   C4A10386   1.610  17.372   7.789
  455POPC   C1B10387   2.421  17.299   8.890
  455POPC   C2B10388   2.404  17.620   8.576
  455POPC   C3B10389   2.457  17.604   8.140
  455POPC   C4B10390   2.280  17.720   7.729
  456POPC   NC310391  34.456  15.446   9.432
  456POPC   PO410392  35.041  15.573   9.408
  456POPC   GL110393  34.790  15.363   9.053
  456POPC   GL210394  34.530  15.107   9.075
  456POPC   C1A10395  34.676  15.295   8.629
  456POPC   D2A10396  34.915  15.204   8.277
  456POPC   C3A10397  34.970  15.436   7.905
  456POPC   C4A10398  34.754  15.327   7.513
  456POPC   C1B10399  34.345  14.912   8.724
  456POPC   C2B10400  34.480  14.930   8.290
  456POPC   C3B10401  34.485  15.195   7.932
  456POPC   C4B10402  34.357  15.025   7.541
  457POPC   NC310403  38.247  42.329   9.616
  457POPC   PO410404  38.868  42.159   9.494
  457POPC   GL110405  38.547  42.373   9.205
  457POPC   GL210406  38.186  42.221   9.134
  457POPC   C1A10407  38.420  42.574   8.806
  457POPC   D2A10408  38.505  42.758   8.398
  457POPC   C3A10409  38.316  42.578   8.043
  457POPC   C4A10410  38.658  42.313   7.911
  457POPC   C1B10411  38.430  42.069   8.782
  457POPC   C2B10412  38.408  42.177   8.352
  457POPC   C3B10413  38.209  42.071   7.954
  457POPC   C4B10414  38.161  41.844   7.560
  458POPC   NC310415   4.510  41.959   9.403
  458POPC   PO410416   4.066  42.494   9.350
  458POPC   GL110417   4.203  42.155   9.050
  458POPC   GL210418   4.511  42.327   9.003
  458POPC   C1A10419   4.384  42.049   8.620
  458POPC   D2A10420   4.397  42.392   8.453
  458POPC   C3A10421   4.391  42.397   8.032
  458POPC   C4A10422   4.292  42.191   7.684
  458POPC   C1B10423   4.783  42.611   8.717
  458POPC   C2B10424   4.740  42.749   8.313
  458POPC   C3B10425   4.813  42.668   7.900
  458POPC   C4B10426   4.656  42.525   7.513
  459POPC   NC310427  32.976  24.146   9.613
  459POPC   PO410428  33.606  24.415   9.595
  459POPC   GL110429  33.360  24.317   9.232
  459POPC   GL210430  33.122  24.555   9.298
  459POPC   C1A10431  33.363  24.372   8.755
  459POPC   D2A10432  33.304  24.595   8.334
  459POPC   C3A10433  33.316  24.349   7.933
  459POPC   C4A10434  33.239  24.102   7.527
  459POPC   C1B10435  32.903  24.371   8.965
  459POPC   C2B10436  32.881  24.376   8.496
  459POPC   C3B10437  32.836  24.481   8.073
  459POPC   C4B10438  32.836  24.372   7.655
  460POPC   NC310439  40.352  21.806   9.659
  460POPC   PO410440  40.864  21.352   9.598
  460POPC   GL110441  40.861  21.417   9.127
  460POPC   GL210442  40.600  21.582   9.008
  460POPC   C1A10443  40.916  21.372   8.676
  460POPC   D2A10444  41.236  21.466   8.371
  460POPC   C3A10445  41.069  21.497   7.984
  460POPC   C4A10446  40.758  21.227   7.865
  460POPC   C1B10447  40.401  21.462   8.656
  460POPC   C2B10448  40.388  21.275   8.298
  460POPC   C3B10449  40.318  21.528   7.958
  460POPC   C4B10450  40.589  21.807   7.738
  461POPC   NC310451   1.690   2.828   9.496
  461POPC   PO410452   2.231   2.729   9.435
  461POPC   GL110453   1.986   2.806   9.062
  461POPC   GL210454   1.776   3.105   9.056
  461POPC   C1A10455   1.884   2.555   8.691
  461POPC   D2A10456   1.946   2.337   8.279
  461POPC   C3A10457   2.165   2.572   7.946
  461POPC   C4A10458   2.056   2.588   7.528
  461POPC   C1B10459   1.978   3.078   8.630
  461POPC   C2B10460   1.868   2.840   8.257
  461POPC   C3B10461   1.813   2.935   7.817
  461POPC   C4B10462   2.046   3.272   7.601
  462POPC   NC310463  12.914  13.263   9.928
  462POPC   PO410464  13.084  12.836   9.414
  462POPC   GL110465  12.857  12.805   9.092
  462POPC   GL210466  13.087  12.840   8.889
  462POPC   C1A10467  12.606  12.743   8.767
  462POPC   D2A10468  12.637  12.600   8.369
  462POPC   C3A10469  12.894  12.833   8.084
  462POPC   C4A10470  12.752  12.862   7.640
  462POPC   C1B10471  13.295  13.144   8.708
  462POPC   C2B10472  13.104  13.248   8.347
  462POPC   C3B10473  13.150  13.272   7.934
  462POPC   C4B10474  13.204  13.119   7.524
  463POPC   NC310475  22.992  15.015   9.511
  463POPC   PO410476  22.419  15.396   9.500
  463POPC   GL110477  22.649  15.115   9.132
  463POPC   GL210478  23.032  15.130   9.033
  463POPC   C1A10479  22.703  15.190   8.658
  463POPC   D2A10480  22.884  15.362   8.288
  463POPC   C3A10481  22.944  15.106   7.948
  463POPC   C4A10482  22.704  15.045   7.607
  463POPC   C1B10483  23.233  15.201   8.654
  463POPC   C2B10484  23.370  15.175   8.248
  463POPC   C3B10485  23.298  15.480   7.934
  463POPC   C4B10486  23.139  15.314   7.535
  464POPC   NC310487  21.947  18.982   9.477
  464POPC   PO410488  22.569  19.182   9.586
  464POPC   GL110489  22.306  19.242   9.194
  464POPC   GL210490  22.192  18.925   9.046
  464POPC   C1A10491  22.117  19.315   8.751
  464POPC   D2A10492  22.227  19.033   8.403
  464POPC   C3A10493  22.351  19.207   8.007
  464POPC   C4A10494  22.068  19.299   7.663
  464POPC   C1B10495  21.846  18.843   8.746
  464POPC   C2B10496  21.734  18.983   8.328
  464POPC   C3B10497  21.896  18.851   7.924
  464POPC   C4B10498  21.808  18.854   7.479
  465POPC   NC310499  41.549  23.512   9.718
  465POPC   PO410500  41.567  24.088   9.567
  465POPC   GL110501  41.507  23.759   9.200
  465POPC   GL210502  41.603  23.405   9.229
  465POPC   C1A10503  41.547  23.811   8.735
  465POPC   D2A10504  41.510  24.087   8.365
  465POPC   C3A10505  41.259  23.878   8.046
  465POPC   C4A10506  41.420  23.653   7.676
  465POPC   C1B10507  41.884  23.473   8.919
  465POPC   C2B10508  41.812  23.374   8.477
  465POPC   C3B10509  41.738  23.625   8.113
  465POPC   C4B10510  41.976  23.658   7.742
  466POPC   NC310511  20.923  26.761   9.483
  466POPC   PO410512  20.416  26.398   9.537
  466POPC   GL110513  20.518  26.745   9.180
  466POPC   GL210514  20.534  27.118   9.289
  466POPC   C1A10515  20.807  26.743   8.794
  466POPC   D2A10516  20.636  26.706   8.377
  466POPC   C3A10517  20.809  26.723   7.962
  466POPC   C4A10518  20.870  27.024   7.639
  466POPC   C1B10519  20.631  27.213   8.859
  466POPC   C2B10520  20.824  27.213   8.451
  466POPC   C3B10521  20.618  27.191   8.051
  466POPC   C4B10522  20.315  27.229   7.726
  467POPC   NC310523  10.321   2.083   9.323
  467POPC   PO410524   9.673   2.164   9.573
  467POPC   GL110525   9.829   1.930   9.216
  467POPC   GL210526   9.648   1.659   9.091
  467POPC   C1A10527   9.912   2.000   8.764
  467POPC   D2A10528  10.115   2.280   8.441
  467POPC   C3A10529  10.090   2.139   8.007
  467POPC   C4A10530   9.967   2.139   7.552
  467POPC   C1B10531   9.664   1.557   8.635
  467POPC   C2B10532   9.644   1.751   8.246
  467POPC   C3B10533   9.602   1.989   7.897
  467POPC   C4B10534   9.602   1.814   7.469
  468POPC   NC310535  23.829  33.883   9.633
  468POPC   PO410536  23.195  33.904   9.491
  468POPC   GL110537  23.481  33.834   9.166
  468POPC   GL210538  23.857  33.944   9.144
  468POPC   C1A10539  23.458  33.897   8.745
  468POPC   D2A10540  23.358  34.127   8.368
  468POPC   C3A10541  23.346  33.816   8.064
  468POPC   C4A10542  23.482  33.806   7.650
  468POPC   C1B10543  23.976  33.828   8.735
  468POPC   C2B10544  23.827  33.950   8.370
  468POPC   C3B10545  23.875  33.883   7.984
  468POPC   C4B10546  24.000  33.771   7.633
  469POPC   NC310547  18.473   4.036   9.463
  469POPC   PO410548  18.398   4.633   9.661
  469POPC   GL110549  18.238   4.428   9.245
  469POPC   GL210550  17.860   4.419   9.160
  469POPC   C1A10551  18.310   4.509   8.835
  469POPC   D2A10552  18.525   4.638   8.476
  469POPC   C3A10553  18.321   4.486   8.102
  469POPC   C4A10554  18.366   4.329   7.682
  469POPC   C1B10555  17.968   4.130   8.821
  469POPC   C2B10556  18.081   4.144   8.396
  469POPC   C3B10557  18.037   4.025   7.955
  469POPC   C4B10558  17.891   4.202   7.550
  470POPC   NC310559  31.166  33.080   9.502
  470POPC   PO410560  30.515  32.931   9.551
  470POPC   GL110561  30.619  32.748   9.149
  470POPC   GL210562  30.948  32.828   9.110
  470POPC   C1A10563  30.685  32.733   8.677
  470POPC   D2A10564  30.698  32.898   8.241
  470POPC   C3A10565  30.399  33.070   7.914
  470POPC   C4A10566  30.350  32.923   7.462
  470POPC   C1B10567  31.123  33.092   8.788
  470POPC   C2B10568  30.995  33.311   8.401
  470POPC   C3B10569  31.067  33.145   7.995
  470POPC   C4B10570  30.794  33.196   7.616
  471POPC   NC310571  33.818  28.117   9.611
  471POPC   PO410572  33.981  28.790   9.455
  471POPC   GL110573  33.839  28.453   9.198
  471POPC   GL210574  33.478  28.347   9.291
  471POPC   C1A10575  33.911  28.481   8.765
  471POPC   D2A10576  33.879  28.207   8.417
  471POPC   C3A10577  34.121  28.238   8.062
  471POPC   C4A10578  33.988  28.424   7.745
  471POPC   C1B10579  33.402  28.404   8.862
  471POPC   C2B10580  33.501  28.596   8.463
  471POPC   C3B10581  33.552  28.436   8.038
  471POPC   C4B10582  33.454  28.670   7.664
  472POPC   NC310583   7.899   8.508   9.464
  472POPC   PO410584   7.927   9.238   9.459
  472POPC   GL110585   7.965   9.014   9.036
  472POPC   GL210586   8.004   8.671   9.008
  472POPC   C1A10587   8.151   8.987   8.611
  472POPC   D2A10588   8.428   9.211   8.325
  472POPC   C3A10589   8.375   9.155   7.878
  472POPC   C4A10590   8.268   9.192   7.452
  472POPC   C1B10591   7.898   8.545   8.642
  472POPC   C2B10592   7.989   8.574   8.251
  472POPC   C3B10593   7.996   8.738   7.857
  472POPC   C4B10594   8.309   8.689   7.632
  473POPC   NC310595  24.176  44.336   9.898
  473POPC   PO410596  24.504  44.778   9.501
  473POPC   GL110597  24.609  44.718   9.053
  473POPC   GL210598  24.485  44.404   9.004
  473POPC   C1A10599  24.697  44.662   8.597
  473POPC   D2A10600  24.423  44.623   8.236
  473POPC   C3A10601  24.638  44.740   7.845
  473POPC   C4A10602  24.659  44.886   7.416
  473POPC   C1B10603  24.147  44.268   8.732
  473POPC   C2B10604  23.963  44.350   8.373
  473POPC   C3B10605  24.071  44.160   8.026
  473POPC   C4B10606  24.374  44.319   7.805
  474POPC   NC310607  11.784  12.162   9.563
  474POPC   PO410608  11.120  11.904   9.593
  474POPC   GL110609  11.187  11.792   9.164
  474POPC   GL210610  10.939  11.488   9.148
  474POPC   C1A10611  11.374  12.057   8.823
  474POPC   D2A10612  11.284  12.352   8.452
  474POPC   C3A10613  11.584  12.434   8.098
  474POPC   C4A10614  11.419  12.301   7.706
  474POPC   C1B10615  11.037  11.568   8.745
  474POPC   C2B10616  11.148  11.840   8.429
  474POPC   C3B10617  11.366  11.948   8.096
  474POPC   C4B10618  11.301  11.791   7.688
  475POPC   NC310619  28.168  32.770   9.502
  475POPC   PO410620  28.063  33.472   9.486
  475POPC   GL110621  28.396  33.271   9.182
  475POPC   GL210622  28.368  32.936   9.056
  475POPC   C1A10623  28.599  33.278   8.735
  475POPC   D2A10624  28.507  33.511   8.318
  475POPC   C3A10625  28.366  33.326   7.920
  475POPC   C4A10626  28.566  33.285   7.520
  475POPC   C1B10627  28.108  33.195   8.748
  475POPC   C2B10628  28.197  33.077   8.351
  475POPC   C3B10629  28.489  32.874   8.076
  475POPC   C4B10630  28.308  32.863   7.680
  476POPC   NC310631  35.914  41.608   9.359
  476POPC   PO410632  36.548  41.555   9.679
  476POPC   GL110633  36.390  41.487   9.231
  476POPC   GL210634  36.219  41.800   9.046
  476POPC   C1A10635  36.313  41.394   8.790
  476POPC   D2A10636  36.419  41.391   8.372
  476POPC   C3A10637  36.143  41.417   8.022
  476POPC   C4A10638  36.441  41.362   7.712
  476POPC   C1B10639  36.006  41.893   8.685
  476POPC   C2B10640  35.819  41.724   8.333
  476POPC   C3B10641  36.031  41.917   8.012
  476POPC   C4B10642  36.197  41.789   7.605
  477POPC   NC310643  15.432  14.127   9.773
  477POPC   PO410644  14.895  13.875   9.512
  477POPC   GL110645  15.023  14.014   9.118
  477POPC   GL210646  14.770  14.164   8.947
  477POPC   C1A10647  15.034  13.770   8.715
  477POPC   D2A10648  15.194  13.510   8.358
  477POPC   C3A10649  15.325  13.638   7.937
  477POPC   C4A10650  15.116  13.616   7.538
  477POPC   C1B10651  14.765  14.172   8.492
  477POPC   C2B10652  15.067  14.057   8.153
  477POPC   C3B10653  15.204  14.092   7.696
  477POPC   C4B10654  15.226  14.013   7.232
  478POPC   NC310655  14.594  13.520   9.556
  478POPC   PO410656  14.337  14.052   9.734
  478POPC   GL110657  14.424  13.925   9.240
  478POPC   GL210658  14.653  13.650   9.079
  478POPC   C1A10659  14.211  13.772   8.804
  478POPC   D2A10660  14.059  13.506   8.434
  478POPC   C3A10661  14.320  13.487   8.064
  478POPC   C4A10662  14.398  13.801   7.759
  478POPC   C1B10663  14.545  13.416   8.704
  478POPC   C2B10664  14.662  13.676   8.383
  478POPC   C3B10665  14.823  13.643   7.999
  478POPC   C4B10666  14.697  13.402   7.700
  479POPC   NC310667  40.326   8.205   9.760
  479POPC   PO410668  39.721   8.379   9.538
  479POPC   GL110669  39.841   8.071   9.237
  479POPC   GL210670  40.134   8.244   9.179
  479POPC   C1A10671  39.858   7.921   8.796
  479POPC   D2A10672  39.792   8.159   8.395
  479POPC   C3A10673  39.942   8.074   7.967
  479POPC   C4A10674  39.745   7.971   7.592
  479POPC   C1B10675  40.286   8.181   8.745
  479POPC   C2B10676  40.322   8.289   8.304
  479POPC   C3B10677  40.455   8.075   7.904
  479POPC   C4B10678  40.390   8.233   7.472
  480POPC   NC310679  15.249  10.130   9.372
  480POPC   PO410680  15.071  10.766   9.406
  480POPC   GL110681  15.145  10.519   9.056
  480POPC   GL210682  15.434  10.514   9.055
  480POPC   C1A10683  14.951  10.313   8.700
  480POPC   D2A10684  14.655  10.209   8.354
  480POPC   C3A10685  14.906  10.122   7.991
  480POPC   C4A10686  15.076  10.493   7.785
  480POPC   C1B10687  15.460  10.286   8.671
  480POPC   C2B10688  15.348  10.332   8.210
  480POPC   C3B10689  15.573  10.554   7.859
  480POPC   C4B10690  15.535  10.613   7.402
  481POPC   NC310691  39.525  25.991   9.509
  481POPC   PO410692  39.066  26.482   9.603
  481POPC   GL110693  39.116  26.235   9.221
  481POPC   GL210694  38.957  25.923   9.239
  481POPC   C1A10695  39.341  26.048   8.853
  481POPC   D2A10696  39.344  25.857   8.430
  481POPC   C3A10697  39.553  25.888   8.021
  481POPC   C4A10698  39.404  26.107   7.650
  481POPC   C1B10699  38.904  25.813   8.780
  481POPC   C2B10700  38.852  25.756   8.314
  481POPC   C3B10701  39.019  25.908   7.926
  481POPC   C4B10702  38.833  25.934   7.523
  482POPC   NC310703  29.872  38.379   9.532
  482POPC   PO410704  29.825  39.055   9.535
  482POPC   GL110705  29.872  38.717   9.147
  482POPC   GL210706  29.684  38.363   9.086
  482POPC   C1A10707  29.918  38.531   8.696
  482POPC   D2A10708  29.840  38.615   8.302
  482POPC   C3A10709  30.037  38.761   7.979
  482POPC   C4A10710  29.857  38.595   7.671
  482POPC   C1B10711  29.793  38.028   8.786
  482POPC   C2B10712  29.983  38.103   8.395
  482POPC   C3B10713  30.121  38.226   8.025
  482POPC   C4B10714  29.967  38.106   7.662
  483POPC   NC310715  18.319  24.780   9.461
  483POPC   PO410716  18.041  24.181   9.513
  483POPC   GL110717  18.286  24.370   9.185
  483POPC   GL210718  18.653  24.396   9.255
  483POPC   C1A10719  18.197  24.577   8.808
  483POPC   D2A10720  17.979  24.273   8.566
  483POPC   C3A10721  17.909  24.296   8.130
  483POPC   C4A10722  17.881  24.492   7.739
  483POPC   C1B10723  18.665  24.396   8.825
  483POPC   C2B10724  18.540  24.515   8.430
  483POPC   C3B10725  18.563  24.813   8.154
  483POPC   C4B10726  18.385  24.637   7.797
  484POPC   NC310727  43.244  25.761   9.528
  484POPC   PO410728  43.898  25.924   9.624
  484POPC   GL110729  44.031  25.948   9.188
  484POPC   GL210730  44.039  26.297   9.103
  484POPC   C1A10731  43.875  25.978   8.732
  484POPC   D2A10732  43.634  26.054   8.335
  484POPC   C3A10733  43.787  25.864   7.961
  484POPC   C4A10734  43.678  25.838   7.526
  484POPC   C1B10735  44.324  26.320   8.737
  484POPC   C2B10736  44.149  26.214   8.350
  484POPC   C3B10737  43.988  26.329   7.954
  484POPC   C4B10738  43.897  26.327   7.498
  485POPC   NC310739  28.941   7.065   9.387
  485POPC   PO410740  29.429   7.408   9.625
  485POPC   GL110741  29.390   7.363   9.185
  485POPC   GL210742  29.636   7.604   9.100
  485POPC   C1A10743  29.152   7.253   8.788
  485POPC   D2A10744  29.286   7.402   8.405
  485POPC   C3A10745  29.269   7.201   8.039
  485POPC   C4A10746  29.019   7.209   7.719
  485POPC   C1B10747  29.333   7.726   8.804
  485POPC   C2B10748  29.381   7.929   8.398
  485POPC   C3B10749  29.405   7.716   8.012
  485POPC   C4B10750  29.201   7.812   7.655
  486POPC   NC310751  26.907  20.569   9.569
  486POPC   PO410752  27.345  20.808   9.186
  486POPC   GL110753  27.044  20.718   8.889
  486POPC   GL210754  26.792  20.576   9.072
  486POPC   C1A10755  26.843  20.586   8.509
  486POPC   D2A10756  26.738  20.447   8.103
  486POPC   C3A10757  26.917  20.727   7.821
  486POPC   C4A10758  27.301  20.936   7.890
  486POPC   C1B10759  26.461  20.743   8.813
  486POPC   C2B10760  26.310  20.882   8.405
  486POPC   C3B10761  26.428  20.878   7.947
  486POPC   C4B10762  26.643  21.091   7.565
  487POPC   NC310763  30.377  40.675   9.519
  487POPC   PO410764  30.955  41.022   9.682
  487POPC   GL110765  30.778  40.975   9.267
  487POPC   GL210766  30.447  41.092   9.207
  487POPC   C1A10767  30.812  40.754   8.860
  487POPC   D2A10768  30.710  40.904   8.429
  487POPC   C3A10769  30.756  40.669   8.014
  487POPC   C4A10770  30.943  40.571   7.596
  487POPC   C1B10771  30.347  40.925   8.799
  487POPC   C2B10772  30.218  40.847   8.368
  487POPC   C3B10773  30.382  41.033   8.033
  487POPC   C4B10774  30.398  40.834   7.642
  488POPC   NC310775   6.024  19.765   9.451
  488POPC   PO410776   5.436  19.867   9.291
  488POPC   GL110777   5.787  19.904   9.013
  488POPC   GL210778   6.026  20.149   9.096
  488POPC   C1A10779   6.040  19.700   8.696
  488POPC   D2A10780   6.273  19.669   8.287
  488POPC   C3A10781   6.011  19.719   7.906
  488POPC   C4A10782   5.588  19.598   7.760
  488POPC   C1B10783   6.149  20.215   8.703
  488POPC   C2B10784   5.999  20.121   8.315
  488POPC   C3B10785   6.127  20.211   7.906
  488POPC   C4B10786   5.896  20.074   7.507
  489POPC   NC310787   8.529   2.159   9.427
  489POPC   PO410788   8.052   1.699   9.574
  489POPC   GL110789   8.101   1.980   9.157
  489POPC   GL210790   8.181   2.367   9.129
  489POPC   C1A10791   8.246   2.079   8.698
  489POPC   D2A10792   8.137   2.177   8.272
  489POPC   C3A10793   8.383   2.056   7.902
  489POPC   C4A10794   7.993   2.146   7.639
  489POPC   C1B10795   8.547   2.465   8.802
  489POPC   C2B10796   8.421   2.580   8.357
  489POPC   C3B10797   8.304   2.532   7.914
  489POPC   C4B10798   8.425   2.353   7.469
  490POPC   NC310799  26.300  30.365   9.539
  490POPC   PO410800  26.192  31.037   9.520
  490POPC   GL110801  26.048  30.861   9.159
  490POPC   GL210802  26.134  30.526   9.101
  490POPC   C1A10803  26.130  30.924   8.742
  490POPC   D2A10804  25.902  31.137   8.424
  490POPC   C3A10805  25.917  30.923   8.029
  490POPC   C4A10806  25.815  30.479   7.934
  490POPC   C1B10807  25.786  30.517   8.845
  490POPC   C2B10808  25.888  30.603   8.437
  490POPC   C3B10809  26.252  30.544   8.229
  490POPC   C4B10810  26.363  30.325   7.885
  491POPC   NC310811  17.003  39.134   9.565
  491POPC   PO410812  16.426  39.198   9.406
  491POPC   GL110813  16.571  39.289   9.036
  491POPC   GL210814  16.905  39.416   9.138
  491POPC   C1A10815  16.427  39.124   8.627
  491POPC   D2A10816  16.631  38.904   8.264
  491POPC   C3A10817  16.541  39.142   7.884
  491POPC   C4A10818  16.602  39.485   7.594
  491POPC   C1B10819  16.940  39.250   8.712
  491POPC   C2B10820  16.770  39.441   8.341
  491POPC   C3B10821  16.977  39.444   7.959
  491POPC   C4B10822  17.245  39.595   7.670
  492POPC   NC310823   1.265   6.080   9.468
  492POPC   PO410824   1.345   5.463   9.566
  492POPC   GL110825   1.165   5.661   9.171
  492POPC   GL210826   1.413   5.920   9.025
  492POPC   C1A10827   1.024   5.789   8.737
  492POPC   D2A10828   0.936   5.952   8.329
  492POPC   C3A10829   1.061   5.798   7.909
  492POPC   C4A10830   0.897   5.747   7.462
  492POPC   C1B10831   1.603   5.907   8.644
  492POPC   C2B10832   1.508   5.892   8.221
  492POPC   C3B10833   1.679   5.886   7.828
  492POPC   C4B10834   1.414   6.037   7.548
  493POPC   NC310835  18.304  41.161   9.906
  493POPC   PO410836  18.443  40.623   9.677
  493POPC   GL110837  18.211  40.783   9.162
  493POPC   GL210838  18.476  40.672   8.924
  493POPC   C1A10839  18.143  41.013   8.743
  493POPC   D2A10840  17.992  40.925   8.297
  493POPC   C3A10841  18.084  40.639   7.935
  493POPC   C4A10842  18.060  40.247   7.716
  493POPC   C1B10843  18.813  40.914   8.709
  493POPC   C2B10844  18.759  41.116   8.327
  493POPC   C3B10845  18.508  40.933   8.027
  493POPC   C4B10846  18.593  40.774   7.640
  494POPC   NC310847  34.288  11.315   9.445
  494POPC   PO410848  34.939  11.071   9.527
  494POPC   GL110849  34.724  11.164   9.185
  494POPC   GL210850  34.846  11.499   9.076
  494POPC   C1A10851  34.764  11.125   8.763
  494POPC   D2A10852  34.862  11.456   8.516
  494POPC   C3A10853  34.710  11.380   8.135
  494POPC   C4A10854  34.652  11.413   7.709
  494POPC   C1B10855  34.487  11.618   8.826
  494POPC   C2B10856  34.388  11.709   8.390
  494POPC   C3B10857  34.246  11.569   7.975
  494POPC   C4B10858  34.236  11.755   7.572
  495POPC   NC310859  37.917  10.526   9.430
  495POPC   PO410860  37.199  10.634   9.617
  495POPC   GL110861  37.363  10.439   9.205
  495POPC   GL210862  37.644  10.193   9.135
  495POPC   C1A10863  37.477  10.557   8.774
  495POPC   D2A10864  37.539  10.363   8.359
  495POPC   C3A10865  37.466  10.642   7.984
  495POPC   C4A10866  37.351  10.299   7.770
  495POPC   C1B10867  37.915  10.268   8.753
  495POPC   C2B10868  38.037  10.451   8.321
  495POPC   C3B10869  37.867  10.338   7.904
  495POPC   C4B10870  37.748  10.567   7.537
  496POPC   NC310871  18.844  43.104   9.536
  496POPC   PO410872  19.407  42.834   9.503
  496POPC   GL110873  19.223  43.164   9.194
  496POPC   GL210874  18.869  43.139   9.045
  496POPC   C1A10875  19.319  43.241   8.766
  496POPC   D2A10876  19.589  43.077   8.434
  496POPC   C3A10877  19.347  43.055   8.053
  496POPC   C4A10878  19.318  42.973   7.580
  496POPC   C1B10879  18.726  43.221   8.626
  496POPC   C2B10880  18.889  43.255   8.221
  496POPC   C3B10881  18.901  43.165   7.798
  496POPC   C4B10882  18.877  43.186   7.324
  497POPC   NC310883  31.118   4.966   9.667
  497POPC   PO410884  30.480   5.256   9.499
  497POPC   GL110885  30.486   5.233   9.042
  497POPC   GL210886  30.222   5.452   8.932
  497POPC   C1A10887  30.609   5.188   8.604
  497POPC   D2A10888  30.489   5.013   8.186
  497POPC   C3A10889  30.796   5.055   7.849
  497POPC   C4A10890  30.943   5.490   7.805
  497POPC   C1B10891  30.154   5.364   8.501
  497POPC   C2B10892  30.416   5.531   8.221
  497POPC   C3B10893  30.408   5.454   7.823
  497POPC   C4B10894  30.611   5.334   7.432
  498POPC   NC310895  21.964  10.529   9.555
  498POPC   PO410896  21.318  10.350   9.482
  498POPC   GL110897  21.188  10.482   9.097
  498POPC   GL210898  21.540  10.392   9.030
  498POPC   C1A10899  21.240  10.628   8.676
  498POPC   D2A10900  21.488  10.532   8.313
  498POPC   C3A10901  21.209  10.443   7.999
  498POPC   C4A10902  21.042  10.677   7.672
  498POPC   C1B10903  21.400  10.152   8.724
  498POPC   C2B10904  21.583  10.037   8.363
  498POPC   C3B10905  21.684  10.135   7.971
  498POPC   C4B10906  21.470  10.213   7.622
  499POPC   NC310907  24.204   2.801   9.530
  499POPC   PO410908  24.496   2.334   9.519
  499POPC   GL110909  24.500   2.587   9.153
  499POPC   GL210910  24.220   2.409   9.054
  499POPC   C1A10911  24.613   2.686   8.729
  499POPC   D2A10912  24.466   2.862   8.321
  499POPC   C3A10913  24.688   2.807   7.921
  499POPC   C4A10914  24.835   3.035   7.553
  499POPC   C1B10915  24.366   2.231   8.679
  499POPC   C2B10916  24.254   2.382   8.304
  499POPC   C3B10917  24.216   2.610   7.944
  499POPC   C4B10918  24.130   2.304   7.721
  500POPC   NC310919  36.343  29.250   9.401
  500POPC   PO410920  35.729  28.946   9.297
  500POPC   GL110921  36.036  29.141   8.988
  500POPC   GL210922  36.138  29.487   9.003
  500POPC   C1A10923  36.105  29.125   8.533
  500POPC   D2A10924  35.785  29.263   8.221
  500POPC   C3A10925  35.944  29.133   7.851
  500POPC   C4A10926  36.383  28.881   7.883
  500POPC   C1B10927  35.924  29.578   8.656
  500POPC   C2B10928  36.189  29.592   8.316
  500POPC   C3B10929  36.346  29.405   7.996
  500POPC   C4B10930  36.374  29.651   7.688
  501POPC   NC310931  32.484  23.704   9.489
  501POPC   PO410932  32.088  23.245   9.426
  501POPC   GL110933  32.251  23.503   9.088
  501POPC   GL210934  32.219  23.904   9.114
  501POPC   C1A10935  32.423  23.635   8.711
  501POPC   D2A10936  32.435  23.963   8.381
  501POPC   C3A10937  32.411  23.749   7.994
  501POPC   C4A10938  32.129  23.603   7.662
  501POPC   C1B10939  32.054  24.037   8.738
  501POPC   C2B10940  31.934  24.213   8.341
  501POPC   C3B10941  31.986  24.049   7.922
  501POPC   C4B10942  32.347  24.127   7.633
  502POPC   NC310943  14.517  11.939   9.561
  502POPC   PO410944  13.906  12.334   9.683
  502POPC   GL110945  14.150  12.170   9.295
  502POPC   GL210946  14.170  11.788   9.214
  502POPC   C1A10947  14.147  12.184   8.829
  502POPC   D2A10948  14.012  11.964   8.429
  502POPC   C3A10949  14.048  12.156   8.022
  502POPC   C4A10950  14.073  12.227   7.593
  502POPC   C1B10951  14.287  11.694   8.768
  502POPC   C2B10952  14.441  11.651   8.336
  502POPC   C3B10953  14.564  11.993   8.028
  502POPC   C4B10954  14.542  12.095   7.557
  503POPC   NC310955   8.732  25.643   9.458
  503POPC   PO410956   8.839  26.306   9.521
  503POPC   GL110957   8.874  26.092   9.092
  503POPC   GL210958   8.712  25.767   8.979
  503POPC   C1A10959   8.868  26.090   8.624
  503POPC   D2A10960   8.710  25.980   8.231
  503POPC   C3A10961   8.878  26.191   7.866
  503POPC   C4A10962   8.662  26.336   7.489
  503POPC   C1B10963   9.148  25.707   8.840
  503POPC   C2B10964   9.286  25.834   8.417
  503POPC   C3B10965   9.164  25.779   7.975
  503POPC   C4B10966   8.924  25.598   7.597
  504POPC   NC310967   1.578  17.226   9.420
  504POPC   PO410968   1.987  16.654   9.540
  504POPC   GL110969   1.826  16.547   9.127
  504POPC   GL210970   2.105  16.729   9.013
  504POPC   C1A10971   1.819  16.494   8.643
  504POPC   D2A10972   1.643  16.266   8.260
  504POPC   C3A10973   1.762  16.540   7.910
  504POPC   C4A10974   1.987  16.956   7.909
  504POPC   C1B10975   2.285  16.346   8.874
  504POPC   C2B10976   2.519  16.398   8.501
  504POPC   C3B10977   2.595  16.439   8.068
  504POPC   C4B10978   2.297  16.578   7.768
  505POPC   NC310979   0.073  21.513   9.648
  505POPC   PO410980  44.525  21.098   9.629
  505POPC   GL110981  44.446  21.419   9.267
  505POPC   GL210982  44.684  21.685   9.273
  505POPC   C1A10983  44.527  21.460   8.808
  505POPC   D2A10984  44.647  21.307   8.385
  505POPC   C3A10985  44.546  21.452   7.967
  505POPC   C4A10986  44.445  21.295   7.587
  505POPC   C1B10987   0.009  21.638   8.957
  505POPC   C2B10988   0.007  21.644   8.523
  505POPC   C3B10989   0.013  21.604   8.073
  505POPC   C4B10990  44.911  21.478   7.604
  506POPC   NC310991   9.019   0.573   9.530
  506POPC   PO410992   8.573   0.129   9.447
  506POPC   GL110993   8.803   0.323   9.125
  506POPC   GL210994   9.141   0.303   9.098
  506POPC   C1A10995   8.838   0.534   8.729
  506POPC   D2A10996   8.904   0.666   8.327
  506POPC   C3A10997   8.955   0.410   7.997
  506POPC   C4A10998   8.949   0.722   7.696
  506POPC   C1B10999   9.266   0.299   8.630
  506POPC   C2B11000   9.415   0.515   8.261
  506POPC   C3B11001   9.417   0.510   7.799
  506POPC   C4B11002   9.169   0.174   7.582
  507POPC   NC311003   1.790  13.048   9.348
  507POPC   PO411004   2.365  13.054   9.666
  507POPC   GL111005   2.227  12.871   9.194
  507POPC   GL211006   2.153  13.106   8.978
  507POPC   C1A11007   1.942  12.682   8.827
  507POPC   D2A11008   1.887  12.892   8.440
  507POPC   C3A11009   1.910  12.713   8.038
  507POPC   C4A11010   1.814  12.886   7.635
  507POPC   C1B11011   2.362  12.958   8.673
  507POPC   C2B11012   2.315  13.190   8.363
  507POPC   C3B11013   2.034  13.216   8.044
  507POPC   C4B11014   2.229  13.200   7.662
  508POPC   NC311015  32.410  32.382  10.062
  508POPC   PO411016  32.833  32.076   9.636
  508POPC   GL111017  32.947  32.171   9.137
  508POPC   GL211018  32.739  31.992   8.924
  508POPC   C1A11019  33.006  32.399   8.719
  508POPC   D2A11020  33.094  32.671   8.358
  508POPC   C3A11021  33.098  32.419   7.969
  508POPC   C4A11022  32.908  32.198   7.621
  508POPC   C1B11023  33.128  31.897   8.726
  508POPC   C2B11024  33.172  32.026   8.325
  508POPC   C3B11025  33.158  31.870   7.932
  508POPC   C4B11026  33.189  31.818   7.451
  509POPC   NC311027  31.197  25.877   9.871
  509POPC   PO411028  31.571  26.375   9.551
  509POPC   GL111029  31.569  26.089   9.195
  509POPC   GL211030  31.259  25.851   9.131
  509POPC   C1A11031  31.714  26.243   8.798
  509POPC   D2A11032  31.866  26.057   8.435
  509POPC   C3A11033  31.871  26.323   8.074
  509POPC   C4A11034  31.602  26.183   7.776
  509POPC   C1B11035  31.542  25.759   8.795
  509POPC   C2B11036  31.389  25.840   8.403
  509POPC   C3B11037  31.215  26.036   8.080
  509POPC   C4B11038  31.090  25.995   7.702
  510POPC   NC311039  24.839  39.375   9.567
  510POPC   PO411040  24.179  39.413   9.601
  510POPC   GL111041  24.448  39.420   9.197
  510POPC   GL211042  24.813  39.393   9.058
  510POPC   C1A11043  24.467  39.116   8.822
  510POPC   D2A11044  24.523  38.863   8.443
  510POPC   C3A11045  24.354  39.036   8.071
  510POPC   C4A11046  24.452  39.105   7.642
  510POPC   C1B11047  24.597  39.621   8.747
  510POPC   C2B11048  24.683  39.379   8.371
  510POPC   C3B11049  24.733  39.416   7.943
  510POPC   C4B11050  24.474  39.638   7.683
  511POPC   NC311051  10.935   4.841   9.769
  511POPC   PO411052  11.603   4.930   9.561
  511POPC   GL111053  11.297   5.086   9.266
  511POPC   GL211054  11.219   4.742   9.189
  511POPC   C1A11055  11.245   5.363   8.894
  511POPC   D2A11056  11.265   5.229   8.440
  511POPC   C3A11057  11.284   5.451   8.024
  511POPC   C4A11058  11.302   5.337   7.613
  511POPC   C1B11059  11.376   4.748   8.741
  511POPC   C2B11060  11.523   4.807   8.299
  511POPC   C3B11061  11.443   4.939   7.874
  511POPC   C4B11062  11.154   4.849   7.520
  512POPC   NC311063  10.261  28.260   9.406
  512POPC   PO411064   9.672  28.674   9.416
  512POPC   GL111065   9.768  28.245   9.225
  512POPC   GL211066   9.523  27.945   9.240
  512POPC   C1A11067   9.871  28.126   8.807
  512POPC   D2A11068   9.696  28.075   8.391
  512POPC   C3A11069   9.711  28.314   7.975
  512POPC   C4A11070   9.423  28.658   7.826
  512POPC   C1B11071   9.353  28.201   8.900
  512POPC   C2B11072   9.184  28.095   8.509
  512POPC   C3B11073   9.187  28.237   8.099
  512POPC   C4B11074   9.315  28.080   7.717
  513POPC   NC311075   5.784  17.280   9.524
  513POPC   PO411076   6.376  17.675   9.516
  513POPC   GL111077   6.204  17.530   9.141
  513POPC   GL211078   5.883  17.405   9.055
  513POPC   C1A11079   6.239  17.473   8.712
  513POPC   D2A11080   5.834  17.477   8.446
  513POPC   C3A11081   5.900  17.494   8.010
  513POPC   C4A11082   6.213  17.516   7.726
  513POPC   C1B11083   5.584  17.229   8.826
  513POPC   C2B11084   5.331  17.240   8.453
  513POPC   C3B11085   5.487  17.203   8.062
  513POPC   C4B11086   5.494  17.394   7.669
  514POPC   NC311087  26.974  28.963   9.510
  514POPC   PO411088  26.674  29.447   9.892
  514POPC   GL111089  26.699  29.490   9.363
  514POPC   GL211090  26.631  29.170   9.186
  514POPC   C1A11091  26.734  29.558   8.867
  514POPC   D2A11092  27.078  29.447   8.517
  514POPC   C3A11093  26.965  29.424   8.055
  514POPC   C4A11094  26.964  28.982   7.857
  514POPC   C1B11095  26.522  29.115   8.751
  514POPC   C2B11096  26.657  29.083   8.327
  514POPC   C3B11097  26.530  28.767   8.044
  514POPC   C4B11098  26.553  28.740   7.620
  515POPC   NC311099  10.351  32.531   9.912
  515POPC   PO411100  10.679  32.135   9.457
  515POPC   GL111101  10.550  32.148   9.047
  515POPC   GL211102  10.440  31.839   8.903
  515POPC   C1A11103  10.560  32.401   8.663
  515POPC   D2A11104  10.231  32.628   8.458
  515POPC   C3A11105  10.261  32.468   8.061
  515POPC   C4A11106  10.657  32.540   7.823
  515POPC   C1B11107  10.553  31.871   8.507
  515POPC   C2B11108  10.916  31.926   8.283
  515POPC   C3B11109  10.714  32.063   7.957
  515POPC   C4B11110  10.316  31.987   7.855
  516POPC   NC311111  32.613  21.845   9.358
  516POPC   PO411112  32.158  22.267   9.623
  516POPC   GL111113  32.226  22.130   9.196
  516POPC   GL211114  32.500  22.364   9.207
  516POPC   C1A11115  32.148  21.917   8.790
  516POPC   D2A11116  32.186  22.169   8.403
  516POPC   C3A11117  32.023  22.109   8.010
  516POPC   C4A11118  32.244  22.217   7.670
  516POPC   C1B11119  32.579  22.193   8.781
  516POPC   C2B11120  32.697  22.342   8.366
  516POPC   C3B11121  32.652  22.161   7.956
  516POPC   C4B11122  32.716  22.213   7.477
  517POPC   NC311123  15.356  19.315   9.513
  517POPC   PO411124  15.241  18.694   9.378
  517POPC   GL111125  15.196  18.943   9.050
  517POPC   GL211126  15.324  19.286   9.006
  517POPC   C1A11127  15.110  18.843   8.660
  517POPC   D2A11128  15.384  19.026   8.434
  517POPC   C3A11129  15.274  18.874   8.109
  517POPC   C4A11130  15.297  18.902   7.678
  517POPC   C1B11131  15.009  19.328   8.704
  517POPC   C2B11132  14.944  19.265   8.286
  517POPC   C3B11133  15.228  19.356   7.974
  517POPC   C4B11134  14.988  19.365   7.637
  518POPC   NC311135   8.082  32.801   9.494
  518POPC   PO411136   8.538  33.343   9.424
  518POPC   GL111137   8.321  33.117   9.118
  518POPC   GL211138   8.018  33.267   9.135
  518POPC   C1A11139   8.274  33.104   8.661
  518POPC   D2A11140   8.417  32.952   8.267
  518POPC   C3A11141   8.261  33.196   7.918
  518POPC   C4A11142   8.288  33.083   7.491
  518POPC   C1B11143   7.864  32.912   8.894
  518POPC   C2B11144   7.781  32.943   8.486
  518POPC   C3B11145   7.927  32.863   8.107
  518POPC   C4B11146   7.883  32.882   7.717
  519POPC   NC311147  36.052  31.642   9.657
  519POPC   PO411148  35.373  31.468   9.633
  519POPC   GL111149  35.466  31.426   9.207
  519POPC   GL211150  35.216  31.641   9.114
  519POPC   C1A11151  35.506  31.246   8.809
  519POPC   D2A11152  35.687  31.084   8.430
  519POPC   C3A11153  35.624  31.371   8.098
  519POPC   C4A11154  35.572  31.341   7.664
  519POPC   C1B11155  35.102  31.590   8.690
  519POPC   C2B11156  34.943  31.768   8.299
  519POPC   C3B11157  34.909  31.665   7.886
  519POPC   C4B11158  35.014  31.345   7.637
  520POPC   NC311159  36.370  40.730   9.509
  520POPC   PO411160  35.927  41.151   9.477
  520POPC   GL111161  36.172  40.987   9.112
  520POPC   GL211162  36.184  40.581   9.058
  520POPC   C1A11163  36.314  40.907   8.702
  520POPC   D2A11164  36.136  40.796   8.361
  520POPC   C3A11165  36.364  40.953   8.065
  520POPC   C4A11166  36.121  40.968   7.735
  520POPC   C1B11167  36.335  40.401   8.672
  520POPC   C2B11168  36.467  40.424   8.225
  520POPC   C3B11169  36.406  40.535   7.774
  520POPC   C4B11170  36.190  40.474   7.414
  521POPC   NC311171  18.025  37.175  10.044
  521POPC   PO411172  18.206  36.783   9.498
  521POPC   GL111173  18.102  36.792   9.122
  521POPC   GL211174  18.273  37.107   9.082
  521POPC   C1A11175  18.190  36.724   8.722
  521POPC   D2A11176  18.429  36.955   8.471
  521POPC   C3A11177  18.280  37.031   8.088
  521POPC   C4A11178  18.236  36.927   7.684
  521POPC   C1B11179  17.924  37.161   8.807
  521POPC   C2B11180  17.886  37.009   8.388
  521POPC   C3B11181  17.845  37.236   7.972
  521POPC   C4B11182  17.864  37.236   7.496
  522POPC   NC311183   8.735  23.805   9.494
  522POPC   PO411184   9.234  23.389   9.392
  522POPC   GL111185   8.954  23.567   9.107
  522POPC   GL211186   9.114  23.901   9.061
  522POPC   C1A11187   8.756  23.710   8.752
  522POPC   D2A11188   8.864  23.916   8.352
  522POPC   C3A11189   8.827  23.639   7.956
  522POPC   C4A11190   8.879  23.718   7.492
  522POPC   C1B11191   9.272  23.716   8.634
  522POPC   C2B11192   9.305  23.734   8.142
  522POPC   C3B11193   9.290  23.524   7.724
  522POPC   C4B11194   9.449  23.229   7.391
  523POPC   NC311195  19.442   3.939   9.234
  523POPC   PO411196  19.567   3.392   9.617
  523POPC   GL111197  19.658   3.402   9.205
  523POPC   GL211198  20.008   3.424   9.134
  523POPC   C1A11199  19.629   3.306   8.794
  523POPC   D2A11200  19.739   3.469   8.424
  523POPC   C3A11201  19.883   3.335   8.059
  523POPC   C4A11202  19.830   3.583   7.708
  523POPC   C1B11203  20.076   3.666   8.757
  523POPC   C2B11204  20.251   3.588   8.333
  523POPC   C3B11205  20.316   3.593   7.865
  523POPC   C4B11206  20.243   3.636   7.391
  524POPC   NC311207  40.562   9.732   9.423
  524POPC   PO411208  41.165   9.687   9.633
  524POPC   GL111209  41.007   9.564   9.249
  524POPC   GL211210  41.169   9.339   9.166
  524POPC   C1A11211  40.789   9.495   8.855
  524POPC   D2A11212  40.658   9.782   8.535
  524POPC   C3A11213  40.635   9.663   8.089
  524POPC   C4A11214  40.374   9.941   7.799
  524POPC   C1B11215  41.259   9.319   8.780
  524POPC   C2B11216  41.051   9.464   8.427
  524POPC   C3B11217  41.189   9.626   8.087
  524POPC   C4B11218  40.976   9.673   7.713
  525POPC   NC311219  25.643  14.953   9.378
  525POPC   PO411220  24.961  15.007   9.519
  525POPC   GL111221  25.195  15.076   9.160
  525POPC   GL211222  25.346  15.382   9.235
  525POPC   C1A11223  25.357  15.159   8.762
  525POPC   D2A11224  25.493  15.070   8.361
  525POPC   C3A11225  25.162  15.020   8.093
  525POPC   C4A11226  25.119  14.774   7.750
  525POPC   C1B11227  25.497  15.634   8.887
  525POPC   C2B11228  25.503  15.657   8.448
  525POPC   C3B11229  25.396  15.474   8.049
  525POPC   C4B11230  25.562  15.504   7.638
  526POPC   NC311231  21.591   9.125   9.527
  526POPC   PO411232  21.260   8.618   9.522
  526POPC   GL111233  21.273   8.909   9.185
  526POPC   GL211234  21.637   8.805   9.122
  526POPC   C1A11235  21.435   9.185   8.841
  526POPC   D2A11236  21.322   9.312   8.406
  526POPC   C3A11237  21.604   9.158   8.070
  526POPC   C4A11238  21.565   9.063   7.632
  526POPC   C1B11239  21.416   8.692   8.744
  526POPC   C2B11240  21.381   8.518   8.349
  526POPC   C3B11241  21.555   8.658   7.956
  526POPC   C4B11242  21.678   8.555   7.542
  527POPC   NC311243   6.045   5.667   9.649
  527POPC   PO411244   5.780   6.214   9.391
  527POPC   GL111245   5.909   6.019   9.054
  527POPC   GL211246   5.836   5.691   9.139
  527POPC   C1A11247   5.796   5.973   8.642
  527POPC   D2A11248   5.927   6.121   8.264
  527POPC   C3A11249   5.796   6.042   7.835
  527POPC   C4A11250   5.648   6.115   7.420
  527POPC   C1B11251   6.046   5.551   8.735
  527POPC   C2B11252   6.096   5.642   8.261
  527POPC   C3B11253   5.947   5.547   7.814
  527POPC   C4B11254   5.736   5.239   7.534
  528POPC   NC311255  22.758  37.970   9.422
  528POPC   PO411256  22.812  38.680   9.526
  528POPC   GL111257  22.848  38.432   9.148
  528POPC   GL211258  23.183  38.493   9.121
  528POPC   C1A11259  22.912  38.362   8.695
  528POPC   D2A11260  22.697  38.575   8.359
  528POPC   C3A11261  22.866  38.579   7.964
  528POPC   C4A11262  22.585  38.533   7.661
  528POPC   C1B11263  23.309  38.691   8.741
  528POPC   C2B11264  23.255  38.554   8.331
  528POPC   C3B11265  23.399  38.614   7.925
  528POPC   C4B11266  23.224  38.916   7.673
  529POPC   NC311267  15.005   5.596   9.651
  529POPC   PO411268  15.489   6.156   9.544
  529POPC   GL111269  15.275   6.044   9.196
  529POPC   GL211270  15.160   5.729   9.193
  529POPC   C1A11271  15.161   6.031   8.773
  529POPC   D2A11272  15.341   5.876   8.383
  529POPC   C3A11273  15.139   6.125   8.053
  529POPC   C4A11274  14.999   6.348   7.676
  529POPC   C1B11275  15.164   5.463   8.848
  529POPC   C2B11276  15.102   5.396   8.419
  529POPC   C3B11277  15.056   5.601   8.041
  529POPC   C4B11278  14.906   5.830   7.698
  530POPC   NC311279  26.470  24.321   9.411
  530POPC   PO411280  25.817  24.495   9.419
  530POPC   GL111281  25.831  24.739   9.062
  530POPC   GL211282  26.172  24.711   9.118
  530POPC   C1A11283  25.892  24.690   8.581
  530POPC   D2A11284  25.917  24.287   8.379
  530POPC   C3A11285  25.894  24.255   7.936
  530POPC   C4A11286  26.062  24.651   7.767
  530POPC   C1B11287  26.117  24.312   8.851
  530POPC   C2B11288  26.415  24.202   8.515
  530POPC   C3B11289  26.409  24.338   8.075
  530POPC   C4B11290  26.324  24.232   7.638
  531POPC   NC311291  30.576   7.267   9.534
  531POPC   PO411292  31.215   7.420   9.701
  531POPC   GL111293  30.969   7.486   9.278
  531POPC   GL211294  30.655   7.679   9.234
  531POPC   C1A11295  30.788   7.261   8.887
  531POPC   D2A11296  30.638   7.164   8.479
  531POPC   C3A11297  30.938   7.294   8.146
  531POPC   C4A11298  30.730   7.230   7.759
  531POPC   C1B11299  30.527   7.685   8.805
  531POPC   C2B11300  30.640   7.645   8.370
  531POPC   C3B11301  30.454   7.640   7.954
  531POPC   C4B11302  30.552   7.627   7.514
  532POPC   NC311303   3.863  11.320   9.606
  532POPC   PO411304   3.372  10.979   9.771
  532POPC   GL111305   3.462  11.209   9.315
  532POPC   GL211306   3.256  11.493   9.205
  532POPC   C1A11307   3.788  11.298   8.954
  532POPC   D2A11308   3.960  11.186   8.516
  532POPC   C3A11309   3.883  11.495   8.173
  532POPC   C4A11310   3.715  11.481   7.754
  532POPC   C1B11311   3.277  11.290   8.822
  532POPC   C2B11312   3.458  11.342   8.447
  532POPC   C3B11313   3.314  11.486   8.078
  532POPC   C4B11314   3.181  11.310   7.722
  533POPC   NC311315  24.937  16.366   9.765
  533POPC   PO411316  25.337  15.806   9.542
  533POPC   GL111317  25.157  15.883   9.151
  533POPC   GL211318  25.397  16.128   9.091
  533POPC   C1A11319  25.122  15.945   8.686
  533POPC   D2A11320  25.298  16.110   8.284
  533POPC   C3A11321  25.322  15.936   7.863
  533POPC   C4A11322  25.004  15.717   7.642
  533POPC   C1B11323  25.637  16.125   8.706
  533POPC   C2B11324  25.718  16.382   8.331
  533POPC   C3B11325  25.854  16.275   7.937
  533POPC   C4B11326  25.767  16.012   7.547
  534POPC   NC311327  38.667  41.662   9.474
  534POPC   PO411328  38.038  41.860   9.503
  534POPC   GL111329  38.277  41.661   9.096
  534POPC   GL211330  38.144  41.313   8.993
  534POPC   C1A11331  38.405  41.593   8.618
  534POPC   D2A11332  38.684  41.746   8.278
  534POPC   C3A11333  38.540  41.678   7.861
  534POPC   C4A11334  38.258  41.316   7.719
  534POPC   C1B11335  38.615  41.245   8.901
  534POPC   C2B11336  38.819  41.261   8.481
  534POPC   C3B11337  38.615  41.229   8.091
  534POPC   C4B11338  38.778  41.253   7.672
  535POPC   NC311339  17.797  10.049   9.667
  535POPC   PO411340  17.288  10.407   9.670
  535POPC   GL111341  17.226  10.492   9.230
  535POPC   GL211342  17.524  10.425   9.050
  535POPC   C1A11343  17.084  10.689   8.852
  535POPC   D2A11344  17.132  10.566   8.444
  535POPC   C3A11345  17.405  10.765   8.158
  535POPC   C4A11346  17.277  10.561   7.789
  535POPC   C1B11347  17.573  10.329   8.577
  535POPC   C2B11348  17.558  10.284   8.115
  535POPC   C3B11349  17.704  10.292   7.668
  535POPC   C4B11350  17.767  10.219   7.209
  536POPC   NC311351  15.754   0.099   9.551
  536POPC   PO411352  16.136   0.644   9.306
  536POPC   GL111353  15.935   0.265   9.096
  536POPC   GL211354  16.247   0.060   9.106
  536POPC   C1A11355  15.747   0.295   8.655
  536POPC   D2A11356  15.883   0.671   8.421
  536POPC   C3A11357  15.921   0.610   7.987
  536POPC   C4A11358  15.698   0.496   7.618
  536POPC   C1B11359  16.266   0.274   8.701
  536POPC   C2B11360  16.212   0.231   8.265
  536POPC   C3B11361  16.112   0.156   7.847
  536POPC   C4B11362  16.092   0.267   7.424
  537POPC   NC311363  44.501   7.701   9.322
  537POPC   PO411364  44.278   8.245   9.616
  537POPC   GL111365  44.424   8.221   9.168
  537POPC   GL211366  44.766   8.119   9.132
  537POPC   C1A11367  44.494   8.012   8.731
  537POPC   D2A11368  44.816   8.040   8.419
  537POPC   C3A11369  44.616   8.223   8.058
  537POPC   C4A11370  44.304   7.978   7.861
  537POPC   C1B11371  44.815   8.434   8.826
  537POPC   C2B11372  44.932   8.543   8.419
  537POPC   C3B11373   0.113   8.305   8.088
  537POPC   C4B11374  44.940   8.460   7.722
  538POPC   NC311375   2.716  39.439   9.637
  538POPC   PO411376   2.296  38.997   9.413
  538POPC   GL111377   2.613  39.179   9.176
  538POPC   GL211378   2.732  39.534   9.135
  538POPC   C1A11379   2.700  39.193   8.747
  538POPC   D2A11380   2.904  39.115   8.394
  538POPC   C3A11381   2.645  39.150   8.067
  538POPC   C4A11382   2.731  39.053   7.692
  538POPC   C1B11383   2.857  39.658   8.723
  538POPC   C2B11384   2.727  39.603   8.275
  538POPC   C3B11385   2.795  39.564   7.780
  538POPC   C4B11386   2.894  39.818   7.394
  539POPC   NC311387   4.622   9.415   9.511
  539POPC   PO411388   5.302   9.687   9.486
  539POPC   GL111389   5.187   9.681   9.086
  539POPC   GL211390   4.847   9.643   9.117
  539POPC   C1A11391   5.173   9.674   8.634
  539POPC   D2A11392   5.072   9.978   8.328
  539POPC   C3A11393   5.114   9.739   7.963
  539POPC   C4A11394   5.051   9.703   7.522
  539POPC   C1B11395   4.691   9.541   8.709
  539POPC   C2B11396   4.755   9.527   8.251
  539POPC   C3B11397   4.635   9.575   7.781
  539POPC   C4B11398   4.647   9.543   7.288
  540POPC   NC311399   4.665  14.346   9.520
  540POPC   PO411400   3.962  14.400   9.515
  540POPC   GL111401   4.267  14.293   9.212
  540POPC   GL211402   4.153  13.955   9.232
  540POPC   C1A11403   4.395  14.466   8.796
  540POPC   D2A11404   4.062  14.588   8.455
  540POPC   C3A11405   4.106  14.846   8.060
  540POPC   C4A11406   4.201  14.719   7.631
  540POPC   C1B11407   4.214  13.977   8.797
  540POPC   C2B11408   4.353  14.176   8.381
  540POPC   C3B11409   4.244  14.333   7.979
  540POPC   C4B11410   4.025  14.171   7.626
  541POPC   NC311411  26.520  15.399   9.554
  541POPC   PO411412  26.074  14.884   9.501
  541POPC   GL111413  26.164  15.184   9.154
  541POPC   GL211414  25.858  15.369   9.155
  541POPC   C1A11415  26.326  15.328   8.700
  541POPC   D2A11416  26.320  15.078   8.251
  541POPC   C3A11417  26.309  15.145   7.744
  541POPC   C4A11418  26.379  15.260   7.296
  541POPC   C1B11419  25.852  15.178   8.746
  541POPC   C2B11420  25.919  15.378   8.358
  541POPC   C3B11421  25.870  15.249   7.972
  541POPC   C4B11422  25.592  14.982   7.827
  542POPC   NC311423  17.790  43.143   9.804
  542POPC   PO411424  18.403  43.230   9.567
  542POPC   GL111425  18.344  43.053   9.186
  542POPC   GL211426  18.511  42.765   9.251
  542POPC   C1A11427  18.236  43.251   8.810
  542POPC   D2A11428  18.168  43.169   8.400
  542POPC   C3A11429  18.408  43.240   8.045
  542POPC   C4A11430  18.184  43.418   7.727
  542POPC   C1B11431  18.642  42.756   8.815
  542POPC   C2B11432  18.516  42.781   8.382
  542POPC   C3B11433  18.591  42.767   7.964
  542POPC   C4B11434  18.472  42.992   7.587
  543POPC   NC311435  42.863   6.777   9.440
  543POPC   PO411436  43.156   6.148   9.487
  543POPC   GL111437  43.031   6.379   9.108
  543POPC   GL211438  43.204   6.691   8.976
  543POPC   C1A11439  42.868   6.456   8.684
  543POPC   D2A11440  43.093   6.758   8.447
  543POPC   C3A11441  43.114   6.678   8.032
  543POPC   C4A11442  42.793   6.582   7.725
  543POPC   C1B11443  43.553   6.792   8.665
  543POPC   C2B11444  43.635   6.559   8.272
  543POPC   C3B11445  43.560   6.564   7.796
  543POPC   C4B11446  43.451   6.871   7.437
  544POPC   NC311447   3.751  40.697   9.710
  544POPC   PO411448   3.413  41.116   9.268
  544POPC   GL111449   3.763  40.915   9.050
  544POPC   GL211450   3.833  40.545   9.207
  544POPC   C1A11451   3.851  41.056   8.621
  544POPC   D2A11452   3.507  40.877   8.469
  544POPC   C3A11453   3.424  40.853   8.069
  544POPC   C4A11454   3.675  40.801   7.709
  544POPC   C1B11455   3.463  40.529   8.910
  544POPC   C2B11456   3.214  40.475   8.517
  544POPC   C3B11457   3.221  40.345   8.091
  544POPC   C4B11458   3.226  40.559   7.721
  545POPC   NC311459  21.331  42.834   9.199
  545POPC   PO411460  21.682  43.021   9.743
  545POPC   GL111461  21.661  43.250   9.289
  545POPC   GL211462  21.379  43.417   9.203
  545POPC   C1A11463  21.685  43.189   8.781
  545POPC   D2A11464  21.729  42.930   8.360
  545POPC   C3A11465  21.597  43.115   7.942
  545POPC   C4A11466  21.535  43.071   7.446
  545POPC   C1B11467  21.191  43.335   8.800
  545POPC   C2B11468  21.229  43.066   8.456
  545POPC   C3B11469  21.081  43.044   8.052
  545POPC   C4B11470  21.188  43.322   7.718
  546POPC   NC311471  22.330  24.912   9.488
  546POPC   PO411472  22.031  24.284   9.507
  546POPC   GL111473  22.009  24.548   9.147
  546POPC   GL211474  22.369  24.552   9.135
  546POPC   C1A11475  22.140  24.642   8.692
  546POPC   D2A11476  22.419  24.426   8.397
  546POPC   C3A11477  22.167  24.338   8.019
  546POPC   C4A11478  21.843  24.265   7.734
  546POPC   C1B11479  22.555  24.870   8.868
  546POPC   C2B11480  22.577  24.925   8.432
  546POPC   C3B11481  22.479  24.753   8.021
  546POPC   C4B11482  22.660  24.371   7.868
  547POPC   NC311483  21.113  18.601   9.633
  547POPC   PO411484  21.438  17.976   9.674
  547POPC   GL111485  21.410  18.279   9.345
  547POPC   GL211486  21.076  18.206   9.280
  547POPC   C1A11487  21.434  18.335   8.886
  547POPC   D2A11488  21.578  18.485   8.477
  547POPC   C3A11489  21.429  18.346   8.100
  547POPC   C4A11490  21.650  18.409   7.724
  547POPC   C1B11491  20.958  18.472   8.950
  547POPC   C2B11492  21.007  18.466   8.504
  547POPC   C3B11493  20.947  18.545   8.056
  547POPC   C4B11494  21.032  18.324   7.695
  548POPC   NC311495  26.408   4.196   9.644
  548POPC   PO411496  26.320   4.806   9.446
  548POPC   GL111497  26.228   4.476   9.149
  548POPC   GL211498  26.248   4.119   9.170
  548POPC   C1A11499  26.122   4.399   8.707
  548POPC   D2A11500  26.181   4.507   8.271
  548POPC   C3A11501  25.997   4.304   7.899
  548POPC   C4A11502  26.068   4.382   7.456
  548POPC   C1B11503  26.139   3.901   8.794
  548POPC   C2B11504  26.011   3.992   8.357
  548POPC   C3B11505  25.868   3.808   7.969
  548POPC   C4B11506  26.135   3.880   7.645
  549POPC   NC311507  11.563  20.938   9.764
  549POPC   PO411508  11.032  20.506   9.635
  549POPC   GL111509  11.307  20.707   9.327
  549POPC   GL211510  11.287  20.415   9.104
  549POPC   C1A11511  11.302  20.878   8.902
  549POPC   D2A11512  11.058  20.838   8.539
  549POPC   C3A11513  11.272  20.755   8.166
  549POPC   C4A11514  11.282  20.921   7.763
  549POPC   C1B11515  11.168  20.336   8.689
  549POPC   C2B11516  10.873  20.175   8.384
  549POPC   C3B11517  11.026  20.205   7.979
  549POPC   C4B11518  11.339  20.415   7.763
  550POPC   NC311519   8.094  44.178   9.471
  550POPC   PO411520   7.941  43.526   9.464
  550POPC   GL111521   8.185  43.755   9.184
  550POPC   GL211522   8.017  44.004   8.989
  550POPC   C1A11523   8.362  43.683   8.799
  550POPC   D2A11524   8.038  43.673   8.474
  550POPC   C3A11525   8.176  43.845   8.099
  550POPC   C4A11526   8.382  43.655   7.774
  550POPC   C1B11527   7.715  44.082   8.641
  550POPC   C2B11528   7.603  43.880   8.253
  550POPC   C3B11529   7.712  44.021   7.887
  550POPC   C4B11530   7.994  43.942   7.599
  551POPC   NC311531  40.586  23.493   9.448
  551POPC   PO411532  40.621  22.809   9.621
  551POPC   GL111533  40.693  22.825   9.168
  551POPC   GL211534  40.613  23.153   9.093
  551POPC   C1A11535  40.898  22.949   8.736
  551POPC   D2A11536  40.857  23.129   8.333
  551POPC   C3A11537  40.691  22.931   7.969
  551POPC   C4A11538  40.847  22.977   7.562
  551POPC   C1B11539  40.591  23.380   8.698
  551POPC   C2B11540  40.416  23.372   8.260
  551POPC   C3B11541  40.476  23.362   7.809
  551POPC   C4B11542  40.411  23.194   7.400
  552POPC   NC311543   5.843  22.510   9.650
  552POPC   PO411544   6.184  21.900   9.675
  552POPC   GL111545   6.040  21.822   9.217
  552POPC   GL211546   5.956  22.162   9.115
  552POPC   C1A11547   5.758  21.770   8.819
  552POPC   D2A11548   5.829  21.641   8.364
  552POPC   C3A11549   5.755  21.875   7.968
  552POPC   C4A11550   5.428  22.144   7.784
  552POPC   C1B11551   5.799  22.266   8.679
  552POPC   C2B11552   5.673  22.321   8.231
  552POPC   C3B11553   5.871  22.447   7.831
  552POPC   C4B11554   6.197  22.422   7.459
  553POPC   NC311555  31.939  17.006   9.481
  553POPC   PO411556  32.519  16.608   9.453
  553POPC   GL111557  32.375  16.895   9.106
  553POPC   GL211558  32.023  16.879   9.008
  553POPC   C1A11559  32.383  16.893   8.657
  553POPC   D2A11560  32.612  16.720   8.313
  553POPC   C3A11561  32.493  16.933   7.960
  553POPC   C4A11562  32.137  17.117   7.807
  553POPC   C1B11563  31.966  16.622   8.632
  553POPC   C2B11564  32.086  16.768   8.210
  553POPC   C3B11565  32.215  16.544   7.793
  553POPC   C4B11566  32.037  16.288   7.433
  554POPC   NC311567   5.836  30.579   9.801
  554POPC   PO411568   5.824  31.190   9.603
  554POPC   GL111569   5.861  30.781   9.295
  554POPC   GL211570   6.148  30.503   9.243
  554POPC   C1A11571   6.000  30.833   8.841
  554POPC   D2A11572   5.927  31.074   8.444
  554POPC   C3A11573   5.876  30.913   8.012
  554POPC   C4A11574   5.958  30.783   7.567
  554POPC   C1B11575   5.951  30.319   8.866
  554POPC   C2B11576   5.980  30.500   8.422
  554POPC   C3B11577   6.025  30.426   7.965
  554POPC   C4B11578   5.668  30.383   7.651
  555POPC   NC311579  29.094  23.317   9.779
  555POPC   PO411580  28.838  22.706   9.593
  555POPC   GL111581  28.965  22.775   9.178
  555POPC   GL211582  29.069  23.088   9.220
  555POPC   C1A11583  28.865  22.735   8.757
  555POPC   D2A11584  29.057  22.961   8.421
  555POPC   C3A11585  29.027  22.777   8.023
  555POPC   C4A11586  29.365  22.848   7.775
  555POPC   C1B11587  28.878  23.230   8.829
  555POPC   C2B11588  28.567  23.135   8.519
  555POPC   C3B11589  28.682  23.142   8.079
  555POPC   C4B11590  29.036  23.251   7.820
  556POPC   NC311591  39.097   2.179   9.726
  556POPC   PO411592  38.396   2.093   9.668
  556POPC   GL111593  38.474   2.098   9.193
  556POPC   GL211594  38.701   1.846   9.036
  556POPC   C1A11595  38.385   2.065   8.706
  556POPC   D2A11596  38.419   1.977   8.261
  556POPC   C3A11597  38.278   2.151   7.873
  556POPC   C4A11598  37.909   2.045   7.614
  556POPC   C1B11599  38.749   1.668   8.615
  556POPC   C2B11600  38.813   1.675   8.172
  556POPC   C3B11601  38.770   1.904   7.825
  556POPC   C4B11602  38.606   1.743   7.487
  557POPC   NC311603  20.214  40.645   9.423
  557POPC   PO411604  20.743  40.941   9.714
  557POPC   GL111605  20.698  41.010   9.262
  557POPC   GL211606  20.493  40.798   9.031
  557POPC   C1A11607  20.864  41.158   8.867
  557POPC   D2A11608  20.820  41.106   8.408
  557POPC   C3A11609  20.906  40.721   8.212
  557POPC   C4A11610  20.797  40.518   7.809
  557POPC   C1B11611  20.567  40.703   8.616
  557POPC   C2B11612  20.406  40.844   8.210
  557POPC   C3B11613  20.308  40.649   7.821
  557POPC   C4B11614  20.329  40.658   7.373
  558POPC   NC311615   1.892  36.615   9.432
  558POPC   PO411616   2.242  36.082   9.736
  558POPC   GL111617   2.185  36.190   9.288
  558POPC   GL211618   1.830  36.166   9.166
  558POPC   C1A11619   2.225  36.446   8.892
  558POPC   D2A11620   1.902  36.408   8.580
  558POPC   C3A11621   1.933  36.425   8.101
  558POPC   C4A11622   1.768  36.332   7.671
  558POPC   C1B11623   2.040  35.969   8.807
  558POPC   C2B11624   2.175  35.894   8.381
  558POPC   C3B11625   2.068  35.945   7.930
  558POPC   C4B11626   1.766  35.823   7.592
  559POPC   NC311627  43.220  40.389   9.485
  559POPC   PO411628  42.922  41.000   9.546
  559POPC   GL111629  43.110  40.833   9.241
  559POPC   GL211630  42.868  40.603   9.177
  559POPC   C1A11631  43.233  40.936   8.850
  559POPC   D2A11632  43.285  41.087   8.433
  559POPC   C3A11633  43.393  40.781   8.108
  559POPC   C4A11634  43.166  40.872   7.722
  559POPC   C1B11635  42.972  40.455   8.816
  559POPC   C2B11636  43.091  40.610   8.468
  559POPC   C3B11637  42.878  40.767   8.102
  559POPC   C4B11638  42.955  40.416   7.813
  560POPC   NC311639   9.698   2.640   9.523
  560POPC   PO411640  10.311   2.927   9.472
  560POPC   GL111641   9.998   2.784   9.114
  560POPC   GL211642   9.588   2.795   9.054
  560POPC   C1A11643   9.919   2.733   8.648
  560POPC   D2A11644   9.741   3.075   8.398
  560POPC   C3A11645   9.971   3.249   8.080
  560POPC   C4A11646  10.032   2.991   7.741
  560POPC   C1B11647   9.558   2.401   8.848
  560POPC   C2B11648   9.579   2.229   8.444
  560POPC   C3B11649   9.719   2.457   8.125
  560POPC   C4B11650   9.722   2.571   7.714
  561POPC   NC311651   5.759  43.360   9.618
  561POPC   PO411652   6.239  43.716   9.361
  561POPC   GL111653   5.817  43.654   9.198
  561POPC   GL211654   5.608  43.946   9.256
  561POPC   C1A11655   5.625  43.704   8.814
  561POPC   D2A11656   5.758  43.917   8.436
  561POPC   C3A11657   5.738  43.755   8.022
  561POPC   C4A11658   5.454  43.562   7.752
  561POPC   C1B11659   5.936  44.096   8.905
  561POPC   C2B11660   6.190  44.180   8.504
  561POPC   C3B11661   6.074  44.170   8.051
  561POPC   C4B11662   6.159  44.437   7.691
  562POPC   NC311663  23.391   9.933   9.409
  562POPC   PO411664  24.047   9.860   9.423
  562POPC   GL111665  23.766   9.663   9.133
  562POPC   GL211666  23.423   9.503   9.152
  562POPC   C1A11667  23.813   9.552   8.718
  562POPC   D2A11668  23.900   9.770   8.360
  562POPC   C3A11669  23.811   9.558   8.025
  562POPC   C4A11670  24.120   9.667   7.791
  562POPC   C1B11671  23.341   9.772   8.782
  562POPC   C2B11672  23.405   9.721   8.364
  562POPC   C3B11673  23.487   9.942   7.997
  562POPC   C4B11674  23.569   9.773   7.587
  563POPC   NC311675  44.070   0.275   9.522
  563POPC   PO411676  43.622   0.746   9.439
  563POPC   GL111677  43.918   0.604   9.155
  563POPC   GL211678  43.789   0.269   9.094
  563POPC   C1A11679  44.018   0.619   8.735
  563POPC   D2A11680  43.827   0.670   8.344
  563POPC   C3A11681  44.088   0.569   7.979
  563POPC   C4A11682  43.987   0.256   7.656
  563POPC   C1B11683  43.536   0.401   8.733
  563POPC   C2B11684  43.418   0.276   8.343
  563POPC   C3B11685  43.538   0.481   7.969
  563POPC   C4B11686  43.509   0.355   7.573
  564POPC   NC311687   6.704   1.967   9.770
  564POPC   PO411688   7.247   2.210   9.594
  564POPC   GL111689   6.951   2.107   9.254
  564POPC   GL211690   6.971   1.756   9.261
  564POPC   C1A11691   6.745   2.131   8.801
  564POPC   D2A11692   6.593   2.115   8.331
  564POPC   C3A11693   6.602   2.369   7.923
  564POPC   C4A11694   6.719   2.219   7.503
  564POPC   C1B11695   7.082   1.747   8.786
  564POPC   C2B11696   6.948   1.745   8.317
  564POPC   C3B11697   6.749   1.844   7.893
  564POPC   C4B11698   6.864   1.723   7.457
  565POPC   NC311699  22.393  38.897   9.512
  565POPC   PO411700  22.027  38.323   9.479
  565POPC   GL111701  22.327  38.479   9.222
  565POPC   GL211702  22.090  38.737   9.136
  565POPC   C1A11703  22.426  38.513   8.799
  565POPC   D2A11704  22.228  38.258   8.462
  565POPC   C3A11705  22.349  38.337   8.056
  565POPC   C4A11706  22.271  38.118   7.664
  565POPC   C1B11707  21.908  38.454   8.837
  565POPC   C2B11708  21.712  38.502   8.443
  565POPC   C3B11709  21.841  38.310   8.065
  565POPC   C4B11710  21.960  38.514   7.696
  566POPC   NC311711  40.980   1.666   9.294
  566POPC   PO411712  40.667   1.047   9.241
  566POPC   GL111713  40.878   1.221   8.891
  566POPC   GL211714  41.083   1.043   8.655
  566POPC   C1A11715  40.662   1.363   8.507
  566POPC   D2A11716  40.654   1.698   8.227
  566POPC   C3A11717  40.815   1.468   7.906
  566POPC   C4A11718  40.742   1.416   7.476
  566POPC   C1B11719  40.947   1.019   8.263
  566POPC   C2B11720  40.552   0.991   8.137
  566POPC   C3B11721  40.660   0.993   7.757
  566POPC   C4B11722  41.122   1.104   7.760
  567POPC   NC311723  39.896  38.134   9.615
  567POPC   PO411724  40.354  38.582   9.526
  567POPC   GL111725  40.198  38.447   9.175
  567POPC   GL211726  40.246  38.117   9.213
  567POPC   C1A11727  40.137  38.582   8.764
  567POPC   D2A11728  39.994  38.412   8.400
  567POPC   C3A11729  40.104  38.623   8.018
  567POPC   C4A11730  40.010  38.738   7.599
  567POPC   C1B11731  40.328  38.089   8.770
  567POPC   C2B11732  40.168  37.923   8.365
  567POPC   C3B11733  39.973  38.129   7.978
  567POPC   C4B11734  40.200  38.200   7.580
  568POPC   NC311735  19.471  37.457   9.422
  568POPC   PO411736  20.029  37.763   9.416
  568POPC   GL111737  19.856  37.573   9.095
  568POPC   GL211738  19.582  37.832   9.090
  568POPC   C1A11739  20.046  37.410   8.724
  568POPC   D2A11740  20.123  37.632   8.332
  568POPC   C3A11741  19.917  37.488   7.952
  568POPC   C4A11742  20.075  37.356   7.530
  568POPC   C1B11743  19.611  37.687   8.664
  568POPC   C2B11744  19.426  37.665   8.290
  568POPC   C3B11745  19.481  37.736   7.865
  568POPC   C4B11746  19.611  37.597   7.426
  569POPC   NC311747  40.988  20.164   9.457
  569POPC   PO411748  40.603  19.630   9.436
  569POPC   GL111749  40.688  19.804   9.071
  569POPC   GL211750  40.572  20.123   9.120
  569POPC   C1A11751  40.873  19.964   8.695
  569POPC   D2A11752  40.665  19.867   8.320
  569POPC   C3A11753  40.870  19.809   7.908
  569POPC   C4A11754  40.737  19.814   7.486
  569POPC   C1B11755  40.683  20.424   8.823
  569POPC   C2B11756  40.792  20.402   8.414
  569POPC   C3B11757  40.682  20.276   7.993
  569POPC   C4B11758  40.459  20.248   7.616
  570POPC   NC311759  11.614  27.332   9.858
  570POPC   PO411760  11.523  26.758   9.514
  570POPC   GL111761  11.335  26.711   9.129
  570POPC   GL211762  11.492  26.475   9.007
  570POPC   C1A11763  11.244  26.908   8.736
  570POPC   D2A11764  10.960  27.123   8.498
  570POPC   C3A11765  11.122  27.200   8.059
  570POPC   C4A11766  11.158  26.861   7.761
  570POPC   C1B11767  11.107  26.418   8.727
  570POPC   C2B11768  11.115  26.614   8.306
  570POPC   C3B11769  11.497  26.641   8.082
  570POPC   C4B11770  11.598  26.600   7.644
  571POPC   NC311771  18.178  19.779   9.399
  571POPC   PO411772  18.359  20.313   9.520
  571POPC   GL111773  18.405  20.102   9.096
  571POPC   GL211774  18.022  20.035   9.011
  571POPC   C1A11775  18.367  19.992   8.642
  571POPC   D2A11776  18.167  20.042   8.225
  571POPC   C3A11777  18.473  19.884   7.900
  571POPC   C4A11778  18.536  19.433   7.890
  571POPC   C1B11779  17.924  19.694   8.737
  571POPC   C2B11780  17.796  19.622   8.306
  571POPC   C3B11781  18.022  19.646   7.897
  571POPC   C4B11782  18.038  20.011   7.620
  572POPC   NC311783   4.516  10.572   9.493
  572POPC   PO411784   4.567  10.079   9.235
  572POPC   GL111785   4.407  10.368   8.999
  572POPC   GL211786   4.122  10.480   9.181
  572POPC   C1A11787   4.459  10.376   8.564
  572POPC   D2A11788   4.552  10.141   8.169
  572POPC   C3A11789   4.318  10.360   7.824
  572POPC   C4A11790   4.339  10.391   7.364
  572POPC   C1B11791   4.120  10.743   8.797
  572POPC   C2B11792   4.039  10.644   8.380
  572POPC   C3B11793   3.892  10.652   7.953
  572POPC   C4B11794   3.879  10.617   7.498
  573POPC   NC311795  23.235  27.844   9.434
  573POPC   PO411796  23.817  27.460   9.401
  573POPC   GL111797  23.731  27.710   9.079
  573POPC   GL211798  23.395  27.582   9.046
  573POPC   C1A11799  23.885  27.816   8.665
  573POPC   D2A11800  23.657  27.837   8.276
  573POPC   C3A11801  23.747  27.636   7.871
  573POPC   C4A11802  23.957  27.769   7.467
  573POPC   C1B11803  23.467  27.499   8.640
  573POPC   C2B11804  23.435  27.231   8.304
  573POPC   C3B11805  23.412  27.231   7.886
  573POPC   C4B11806  23.259  27.543   7.665
  574POPC   NC311807  21.315  26.159   9.594
  574POPC   PO411808  21.559  25.715   9.224
  574POPC   GL111809  21.244  25.980   9.083
  574POPC   GL211810  21.375  26.338   9.119
  574POPC   C1A11811  21.122  26.205   8.703
  574POPC   D2A11812  21.337  26.300   8.328
  574POPC   C3A11813  21.125  26.063   8.046
  574POPC   C4A11814  21.079  25.864   7.668
  574POPC   C1B11815  21.636  26.303   8.748
  574POPC   C2B11816  21.838  26.132   8.375
  574POPC   C3B11817  21.626  25.991   8.015
  574POPC   C4B11818  21.452  26.201   7.663
  575POPC   NC311819   9.760  33.067   9.447
  575POPC   PO411820  10.003  32.817   8.876
  575POPC   GL111821   9.847  33.231   8.992
  575POPC   GL211822  10.140  33.413   9.087
  575POPC   C1A11823   9.496  33.339   8.799
  575POPC   D2A11824   9.575  33.415   8.384
  575POPC   C3A11825   9.489  33.086   8.135
  575POPC   C4A11826   9.472  32.992   7.711
  575POPC   C1B11827  10.055  33.482   8.610
  575POPC   C2B11828  10.040  33.324   8.155
  575POPC   C3B11829  10.012  33.094   7.743
  575POPC   C4B11830  10.151  33.153   7.288
  576POPC   NC311831  41.246  33.409   9.700
  576POPC   PO411832  41.588  32.804   9.540
  576POPC   GL111833  41.510  33.009   9.205
  576POPC   GL211834  41.166  32.939   9.312
  576POPC   C1A11835  41.606  33.104   8.776
  576POPC   D2A11836  41.369  33.279   8.453
  576POPC   C3A11837  41.567  33.103   8.141
  576POPC   C4A11838  41.574  33.039   7.718
  576POPC   C1B11839  41.127  32.840   8.883
  576POPC   C2B11840  41.058  32.886   8.474
  576POPC   C3B11841  41.157  32.803   8.067
  576POPC   C4B11842  41.093  32.898   7.664
  577POPC   NC311843   9.660  41.624   9.540
  577POPC   PO411844   9.354  41.185   9.419
  577POPC   GL111845   9.569  41.449   9.065
  577POPC   GL211846   9.643  41.818   9.066
  577POPC   C1A11847   9.788  41.515   8.657
  577POPC   D2A11848  10.097  41.683   8.346
  577POPC   C3A11849  10.017  41.618   7.874
  577POPC   C4A11850  10.039  41.545   7.406
  577POPC   C1B11851   9.951  41.999   8.779
  577POPC   C2B11852  10.116  42.193   8.396
  577POPC   C3B11853  10.150  42.112   7.954
  577POPC   C4B11854   9.905  42.033   7.573
  578POPC   NC311855  16.097  21.510   9.487
  578POPC   PO411856  15.528  21.247   9.507
  578POPC   GL111857  15.762  21.260   9.143
  578POPC   GL211858  15.706  21.602   9.123
  578POPC   C1A11859  16.001  21.359   8.766
  578POPC   D2A11860  16.226  21.448   8.400
  578POPC   C3A11861  16.008  21.361   8.025
  578POPC   C4A11862  16.037  21.238   7.641
  578POPC   C1B11863  15.624  21.772   8.734
  578POPC   C2B11864  15.702  21.603   8.344
  578POPC   C3B11865  15.732  21.804   7.943
  578POPC   C4B11866  15.661  21.887   7.507
  579POPC   NC311867   9.645  27.472   9.439
  579POPC   PO411868  10.166  27.807   9.347
  579POPC   GL111869   9.882  27.645   9.013
  579POPC   GL211870   9.764  27.290   8.995
  579POPC   C1A11871   9.519  27.725   8.746
  579POPC   D2A11872   9.370  27.640   8.309
  579POPC   C3A11873   9.675  27.766   8.005
  579POPC   C4A11874   9.824  27.834   7.619
  579POPC   C1B11875   9.594  27.234   8.601
  579POPC   C2B11876   9.784  27.265   8.206
  579POPC   C3B11877   9.765  27.319   7.763
  579POPC   C4B11878   9.871  27.414   7.337
  580POPC   NC311879  42.602  20.883   9.554
  580POPC   PO411880  42.179  20.342   9.480
  580POPC   GL111881  42.266  20.499   9.102
  580POPC   GL211882  42.609  20.567   9.130
  580POPC   C1A11883  42.111  20.481   8.701
  580POPC   D2A11884  42.131  20.231   8.348
  580POPC   C3A11885  42.137  20.488   7.999
  580POPC   C4A11886  42.427  20.528   7.635
  580POPC   C1B11887  42.542  20.760   8.708
  580POPC   C2B11888  42.557  20.614   8.264
  580POPC   C3B11889  42.800  20.780   7.883
  580POPC   C4B11890  42.884  20.789   7.406
  581POPC   NC311891  13.383  15.724   9.575
  581POPC   PO411892  13.807  16.171   9.405
  581POPC   GL111893  13.509  16.079   9.144
  581POPC   GL211894  13.477  15.739   9.071
  581POPC   C1A11895  13.546  16.125   8.703
  581POPC   D2A11896  13.791  16.111   8.326
  581POPC   C3A11897  13.650  16.065   7.885
  581POPC   C4A11898  13.810  16.012   7.415
  581POPC   C1B11899  13.779  15.657   8.745
  581POPC   C2B11900  13.967  15.627   8.338
  581POPC   C3B11901  13.875  15.627   7.901
  581POPC   C4B11902  13.997  15.539   7.487
  582POPC   NC311903  29.784  39.515   9.574
  582POPC   PO411904  30.397  39.551   9.399
  582POPC   GL111905  30.047  39.467   9.119
  582POPC   GL211906  29.728  39.276   9.101
  582POPC   C1A11907  29.997  39.414   8.672
  582POPC   D2A11908  30.053  39.092   8.378
  582POPC   C3A11909  29.944  39.260   7.992
  582POPC   C4A11910  29.857  39.153   7.580
  582POPC   C1B11911  29.723  39.001   8.750
  582POPC   C2B11912  29.490  38.969   8.370
  582POPC   C3B11913  29.526  38.886   7.937
  582POPC   C4B11914  29.352  39.076   7.590
  583POPC   NC311915   9.853   0.760   9.609
  583POPC   PO411916   9.735   1.440   9.562
  583POPC   GL111917   9.686   1.169   9.219
  583POPC   GL211918   9.583   0.845   9.178
  583POPC   C1A11919   9.863   1.135   8.821
  583POPC   D2A11920  10.119   1.166   8.446
  583POPC   C3A11921   9.960   1.345   8.080
  583POPC   C4A11922   9.973   1.676   7.812
  583POPC   C1B11923   9.412   0.757   8.790
  583POPC   C2B11924   9.273   0.995   8.452
  583POPC   C3B11925   9.301   0.962   8.026
  583POPC   C4B11926   9.732   0.943   7.860
  584POPC   NC311927   8.966  20.396   9.987
  584POPC   PO411928   8.959  20.704   9.386
  584POPC   GL111929   8.799  20.682   9.021
  584POPC   GL211930   8.875  20.351   9.022
  584POPC   C1A11931   8.781  20.868   8.648
  584POPC   D2A11932   8.840  20.769   8.214
  584POPC   C3A11933   8.756  20.748   7.787
  584POPC   C4A11934   8.730  20.479   7.403
  584POPC   C1B11935   9.127  20.488   8.663
  584POPC   C2B11936   9.203  20.394   8.238
  584POPC   C3B11937   9.152  20.351   7.778
  584POPC   C4B11938   9.302  19.992   7.541
  585POPC   NC311939  36.193  35.902   9.425
  585POPC   PO411940  36.450  36.459   9.468
  585POPC   GL111941  36.366  36.325   9.066
  585POPC   GL211942  36.374  35.982   8.964
  585POPC   C1A11943  36.395  36.357   8.627
  585POPC   D2A11944  36.410  36.546   8.235
  585POPC   C3A11945  36.165  36.256   7.999
  585POPC   C4A11946  35.745  36.209   7.826
  585POPC   C1B11947  36.017  36.001   8.669
  585POPC   C2B11948  35.900  35.894   8.241
  585POPC   C3B11949  36.087  35.764   7.830
  585POPC   C4B11950  36.244  35.685   7.379
  586POPC   NC311951  14.686  22.445   9.343
  586POPC   PO411952  14.216  22.908   9.514
  586POPC   GL111953  14.251  23.044   9.114
  586POPC   GL211954  14.332  22.685   9.030
  586POPC   C1A11955  14.613  23.198   8.864
  586POPC   D2A11956  14.790  23.195   8.463
  586POPC   C3A11957  14.497  23.050   8.142
  586POPC   C4A11958  14.668  22.795   7.828
  586POPC   C1B11959  14.273  22.880   8.620
  586POPC   C2B11960  14.049  22.765   8.254
  586POPC   C3B11961  14.125  22.750   7.818
  586POPC   C4B11962  14.007  22.504   7.462
  587POPC   NC311963  39.135  29.444   9.775
  587POPC   PO411964  38.887  28.809   9.472
  587POPC   GL111965  39.009  28.924   9.124
  587POPC   GL211966  39.193  29.188   9.173
  587POPC   C1A11967  38.981  29.028   8.719
  587POPC   D2A11968  39.276  28.960   8.420
  587POPC   C3A11969  39.122  29.084   8.025
  587POPC   C4A11970  39.068  28.918   7.627
  587POPC   C1B11971  39.412  29.307   8.793
  587POPC   C2B11972  39.676  29.336   8.435
  587POPC   C3B11973  39.657  29.096   8.071
  587POPC   C4B11974  39.537  29.181   7.645
  588POPC   NC311975   6.842  17.845   9.503
  588POPC   PO411976   6.537  18.492   9.562
  588POPC   GL111977   6.562  18.396   9.158
  588POPC   GL211978   6.503  18.042   9.163
  588POPC   C1A11979   6.693  18.314   8.757
  588POPC   D2A11980   6.669  18.122   8.371
  588POPC   C3A11981   6.488  18.353   8.020
  588POPC   C4A11982   6.718  18.608   7.726
  588POPC   C1B11983   6.297  17.993   8.780
  588POPC   C2B11984   6.247  17.820   8.361
  588POPC   C3B11985   6.479  17.824   8.008
  588POPC   C4B11986   6.425  18.043   7.648
  589POPC   NC311987  12.955  40.383   9.472
  589POPC   PO411988  12.770  39.720   9.413
  589POPC   GL111989  12.824  40.059   9.078
  589POPC   GL211990  12.644  40.413   9.067
  589POPC   C1A11991  12.961  39.922   8.680
  589POPC   D2A11992  13.153  39.768   8.322
  589POPC   C3A11993  13.120  40.026   7.955
  589POPC   C4A11994  12.989  40.115   7.561
  589POPC   C1B11995  12.653  40.319   8.616
  589POPC   C2B11996  12.693  40.013   8.254
  589POPC   C3B11997  12.643  39.812   7.852
  589POPC   C4B11998  12.485  40.149   7.600
  590POPC   NC311999   3.759  21.598   9.525
  590POPC   PO412000   4.384  21.351   9.448
  590POPC   GL112001   4.202  21.174   9.073
  590POPC   GL212002   4.494  21.027   8.985
  590POPC   C1A12003   4.281  21.332   8.631
  590POPC   D2A12004   4.033  21.566   8.317
  590POPC   C3A12005   4.163  21.595   7.883
  590POPC   C4A12006   4.091  21.259   7.593
  590POPC   C1B12007   4.595  20.880   8.587
  590POPC   C2B12008   4.693  21.179   8.331
  590POPC   C3B12009   4.540  21.260   7.953
  590POPC   C4B12010   4.593  21.042   7.620
  591POPC   NC312011  24.610  22.345   9.454
  591POPC   PO412012  24.367  21.681   9.533
  591POPC   GL112013  24.343  21.988   9.166
  591POPC   GL212014  24.216  22.352   9.115
  591POPC   C1A12015  24.532  22.200   8.762
  591POPC   D2A12016  24.432  22.066   8.342
  591POPC   C3A12017  24.653  22.181   7.968
  591POPC   C4A12018  24.535  22.030   7.570
  591POPC   C1B12019  24.298  22.663   8.745
  591POPC   C2B12020  24.483  22.581   8.314
  591POPC   C3B12021  24.268  22.500   7.888
  591POPC   C4B12022  24.369  22.478   7.428
  592POPC   NC312023  32.315  41.142   9.429
  592POPC   PO412024  31.802  41.568   9.506
  592POPC   GL112025  32.095  41.537   9.168
  592POPC   GL212026  31.955  41.206   9.091
  592POPC   C1A12027  32.494  41.520   8.858
  592POPC   D2A12028  32.658  41.606   8.414
  592POPC   C3A12029  32.430  41.431   8.057
  592POPC   C4A12030  32.456  41.587   7.631
  592POPC   C1B12031  32.050  41.336   8.709
  592POPC   C2B12032  32.062  41.196   8.341
  592POPC   C3B12033  31.870  41.324   7.989
  592POPC   C4B12034  31.939  41.595   7.657
  593POPC   NC312035  30.415  17.290   9.554
  593POPC   PO412036  30.845  17.779   9.703
  593POPC   GL112037  30.626  17.694   9.300
  593POPC   GL212038  30.759  17.388   9.167
  593POPC   C1A12039  30.360  17.562   8.909
  593POPC   D2A12040  30.220  17.572   8.455
  593POPC   C3A12041  30.360  17.491   8.024
  593POPC   C4A12042  30.654  17.615   7.718
  593POPC   C1B12043  30.766  17.331   8.705
  593POPC   C2B12044  30.819  17.445   8.272
  593POPC   C3B12045  30.895  17.208   7.872
  593POPC   C4B12046  30.869  17.279   7.398
  594POPC   NC312047  18.091  44.489   9.586
  594POPC   PO412048  17.525  44.810   9.564
  594POPC   GL112049  17.475  44.736   9.118
  594POPC   GL212050  17.432  44.368   9.092
  594POPC   C1A12051  17.675  44.929   8.720
  594POPC   D2A12052  17.989  44.982   8.400
  594POPC   C3A12053  17.890  44.972   7.960
  594POPC   C4A12054  17.844  44.728   7.551
  594POPC   C1B12055  17.369  44.513   8.649
  594POPC   C2B12056  17.577  44.645   8.258
  594POPC   C3B12057  17.435  44.778   7.848
  594POPC   C4B12058  17.372  44.863   7.393
  595POPC   NC312059  14.872  14.953   9.707
  595POPC   PO412060  15.347  15.361   9.602
  595POPC   GL112061  15.161  15.137   9.268
  595POPC   GL212062  14.832  15.125   9.188
  595POPC   C1A12063  15.257  15.296   8.862
  595POPC   D2A12064  15.402  15.160   8.457
  595POPC   C3A12065  15.306  15.025   8.048
  595POPC   C4A12066  15.313  15.386   7.807
  595POPC   C1B12067  14.760  15.329   8.777
  595POPC   C2B12068  15.002  15.487   8.432
  595POPC   C3B12069  14.878  15.478   8.031
  595POPC   C4B12070  14.772  15.125   7.770
  596POPC   NC312071   3.864  18.711   9.501
  596POPC   PO412072   3.204  18.596   9.381
  596POPC   GL112073   3.438  18.207   9.172
  596POPC   GL212074   3.744  18.372   9.124
  596POPC   C1A12075   3.675  18.124   8.710
  596POPC   D2A12076   3.690  18.351   8.292
  596POPC   C3A12077   3.458  18.166   7.917
  596POPC   C4A12078   3.656  18.009   7.522
  596POPC   C1B12079   3.354  18.497   8.785
  596POPC   C2B12080   3.224  18.710   8.464
  596POPC   C3B12081   3.377  18.712   8.073
  596POPC   C4B12082   3.208  18.585   7.694
  597POPC   NC312083  10.580  27.593   9.482
  597POPC   PO412084  11.045  27.108   9.334
  597POPC   GL112085  10.703  27.290   9.102
  597POPC   GL212086  10.302  27.300   9.121
  597POPC   C1A12087  10.651  27.472   8.720
  597POPC   D2A12088  10.543  27.406   8.285
  597POPC   C3A12089  10.577  27.825   8.085
  597POPC   C4A12090  10.599  27.854   7.629
  597POPC   C1B12091  10.151  27.374   8.672
  597POPC   C2B12092  10.082  27.670   8.332
  597POPC   C3B12093  10.172  27.608   7.894
  597POPC   C4B12094  10.364  27.384   7.564
  598POPC   NC312095   6.620   9.450   9.510
  598POPC   PO412096   6.479  10.077   9.693
  598POPC   GL112097   6.482   9.888   9.264
  598POPC   GL212098   6.826   9.854   9.208
  598POPC   C1A12099   6.454   9.988   8.805
  598POPC   D2A12100   6.633  10.287   8.446
  598POPC   C3A12101   6.528  10.094   8.041
  598POPC   C4A12102   6.535   9.632   7.872
  598POPC   C1B12103   6.955   9.886   8.775
  598POPC   C2B12104   6.897   9.861   8.366
  598POPC   C3B12105   7.026   9.954   7.977
  598POPC   C4B12106   7.024   9.558   7.823
  599POPC   NC312107  39.459  37.647   9.406
  599POPC   PO412108  38.916  37.291   9.650
  599POPC   GL112109  38.959  37.494   9.202
  599POPC   GL212110  39.083  37.850   9.146
  599POPC   C1A12111  39.019  37.578   8.748
  599POPC   D2A12112  38.987  37.406   8.361
  599POPC   C3A12113  39.348  37.498   8.153
  599POPC   C4A12114  39.442  37.649   7.772
  599POPC   C1B12115  39.396  37.936   8.762
  599POPC   C2B12116  39.558  38.109   8.330
  599POPC   C3B12117  39.431  38.135   7.879
  599POPC   C4B12118  39.049  38.010   7.651
  600POPC   NC312119   9.748  29.771   9.827
  600POPC   PO412120   9.318  30.243   9.540
  600POPC   GL112121   9.501  29.887   9.274
  600POPC   GL212122   9.862  29.937   9.280
  600POPC   C1A12123   9.659  29.713   8.846
  600POPC   D2A12124   9.953  29.650   8.444
  600POPC   C3A12125   9.786  29.739   8.042
  600POPC   C4A12126   9.436  29.948   7.837
  600POPC   C1B12127   9.721  30.202   8.896
  600POPC   C2B12128   9.559  30.341   8.495
  600POPC   C3B12129   9.748  30.243   8.112
  600POPC   C4B12130   9.918  30.134   7.736
  601POPC   NC312131  19.504  33.881   9.745
  601POPC   PO412132  18.874  33.770   9.487
  601POPC   GL112133  18.982  33.614   9.120
  601POPC   GL212134  18.874  33.917   8.995
  601POPC   C1A12135  19.005  33.475   8.689
  601POPC   D2A12136  19.014  33.679   8.316
  601POPC   C3A12137  18.851  33.529   7.951
  601POPC   C4A12138  19.068  33.779   7.679
  601POPC   C1B12139  18.791  34.038   8.599
  601POPC   C2B12140  18.996  34.188   8.210
  601POPC   C3B12141  19.248  34.240   7.823
  601POPC   C4B12142  19.211  34.131   7.353
  602POPC   NC312143  12.490  24.803   9.569
  602POPC   PO412144  13.020  24.442   9.402
  602POPC   GL112145  12.851  24.537   8.996
  602POPC   GL212146  12.576  24.732   9.083
  602POPC   C1A12147  12.882  24.434   8.540
  602POPC   D2A12148  13.078  24.094   8.279
  602POPC   C3A12149  13.174  24.230   7.864
  602POPC   C4A12150  12.937  24.534   7.637
  602POPC   C1B12151  12.411  24.582   8.698
  602POPC   C2B12152  12.511  24.666   8.262
  602POPC   C3B12153  12.621  24.870   7.874
  602POPC   C4B12154  12.671  24.905   7.403
  603POPC   NC312155  17.130  28.540   9.418
  603POPC   PO412156  16.666  28.050   9.561
  603POPC   GL112157  16.803  28.169   9.176
  603POPC   GL212158  16.869  27.839   9.122
  603POPC   C1A12159  16.802  28.418   8.786
  603POPC   D2A12160  16.656  28.315   8.348
  603POPC   C3A12161  16.875  28.501   7.982
  603POPC   C4A12162  16.671  28.674   7.620
  603POPC   C1B12163  16.663  27.919   8.709
  603POPC   C2B12164  16.863  27.861   8.307
  603POPC   C3B12165  16.740  28.014   7.882
  603POPC   C4B12166  17.008  28.216   7.559
  604POPC   NC312167  14.327  19.296   9.486
  604POPC   PO412168  14.921  19.276   9.349
  604POPC   GL112169  14.624  19.302   9.041
  604POPC   GL212170  14.418  19.022   9.026
  604POPC   C1A12171  14.518  19.291   8.606
  604POPC   D2A12172  14.286  19.051   8.387
  604POPC   C3A12173  14.384  19.156   8.006
  604POPC   C4A12174  14.095  19.134   7.674
  604POPC   C1B12175  14.603  18.781   8.707
  604POPC   C2B12176  14.720  18.809   8.283
  604POPC   C3B12177  14.824  18.904   7.882
  604POPC   C4B12178  14.626  18.996   7.532
  605POPC   NC312179  22.764  35.288   9.585
  605POPC   PO412180  23.147  35.854   9.481
  605POPC   GL112181  22.940  35.564   9.177
  605POPC   GL212182  23.065  35.203   9.171
  605POPC   C1A12183  22.998  35.516   8.756
  605POPC   D2A12184  23.290  35.505   8.457
  605POPC   C3A12185  23.002  35.566   8.136
  605POPC   C4A12186  22.894  35.635   7.739
  605POPC   C1B12187  23.076  35.007   8.766
  605POPC   C2B12188  22.945  35.109   8.342
  605POPC   C3B12189  23.159  35.127   7.917
  605POPC   C4B12190  23.346  34.983   7.514
  606POPC   NC312191  36.972  21.659   9.641
  606POPC   PO412192  37.145  21.019   9.648
  606POPC   GL112193  36.878  21.273   9.278
  606POPC   GL212194  36.872  21.638   9.158
  606POPC   C1A12195  36.849  21.318   8.789
  606POPC   D2A12196  36.913  21.087   8.412
  606POPC   C3A12197  36.839  21.242   7.964
  606POPC   C4A12198  36.865  21.218   7.478
  606POPC   C1B12199  36.582  21.797   8.840
  606POPC   C2B12200  36.594  21.638   8.424
  606POPC   C3B12201  36.406  21.528   8.042
  606POPC   C4B12202  36.636  21.643   7.676
  607POPC   NC312203  28.906  31.904   9.403
  607POPC   PO412204  29.195  31.303   9.413
  607POPC   GL112205  29.199  31.603   9.086
  607POPC   GL212206  28.888  31.639   8.962
  607POPC   C1A12207  29.499  31.669   8.785
  607POPC   D2A12208  29.486  31.500   8.389
  607POPC   C3A12209  29.581  31.747   8.040
  607POPC   C4A12210  29.348  31.667   7.708
  607POPC   C1B12211  28.936  31.474   8.540
  607POPC   C2B12212  28.698  31.506   8.142
  607POPC   C3B12213  28.832  31.629   7.728
  607POPC   C4B12214  28.778  32.009   7.450
  608POPC   NC312215   6.316  42.263   9.485
  608POPC   PO412216   6.768  41.871   9.360
  608POPC   GL112217   6.561  42.169   9.017
  608POPC   GL212218   6.465  42.515   9.065
  608POPC   C1A12219   6.464  42.380   8.585
  608POPC   D2A12220   6.396  42.438   8.143
  608POPC   C3A12221   6.569  42.191   7.795
  608POPC   C4A12222   6.891  42.039   7.497
  608POPC   C1B12223   6.726  42.793   8.768
  608POPC   C2B12224   6.646  42.875   8.331
  608POPC   C3B12225   6.642  42.774   7.869
  608POPC   C4B12226   6.781  42.559   7.481
  609POPC   NC312227   4.704  18.512   9.229
  609POPC   PO412228   4.072  18.181   9.560
  609POPC   GL112229   4.157  18.041   9.186
  609POPC   GL212230   4.485  17.970   9.242
  609POPC   C1A12231   4.177  18.286   8.810
  609POPC   D2A12232   4.324  18.575   8.509
  609POPC   C3A12233   4.289  18.402   8.093
  609POPC   C4A12234   3.953  18.291   7.818
  609POPC   C1B12235   4.568  17.907   8.828
  609POPC   C2B12236   4.531  17.733   8.431
  609POPC   C3B12237   4.711  17.778   8.046
  609POPC   C4B12238   4.610  18.031   7.735
  610POPC   NC312239  18.051  42.516   9.379
  610POPC   PO412240  18.588  42.259   9.410
  610POPC   GL112241  18.230  42.121   9.124
  610POPC   GL212242  18.324  42.384   8.956
  610POPC   C1A12243  18.043  42.033   8.721
  610POPC   D2A12244  18.274  42.322   8.457
  610POPC   C3A12245  18.240  42.337   8.037
  610POPC   C4A12246  18.502  42.341   7.708
  610POPC   C1B12247  18.142  42.735   8.749
  610POPC   C2B12248  17.969  42.712   8.320
  610POPC   C3B12249  18.086  42.849   7.942
  610POPC   C4B12250  18.119  42.629   7.589
  611POPC   NC312251  40.378  40.572   9.563
  611POPC   PO412252  39.760  40.832   9.559
  611POPC   GL112253  39.878  40.804   9.172
  611POPC   GL212254  40.056  40.496   9.152
  611POPC   C1A12255  39.832  40.910   8.766
  611POPC   D2A12256  39.971  40.592   8.530
  611POPC   C3A12257  39.905  40.482   8.158
  611POPC   C4A12258  39.891  40.483   7.768
  611POPC   C1B12259  40.321  40.790   8.899
  611POPC   C2B12260  40.462  40.795   8.482
  611POPC   C3B12261  40.315  40.778   8.021
  611POPC   C4B12262  40.407  40.740   7.550
  612POPC   NC312263   6.128  14.933   9.357
  612POPC   PO412264   5.621  15.345   9.455
  612POPC   GL112265   5.875  15.302   9.087
  612POPC   GL212266   6.187  15.429   9.029
  612POPC   C1A12267   6.018  15.066   8.701
  612POPC   D2A12268   5.950  14.905   8.277
  612POPC   C3A12269   5.581  15.037   8.032
  612POPC   C4A12270   5.620  15.286   7.680
  612POPC   C1B12271   5.973  15.610   8.688
  612POPC   C2B12272   5.999  15.833   8.312
  612POPC   C3B12273   5.878  15.573   8.030
  612POPC   C4B12274   6.102  15.246   7.887
  613POPC   NC312275  31.281  36.197   9.518
  613POPC   PO412276  31.859  35.917   9.490
  613POPC   GL112277  31.588  35.989   9.104
  613POPC   GL212278  31.259  35.803   9.200
  613POPC   C1A12279  31.613  36.316   8.733
  613POPC   D2A12280  31.540  36.382   8.256
  613POPC   C3A12281  31.832  36.266   7.923
  613POPC   C4A12282  31.922  35.871   7.715
  613POPC   C1B12283  31.160  35.861   8.783
  613POPC   C2B12284  31.494  35.890   8.485
  613POPC   C3B12285  31.520  35.885   8.066
  613POPC   C4B12286  31.334  36.214   7.809
  614POPC   NC312287  38.088  22.916   9.303
  614POPC   PO412288  38.664  22.955   9.629
  614POPC   GL112289  38.566  22.849   9.123
  614POPC   GL212290  38.359  23.144   8.948
  614POPC   C1A12291  38.641  22.913   8.616
  614POPC   D2A12292  38.350  23.049   8.335
  614POPC   C3A12293  38.521  23.057   7.932
  614POPC   C4A12294  38.755  22.767   7.684
  614POPC   C1B12295  38.208  22.695   8.743
  614POPC   C2B12296  38.147  22.566   8.353
  614POPC   C3B12297  38.042  22.844   7.978
  614POPC   C4B12298  38.260  22.825   7.552
  615POPC   NC312299   6.252  18.111   9.613
  615POPC   PO412300   5.894  18.673   9.540
  615POPC   GL112301   6.048  18.374   9.212
  615POPC   GL212302   5.971  18.007   9.199
  615POPC   C1A12303   5.931  18.364   8.780
  615POPC   D2A12304   6.161  18.332   8.411
  615POPC   C3A12305   6.009  18.531   8.046
  615POPC   C4A12306   6.205  18.532   7.616
  615POPC   C1B12307   5.821  17.847   8.813
  615POPC   C2B12308   5.763  17.984   8.381
  615POPC   C3B12309   5.983  18.005   7.952
  615POPC   C4B12310   5.967  17.922   7.475
  616POPC   NC312311  18.214   6.193   9.398
  616POPC   PO412312  18.496   5.621   9.541
  616POPC   GL112313  18.310   5.755   9.122
  616POPC   GL212314  17.973   5.740   9.225
  616POPC   C1A12315  18.119   5.964   8.712
  616POPC   D2A12316  17.980   5.896   8.239
  616POPC   C3A12317  18.211   6.067   7.872
  616POPC   C4A12318  18.415   6.050   7.443
  616POPC   C1B12319  17.882   5.494   8.855
  616POPC   C2B12320  17.762   5.425   8.423
  616POPC   C3B12321  18.046   5.407   8.083
  616POPC   C4B12322  18.295   5.322   7.736
  617POPC   NC312323  20.721  29.588   9.479
  617POPC   PO412324  20.974  28.894   9.473
  617POPC   GL112325  20.737  29.016   9.116
  617POPC   GL212326  20.689  29.354   9.049
  617POPC   C1A12327  20.496  29.004   8.732
  617POPC   D2A12328  20.365  29.121   8.298
  617POPC   C3A12329  20.691  29.006   8.050
  617POPC   C4A12330  20.664  28.812   7.648
  617POPC   C1B12331  20.852  29.722   8.813
  617POPC   C2B12332  20.994  29.651   8.383
  617POPC   C3B12333  20.946  29.487   7.969
  617POPC   C4B12334  20.667  29.318   7.666
  618POPC   NC312335  14.301  21.672   9.750
  618POPC   PO412336  14.296  22.195   9.295
  618POPC   GL112337  14.488  22.160   8.953
  618POPC   GL212338  14.218  21.943   8.816
  618POPC   C1A12339  14.726  21.977   8.667
  618POPC   D2A12340  14.925  21.895   8.303
  618POPC   C3A12341  14.608  21.964   8.049
  618POPC   C4A12342  14.621  21.924   7.633
  618POPC   C1B12343  14.227  22.359   8.575
  618POPC   C2B12344  14.487  22.505   8.218
  618POPC   C3B12345  14.414  22.357   7.801
  618POPC   C4B12346  14.130  22.040   7.740
  619POPC   NC312347   0.240  17.828   9.670
  619POPC   PO412348   0.519  17.326   9.548
  619POPC   GL112349   0.478  17.557   9.151
  619POPC   GL212350   0.210  17.743   9.160
  619POPC   C1A12351   0.623  17.752   8.778
  619POPC   D2A12352   0.678  17.790   8.340
  619POPC   C3A12353   0.448  17.445   8.120
  619POPC   C4A12354   0.548  17.253   7.702
  619POPC   C1B12355   0.147  17.931   8.798
  619POPC   C2B12356   0.165  17.761   8.449
  619POPC   C3B12357   0.008  17.755   8.064
  619POPC   C4B12358   0.212  17.638   7.685
  620POPC   NC312359  42.374  16.890   9.533
  620POPC   PO412360  42.169  17.527   9.574
  620POPC   GL112361  42.420  17.572   9.238
  620POPC   GL212362  42.552  17.249   9.192
  620POPC   C1A12363  42.390  17.704   8.816
  620POPC   D2A12364  42.621  17.611   8.444
  620POPC   C3A12365  42.446  17.603   8.017
  620POPC   C4A12366  42.420  17.532   7.561
  620POPC   C1B12367  42.497  17.180   8.732
  620POPC   C2B12368  42.432  17.169   8.268
  620POPC   C3B12369  42.487  17.098   7.825
  620POPC   C4B12370  42.757  17.082   7.448
  621POPC   NC312371  40.446   0.646   9.327
  621POPC   PO412372  41.009   0.316   9.501
  621POPC   GL112373  40.851   0.352   9.100
  621POPC   GL212374  40.937   0.684   9.027
  621POPC   C1A12375  40.927   0.255   8.659
  621POPC   D2A12376  40.717  44.985   8.326
  621POPC   C3A12377  40.347   0.211   8.193
  621POPC   C4A12378  40.386   0.572   7.899
  621POPC   C1B12379  40.669   0.718   8.646
  621POPC   C2B12380  40.752   0.530   8.252
  621POPC   C3B12381  40.968   0.613   7.862
  621POPC   C4B12382  41.099   0.738   7.415
  622POPC   NC312383  32.496  32.117   9.337
  622POPC   PO412384  31.836  32.003   9.625
  622POPC   GL112385  31.928  32.215   9.205
  622POPC   GL212386  32.178  32.391   9.091
  622POPC   C1A12387  31.873  32.252   8.716
  622POPC   D2A12388  31.943  32.029   8.329
  622POPC   C3A12389  32.166  32.279   8.085
  622POPC   C4A12390  32.099  32.492   7.718
  622POPC   C1B12391  32.480  32.439   8.743
  622POPC   C2B12392  32.564  32.621   8.318
  622POPC   C3B12393  32.586  32.510   7.878
  622POPC   C4B12394  32.525  32.458   7.406
  623POPC   NC312395  27.323  15.993   9.611
  623POPC   PO412396  27.877  16.277   9.536
  623POPC   GL112397  27.585  16.241   9.196
  623POPC   GL212398  27.495  15.919   9.115
  623POPC   C1A12399  27.545  16.372   8.758
  623POPC   D2A12400  27.316  16.223   8.395
  623POPC   C3A12401  27.439  15.930   8.091
  623POPC   C4A12402  27.194  15.750   7.746
  623POPC   C1B12403  27.822  15.958   8.791
  623POPC   C2B12404  27.925  16.189   8.394
  623POPC   C3B12405  27.932  16.012   7.958
  623POPC   C4B12406  27.765  15.610   7.793
  624POPC   NC312407  11.001   1.442   9.448
  624POPC   PO412408  11.502   0.977   9.468
  624POPC   GL112409  11.259   1.093   9.153
  624POPC   GL212410  10.945   0.942   9.246
  624POPC   C1A12411  11.379   1.218   8.733
  624POPC   D2A12412  11.746   1.286   8.442
  624POPC   C3A12413  11.584   1.372   8.013
  624POPC   C4A12414  11.446   1.055   7.724
  624POPC   C1B12415  10.854   1.120   8.824
  624POPC   C2B12416  10.985   1.160   8.385
  624POPC   C3B12417  10.955   1.435   8.028
  624POPC   C4B12418  11.219   1.497   7.657
  625POPC   NC312419   4.739  29.425   9.415
  625POPC   PO412420   4.855  28.735   9.516
  625POPC   GL112421   5.055  28.973   9.181
  625POPC   GL212422   5.183  29.302   9.156
  625POPC   C1A12423   5.200  28.953   8.765
  625POPC   D2A12424   5.003  29.038   8.369
  625POPC   C3A12425   5.141  28.914   7.962
  625POPC   C4A12426   4.865  28.874   7.607
  625POPC   C1B12427   5.394  29.447   8.770
  625POPC   C2B12428   5.358  29.389   8.303
  625POPC   C3B12429   5.087  29.430   7.927
  625POPC   C4B12430   5.091  29.320   7.499
  626POPC   NC312431  18.484   0.178   9.397
  626POPC   PO412432  18.038   0.663   9.461
  626POPC   GL112433  18.280   0.550   9.073
  626POPC   GL212434  18.652   0.583   9.080
  626POPC   C1A12435  18.320   0.667   8.640
  626POPC   D2A12436  18.024   0.517   8.332
  626POPC   C3A12437  18.160   0.450   7.904
  626POPC   C4A12438  18.218   0.552   7.441
  626POPC   C1B12439  18.611   0.260   8.733
  626POPC   C2B12440  18.530   0.337   8.267
  626POPC   C3B12441  18.613   0.118   7.842
  626POPC   C4B12442  18.616   0.228   7.358
  627POPC   NC312443  20.171   8.048   9.769
  627POPC   PO412444  19.660   7.659   9.637
  627POPC   GL112445  19.663   7.402   9.229
  627POPC   GL212446  19.566   7.072   9.123
  627POPC   C1A12447  19.630   7.498   8.767
  627POPC   D2A12448  19.894   7.571   8.388
  627POPC   C3A12449  19.825   7.484   7.944
  627POPC   C4A12450  19.715   7.504   7.521
  627POPC   C1B12451  19.594   7.010   8.637
  627POPC   C2B12452  19.867   7.060   8.256
  627POPC   C3B12453  19.864   6.979   7.808
  627POPC   C4B12454  19.648   6.629   7.617
  628POPC   NC312455  19.650  42.462   9.366
  628POPC   PO412456  19.761  41.855   9.622
  628POPC   GL112457  20.041  42.095   9.185
  628POPC   GL212458  20.090  42.438   9.095
  628POPC   C1A12459  19.920  42.081   8.688
  628POPC   D2A12460  19.515  41.999   8.411
  628POPC   C3A12461  19.473  42.222   8.000
  628POPC   C4A12462  19.768  42.213   7.662
  628POPC   C1B12463  20.264  42.440   8.702
  628POPC   C2B12464  20.366  42.329   8.307
  628POPC   C3B12465  20.169  42.267   7.973
  628POPC   C4B12466  20.125  42.584   7.686
  629POPC   NC312467   2.115  44.393   9.442
  629POPC   PO412468   2.173   0.036   9.346
  629POPC   GL112469   1.999  44.771   8.965
  629POPC   GL212470   2.077  44.392   8.950
  629POPC   C1A12471   1.720  44.533   8.644
  629POPC   D2A12472   1.622  44.332   8.252
  629POPC   C3A12473   1.827  44.609   7.947
  629POPC   C4A12474   1.857   0.075   7.911
  629POPC   C1B12475   2.239  44.096   8.637
  629POPC   C2B12476   2.370  44.135   8.181
  629POPC   C3B12477   2.284  44.388   7.815
  629POPC   C4B12478   2.552  44.491   7.446
  630POPC   NC312479  14.605  20.773   9.435
  630POPC   PO412480  13.997  20.495   9.366
  630POPC   GL112481  14.340  20.483   9.094
  630POPC   GL212482  14.219  20.146   9.025
  630POPC   C1A12483  14.529  20.748   8.752
  630POPC   D2A12484  14.356  21.062   8.441
  630POPC   C3A12485  14.451  20.915   8.003
  630POPC   C4A12486  14.719  20.572   7.802
  630POPC   C1B12487  14.052  20.406   8.690
  630POPC   C2B12488  14.287  20.524   8.332
  630POPC   C3B12489  14.345  20.275   7.978
  630POPC   C4B12490  14.144  20.131   7.630
  631POPC   NC312491  18.411   0.931   9.383
  631POPC   PO412492  17.927   1.352   9.482
  631POPC   GL112493  18.111   1.281   9.105
  631POPC   GL212494  18.451   1.355   9.084
  631POPC   C1A12495  18.066   1.111   8.715
  631POPC   D2A12496  17.976   1.300   8.339
  631POPC   C3A12497  17.926   0.960   8.087
  631POPC   C4A12498  18.228   0.951   7.758
  631POPC   C1B12499  18.585   1.132   8.693
  631POPC   C2B12500  18.415   1.027   8.268
  631POPC   C3B12501  18.657   1.186   7.889
  631POPC   C4B12502  18.466   1.307   7.474
  632POPC   NC312503  37.466  16.926   9.559
  632POPC   PO412504  38.050  16.749   9.435
  632POPC   GL112505  37.696  16.948   9.099
  632POPC   GL212506  37.334  17.106   9.091
  632POPC   C1A12507  37.522  16.891   8.647
  632POPC   D2A12508  37.727  17.032   8.246
  632POPC   C3A12509  37.828  16.672   7.928
  632POPC   C4A12510  37.907  16.373   7.564
  632POPC   C1B12511  37.202  17.326   8.699
  632POPC   C2B12512  37.204  17.114   8.267
  632POPC   C3B12513  37.388  16.915   7.863
  632POPC   C4B12514  37.287  16.970   7.418
  633POPC   NC312515   0.077  43.020   9.451
  633POPC   PO412516   0.790  43.132   9.466
  633POPC   GL112517   0.480  43.122   9.126
  633POPC   GL212518   0.181  43.358   9.109
  633POPC   C1A12519   0.542  42.978   8.725
  633POPC   D2A12520   0.790  42.927   8.381
  633POPC   C3A12521   0.709  43.206   8.045
  633POPC   C4A12522   0.652  42.902   7.699
  633POPC   C1B12523   0.088  43.209   8.723
  633POPC   C2B12524   0.233  43.346   8.300
  633POPC   C3B12525   0.039  43.172   7.913
  633POPC   C4B12526   0.032  43.030   7.479
  634POPC   NC312527  22.431  41.545   9.652
  634POPC   PO412528  23.073  41.367   9.628
  634POPC   GL112529  22.979  41.467   9.233
  634POPC   GL212530  22.728  41.709   9.238
  634POPC   C1A12531  23.063  41.482   8.803
  634POPC   D2A12532  23.058  41.694   8.434
  634POPC   C3A12533  23.007  41.503   8.040
  634POPC   C4A12534  22.988  41.722   7.653
  634POPC   C1B12535  22.569  41.586   8.807
  634POPC   C2B12536  22.639  41.357   8.401
  634POPC   C3B12537  22.524  41.309   7.959
  634POPC   C4B12538  22.289  41.612   7.739
  635POPC   NC312539  15.672  43.055   9.617
  635POPC   PO412540  16.298  43.289   9.518
  635POPC   GL112541  16.045  43.038   9.257
  635POPC   GL212542  15.865  43.331   9.204
  635POPC   C1A12543  15.788  42.881   8.909
  635POPC   D2A12544  15.918  42.921   8.472
  635POPC   C3A12545  15.691  43.013   8.088
  635POPC   C4A12546  15.950  42.867   7.727
  635POPC   C1B12547  16.012  43.334   8.798
  635POPC   C2B12548  15.913  43.426   8.400
  635POPC   C3B12549  16.116  43.272   8.038
  635POPC   C4B12550  15.942  43.364   7.662
  636POPC   NC312551  22.679  21.467   9.493
  636POPC   PO412552  22.988  20.896   9.466
  636POPC   GL112553  22.832  21.125   9.141
  636POPC   GL212554  23.165  21.280   9.140
  636POPC   C1A12555  22.803  21.361   8.763
  636POPC   D2A12556  22.734  21.535   8.358
  636POPC   C3A12557  22.778  21.305   7.992
  636POPC   C4A12558  23.041  21.460   7.698
  636POPC   C1B12559  23.187  21.016   8.766
  636POPC   C2B12560  23.021  21.067   8.371
  636POPC   C3B12561  23.241  21.078   7.969
  636POPC   C4B12562  23.436  21.159   7.525
  637POPC   NC312563  10.634  29.375   9.588
  637POPC   PO412564  10.390  28.765   9.526
  637POPC   GL112565  10.380  29.095   9.190
  637POPC   GL212566  10.677  29.311   9.106
  637POPC   C1A12567  10.524  28.958   8.773
  637POPC   D2A12568  10.706  29.023   8.379
  637POPC   C3A12569  10.456  28.844   8.064
  637POPC   C4A12570  10.322  29.005   7.671
  637POPC   C1B12571  10.497  29.466   8.740
  637POPC   C2B12572  10.510  29.588   8.344
  637POPC   C3B12573  10.579  29.362   8.008
  637POPC   C4B12574  10.607  29.419   7.600
  638POPC   NC312575  23.284  13.500   9.442
  638POPC   PO412576  22.624  13.602   9.502
  638POPC   GL112577  22.806  13.778   9.126
  638POPC   GL212578  23.149  13.853   9.110
  638POPC   C1A12579  22.897  13.617   8.709
  638POPC   D2A12580  22.830  13.366   8.309
  638POPC   C3A12581  22.820  13.544   7.901
  638POPC   C4A12582  23.155  13.404   7.658
  638POPC   C1B12583  23.322  13.879   8.706
  638POPC   C2B12584  23.307  13.608   8.367
  638POPC   C3B12585  23.251  13.786   7.984
  638POPC   C4B12586  23.508  13.794   7.640
  639POPC   NC312587  22.517  16.133   9.536
  639POPC   PO412588  23.139  16.090   9.698
  639POPC   GL112589  23.088  16.001   9.274
  639POPC   GL212590  23.074  15.624   9.215
  639POPC   C1A12591  22.867  16.143   8.926
  639POPC   D2A12592  22.827  16.079   8.486
  639POPC   C3A12593  22.952  16.346   8.138
  639POPC   C4A12594  22.896  16.235   7.688
  639POPC   C1B12595  23.001  15.636   8.776
  639POPC   C2B12596  23.190  15.745   8.379
  639POPC   C3B12597  22.942  15.830   8.020
  639POPC   C4B12598  22.737  15.567   7.711
  640POPC   NC312599  17.245  21.162   9.627
  640POPC   PO412600  16.599  21.387   9.533
  640POPC   GL112601  16.587  21.280   9.108
  640POPC   GL212602  16.877  21.029   9.066
  640POPC   C1A12603  16.508  21.151   8.724
  640POPC   D2A12604  16.727  21.300   8.397
  640POPC   C3A12605  16.524  21.371   7.977
  640POPC   C4A12606  16.502  21.434   7.531
  640POPC   C1B12607  17.212  21.043   8.783
  640POPC   C2B12608  17.127  20.983   8.364
  640POPC   C3B12609  16.839  20.970   8.049
  640POPC   C4B12610  16.888  21.117   7.654
  641POPC   NC312611   2.654   9.253   9.360
  641POPC   PO412612   2.800   9.907   9.631
  641POPC   GL112613   2.695   9.787   9.248
  641POPC   GL212614   2.693  10.109   9.138
  641POPC   C1A12615   2.728   9.670   8.801
  641POPC   D2A12616   2.824   9.520   8.385
  641POPC   C3A12617   2.513   9.683   8.107
  641POPC   C4A12618   2.519   9.995   7.778
  641POPC   C1B12619   3.096  10.000   8.937
  641POPC   C2B12620   3.166   9.948   8.508
  641POPC   C3B12621   2.929  10.007   8.121
  641POPC   C4B12622   2.946  10.264   7.738
  642POPC   NC312623  13.478  21.789   9.818
  642POPC   PO412624  13.328  21.238   9.354
  642POPC   GL112625  13.614  21.371   9.032
  642POPC   GL212626  13.772  21.706   9.004
  642POPC   C1A12627  13.523  21.446   8.615
  642POPC   D2A12628  13.747  21.572   8.250
  642POPC   C3A12629  13.742  21.302   7.904
  642POPC   C4A12630  13.454  21.302   7.562
  642POPC   C1B12631  13.423  21.912   8.750
  642POPC   C2B12632  13.281  21.845   8.314
  642POPC   C3B12633  13.441  21.820   7.885
  642POPC   C4B12634  13.781  21.694   7.597
  643POPC   NC312635  40.293  39.028   9.409
  643POPC   PO412636  39.587  39.220   9.453
  643POPC   GL112637  39.868  39.327   9.104
  643POPC   GL212638  40.179  39.511   9.183
  643POPC   C1A12639  39.919  39.062   8.721
  643POPC   D2A12640  40.216  38.972   8.414
  643POPC   C3A12641  40.210  39.119   8.006
  643POPC   C4A12642  39.777  39.078   7.879
  643POPC   C1B12643  40.315  39.387   8.754
  643POPC   C2B12644  40.031  39.470   8.391
  643POPC   C3B12645  39.957  39.549   7.954
  643POPC   C4B12646  40.088  39.506   7.534
  644POPC   NC312647  17.491  39.872   9.506
  644POPC   PO412648  17.905  40.453   9.410
  644POPC   GL112649  17.755  40.083   9.113
  644POPC   GL212650  17.835  39.707   9.192
  644POPC   C1A12651  17.651  40.019   8.639
  644POPC   D2A12652  17.329  39.849   8.362
  644POPC   C3A12653  17.220  40.029   7.968
  644POPC   C4A12654  17.216  40.135   7.524
  644POPC   C1B12655  17.958  39.660   8.797
  644POPC   C2B12656  18.000  39.616   8.351
  644POPC   C3B12657  17.817  39.943   8.092
  644POPC   C4B12658  17.649  39.893   7.693
  645POPC   NC312659   8.877  14.692   9.415
  645POPC   PO412660   8.804  14.044   9.562
  645POPC   GL112661   8.946  14.138   9.102
  645POPC   GL212662   8.934  14.495   8.952
  645POPC   C1A12663   8.820  14.092   8.667
  645POPC   D2A12664   8.812  14.449   8.388
  645POPC   C3A12665   8.944  14.282   7.996
  645POPC   C4A12666   9.263  14.207   7.699
  645POPC   C1B12667   9.294  14.422   8.672
  645POPC   C2B12668   9.445  14.612   8.285
  645POPC   C3B12669   9.246  14.712   7.876
  645POPC   C4B12670   9.265  14.615   7.390
  646POPC   NC312671  41.407  16.768   9.557
  646POPC   PO412672  42.014  16.606   9.573
  646POPC   GL112673  41.885  16.920   9.235
  646POPC   GL212674  41.697  16.652   9.095
  646POPC   C1A12675  41.666  17.052   8.793
  646POPC   D2A12676  41.580  16.770   8.437
  646POPC   C3A12677  41.578  16.907   7.987
  646POPC   C4A12678  41.321  16.749   7.640
  646POPC   C1B12679  42.024  16.709   8.744
  646POPC   C2B12680  42.063  16.833   8.290
  646POPC   C3B12681  42.043  16.825   7.813
  646POPC   C4B12682  41.804  16.507   7.533
  647POPC   NC312683  23.281  36.443   9.490
  647POPC   PO412684  23.930  36.120   9.481
  647POPC   GL112685  23.738  36.102   9.082
  647POPC   GL212686  23.539  36.411   9.037
  647POPC   C1A12687  23.775  36.174   8.638
  647POPC   D2A12688  23.658  35.937   8.285
  647POPC   C3A12689  23.751  36.161   7.916
  647POPC   C4A12690  23.770  35.976   7.524
  647POPC   C1B12691  23.330  36.455   8.632
  647POPC   C2B12692  23.380  36.408   8.176
  647POPC   C3B12693  23.340  36.394   7.707
  647POPC   C4B12694  23.575  36.380   7.298
  648POPC   NC312695  12.890  35.651   9.574
  648POPC   PO412696  12.923  35.010   9.561
  648POPC   GL112697  12.748  35.269   9.228
  648POPC   GL212698  13.072  35.425   9.160
  648POPC   C1A12699  12.565  35.424   8.819
  648POPC   D2A12700  12.763  35.476   8.396
  648POPC   C3A12701  12.563  35.541   7.991
  648POPC   C4A12702  12.863  35.470   7.677
  648POPC   C1B12703  13.076  35.249   8.786
  648POPC   C2B12704  13.255  35.371   8.414
  648POPC   C3B12705  13.269  35.250   8.017
  648POPC   C4B12706  13.367  35.514   7.723
  649POPC   NC312707  43.893   8.024   9.762
  649POPC   PO412708  43.709   8.625   9.544
  649POPC   GL112709  43.960   8.487   9.208
  649POPC   GL212710  43.899   8.149   9.261
  649POPC   C1A12711  44.088   8.360   8.781
  649POPC   D2A12712  44.183   8.222   8.331
  649POPC   C3A12713  44.146   8.481   7.924
  649POPC   C4A12714  44.130   8.659   7.471
  649POPC   C1B12715  43.759   7.953   8.895
  649POPC   C2B12716  43.705   8.049   8.473
  649POPC   C3B12717  43.818   7.941   8.044
  649POPC   C4B12718  43.575   7.845   7.684
  650POPC   NC312719  25.061  12.835   9.437
  650POPC   PO412720  25.637  12.667   9.663
  650POPC   GL112721  25.581  12.651   9.200
  650POPC   GL212722  25.265  12.500   9.106
  650POPC   C1A12723  25.492  12.726   8.728
  650POPC   D2A12724  25.224  12.572   8.385
  650POPC   C3A12725  25.430  12.456   8.021
  650POPC   C4A12726  25.568  12.869   7.816
  650POPC   C1B12727  24.911  12.549   8.805
  650POPC   C2B12728  24.783  12.283   8.445
  650POPC   C3B12729  24.872  12.412   8.003
  650POPC   C4B12730  25.058  12.787   7.878
  651POPC   NC312731  23.039   1.534   9.536
  651POPC   PO412732  23.060   0.835   9.610
  651POPC   GL112733  23.117   1.089   9.252
  651POPC   GL212734  22.809   1.225   9.153
  651POPC   C1A12735  23.253   1.050   8.809
  651POPC   D2A12736  23.006   0.946   8.440
  651POPC   C3A12737  23.054   1.109   8.060
  651POPC   C4A12738  22.811   1.021   7.726
  651POPC   C1B12739  22.855   1.374   8.714
  651POPC   C2B12740  22.910   1.548   8.280
  651POPC   C3B12741  22.681   1.505   7.868
  651POPC   C4B12742  22.604   1.385   7.410
  652POPC   NC312743   8.624  37.148   9.837
  652POPC   PO412744   8.807  36.693   9.581
  652POPC   GL112745   9.034  36.676   9.159
  652POPC   GL212746   9.247  36.348   9.137
  652POPC   C1A12747   8.862  36.755   8.707
  652POPC   D2A12748   8.864  36.806   8.231
  652POPC   C3A12749   8.631  36.673   7.820
  652POPC   C4A12750   8.553  36.773   7.340
  652POPC   C1B12751   9.235  36.408   8.702
  652POPC   C2B12752   9.295  36.517   8.291
  652POPC   C3B12753   9.165  36.596   7.862
  652POPC   C4B12754   9.024  36.906   7.551
  653POPC   NC312755  44.131   2.655   9.430
  653POPC   PO412756  43.644   3.156   9.544
  653POPC   GL112757  43.762   2.866   9.197
  653POPC   GL212758  44.090   3.028   9.067
  653POPC   C1A12759  43.939   2.598   8.811
  653POPC   D2A12760  44.166   2.587   8.406
  653POPC   C3A12761  43.961   2.572   7.995
  653POPC   C4A12762  44.088   2.861   7.653
  653POPC   C1B12763  43.720   3.065   8.755
  653POPC   C2B12764  43.721   2.879   8.393
  653POPC   C3B12765  43.908   3.077   8.078
  653POPC   C4B12766  43.623   3.005   7.793
  654POPC   NC312767  38.155   0.622   9.447
  654POPC   PO412768  38.718   0.424   9.668
  654POPC   GL112769  38.616   0.500   9.229
  654POPC   GL212770  38.383   0.242   9.129
  654POPC   C1A12771  38.531   0.549   8.769
  654POPC   D2A12772  38.543   0.267   8.394
  654POPC   C3A12773  38.648   0.392   8.000
  654POPC   C4A12774  38.506   0.746   7.790
  654POPC   C1B12775  38.189   0.159   8.734
  654POPC   C2B12776  38.179  44.907   8.353
  654POPC   C3B12777  38.161  44.974   7.946
  654POPC   C4B12778  38.364   0.119   7.649
  655POPC   NC312779  27.102  17.711   9.410
  655POPC   PO412780  27.762  17.879   9.613
  655POPC   GL112781  27.662  17.646   9.238
  655POPC   GL212782  27.586  17.275   9.185
  655POPC   C1A12783  27.882  17.570   8.858
  655POPC   D2A12784  27.705  17.577   8.470
  655POPC   C3A12785  27.843  17.808   8.122
  655POPC   C4A12786  28.018  17.744   7.741
  655POPC   C1B12787  27.287  17.272   8.819
  655POPC   C2B12788  27.375  17.202   8.378
  655POPC   C3B12789  27.498  17.425   8.013
  655POPC   C4B12790  27.700  17.361   7.627
  656POPC   NC312791   4.975  23.008   9.648
  656POPC   PO412792   5.445  22.713   9.647
  656POPC   GL112793   5.303  22.874   9.215
  656POPC   GL212794   4.981  22.726   9.133
  656POPC   C1A12795   5.147  23.073   8.796
  656POPC   D2A12796   4.888  23.009   8.404
  656POPC   C3A12797   5.014  23.064   7.950
  656POPC   C4A12798   4.919  23.262   7.512
  656POPC   C1B12799   5.135  22.578   8.689
  656POPC   C2B12800   5.282  22.687   8.259
  656POPC   C3B12801   5.130  22.549   7.848
  656POPC   C4B12802   5.183  22.438   7.376
  657POPC   NC312803  34.853  13.883   9.457
  657POPC   PO412804  34.808  13.199   9.306
  657POPC   GL112805  34.590  13.561   9.146
  657POPC   GL212806  34.265  13.714   9.206
  657POPC   C1A12807  34.542  13.550   8.723
  657POPC   D2A12808  34.342  13.343   8.381
  657POPC   C3A12809  34.596  13.407   8.039
  657POPC   C4A12810  34.553  13.447   7.621
  657POPC   C1B12811  34.388  14.012   8.819
  657POPC   C2B12812  34.536  13.927   8.346
  657POPC   C3B12813  34.453  13.903   7.861
  657POPC   C4B12814  34.223  13.789   7.433
  658POPC   NC312815  13.596  13.955   9.629
  658POPC   PO412816  13.694  14.638   9.628
  658POPC   GL112817  13.693  14.471   9.210
  658POPC   GL212818  13.455  14.260   9.219
  658POPC   C1A12819  13.771  14.306   8.778
  658POPC   D2A12820  13.754  14.006   8.435
  658POPC   C3A12821  13.758  14.244   8.062
  658POPC   C4A12822  13.554  14.454   7.732
  658POPC   C1B12823  13.283  14.544   8.875
  658POPC   C2B12824  13.421  14.487   8.440
  658POPC   C3B12825  13.183  14.499   8.070
  658POPC   C4B12826  13.057  14.423   7.667
  659POPC   NC312827   7.726  33.564   9.437
  659POPC   PO412828   7.182  33.949   9.521
  659POPC   GL112829   7.323  33.959   9.090
  659POPC   GL212830   7.351  33.633   9.103
  659POPC   C1A12831   7.489  33.887   8.646
  659POPC   D2A12832   7.562  33.741   8.237
  659POPC   C3A12833   7.649  33.984   7.886
  659POPC   C4A12834   7.540  33.727   7.489
  659POPC   C1B12835   7.052  33.594   8.782
  659POPC   C2B12836   7.042  33.702   8.352
  659POPC   C3B12837   7.092  33.467   7.983
  659POPC   C4B12838   6.695  33.399   7.780
  660POPC   NC312839  25.785  31.245   9.394
  660POPC   PO412840  26.327  31.638   9.699
  660POPC   GL112841  26.223  31.506   9.270
  660POPC   GL212842  25.928  31.691   9.161
  660POPC   C1A12843  26.203  31.424   8.816
  660POPC   D2A12844  26.007  31.631   8.469
  660POPC   C3A12845  26.139  31.451   8.089
  660POPC   C4A12846  26.438  31.632   7.796
  660POPC   C1B12847  25.798  31.979   8.842
  660POPC   C2B12848  25.618  31.996   8.452
  660POPC   C3B12849  25.784  31.847   8.059
  660POPC   C4B12850  25.898  31.614   7.686
  661POPC   NC312851  40.213  27.429   9.534
  661POPC   PO412852  39.766  27.937   9.343
  661POPC   GL112853  39.970  27.665   9.033
  661POPC   GL212854  39.970  27.307   9.117
  661POPC   C1A12855  39.781  27.411   8.671
  661POPC   D2A12856  39.919  27.211   8.299
  661POPC   C3A12857  39.856  27.408   7.918
  661POPC   C4A12858  40.027  27.772   7.719
  661POPC   C1B12859  40.400  27.402   8.892
  661POPC   C2B12860  40.524  27.332   8.444
  661POPC   C3B12861  40.378  27.460   8.019
  661POPC   C4B12862  40.245  27.307   7.617
  662POPC   NC312863  24.742  13.759   9.370
  662POPC   PO412864  24.098  13.521   9.468
  662POPC   GL112865  24.142  13.660   9.059
  662POPC   GL212866  24.381  13.957   9.074
  662POPC   C1A12867  24.262  13.539   8.646
  662POPC   D2A12868  24.368  13.285   8.287
  662POPC   C3A12869  24.462  13.568   7.957
  662POPC   C4A12870  24.804  13.629   7.667
  662POPC   C1B12871  24.248  14.070   8.684
  662POPC   C2B12872  24.213  13.918   8.252
  662POPC   C3B12873  24.377  14.060   7.838
  662POPC   C4B12874  24.361  13.890   7.427
  663POPC   NC312875  23.089  24.267   9.583
  663POPC   PO412876  22.801  24.826   9.544
  663POPC   GL112877  22.882  24.517   9.178
  663POPC   GL212878  23.238  24.385   9.102
  663POPC   C1A12879  22.852  24.467   8.726
  663POPC   D2A12880  23.153  24.669   8.459
  663POPC   C3A12881  23.029  24.732   8.041
  663POPC   C4A12882  23.032  24.636   7.603
  663POPC   C1B12883  23.275  24.175   8.697
  663POPC   C2B12884  23.033  24.170   8.314
  663POPC   C3B12885  23.162  24.244   7.879
  663POPC   C4B12886  23.227  24.207   7.403
  664POPC   NC312887  20.773  33.188   9.794
  664POPC   PO412888  21.092  32.661   9.463
  664POPC   GL112889  20.901  32.952   9.119
  664POPC   GL212890  20.767  33.263   9.128
  664POPC   C1A12891  20.592  32.933   8.752
  664POPC   D2A12892  20.397  32.957   8.327
  664POPC   C3A12893  20.571  32.749   7.973
  664POPC   C4A12894  20.850  32.919   7.665
  664POPC   C1B12895  20.704  33.473   8.734
  664POPC   C2B12896  20.707  33.363   8.325
  664POPC   C3B12897  20.586  33.264   7.925
  664POPC   C4B12898  20.749  33.466   7.553
  665POPC   NC312899   8.749  32.940   9.405
  665POPC   PO412900   9.325  33.115   9.573
  665POPC   GL112901   9.250  33.094   9.169
  665POPC   GL212902   9.496  32.852   9.039
  665POPC   C1A12903   8.989  33.177   8.808
  665POPC   D2A12904   9.070  33.228   8.390
  665POPC   C3A12905   8.732  33.341   8.115
  665POPC   C4A12906   8.718  33.059   7.762
  665POPC   C1B12907   9.117  32.687   8.864
  665POPC   C2B12908   8.902  32.752   8.473
  665POPC   C3B12909   9.064  32.802   8.065
  665POPC   C4B12910   9.050  32.705   7.650
  666POPC   NC312911  23.839  42.237   9.418
  666POPC   PO412912  23.508  42.825   9.418
  666POPC   GL112913  23.414  42.495   9.094
  666POPC   GL212914  23.205  42.185   9.181
  666POPC   C1A12915  23.504  42.496   8.632
  666POPC   D2A12916  23.761  42.306   8.301
  666POPC   C3A12917  23.732  42.290   7.879
  666POPC   C4A12918  23.351  42.435   7.712
  666POPC   C1B12919  23.515  42.018   8.856
  666POPC   C2B12920  23.565  41.849   8.443
  666POPC   C3B12921  23.360  41.895   8.049
  666POPC   C4B12922  23.458  41.930   7.633
  667POPC   NC312923  11.501  43.194   9.477
  667POPC   PO412924  10.906  43.077   9.353
  667POPC   GL112925  11.198  43.181   9.066
  667POPC   GL212926  11.501  42.970   9.017
  667POPC   C1A12927  11.168  43.210   8.664
  667POPC   D2A12928  11.513  43.174   8.485
  667POPC   C3A12929  11.415  43.379   8.133
  667POPC   C4A12930  11.214  43.208   7.795
  667POPC   C1B12931  11.243  42.707   8.763
  667POPC   C2B12932  11.271  42.758   8.320
  667POPC   C3B12933  11.613  42.914   8.040
  667POPC   C4B12934  11.755  42.681   7.697
  668POPC   NC312935   0.758  20.813   9.441
  668POPC   PO412936   1.339  20.912   9.815
  668POPC   GL112937   1.348  20.676   9.291
  668POPC   GL212938   1.435  20.328   9.245
  668POPC   C1A12939   1.367  20.904   8.819
  668POPC   D2A12940   1.157  20.745   8.461
  668POPC   C3A12941   0.994  20.860   8.047
  668POPC   C4A12942   1.074  20.485   7.816
  668POPC   C1B12943   1.637  20.489   8.894
  668POPC   C2B12944   1.682  20.557   8.453
  668POPC   C3B12945   1.485  20.653   8.059
  668POPC   C4B12946   1.606  20.488   7.644
  669POPC   NC312947  19.792  34.824   9.586
  669POPC   PO412948  19.788  34.177   9.513
  669POPC   GL112949  19.965  34.518   9.222
  669POPC   GL212950  19.620  34.636   9.142
  669POPC   C1A12951  19.980  34.767   8.807
  669POPC   D2A12952  19.800  34.730   8.374
  669POPC   C3A12953  19.962  34.861   8.031
  669POPC   C4A12954  20.010  34.620   7.682
  669POPC   C1B12955  19.719  34.266   8.843
  669POPC   C2B12956  19.516  34.197   8.428
  669POPC   C3B12957  19.722  34.268   8.028
  669POPC   C4B12958  19.663  34.277   7.540
  670POPC   NC312959  42.060  44.966   9.543
  670POPC   PO412960  41.772  44.356   9.546
  670POPC   GL112961  41.661  44.704   9.258
  670POPC   GL212962  41.922  44.830   9.077
  670POPC   C1A12963  41.456  44.835   8.856
  670POPC   D2A12964  41.173  44.837   8.511
  670POPC   C3A12965  41.182  44.770   8.060
  670POPC   C4A12966  41.338  44.615   7.684
  670POPC   C1B12967  41.866  44.609   8.660
  670POPC   C2B12968  41.627  44.585   8.275
  670POPC   C3B12969  41.732  44.822   7.913
  670POPC   C4B12970  41.710  44.939   7.459
  671POPC   NC312971  23.785  13.223   9.279
  671POPC   PO412972  23.590  13.837   9.388
  671POPC   GL112973  23.621  13.620   9.011
  671POPC   GL212974  23.336  13.364   8.956
  671POPC   C1A12975  23.809  13.781   8.613
  671POPC   D2A12976  23.721  13.861   8.154
  671POPC   C3A12977  23.984  13.666   7.815
  671POPC   C4A12978  23.907  13.676   7.357
  671POPC   C1B12979  23.604  13.272   8.631
  671POPC   C2B12980  23.837  13.383   8.296
  671POPC   C3B12981  23.589  13.381   7.958
  671POPC   C4B12982  23.655  13.291   7.555
  672POPC   NC312983  21.083  34.161   9.555
  672POPC   PO412984  21.522  33.624   9.479
  672POPC   GL112985  21.525  33.692   9.093
  672POPC   GL212986  21.216  33.866   9.055
  672POPC   C1A12987  21.628  33.771   8.688
  672POPC   D2A12988  21.356  34.018   8.509
  672POPC   C3A12989  21.346  33.943   8.086
  672POPC   C4A12990  21.304  34.187   7.741
  672POPC   C1B12991  21.209  33.476   8.784
  672POPC   C2B12992  21.259  33.487   8.370
  672POPC   C3B12993  21.026  33.566   7.979
  672POPC   C4B12994  21.217  33.690   7.624
  673POPC   NC312995   6.380  14.072   9.287
  673POPC   PO412996   5.872  14.532   9.379
  673POPC   GL112997   5.974  14.279   9.071
  673POPC   GL212998   6.251  14.526   9.032
  673POPC   C1A12999   5.998  14.020   8.702
  673POPC   D2A13000   5.738  13.909   8.345
  673POPC   C3A13001   5.909  13.950   7.930
  673POPC   C4A13002   5.772  14.144   7.559
  673POPC   C1B13003   6.070  14.541   8.638
  673POPC   C2B13004   6.115  14.367   8.245
  673POPC   C3B13005   5.825  14.491   7.965
  673POPC   C4B13006   5.903  14.839   7.684
  674POPC   NC313007  24.987  19.773   9.707
  674POPC   PO413008  24.497  20.106   9.396
  674POPC   GL113009  24.471  20.010   9.007
  674POPC   GL213010  24.149  20.138   8.931
  674POPC   C1A13011  24.549  19.824   8.629
  674POPC   D2A13012  24.400  19.607   8.272
  674POPC   C3A13013  24.547  19.838   7.925
  674POPC   C4A13014  24.825  19.834   7.629
  674POPC   C1B13015  24.295  20.287   8.611
  674POPC   C2B13016  24.454  20.197   8.283
  674POPC   C3B13017  24.205  20.203   7.989
  674POPC   C4B13018  24.081  20.039   7.629
  675POPC   NC313019  14.920   6.404   9.285
  675POPC   PO413020  14.955   7.016   9.492
  675POPC   GL113021  15.201   6.846   9.162
  675POPC   GL213022  15.402   6.621   9.348
  675POPC   C1A13023  15.131   6.746   8.724
  675POPC   D2A13024  14.889   6.918   8.385
  675POPC   C3A13025  15.053   6.736   8.005
  675POPC   C4A13026  15.322   6.759   7.631
  675POPC   C1B13027  15.492   6.437   8.936
  675POPC   C2B13028  15.466   6.366   8.493
  675POPC   C3B13029  15.683   6.188   8.127
  675POPC   C4B13030  15.521   6.299   7.739
  676POPC   NC313031  18.160  18.102   9.464
  676POPC   PO413032  18.272  18.726   9.411
  676POPC   GL113033  18.257  18.490   9.070
  676POPC   GL213034  17.947  18.389   9.054
  676POPC   C1A13035  18.318  18.350   8.644
  676POPC   D2A13036  18.210  18.227   8.215
  676POPC   C3A13037  18.524  18.357   7.897
  676POPC   C4A13038  18.731  18.332   7.460
  676POPC   C1B13039  17.936  18.684   8.717
  676POPC   C2B13040  18.173  18.734   8.339
  676POPC   C3B13041  18.094  18.658   7.940
  676POPC   C4B13042  17.909  18.655   7.554
  677POPC   NC313043   6.478  13.132   9.604
  677POPC   PO413044   6.691  13.827   9.560
  677POPC   GL113045   6.799  13.507   9.261
  677POPC   GL213046   6.723  13.772   9.049
  677POPC   C1A13047   6.778  13.334   8.820
  677POPC   D2A13048   6.542  13.387   8.407
  677POPC   C3A13049   6.732  13.640   8.088
  677POPC   C4A13050   6.886  13.597   7.679
  677POPC   C1B13051   6.534  13.853   8.678
  677POPC   C2B13052   6.331  13.918   8.326
  677POPC   C3B13053   6.412  14.026   7.937
  677POPC   C4B13054   6.782  14.077   7.759
  678POPC   NC313055  38.207   9.741   9.847
  678POPC   PO413056  37.689   9.793   9.446
  678POPC   GL113057  37.703   9.655   9.044
  678POPC   GL213058  37.536   9.403   9.020
  678POPC   C1A13059  37.683   9.803   8.655
  678POPC   D2A13060  37.692   9.603   8.281
  678POPC   C3A13061  37.762   9.842   7.912
  678POPC   C4A13062  37.925   9.702   7.519
  678POPC   C1B13063  37.282   9.460   8.700
  678POPC   C2B13064  37.170   9.695   8.392
  678POPC   C3B13065  37.296   9.939   8.115
  678POPC   C4B13066  37.295   9.724   7.741
  679POPC   NC313067   4.506  18.271   9.649
  679POPC   PO413068   4.444  17.524   9.558
  679POPC   GL113069   4.262  17.506   9.160
  679POPC   GL213070   3.923  17.577   9.068
  679POPC   C1A13071   4.335  17.360   8.752
  679POPC   D2A13072   4.109  17.429   8.365
  679POPC   C3A13073   4.375  17.368   8.024
  679POPC   C4A13074   4.247  17.454   7.601
  679POPC   C1B13075   4.067  17.795   8.733
  679POPC   C2B13076   4.075  17.994   8.347
  679POPC   C3B13077   4.168  17.840   7.943
  679POPC   C4B13078   4.171  17.948   7.490
  680POPC   NC313079  35.053  34.352   9.475
  680POPC   PO413080  35.265  34.892   9.639
  680POPC   GL113081  35.118  34.778   9.183
  680POPC   GL213082  35.352  34.509   9.061
  680POPC   C1A13083  34.954  34.644   8.756
  680POPC   D2A13084  34.976  34.403   8.351
  680POPC   C3A13085  35.135  34.615   7.964
  680POPC   C4A13086  35.581  34.745   7.777
  680POPC   C1B13087  35.335  34.201   8.694
  680POPC   C2B13088  35.316  34.011   8.274
  680POPC   C3B13089  35.291  34.125   7.837
  680POPC   C4B13090  35.522  34.072   7.444
  681POPC   NC313091  37.007  17.421   9.433
  681POPC   PO413092  36.336  17.444   9.517
  681POPC   GL113093  36.564  17.516   9.202
  681POPC   GL213094  36.642  17.835   9.275
  681POPC   C1A13095  36.504  17.378   8.815
  681POPC   D2A13096  36.750  17.194   8.517
  681POPC   C3A13097  36.699  17.223   8.084
  681POPC   C4A13098  37.003  17.213   7.781
  681POPC   C1B13099  36.887  17.756   8.883
  681POPC   C2B13100  36.806  17.707   8.468
  681POPC   C3B13101  37.052  17.610   8.123
  681POPC   C4B13102  36.906  17.731   7.741
  682POPC   NC313103  27.685  10.374   9.554
  682POPC   PO413104  27.161  10.620   9.514
  682POPC   GL113105  27.296  10.491   9.098
  682POPC   GL213106  27.649  10.440   9.056
  682POPC   C1A13107  27.373  10.249   8.687
  682POPC   D2A13108  27.557  10.166   8.270
  682POPC   C3A13109  27.383  10.406   7.943
  682POPC   C4A13110  27.252  10.456   7.523
  682POPC   C1B13111  27.886  10.201   8.734
  682POPC   C2B13112  28.047  10.292   8.318
  682POPC   C3B13113  27.886  10.379   7.875
  682POPC   C4B13114  27.689  10.706   7.568
  683POPC   NC313115   2.373  16.900   9.554
  683POPC   PO413116   3.098  16.732   9.595
  683POPC   GL113117   2.936  16.647   9.229
  683POPC   GL213118   2.595  16.538   9.249
  683POPC   C1A13119   3.136  16.757   8.851
  683POPC   D2A13120   2.960  16.645   8.469
  683POPC   C3A13121   2.987  16.791   8.062
  683POPC   C4A13122   2.749  16.817   7.678
  683POPC   C1B13123   2.610  16.794   8.861
  683POPC   C2B13124   2.644  17.058   8.493
  683POPC   C3B13125   2.488  16.964   8.095
  683POPC   C4B13126   2.442  17.233   7.755
  684POPC   NC313127  41.744  38.534   9.339
  684POPC   PO413128  41.681  39.069   9.721
  684POPC   GL113129  41.688  39.055   9.188
  684POPC   GL213130  41.622  39.384   9.117
  684POPC   C1A13131  41.536  38.977   8.724
  684POPC   D2A13132  41.206  39.174   8.379
  684POPC   C3A13133  41.275  39.114   7.919
  684POPC   C4A13134  41.344  38.727   7.722
  684POPC   C1B13135  41.360  39.448   8.783
  684POPC   C2B13136  41.455  39.641   8.384
  684POPC   C3B13137  41.470  39.597   7.935
  684POPC   C4B13138  41.553  39.415   7.493
  685POPC   NC313139  14.373  15.588   9.584
  685POPC   PO413140  14.432  15.040   9.849
  685POPC   GL113141  14.292  15.140   9.335
  685POPC   GL213142  14.421  15.411   9.134
  685POPC   C1A13143  14.091  15.136   8.890
  685POPC   D2A13144  14.243  15.094   8.459
  685POPC   C3A13145  14.033  15.181   8.083
  685POPC   C4A13146  14.253  15.149   7.706
  685POPC   C1B13147  14.295  15.568   8.736
  685POPC   C2B13148  14.495  15.529   8.375
  685POPC   C3B13149  14.365  15.568   8.006
  685POPC   C4B13150  14.543  15.563   7.648
  686POPC   NC313151  35.741  12.145   9.444
  686POPC   PO413152  35.084  12.023   9.527
  686POPC   GL113153  35.260  11.928   9.157
  686POPC   GL213154  35.314  12.302   9.131
  686POPC   C1A13155  35.443  11.976   8.731
  686POPC   D2A13156  35.681  11.895   8.349
  686POPC   C3A13157  35.456  11.855   7.952
  686POPC   C4A13158  35.135  12.162   7.821
  686POPC   C1B13159  35.641  12.447   8.857
  686POPC   C2B13160  35.760  12.477   8.438
  686POPC   C3B13161  35.581  12.339   8.082
  686POPC   C4B13162  35.701  12.315   7.682
  687POPC   NC313163  14.129  37.282   9.631
  687POPC   PO413164  14.450  37.853   9.720
  687POPC   GL113165  14.396  37.814   9.245
  687POPC   GL213166  14.347  37.443   9.146
  687POPC   C1A13167  14.395  37.990   8.791
  687POPC   D2A13168  14.573  37.874   8.360
  687POPC   C3A13169  14.317  37.784   7.958
  687POPC   C4A13170  14.105  37.537   7.610
  687POPC   C1B13171  14.355  37.479   8.671
  687POPC   C2B13172  14.520  37.356   8.249
  687POPC   C3B13173  14.744  37.477   7.880
  687POPC   C4B13174  14.694  37.352   7.453
  688POPC   NC313175   2.265  14.504   9.563
  688POPC   PO413176   1.619  14.303   9.435
  688POPC   GL113177   1.823  14.252   9.070
  688POPC   GL213178   2.157  14.306   9.113
  688POPC   C1A13179   1.880  14.604   8.759
  688POPC   D2A13180   1.694  14.721   8.365
  688POPC   C3A13181   1.813  14.532   7.947
  688POPC   C4A13182   1.933  14.517   7.505
  688POPC   C1B13183   2.132  14.186   8.676
  688POPC   C2B13184   2.170  14.437   8.313
  688POPC   C3B13185   2.205  14.205   7.918
  688POPC   C4B13186   1.929  14.025   7.664
  689POPC   NC313187  43.393  41.151   9.552
  689POPC   PO413188  43.979  41.478   9.675
  689POPC   GL113189  43.787  41.501   9.256
  689POPC   GL213190  43.632  41.220   9.127
  689POPC   C1A13191  44.005  41.496   8.857
  689POPC   D2A13192  44.179  41.601   8.461
  689POPC   C3A13193  43.999  41.483   8.078
  689POPC   C4A13194  43.842  41.513   7.688
  689POPC   C1B13195  43.711  41.109   8.720
  689POPC   C2B13196  43.787  41.068   8.310
  689POPC   C3B13197  43.541  41.242   7.991
  689POPC   C4B13198  43.557  41.114   7.555
  690POPC   NC313199   3.824  19.823   9.500
  690POPC   PO413200   3.219  19.592   9.309
  690POPC   GL113201   3.513  19.668   9.041
  690POPC   GL213202   3.677  20.003   8.988
  690POPC   C1A13203   3.734  19.576   8.671
  690POPC   D2A13204   3.835  19.895   8.426
  690POPC   C3A13205   3.819  19.805   8.003
  690POPC   C4A13206   3.583  19.603   7.693
  690POPC   C1B13207   3.366  19.927   8.641
  690POPC   C2B13208   3.377  19.649   8.295
  690POPC   C3B13209   3.291  19.942   7.983
  690POPC   C4B13210   3.387  20.184   7.637
  691POPC   NC313211   8.733  10.469   9.416
  691POPC   PO413212   9.175  11.008   9.441
  691POPC   GL113213   9.123  10.678   9.143
  691POPC   GL213214   9.403  10.450   9.091
  691POPC   C1A13215   8.887  10.549   8.772
  691POPC   D2A13216   8.847  10.220   8.481
  691POPC   C3A13217   8.865  10.300   8.035
  691POPC   C4A13218   8.914  10.649   7.758
  691POPC   C1B13219   9.335  10.278   8.681
  691POPC   C2B13220   9.357  10.265   8.214
  691POPC   C3B13221   9.338  10.320   7.757
  691POPC   C4B13222   9.345  10.662   7.417
  692POPC   NC313223  41.996  40.955   9.377
  692POPC   PO413224  41.505  40.603   9.651
  692POPC   GL113225  41.561  40.758   9.150
  692POPC   GL213226  41.541  41.136   9.146
  692POPC   C1A13227  41.388  40.715   8.685
  692POPC   D2A13228  41.318  40.623   8.209
  692POPC   C3A13229  41.678  40.779   7.969
  692POPC   C4A13230  41.960  40.504   7.790
  692POPC   C1B13231  41.357  41.228   8.747
  692POPC   C2B13232  41.480  41.136   8.322
  692POPC   C3B13233  41.265  41.095   7.933
  692POPC   C4B13234  41.263  40.930   7.529
  693POPC   NC313235  32.568  22.146   9.809
  693POPC   PO413236  33.106  21.990   9.463
  693POPC   GL113237  32.988  22.092   9.091
  693POPC   GL213238  33.106  21.775   9.012
  693POPC   C1A13239  33.072  22.108   8.646
  693POPC   D2A13240  33.217  22.299   8.304
  693POPC   C3A13241  33.165  22.135   7.918
  693POPC   C4A13242  32.984  22.520   7.782
  693POPC   C1B13243  32.752  21.702   8.761
  693POPC   C2B13244  32.590  21.821   8.401
  693POPC   C3B13245  32.823  21.694   8.074
  693POPC   C4B13246  32.882  21.785   7.649
  694POPC   NC313247  25.213  43.828   9.553
  694POPC   PO413248  25.753  43.623   9.370
  694POPC   GL113249  25.441  43.723   9.045
  694POPC   GL213250  25.243  44.040   9.081
  694POPC   C1A13251  25.197  43.708   8.641
  694POPC   D2A13252  24.878  43.792   8.299
  694POPC   C3A13253  24.888  43.594   7.887
  694POPC   C4A13254  25.134  43.694   7.535
  694POPC   C1B13255  25.459  44.199   8.752
  694POPC   C2B13256  25.323  44.130   8.355
  694POPC   C3B13257  25.267  43.928   7.993
  694POPC   C4B13258  25.331  44.160   7.642
  695POPC   NC313259  43.773  33.894   9.494
  695POPC   PO413260  44.342  34.174   9.469
  695POPC   GL113261  44.127  33.906   9.111
  695POPC   GL213262  43.898  33.598   9.087
  695POPC   C1A13263  44.035  33.942   8.668
  695POPC   D2A13264  44.299  34.033   8.297
  695POPC   C3A13265  44.145  34.237   7.947
  695POPC   C4A13266  43.861  33.969   7.767
  695POPC   C1B13267  43.848  33.459   8.645
  695POPC   C2B13268  43.835  33.696   8.237
  695POPC   C3B13269  44.165  33.618   7.955
  695POPC   C4B13270  44.198  33.480   7.523
  696POPC   NC313271  21.812  35.535   9.733
  696POPC   PO413272  21.124  35.372   9.728
  696POPC   GL113273  21.193  35.170   9.293
  696POPC   GL213274  21.558  35.177   9.182
  696POPC   C1A13275  21.121  34.983   8.864
  696POPC   D2A13276  21.390  34.970   8.446
  696POPC   C3A13277  21.350  35.180   8.028
  696POPC   C4A13278  21.646  35.342   7.713
  696POPC   C1B13279  21.343  35.433   8.830
  696POPC   C2B13280  21.284  35.617   8.447
  696POPC   C3B13281  21.416  35.681   8.041
  696POPC   C4B13282  21.047  35.749   7.811
  697POPC   NC313283   2.815  28.947   9.843
  697POPC   PO413284   3.334  29.124   9.602
  697POPC   GL113285   3.044  29.003   9.250
  697POPC   GL213286   2.875  29.298   9.139
  697POPC   C1A13287   2.962  28.956   8.768
  697POPC   D2A13288   2.824  28.752   8.369
  697POPC   C3A13289   2.749  28.869   7.956
  697POPC   C4A13290   2.932  28.862   7.566
  697POPC   C1B13291   2.717  29.417   8.716
  697POPC   C2B13292   2.717  29.286   8.261
  697POPC   C3B13293   2.790  29.343   7.783
  697POPC   C4B13294   2.810  29.312   7.311
  698POPC   NC313295  13.118  11.531   9.425
  698POPC   PO413296  12.528  11.101   9.268
  698POPC   GL113297  12.968  11.164   9.094
  698POPC   GL213298  12.977  11.485   8.940
  698POPC   C1A13299  13.187  11.038   8.748
  698POPC   D2A13300  12.986  11.139   8.356
  698POPC   C3A13301  13.022  10.969   7.927
  698POPC   C4A13302  12.799  11.126   7.563
  698POPC   C1B13303  12.619  11.698   8.748
  698POPC   C2B13304  12.519  11.563   8.362
  698POPC   C3B13305  12.634  11.352   8.016
  698POPC   C4B13306  12.834  11.602   7.728
  699POPC   NC313307  39.689  33.673   9.420
  699POPC   PO413308  40.197  34.058   9.497
  699POPC   GL113309  40.147  33.752   9.114
  699POPC   GL213310  39.865  33.531   8.990
  699POPC   C1A13311  40.212  33.669   8.664
  699POPC   D2A13312  39.992  33.865   8.318
  699POPC   C3A13313  40.122  33.644   7.934
  699POPC   C4A13314  40.209  33.663   7.476
  699POPC   C1B13315  39.685  33.824   8.738
  699POPC   C2B13316  39.440  33.722   8.373
  699POPC   C3B13317  39.599  33.746   7.975
  699POPC   C4B13318  39.715  33.535   7.647
  700POPC   NC313319   4.216   7.191   9.535
  700POPC   PO413320   4.416   7.800   9.454
  700POPC   GL113321   4.223   7.731   9.102
  700POPC   GL213322   4.072   7.434   9.118
  700POPC   C1A13323   4.435   7.606   8.721
  700POPC   D2A13324   4.695   7.434   8.404
  700POPC   C3A13325   4.454   7.314   8.064
  700POPC   C4A13326   4.233   7.587   7.815
  700POPC   C1B13327   3.920   7.608   8.729
  700POPC   C2B13328   4.055   7.477   8.334
  700POPC   C3B13329   3.932   7.223   7.976
  700POPC   C4B13330   3.806   7.431   7.588
  701POPC   NC313331  43.265   9.136   9.619
  701POPC   PO413332  42.880   8.563   9.578
  701POPC   GL113333  43.027   8.708   9.207
  701POPC   GL213334  43.083   9.072   9.138
  701POPC   C1A13335  43.027   8.694   8.775
  701POPC   D2A13336  43.170   8.871   8.414
  701POPC   C3A13337  42.910   8.982   8.079
  701POPC   C4A13338  42.753   8.769   7.737
  701POPC   C1B13339  43.428   9.194   8.825
  701POPC   C2B13340  43.635   9.089   8.423
  701POPC   C3B13341  43.401   9.127   8.032
  701POPC   C4B13342  43.344   8.968   7.623
  702POPC   NC313343   0.312  38.416   9.572
  702POPC   PO413344   1.024  38.262   9.513
  702POPC   GL113345   0.721  38.470   9.244
  702POPC   GL213346   0.539  38.191   9.177
  702POPC   C1A13347   0.536  38.525   8.807
  702POPC   D2A13348   0.495  38.709   8.383
  702POPC   C3A13349   0.545  38.502   8.011
  702POPC   C4A13350   0.521  38.707   7.632
  702POPC   C1B13351   0.315  38.056   8.802
  702POPC   C2B13352   0.223  38.245   8.421
  702POPC   C3B13353   0.216  38.090   8.028
  702POPC   C4B13354   0.315  38.219   7.639
  703POPC   NC313355  38.554  32.830   9.614
  703POPC   PO413356  38.245  33.394   9.487
  703POPC   GL113357  38.452  33.109   9.196
  703POPC   GL213358  38.265  32.760   9.200
  703POPC   C1A13359  38.655  33.128   8.809
  703POPC   D2A13360  38.512  33.060   8.391
  703POPC   C3A13361  38.636  32.947   7.986
  703POPC   C4A13362  38.651  33.257   7.656
  703POPC   C1B13363  38.239  32.823   8.761
  703POPC   C2B13364  38.132  32.727   8.340
  703POPC   C3B13365  38.102  32.766   7.908
  703POPC   C4B13366  38.358  32.865   7.542
  704POPC   NC313367  39.793  23.734   9.484
  704POPC   PO413368  40.216  23.214   9.464
  704POPC   GL113369  40.201  23.494   9.085
  704POPC   GL213370  40.088  23.859   9.075
  704POPC   C1A13371  40.128  23.584   8.640
  704POPC   D2A13372  40.365  23.873   8.372
  704POPC   C3A13373  40.236  23.787   7.967
  704POPC   C4A13374  39.849  23.646   7.832
  704POPC   C1B13375  39.814  23.963   8.735
  704POPC   C2B13376  39.769  23.888   8.281
  704POPC   C3B13377  39.892  24.146   7.923
  704POPC   C4B13378  40.002  24.111   7.513
  705POPC   NC313379  26.986  28.318   9.651
  705POPC   PO413380  26.522  28.843   9.567
  705POPC   GL113381  26.651  28.648   9.216
  705POPC   GL213382  26.374  28.675   8.991
  705POPC   C1A13383  26.883  28.747   8.846
  705POPC   D2A13384  26.780  28.601   8.449
  705POPC   C3A13385  27.097  28.448   8.185
  705POPC   C4A13386  27.164  28.473   7.756
  705POPC   C1B13387  26.570  28.270   8.801
  705POPC   C2B13388  26.724  28.082   8.377
  705POPC   C3B13389  26.664  28.273   7.954
  705POPC   C4B13390  26.443  28.101   7.615
  706POPC   NC313391  44.987  37.641   9.729
  706POPC   PO413392  44.399  37.445   9.506
  706POPC   GL113393  44.509  37.625   9.164
  706POPC   GL213394  44.764  37.835   9.294
  706POPC   C1A13395  44.453  37.543   8.732
  706POPC   D2A13396  44.558  37.328   8.348
  706POPC   C3A13397  44.404  37.490   7.977
  706POPC   C4A13398  44.519  37.386   7.567
  706POPC   C1B13399  44.797  37.935   8.844
  706POPC   C2B13400  44.869  37.757   8.427
  706POPC   C3B13401  44.824  37.765   7.973
  706POPC   C4B13402  44.784  38.120   7.716
  707POPC   NC313403  14.491  42.173   9.393
  707POPC   PO413404  14.111  42.689   9.605
  707POPC   GL113405  14.287  42.586   9.179
  707POPC   GL213406  14.631  42.507   9.022
  707POPC   C1A13407  14.207  42.271   8.826
  707POPC   D2A13408  14.071  42.366   8.437
  707POPC   C3A13409  14.234  42.150   8.075
  707POPC   C4A13410  14.092  42.325   7.690
  707POPC   C1B13411  14.382  42.750   8.701
  707POPC   C2B13412  14.305  42.793   8.271
  707POPC   C3B13413  14.455  42.624   7.908
  707POPC   C4B13414  14.837  42.624   7.714
  708POPC   NC313415  37.052  26.172   9.527
  708POPC   PO413416  36.410  25.993   9.440
  708POPC   GL113417  36.706  26.186   9.140
  708POPC   GL213418  37.076  26.072   9.039
  708POPC   C1A13419  36.753  26.335   8.735
  708POPC   D2A13420  36.896  26.200   8.323
  708POPC   C3A13421  36.612  26.313   8.012
  708POPC   C4A13422  36.539  26.158   7.613
  708POPC   C1B13423  37.274  26.221   8.675
  708POPC   C2B13424  37.331  26.479   8.338
  708POPC   C3B13425  37.378  26.369   7.926
  708POPC   C4B13426  37.062  26.156   7.713
  709POPC   NC313427  22.581  28.600   9.395
  709POPC   PO413428  23.178  28.260   9.632
  709POPC   GL113429  23.043  28.371   9.236
  709POPC   GL213430  22.963  28.062   9.077
  709POPC   C1A13431  23.242  28.512   8.855
  709POPC   D2A13432  23.029  28.646   8.481
  709POPC   C3A13433  23.200  28.605   8.085
  709POPC   C4A13434  23.240  28.439   7.689
  709POPC   C1B13435  22.880  28.178   8.674
  709POPC   C2B13436  22.862  28.221   8.241
  709POPC   C3B13437  22.795  28.260   7.847
  709POPC   C4B13438  22.986  27.977   7.586
  710POPC   NC313439  25.061  31.528   9.564
  710POPC   PO413440  24.379  31.583   9.746
  710POPC   GL113441  24.605  31.536   9.315
  710POPC   GL213442  24.743  31.855   9.331
  710POPC   C1A13443  24.619  31.347   8.868
  710POPC   D2A13444  24.481  31.137   8.481
  710POPC   C3A13445  24.494  31.370   8.100
  710POPC   C4A13446  24.361  31.246   7.684
  710POPC   C1B13447  24.747  31.862   8.885
  710POPC   C2B13448  24.601  31.737   8.474
  710POPC   C3B13449  24.618  31.894   8.058
  710POPC   C4B13450  24.497  31.773   7.665
  711POPC   NC313451  36.935  41.854   9.680
  711POPC   PO413452  36.249  42.045   9.636
  711POPC   GL113453  36.622  41.941   9.285
  711POPC   GL213454  36.946  41.778   9.191
  711POPC   C1A13455  36.646  41.786   8.807
  711POPC   D2A13456  36.783  41.769   8.384
  711POPC   C3A13457  36.543  41.780   7.995
  711POPC   C4A13458  36.713  41.778   7.543
  711POPC   C1B13459  37.072  41.501   8.845
  711POPC   C2B13460  37.114  41.383   8.433
  711POPC   C3B13461  36.853  41.367   8.057
  711POPC   C4B13462  36.989  41.369   7.645
  712POPC   NC313463  34.667   6.321   9.548
  712POPC   PO413464  34.426   6.926   9.648
  712POPC   GL113465  34.475   6.914   9.228
  712POPC   GL213466  34.739   6.694   9.133
  712POPC   C1A13467  34.562   7.071   8.821
  712POPC   D2A13468  34.562   6.835   8.447
  712POPC   C3A13469  34.320   6.906   8.086
  712POPC   C4A13470  34.652   6.829   7.793
  712POPC   C1B13471  34.356   6.582   8.857
  712POPC   C2B13472  34.224   6.451   8.430
  712POPC   C3B13473  34.440   6.409   8.056
  712POPC   C4B13474  34.366   6.427   7.631
  713POPC   NC313475  16.487  27.634   9.447
  713POPC   PO413476  17.098  27.358   9.614
  713POPC   GL113477  16.943  27.342   9.159
  713POPC   GL213478  16.586  27.404   9.014
  713POPC   C1A13479  16.968  27.531   8.717
  713POPC   D2A13480  16.718  27.360   8.381
  713POPC   C3A13481  16.837  27.483   7.973
  713POPC   C4A13482  17.133  27.708   7.750
  713POPC   C1B13483  16.307  27.546   8.702
  713POPC   C2B13484  16.379  27.723   8.296
  713POPC   C3B13485  16.368  27.663   7.888
  713POPC   C4B13486  16.278  27.924   7.551
  714POPC   NC313487  40.656   4.868   9.588
  714POPC   PO413488  41.191   5.061   9.881
  714POPC   GL113489  40.799   5.332   9.478
  714POPC   GL213490  40.531   5.209   9.258
  714POPC   C1A13491  40.899   5.309   8.950
  714POPC   D2A13492  40.742   5.136   8.540
  714POPC   C3A13493  40.936   5.294   8.155
  714POPC   C4A13494  40.732   5.218   7.757
  714POPC   C1B13495  40.346   5.265   8.892
  714POPC   C2B13496  40.193   5.213   8.500
  714POPC   C3B13497  40.389   5.209   8.130
  714POPC   C4B13498  40.218   5.194   7.726
  715POPC   NC313499  36.044  16.171   9.655
  715POPC   PO413500  35.710  15.742   9.264
  715POPC   GL113501  35.873  16.109   9.162
  715POPC   GL213502  36.207  16.088   9.188
  715POPC   C1A13503  35.849  16.178   8.740
  715POPC   D2A13504  36.091  16.081   8.392
  715POPC   C3A13505  35.898  16.036   7.998
  715POPC   C4A13506  35.724  15.824   7.601
  715POPC   C1B13507  36.389  16.224   8.823
  715POPC   C2B13508  36.567  16.259   8.415
  715POPC   C3B13509  36.456  15.997   8.059
  715POPC   C4B13510  36.250  15.754   7.746
  716POPC   NC313511  40.284   3.979   9.364
  716POPC   PO413512  40.189   3.344   9.306
  716POPC   GL113513  39.815   3.558   9.138
  716POPC   GL213514  39.957   3.822   8.940
  716POPC   C1A13515  39.609   3.481   8.725
  716POPC   D2A13516  39.742   3.196   8.408
  716POPC   C3A13517  39.959   3.327   8.086
  716POPC   C4A13518  40.012   3.627   7.797
  716POPC   C1B13519  40.137   3.480   8.651
  716POPC   C2B13520  40.383   3.191   8.354
  716POPC   C3B13521  40.415   3.209   7.895
  716POPC   C4B13522  40.394   3.501   7.477
  717POPC   NC313523   6.219  35.565   9.385
  717POPC   PO413524   6.683  35.104   9.426
  717POPC   GL113525   6.597  35.329   9.074
  717POPC   GL213526   6.943  35.434   9.074
  717POPC   C1A13527   6.507  35.401   8.644
  717POPC   D2A13528   6.295  35.217   8.280
  717POPC   C3A13529   6.496  35.210   7.909
  717POPC   C4A13530   6.521  35.575   7.673
  717POPC   C1B13531   6.968  35.170   8.717
  717POPC   C2B13532   6.822  35.176   8.293
  717POPC   C3B13533   6.985  35.407   7.878
  717POPC   C4B13534   7.097  35.515   7.400
  718POPC   NC313535  28.474   0.937   9.573
  718POPC   PO413536  27.971   1.330   9.620
  718POPC   GL113537  28.186   1.255   9.208
  718POPC   GL213538  28.472   1.034   9.101
  718POPC   C1A13539  28.286   1.370   8.773
  718POPC   D2A13540  28.545   1.392   8.427
  718POPC   C3A13541  28.279   1.420   8.092
  718POPC   C4A13542  28.403   1.455   7.686
  718POPC   C1B13543  28.693   0.974   8.759
  718POPC   C2B13544  28.682   0.900   8.330
  718POPC   C3B13545  28.642   1.070   7.916
  718POPC   C4B13546  28.756   1.141   7.443
  719POPC   NC313547   1.347  10.133   9.595
  719POPC   PO413548   0.945  10.648   9.569
  719POPC   GL113549   1.199  10.562   9.208
  719POPC   GL213550   1.080  10.254   9.149
  719POPC   C1A13551   1.232  10.620   8.757
  719POPC   D2A13552   1.008  10.375   8.439
  719POPC   C3A13553   1.173  10.416   8.014
  719POPC   C4A13554   1.460  10.720   7.800
  719POPC   C1B13555   1.452  10.188   8.893
  719POPC   C2B13556   1.555  10.327   8.450
  719POPC   C3B13557   1.678  10.283   8.002
  719POPC   C4B13558   1.442  10.054   7.720
  720POPC   NC313559  44.089  21.326   9.629
  720POPC   PO413560  44.027  21.942   9.431
  720POPC   GL113561  43.927  21.567   9.214
  720POPC   GL213562  43.631  21.388   9.371
  720POPC   C1A13563  44.076  21.206   8.946
  720POPC   D2A13564  44.217  21.059   8.537
  720POPC   C3A13565  44.129  21.376   8.221
  720POPC   C4A13566  44.023  21.485   7.789
  720POPC   C1B13567  43.580  21.367   8.912
  720POPC   C2B13568  43.727  21.316   8.518
  720POPC   C3B13569  43.601  21.341   8.060
  720POPC   C4B13570  43.657  21.192   7.625
  721POPC   NC313571   9.512  32.051   9.568
  721POPC   PO413572  10.049  32.426   9.573
  721POPC   GL113573   9.827  32.291   9.193
  721POPC   GL213574   9.996  31.979   9.149
  721POPC   C1A13575   9.539  32.368   8.837
  721POPC   D2A13576   9.456  32.675   8.462
  721POPC   C3A13577   9.704  32.638   8.054
  721POPC   C4A13578   9.511  32.497   7.673
  721POPC   C1B13579  10.094  32.172   8.742
  721POPC   C2B13580   9.831  32.298   8.428
  721POPC   C3B13581   9.539  32.153   8.148
  721POPC   C4B13582   9.858  32.186   7.841
  722POPC   NC313583  42.092  18.950   9.626
  722POPC   PO413584  41.429  19.018   9.392
  722POPC   GL113585  41.615  18.987   9.008
  722POPC   GL213586  41.398  18.702   8.927
  722POPC   C1A13587  41.644  19.306   8.661
  722POPC   D2A13588  41.755  19.409   8.240
  722POPC   C3A13589  41.640  19.057   7.965
  722POPC   C4A13590  41.547  19.103   7.525
  722POPC   C1B13591  41.179  19.043   8.719
  722POPC   C2B13592  41.263  19.259   8.318
  722POPC   C3B13593  41.148  19.140   7.890
  722POPC   C4B13594  41.240  18.756   7.702
  723POPC   NC313595   7.787  13.652   9.201
  723POPC   PO413596   8.307  13.468   9.613
  723POPC   GL113597   8.277  13.737   9.247
  723POPC   GL213598   8.276  13.454   9.105
  723POPC   C1A13599   8.291  13.910   8.824
  723POPC   D2A13600   8.285  13.692   8.435
  723POPC   C3A13601   8.286  13.874   8.057
  723POPC   C4A13602   8.203  13.670   7.676
  723POPC   C1B13603   8.235  13.296   8.748
  723POPC   C2B13604   8.511  13.222   8.409
  723POPC   C3B13605   8.375  13.333   8.021
  723POPC   C4B13606   8.321  13.180   7.612
  724POPC   NC313607  11.081  12.775   9.626
  724POPC   PO413608  11.675  12.619   9.584
  724POPC   GL113609  11.412  12.879   9.237
  724POPC   GL213610  11.008  12.883   9.142
  724POPC   C1A13611  11.379  13.035   8.810
  724POPC   D2A13612  11.424  12.852   8.408
  724POPC   C3A13613  11.300  13.070   8.064
  724POPC   C4A13614  11.407  12.857   7.670
  724POPC   C1B13615  10.958  12.626   8.784
  724POPC   C2B13616  10.902  12.726   8.353
  724POPC   C3B13617  11.111  12.612   7.993
  724POPC   C4B13618  10.998  12.555   7.559
  725POPC   NC313619  38.120   9.793   9.267
  725POPC   PO413620  38.513   9.399   9.711
  725POPC   GL113621  38.548   9.539   9.251
  725POPC   GL213622  38.596   9.928   9.137
  725POPC   C1A13623  38.598   9.553   8.765
  725POPC   D2A13624  38.504   9.686   8.345
  725POPC   C3A13625  38.338   9.445   7.987
  725POPC   C4A13626  38.412   9.577   7.539
  725POPC   C1B13627  38.369  10.026   8.715
  725POPC   C2B13628  38.085   9.952   8.337
  725POPC   C3B13629  38.253   9.949   7.902
  725POPC   C4B13630  38.175  10.163   7.491
  726POPC   NC313631  23.346  12.516   9.272
  726POPC   PO413632  23.856  12.809   9.461
  726POPC   GL113633  23.876  12.698   9.069
  726POPC   GL213634  23.582  12.858   8.957
  726POPC   C1A13635  23.894  12.601   8.642
  726POPC   D2A13636  23.589  12.640   8.291
  726POPC   C3A13637  23.765  12.663   7.876
  726POPC   C4A13638  23.802  12.800   7.457
  726POPC   C1B13639  23.266  12.878   8.643
  726POPC   C2B13640  23.279  13.076   8.239
  726POPC   C3B13641  23.345  12.937   7.799
  726POPC   C4B13642  23.308  12.991   7.351
  727POPC   NC313643  28.058  17.428   9.497
  727POPC   PO413644  28.455  17.940   9.442
  727POPC   GL113645  28.469  17.576   9.161
  727POPC   GL213646  28.795  17.748   9.061
  727POPC   C1A13647  28.331  17.368   8.774
  727POPC   D2A13648  28.216  17.556   8.376
  727POPC   C3A13649  28.025  17.328   8.039
  727POPC   C4A13650  28.179  17.206   7.643
  727POPC   C1B13651  28.508  17.842   8.738
  727POPC   C2B13652  28.504  18.135   8.414
  727POPC   C3B13653  28.401  17.939   8.050
  727POPC   C4B13654  28.471  17.541   7.873
  728POPC   NC313655   5.504   7.420   9.572
  728POPC   PO413656   6.208   7.649   9.461
  728POPC   GL113657   6.070   7.563   9.073
  728POPC   GL213658   6.187   7.888   8.953
  728POPC   C1A13659   5.887   7.314   8.719
  728POPC   D2A13660   5.594   7.201   8.346
  728POPC   C3A13661   5.792   7.266   7.959
  728POPC   C4A13662   5.700   7.061   7.592
  728POPC   C1B13663   5.812   7.854   8.713
  728POPC   C2B13664   5.804   7.660   8.334
  728POPC   C3B13665   5.640   7.745   7.964
  728POPC   C4B13666   6.012   7.738   7.748
  729POPC   NC313667   6.204  11.297   9.383
  729POPC   PO413668   5.641  11.029   9.356
  729POPC   GL113669   5.777  11.176   9.011
  729POPC   GL213670   5.914  11.511   8.973
  729POPC   C1A13671   5.709  11.126   8.593
  729POPC   D2A13672   5.627  11.455   8.375
  729POPC   C3A13673   5.727  11.364   7.974
  729POPC   C4A13674   6.039  11.108   7.784
  729POPC   C1B13675   6.268  11.704   8.696
  729POPC   C2B13676   6.434  11.591   8.297
  729POPC   C3B13677   6.205  11.578   7.921
  729POPC   C4B13678   6.134  11.799   7.574
  730POPC   NC313679  27.336  26.706   9.423
  730POPC   PO413680  27.817  27.211   9.550
  730POPC   GL113681  27.777  26.939   9.254
  730POPC   GL213682  27.507  27.111   9.121
  730POPC   C1A13683  27.887  26.890   8.816
  730POPC   D2A13684  27.742  26.785   8.408
  730POPC   C3A13685  27.925  26.964   8.079
  730POPC   C4A13686  27.847  26.753   7.724
  730POPC   C1B13687  27.361  26.901   8.770
  730POPC   C2B13688  27.276  27.032   8.381
  730POPC   C3B13689  27.429  26.961   8.001
  730POPC   C4B13690  27.167  26.994   7.705
  731POPC   NC313691  28.493  15.814   9.786
  731POPC   PO413692  28.646  16.432   9.536
  731POPC   GL113693  28.504  16.283   9.133
  731POPC   GL213694  28.129  16.281   9.052
  731POPC   C1A13695  28.476  16.474   8.715
  731POPC   D2A13696  28.277  16.586   8.367
  731POPC   C3A13697  28.337  16.339   8.008
  731POPC   C4A13698  28.406  16.117   7.637
  731POPC   C1B13699  28.330  15.998   8.714
  731POPC   C2B13700  28.320  15.874   8.270
  731POPC   C3B13701  28.282  15.667   7.874
  731POPC   C4B13702  28.155  15.545   7.443
  732POPC   NC313703  40.636  35.084   9.341
  732POPC   PO413704  41.171  35.510   9.275
  732POPC   GL113705  40.896  35.383   9.022
  732POPC   GL213706  41.052  35.028   9.036
  732POPC   C1A13707  40.554  35.344   8.737
  732POPC   D2A13708  40.366  35.417   8.340
  732POPC   C3A13709  40.631  35.439   7.960
  732POPC   C4A13710  40.914  35.407   7.598
  732POPC   C1B13711  40.982  35.063   8.646
  732POPC   C2B13712  40.923  35.348   8.362
  732POPC   C3B13713  41.131  35.213   8.020
  732POPC   C4B13714  41.137  34.926   7.679
  733POPC   NC313715   7.241  31.104   9.308
  733POPC   PO413716   7.231  30.553   9.595
  733POPC   GL113717   7.360  30.555   9.152
  733POPC   GL213718   7.217  30.807   8.887
  733POPC   C1A13719   7.562  30.461   8.746
  733POPC   D2A13720   7.337  30.415   8.356
  733POPC   C3A13721   7.432  30.690   8.025
  733POPC   C4A13722   7.547  30.576   7.611
  733POPC   C1B13723   7.530  30.941   8.542
  733POPC   C2B13724   7.714  31.103   8.134
  733POPC   C3B13725   7.608  31.076   7.688
  733POPC   C4B13726   7.643  31.025   7.228
  734POPC   NC313727  41.360   0.654   9.441
  734POPC   PO413728  41.996   0.411   9.630
  734POPC   GL113729  41.732   0.299   9.261
  734POPC   GL213730  41.384   0.234   9.153
  734POPC   C1A13731  41.795   0.264   8.827
  734POPC   D2A13732  41.620   0.118   8.442
  734POPC   C3A13733  41.725   0.434   8.151
  734POPC   C4A13734  41.873   0.361   7.742
  734POPC   C1B13735  41.356   0.530   8.801
  734POPC   C2B13736  41.263   0.622   8.394
  734POPC   C3B13737  41.193   0.271   8.168
  734POPC   C4B13738  41.409   0.174   7.820
  735POPC   NC313739  44.835  16.999   9.514
  735POPC   PO413740  44.398  16.540   9.644
  735POPC   GL113741  44.613  16.603   9.249
  735POPC   GL213742  44.434  16.924   9.203
  735POPC   C1A13743  44.838  16.561   8.850
  735POPC   D2A13744  44.780  16.754   8.445
  735POPC   C3A13745  44.853  16.546   8.071
  735POPC   C4A13746  44.868  16.704   7.666
  735POPC   C1B13747  44.661  17.055   8.852
  735POPC   C2B13748  44.501  17.176   8.467
  735POPC   C3B13749  44.554  17.074   8.015
  735POPC   C4B13750  44.163  17.114   7.796
  736POPC   NC313751  37.876   1.088   9.629
  736POPC   PO413752  37.534   1.607   9.527
  736POPC   GL113753  37.786   1.329   9.156
  736POPC   GL213754  37.981   1.002   9.138
  736POPC   C1A13755  37.927   1.256   8.680
  736POPC   D2A13756  37.781   1.148   8.236
  736POPC   C3A13757  37.860   1.307   7.811
  736POPC   C4A13758  37.633   1.447   7.412
  736POPC   C1B13759  37.621   0.878   8.845
  736POPC   C2B13760  37.610   0.707   8.411
  736POPC   C3B13761  37.431   0.820   7.986
  736POPC   C4B13762  37.492   0.985   7.567
  737POPC   NC313763  23.397   0.603   9.832
  737POPC   PO413764  22.893   0.310   9.448
  737POPC   GL113765  22.719   0.430   9.083
  737POPC   GL213766  22.933   0.696   8.984
  737POPC   C1A13767  22.801   0.307   8.667
  737POPC   D2A13768  22.619   0.387   8.319
  737POPC   C3A13769  22.857   0.598   8.028
  737POPC   C4A13770  22.762   0.315   7.708
  737POPC   C1B13771  23.245   0.547   8.641
  737POPC   C2B13772  23.174   0.267   8.267
  737POPC   C3B13773  23.256   0.248   7.815
  737POPC   C4B13774  23.132   0.621   7.556
  738POPC   NC313775  38.704  33.509   9.459
  738POPC   PO413776  38.662  34.161   9.360
  738POPC   GL113777  38.385  33.854   9.223
  738POPC   GL213778  38.194  34.045   9.029
  738POPC   C1A13779  38.358  33.562   8.880
  738POPC   D2A13780  38.496  33.564   8.471
  738POPC   C3A13781  38.493  33.580   8.033
  738POPC   C4A13782  38.731  33.751   7.708
  738POPC   C1B13783  38.532  34.035   8.726
  738POPC   C2B13784  38.452  34.057   8.301
  738POPC   C3B13785  38.416  34.103   7.893
  738POPC   C4B13786  38.221  33.853   7.646
  739POPC   NC313787  21.621  24.496   9.493
  739POPC   PO413788  21.087  24.938   9.452
  739POPC   GL113789  21.261  24.608   9.102
  739POPC   GL213790  21.518  24.343   9.026
  739POPC   C1A13791  21.173  24.450   8.664
  739POPC   D2A13792  21.473  24.279   8.343
  739POPC   C3A13793  21.358  24.264   7.883
  739POPC   C4A13794  21.476  24.527   7.492
  739POPC   C1B13795  21.629  24.692   8.713
  739POPC   C2B13796  21.824  24.729   8.274
  739POPC   C3B13797  21.960  24.800   7.832
  739POPC   C4B13798  21.852  24.884   7.392
  740POPC   NC313799   4.381  28.638   9.524
  740POPC   PO413800   4.306  29.291   9.438
  740POPC   GL113801   4.521  28.999   9.173
  740POPC   GL213802   4.248  28.773   9.045
  740POPC   C1A13803   4.683  28.883   8.769
  740POPC   D2A13804   4.530  28.808   8.334
  740POPC   C3A13805   4.638  29.123   7.996
  740POPC   C4A13806   4.586  29.394   7.625
  740POPC   C1B13807   4.201  29.055   8.676
  740POPC   C2B13808   4.156  29.151   8.209
  740POPC   C3B13809   4.083  29.134   7.734
  740POPC   C4B13810   3.900  28.947   7.313
  741POPC   NC313811  25.746  16.003   9.572
  741POPC   PO413812  26.322  15.802   9.719
  741POPC   GL113813  26.190  15.979   9.303
  741POPC   GL213814  26.255  15.695   9.117
  741POPC   C1A13815  26.163  16.141   8.877
  741POPC   D2A13816  26.198  16.330   8.511
  741POPC   C3A13817  26.389  16.124   8.154
  741POPC   C4A13818  26.257  16.053   7.734
  741POPC   C1B13819  25.980  15.695   8.760
  741POPC   C2B13820  25.958  15.902   8.375
  741POPC   C3B13821  25.874  15.761   7.984
  741POPC   C4B13822  26.069  15.581   7.615
  742POPC   NC313823  29.392  37.516   9.371
  742POPC   PO413824  30.078  37.656   9.479
  742POPC   GL113825  29.827  37.642   9.143
  742POPC   GL213826  30.105  37.566   8.953
  742POPC   C1A13827  29.646  37.516   8.748
  742POPC   D2A13828  29.868  37.603   8.365
  742POPC   C3A13829  29.662  37.871   8.038
  742POPC   C4A13830  29.663  37.687   7.625
  742POPC   C1B13831  30.359  37.541   8.600
  742POPC   C2B13832  30.368  37.718   8.222
  742POPC   C3B13833  30.131  37.704   7.901
  742POPC   C4B13834  30.135  37.647   7.457
  743POPC   NC313835   3.017   8.743   9.776
  743POPC   PO413836   3.127   9.175   9.308
  743POPC   GL113837   2.991   8.761   9.197
  743POPC   GL213838   2.735   8.844   9.065
  743POPC   C1A13839   3.079   8.682   8.752
  743POPC   D2A13840   3.261   8.979   8.474
  743POPC   C3A13841   3.130   8.845   8.097
  743POPC   C4A13842   2.905   8.838   7.758
  743POPC   C1B13843   2.646   9.119   8.724
  743POPC   C2B13844   2.417   9.171   8.362
  743POPC   C3B13845   2.630   9.198   7.997
  743POPC   C4B13846   2.531   9.118   7.610
  744POPC   NC313847  10.820  34.238   9.468
  744POPC   PO413848  11.301  34.757   9.543
  744POPC   GL113849  11.352  34.622   9.148
  744POPC   GL213850  11.128  34.329   9.086
  744POPC   C1A13851  11.427  34.622   8.735
  744POPC   D2A13852  11.261  34.383   8.333
  744POPC   C3A13853  11.416  34.670   7.990
  744POPC   C4A13854  11.474  34.616   7.527
  744POPC   C1B13855  10.947  34.550   8.752
  744POPC   C2B13856  11.058  34.829   8.422
  744POPC   C3B13857  10.909  34.787   8.022
  744POPC   C4B13858  11.009  34.765   7.620
  745POPC   NC313859   1.027  42.737   9.499
  745POPC   PO413860   1.347  43.325   9.614
  745POPC   GL113861   1.421  43.189   9.174
  745POPC   GL213862   1.366  42.843   9.140
  745POPC   C1A13863   1.458  43.233   8.707
  745POPC   D2A13864   1.146  43.307   8.366
  745POPC   C3A13865   1.178  43.445   7.924
  745POPC   C4A13866   0.930  43.389   7.555
  745POPC   C1B13867   1.111  42.871   8.792
  745POPC   C2B13868   1.295  42.833   8.382
  745POPC   C3B13869   1.141  42.942   7.971
  745POPC   C4B13870   1.365  43.023   7.594
  746POPC   NC313871  41.015   7.753   9.378
  746POPC   PO413872  41.606   7.367   9.501
  746POPC   GL113873  41.581   7.101   9.146
  746POPC   GL213874  41.277   7.052   9.154
  746POPC   C1A13875  41.750   7.169   8.720
  746POPC   D2A13876  41.753   7.530   8.461
  746POPC   C3A13877  41.527   7.449   8.101
  746POPC   C4A13878  41.541   7.590   7.705
  746POPC   C1B13879  41.245   7.293   8.769
  746POPC   C2B13880  41.254   7.663   8.479
  746POPC   C3B13881  41.062   7.673   8.071
  746POPC   C4B13882  41.086   7.340   7.816
  747POPC   NC313883  25.581  20.118   9.595
  747POPC   PO413884  26.186  19.673   9.534
  747POPC   GL113885  26.228  19.892   9.178
  747POPC   GL213886  25.941  20.065   9.236
  747POPC   C1A13887  26.184  19.765   8.769
  747POPC   D2A13888  26.351  19.840   8.375
  747POPC   C3A13889  26.133  19.709   8.012
  747POPC   C4A13890  26.285  19.841   7.622
  747POPC   C1B13891  25.953  20.234   8.850
  747POPC   C2B13892  25.917  20.078   8.449
  747POPC   C3B13893  25.805  20.106   8.051
  747POPC   C4B13894  25.776  19.891   7.667
  748POPC   NC313895  34.941  23.821   9.371
  748POPC   PO413896  34.465  23.435   9.410
  748POPC   GL113897  34.614  23.547   9.037
  748POPC   GL213898  34.955  23.477   8.975
  748POPC   C1A13899  34.456  23.474   8.639
  748POPC   D2A13900  34.541  23.692   8.252
  748POPC   C3A13901  34.575  23.649   7.824
  748POPC   C4A13902  34.548  23.372   7.455
  748POPC   C1B13903  34.850  23.802   8.649
  748POPC   C2B13904  34.783  24.127   8.321
  748POPC   C3B13905  34.871  24.096   7.860
  748POPC   C4B13906  34.803  23.877   7.402
  749POPC   NC313907  28.421  29.473   9.501
  749POPC   PO413908  28.154  28.866   9.475
  749POPC   GL113909  28.287  29.133   9.148
  749POPC   GL213910  28.590  29.014   9.112
  749POPC   C1A13911  28.450  29.404   8.813
  749POPC   D2A13912  28.288  29.415   8.404
  749POPC   C3A13913  28.455  29.406   8.000
  749POPC   C4A13914  28.348  29.144   7.667
  749POPC   C1B13915  28.589  28.903   8.667
  749POPC   C2B13916  28.517  28.923   8.217
  749POPC   C3B13917  28.738  28.850   7.812
  749POPC   C4B13918  28.699  28.928   7.335
  750POPC   NC313919  16.955  21.850   9.605
  750POPC   PO413920  16.651  22.380   9.429
  750POPC   GL113921  16.693  22.142   9.102
  750POPC   GL213922  16.666  21.788   9.166
  750POPC   C1A13923  16.533  22.230   8.698
  750POPC   D2A13924  16.520  22.239   8.274
  750POPC   C3A13925  16.808  22.326   7.942
  750POPC   C4A13926  16.392  22.428   7.809
  750POPC   C1B13927  16.550  21.697   8.737
  750POPC   C2B13928  16.707  21.788   8.360
  750POPC   C3B13929  16.762  21.826   7.970
  750POPC   C4B13930  16.625  21.929   7.587
  751POPC   NC313931  32.459   6.961  10.013
  751POPC   PO413932  32.825   7.418   9.642
  751POPC   GL113933  33.080   7.392   9.233
  751POPC   GL213934  33.149   7.731   9.094
  751POPC   C1A13935  33.226   7.363   8.785
  751POPC   D2A13936  32.941   7.405   8.485
  751POPC   C3A13937  32.991   7.274   8.117
  751POPC   C4A13938  32.953   7.394   7.716
  751POPC   C1B13939  32.914   7.854   8.682
  751POPC   C2B13940  33.058   7.798   8.202
  751POPC   C3B13941  33.028   7.883   7.743
  751POPC   C4B13942  33.266   7.908   7.328
  752POPC   NC313943  29.052  29.127   9.509
  752POPC   PO413944  29.728  29.141   9.625
  752POPC   GL113945  29.492  28.998   9.248
  752POPC   GL213946  29.330  29.324   9.151
  752POPC   C1A13947  29.437  28.982   8.779
  752POPC   D2A13948  29.105  28.902   8.437
  752POPC   C3A13949  29.224  29.025   7.987
  752POPC   C4A13950  29.163  28.988   7.535
  752POPC   C1B13951  28.980  29.232   8.844
  752POPC   C2B13952  28.807  29.313   8.424
  752POPC   C3B13953  28.959  29.483   8.041
  752POPC   C4B13954  28.844  29.371   7.627
  753POPC   NC313955  16.297  36.732   9.475
  753POPC   PO413956  15.787  37.161   9.493
  753POPC   GL113957  15.957  36.992   9.159
  753POPC   GL213958  16.333  37.017   9.065
  753POPC   C1A13959  15.861  37.079   8.758
  753POPC   D2A13960  15.985  37.230   8.382
  753POPC   C3A13961  15.887  37.017   7.996
  753POPC   C4A13962  15.780  36.928   7.556
  753POPC   C1B13963  16.142  36.664   8.829
  753POPC   C2B13964  15.972  36.708   8.422
  753POPC   C3B13965  16.118  36.582   8.079
  753POPC   C4B13966  16.207  36.715   7.696
  754POPC   NC313967   2.452  21.115   9.611
  754POPC   PO413968   2.626  21.739   9.474
  754POPC   GL113969   2.669  21.479   9.099
  754POPC   GL213970   2.771  21.185   9.137
  754POPC   C1A13971   2.969  21.479   8.734
  754POPC   D2A13972   2.988  21.663   8.310
  754POPC   C3A13973   2.701  21.574   7.984
  754POPC   C4A13974   2.730  21.484   7.579
  754POPC   C1B13975   2.809  21.006   8.742
  754POPC   C2B13976   2.731  21.189   8.323
  754POPC   C3B13977   2.798  21.045   7.880
  754POPC   C4B13978   2.828  21.009   7.426
  755POPC   NC313979  10.671  13.205   9.437
  755POPC   PO413980  10.694  13.895   9.559
  755POPC   GL113981  10.425  13.743   9.228
  755POPC   GL213982  10.565  14.017   9.051
  755POPC   C1A13983  10.405  13.565   8.819
  755POPC   D2A13984  10.459  13.733   8.414
  755POPC   C3A13985  10.238  13.504   8.126
  755POPC   C4A13986  10.125  13.603   7.737
  755POPC   C1B13987  10.908  13.792   8.861
  755POPC   C2B13988  11.027  13.849   8.424
  755POPC   C3B13989  10.929  13.665   8.012
  755POPC   C4B13990  10.542  13.838   7.883
  756POPC   NC313991  26.093   0.906   9.880
  756POPC   PO413992  25.941   0.445   9.462
  756POPC   GL113993  25.994   0.329   9.048
  756POPC   GL213994  26.335   0.414   9.078
  756POPC   C1A13995  25.990   0.476   8.621
  756POPC   D2A13996  25.682   0.591   8.311
  756POPC   C3A13997  25.737   0.581   7.884
  756POPC   C4A13998  25.881   0.197   7.669
  756POPC   C1B13999  26.459   0.631   8.735
  756POPC   C2B14000  26.421   0.473   8.315
  756POPC   C3B14001  26.244   0.584   7.908
  756POPC   C4B14002  26.394   0.845   7.585
  757POPC   NC314003  10.403  25.850   9.538
  757POPC   PO414004  11.066  26.186   9.476
  757POPC   GL114005  10.757  26.022   9.144
  757POPC   GL214006  10.408  26.101   9.118
  757POPC   C1A14007  10.647  26.188   8.691
  757POPC   D2A14008  10.797  26.196   8.293
  757POPC   C3A14009  10.554  26.027   7.966
  757POPC   C4A14010  10.162  26.155   7.811
  757POPC   C1B14011  10.166  26.009   8.728
  757POPC   C2B14012  10.159  25.956   8.296
  757POPC   C3B14013  10.193  25.603   8.088
  757POPC   C4B14014  10.261  25.357   7.762
  758POPC   NC314015  30.728  25.503   9.540
  758POPC   PO414016  30.297  25.045   9.476
  758POPC   GL114017  30.598  25.198   9.130
  758POPC   GL214018  30.923  25.399   9.098
  758POPC   C1A14019  30.630  25.324   8.692
  758POPC   D2A14020  30.721  25.064   8.358
  758POPC   C3A14021  30.380  25.159   8.097
  758POPC   C4A14022  30.300  25.504   7.796
  758POPC   C1B14023  31.116  25.488   8.700
  758POPC   C2B14024  31.067  25.420   8.258
  758POPC   C3B14025  30.811  25.272   7.860
  758POPC   C4B14026  30.797  25.596   7.524
  759POPC   NC314027   8.049  13.037   9.615
  759POPC   PO414028   8.477  12.596   9.298
  759POPC   GL114029   8.376  12.941   9.107
  759POPC   GL214030   8.000  12.995   9.114
  759POPC   C1A14031   8.360  12.813   8.681
  759POPC   D2A14032   8.149  12.646   8.348
  759POPC   C3A14033   8.200  12.846   7.991
  759POPC   C4A14034   8.550  12.774   7.792
  759POPC   C1B14035   7.867  12.926   8.684
  759POPC   C2B14036   7.970  13.188   8.316
  759POPC   C3B14037   7.860  13.266   7.878
  759POPC   C4B14038   7.863  12.954   7.565
  760POPC   NC314039  25.668  42.072   9.299
  760POPC   PO414040  25.149  42.468   9.462
  760POPC   GL114041  25.247  42.291   9.103
  760POPC   GL214042  25.557  42.385   8.925
  760POPC   C1A14043  25.148  42.208   8.709
  760POPC   D2A14044  25.394  42.155   8.328
  760POPC   C3A14045  25.165  42.253   7.967
  760POPC   C4A14046  24.990  42.234   7.564
  760POPC   C1B14047  25.814  42.115   8.647
  760POPC   C2B14048  25.848  41.916   8.226
  760POPC   C3B14049  25.642  42.052   7.823
  760POPC   C4B14050  25.467  42.439   7.582
  761POPC   NC314051   8.042   3.026   9.532
  761POPC   PO414052   8.688   2.605   9.457
  761POPC   GL114053   8.535   2.884   9.137
  761POPC   GL214054   8.166   2.887   9.070
  761POPC   C1A14055   8.476   2.960   8.698
  761POPC   D2A14056   8.257   3.072   8.317
  761POPC   C3A14057   8.559   2.954   8.017
  761POPC   C4A14058   8.562   2.819   7.590
  761POPC   C1B14059   8.053   2.611   8.708
  761POPC   C2B14060   7.905   2.649   8.279
  761POPC   C3B14061   7.880   2.756   7.851
  761POPC   C4B14062   8.094   2.717   7.455
  762POPC   NC314063  33.291  17.863   9.360
  762POPC   PO414064  33.911  17.600   9.485
  762POPC   GL114065  33.855  17.414   9.095
  762POPC   GL214066  33.657  17.691   9.031
  762POPC   C1A14067  33.911  17.437   8.613
  762POPC   D2A14068  33.889  17.224   8.177
  762POPC   C3A14069  33.868  17.453   7.768
  762POPC   C4A14070  33.932  17.326   7.325
  762POPC   C1B14071  33.546  17.782   8.618
  762POPC   C2B14072  33.696  17.736   8.205
  762POPC   C3B14073  33.537  17.861   7.798
  762POPC   C4B14074  33.468  17.582   7.420
  763POPC   NC314075  29.664   2.173   9.473
  763POPC   PO414076  30.278   2.230   9.408
  763POPC   GL114077  29.942   2.174   9.075
  763POPC   GL214078  29.901   1.823   9.128
  763POPC   C1A14079  29.684   1.992   8.708
  763POPC   D2A14080  29.556   1.818   8.297
  763POPC   C3A14081  29.721   2.074   7.933
  763POPC   C4A14082  29.764   2.362   7.582
  763POPC   C1B14083  30.199   1.933   8.739
  763POPC   C2B14084  30.091   1.902   8.303
  763POPC   C3B14085  30.353   1.835   7.919
  763POPC   C4B14086  30.560   1.902   7.493
  764POPC   NC314087  18.670  22.089   9.600
  764POPC   PO414088  19.396  22.210   9.487
  764POPC   GL114089  19.101  22.035   9.282
  764POPC   GL214090  18.911  22.295   9.195
  764POPC   C1A14091  19.136  21.937   8.868
  764POPC   D2A14092  19.054  22.066   8.459
  764POPC   C3A14093  19.333  22.030   8.125
  764POPC   C4A14094  19.129  22.071   7.742
  764POPC   C1B14095  19.038  22.452   8.787
  764POPC   C2B14096  18.856  22.598   8.435
  764POPC   C3B14097  18.919  22.392   8.084
  764POPC   C4B14098  18.791  22.536   7.705
  765POPC   NC314099   8.939  42.917   9.680
  765POPC   PO414100   9.071  43.599   9.516
  765POPC   GL114101   8.822  43.249   9.254
  765POPC   GL214102   9.024  43.004   9.156
  765POPC   C1A14103   8.605  43.190   8.793
  765POPC   D2A14104   8.523  43.463   8.375
  765POPC   C3A14105   8.765  43.386   7.985
  765POPC   C4A14106   8.670  43.088   7.661
  765POPC   C1B14107   9.070  43.357   8.833
  765POPC   C2B14108   8.971  43.155   8.421
  765POPC   C3B14109   9.047  42.966   8.029
  765POPC   C4B14110   9.254  43.141   7.702
  766POPC   NC314111  31.884   8.247   9.454
  766POPC   PO414112  32.496   8.280   9.731
  766POPC   GL114113  32.344   8.060   9.324
  766POPC   GL214114  32.314   8.354   9.157
  766POPC   C1A14115  32.323   7.988   8.814
  766POPC   D2A14116  32.304   7.859   8.345
  766POPC   C3A14117  32.193   8.143   7.973
  766POPC   C4A14118  32.386   7.920   7.596
  766POPC   C1B14119  32.020   8.402   8.800
  766POPC   C2B14120  32.001   8.514   8.353
  766POPC   C3B14121  31.861   8.643   7.948
  766POPC   C4B14122  31.955   8.444   7.576
  767POPC   NC314123  25.179  24.916   9.376
  767POPC   PO414124  25.687  25.355   9.524
  767POPC   GL114125  25.564  25.220   9.117
  767POPC   GL214126  25.385  25.515   9.069
  767POPC   C1A14127  25.228  25.158   8.754
  767POPC   D2A14128  25.068  25.201   8.327
  767POPC   C3A14129  25.421  25.267   8.047
  767POPC   C4A14130  25.393  25.423   7.653
  767POPC   C1B14131  25.096  25.662   8.780
  767POPC   C2B14132  24.954  25.776   8.387
  767POPC   C3B14133  25.087  25.725   7.966
  767POPC   C4B14134  24.897  25.615   7.579
  768POPC   NC314135   3.918  41.234   9.393
  768POPC   PO414136   4.241  40.690   9.632
  768POPC   GL114137   4.250  40.847   9.206
  768POPC   GL214138   4.518  41.093   9.206
  768POPC   C1A14139   4.079  40.633   8.772
  768POPC   D2A14140   3.957  40.657   8.303
  768POPC   C3A14141   3.905  41.065   8.094
  768POPC   C4A14142   4.077  41.196   7.702
  768POPC   C1B14143   4.500  40.906   8.766
  768POPC   C2B14144   4.344  40.978   8.343
  768POPC   C3B14145   4.363  40.813   7.895
  768POPC   C4B14146   4.601  40.817   7.477
  769POPC   NC314147  28.627  35.478   9.631
  769POPC   PO414148  28.078  35.120   9.495
  769POPC   GL114149  28.229  35.371   9.148
  769POPC   GL214150  28.567  35.543   9.130
  769POPC   C1A14151  28.310  35.483   8.706
  769POPC   D2A14152  28.392  35.585   8.294
  769POPC   C3A14153  28.396  35.320   7.968
  769POPC   C4A14154  28.182  35.060   7.736
  769POPC   C1B14155  28.632  35.146   8.914
  769POPC   C2B14156  28.621  35.127   8.465
  769POPC   C3B14157  28.868  35.314   8.141
  769POPC   C4B14158  28.808  35.132   7.729
  770POPC   NC314159  16.460  18.028   9.659
  770POPC   PO414160  16.671  18.646   9.623
  770POPC   GL114161  16.704  18.351   9.287
  770POPC   GL214162  16.948  18.623   9.172
  770POPC   C1A14163  16.393  18.332   8.938
  770POPC   D2A14164  16.292  18.340   8.492
  770POPC   C3A14165  16.481  18.371   8.048
  770POPC   C4A14166  16.470  18.231   7.612
  770POPC   C1B14167  16.985  18.393   8.833
  770POPC   C2B14168  17.018  18.622   8.461
  770POPC   C3B14169  17.229  18.595   8.108
  770POPC   C4B14170  16.968  18.366   7.783
  771POPC   NC314171  11.327  36.846   9.630
  771POPC   PO414172  11.139  37.497   9.708
  771POPC   GL114173  11.232  37.208   9.254
  771POPC   GL214174  11.306  36.836   9.128
  771POPC   C1A14175  11.289  37.164   8.755
  771POPC   D2A14176  11.496  37.139   8.317
  771POPC   C3A14177  11.304  37.126   7.874
  771POPC   C4A14178  11.083  37.160   7.476
  771POPC   C1B14179  11.194  36.658   8.710
  771POPC   C2B14180  11.258  36.693   8.230
  771POPC   C3B14181  11.227  36.588   7.816
  771POPC   C4B14182  10.897  36.594   7.484
  772POPC   NC314183   7.966  25.633   9.513
  772POPC   PO414184   8.422  25.068   9.483
  772POPC   GL114185   8.385  25.399   9.165
  772POPC   GL214186   8.082  25.330   9.131
  772POPC   C1A14187   8.332  25.553   8.709
  772POPC   D2A14188   8.381  25.337   8.312
  772POPC   C3A14189   8.396  25.345   7.865
  772POPC   C4A14190   8.310  25.052   7.531
  772POPC   C1B14191   7.848  25.565   8.849
  772POPC   C2B14192   7.865  25.430   8.420
  772POPC   C3B14193   7.970  25.147   8.067
  772POPC   C4B14194   7.864  25.237   7.649
  773POPC   NC314195  29.011  25.303   9.581
  773POPC   PO414196  29.423  24.904   9.222
  773POPC   GL114197  29.299  25.324   9.144
  773POPC   GL214198  28.975  25.544   9.138
  773POPC   C1A14199  29.402  25.342   8.735
  773POPC   D2A14200  29.604  25.371   8.366
  773POPC   C3A14201  29.377  25.276   7.994
  773POPC   C4A14202  29.384  24.997   7.679
  773POPC   C1B14203  28.835  25.392   8.775
  773POPC   C2B14204  29.026  25.296   8.384
  773POPC   C3B14205  28.875  25.427   7.999
  773POPC   C4B14206  28.877  25.136   7.683
  774POPC   NC314207   0.328  24.658   9.452
  774POPC   PO414208   0.669  24.189   9.211
  774POPC   GL114209   0.292  24.300   9.043
  774POPC   GL214210   0.182  24.670   8.969
  774POPC   C1A14211   0.354  24.351   8.622
  774POPC   D2A14212   0.369  24.630   8.306
  774POPC   C3A14213   0.265  24.439   7.938
  774POPC   C4A14214   0.096  24.712   7.675
  774POPC   C1B14215   0.584  24.820   8.746
  774POPC   C2B14216   0.811  24.855   8.314
  774POPC   C3B14217   0.725  24.739   7.863
  774POPC   C4B14218   0.966  24.721   7.395
  775POPC   NC314219  32.350  29.511   9.560
  775POPC   PO414220  32.013  30.011   9.383
  775POPC   GL114221  32.248  29.773   9.127
  775POPC   GL214222  31.943  29.741   8.952
  775POPC   C1A14223  32.418  29.809   8.727
  775POPC   D2A14224  32.361  30.132   8.372
  775POPC   C3A14225  32.454  30.048   7.934
  775POPC   C4A14226  32.199  29.881   7.569
  775POPC   C1B14227  31.962  30.049   8.690
  775POPC   C2B14228  32.027  29.760   8.393
  775POPC   C3B14229  31.986  29.844   8.015
  775POPC   C4B14230  31.835  29.523   7.792
  776POPC   NC314231   8.469  26.363   9.234
  776POPC   PO414232   8.031  26.780   9.670
  776POPC   GL114233   8.035  26.904   9.195
  776POPC   GL214234   8.065  26.607   9.075
  776POPC   C1A14235   8.237  27.001   8.758
  776POPC   D2A14236   8.332  26.782   8.353
  776POPC   C3A14237   8.378  26.800   7.881
  776POPC   C4A14238   8.611  26.838   7.445
  776POPC   C1B14239   7.965  26.545   8.666
  776POPC   C2B14240   7.746  26.634   8.296
  776POPC   C3B14241   7.904  26.648   7.899
  776POPC   C4B14242   7.765  26.812   7.510
  777POPC   NC314243  43.887  15.563   9.425
  777POPC   PO414244  43.575  16.168   9.464
  777POPC   GL114245  43.877  16.034   9.144
  777POPC   GL214246  43.632  15.834   9.027
  777POPC   C1A14247  43.995  16.183   8.703
  777POPC   D2A14248  44.019  16.302   8.239
  777POPC   C3A14249  43.901  15.939   7.956
  777POPC   C4A14250  43.485  15.765   7.799
  777POPC   C1B14251  43.498  16.234   8.798
  777POPC   C2B14252  43.538  16.384   8.364
  777POPC   C3B14253  43.544  16.305   7.927
  777POPC   C4B14254  43.140  16.206   7.772
  778POPC   NC314255  20.104  44.109   9.637
  778POPC   PO414256  19.754  44.611   9.382
  778POPC   GL114257  20.069  44.624   9.104
  778POPC   GL214258  20.270  44.327   9.176
  778POPC   C1A14259  19.948  44.821   8.710
  778POPC   D2A14260  20.179  44.713   8.367
  778POPC   C3A14261  20.020  44.849   7.996
  778POPC   C4A14262  19.655  44.732   7.784
  778POPC   C1B14263  20.114  44.296   8.735
  778POPC   C2B14264  20.278  44.208   8.348
  778POPC   C3B14265  20.089  44.345   7.985
  778POPC   C4B14266  19.772  44.247   7.699
  779POPC   NC314267  28.149   4.802   9.678
  779POPC   PO414268  28.541   5.348   9.675
  779POPC   GL114269  28.415   5.309   9.237
  779POPC   GL214270  28.337   4.929   9.155
  779POPC   C1A14271  28.260   5.312   8.804
  779POPC   D2A14272  28.308   5.083   8.425
  779POPC   C3A14273  28.273   5.326   8.063
  779POPC   C4A14274  28.264   5.361   7.622
  779POPC   C1B14275  27.980   4.875   8.849
  779POPC   C2B14276  27.918   4.754   8.405
  779POPC   C3B14277  28.125   4.835   7.996
  779POPC   C4B14278  28.515   4.936   7.776
  780POPC   NC314279  34.466  30.845   9.486
  780POPC   PO414280  34.946  31.283   9.318
  780POPC   GL114281  34.771  30.940   9.045
  780POPC   GL214282  34.561  30.620   9.046
  780POPC   C1A14283  34.578  30.897   8.602
  780POPC   D2A14284  34.262  30.799   8.281
  780POPC   C3A14285  34.375  30.858   7.862
  780POPC   C4A14286  34.809  30.882   7.756
  780POPC   C1B14287  34.346  30.444   8.695
  780POPC   C2B14288  34.627  30.405   8.359
  780POPC   C3B14289  34.713  30.379   7.910
  780POPC   C4B14290  34.366  30.402   7.624
  781POPC   NC314291  12.696  13.148   9.430
  781POPC   PO414292  13.159  13.742   9.599
  781POPC   GL114293  12.861  13.613   9.283
  781POPC   GL214294  13.078  13.319   9.138
  781POPC   C1A14295  12.672  13.739   8.900
  781POPC   D2A14296  12.941  13.690   8.547
  781POPC   C3A14297  12.804  13.634   8.116
  781POPC   C4A14298  12.441  13.735   7.826
  781POPC   C1B14299  12.781  13.244   8.788
  781POPC   C2B14300  12.581  13.127   8.405
  781POPC   C3B14301  12.564  13.203   7.980
  781POPC   C4B14302  12.769  13.375   7.633
  782POPC   NC314303  41.346  43.371   9.396
  782POPC   PO414304  41.841  42.878   9.494
  782POPC   GL114305  41.658  43.068   9.132
  782POPC   GL214306  41.951  43.007   8.975
  782POPC   C1A14307  41.390  43.154   8.754
  782POPC   D2A14308  41.467  43.025   8.340
  782POPC   C3A14309  41.403  43.195   7.910
  782POPC   C4A14310  41.256  43.198   7.459
  782POPC   C1B14311  41.938  43.164   8.560
  782POPC   C2B14312  41.904  43.093   8.114
  782POPC   C3B14313  41.875  43.151   7.692
  782POPC   C4B14314  42.154  43.073   7.325
  783POPC   NC314315  23.343   0.607   9.316
  783POPC   PO414316  23.810   0.169   9.550
  783POPC   GL114317  23.977   0.332   9.159
  783POPC   GL214318  23.947   0.651   9.074
  783POPC   C1A14319  23.965   0.222   8.754
  783POPC   D2A14320  23.657   0.276   8.442
  783POPC   C3A14321  23.812   0.279   8.043
  783POPC   C4A14322  23.845   0.100   7.647
  783POPC   C1B14323  23.755   0.727   8.691
  783POPC   C2B14324  23.516   0.939   8.373
  783POPC   C3B14325  23.379   0.706   8.033
  783POPC   C4B14326  23.625   0.599   7.673
  784POPC   NC314327  10.245  14.032   9.617
  784POPC   PO414328  10.371  14.697   9.476
  784POPC   GL114329  10.344  14.516   9.102
  784POPC   GL214330  10.691  14.504   9.054
  784POPC   C1A14331  10.355  14.419   8.696
  784POPC   D2A14332  10.619  14.215   8.442
  784POPC   C3A14333  10.444  14.309   8.058
  784POPC   C4A14334  10.409  14.595   7.756
  784POPC   C1B14335  10.779  14.681   8.665
  784POPC   C2B14336  10.610  14.742   8.274
  784POPC   C3B14337  10.871  14.741   7.916
  784POPC   C4B14338  10.868  14.661   7.484
  785POPC   NC314339  27.902  13.560   9.587
  785POPC   PO414340  27.327  13.776   9.458
  785POPC   GL114341  27.572  13.648   9.090
  785POPC   GL214342  27.738  13.344   9.096
  785POPC   C1A14343  27.418  13.491   8.678
  785POPC   D2A14344  27.550  13.422   8.248
  785POPC   C3A14345  27.618  13.764   7.895
  785POPC   C4A14346  27.437  14.028   7.531
  785POPC   C1B14347  27.877  13.263   8.633
  785POPC   C2B14348  27.962  13.122   8.183
  785POPC   C3B14349  27.852  13.320   7.808
  785POPC   C4B14350  28.076  13.633   7.534
  786POPC   NC314351   9.086   2.370   9.512
  786POPC   PO414352   9.354   2.983   9.496
  786POPC   GL114353   9.078   2.939   9.119
  786POPC   GL214354   9.084   2.580   9.058
  786POPC   C1A14355   9.009   2.885   8.667
  786POPC   D2A14356   9.379   2.707   8.438
  786POPC   C3A14357   9.296   2.694   7.990
  786POPC   C4A14358   9.014   2.932   7.774
  786POPC   C1B14359   9.058   2.369   8.658
  786POPC   C2B14360   8.903   2.572   8.277
  786POPC   C3B14361   8.801   2.451   7.862
  786POPC   C4B14362   8.920   2.508   7.412
  787POPC   NC314363   3.910  27.891   9.535
  787POPC   PO414364   3.741  27.384   9.429
  787POPC   GL114365   3.578  27.727   9.127
  787POPC   GL214366   3.832  27.955   9.030
  787POPC   C1A14367   3.450  27.842   8.675
  787POPC   D2A14368   3.521  28.025   8.248
  787POPC   C3A14369   3.515  27.802   7.831
  787POPC   C4A14370   3.349  27.404   7.624
  787POPC   C1B14371   3.922  27.642   8.713
  787POPC   C2B14372   3.832  27.610   8.261
  787POPC   C3B14373   4.020  27.826   7.898
  787POPC   C4B14374   3.951  27.998   7.447
  788POPC   NC314375  30.235  30.252   9.577
  788POPC   PO414376  29.932  29.712   9.375
  788POPC   GL114377  30.124  29.824   9.047
  788POPC   GL214378  30.052  30.171   9.123
  788POPC   C1A14379  29.996  29.709   8.653
  788POPC   D2A14380  29.752  29.719   8.321
  788POPC   C3A14381  29.943  29.725   7.956
  788POPC   C4A14382  29.762  29.824   7.563
  788POPC   C1B14383  29.940  30.203   8.716
  788POPC   C2B14384  30.068  30.144   8.264
  788POPC   C3B14385  30.051  30.227   7.806
  788POPC   C4B14386  30.254  30.281   7.400
  789POPC   NC314387   7.283  32.668   9.409
  789POPC   PO414388   7.731  33.114   9.552
  789POPC   GL114389   7.524  33.145   9.185
  789POPC   GL214390   7.179  33.132   9.133
  789POPC   C1A14391   7.595  33.340   8.781
  789POPC   D2A14392   7.361  33.320   8.438
  789POPC   C3A14393   7.546  33.202   8.058
  789POPC   C4A14394   7.537  33.248   7.621
  789POPC   C1B14395   7.358  32.881   8.790
  789POPC   C2B14396   7.310  32.828   8.361
  789POPC   C3B14397   7.229  32.818   7.956
  789POPC   C4B14398   7.067  33.044   7.657
  790POPC   NC314399   6.725  11.712   9.602
  790POPC   PO414400   6.618  11.059   9.566
  790POPC   GL114401   6.824  11.313   9.265
  790POPC   GL214402   6.543  11.382   9.004
  790POPC   C1A14403   7.004  11.237   8.867
  790POPC   D2A14404   6.714  11.214   8.528
  790POPC   C3A14405   6.967  11.347   8.206
  790POPC   C4A14406   6.979  11.077   7.865
  790POPC   C1B14407   6.219  11.191   8.718
  790POPC   C2B14408   6.125  11.165   8.286
  790POPC   C3B14409   6.498  11.161   8.008
  790POPC   C4B14410   6.707  11.526   7.809
  791POPC   NC314411  44.189  25.472   9.374
  791POPC   PO414412  43.710  25.055   9.572
  791POPC   GL114413  43.911  25.106   9.160
  791POPC   GL214414  44.249  24.928   9.159
  791POPC   C1A14415  43.895  25.459   8.802
  791POPC   D2A14416  43.546  25.567   8.493
  791POPC   C3A14417  43.645  25.374   8.097
  791POPC   C4A14418  43.709  25.203   7.700
  791POPC   C1B14419  44.291  25.126   8.783
  791POPC   C2B14420  44.012  25.108   8.425
  791POPC   C3B14421  44.128  25.096   8.005
  791POPC   C4B14422  44.116  25.489   7.837
  792POPC   NC314423  13.961  39.121   9.667
  792POPC   PO414424  13.362  38.915   9.435
  792POPC   GL114425  13.560  39.120   9.124
  792POPC   GL214426  13.924  39.138   9.148
  792POPC   C1A14427  13.610  39.333   8.768
  792POPC   D2A14428  13.606  39.492   8.388
  792POPC   C3A14429  13.626  39.205   8.044
  792POPC   C4A14430  13.539  39.374   7.633
  792POPC   C1B14431  13.944  38.934   8.758
  792POPC   C2B14432  13.819  38.853   8.375
  792POPC   C3B14433  14.000  38.820   7.999
  792POPC   C4B14434  13.899  39.025   7.643
  793POPC   NC314435  18.264   8.816   9.529
  793POPC   PO414436  18.534   9.254   9.173
  793POPC   GL114437  18.608   8.876   8.981
  793POPC   GL214438  18.640   8.565   9.149
  793POPC   C1A14439  18.496   8.928   8.575
  793POPC   D2A14440  18.266   9.158   8.304
  793POPC   C3A14441  18.309   9.170   7.863
  793POPC   C4A14442  18.024   9.475   7.747
  793POPC   C1B14443  18.494   8.444   8.713
  793POPC   C2B14444  18.507   8.544   8.247
  793POPC   C3B14445  18.358   8.647   7.825
  793POPC   C4B14446  18.473   8.505   7.406
  794POPC   NC314447  17.970  36.374   9.485
  794POPC   PO414448  18.675  36.307   9.419
  794POPC   GL114449  18.377  36.363   9.111
  794POPC   GL214450  18.108  36.121   9.076
  794POPC   C1A14451  18.413  36.248   8.678
  794POPC   D2A14452  18.327  36.452   8.300
  794POPC   C3A14453  18.335  36.149   7.943
  794POPC   C4A14454  18.697  35.919   7.788
  794POPC   C1B14455  17.894  36.316   8.764
  794POPC   C2B14456  17.770  36.507   8.377
  794POPC   C3B14457  17.959  36.533   7.973
  794POPC   C4B14458  18.135  36.452   7.558
  795POPC   NC314459  31.552  33.645   9.641
  795POPC   PO414460  31.655  34.197   9.484
  795POPC   GL114461  31.691  33.887   9.179
  795POPC   GL214462  31.408  33.694   9.152
  795POPC   C1A14463  31.655  33.898   8.736
  795POPC   D2A14464  31.661  34.118   8.332
  795POPC   C3A14465  31.558  33.992   7.911
  795POPC   C4A14466  31.784  34.026   7.535
  795POPC   C1B14467  31.229  33.596   8.789
  795POPC   C2B14468  31.289  33.760   8.402
  795POPC   C3B14469  31.140  33.749   8.031
  795POPC   C4B14470  31.154  33.542   7.713
  796POPC   NC314471  42.110  30.491   9.235
  796POPC   PO414472  41.601  30.668   9.557
  796POPC   GL114473  41.559  30.589   9.133
  796POPC   GL214474  41.319  30.383   9.075
  796POPC   C1A14475  41.323  30.762   8.733
  796POPC   D2A14476  41.318  30.983   8.323
  796POPC   C3A14477  41.620  30.927   7.987
  796POPC   C4A14478  41.659  30.585   7.671
  796POPC   C1B14479  41.661  30.406   8.668
  796POPC   C2B14480  41.643  30.450   8.193
  796POPC   C3B14481  41.855  30.185   7.877
  796POPC   C4B14482  41.856  30.169   7.410
  797POPC   NC314483  43.199  11.274   9.754
  797POPC   PO414484  42.976  10.888   9.256
  797POPC   GL114485  43.392  10.977   9.036
  797POPC   GL214486  43.530  11.259   9.236
  797POPC   C1A14487  43.361  10.953   8.562
  797POPC   D2A14488  42.951  10.954   8.301
  797POPC   C3A14489  42.955  11.186   7.922
  797POPC   C4A14490  43.301  11.282   7.701
  797POPC   C1B14491  43.388  11.436   8.808
  797POPC   C2B14492  43.332  11.420   8.331
  797POPC   C3B14493  43.576  11.608   7.981
  797POPC   C4B14494  43.369  11.782   7.631
  798POPC   NC314495  28.439   9.905   9.529
  798POPC   PO414496  28.699   9.336   9.520
  798POPC   GL114497  28.471   9.528   9.161
  798POPC   GL214498  28.104   9.536   9.274
  798POPC   C1A14499  28.497   9.518   8.680
  798POPC   D2A14500  28.558   9.779   8.320
  798POPC   C3A14501  28.523   9.558   7.941
  798POPC   C4A14502  28.149   9.485   7.731
  798POPC   C1B14503  28.079   9.729   8.875
  798POPC   C2B14504  28.015   9.750   8.426
  798POPC   C3B14505  28.163   9.914   8.013
  798POPC   C4B14506  27.986   9.952   7.619
  799POPC   NC314507   5.108  20.165   9.478
  799POPC   PO414508   4.917  19.593   9.687
  799POPC   GL114509   4.941  19.729   9.229
  799POPC   GL214510   4.764  20.043   9.105
  799POPC   C1A14511   4.867  19.624   8.794
  799POPC   D2A14512   4.902  19.873   8.421
  799POPC   C3A14513   5.070  19.632   8.058
  799POPC   C4A14514   5.107  19.748   7.639
  799POPC   C1B14515   5.104  20.207   8.820
  799POPC   C2B14516   5.280  20.223   8.407
  799POPC   C3B14517   5.112  20.182   7.986
  799POPC   C4B14518   5.428  20.147   7.695
  800POPC   NC314519  35.559  16.496   9.415
  800POPC   PO414520  35.641  15.946   9.753
  800POPC   GL114521  35.370  16.078   9.208
  800POPC   GL214522  35.038  16.206   9.042
  800POPC   C1A14523  35.269  15.818   8.787
  800POPC   D2A14524  35.129  15.691   8.363
  800POPC   C3A14525  35.382  15.756   8.012
  800POPC   C4A14526  35.098  15.965   7.782
  800POPC   C1B14527  35.362  16.313   8.741
  800POPC   C2B14528  35.446  16.157   8.352
  800POPC   C3B14529  35.142  16.365   8.134
  800POPC   C4B14530  35.033  16.476   7.744
  801POPC   NC314531   3.619  42.466   9.496
  801POPC   PO414532   3.425  41.881   9.755
  801POPC   GL114533   3.500  42.076   9.222
  801POPC   GL214534   3.714  41.997   8.980
  801POPC   C1A14535   3.402  42.410   8.848
  801POPC   D2A14536   3.323  42.342   8.390
  801POPC   C3A14537   3.467  42.516   7.981
  801POPC   C4A14538   3.381  42.295   7.595
  801POPC   C1B14539   3.890  42.311   8.675
  801POPC   C2B14540   3.910  42.324   8.232
  801POPC   C3B14541   3.806  42.108   7.844
  801POPC   C4B14542   3.877  42.281   7.427
  802POPC   NC314543  16.597  20.927   9.469
  802POPC   PO414544  16.996  20.472   9.603
  802POPC   GL114545  16.844  20.521   9.178
  802POPC   GL214546  16.569  20.327   9.025
  802POPC   C1A14547  16.859  20.639   8.741
  802POPC   D2A14548  16.792  20.368   8.405
  802POPC   C3A14549  17.045  20.511   8.096
  802POPC   C4A14550  16.890  20.630   7.695
  802POPC   C1B14551  16.340  20.559   8.713
  802POPC   C2B14552  16.455  20.778   8.371
  802POPC   C3B14553  16.486  20.596   7.999
  802POPC   C4B14554  16.422  20.913   7.696
  803POPC   NC314555  11.089  19.464   9.471
  803POPC   PO414556  10.911  18.866   9.352
  803POPC   GL114557  11.288  19.025   9.134
  803POPC   GL214558  11.520  19.283   9.184
  803POPC   C1A14559  11.522  18.985   8.754
  803POPC   D2A14560  11.296  18.807   8.427
  803POPC   C3A14561  11.332  18.956   8.010
  803POPC   C4A14562  11.119  18.858   7.642
  803POPC   C1B14563  11.276  19.418   8.816
  803POPC   C2B14564  11.257  19.336   8.378
  803POPC   C3B14565  11.283  19.454   7.931
  803POPC   C4B14566  11.406  19.312   7.521
  804POPC   NC314567   9.213  30.615   9.796
  804POPC   PO414568   8.794  31.010   9.329
  804POPC   GL114569   8.907  30.954   8.943
  804POPC   GL214570   9.262  30.991   9.011
  804POPC   C1A14571   8.721  30.733   8.593
  804POPC   D2A14572   8.495  30.704   8.206
  804POPC   C3A14573   8.853  30.750   7.927
  804POPC   C4A14574   9.065  30.723   7.559
  804POPC   C1B14575   9.250  30.692   8.696
  804POPC   C2B14576   9.198  30.686   8.293
  804POPC   C3B14577   9.262  30.425   7.968
  804POPC   C4B14578   9.556  30.496   7.672
  805POPC   NC314579  44.350  42.450   9.445
  805POPC   PO414580  44.962  42.573   9.440
  805POPC   GL114581  44.822  42.347   9.082
  805POPC   GL214582  44.503  42.194   9.035
  805POPC   C1A14583  44.840  42.246   8.664
  805POPC   D2A14584   0.007  42.337   8.290
  805POPC   C3A14585  44.716  42.217   7.976
  805POPC   C4A14586  44.837  42.390   7.606
  805POPC   C1B14587  44.277  42.032   8.729
  805POPC   C2B14588  44.381  42.257   8.394
  805POPC   C3B14589  44.236  42.475   8.052
  805POPC   C4B14590  44.335  42.403   7.634
  806POPC   NC314591  25.936  34.970   9.359
  806POPC   PO414592  26.269  34.506   9.771
  806POPC   GL114593  26.313  34.429   9.219
  806POPC   GL214594  26.093  34.619   9.032
  806POPC   C1A14595  26.455  34.462   8.728
  806POPC   D2A14596  26.293  34.660   8.347
  806POPC   C3A14597  26.152  34.536   7.928
  806POPC   C4A14598  26.167  34.610   7.472
  806POPC   C1B14599  25.807  34.829   8.746
  806POPC   C2B14600  25.552  34.913   8.421
  806POPC   C3B14601  25.720  34.874   8.062
  806POPC   C4B14602  25.714  34.699   7.694
  807POPC   NC314603  31.257  31.807   9.387
  807POPC   PO414604  31.206  32.583   9.463
  807POPC   GL114605  31.403  32.241   9.194
  807POPC   GL214606  31.521  32.435   9.006
  807POPC   C1A14607  31.389  32.018   8.761
  807POPC   D2A14608  31.352  32.253   8.382
  807POPC   C3A14609  31.603  32.252   8.003
  807POPC   C4A14610  31.639  32.363   7.552
  807POPC   C1B14611  31.174  32.542   8.768
  807POPC   C2B14612  31.191  32.768   8.381
  807POPC   C3B14613  31.031  32.545   8.051
  807POPC   C4B14614  30.699  32.675   7.761
  808POPC   NC314615  43.721   6.296   9.525
  808POPC   PO414616  43.598   6.838   9.871
  808POPC   GL114617  43.798   6.752   9.334
  808POPC   GL214618  43.689   6.535   9.078
  808POPC   C1A14619  44.028   6.892   8.908
  808POPC   D2A14620  44.178   6.756   8.462
  808POPC   C3A14621  43.958   6.934   8.106
  808POPC   C4A14622  43.876   7.107   7.703
  808POPC   C1B14623  43.915   6.393   8.706
  808POPC   C2B14624  44.075   6.134   8.379
  808POPC   C3B14625  44.224   6.316   8.009
  808POPC   C4B14626  44.071   6.627   7.681
  809POPC   NC314627  43.657  13.580  10.034
  809POPC   PO414628  44.207  13.389   9.579
  809POPC   GL114629  44.242  13.447   9.125
  809POPC   GL214630  44.160  13.795   9.103
  809POPC   C1A14631  44.261  13.271   8.679
  809POPC   D2A14632  44.162  13.447   8.247
  809POPC   C3A14633  43.900  13.224   7.945
  809POPC   C4A14634  43.775  13.334   7.494
  809POPC   C1B14635  43.994  13.722   8.683
  809POPC   C2B14636  43.733  13.749   8.281
  809POPC   C3B14637  43.850  13.731   7.862
  809POPC   C4B14638  44.206  13.546   7.705
  810POPC   NC314639  10.252  32.607   9.190
  810POPC   PO414640  10.504  32.948   9.731
  810POPC   GL114641  10.547  33.044   9.244
  810POPC   GL214642  10.672  33.364   9.135
  810POPC   C1A14643  10.630  32.990   8.752
  810POPC   D2A14644  10.701  32.799   8.319
  810POPC   C3A14645  10.434  32.961   8.018
  810POPC   C4A14646  10.545  33.036   7.592
  810POPC   C1B14647  10.791  33.515   8.738
  810POPC   C2B14648  10.737  33.336   8.343
  810POPC   C3B14649  10.683  33.400   7.926
  810POPC   C4B14650  11.008  33.416   7.658
  811POPC   NC314651  29.106  33.221   9.677
  811POPC   PO414652  28.616  32.846   9.520
  811POPC   GL114653  28.908  33.083   9.203
  811POPC   GL214654  29.297  33.190   9.177
  811POPC   C1A14655  29.052  33.024   8.773
  811POPC   D2A14656  28.920  32.873   8.378
  811POPC   C3A14657  29.085  33.109   8.040
  811POPC   C4A14658  29.055  33.285   7.625
  811POPC   C1B14659  29.430  33.385   8.727
  811POPC   C2B14660  29.464  33.412   8.239
  811POPC   C3B14661  29.529  33.315   7.817
  811POPC   C4B14662  29.498  33.265   7.341
  812POPC   NC314663  33.609  24.831   9.355
  812POPC   PO414664  34.019  25.467   9.400
  812POPC   GL114665  33.810  25.288   9.067
  812POPC   GL214666  33.449  25.232   9.107
  812POPC   C1A14667  33.925  25.249   8.644
  812POPC   D2A14668  33.789  25.416   8.266
  812POPC   C3A14669  33.868  25.219   7.898
  812POPC   C4A14670  33.907  25.310   7.475
  812POPC   C1B14671  33.450  25.411   8.715
  812POPC   C2B14672  33.309  25.211   8.364
  812POPC   C3B14673  33.383  25.314   7.978
  812POPC   C4B14674  33.439  25.171   7.599
  813POPC   NC314675  10.540  23.026   9.274
  813POPC   PO414676  10.718  22.459   9.621
  813POPC   GL114677  10.813  22.566   9.056
  813POPC   GL214678  10.752  22.825   8.878
  813POPC   C1A14679  10.542  22.467   8.605
  813POPC   D2A14680  10.127  22.616   8.388
  813POPC   C3A14681  10.160  22.543   7.927
  813POPC   C4A14682  10.547  22.613   7.681
  813POPC   C1B14683  10.839  23.208   8.689
  813POPC   C2B14684  10.729  23.214   8.295
  813POPC   C3B14685  10.472  22.953   8.067
  813POPC   C4B14686  10.587  23.110   7.695
  814POPC   NC314687  18.653  17.242   9.594
  814POPC   PO414688  18.445  17.745   9.494
  814POPC   GL114689  18.253  17.746   9.088
  814POPC   GL214690  18.249  17.388   9.091
  814POPC   C1A14691  18.203  17.852   8.635
  814POPC   D2A14692  18.351  17.734   8.218
  814POPC   C3A14693  18.180  17.825   7.804
  814POPC   C4A14694  18.084  17.779   7.334
  814POPC   C1B14695  18.472  17.402   8.688
  814POPC   C2B14696  18.508  17.253   8.250
  814POPC   C3B14697  18.547  17.437   7.828
  814POPC   C4B14698  18.619  17.325   7.377
  815POPC   NC314699  15.819  37.594   9.645
  815POPC   PO414700  16.348  37.937   9.659
  815POPC   GL114701  16.225  37.809   9.236
  815POPC   GL214702  16.154  37.462   9.268
  815POPC   C1A14703  16.109  37.942   8.795
  815POPC   D2A14704  15.868  37.895   8.399
  815POPC   C3A14705  15.993  37.809   7.968
  815POPC   C4A14706  15.653  37.736   7.666
  815POPC   C1B14707  16.257  37.450   8.824
  815POPC   C2B14708  16.301  37.616   8.417
  815POPC   C3B14709  16.306  37.406   8.020
  815POPC   C4B14710  16.036  37.372   7.664
  816POPC   NC314711  12.708  44.275   9.473
  816POPC   PO414712  13.177  43.754   9.511
  816POPC   GL114713  12.893  43.746   9.160
  816POPC   GL214714  12.806  44.073   9.011
  816POPC   C1A14715  12.732  43.632   8.753
  816POPC   D2A14716  12.716  43.904   8.373
  816POPC   C3A14717  12.558  43.717   8.013
  816POPC   C4A14718  12.726  43.628   7.622
  816POPC   C1B14719  13.134  43.943   8.715
  816POPC   C2B14720  13.190  44.114   8.296
  816POPC   C3B14721  13.028  43.972   7.913
  816POPC   C4B14722  13.196  43.848   7.531
  817POPC   NC314723  14.488  33.945   9.963
  817POPC   PO414724  14.716  33.727   9.597
  817POPC   GL114725  14.534  33.747   9.128
  817POPC   GL214726  14.169  33.683   9.125
  817POPC   C1A14727  14.522  33.808   8.628
  817POPC   D2A14728  14.549  33.843   8.134
  817POPC   C3A14729  14.327  34.166   7.849
  817POPC   C4A14730  14.187  34.178   7.376
  817POPC   C1B14731  14.020  33.856   8.731
  817POPC   C2B14732  14.080  33.713   8.310
  817POPC   C3B14733  14.121  33.700   7.848
  817POPC   C4B14734  13.941  33.737   7.434
  818POPC   NC314735   6.229  31.096   9.402
  818POPC   PO414736   5.841  31.761   9.585
  818POPC   GL114737   5.786  31.656   9.154
  818POPC   GL214738   5.819  31.285   9.112
  818POPC   C1A14739   5.694  31.565   8.703
  818POPC   D2A14740   5.906  31.626   8.356
  818POPC   C3A14741   5.680  31.592   8.016
  818POPC   C4A14742   5.761  31.730   7.649
  818POPC   C1B14743   5.539  31.101   8.788
  818POPC   C2B14744   5.451  31.258   8.343
  818POPC   C3B14745   5.449  31.158   7.875
  818POPC   C4B14746   5.787  31.250   7.599
  819POPC   NC314747  22.865  17.753   9.566
  819POPC   PO414748  22.781  17.219   9.235
  819POPC   GL114749  23.006  17.451   8.941
  819POPC   GL214750  22.967  17.835   9.048
  819POPC   C1A14751  23.329  17.296   8.623
  819POPC   D2A14752  23.441  17.192   8.181
  819POPC   C3A14753  23.231  17.468   7.859
  819POPC   C4A14754  23.085  17.909   7.822
  819POPC   C1B14755  22.737  17.744   8.647
  819POPC   C2B14756  22.827  17.762   8.241
  819POPC   C3B14757  22.677  17.554   7.903
  819POPC   C4B14758  22.831  17.491   7.527
  820POPC   NC314759   7.892  14.852   9.478
  820POPC   PO414760   7.992  15.549   9.463
  820POPC   GL114761   7.966  15.238   9.139
  820POPC   GL214762   8.280  15.136   9.221
  820POPC   C1A14763   8.196  15.298   8.720
  820POPC   D2A14764   8.307  15.411   8.277
  820POPC   C3A14765   7.986  15.398   7.960
  820POPC   C4A14766   7.822  15.070   7.700
  820POPC   C1B14767   8.177  14.820   8.892
  820POPC   C2B14768   8.271  14.780   8.482
  820POPC   C3B14769   8.081  14.864   8.106
  820POPC   C4B14770   8.365  14.896   7.773
  821POPC   NC314771  17.102   1.255   9.621
  821POPC   PO414772  16.425   1.355   9.605
  821POPC   GL114773  16.575   1.002   9.323
  821POPC   GL214774  16.733   1.244   9.169
  821POPC   C1A14775  16.589   0.924   8.833
  821POPC   D2A14776  16.598   1.178   8.430
  821POPC   C3A14777  16.802   1.102   8.038
  821POPC   C4A14778  16.577   1.089   7.650
  821POPC   C1B14779  16.936   1.369   8.770
  821POPC   C2B14780  16.813   1.699   8.512
  821POPC   C3B14781  16.761   1.757   8.084
  821POPC   C4B14782  16.848   1.518   7.705
  822POPC   NC314783  31.226   8.571   9.285
  822POPC   PO414784  30.679   8.427   9.629
  822POPC   GL114785  30.770   8.400   9.181
  822POPC   GL214786  30.584   8.166   9.059
  822POPC   C1A14787  30.973   8.401   8.737
  822POPC   D2A14788  30.868   8.421   8.317
  822POPC   C3A14789  30.663   8.086   8.142
  822POPC   C4A14790  30.644   8.069   7.735
  822POPC   C1B14791  30.478   8.511   8.763
  822POPC   C2B14792  30.348   8.409   8.357
  822POPC   C3B14793  30.485   8.518   7.938
  822POPC   C4B14794  30.335   8.456   7.542
  823POPC   NC314795  34.415  41.984   9.265
  823POPC   PO414796  34.974  42.366   9.286
  823POPC   GL114797  34.591  42.421   9.055
  823POPC   GL214798  34.412  42.731   9.009
  823POPC   C1A14799  34.525  42.268   8.642
  823POPC   D2A14800  34.732  42.409   8.279
  823POPC   C3A14801  34.553  42.325   7.901
  823POPC   C4A14802  34.708  42.697   7.738
  823POPC   C1B14803  34.072  42.490   8.743
  823POPC   C2B14804  34.112  42.342   8.309
  823POPC   C3B14805  34.044  42.246   7.869
  823POPC   C4B14806  34.236  41.975   7.542
  824POPC   NC314807  34.821   7.680   9.542
  824POPC   PO414808  34.256   7.452   9.679
  824POPC   GL114809  34.428   7.432   9.242
  824POPC   GL214810  34.810   7.303   9.198
  824POPC   C1A14811  34.316   7.525   8.789
  824POPC   D2A14812  34.478   7.368   8.398
  824POPC   C3A14813  34.428   7.408   7.957
  824POPC   C4A14814  34.294   7.168   7.617
  824POPC   C1B14815  34.836   7.620   8.870
  824POPC   C2B14816  34.882   7.688   8.414
  824POPC   C3B14817  34.788   7.786   7.961
  824POPC   C4B14818  34.739   7.549   7.545
  825POPC   NC314819   0.615   9.492   9.367
  825POPC   PO414820   0.156   9.836   9.715
  825POPC   GL114821   0.479   9.978   9.267
  825POPC   GL214822   0.226  10.079   9.023
  825POPC   C1A14823   0.599   9.789   8.799
  825POPC   D2A14824   0.515   9.583   8.406
  825POPC   C3A14825   0.749   9.448   8.061
  825POPC   C4A14826   0.660   9.668   7.728
  825POPC   C1B14827   0.088   9.771   8.663
  825POPC   C2B14828   0.018   9.563   8.282
  825POPC   C3B14829   0.181   9.587   7.890
  825POPC   C4B14830   0.079   9.482   7.492
  826POPC   NC314831   7.101  44.289   9.519
  826POPC   PO414832   7.292  44.947   9.656
  826POPC   GL114833   7.255  44.694   9.221
  826POPC   GL214834   6.967  44.865   9.122
  826POPC   C1A14835   7.525  44.618   8.812
  826POPC   D2A14836   7.747  44.707   8.440
  826POPC   C3A14837   7.554  44.569   8.061
  826POPC   C4A14838   7.744  44.494   7.700
  826POPC   C1B14839   7.025  44.666   8.734
  826POPC   C2B14840   7.143  44.732   8.333
  826POPC   C3B14841   7.045  44.646   7.921
  826POPC   C4B14842   7.267  44.734   7.583
  827POPC   NC314843  29.462  33.913   9.500
  827POPC   PO414844  30.058  33.558   9.533
  827POPC   GL114845  30.030  33.833   9.185
  827POPC   GL214846  29.776  34.085   9.146
  827POPC   C1A14847  29.862  33.676   8.802
  827POPC   D2A14848  29.780  33.784   8.381
  827POPC   C3A14849  29.944  33.587   8.031
  827POPC   C4A14850  29.790  33.726   7.669
  827POPC   C1B14851  29.793  34.172   8.718
  827POPC   C2B14852  30.039  34.210   8.337
  827POPC   C3B14853  29.868  34.215   7.919
  827POPC   C4B14854  29.651  34.179   7.483
  828POPC   NC314855  18.526  23.992   9.533
  828POPC   PO414856  18.185  23.416   9.456
  828POPC   GL114857  18.220  23.548   9.091
  828POPC   GL214858  18.552  23.644   9.107
  828POPC   C1A14859  18.102  23.569   8.654
  828POPC   D2A14860  18.012  23.805   8.279
  828POPC   C3A14861  18.370  23.687   8.024
  828POPC   C4A14862  18.359  23.290   7.834
  828POPC   C1B14863  18.349  23.980   8.856
  828POPC   C2B14864  18.455  24.017   8.435
  828POPC   C3B14865  18.423  24.198   8.024
  828POPC   C4B14866  18.674  24.176   7.618
  829POPC   NC314867  17.084  36.689   9.716
  829POPC   PO414868  16.604  37.083   9.541
  829POPC   GL114869  16.771  36.773   9.229
  829POPC   GL214870  17.129  36.645   9.225
  829POPC   C1A14871  16.643  36.697   8.790
  829POPC   D2A14872  16.408  36.956   8.484
  829POPC   C3A14873  16.524  36.897   8.051
  829POPC   C4A14874  16.698  36.711   7.617
  829POPC   C1B14875  17.100  36.871   8.841
  829POPC   C2B14876  16.916  36.912   8.410
  829POPC   C3B14877  17.030  36.865   7.988
  829POPC   C4B14878  17.188  36.816   7.584
  830POPC   NC314879  19.563  19.222   9.555
  830POPC   PO414880  20.174  19.081   9.501
  830POPC   GL114881  19.899  19.097   9.137
  830POPC   GL214882  19.702  19.369   9.095
  830POPC   C1A14883  19.812  19.030   8.698
  830POPC   D2A14884  19.935  18.921   8.289
  830POPC   C3A14885  19.661  18.881   7.933
  830POPC   C4A14886  19.910  18.747   7.557
  830POPC   C1B14887  19.916  19.522   8.759
  830POPC   C2B14888  19.789  19.432   8.358
  830POPC   C3B14889  19.930  19.324   7.964
  830POPC   C4B14890  19.754  19.225   7.570
  831POPC   NC314891  29.820   0.010   9.660
  831POPC   PO414892  30.318   0.538   9.485
  831POPC   GL114893  30.150   0.416   9.135
  831POPC   GL214894  29.982   0.120   9.116
  831POPC   C1A14895  29.942   0.565   8.784
  831POPC   D2A14896  30.078   0.503   8.369
  831POPC   C3A14897  29.722   0.508   8.119
  831POPC   C4A14898  29.508   0.723   7.825
  831POPC   C1B14899  30.179   0.095   8.696
  831POPC   C2B14900  30.124  44.916   8.273
  831POPC   C3B14901  29.923   0.084   7.887
  831POPC   C4B14902  29.503   0.215   7.749
  832POPC   NC314903   5.420  20.898   9.565
  832POPC   PO414904   4.740  20.557   9.490
  832POPC   GL114905   5.106  20.625   9.244
  832POPC   GL214906   4.832  20.639   9.007
  832POPC   C1A14907   5.297  20.691   8.853
  832POPC   D2A14908   5.030  20.650   8.514
  832POPC   C3A14909   5.200  20.659   8.139
  832POPC   C4A14910   5.345  20.652   7.720
  832POPC   C1B14911   4.635  20.389   8.750
  832POPC   C2B14912   4.643  20.339   8.332
  832POPC   C3B14913   4.641  20.708   8.088
  832POPC   C4B14914   4.855  20.634   7.752
  833POPC   NC314915  14.620  36.499   9.249
  833POPC   PO414916  14.171  36.846   9.769
  833POPC   GL114917  14.198  36.952   9.245
  833POPC   GL214918  14.002  36.764   9.042
  833POPC   C1A14919  14.422  36.975   8.829
  833POPC   D2A14920  14.515  36.695   8.462
  833POPC   C3A14921  14.590  36.844   8.068
  833POPC   C4A14922  14.398  37.097   7.757
  833POPC   C1B14923  14.073  36.600   8.708
  833POPC   C2B14924  13.995  36.524   8.346
  833POPC   C3B14925  14.106  36.740   8.028
  833POPC   C4B14926  14.238  36.629   7.630
  834POPC   NC314927  28.783  42.305   9.555
  834POPC   PO414928  29.328  42.623   9.386
  834POPC   GL114929  29.094  42.380   9.102
  834POPC   GL214930  28.776  42.597   9.100
  834POPC   C1A14931  29.347  42.316   8.694
  834POPC   D2A14932  29.484  42.484   8.283
  834POPC   C3A14933  29.359  42.292   7.887
  834POPC   C4A14934  29.247  41.838   7.809
  834POPC   C1B14935  28.899  42.554   8.674
  834POPC   C2B14936  28.971  42.168   8.402
  834POPC   C3B14937  28.866  42.150   7.990
  834POPC   C4B14938  28.743  42.510   7.712
  835POPC   NC314939  29.455   4.525   9.470
  835POPC   PO414940  30.100   4.602   9.581
  835POPC   GL114941  29.892   4.322   9.276
  835POPC   GL214942  29.836   4.622   9.100
  835POPC   C1A14943  29.719   4.213   8.860
  835POPC   D2A14944  29.838   4.452   8.525
  835POPC   C3A14945  29.887   4.308   8.112
  835POPC   C4A14946  29.978   4.054   7.772
  835POPC   C1B14947  29.490   4.688   8.816
  835POPC   C2B14948  29.506   4.840   8.392
  835POPC   C3B14949  29.655   4.761   7.995
  835POPC   C4B14950  29.755   4.486   7.656
  836POPC   NC314951  19.365  32.441   9.490
  836POPC   PO414952  18.976  31.947   9.417
  836POPC   GL114953  19.171  32.238   9.067
  836POPC   GL214954  19.520  32.402   9.013
  836POPC   C1A14955  19.152  32.425   8.650
  836POPC   D2A14956  19.190  32.211   8.271
  836POPC   C3A14957  18.902  32.116   7.960
  836POPC   C4A14958  18.969  32.061   7.551
  836POPC   C1B14959  19.580  32.710   8.675
  836POPC   C2B14960  19.392  32.707   8.247
  836POPC   C3B14961  19.304  32.472   7.851
  836POPC   C4B14962  19.222  32.567   7.436
  837POPC   NC314963   2.257  37.453   9.586
  837POPC   PO414964   2.488  38.113   9.481
  837POPC   GL114965   2.569  37.820   9.180
  837POPC   GL214966   2.742  37.512   9.290
  837POPC   C1A14967   2.760  37.766   8.790
  837POPC   D2A14968   2.805  37.812   8.367
  837POPC   C3A14969   3.066  37.509   8.176
  837POPC   C4A14970   3.183  37.821   7.918
  837POPC   C1B14971   2.764  37.280   8.873
  837POPC   C2B14972   2.648  37.330   8.467
  837POPC   C3B14973   2.528  37.435   8.076
  837POPC   C4B14974   2.771  37.474   7.716
  838POPC   NC314975   0.945   7.376   9.661
  838POPC   PO414976   1.457   7.694   9.441
  838POPC   GL114977   1.227   7.484   9.118
  838POPC   GL214978   0.859   7.531   9.166
  838POPC   C1A14979   1.114   7.642   8.698
  838POPC   D2A14980   0.799   7.684   8.379
  838POPC   C3A14981   0.976   7.564   7.989
  838POPC   C4A14982   1.253   7.299   7.744
  838POPC   C1B14983   0.910   7.185   8.824
  838POPC   C2B14984   1.025   7.177   8.358
  838POPC   C3B14985   0.809   7.085   7.948
  838POPC   C4B14986   0.830   7.142   7.494
  839POPC   NC314987  32.594  34.196   9.558
  839POPC   PO414988  32.481  33.526   9.560
  839POPC   GL114989  32.476  33.712   9.156
  839POPC   GL214990  32.804  33.867   9.210
  839POPC   C1A14991  32.174  33.729   8.777
  839POPC   D2A14992  31.909  33.621   8.388
  839POPC   C3A14993  32.047  33.879   8.025
  839POPC   C4A14994  32.306  33.877   7.625
  839POPC   C1B14995  32.692  34.038   8.798
  839POPC   C2B14996  32.681  34.155   8.354
  839POPC   C3B14997  32.724  34.023   7.914
  839POPC   C4B14998  32.672  34.208   7.482
  840POPC   NC314999   5.418  18.651   9.499
  840POPC   PO415000   4.931  18.166   9.441
  840POPC   GL115001   5.181  18.389   9.119
  840POPC   GL215002   5.545  18.338   9.128
  840POPC   C1A15003   5.016  18.515   8.690
  840POPC   D2A15004   4.723  18.265   8.445
  840POPC   C3A15005   4.816  18.391   8.053
  840POPC   C4A15006   5.105  18.116   7.870
  840POPC   C1B15007   5.426  18.181   8.737
  840POPC   C2B15008   5.269  18.216   8.346
  840POPC   C3B15009   5.550  18.297   8.039
  840POPC   C4B15010   5.728  18.344   7.655
  841POPC   NC315011   7.204   4.618   9.529
  841POPC   PO415012   7.358   5.359   9.439
  841POPC   GL115013   7.348   5.201   9.043
  841POPC   GL215014   7.439   4.843   9.119
  841POPC   C1A15015   7.508   5.063   8.652
  841POPC   D2A15016   7.614   4.847   8.298
  841POPC   C3A15017   7.724   5.077   7.991
  841POPC   C4A15018   7.464   5.302   7.746
  841POPC   C1B15019   7.209   4.641   8.752
  841POPC   C2B15020   7.197   4.567   8.279
  841POPC   C3B15021   7.219   4.847   7.893
  841POPC   C4B15022   7.192   4.986   7.468
  842POPC   NC315023  14.516  38.297   9.801
  842POPC   PO415024  14.188  38.780   9.451
  842POPC   GL115025  14.236  38.612   9.076
  842POPC   GL215026  14.489  38.359   9.176
  842POPC   C1A15027  14.070  38.416   8.684
  842POPC   D2A15028  14.051  38.076   8.354
  842POPC   C3A15029  14.169  38.297   7.976
  842POPC   C4A15030  14.477  38.638   7.866
  842POPC   C1B15031  14.613  38.501   8.752
  842POPC   C2B15032  14.750  38.477   8.320
  842POPC   C3B15033  14.685  38.194   7.984
  842POPC   C4B15034  14.844  37.949   7.691
  843POPC   NC315035   3.970  14.586   9.939
  843POPC   PO415036   3.423  14.212   9.729
  843POPC   GL115037   3.474  14.303   9.228
  843POPC   GL215038   3.790  14.344   9.051
  843POPC   C1A15039   3.424  14.538   8.779
  843POPC   D2A15040   3.436  14.368   8.343
  843POPC   C3A15041   3.739  14.498   8.036
  843POPC   C4A15042   3.701  14.768   7.699
  843POPC   C1B15043   3.803  14.197   8.646
  843POPC   C2B15044   3.867  14.055   8.252
  843POPC   C3B15045   3.600  14.020   7.918
  843POPC   C4B15046   3.533  14.289   7.584
  844POPC   NC315047  10.598  20.325   9.603
  844POPC   PO415048  10.085  20.804   9.517
  844POPC   GL115049  10.288  20.469   9.219
  844POPC   GL215050  10.696  20.434   9.131
  844POPC   C1A15051  10.183  20.479   8.794
  844POPC   D2A15052  10.084  20.862   8.541
  844POPC   C3A15053  10.252  20.967   8.126
  844POPC   C4A15054  10.370  20.740   7.783
  844POPC   C1B15055  10.686  20.528   8.716
  844POPC   C2B15056  10.467  20.520   8.339
  844POPC   C3B15057  10.774  20.646   8.074
  844POPC   C4B15058  10.874  20.644   7.654
  845POPC   NC315059   7.779   7.544   9.224
  845POPC   PO415060   8.485   7.445   9.430
  845POPC   GL115061   8.241   7.360   9.069
  845POPC   GL215062   8.356   7.716   8.999
  845POPC   C1A15063   7.956   7.152   8.723
  845POPC   D2A15064   8.210   7.174   8.393
  845POPC   C3A15065   8.095   7.336   8.065
  845POPC   C4A15066   8.121   7.398   7.651
  845POPC   C1B15067   8.132   7.621   8.627
  845POPC   C2B15068   7.796   7.680   8.329
  845POPC   C3B15069   7.961   7.802   7.912
  845POPC   C4B15070   8.101   7.863   7.466
  846POPC   NC315071  33.201  42.662   9.799
  846POPC   PO415072  32.704  43.040   9.655
  846POPC   GL115073  32.982  43.100   9.293
  846POPC   GL215074  33.055  42.761   9.232
  846POPC   C1A15075  32.886  43.330   8.902
  846POPC   D2A15076  32.916  43.168   8.491
  846POPC   C3A15077  32.850  43.278   8.052
  846POPC   C4A15078  33.161  43.302   7.757
  846POPC   C1B15079  33.227  42.907   8.859
  846POPC   C2B15080  33.364  42.906   8.449
  846POPC   C3B15081  33.121  42.871   8.105
  846POPC   C4B15082  33.121  42.788   7.673
  847POPC   NC315083  27.809  12.518   9.634
  847POPC   PO415084  27.687  13.163   9.609
  847POPC   GL115085  27.581  12.884   9.266
  847POPC   GL215086  27.431  12.553   9.292
  847POPC   C1A15087  27.468  12.996   8.828
  847POPC   D2A15088  27.581  12.877   8.413
  847POPC   C3A15089  27.446  13.015   7.998
  847POPC   C4A15090  27.305  13.366   7.807
  847POPC   C1B15091  27.584  12.491   8.821
  847POPC   C2B15092  27.628  12.387   8.330
  847POPC   C3B15093  27.771  12.650   7.967
  847POPC   C4B15094  27.813  12.581   7.526
  848POPC   NC315095  28.755  30.062   9.378
  848POPC   PO415096  28.185  29.861   9.566
  848POPC   GL115097  28.338  29.850   9.159
  848POPC   GL215098  28.111  30.122   9.077
  848POPC   C1A15099  28.495  29.916   8.724
  848POPC   D2A15100  28.672  29.798   8.324
  848POPC   C3A15101  28.573  29.933   7.906
  848POPC   C4A15102  28.561  29.879   7.451
  848POPC   C1B15103  28.013  29.750   8.795
  848POPC   C2B15104  27.964  29.792   8.384
  848POPC   C3B15105  28.080  29.767   7.988
  848POPC   C4B15106  28.125  30.126   7.736
  849POPC   NC315107  32.608  18.514   9.284
  849POPC   PO415108  33.303  18.393   9.448
  849POPC   GL115109  33.027  18.235   9.111
  849POPC   GL215110  32.790  18.404   8.838
  849POPC   C1A15111  33.163  18.082   8.726
  849POPC   D2A15112  32.929  18.078   8.387
  849POPC   C3A15113  33.119  18.133   7.993
  849POPC   C4A15114  33.016  18.427   7.700
  849POPC   C1B15115  32.679  17.945   8.825
  849POPC   C2B15116  32.547  17.751   8.451
  849POPC   C3B15117  32.688  17.840   8.013
  849POPC   C4B15118  33.033  17.660   7.735
  850POPC   NC315119  11.255  44.859   9.491
  850POPC   PO415120  11.334  44.226   9.222
  850POPC   GL115121  11.077  44.559   9.092
  850POPC   GL215122  11.399  44.720   9.036
  850POPC   C1A15123  11.050  44.661   8.653
  850POPC   D2A15124  11.200  44.360   8.316
  850POPC   C3A15125  11.096  44.257   7.885
  850POPC   C4A15126  11.344  44.273   7.538
  850POPC   C1B15127  11.545  44.845   8.657
  850POPC   C2B15128  11.374  44.843   8.251
  850POPC   C3B15129  11.444  44.641   7.865
  850POPC   C4B15130  11.263  44.766   7.395
  851POPC   NC315131  16.663  26.521   9.490
  851POPC   PO415132  16.230  26.886   9.456
  851POPC   GL115133  16.612  26.921   9.158
  851POPC   GL215134  16.956  26.781   9.166
  851POPC   C1A15135  16.833  27.027   8.756
  851POPC   D2A15136  16.725  26.840   8.369
  851POPC   C3A15137  16.921  26.975   8.030
  851POPC   C4A15138  16.792  27.115   7.634
  851POPC   C1B15139  16.993  26.534   8.789
  851POPC   C2B15140  16.992  26.400   8.336
  851POPC   C3B15141  16.928  26.463   7.893
  851POPC   C4B15142  16.528  26.672   7.834
  852POPC   NC315143   8.453  15.662   9.309
  852POPC   PO415144   8.963  15.370   9.619
  852POPC   GL115145   9.062  15.171   9.194
  852POPC   GL215146   8.750  15.033   9.033
  852POPC   C1A15147   9.177  14.950   8.770
  852POPC   D2A15148   9.027  14.969   8.327
  852POPC   C3A15149   9.195  15.227   7.967
  852POPC   C4A15150   9.029  15.055   7.565
  852POPC   C1B15151   8.896  15.404   8.754
  852POPC   C2B15152   8.850  15.503   8.298
  852POPC   C3B15153   8.684  15.375   7.877
  852POPC   C4B15154   8.778  15.527   7.460
  853POPC   NC315155  35.828  10.309   9.676
  853POPC   PO415156  36.257  10.793   9.535
  853POPC   GL115157  36.072  10.411   9.224
  853POPC   GL215158  35.740  10.205   9.163
  853POPC   C1A15159  36.052  10.366   8.747
  853POPC   D2A15160  36.082  10.747   8.465
  853POPC   C3A15161  36.170  10.725   8.040
  853POPC   C4A15162  36.415  10.386   7.843
  853POPC   C1B15163  35.760   9.900   8.777
  853POPC   C2B15164  35.954   9.879   8.399
  853POPC   C3B15165  35.948  10.276   8.184
  853POPC   C4B15166  35.915  10.386   7.752
  854POPC   NC315167  15.145  26.449   9.482
  854POPC   PO415168  15.577  25.876   9.525
  854POPC   GL115169  15.316  26.033   9.147
  854POPC   GL215170  14.977  26.198   9.087
  854POPC   C1A15171  15.133  25.833   8.785
  854POPC   D2A15172  15.332  25.835   8.416
  854POPC   C3A15173  15.083  25.829   8.055
  854POPC   C4A15174  15.350  25.885   7.697
  854POPC   C1B15175  15.209  26.334   8.720
  854POPC   C2B15176  15.043  26.274   8.326
  854POPC   C3B15177  15.213  26.366   7.935
  854POPC   C4B15178  14.930  26.468   7.625
  855POPC   NC315179  12.784  15.961   9.689
  855POPC   PO415180  12.332  16.308   9.297
  855POPC   GL115181  12.670  15.916   9.199
  855POPC   GL215182  13.020  15.921   9.249
  855POPC   C1A15183  12.747  15.600   8.819
  855POPC   D2A15184  12.689  15.726   8.370
  855POPC   C3A15185  12.612  15.838   7.911
  855POPC   C4A15186  12.764  16.197   7.654
  855POPC   C1B15187  13.078  15.980   8.836
  855POPC   C2B15188  13.224  15.658   8.533
  855POPC   C3B15189  13.106  15.603   8.084
  855POPC   C4B15190  13.250  15.792   7.697
  856POPC   NC315191  22.054  40.497   9.470
  856POPC   PO415192  22.355  41.096   9.586
  856POPC   GL115193  22.381  40.852   9.231
  856POPC   GL215194  22.560  40.568   9.280
  856POPC   C1A15195  22.154  40.805   8.855
  856POPC   D2A15196  22.059  41.053   8.491
  856POPC   C3A15197  22.174  40.836   8.154
  856POPC   C4A15198  22.314  40.844   7.752
  856POPC   C1B15199  22.483  40.387   8.846
  856POPC   C2B15200  22.251  40.420   8.447
  856POPC   C3B15201  22.415  40.406   8.022
  856POPC   C4B15202  22.508  40.318   7.599
  857POPC   NC315203  14.664  39.822   9.780
  857POPC   PO415204  15.287  40.007   9.575
  857POPC   GL115205  15.030  40.100   9.239
  857POPC   GL215206  14.899  40.436   9.229
  857POPC   C1A15207  15.204  40.143   8.836
  857POPC   D2A15208  15.428  40.189   8.450
  857POPC   C3A15209  15.240  39.955   8.108
  857POPC   C4A15210  15.226  40.101   7.686
  857POPC   C1B15211  14.815  40.476   8.780
  857POPC   C2B15212  14.902  40.232   8.414
  857POPC   C3B15213  14.810  40.191   7.965
  857POPC   C4B15214  14.770  40.235   7.493
  858POPC   NC315215  19.548  44.178   9.306
  858POPC   PO415216  19.978  43.667   9.508
  858POPC   GL115217  19.700  43.655   9.182
  858POPC   GL215218  19.922  43.929   9.042
  858POPC   C1A15219  19.580  43.682   8.755
  858POPC   D2A15220  19.856  43.874   8.460
  858POPC   C3A15221  19.605  43.942   8.091
  858POPC   C4A15222  19.660  43.763   7.708
  858POPC   C1B15223  20.255  43.707   8.798
  858POPC   C2B15224  20.415  43.697   8.362
  858POPC   C3B15225  20.133  43.820   8.017
  858POPC   C4B15226  20.217  44.009   7.636
  859POPC   NC315227  16.800  17.392   9.635
  859POPC   PO415228  16.924  17.982   9.671
  859POPC   GL115229  16.771  17.775   9.287
  859POPC   GL215230  16.469  17.879   9.182
  859POPC   C1A15231  16.735  17.493   8.900
  859POPC   D2A15232  16.836  17.622   8.437
  859POPC   C3A15233  16.594  17.469   8.060
  859POPC   C4A15234  16.656  17.124   7.764
  859POPC   C1B15235  16.702  17.978   8.793
  859POPC   C2B15236  16.788  18.159   8.396
  859POPC   C3B15237  16.812  17.944   8.000
  859POPC   C4B15238  16.675  17.744   7.604
  860POPC   NC315239  42.202   3.206   9.416
  860POPC   PO415240  42.686   3.640   9.481
  860POPC   GL115241  42.479   3.731   9.091
  860POPC   GL215242  42.109   3.641   9.117
  860POPC   C1A15243  42.577   3.651   8.648
  860POPC   D2A15244  42.724   3.340   8.324
  860POPC   C3A15245  42.536   3.397   7.913
  860POPC   C4A15246  42.319   3.782   7.742
  860POPC   C1B15247  42.190   3.348   8.772
  860POPC   C2B15248  41.968   3.201   8.416
  860POPC   C3B15249  41.844   3.109   8.006
  860POPC   C4B15250  42.047   3.337   7.645
  861POPC   NC315251  20.906  31.483   9.457
  861POPC   PO415252  20.508  30.968   9.554
  861POPC   GL115253  20.407  31.306   9.211
  861POPC   GL215254  20.534  31.674   9.152
  861POPC   C1A15255  20.343  31.461   8.759
  861POPC   D2A15256  20.553  31.691   8.446
  861POPC   C3A15257  20.483  31.561   8.035
  861POPC   C4A15258  20.782  31.324   7.787
  861POPC   C1B15259  20.911  31.724   8.845
  861POPC   C2B15260  21.078  31.863   8.420
  861POPC   C3B15261  20.954  31.782   7.969
  861POPC   C4B15262  20.925  31.844   7.504
  862POPC   NC315263  22.361   8.507   9.682
  862POPC   PO415264  22.143   9.087   9.524
  862POPC   GL115265  22.166   8.662   9.205
  862POPC   GL215266  21.920   8.370   9.150
  862POPC   C1A15267  22.298   8.387   8.805
  862POPC   D2A15268  22.193   8.056   8.467
  862POPC   C3A15269  22.275   8.180   7.997
  862POPC   C4A15270  22.196   8.417   7.591
  862POPC   C1B15271  21.804   8.358   8.673
  862POPC   C2B15272  21.822   8.296   8.204
  862POPC   C3B15273  21.817   8.113   7.767
  862POPC   C4B15274  21.846   8.146   7.291
  863POPC   NC315275   6.492   7.274   9.554
  863POPC   PO415276   6.999   7.777   9.460
  863POPC   GL115277   6.731   7.507   9.181
  863POPC   GL215278   6.855   7.159   9.192
  863POPC   C1A15279   6.477   7.440   8.802
  863POPC   D2A15280   6.418   7.648   8.417
  863POPC   C3A15281   6.370   7.460   8.014
  863POPC   C4A15282   6.697   7.561   7.709
  863POPC   C1B15283   6.774   7.035   8.767
  863POPC   C2B15284   6.554   7.099   8.379
  863POPC   C3B15285   6.728   7.102   7.947
  863POPC   C4B15286   6.594   7.123   7.512
  864POPC   NC315287  43.959  11.385   9.576
  864POPC   PO415288  43.734  10.810   9.467
  864POPC   GL115289  43.947  10.991   9.124
  864POPC   GL215290  44.075  11.307   9.114
  864POPC   C1A15291  43.802  11.154   8.739
  864POPC   D2A15292  43.829  11.348   8.373
  864POPC   C3A15293  43.651  11.098   8.031
  864POPC   C4A15294  43.894  11.249   7.712
  864POPC   C1B15295  44.148  11.553   8.787
  864POPC   C2B15296  44.262  11.626   8.369
  864POPC   C3B15297  44.097  11.652   7.971
  864POPC   C4B15298  44.321  11.559   7.583
  865POPC   NC315299  18.532  10.365   9.596
  865POPC   PO415300  17.873  10.462   9.449
  865POPC   GL115301  18.215  10.493   9.184
  865POPC   GL215302  17.988  10.646   8.952
  865POPC   C1A15303  18.541  10.418   8.869
  865POPC   D2A15304  18.460  10.533   8.440
  865POPC   C3A15305  18.525  10.298   8.055
  865POPC   C4A15306  18.570  10.587   7.711
  865POPC   C1B15307  18.068  10.308   8.696
  865POPC   C2B15308  18.039  10.295   8.264
  865POPC   C3B15309  18.089  10.522   7.882
  865POPC   C4B15310  18.043  10.606   7.421
  866POPC   NC315311  28.081  18.259   9.513
  866POPC   PO415312  28.602  18.622   9.833
  866POPC   GL115313  28.472  18.477   9.298
  866POPC   GL215314  28.176  18.677   9.132
  866POPC   C1A15315  28.270  18.242   8.903
  866POPC   D2A15316  28.043  18.001   8.581
  866POPC   C3A15317  28.011  18.283   8.220
  866POPC   C4A15318  28.109  18.245   7.772
  866POPC   C1B15319  28.321  18.676   8.664
  866POPC   C2B15320  28.687  18.634   8.353
  866POPC   C3B15321  28.786  18.511   7.922
  866POPC   C4B15322  28.568  18.408   7.540
  867POPC   NC315323  22.728  23.182   9.523
  867POPC   PO415324  22.920  23.835   9.592
  867POPC   GL115325  23.027  23.908   9.181
  867POPC   GL215326  23.030  23.543   9.175
  867POPC   C1A15327  22.865  23.890   8.747
  867POPC   D2A15328  22.879  23.646   8.362
  867POPC   C3A15329  22.913  23.799   7.990
  867POPC   C4A15330  22.813  23.967   7.609
  867POPC   C1B15331  22.929  23.382   8.788
  867POPC   C2B15332  22.887  23.147   8.419
  867POPC   C3B15333  22.658  23.320   8.024
  867POPC   C4B15334  22.777  23.474   7.622
  868POPC   NC315335   1.006  21.544   9.531
  868POPC   PO415336   0.369  21.150   9.783
  868POPC   GL115337   0.305  21.174   9.313
  868POPC   GL215338  44.920  21.198   9.229
  868POPC   C1A15339   0.570  21.403   8.962
  868POPC   D2A15340   0.647  21.513   8.492
  868POPC   C3A15341   0.587  21.238   8.150
  868POPC   C4A15342   0.372  21.380   7.788
  868POPC   C1B15343   0.148  21.146   8.822
  868POPC   C2B15344   0.142  21.174   8.386
  868POPC   C3B15345  44.980  21.092   7.979
  868POPC   C4B15346   0.088  21.010   7.529
  869POPC   NC315347  38.684  28.538   9.783
  869POPC   PO415348  38.726  29.239   9.751
  869POPC   GL115349  38.513  29.046   9.207
  869POPC   GL215350  38.126  29.019   9.196
  869POPC   C1A15351  38.465  29.103   8.701
  869POPC   D2A15352  38.640  29.233   8.250
  869POPC   C3A15353  38.611  29.158   7.765
  869POPC   C4A15354  38.601  28.818   7.408
  869POPC   C1B15355  37.979  28.986   8.806
  869POPC   C2B15356  37.981  28.882   8.392
  869POPC   C3B15357  38.287  28.865   8.075
  869POPC   C4B15358  38.180  28.890   7.650
  870POPC   NC315359  41.741  20.424   9.334
  870POPC   PO415360  41.305  20.863   9.493
  870POPC   GL115361  41.376  20.724   9.094
  870POPC   GL215362  41.269  20.391   9.099
  870POPC   C1A15363  41.638  20.711   8.730
  870POPC   D2A15364  41.727  20.531   8.357
  870POPC   C3A15365  41.643  20.667   7.940
  870POPC   C4A15366  41.499  20.843   7.539
  870POPC   C1B15367  41.361  20.236   8.710
  870POPC   C2B15368  41.278  20.298   8.313
  870POPC   C3B15369  41.219  20.199   7.933
  870POPC   C4B15370  41.429  20.350   7.579
  871POPC   NC315371  32.003  28.575   9.499
  871POPC   PO415372  32.416  28.061   9.515
  871POPC   GL115373  32.400  28.357   9.158
  871POPC   GL215374  32.100  28.525   9.008
  871POPC   C1A15375  32.502  28.295   8.727
  871POPC   D2A15376  32.581  28.480   8.319
  871POPC   C3A15377  32.366  28.478   7.976
  871POPC   C4A15378  32.328  28.283   7.590
  871POPC   C1B15379  32.208  28.680   8.612
  871POPC   C2B15380  32.079  28.335   8.366
  871POPC   C3B15381  31.872  28.244   7.978
  871POPC   C4B15382  31.959  28.579   7.723
  872POPC   NC315383  24.955  16.355   9.235
  872POPC   PO415384  25.396  16.800   9.497
  872POPC   GL115385  25.346  16.660   9.095
  872POPC   GL215386  25.040  16.828   9.052
  872POPC   C1A15387  25.246  16.459   8.672
  872POPC   D2A15388  25.214  16.636   8.252
  872POPC   C3A15389  25.064  16.398   7.911
  872POPC   C4A15390  25.446  16.390   7.673
  872POPC   C1B15391  25.220  16.963   8.689
  872POPC   C2B15392  25.071  17.123   8.311
  872POPC   C3B15393  25.313  17.165   7.967
  872POPC   C4B15394  25.231  16.848   7.725
  873POPC   NC315395   6.324   8.789   9.444
  873POPC   PO415396   5.591   8.783   9.524
  873POPC   GL115397   5.656   8.858   9.111
  873POPC   GL215398   5.859   9.141   9.076
  873POPC   C1A15399   5.813   8.801   8.714
  873POPC   D2A15400   5.770   8.960   8.319
  873POPC   C3A15401   5.892   8.658   8.029
  873POPC   C4A15402   6.042   8.729   7.620
  873POPC   C1B15403   6.095   9.236   8.653
  873POPC   C2B15404   6.373   9.228   8.259
  873POPC   C3B15405   6.254   9.195   7.822
  873POPC   C4B15406   5.804   9.133   7.827
  874POPC   NC315407  40.432  37.478   9.558
  874POPC   PO415408  39.806  37.699   9.705
  874POPC   GL115409  39.993  37.679   9.314
  874POPC   GL215410  39.940  37.327   9.299
  874POPC   C1A15411  39.923  37.783   8.863
  874POPC   D2A15412  39.719  37.643   8.471
  874POPC   C3A15413  39.878  37.627   8.036
  874POPC   C4A15414  39.874  37.816   7.594
  874POPC   C1B15415  40.232  37.386   8.956
  874POPC   C2B15416  40.160  37.397   8.532
  874POPC   C3B15417  40.210  37.245   8.156
  874POPC   C4B15418  40.173  37.296   7.733
  875POPC   NC315419  26.357   1.703   9.777
  875POPC   PO415420  25.922   2.102   9.612
  875POPC   GL115421  26.028   2.068   9.189
  875POPC   GL215422  26.269   1.845   9.267
  875POPC   C1A15423  25.912   2.185   8.771
  875POPC   D2A15424  25.716   2.112   8.384
  875POPC   C3A15425  25.823   2.272   7.978
  875POPC   C4A15426  25.824   2.095   7.535
  875POPC   C1B15427  26.201   1.715   8.831
  875POPC   C2B15428  26.189   1.477   8.435
  875POPC   C3B15429  26.378   1.611   8.056
  875POPC   C4B15430  26.230   1.839   7.686
  876POPC   NC315431  40.306  26.432   9.522
  876POPC   PO415432  39.947  25.817   9.451
  876POPC   GL115433  39.818  26.049   9.092
  876POPC   GL215434  40.071  26.290   9.078
  876POPC   C1A15435  39.821  25.920   8.668
  876POPC   D2A15436  40.157  25.851   8.382
  876POPC   C3A15437  40.036  26.053   7.998
  876POPC   C4A15438  39.786  26.418   7.824
  876POPC   C1B15439  40.421  26.048   8.869
  876POPC   C2B15440  40.699  25.910   8.518
  876POPC   C3B15441  40.566  25.688   8.121
  876POPC   C4B15442  40.239  25.655   7.743
  877POPC   NC315443  23.426  20.820   9.346
  877POPC   PO415444  23.786  21.394   9.605
  877POPC   GL115445  24.001  21.530   9.176
  877POPC   GL215446  24.070  21.200   9.071
  877POPC   C1A15447  24.038  21.507   8.695
  877POPC   D2A15448  24.048  21.205   8.385
  877POPC   C3A15449  23.947  21.455   8.019
  877POPC   C4A15450  23.518  21.516   7.891
  877POPC   C1B15451  23.629  21.280   8.859
  877POPC   C2B15452  23.522  21.261   8.381
  877POPC   C3B15453  23.729  20.982   8.047
  877POPC   C4B15454  23.934  21.094   7.653
  878POPC   NC315455  27.832   8.549   9.420
  878POPC   PO415456  27.381   9.082   9.492
  878POPC   GL115457  27.425   9.096   9.086
  878POPC   GL215458  27.772   8.981   9.056
  878POPC   C1A15459  27.368   8.851   8.733
  878POPC   D2A15460  27.600   8.785   8.364
  878POPC   C3A15461  27.420   8.846   7.953
  878POPC   C4A15462  27.505   8.837   7.495
  878POPC   C1B15463  27.705   9.280   8.683
  878POPC   C2B15464  27.788   9.254   8.219
  878POPC   C3B15465  27.856   9.064   7.786
  878POPC   C4B15466  27.979   9.226   7.345
  879POPC   NC315467  11.035  31.864   9.616
  879POPC   PO415468  11.175  31.268   9.420
  879POPC   GL115469  11.288  31.400   9.036
  879POPC   GL215470  11.578  31.523   9.129
  879POPC   C1A15471  11.238  31.260   8.595
  879POPC   D2A15472  11.289  31.578   8.294
  879POPC   C3A15473  11.086  31.533   7.934
  879POPC   C4A15474  10.846  31.199   7.826
  879POPC   C1B15475  11.699  31.430   8.702
  879POPC   C2B15476  11.762  31.407   8.245
  879POPC   C3B15477  11.606  31.598   7.838
  879POPC   C4B15478  11.558  31.810   7.428
  880POPC   NC315479  15.577   9.187   9.326
  880POPC   PO415480  16.112   9.202   9.506
  880POPC   GL115481  15.940   8.835   9.229
  880POPC   GL215482  15.952   9.082   8.970
  880POPC   C1A15483  15.876   8.629   8.780
  880POPC   D2A15484  15.825   8.892   8.374
  880POPC   C3A15485  15.886   8.717   7.928
  880POPC   C4A15486  16.019   8.685   7.482
  880POPC   C1B15487  15.730   9.377   8.703
  880POPC   C2B15488  15.559   9.445   8.309
  880POPC   C3B15489  15.789   9.243   7.975
  880POPC   C4B15490  15.744   9.097   7.557
  881POPC   NC315491   0.838  41.433   9.575
  881POPC   PO415492   1.328  41.888   9.419
  881POPC   GL115493   1.233  41.605   9.138
  881POPC   GL215494   0.893  41.675   9.089
  881POPC   C1A15495   1.419  41.513   8.752
  881POPC   D2A15496   1.248  41.509   8.365
  881POPC   C3A15497   1.440  41.548   7.981
  881POPC   C4A15498   1.376  41.201   7.725
  881POPC   C1B15499   0.832  41.819   8.673
  881POPC   C2B15500   0.733  41.602   8.290
  881POPC   C3B15501   0.942  41.451   7.918
  881POPC   C4B15502   1.135  41.582   7.502
  882POPC   NC315503  39.603   5.578   9.434
  882POPC   PO415504  39.154   6.110   9.506
  882POPC   GL115505  39.216   5.863   9.122
  882POPC   GL215506  39.138   5.494   9.176
  882POPC   C1A15507  39.242   6.081   8.663
  882POPC   D2A15508  39.454   6.308   8.351
  882POPC   C3A15509  39.315   6.047   8.027
  882POPC   C4A15510  39.032   5.946   7.718
  882POPC   C1B15511  39.168   5.440   8.733
  882POPC   C2B15512  39.209   5.651   8.363
  882POPC   C3B15513  39.403   5.536   7.996
  882POPC   C4B15514  39.234   5.476   7.582
  883POPC   NC315515  29.219  28.126   9.488
  883POPC   PO415516  28.890  28.720   9.386
  883POPC   GL115517  29.255  28.521   9.113
  883POPC   GL215518  29.391  28.146   9.027
  883POPC   C1A15519  29.367  28.484   8.663
  883POPC   D2A15520  29.152  28.399   8.291
  883POPC   C3A15521  29.241  28.513   7.849
  883POPC   C4A15522  28.969  28.513   7.473
  883POPC   C1B15523  28.976  28.161   8.793
  883POPC   C2B15524  28.862  27.945   8.402
  883POPC   C3B15525  29.011  28.019   7.989
  883POPC   C4B15526  29.275  27.839   7.739
  884POPC   NC315527  35.286  27.407   9.443
  884POPC   PO415528  35.020  27.996   9.340
  884POPC   GL115529  35.050  27.639   9.064
  884POPC   GL215530  35.407  27.583   8.990
  884POPC   C1A15531  35.058  27.346   8.723
  884POPC   D2A15532  35.350  27.375   8.400
  884POPC   C3A15533  35.191  27.458   8.000
  884POPC   C4A15534  35.092  27.795   7.772
  884POPC   C1B15535  35.328  27.843   8.642
  884POPC   C2B15536  35.669  27.809   8.341
  884POPC   C3B15537  35.698  27.510   8.031
  884POPC   C4B15538  35.611  27.799   7.757
  885POPC   NC315539   6.668  28.471   9.731
  885POPC   PO415540   6.475  27.833   9.530
  885POPC   GL115541   6.642  28.186   9.244
  885POPC   GL215542   6.599  28.556   9.228
  885POPC   C1A15543   6.797  28.281   8.799
  885POPC   D2A15544   6.889  28.516   8.392
  885POPC   C3A15545   6.650  28.288   8.052
  885POPC   C4A15546   6.819  28.060   7.657
  885POPC   C1B15547   6.569  28.730   8.797
  885POPC   C2B15548   6.410  28.661   8.370
  885POPC   C3B15549   6.531  28.802   7.952
  885POPC   C4B15550   6.871  28.593   7.727
  886POPC   NC315551  25.060  18.891   9.585
  886POPC   PO415552  25.202  19.429   9.185
  886POPC   GL115553  25.248  18.991   9.110
  886POPC   GL215554  24.916  18.808   9.126
  886POPC   C1A15555  25.478  18.998   8.736
  886POPC   D2A15556  25.448  19.276   8.406
  886POPC   C3A15557  25.496  19.042   8.057
  886POPC   C4A15558  25.437  18.941   7.655
  886POPC   C1B15559  24.867  18.880   8.727
  886POPC   C2B15560  25.100  18.864   8.371
  886POPC   C3B15561  25.000  18.946   7.951
  886POPC   C4B15562  24.951  18.923   7.513
  887POPC   NC315563  19.096  26.887   9.596
  887POPC   PO415564  18.488  26.933   9.406
  887POPC   GL115565  18.890  26.983   9.142
  887POPC   GL215566  19.110  26.679   9.144
  887POPC   C1A15567  19.114  27.031   8.734
  887POPC   D2A15568  18.940  27.128   8.303
  887POPC   C3A15569  18.831  26.817   7.942
  887POPC   C4A15570  19.176  26.844   7.632
  887POPC   C1B15571  19.147  26.513   8.758
  887POPC   C2B15572  19.038  26.623   8.366
  887POPC   C3B15573  19.280  26.542   8.018
  887POPC   C4B15574  19.599  26.501   7.719
  888POPC   NC315575  20.061  29.767   9.538
  888POPC   PO415576  19.550  29.425   9.362
  888POPC   GL115577  19.792  29.638   9.115
  888POPC   GL215578  19.756  30.000   9.221
  888POPC   C1A15579  19.932  29.531   8.697
  888POPC   D2A15580  20.029  29.782   8.351
  888POPC   C3A15581  19.717  29.659   8.050
  888POPC   C4A15582  19.778  29.480   7.621
  888POPC   C1B15583  19.902  30.021   8.808
  888POPC   C2B15584  19.763  30.236   8.438
  888POPC   C3B15585  19.882  30.158   8.019
  888POPC   C4B15586  19.682  29.997   7.671
  889POPC   NC315587  31.601  37.032   9.345
  889POPC   PO415588  31.120  36.565   9.306
  889POPC   GL115589  31.183  36.903   9.104
  889POPC   GL215590  31.482  36.760   8.942
  889POPC   C1A15591  31.061  36.965   8.730
  889POPC   D2A15592  31.268  36.761   8.431
  889POPC   C3A15593  31.081  36.664   8.040
  889POPC   C4A15594  31.291  36.923   7.764
  889POPC   C1B15595  31.724  36.947   8.624
  889POPC   C2B15596  31.663  37.012   8.169
  889POPC   C3B15597  31.830  36.808   7.799
  889POPC   C4B15598  31.961  36.834   7.364
  890POPC   NC315599  41.469  34.135   9.491
  890POPC   PO415600  41.736  34.743   9.575
  890POPC   GL115601  41.669  34.751   9.145
  890POPC   GL215602  41.352  34.581   9.161
  890POPC   C1A15603  41.499  34.921   8.773
  890POPC   D2A15604  41.345  34.886   8.363
  890POPC   C3A15605  41.568  34.954   8.021
  890POPC   C4A15606  41.767  34.713   7.746
  890POPC   C1B15607  41.547  34.367   8.801
  890POPC   C2B15608  41.483  34.392   8.357
  890POPC   C3B15609  41.263  34.531   7.988
  890POPC   C4B15610  41.367  34.452   7.553
  891POPC   NC315611   3.145  41.586   9.520
  891POPC   PO415612   3.630  41.179   9.753
  891POPC   GL115613   3.589  41.573   9.272
  891POPC   GL215614   3.252  41.659   9.051
  891POPC   C1A15615   3.609  41.522   8.747
  891POPC   D2A15616   3.718  41.843   8.375
  891POPC   C3A15617   3.774  41.598   7.983
  891POPC   C4A15618   3.513  41.290   7.771
  891POPC   C1B15619   3.289  41.922   8.685
  891POPC   C2B15620   3.216  41.855   8.231
  891POPC   C3B15621   3.333  41.824   7.767
  891POPC   C4B15622   3.076  41.925   7.360
  892POPC   NC315623  28.027  38.407   9.445
  892POPC   PO415624  28.592  38.836   9.454
  892POPC   GL115625  28.606  38.471   9.092
  892POPC   GL215626  28.255  38.375   8.989
  892POPC   C1A15627  28.569  38.409   8.597
  892POPC   D2A15628  28.155  38.588   8.388
  892POPC   C3A15629  28.130  38.373   7.998
  892POPC   C4A15630  28.550  38.168   7.855
  892POPC   C1B15631  28.380  38.807   8.810
  892POPC   C2B15632  28.576  38.892   8.422
  892POPC   C3B15633  28.461  38.984   8.024
  892POPC   C4B15634  28.466  38.664   7.755
  893POPC   NC315635  26.820   1.342   9.593
  893POPC   PO415636  26.365   0.873   9.490
  893POPC   GL115637  26.613   0.910   9.124
  893POPC   GL215638  26.879   1.119   9.144
  893POPC   C1A15639  26.705   1.070   8.680
  893POPC   D2A15640  26.702   0.897   8.331
  893POPC   C3A15641  26.809   1.178   8.071
  893POPC   C4A15642  26.869   1.035   7.695
  893POPC   C1B15643  26.659   1.491   8.940
  893POPC   C2B15644  26.652   1.735   8.533
  893POPC   C3B15645  26.867   1.751   8.115
  893POPC   C4B15646  26.799   1.548   7.710
  894POPC   NC315647  13.808  36.794   9.500
  894POPC   PO415648  13.198  36.626   9.539
  894POPC   GL115649  13.381  36.764   9.175
  894POPC   GL215650  13.584  37.031   9.086
  894POPC   C1A15651  13.561  36.640   8.785
  894POPC   D2A15652  13.656  36.899   8.475
  894POPC   C3A15653  13.601  36.729   8.084
  894POPC   C4A15654  13.342  36.873   7.837
  894POPC   C1B15655  13.933  37.205   8.839
  894POPC   C2B15656  14.123  37.078   8.435
  894POPC   C3B15657  14.034  37.263   8.050
  894POPC   C4B15658  13.877  37.040   7.694
  895POPC   NC315659  30.152   3.099   9.504
  895POPC   PO415660  29.583   2.916   9.622
  895POPC   GL115661  29.710   2.641   9.247
  895POPC   GL215662  30.079   2.665   9.183
  895POPC   C1A15663  29.643   2.504   8.791
  895POPC   D2A15664  29.744   2.358   8.353
  895POPC   C3A15665  29.776   2.669   7.991
  895POPC   C4A15666  29.938   3.073   7.798
  895POPC   C1B15667  30.169   2.484   8.754
  895POPC   C2B15668  30.258   2.372   8.324
  895POPC   C3B15669  30.177   2.335   7.882
  895POPC   C4B15670  30.298   2.343   7.436
  896POPC   NC315671  42.607  19.185   9.421
  896POPC   PO415672  42.009  19.412   9.600
  896POPC   GL115673  42.120  19.214   9.179
  896POPC   GL215674  42.310  18.876   9.132
  896POPC   C1A15675  42.066  19.053   8.751
  896POPC   D2A15676  42.198  19.158   8.362
  896POPC   C3A15677  42.106  18.853   8.038
  896POPC   C4A15678  42.135  18.982   7.618
  896POPC   C1B15679  42.589  18.993   8.770
  896POPC   C2B15680  42.722  19.225   8.391
  896POPC   C3B15681  42.551  19.162   7.987
  896POPC   C4B15682  42.572  18.774   7.848
  897POPC   NC315683  24.353  18.769   9.515
  897POPC   PO415684  24.763  19.293   9.573
  897POPC   GL115685  24.538  19.164   9.161
  897POPC   GL215686  24.424  18.812   9.022
  897POPC   C1A15687  24.542  19.284   8.710
  897POPC   D2A15688  24.615  19.077   8.306
  897POPC   C3A15689  24.649  19.322   7.918
  897POPC   C4A15690  24.524  19.214   7.505
  897POPC   C1B15691  24.273  18.781   8.614
  897POPC   C2B15692  24.306  18.671   8.192
  897POPC   C3B15693  24.522  18.817   7.832
  897POPC   C4B15694  24.449  18.698   7.392
  898POPC   NC315695  40.497  33.680   9.494
  898POPC   PO415696  41.148  33.802   9.454
  898POPC   GL115697  40.845  33.797   9.122
  898POPC   GL215698  40.590  34.041   9.140
  898POPC   C1A15699  40.732  33.627   8.723
  898POPC   D2A15700  40.942  33.581   8.317
  898POPC   C3A15701  40.844  33.855   7.942
  898POPC   C4A15702  40.989  34.097   7.555
  898POPC   C1B15703  40.695  34.151   8.727
  898POPC   C2B15704  40.545  33.964   8.368
  898POPC   C3B15705  40.331  34.098   8.025
  898POPC   C4B15706  40.493  34.101   7.638
  899POPC   NC315707  41.722  38.444   9.819
  899POPC   PO415708  42.115  38.816   9.301
  899POPC   GL115709  41.889  38.575   8.883
  899POPC   GL215710  41.525  38.350   8.961
  899POPC   C1A15711  41.637  38.488   8.512
  899POPC   D2A15712  41.476  38.723   8.223
  899POPC   C3A15713  41.801  38.609   7.966
  899POPC   C4A15714  41.744  38.482   7.562
  899POPC   C1B15715  41.344  38.089   8.716
  899POPC   C2B15716  41.210  38.235   8.322
  899POPC   C3B15717  41.409  38.268   7.949
  899POPC   C4B15718  41.209  38.079   7.636
  900POPC   NC315719   8.518   6.086   9.433
  900POPC   PO415720   8.034   5.584   9.357
  900POPC   GL115721   8.253   5.750   9.069
  900POPC   GL215722   8.170   6.081   9.022
  900POPC   C1A15723   8.071   5.703   8.659
  900POPC   D2A15724   7.922   5.861   8.294
  900POPC   C3A15725   8.069   5.687   7.924
  900POPC   C4A15726   7.972   6.051   7.710
  900POPC   C1B15727   8.511   5.946   8.689
  900POPC   C2B15728   8.466   5.818   8.236
  900POPC   C3B15729   8.469   6.047   7.822
  900POPC   C4B15730   8.649   6.102   7.373
  901POPC   NC315731  20.403  19.490   9.463
  901POPC   PO415732  20.873  19.019   9.567
  901POPC   GL115733  20.691  19.144   9.183
  901POPC   GL215734  20.614  18.824   9.041
  901POPC   C1A15735  20.368  19.238   8.854
  901POPC   D2A15736  20.272  19.281   8.440
  901POPC   C3A15737  20.590  19.479   8.241
  901POPC   C4A15738  20.720  19.372   7.838
  901POPC   C1B15739  20.798  18.926   8.658
  901POPC   C2B15740  20.780  19.009   8.220
  901POPC   C3B15741  20.522  18.880   7.891
  901POPC   C4B15742  20.629  18.661   7.526
  902POPC   NC315743  38.655  24.439   9.698
  902POPC   PO415744  37.991  24.217   9.695
  902POPC   GL115745  38.253  24.318   9.308
  902POPC   GL215746  38.608  24.330   9.214
  902POPC   C1A15747  38.298  24.425   8.838
  902POPC   D2A15748  38.158  24.554   8.438
  902POPC   C3A15749  38.493  24.716   8.222
  902POPC   C4A15750  38.467  24.637   7.809
  902POPC   C1B15751  38.754  24.126   8.844
  902POPC   C2B15752  38.632  24.263   8.457
  902POPC   C3B15753  38.520  24.193   8.066
  902POPC   C4B15754  38.579  24.013   7.689
  903POPC   NC315755  33.514  20.587   9.378
  903POPC   PO415756  34.128  20.634   9.406
  903POPC   GL115757  33.889  20.782   9.081
  903POPC   GL215758  34.079  21.014   8.926
  903POPC   C1A15759  33.782  20.640   8.656
  903POPC   D2A15760  33.970  20.482   8.273
  903POPC   C3A15761  33.666  20.422   7.941
  903POPC   C4A15762  33.804  20.350   7.536
  903POPC   C1B15763  33.628  21.117   8.789
  903POPC   C2B15764  33.447  20.972   8.400
  903POPC   C3B15765  33.741  20.920   8.041
  903POPC   C4B15766  33.713  20.845   7.581
  904POPC   NC315767  12.707   3.185   9.334
  904POPC   PO415768  13.139   3.601   9.473
  904POPC   GL115769  12.947   3.553   9.064
  904POPC   GL215770  13.089   3.268   8.954
  904POPC   C1A15771  12.799   3.835   8.731
  904POPC   D2A15772  12.529   3.928   8.353
  904POPC   C3A15773  12.712   3.763   7.964
  904POPC   C4A15774  12.893   3.410   7.718
  904POPC   C1B15775  12.699   3.269   8.672
  904POPC   C2B15776  12.539   3.066   8.273
  904POPC   C3B15777  12.511   3.027   7.792
  904POPC   C4B15778  12.818   3.011   7.389
  905POPC   NC315779  10.272  44.080   9.821
  905POPC   PO415780   9.681  43.898   9.489
  905POPC   GL115781   9.912  43.828   9.152
  905POPC   GL215782   9.995  43.483   9.183
  905POPC   C1A15783   9.919  43.979   8.736
  905POPC   D2A15784   9.672  43.812   8.381
  905POPC   C3A15785   9.810  43.969   8.033
  905POPC   C4A15786  10.019  43.857   7.682
  905POPC   C1B15787   9.687  43.526   8.819
  905POPC   C2B15788   9.423  43.392   8.480
  905POPC   C3B15789   9.316  43.496   8.064
  905POPC   C4B15790   9.615  43.549   7.762
  906POPC   NC315791   7.669   1.980   9.610
  906POPC   PO415792   7.841   2.598   9.471
  906POPC   GL115793   7.658   2.275   9.190
  906POPC   GL215794   7.446   1.961   9.164
  906POPC   C1A15795   7.755   2.139   8.786
  906POPC   D2A15796   7.630   2.175   8.369
  906POPC   C3A15797   7.424   1.876   8.136
  906POPC   C4A15798   7.641   1.771   7.780
  906POPC   C1B15799   7.257   2.227   8.856
  906POPC   C2B15800   7.107   2.217   8.442
  906POPC   C3B15801   7.074   2.222   8.013
  906POPC   C4B15802   7.197   2.013   7.672
  907POPC   NC315803   0.332  22.304   9.497
  907POPC   PO415804   0.890  21.989   9.625
  907POPC   GL115805   0.615  21.879   9.253
  907POPC   GL215806   0.661  22.187   9.108
  907POPC   C1A15807   0.451  21.876   8.788
  907POPC   D2A15808   0.667  22.026   8.429
  907POPC   C3A15809   0.546  21.795   8.044
  907POPC   C4A15810   0.244  21.877   7.723
  907POPC   C1B15811   0.416  22.398   8.767
  907POPC   C2B15812   0.434  22.489   8.357
  907POPC   C3B15813   0.514  22.327   7.947
  907POPC   C4B15814   0.425  22.591   7.598
  908POPC   NC315815  23.318  29.226   9.650
  908POPC   PO415816  22.760  29.360   9.512
  908POPC   GL115817  22.967  29.058   9.232
  908POPC   GL215818  23.280  28.851   9.251
  908POPC   C1A15819  22.796  28.916   8.839
  908POPC   D2A15820  22.656  29.010   8.422
  908POPC   C3A15821  22.637  28.694   8.104
  908POPC   C4A15822  22.846  28.758   7.723
  908POPC   C1B15823  23.287  29.030   8.796
  908POPC   C2B15824  23.226  29.097   8.337
  908POPC   C3B15825  23.242  29.080   7.883
  908POPC   C4B15826  23.289  29.459   7.694
  909POPC   NC315827  36.319  27.710   9.445
  909POPC   PO415828  35.742  27.384   9.338
  909POPC   GL115829  36.083  27.475   9.043
  909POPC   GL215830  36.433  27.341   9.092
  909POPC   C1A15831  36.069  27.746   8.677
  909POPC   D2A15832  36.314  27.875   8.321
  909POPC   C3A15833  36.083  27.888   7.947
  909POPC   C4A15834  36.199  27.829   7.501
  909POPC   C1B15835  36.405  27.350   8.637
  909POPC   C2B15836  36.132  27.401   8.269
  909POPC   C3B15837  36.129  27.412   7.789
  909POPC   C4B15838  35.830  27.495   7.424
  910POPC   NC315839   1.724   6.660   9.622
  910POPC   PO415840   1.133   6.979   9.502
  910POPC   GL115841   1.103   6.813   9.130
  910POPC   GL215842   1.085   6.499   9.246
  910POPC   C1A15843   1.254   6.747   8.746
  910POPC   D2A15844   1.274   6.725   8.331
  910POPC   C3A15845   1.526   6.882   8.035
  910POPC   C4A15846   1.201   6.787   7.757
  910POPC   C1B15847   1.073   6.277   8.876
  910POPC   C2B15848   1.275   6.257   8.512
  910POPC   C3B15849   1.237   6.284   8.067
  910POPC   C4B15850   1.012   6.294   7.713
  911POPC   NC315851   6.909  15.017   9.554
  911POPC   PO415852   6.338  15.317   9.487
  911POPC   GL115853   6.645  15.229   9.178
  911POPC   GL215854   6.955  15.443   9.248
  911POPC   C1A15855   6.528  15.145   8.766
  911POPC   D2A15856   6.342  15.369   8.426
  911POPC   C3A15857   6.547  15.228   8.098
  911POPC   C4A15858   6.647  15.074   7.722
  911POPC   C1B15859   7.013  15.330   8.809
  911POPC   C2B15860   6.922  15.141   8.418
  911POPC   C3B15861   7.030  15.304   7.966
  911POPC   C4B15862   7.067  15.311   7.503
  912POPC   NC315863   1.547  20.485   9.722
  912POPC   PO415864   2.065  20.911   9.483
  912POPC   GL115865   2.030  20.768   9.119
  912POPC   GL215866   2.362  20.903   9.079
  912POPC   C1A15867   2.101  20.605   8.742
  912POPC   D2A15868   2.237  20.400   8.387
  912POPC   C3A15869   1.954  20.390   8.041
  912POPC   C4A15870   2.111  20.571   7.672
  912POPC   C1B15871   2.348  21.176   8.787
  912POPC   C2B15872   2.268  20.957   8.419
  912POPC   C3B15873   2.388  20.785   8.043
  912POPC   C4B15874   2.327  21.032   7.664
  913POPC   NC315875   8.645   8.658   9.599
  913POPC   PO415876   9.001   9.128   9.454
  913POPC   GL115877   8.834   8.950   9.114
  913POPC   GL215878   9.136   8.867   8.954
  913POPC   C1A15879   8.782   9.128   8.704
  913POPC   D2A15880   9.013   9.267   8.356
  913POPC   C3A15881   8.876   9.096   7.971
  913POPC   C4A15882   8.928   9.345   7.624
  913POPC   C1B15883   9.474   8.791   8.701
  913POPC   C2B15884   9.338   8.810   8.309
  913POPC   C3B15885   9.276   8.641   7.930
  913POPC   C4B15886   9.159   8.831   7.562
  914POPC   NC315887  21.251  25.389   9.302
  914POPC   PO415888  21.822  25.011   9.458
  914POPC   GL115889  21.496  25.054   9.048
  914POPC   GL215890  21.341  25.427   8.829
  914POPC   C1A15891  21.100  24.983   8.771
  914POPC   D2A15892  20.975  25.140   8.363
  914POPC   C3A15893  21.289  24.937   8.095
  914POPC   C4A15894  21.470  25.000   7.699
  914POPC   C1B15895  21.495  25.804   8.607
  914POPC   C2B15896  21.751  25.628   8.345
  914POPC   C3B15897  21.377  25.531   8.128
  914POPC   C4B15898  21.433  25.512   7.730
  915POPC   NC315899  23.237   9.197   9.806
  915POPC   PO415900  22.988   9.772   9.596
  915POPC   GL115901  22.848   9.953   9.214
  915POPC   GL215902  22.731   9.619   9.070
  915POPC   C1A15903  22.848   9.985   8.758
  915POPC   D2A15904  22.878   9.676   8.398
  915POPC   C3A15905  23.053   9.679   7.973
  915POPC   C4A15906  23.066   9.603   7.522
  915POPC   C1B15907  22.444   9.657   8.661
  915POPC   C2B15908  22.379   9.469   8.235
  915POPC   C3B15909  22.489   9.313   7.814
  915POPC   C4B15910  22.347   9.256   7.356
  916POPC   NC315911  33.127   6.996   9.580
  916POPC   PO415912  32.620   6.569   9.795
  916POPC   GL115913  32.711   6.635   9.318
  916POPC   GL215914  32.671   6.997   9.296
  916POPC   C1A15915  32.909   6.560   8.846
  916POPC   D2A15916  33.345   6.530   8.547
  916POPC   C3A15917  33.362   6.441   8.076
  916POPC   C4A15918  33.149   6.573   7.664
  916POPC   C1B15919  32.775   7.089   8.871
  916POPC   C2B15920  33.053   6.932   8.539
  916POPC   C3B15921  32.982   6.768   8.143
  916POPC   C4B15922  32.758   6.922   7.786
  917POPC   NC315923  19.549  20.778   9.334
  917POPC   PO415924  20.192  20.547   9.440
  917POPC   GL115925  19.972  20.558   9.067
  917POPC   GL215926  19.708  20.336   9.161
  917POPC   C1A15927  19.847  20.875   8.742
  917POPC   D2A15928  19.722  20.987   8.329
  917POPC   C3A15929  19.830  20.802   7.914
  917POPC   C4A15930  19.706  20.754   7.451
  917POPC   C1B15931  19.554  20.425   8.767
  917POPC   C2B15932  19.833  20.456   8.447
  917POPC   C3B15933  19.719  20.326   8.089
  917POPC   C4B15934  19.823  20.329   7.682
  918POPC   NC315935  17.548  28.914   9.786
  918POPC   PO415936  17.044  28.975   9.509
  918POPC   GL115937  17.406  28.985   9.261
  918POPC   GL215938  17.397  29.305   9.044
  918POPC   C1A15939  17.647  28.895   8.896
  918POPC   D2A15940  17.568  28.830   8.458
  918POPC   C3A15941  17.342  29.049   8.126
  918POPC   C4A15942  17.594  29.050   7.757
  918POPC   C1B15943  17.656  29.346   8.628
  918POPC   C2B15944  17.716  29.398   8.155
  918POPC   C3B15945  17.421  29.512   7.830
  918POPC   C4B15946  17.024  29.270   7.758
  919POPC   NC315947  20.038   8.768   9.359
  919POPC   PO415948  19.439   8.987   9.504
  919POPC   GL115949  19.620   8.893   9.126
  919POPC   GL215950  19.886   9.135   9.044
  919POPC   C1A15951  19.640   8.851   8.682
  919POPC   D2A15952  19.836   9.185   8.453
  919POPC   C3A15953  20.106   9.009   8.149
  919POPC   C4A15954  19.938   8.687   7.819
  919POPC   C1B15955  20.238   9.203   8.743
  919POPC   C2B15956  20.251   9.496   8.361
  919POPC   C3B15957  20.274   9.454   7.916
  919POPC   C4B15958  20.045   9.164   7.677
  920POPC   NC315959  39.513  32.795   9.332
  920POPC   PO415960  39.013  33.171   9.594
  920POPC   GL115961  39.107  33.227   9.171
  920POPC   GL215962  39.461  33.278   9.193
  920POPC   C1A15963  39.143  32.958   8.793
  920POPC   D2A15964  38.952  32.789   8.426
  920POPC   C3A15965  39.148  32.842   8.036
  920POPC   C4A15966  39.039  32.939   7.625
  920POPC   C1B15967  39.397  33.395   8.768
  920POPC   C2B15968  39.405  33.168   8.381
  920POPC   C3B15969  39.499  33.222   7.982
  920POPC   C4B15970  39.519  33.086   7.562
  921POPC   NC315971  36.695  18.681   9.488
  921POPC   PO415972  37.042  18.148   9.447
  921POPC   GL115973  36.801  18.295   9.133
  921POPC   GL215974  36.986  18.548   9.064
  921POPC   C1A15975  36.778  18.233   8.715
  921POPC   D2A15976  37.002  18.422   8.404
  921POPC   C3A15977  36.896  18.139   8.082
  921POPC   C4A15978  36.672  18.194   7.694
  921POPC   C1B15979  37.302  18.690   8.788
  921POPC   C2B15980  37.369  18.802   8.366
  921POPC   C3B15981  37.303  18.538   7.998
  921POPC   C4B15982  37.188  18.264   7.682
  922POPC   NC315983   1.636  42.918   9.564
  922POPC   PO415984   1.947  43.421   9.371
  922POPC   GL115985   1.929  43.087   9.129
  922POPC   GL215986   2.274  42.935   9.115
  922POPC   C1A15987   1.954  43.067   8.698
  922POPC   D2A15988   2.266  43.108   8.358
  922POPC   C3A15989   2.042  43.286   8.022
  922POPC   C4A15990   1.605  43.177   8.023
  922POPC   C1B15991   2.296  42.682   8.725
  922POPC   C2B15992   1.980  42.662   8.383
  922POPC   C3B15993   2.039  42.786   7.985
  922POPC   C4B15994   2.260  42.553   7.706
  923POPC   NC315995  21.663  36.945   9.609
  923POPC   PO415996  21.164  36.568   9.652
  923POPC   GL115997  21.262  36.871   9.279
  923POPC   GL215998  21.430  37.180   9.243
  923POPC   C1A15999  21.417  36.810   8.853
  923POPC   D2A16000  21.452  36.592   8.474
  923POPC   C3A16001  21.362  36.806   8.101
  923POPC   C4A16002  21.389  36.601   7.718
  923POPC   C1B16003  21.674  37.254   8.851
  923POPC   C2B16004  21.808  37.022   8.430
  923POPC   C3B16005  21.699  37.182   7.994
  923POPC   C4B16006  21.671  37.207   7.523
  924POPC   NC316007   3.783  34.746   9.445
  924POPC   PO416008   3.746  34.121   9.473
  924POPC   GL116009   3.646  34.356   9.104
  924POPC   GL216010   3.395  34.124   9.013
  924POPC   C1A16011   3.776  34.663   8.750
  924POPC   D2A16012   3.898  34.952   8.371
  924POPC   C3A16013   3.582  34.961   8.034
  924POPC   C4A16014   3.570  34.784   7.608
  924POPC   C1B16015   3.553  34.215   8.592
  924POPC   C2B16016   3.689  34.484   8.254
  924POPC   C3B16017   3.880  34.418   7.860
  924POPC   C4B16018   3.926  34.100   7.516
  925POPC   NC316019  22.151  32.385   9.699
  925POPC   PO416020  22.305  31.724   9.555
  925POPC   GL116021  22.209  32.108   9.267
  925POPC   GL216022  21.964  32.415   9.217
  925POPC   C1A16023  22.419  32.086   8.873
  925POPC   D2A16024  22.392  32.215   8.435
  925POPC   C3A16025  22.424  31.994   8.049
  925POPC   C4A16026  22.209  32.014   7.640
  925POPC   C1B16027  21.857  32.717   8.844
  925POPC   C2B16028  21.934  32.528   8.424
  925POPC   C3B16029  22.100  32.406   8.009
  925POPC   C4B16030  22.021  32.662   7.622
  926POPC   NC316031  27.277   0.107   9.772
  926POPC   PO416032  27.521  44.532   9.483
  926POPC   GL116033  27.642  44.735   9.106
  926POPC   GL216034  27.792   0.037   9.104
  926POPC   C1A16035  27.868  44.625   8.739
  926POPC   D2A16036  27.833  44.368   8.380
  926POPC   C3A16037  27.438  44.466   8.163
  926POPC   C4A16038  27.444  44.525   7.710
  926POPC   C1B16039  27.651   0.101   8.696
  926POPC   C2B16040  27.676  44.888   8.347
  926POPC   C3B16041  27.537  44.939   7.982
  926POPC   C4B16042  27.285   0.031   7.668
  927POPC   NC316043  30.727   2.332   9.466
  927POPC   PO416044  30.534   2.952   9.312
  927POPC   GL116045  30.590   2.611   9.035
  927POPC   GL216046  30.935   2.579   9.045
  927POPC   C1A16047  30.667   2.575   8.574
  927POPC   D2A16048  30.518   2.785   8.179
  927POPC   C3A16049  30.597   2.622   7.766
  927POPC   C4A16050  30.505   2.847   7.402
  927POPC   C1B16051  30.949   2.955   8.779
  927POPC   C2B16052  30.924   3.055   8.338
  927POPC   C3B16053  30.897   3.021   7.886
  927POPC   C4B16054  31.057   2.785   7.519
  928POPC   NC316055  16.167  18.735   9.578
  928POPC   PO416056  15.744  19.218   9.770
  928POPC   GL116057  15.731  19.083   9.270
  928POPC   GL216058  15.947  18.863   9.136
  928POPC   C1A16059  15.772  19.180   8.780
  928POPC   D2A16060  15.705  19.404   8.359
  928POPC   C3A16061  15.704  19.134   7.997
  928POPC   C4A16062  15.913  19.083   7.620
  928POPC   C1B16063  16.107  18.753   8.756
  928POPC   C2B16064  15.990  18.840   8.338
  928POPC   C3B16065  16.232  18.876   7.959
  928POPC   C4B16066  16.148  18.642   7.593
  929POPC   NC316067  19.427  23.532   9.341
  929POPC   PO416068  19.008  23.956   9.633
  929POPC   GL116069  19.021  23.829   9.210
  929POPC   GL216070  19.317  23.935   9.026
  929POPC   C1A16071  18.864  23.946   8.800
  929POPC   D2A16072  18.962  24.180   8.429
  929POPC   C3A16073  18.862  23.961   8.062
  929POPC   C4A16074  19.065  23.834   7.731
  929POPC   C1B16075  19.313  23.811   8.574
  929POPC   C2B16076  19.265  23.606   8.173
  929POPC   C3B16077  19.451  23.488   7.764
  929POPC   C4B16078  19.486  23.806   7.437
  930POPC   NC316079  18.002  28.131   9.531
  930POPC   PO416080  18.598  28.268   9.528
  930POPC   GL116081  18.388  28.229   9.169
  930POPC   GL216082  18.533  28.578   9.095
  930POPC   C1A16083  18.012  28.216   8.865
  930POPC   D2A16084  17.735  28.332   8.491
  930POPC   C3A16085  17.929  28.445   8.101
  930POPC   C4A16086  18.012  28.198   7.734
  930POPC   C1B16087  18.536  28.361   8.709
  930POPC   C2B16088  18.267  28.224   8.412
  930POPC   C3B16089  18.428  28.276   8.011
  930POPC   C4B16090  18.569  28.056   7.665
  931POPC   NC316091  19.455  23.788   9.839
  931POPC   PO416092  19.885  23.506   9.403
  931POPC   GL116093  19.805  23.769   9.099
  931POPC   GL216094  19.636  23.526   8.889
  931POPC   C1A16095  19.754  24.006   8.753
  931POPC   D2A16096  19.825  23.860   8.367
  931POPC   C3A16097  19.811  24.076   8.005
  931POPC   C4A16098  19.708  24.281   7.615
  931POPC   C1B16099  19.470  23.278   8.568
  931POPC   C2B16100  19.724  23.395   8.227
  931POPC   C3B16101  19.954  23.574   7.894
  931POPC   C4B16102  19.952  23.562   7.410
  932POPC   NC316103  42.641   1.725   9.498
  932POPC   PO416104  42.283   1.223   9.654
  932POPC   GL116105  42.268   1.129   9.217
  932POPC   GL216106  42.604   1.115   9.130
  932POPC   C1A16107  42.130   1.156   8.798
  932POPC   D2A16108  42.323   1.357   8.456
  932POPC   C3A16109  42.161   1.340   8.029
  932POPC   C4A16110  42.404   1.553   7.719
  932POPC   C1B16111  42.600   0.919   8.713
  932POPC   C2B16112  42.476   0.876   8.266
  932POPC   C3B16113  42.530   1.062   7.833
  932POPC   C4B16114  42.786   1.181   7.450
  933POPC   NC316115  34.292   8.767   9.470
  933POPC   PO416116  34.904   8.650   9.278
  933POPC   GL116117  34.621   8.755   9.040
  933POPC   GL216118  34.567   9.060   9.035
  933POPC   C1A16119  34.658   8.539   8.688
  933POPC   D2A16120  34.916   8.659   8.363
  933POPC   C3A16121  34.740   8.782   7.985
  933POPC   C4A16122  34.333   8.863   7.785
  933POPC   C1B16123  34.647   9.062   8.601
  933POPC   C2B16124  34.428   9.096   8.230
  933POPC   C3B16125  34.552   9.310   7.849
  933POPC   C4B16126  34.514   9.374   7.384
  934POPC   NC316127  31.865  34.602   9.593
  934POPC   PO416128  31.193  34.734   9.475
  934POPC   GL116129  31.416  34.537   9.146
  934POPC   GL216130  31.727  34.683   9.089
  934POPC   C1A16131  31.496  34.421   8.717
  934POPC   D2A16132  31.819  34.614   8.440
  934POPC   C3A16133  31.703  34.517   8.008
  934POPC   C4A16134  31.427  34.420   7.644
  934POPC   C1B16135  31.382  34.916   8.809
  934POPC   C2B16136  31.363  34.834   8.362
  934POPC   C3B16137  31.166  34.736   7.958
  934POPC   C4B16138  31.128  34.821   7.487
  935POPC   NC316139  33.804  37.428   9.592
  935POPC   PO416140  33.974  36.815   9.810
  935POPC   GL116141  33.850  36.910   9.367
  935POPC   GL216142  33.976  37.205   9.159
  935POPC   C1A16143  33.816  36.769   8.944
  935POPC   D2A16144  33.905  36.974   8.563
  935POPC   C3A16145  33.722  36.785   8.181
  935POPC   C4A16146  33.957  36.641   7.810
  935POPC   C1B16147  33.614  37.269   8.880
  935POPC   C2B16148  33.412  37.128   8.498
  935POPC   C3B16149  33.422  37.224   8.084
  935POPC   C4B16150  33.739  37.118   7.783
  936POPC   NC316151  24.952  33.507   9.397
  936POPC   PO416152  24.217  33.664   9.498
  936POPC   GL116153  24.347  33.749   9.070
  936POPC   GL216154  24.676  33.811   9.092
  936POPC   C1A16155  24.457  33.951   8.662
  936POPC   D2A16156  24.320  34.013   8.262
  936POPC   C3A16157  24.430  33.780   7.929
  936POPC   C4A16158  24.501  33.898   7.542
  936POPC   C1B16159  24.795  33.551   8.746
  936POPC   C2B16160  24.698  33.529   8.309
  936POPC   C3B16161  24.772  33.323   7.910
  936POPC   C4B16162  24.795  33.499   7.488
  937POPC   NC316163   2.365  38.562   9.591
  937POPC   PO416164   2.987  38.960   9.664
  937POPC   GL116165   2.803  38.709   9.305
  937POPC   GL216166   2.889  38.348   9.213
  937POPC   C1A16167   2.800  38.716   8.852
  937POPC   D2A16168   2.924  38.493   8.482
  937POPC   C3A16169   2.846  38.681   8.107
  937POPC   C4A16170   2.695  38.553   7.696
  937POPC   C1B16171   2.608  38.250   8.842
  937POPC   C2B16172   2.434  38.349   8.425
  937POPC   C3B16173   2.625  38.191   8.041
  937POPC   C4B16174   2.773  38.036   7.627
  938POPC   NC316175  10.235  25.121   9.412
  938POPC   PO416176  10.774  25.488   9.462
  938POPC   GL116177  10.584  25.298   9.099
  938POPC   GL216178  10.325  25.555   9.107
  938POPC   C1A16179  10.538  25.039   8.706
  938POPC   D2A16180  10.434  25.167   8.267
  938POPC   C3A16181  10.673  25.061   7.869
  938POPC   C4A16182  10.568  25.161   7.424
  938POPC   C1B16183  10.577  25.698   8.799
  938POPC   C2B16184  10.619  25.715   8.393
  938POPC   C3B16185  10.713  25.534   8.020
  938POPC   C4B16186  10.683  25.633   7.619
  939POPC   NC316187  22.310  34.691   9.525
  939POPC   PO416188  22.965  34.874   9.565
  939POPC   GL116189  22.769  34.725   9.225
  939POPC   GL216190  22.589  34.978   9.221
  939POPC   C1A16191  22.821  34.554   8.822
  939POPC   D2A16192  23.101  34.573   8.482
  939POPC   C3A16193  22.865  34.663   8.131
  939POPC   C4A16194  22.965  34.683   7.728
  939POPC   C1B16195  22.609  35.148   8.867
  939POPC   C2B16196  22.516  34.907   8.554
  939POPC   C3B16197  22.416  34.991   8.171
  939POPC   C4B16198  22.647  35.089   7.818
  940POPC   NC316199  25.712  13.590   9.546
  940POPC   PO416200  25.093  13.461   9.391
  940POPC   GL116201  25.388  13.673   9.146
  940POPC   GL216202  25.576  13.362   9.133
  940POPC   C1A16203  25.353  13.777   8.719
  940POPC   D2A16204  25.131  13.604   8.364
  940POPC   C3A16205  25.221  13.731   7.950
  940POPC   C4A16206  25.615  13.635   7.806
  940POPC   C1B16207  25.410  13.257   8.788
  940POPC   C2B16208  25.598  13.161   8.444
  940POPC   C3B16209  25.417  13.261   8.091
  940POPC   C4B16210  25.171  13.261   7.759
  941POPC   NC316211  30.032  22.938   9.338
  941POPC   PO416212  29.455  23.319   9.482
  941POPC   GL116213  29.614  23.138   9.090
  941POPC   GL216214  29.388  23.214   8.827
  941POPC   C1A16215  29.823  22.963   8.660
  941POPC   D2A16216  30.215  22.905   8.389
  941POPC   C3A16217  30.199  22.741   7.936
  941POPC   C4A16218  30.126  22.844   7.452
  941POPC   C1B16219  29.372  22.764   8.843
  941POPC   C2B16220  29.556  22.534   8.512
  941POPC   C3B16221  29.723  22.726   8.138
  941POPC   C4B16222  29.778  22.556   7.710
  942POPC   NC316223  19.136   9.362   9.585
  942POPC   PO416224  18.848  10.014   9.459
  942POPC   GL116225  19.044   9.720   9.180
  942POPC   GL216226  19.290   9.936   9.097
  942POPC   C1A16227  18.886   9.748   8.770
  942POPC   D2A16228  18.732  10.067   8.480
  942POPC   C3A16229  18.831   9.877   8.076
  942POPC   C4A16230  18.996   9.903   7.670
  942POPC   C1B16231  19.392   9.742   8.708
  942POPC   C2B16232  19.301   9.689   8.282
  942POPC   C3B16233  19.344   9.561   7.841
  942POPC   C4B16234  19.443   9.824   7.471
  943POPC   NC316235  38.378   0.109   9.614
  943POPC   PO416236  38.616  44.441   9.568
  943POPC   GL116237  38.549  44.760   9.235
  943POPC   GL216238  38.819   0.020   9.301
  943POPC   C1A16239  38.361  44.680   8.791
  943POPC   D2A16240  38.317  44.422   8.378
  943POPC   C3A16241  38.099  44.475   7.951
  943POPC   C4A16242  38.211  44.613   7.502
  943POPC   C1B16243  38.746   0.046   8.819
  943POPC   C2B16244  38.689  44.796   8.397
  943POPC   C3B16245  38.621  44.750   7.923
  943POPC   C4B16246  38.831  44.951   7.551
  944POPC   NC316247  22.826  19.433   9.319
  944POPC   PO416248  23.199  18.915   9.456
  944POPC   GL116249  23.203  19.173   9.099
  944POPC   GL216250  23.274  19.573   9.148
  944POPC   C1A16251  23.054  18.999   8.714
  944POPC   D2A16252  22.724  18.996   8.397
  944POPC   C3A16253  22.748  18.860   7.977
  944POPC   C4A16254  23.157  18.816   7.860
  944POPC   C1B16255  23.253  19.485   8.713
  944POPC   C2B16256  23.201  19.261   8.310
  944POPC   C3B16257  23.022  19.323   7.911
  944POPC   C4B16258  23.087  19.595   7.556
  945POPC   NC316259  16.845  10.034   9.973
  945POPC   PO416260  16.913   9.485   9.577
  945POPC   GL116261  16.928   9.494   9.150
  945POPC   GL216262  16.587   9.647   9.142
  945POPC   C1A16263  16.884   9.700   8.730
  945POPC   D2A16264  16.626   9.757   8.380
  945POPC   C3A16265  16.806   9.673   8.002
  945POPC   C4A16266  16.937   9.272   7.833
  945POPC   C1B16267  16.431   9.971   8.809
  945POPC   C2B16268  16.231  10.076   8.392
  945POPC   C3B16269  16.431  10.087   7.974
  945POPC   C4B16270  16.510   9.853   7.595
  946POPC   NC316271  39.865   3.002   9.390
  946POPC   PO416272  40.478   2.705   9.440
  946POPC   GL116273  40.293   2.877   9.102
  946POPC   GL216274  40.078   2.587   9.052
  946POPC   C1A16275  40.073   2.964   8.720
  946POPC   D2A16276  40.100   2.657   8.408
  946POPC   C3A16277  40.307   2.708   8.026
  946POPC   C4A16278  40.344   2.568   7.607
  946POPC   C1B16279  39.746   2.521   8.760
  946POPC   C2B16280  39.584   2.705   8.371
  946POPC   C3B16281  39.797   2.827   8.014
  946POPC   C4B16282  39.853   2.597   7.645
  947POPC   NC316283  37.989  36.431   9.453
  947POPC   PO416284  37.342  36.009   9.519
  947POPC   GL116285  37.622  36.145   9.202
  947POPC   GL216286  37.905  36.001   9.064
  947POPC   C1A16287  37.564  36.302   8.789
  947POPC   D2A16288  37.334  36.250   8.444
  947POPC   C3A16289  37.576  36.281   8.060
  947POPC   C4A16290  37.774  36.394   7.685
  947POPC   C1B16291  38.165  35.886   8.705
  947POPC   C2B16292  38.208  35.887   8.252
  947POPC   C3B16293  37.933  35.942   7.880
  947POPC   C4B16294  38.039  36.047   7.426
  948POPC   NC316295  42.635  27.975   9.325
  948POPC   PO416296  42.231  28.407   9.629
  948POPC   GL116297  42.161  28.217   9.229
  948POPC   GL216298  42.456  28.396   9.124
  948POPC   C1A16299  42.088  28.295   8.773
  948POPC   D2A16300  42.085  28.531   8.386
  948POPC   C3A16301  42.123  28.358   7.974
  948POPC   C4A16302  42.000  28.153   7.608
  948POPC   C1B16303  42.622  28.237   8.743
  948POPC   C2B16304  42.781  28.342   8.373
  948POPC   C3B16305  42.638  28.382   7.980
  948POPC   C4B16306  42.449  28.359   7.562
  949POPC   NC316307  21.076  33.534   9.412
  949POPC   PO416308  20.591  33.984   9.531
  949POPC   GL116309  20.665  33.791   9.146
  949POPC   GL216310  20.345  33.562   9.083
  949POPC   C1A16311  20.829  34.011   8.766
  949POPC   D2A16312  20.894  33.848   8.388
  949POPC   C3A16313  20.855  34.103   8.049
  949POPC   C4A16314  20.833  33.992   7.651
  949POPC   C1B16315  20.338  33.890   8.755
  949POPC   C2B16316  20.409  33.977   8.305
  949POPC   C3B16317  20.467  33.758   7.933
  949POPC   C4B16318  20.172  33.483   7.696
  950POPC   NC316319  25.383   8.474   9.555
  950POPC   PO416320  24.943   8.073   9.518
  950POPC   GL116321  25.227   8.212   9.152
  950POPC   GL216322  25.161   8.560   9.086
  950POPC   C1A16323  25.356   8.240   8.708
  950POPC   D2A16324  25.517   8.380   8.287
  950POPC   C3A16325  25.457   8.062   7.983
  950POPC   C4A16326  25.629   7.957   7.586
  950POPC   C1B16327  25.010   8.669   8.662
  950POPC   C2B16328  25.055   8.645   8.207
  950POPC   C3B16329  25.241   8.497   7.808
  950POPC   C4B16330  25.136   8.531   7.336
  951POPC   NC316331  35.017  16.028   9.536
  951POPC   PO416332  34.298  15.860   9.600
  951POPC   GL116333  34.536  16.107   9.318
  951POPC   GL216334  34.682  15.846   9.147
  951POPC   C1A16335  34.508  16.226   8.880
  951POPC   D2A16336  34.802  16.297   8.532
  951POPC   C3A16337  34.738  16.058   8.144
  951POPC   C4A16338  34.627  16.190   7.709
  951POPC   C1B16339  34.727  15.795   8.677
  951POPC   C2B16340  34.559  15.600   8.244
  951POPC   C3B16341  34.550  15.703   7.779
  951POPC   C4B16342  34.842  15.806   7.395
  952POPC   NC316343  38.145  25.295   9.616
  952POPC   PO416344  37.531  24.984   9.474
  952POPC   GL116345  37.682  25.283   9.135
  952POPC   GL216346  37.970  25.477   9.161
  952POPC   C1A16347  37.721  25.232   8.689
  952POPC   D2A16348  37.751  24.908   8.339
  952POPC   C3A16349  37.577  25.013   7.938
  952POPC   C4A16350  37.483  25.301   7.601
  952POPC   C1B16351  38.090  25.593   8.734
  952POPC   C2B16352  37.869  25.534   8.308
  952POPC   C3B16353  37.859  25.473   7.895
  952POPC   C4B16354  37.898  25.597   7.476
  953POPC   NC316355  10.181  23.640   9.666
  953POPC   PO416356  10.698  23.915   9.646
  953POPC   GL116357  10.582  23.793   9.221
  953POPC   GL216358  10.318  23.555   9.108
  953POPC   C1A16359  10.815  23.701   8.839
  953POPC   D2A16360  10.910  23.688   8.386
  953POPC   C3A16361  10.594  23.649   8.029
  953POPC   C4A16362  10.622  23.801   7.594
  953POPC   C1B16363  10.389  23.470   8.649
  953POPC   C2B16364  10.180  23.328   8.237
  953POPC   C3B16365  10.190  23.402   7.776
  953POPC   C4B16366  10.243  23.600   7.342
  954POPC   NC316367  39.076  19.248   9.452
  954POPC   PO416368  39.435  18.668   9.478
  954POPC   GL116369  39.365  18.962   9.142
  954POPC   GL216370  39.153  19.263   8.973
  954POPC   C1A16371  39.367  18.875   8.739
  954POPC   D2A16372  39.576  19.016   8.426
  954POPC   C3A16373  39.308  19.095   8.075
  954POPC   C4A16374  38.925  19.301   7.937
  954POPC   C1B16375  39.354  19.430   8.641
  954POPC   C2B16376  39.235  19.589   8.251
  954POPC   C3B16377  39.365  19.568   7.818
  954POPC   C4B16378  39.304  19.424   7.380
  955POPC   NC316379  21.551  32.954   9.898
  955POPC   PO416380  21.612  32.306   9.611
  955POPC   GL116381  21.466  32.305   9.146
  955POPC   GL216382  21.179  32.150   9.022
  955POPC   C1A16383  21.445  32.471   8.711
  955POPC   D2A16384  21.326  32.306   8.328
  955POPC   C3A16385  21.585  32.465   8.012
  955POPC   C4A16386  21.736  32.237   7.652
  955POPC   C1B16387  20.966  32.546   8.822
  955POPC   C2B16388  20.856  32.596   8.389
  955POPC   C3B16389  21.055  32.595   8.003
  955POPC   C4B16390  21.305  32.661   7.627
  956POPC   NC316391  43.544  32.671   9.394
  956POPC   PO416392  44.159  32.670   9.345
  956POPC   GL116393  43.895  32.711   8.982
  956POPC   GL216394  43.725  33.043   9.041
  956POPC   C1A16395  43.983  32.942   8.588
  956POPC   D2A16396  43.869  33.186   8.198
  956POPC   C3A16397  44.182  33.093   7.828
  956POPC   C4A16398  44.321  33.022   7.369
  956POPC   C1B16399  43.505  33.073   8.655
  956POPC   C2B16400  43.337  33.380   8.402
  956POPC   C3B16401  43.368  33.262   7.999
  956POPC   C4B16402  43.687  32.945   7.794
  957POPC   NC316403  31.141  40.650   9.449
  957POPC   PO416404  31.845  40.585   9.552
  957POPC   GL116405  31.758  40.742   9.144
  957POPC   GL216406  31.498  40.578   9.044
  957POPC   C1A16407  31.782  40.890   8.708
  957POPC   D2A16408  31.704  40.611   8.362
  957POPC   C3A16409  31.876  40.644   7.953
  957POPC   C4A16410  31.724  40.935   7.647
  957POPC   C1B16411  31.290  40.794   8.683
  957POPC   C2B16412  31.182  40.840   8.284
  957POPC   C3B16413  31.183  40.932   7.897
  957POPC   C4B16414  31.398  40.565   7.798
  958POPC   NC316415  30.734  44.922   9.763
  958POPC   PO416416  30.441  44.500   9.291
  958POPC   GL116417  30.453  44.659   8.917
  958POPC   GL216418  30.813  44.703   9.024
  958POPC   C1A16419  30.337  44.417   8.552
  958POPC   D2A16420  30.572  44.120   8.266
  958POPC   C3A16421  30.747  44.276   7.850
  958POPC   C4A16422  30.591  44.538   7.480
  958POPC   C1B16423  30.841  44.477   8.648
  958POPC   C2B16424  30.680  44.637   8.249
  958POPC   C3B16425  30.849  44.795   7.879
  958POPC   C4B16426  31.069  44.635   7.546
  959POPC   NC316427  41.375  35.028   9.442
  959POPC   PO416428  41.449  35.674   9.698
  959POPC   GL116429  41.656  35.439   9.291
  959POPC   GL216430  41.897  35.192   9.375
  959POPC   C1A16431  41.650  35.438   8.823
  959POPC   D2A16432  41.442  35.397   8.419
  959POPC   C3A16433  41.683  35.458   8.040
  959POPC   C4A16434  41.475  35.329   7.658
  959POPC   C1B16435  42.021  35.120   8.935
  959POPC   C2B16436  41.892  35.097   8.489
  959POPC   C3B16437  42.060  35.019   8.083
  959POPC   C4B16438  41.968  35.190   7.689
  960POPC   NC316439  13.320  40.887   9.708
  960POPC   PO416440  12.621  40.708   9.550
  960POPC   GL116441  12.791  40.918   9.202
  960POPC   GL216442  13.072  40.736   9.120
  960POPC   C1A16443  12.848  41.046   8.778
  960POPC   D2A16444  13.094  40.979   8.422
  960POPC   C3A16445  12.971  41.178   8.049
  960POPC   C4A16446  12.675  40.957   7.800
  960POPC   C1B16447  13.158  40.388   8.812
  960POPC   C2B16448  13.113  40.323   8.358
  960POPC   C3B16449  13.106  40.571   7.939
  960POPC   C4B16450  13.151  40.938   7.626
  961POPC   NC316451  41.298  39.205   9.485
  961POPC   PO416452  40.570  39.401   9.482
  961POPC   GL116453  40.824  39.194   9.188
  961POPC   GL216454  41.011  39.493   9.164
  961POPC   C1A16455  40.818  39.046   8.742
  961POPC   D2A16456  40.660  39.239   8.336
  961POPC   C3A16457  40.727  38.992   7.938
  961POPC   C4A16458  40.912  38.909   7.525
  961POPC   C1B16459  40.813  39.551   8.780
  961POPC   C2B16460  40.952  39.674   8.372
  961POPC   C3B16461  40.951  39.528   7.966
  961POPC   C4B16462  40.596  39.487   7.687
  962POPC   NC316463  12.552  26.438   9.435
  962POPC   PO416464  12.966  25.938   9.484
  962POPC   GL116465  12.853  26.115   9.154
  962POPC   GL216466  12.517  25.979   9.208
  962POPC   C1A16467  12.996  26.108   8.748
  962POPC   D2A16468  13.061  25.783   8.418
  962POPC   C3A16469  12.976  26.001   8.050
  962POPC   C4A16470  12.974  26.225   7.683
  962POPC   C1B16471  12.437  26.160   8.806
  962POPC   C2B16472  12.578  26.049   8.400
  962POPC   C3B16473  12.513  26.231   8.003
  962POPC   C4B16474  12.477  26.454   7.644
  963POPC   NC316475  34.682  42.584   9.559
  963POPC   PO416476  34.397  43.174   9.398
  963POPC   GL116477  34.740  43.174   9.092
  963POPC   GL216478  34.919  42.857   9.116
  963POPC   C1A16479  34.884  43.229   8.660
  963POPC   D2A16480  34.899  42.959   8.285
  963POPC   C3A16481  34.810  43.167   7.920
  963POPC   C4A16482  34.435  43.138   7.693
  963POPC   C1B16483  34.823  42.715   8.714
  963POPC   C2B16484  34.432  42.764   8.494
  963POPC   C3B16485  34.321  42.784   8.079
  963POPC   C4B16486  34.215  42.692   7.667
  964POPC   NC316487  32.075  27.722   9.530
  964POPC   PO416488  32.627  27.406   9.601
  964POPC   GL116489  32.419  27.489   9.205
  964POPC   GL216490  32.489  27.846   9.063
  964POPC   C1A16491  32.179  27.495   8.821
  964POPC   D2A16492  32.390  27.470   8.429
  964POPC   C3A16493  32.132  27.412   8.084
  964POPC   C4A16494  32.371  27.422   7.721
  964POPC   C1B16495  32.097  28.004   8.835
  964POPC   C2B16496  32.011  27.836   8.398
  964POPC   C3B16497  32.254  27.902   7.999
  964POPC   C4B16498  32.076  27.853   7.614
  965POPC   NC316499  14.440  21.741   9.248
  965POPC   PO416500  14.030  21.344   9.573
  965POPC   GL116501  14.127  21.327   9.120
  965POPC   GL216502  14.441  21.216   8.984
  965POPC   C1A16503  14.060  21.451   8.672
  965POPC   D2A16504  14.240  21.741   8.342
  965POPC   C3A16505  14.268  21.562   7.920
  965POPC   C4A16506  14.187  21.197   7.649
  965POPC   C1B16507  14.574  21.495   8.662
  965POPC   C2B16508  14.669  21.455   8.244
  965POPC   C3B16509  14.886  21.571   7.890
  965POPC   C4B16510  14.690  21.435   7.554
  966POPC   NC316511  33.545   8.570   9.609
  966POPC   PO416512  33.675   9.184   9.573
  966POPC   GL116513  33.673   8.914   9.180
  966POPC   GL216514  33.981   8.729   9.084
  966POPC   C1A16515  33.735   9.016   8.720
  966POPC   D2A16516  33.872   8.750   8.349
  966POPC   C3A16517  33.874   8.988   8.008
  966POPC   C4A16518  33.540   9.122   7.722
  966POPC   C1B16519  34.222   8.821   8.705
  966POPC   C2B16520  34.353   8.592   8.295
  966POPC   C3B16521  34.128   8.437   7.931
  966POPC   C4B16522  34.077   8.517   7.472
  967POPC   NC316523  31.417  27.015   9.270
  967POPC   PO416524  31.638  27.554   9.579
  967POPC   GL116525  31.746  27.489   9.163
  967POPC   GL216526  31.889  27.165   9.126
  967POPC   C1A16527  31.684  27.702   8.781
  967POPC   D2A16528  31.457  27.896   8.463
  967POPC   C3A16529  31.316  27.680   8.085
  967POPC   C4A16530  31.732  27.716   7.938
  967POPC   C1B16531  31.724  27.195   8.712
  967POPC   C2B16532  31.670  27.393   8.343
  967POPC   C3B16533  31.597  27.227   7.943
  967POPC   C4B16534  31.891  27.331   7.618
  968POPC   NC316535  27.565   3.348   9.890
  968POPC   PO416536  28.045   3.340   9.396
  968POPC   GL116537  27.770   3.542   9.096
  968POPC   GL216538  27.414   3.476   9.175
  968POPC   C1A16539  27.755   3.608   8.661
  968POPC   D2A16540  27.932   3.356   8.377
  968POPC   C3A16541  27.825   3.436   7.956
  968POPC   C4A16542  27.626   3.832   7.885
  968POPC   C1B16543  27.288   3.420   8.726
  968POPC   C2B16544  27.401   3.485   8.265
  968POPC   C3B16545  27.306   3.427   7.810
  968POPC   C4B16546  27.335   3.267   7.377
  969POPC   NC316547   2.124  15.943   9.705
  969POPC   PO416548   1.541  15.961   9.424
  969POPC   GL116549   1.801  16.015   9.138
  969POPC   GL216550   2.026  15.754   9.159
  969POPC   C1A16551   1.801  16.011   8.729
  969POPC   D2A16552   2.131  16.055   8.467
  969POPC   C3A16553   2.121  16.152   8.044
  969POPC   C4A16554   1.789  16.021   7.785
  969POPC   C1B16555   2.109  15.596   8.723
  969POPC   C2B16556   2.396  15.496   8.391
  969POPC   C3B16557   2.315  15.659   7.961
  969POPC   C4B16558   1.933  15.489   7.820
  970POPC   NC316559  39.359  28.772   9.485
  970POPC   PO416560  39.020  28.231   9.677
  970POPC   GL116561  39.067  28.379   9.252
  970POPC   GL216562  39.326  28.142   9.138
  970POPC   C1A16563  39.146  28.532   8.817
  970POPC   D2A16564  39.314  28.344   8.442
  970POPC   C3A16565  39.284  28.585   8.066
  970POPC   C4A16566  39.388  28.423   7.691
  970POPC   C1B16567  38.962  28.046   8.869
  970POPC   C2B16568  38.816  28.233   8.520
  970POPC   C3B16569  38.933  28.198   8.095
  970POPC   C4B16570  38.869  28.447   7.751
  971POPC   NC316571  44.533  23.961   9.506
  971POPC   PO416572   0.075  23.536   9.487
  971POPC   GL116573  44.792  23.641   9.129
  971POPC   GL216574  44.461  23.717   9.091
  971POPC   C1A16575  44.646  23.470   8.705
  971POPC   D2A16576  44.884  23.467   8.351
  971POPC   C3A16577  44.752  23.502   7.926
  971POPC   C4A16578  44.337  23.413   7.757
  971POPC   C1B16579  44.552  23.972   8.719
  971POPC   C2B16580  44.604  23.896   8.259
  971POPC   C3B16581  44.446  23.926   7.843
  971POPC   C4B16582  44.641  24.015   7.439
  972POPC   NC316583  10.503  16.944   9.530
  972POPC   PO416584  10.572  16.244   9.345
  972POPC   GL116585  10.452  16.594   9.148
  972POPC   GL216586  10.155  16.617   9.292
  972POPC   C1A16587  10.561  16.783   8.796
  972POPC   D2A16588  10.736  16.594   8.465
  972POPC   C3A16589  10.555  16.739   8.100
  972POPC   C4A16590  10.827  16.741   7.774
  972POPC   C1B16591  10.116  16.988   8.982
  972POPC   C2B16592  10.224  17.093   8.550
  972POPC   C3B16593  10.106  17.078   8.119
  972POPC   C4B16594  10.283  16.969   7.727
  973POPC   NC316595  42.236  23.406   9.507
  973POPC   PO416596  42.486  24.019   9.483
  973POPC   GL116597  42.267  23.804   9.168
  973POPC   GL216598  41.958  23.963   9.139
  973POPC   C1A16599  42.416  23.514   8.853
  973POPC   D2A16600  42.532  23.423   8.441
  973POPC   C3A16601  42.351  23.656   8.098
  973POPC   C4A16602  42.494  23.721   7.686
  973POPC   C1B16603  42.073  23.910   8.685
  973POPC   C2B16604  42.008  24.026   8.248
  973POPC   C3B16605  42.184  24.113   7.852
  973POPC   C4B16606  42.245  24.063   7.410
  974POPC   NC316607   1.367  35.009   9.426
  974POPC   PO416608   0.735  34.848   9.480
  974POPC   GL116609   1.040  34.739   9.114
  974POPC   GL216610   1.405  34.598   9.109
  974POPC   C1A16611   1.180  34.810   8.685
  974POPC   D2A16612   1.360  34.991   8.311
  974POPC   C3A16613   1.148  34.879   7.934
  974POPC   C4A16614   0.933  34.879   7.530
  974POPC   C1B16615   1.407  34.355   8.716
  974POPC   C2B16616   1.336  34.473   8.269
  974POPC   C3B16617   1.179  34.358   7.841
  974POPC   C4B16618   1.082  34.367   7.372
  975POPC   NC316619  13.982  15.045   9.716
  975POPC   PO416620  13.355  15.321   9.796
  975POPC   GL116621  13.509  15.288   9.331
  975POPC   GL216622  13.751  15.013   9.259
  975POPC   C1A16623  13.487  15.265   8.883
  975POPC   D2A16624  13.732  15.198   8.496
  975POPC   C3A16625  13.516  15.287   8.095
  975POPC   C4A16626  13.543  15.347   7.631
  975POPC   C1B16627  13.715  14.810   8.841
  975POPC   C2B16628  13.900  14.695   8.455
  975POPC   C3B16629  13.677  14.794   8.092
  975POPC   C4B16630  13.819  14.898   7.679
  976POPC   NC316631  36.522  42.391   9.485
  976POPC   PO416632  37.172  42.191   9.414
  976POPC   GL116633  36.917  42.295   9.076
  976POPC   GL216634  36.723  42.579   9.062
  976POPC   C1A16635  36.936  42.205   8.640
  976POPC   D2A16636  37.142  42.092   8.231
  976POPC   C3A16637  36.847  42.171   7.883
  976POPC   C4A16638  36.635  42.516   7.662
  976POPC   C1B16639  36.646  42.653   8.640
  976POPC   C2B16640  36.812  42.543   8.250
  976POPC   C3B16641  37.029  42.695   7.911
  976POPC   C4B16642  37.138  42.699   7.469
  977POPC   NC316643  38.340  40.720   9.673
  977POPC   PO416644  38.317  41.324   9.484
  977POPC   GL116645  38.370  40.910   9.219
  977POPC   GL216646  38.138  40.599   9.199
  977POPC   C1A16647  38.612  40.744   8.891
  977POPC   D2A16648  38.482  40.883   8.485
  977POPC   C3A16649  38.583  40.704   8.095
  977POPC   C4A16650  38.481  40.849   7.694
  977POPC   C1B16651  38.084  40.748   8.776
  977POPC   C2B16652  38.078  40.602   8.320
  977POPC   C3B16653  38.064  40.634   7.849
  977POPC   C4B16654  38.052  40.919   7.426
  978POPC   NC316655  30.876  39.596   9.513
  978POPC   PO416656  30.710  40.306   9.470
  978POPC   GL116657  30.869  40.005   9.177
  978POPC   GL216658  30.648  40.198   8.950
  978POPC   C1A16659  30.954  39.854   8.734
  978POPC   D2A16660  30.610  39.910   8.431
  978POPC   C3A16661  30.686  39.931   7.976
  978POPC   C4A16662  30.558  39.850   7.528
  978POPC   C1B16663  30.437  40.432   8.642
  978POPC   C2B16664  30.420  40.354   8.229
  978POPC   C3B16665  30.244  40.181   7.868
  978POPC   C4B16666  30.498  40.341   7.553
  979POPC   NC316667  14.162  17.165   9.596
  979POPC   PO416668  14.434  16.599   9.484
  979POPC   GL116669  14.550  16.867   9.156
  979POPC   GL216670  14.494  17.247   9.140
  979POPC   C1A16671  14.734  16.698   8.788
  979POPC   D2A16672  14.607  16.364   8.572
  979POPC   C3A16673  14.585  16.439   8.136
  979POPC   C4A16674  14.418  16.599   7.760
  979POPC   C1B16675  14.356  17.056   8.728
  979POPC   C2B16676  14.378  16.905   8.288
  979POPC   C3B16677  14.419  17.098   7.876
  979POPC   C4B16678  14.507  17.025   7.432
  980POPC   NC316679  10.921  32.540   9.575
  980POPC   PO416680  11.083  33.160   9.417
  980POPC   GL116681  11.026  32.953   9.062
  980POPC   GL216682  10.813  32.618   9.079
  980POPC   C1A16683  11.128  33.147   8.653
  980POPC   D2A16684  11.441  33.297   8.357
  980POPC   C3A16685  11.416  33.214   7.896
  980POPC   C4A16686  11.435  33.269   7.435
  980POPC   C1B16687  11.026  32.645   8.671
  980POPC   C2B16688  11.227  32.799   8.281
  980POPC   C3B16689  11.504  32.695   7.945
  980POPC   C4B16690  11.413  32.781   7.541
  981POPC   NC316691  38.195  19.036   9.375
  981POPC   PO416692  37.545  18.973   9.453
  981POPC   GL116693  37.731  19.065   9.091
  981POPC   GL216694  37.792  18.679   9.091
  981POPC   C1A16695  37.791  19.334   8.683
  981POPC   D2A16696  37.491  19.302   8.300
  981POPC   C3A16697  37.718  19.289   7.939
  981POPC   C4A16698  38.145  19.363   8.012
  981POPC   C1B16699  37.799  18.824   8.666
  981POPC   C2B16700  37.889  18.945   8.275
  981POPC   C3B16701  37.738  18.789   7.890
  981POPC   C4B16702  37.590  18.650   7.510
  982POPC   NC316703  37.230  25.337   9.368
  982POPC   PO416704  36.556  25.195   9.413
  982POPC   GL116705  36.623  25.334   9.016
  982POPC   GL216706  36.882  25.599   9.054
  982POPC   C1A16707  36.949  25.215   8.697
  982POPC   D2A16708  37.304  25.254   8.378
  982POPC   C3A16709  37.108  25.231   7.976
  982POPC   C4A16710  36.688  25.070   7.876
  982POPC   C1B16711  37.151  25.702   8.662
  982POPC   C2B16712  37.294  25.756   8.183
  982POPC   C3B16713  37.131  25.658   7.716
  982POPC   C4B16714  37.137  25.472   7.268
  983POPC   NC316715  25.922   0.909   9.369
  983POPC   PO416716  26.407   1.253   9.823
  983POPC   GL116717  26.339   1.341   9.323
  983POPC   GL216718  25.979   1.411   9.223
  983POPC   C1A16719  26.239   1.171   8.856
  983POPC   D2A16720  26.173   0.935   8.444
  983POPC   C3A16721  26.296   1.100   8.036
  983POPC   C4A16722  26.317   1.347   7.636
  983POPC   C1B16723  25.778   1.426   8.789
  983POPC   C2B16724  25.658   1.609   8.404
  983POPC   C3B16725  25.861   1.740   8.049
  983POPC   C4B16726  25.812   1.538   7.684
  984POPC   NC316727  14.027  25.124   9.437
  984POPC   PO416728  13.547  25.590   9.484
  984POPC   GL116729  13.703  25.395   9.126
  984POPC   GL216730  13.612  25.048   9.073
  984POPC   C1A16731  13.759  25.415   8.702
  984POPC   D2A16732  13.656  25.678   8.389
  984POPC   C3A16733  13.776  25.465   8.094
  984POPC   C4A16734  14.049  25.313   7.841
  984POPC   C1B16735  13.616  24.869   8.626
  984POPC   C2B16736  13.687  24.963   8.178
  984POPC   C3B16737  13.506  25.137   7.810
  984POPC   C4B16738  13.041  25.095   7.717
  985POPC   NC316739   2.444  13.520   9.565
  985POPC   PO416740   3.090  13.374   9.500
  985POPC   GL116741   3.034  13.574   9.091
  985POPC   GL216742   2.681  13.690   9.115
  985POPC   C1A16743   2.968  13.708   8.645
  985POPC   D2A16744   2.655  13.583   8.344
  985POPC   C3A16745   2.610  13.358   7.976
  985POPC   C4A16746   2.741  13.415   7.592
  985POPC   C1B16747   2.582  14.004   8.806
  985POPC   C2B16748   2.495  14.050   8.361
  985POPC   C3B16749   2.659  13.923   7.953
  985POPC   C4B16750   2.638  14.182   7.615
  986POPC   NC316751  21.864  33.967   9.346
  986POPC   PO416752  22.299  33.473   9.382
  986POPC   GL116753  22.382  33.853   9.087
  986POPC   GL216754  22.094  34.021   8.913
  986POPC   C1A16755  22.500  33.942   8.643
  986POPC   D2A16756  22.314  34.052   8.246
  986POPC   C3A16757  22.386  33.751   7.935
  986POPC   C4A16758  22.452  33.586   7.530
  986POPC   C1B16759  22.109  33.598   8.732
  986POPC   C2B16760  21.976  33.572   8.313
  986POPC   C3B16761  21.871  33.902   8.028
  986POPC   C4B16762  21.689  33.874   7.645
  987POPC   NC316763  29.340  40.029   9.513
  987POPC   PO416764  28.725  40.298   9.534
  987POPC   GL116765  29.043  40.383   9.181
  987POPC   GL216766  29.139  40.063   9.054
  987POPC   C1A16767  29.159  40.404   8.712
  987POPC   D2A16768  29.082  40.100   8.359
  987POPC   C3A16769  29.259  40.055   7.919
  987POPC   C4A16770  29.322  40.370   7.564
  987POPC   C1B16771  29.306  39.792   8.709
  987POPC   C2B16772  29.571  39.575   8.409
  987POPC   C3B16773  29.455  39.395   8.019
  987POPC   C4B16774  29.435  39.564   7.619
  988POPC   NC316775  17.327   5.749   9.526
  988POPC   PO416776  17.757   6.199   9.383
  988POPC   GL116777  17.559   5.989   9.064
  988POPC   GL216778  17.266   6.109   9.098
  988POPC   C1A16779  17.619   5.909   8.620
  988POPC   D2A16780  17.448   5.896   8.217
  988POPC   C3A16781  17.632   5.639   7.910
  988POPC   C4A16782  17.997   5.701   7.610
  988POPC   C1B16783  17.118   5.986   8.687
  988POPC   C2B16784  17.184   6.308   8.362
  988POPC   C3B16785  17.293   6.325   7.975
  988POPC   C4B16786  17.212   5.965   7.755
  989POPC   NC316787  24.502  14.887   9.465
  989POPC   PO416788  24.632  14.195   9.486
  989POPC   GL116789  24.653  14.439   9.104
  989POPC   GL216790  24.805  14.753   9.088
  989POPC   C1A16791  24.652  14.527   8.663
  989POPC   D2A16792  24.574  14.276   8.318
  989POPC   C3A16793  24.253  14.491   8.083
  989POPC   C4A16794  24.164  14.564   7.660
  989POPC   C1B16795  24.846  15.022   8.731
  989POPC   C2B16796  24.730  14.939   8.338
  989POPC   C3B16797  24.737  14.653   8.034
  989POPC   C4B16798  24.660  14.629   7.609
  990POPC   NC316799  38.698  36.128   9.558
  990POPC   PO416800  38.082  35.913   9.522
  990POPC   GL116801  38.406  35.894   9.189
  990POPC   GL216802  38.378  36.266   9.126
  990POPC   C1A16803  38.687  36.000   8.825
  990POPC   D2A16804  38.666  36.324   8.495
  990POPC   C3A16805  38.728  36.194   8.058
  990POPC   C4A16806  38.425  36.007   7.794
  990POPC   C1B16807  38.066  36.410   8.813
  990POPC   C2B16808  37.938  36.302   8.421
  990POPC   C3B16809  38.153  36.365   8.045
  990POPC   C4B16810  38.251  36.472   7.607
  991POPC   NC316811  27.862  28.265   9.619
  991POPC   PO416812  27.286  28.678   9.690
  991POPC   GL116813  27.533  28.583   9.307
  991POPC   GL216814  27.538  28.232   9.159
  991POPC   C1A16815  27.637  28.605   8.845
  991POPC   D2A16816  27.577  28.515   8.412
  991POPC   C3A16817  27.659  28.737   8.042
  991POPC   C4A16818  27.490  28.841   7.651
  991POPC   C1B16819  27.849  28.148   8.788
  991POPC   C2B16820  27.887  28.120   8.324
  991POPC   C3B16821  27.778  28.252   7.911
  991POPC   C4B16822  27.631  27.907   7.665
  992POPC   NC316823  20.108  23.111   9.499
  992POPC   PO416824  19.386  23.066   9.377
  992POPC   GL116825  19.758  23.064   9.132
  992POPC   GL216826  19.940  22.717   9.113
  992POPC   C1A16827  19.973  23.093   8.755
  992POPC   D2A16828  19.828  22.929   8.382
  992POPC   C3A16829  20.049  23.055   8.040
  992POPC   C4A16830  20.296  22.809   7.834
  992POPC   C1B16831  19.574  22.712   8.778
  992POPC   C2B16832  19.351  22.761   8.357
  992POPC   C3B16833  19.510  23.013   7.982
  992POPC   C4B16834  19.790  23.074   7.604
  993POPC   NC316835  23.781  11.631   9.436
  993POPC   PO416836  23.980  10.879   9.473
  993POPC   GL116837  24.065  11.047   9.105
  993POPC   GL216838  24.113  11.357   9.159
  993POPC   C1A16839  23.897  11.070   8.716
  993POPC   D2A16840  23.688  10.988   8.355
  993POPC   C3A16841  23.775  11.304   8.058
  993POPC   C4A16842  23.437  11.362   7.832
  993POPC   C1B16843  23.925  11.565   8.816
  993POPC   C2B16844  23.971  11.645   8.406
  993POPC   C3B16845  24.042  11.841   8.027
  993POPC   C4B16846  23.790  11.701   7.707
  994POPC   NC316847  24.705  42.318   9.404
  994POPC   PO416848  24.173  41.937   9.324
  994POPC   GL116849  24.402  42.190   9.017
  994POPC   GL216850  24.303  42.576   9.026
  994POPC   C1A16851  24.563  42.270   8.599
  994POPC   D2A16852  24.587  42.662   8.359
  994POPC   C3A16853  24.728  42.574   7.955
  994POPC   C4A16854  24.512  42.315   7.654
  994POPC   C1B16855  23.993  42.320   8.764
  994POPC   C2B16856  24.123  42.006   8.458
  994POPC   C3B16857  24.212  42.169   8.054
  994POPC   C4B16858  24.196  42.615   7.898
  995POPC   NC316859   3.212   7.899   9.276
  995POPC   PO416860   3.717   8.379   9.441
  995POPC   GL116861   3.686   8.446   9.043
  995POPC   GL216862   3.321   8.359   9.063
  995POPC   C1A16863   3.572   8.578   8.651
  995POPC   D2A16864   3.335   8.423   8.327
  995POPC   C3A16865   3.581   8.586   8.010
  995POPC   C4A16866   3.872   8.382   7.811
  995POPC   C1B16867   3.073   8.166   8.708
  995POPC   C2B16868   3.154   7.907   8.352
  995POPC   C3B16869   3.307   8.018   7.960
  995POPC   C4B16870   3.154   8.401   7.816
  996POPC   NC316871  18.174  29.360   9.146
  996POPC   PO416872  18.604  29.693   9.422
  996POPC   GL116873  18.566  29.935   9.041
  996POPC   GL216874  18.645  30.303   9.035
  996POPC   C1A16875  18.434  29.745   8.656
  996POPC   D2A16876  18.054  29.696   8.402
  996POPC   C3A16877  18.134  29.650   7.950
  996POPC   C4A16878  18.543  29.560   7.776
  996POPC   C1B16879  18.459  30.248   8.594
  996POPC   C2B16880  18.431  29.997   8.195
  996POPC   C3B16881  18.443  30.057   7.749
  996POPC   C4B16882  18.178  30.357   7.494
  997POPC   NC316883   5.562  12.768   9.640
  997POPC   PO416884   6.178  12.678   9.729
  997POPC   GL116885   5.881  12.594   9.285
  997POPC   GL216886   5.546  12.518   9.152
  997POPC   C1A16887   5.841  12.820   8.845
  997POPC   D2A16888   6.065  12.793   8.455
  997POPC   C3A16889   6.190  13.060   8.136
  997POPC   C4A16890   6.128  12.951   7.710
  997POPC   C1B16891   5.604  12.422   8.679
  997POPC   C2B16892   5.590  12.727   8.314
  997POPC   C3B16893   5.707  12.697   7.868
  997POPC   C4B16894   5.677  12.501   7.418
  998POPC   NC316895  24.669  26.273   9.428
  998POPC   PO416896  24.215  25.902   9.682
  998POPC   GL116897  24.306  26.068   9.205
  998POPC   GL216898  24.572  25.789   9.216
  998POPC   C1A16899  24.233  26.273   8.813
  998POPC   D2A16900  24.273  26.622   8.485
  998POPC   C3A16901  24.433  26.440   8.078
  998POPC   C4A16902  24.370  26.238   7.702
  998POPC   C1B16903  24.561  25.833   8.787
  998POPC   C2B16904  24.535  26.083   8.438
  998POPC   C3B16905  24.556  25.917   8.045
  998POPC   C4B16906  24.422  25.725   7.673
  999POPC   NC316907  38.997  42.701   9.505
  999POPC   PO416908  39.005  43.521   9.524
  999POPC   GL116909  39.233  43.206   9.231
  999POPC   GL216910  39.112  42.894   9.065
  999POPC   C1A16911  39.429  43.205   8.824
  999POPC   D2A16912  39.307  43.324   8.439
  999POPC   C3A16913  39.431  43.129   8.083
  999POPC   C4A16914  39.383  43.236   7.677
  999POPC   C1B16915  38.893  42.777   8.755
  999POPC   C2B16916  39.102  42.814   8.386
  999POPC   C3B16917  39.083  42.632   8.015
  999POPC   C4B16918  39.365  42.737   7.708
 1000POPC   NC316919  19.327   3.755   9.835
 1000POPC   PO416920  18.734   3.673   9.546
 1000POPC   GL116921  18.957   3.788   9.233
 1000POPC   GL216922  19.160   3.484   9.291
 1000POPC   C1A16923  18.960   3.892   8.792
 1000POPC   D2A16924  18.750   3.684   8.485
 1000POPC   C3A16925  18.933   3.661   8.104
 1000POPC   C4A16926  18.808   3.589   7.719
 1000POPC   C1B16927  18.997   3.402   8.877
 1000POPC   C2B16928  19.211   3.436   8.495
 1000POPC   C3B16929  19.366   3.340   8.084
 1000POPC   C4B16930  19.314   3.548   7.723
 1001POPC   NC316931  39.496  27.033   9.227
 1001POPC   PO416932  39.873  26.609   9.540
 1001POPC   GL116933  40.074  26.812   9.184
 1001POPC   GL216934  39.797  26.709   8.969
 1001POPC   C1A16935  40.134  26.999   8.746
 1001POPC   D2A16936  40.113  26.752   8.388
 1001POPC   C3A16937  40.263  26.968   8.024
 1001POPC   C4A16938  40.084  26.833   7.679
 1001POPC   C1B16939  39.616  26.903   8.593
 1001POPC   C2B16940  39.619  26.794   8.179
 1001POPC   C3B16941  39.616  26.960   7.812
 1001POPC   C4B16942  39.615  26.726   7.436
 1002POPC   NC316943   1.857  39.112   9.572
 1002POPC   PO416944   2.246  39.594   9.883
 1002POPC   GL116945   2.262  39.525   9.395
 1002POPC   GL216946   1.933  39.508   9.262
 1002POPC   C1A16947   2.267  39.444   8.890
 1002POPC   D2A16948   2.225  39.499   8.418
 1002POPC   C3A16949   2.146  39.198   8.051
 1002POPC   C4A16950   2.279  39.260   7.621
 1002POPC   C1B16951   1.587  39.466   8.948
 1002POPC   C2B16952   1.536  39.504   8.506
 1002POPC   C3B16953   1.777  39.541   8.132
 1002POPC   C4B16954   1.762  39.365   7.737
 1003POPC   NC316955  14.475   1.662   9.637
 1003POPC   PO416956  14.332   2.283   9.848
 1003POPC   GL116957  14.256   2.250   9.380
 1003POPC   GL216958  14.300   1.894   9.220
 1003POPC   C1A16959  14.306   2.302   8.920
 1003POPC   D2A16960  14.250   2.105   8.524
 1003POPC   C3A16961  14.482   2.207   8.143
 1003POPC   C4A16962  14.480   2.324   7.736
 1003POPC   C1B16963  14.665   1.944   8.907
 1003POPC   C2B16964  14.673   1.808   8.479
 1003POPC   C3B16965  14.530   1.723   8.076
 1003POPC   C4B16966  14.844   1.607   7.800
 1004POPC   NC316967  13.828  43.433   9.492
 1004POPC   PO416968  13.362  43.009   9.571
 1004POPC   GL116969  13.531  42.886   9.215
 1004POPC   GL216970  13.260  42.610   9.186
 1004POPC   C1A16971  13.651  43.156   8.873
 1004POPC   D2A16972  13.568  43.317   8.460
 1004POPC   C3A16973  13.767  43.217   8.103
 1004POPC   C4A16974  13.846  43.469   7.749
 1004POPC   C1B16975  13.355  42.750   8.780
 1004POPC   C2B16976  13.184  43.009   8.533
 1004POPC   C3B16977  13.256  43.073   8.118
 1004POPC   C4B16978  13.485  42.984   7.737
 1005POPC   NC316979   8.078  21.396   9.739
 1005POPC   PO416980   8.564  20.960   9.654
 1005POPC   GL116981   8.462  21.207   9.238
 1005POPC   GL216982   8.145  21.449   9.211
 1005POPC   C1A16983   8.448  21.248   8.767
 1005POPC   D2A16984   8.630  21.227   8.336
 1005POPC   C3A16985   8.402  21.123   7.967
 1005POPC   C4A16986   8.538  21.339   7.608
 1005POPC   C1B16987   8.103  21.629   8.775
 1005POPC   C2B16988   8.129  21.419   8.336
 1005POPC   C3B16989   8.125  21.577   7.912
 1005POPC   C4B16990   7.853  21.677   7.544
 1006POPC   NC316991  18.588  31.827   9.628
 1006POPC   PO416992  18.212  31.316   9.562
 1006POPC   GL116993  18.470  31.499   9.236
 1006POPC   GL216994  18.553  31.201   9.066
 1006POPC   C1A16995  18.656  31.664   8.825
 1006POPC   D2A16996  18.731  31.458   8.381
 1006POPC   C3A16997  18.460  31.366   7.984
 1006POPC   C4A16998  18.330  31.587   7.581
 1006POPC   C1B16999  18.273  31.363   8.698
 1006POPC   C2B17000  18.116  31.571   8.295
 1006POPC   C3B17001  17.943  31.432   7.883
 1006POPC   C4B17002  17.828  31.548   7.454
 1007POPC   NC317003  23.614  44.754   9.428
 1007POPC   PO417004  23.925  44.176   9.560
 1007POPC   GL117005  23.986  44.464   9.184
 1007POPC   GL217006  24.103  44.825   9.182
 1007POPC   C1A17007  23.744  44.606   8.803
 1007POPC   D2A17008  23.476  44.545   8.440
 1007POPC   C3A17009  23.499  44.863   8.135
 1007POPC   C4A17010  23.450  44.766   7.738
 1007POPC   C1B17011  24.207  44.772   8.736
 1007POPC   C2B17012  23.965  44.857   8.371
 1007POPC   C3B17013  23.968  44.699   7.969
 1007POPC   C4B17014  24.189  44.728   7.567
 1008POPC   NC317015  38.310  29.076   9.655
 1008POPC   PO417016  37.695  29.107   9.492
 1008POPC   GL117017  37.605  28.878   9.158
 1008POPC   GL217018  37.564  29.197   8.994
 1008POPC   C1A17019  37.507  28.743   8.767
 1008POPC   D2A17020  37.402  28.987   8.415
 1008POPC   C3A17021  37.449  28.767   8.037
 1008POPC   C4A17022  37.779  28.967   7.913
 1008POPC   C1B17023  37.711  29.362   8.610
 1008POPC   C2B17024  38.093  29.380   8.378
 1008POPC   C3B17025  38.147  29.332   7.950
 1008POPC   C4B17026  38.235  29.574   7.624
 1009POPC   NC317027  24.836  27.651   9.768
 1009POPC   PO417028  25.294  27.802   9.377
 1009POPC   GL117029  25.209  27.638   9.043
 1009POPC   GL217030  25.458  27.365   9.122
 1009POPC   C1A17031  25.158  27.881   8.674
 1009POPC   D2A17032  24.916  28.000   8.324
 1009POPC   C3A17033  25.174  27.845   7.986
 1009POPC   C4A17034  25.285  27.459   7.739
 1009POPC   C1B17035  25.573  27.519   8.713
 1009POPC   C2B17036  25.456  27.550   8.311
 1009POPC   C3B17037  25.720  27.494   8.000
 1009POPC   C4B17038  25.775  27.336   7.618
 1010POPC   NC317039   9.663  23.504   9.274
 1010POPC   PO417040   9.909  24.037   9.613
 1010POPC   GL117041   9.964  23.950   9.206
 1010POPC   GL217042   9.617  24.004   9.162
 1010POPC   C1A17043   9.920  23.804   8.778
 1010POPC   D2A17044  10.095  23.796   8.393
 1010POPC   C3A17045   9.884  23.754   8.026
 1010POPC   C4A17046  10.145  23.902   7.761
 1010POPC   C1B17047   9.500  24.146   8.793
 1010POPC   C2B17048   9.640  24.019   8.406
 1010POPC   C3B17049   9.629  24.194   8.008
 1010POPC   C4B17050   9.499  23.976   7.701
 1011POPC   NC317051   9.426  19.646   9.634
 1011POPC   PO417052  10.028  20.078   9.505
 1011POPC   GL117053   9.920  19.925   9.160
 1011POPC   GL217054   9.577  19.927   9.209
 1011POPC   C1A17055  10.016  19.906   8.767
 1011POPC   D2A17056   9.786  19.762   8.454
 1011POPC   C3A17057   9.969  19.664   8.087
 1011POPC   C4A17058   9.759  19.919   7.790
 1011POPC   C1B17059   9.494  19.632   8.868
 1011POPC   C2B17060   9.286  19.586   8.444
 1011POPC   C3B17061   9.479  19.531   8.054
 1011POPC   C4B17062   9.473  19.476   7.640
 1012POPC   NC317063  11.782  14.645   9.542
 1012POPC   PO417064  12.282  14.217   9.530
 1012POPC   GL117065  12.238  14.075   9.137
 1012POPC   GL217066  11.872  14.154   9.133
 1012POPC   C1A17067  12.326  14.273   8.745
 1012POPC   D2A17068  12.245  14.664   8.497
 1012POPC   C3A17069  12.136  14.605   8.044
 1012POPC   C4A17070  12.320  14.235   7.852
 1012POPC   C1B17071  11.840  14.394   8.780
 1012POPC   C2B17072  11.955  14.254   8.374
 1012POPC   C3B17073  11.739  14.293   7.993
 1012POPC   C4B17074  11.889  14.223   7.606
 1013POPC   NC317075   6.290  18.811   9.330
 1013POPC   PO417076   5.863  19.296   9.572
 1013POPC   GL117077   5.955  19.186   9.159
 1013POPC   GL217078   5.898  18.840   9.007
 1013POPC   C1A17079   6.204  19.189   8.780
 1013POPC   D2A17080   6.089  18.865   8.482
 1013POPC   C3A17081   5.897  19.095   8.141
 1013POPC   C4A17082   6.015  19.244   7.721
 1013POPC   C1B17083   5.690  19.171   8.703
 1013POPC   C2B17084   5.442  19.304   8.316
 1013POPC   C3B17085   5.403  19.137   7.901
 1013POPC   C4B17086   5.717  18.836   7.744
 1014POPC   NC317087  35.127  26.431   9.587
 1014POPC   PO417088  35.279  27.063   9.746
 1014POPC   GL117089  35.212  26.868   9.287
 1014POPC   GL217090  35.447  27.055   9.053
 1014POPC   C1A17091  35.052  26.833   8.853
 1014POPC   D2A17092  35.174  26.897   8.451
 1014POPC   C3A17093  35.007  26.735   8.068
 1014POPC   C4A17094  35.018  27.046   7.718
 1014POPC   C1B17095  35.533  26.688   8.756
 1014POPC   C2B17096  35.491  26.530   8.290
 1014POPC   C3B17097  35.663  26.594   7.849
 1014POPC   C4B17098  35.421  26.702   7.422
 1015POPC   NC317099  29.032   6.331   9.581
 1015POPC   PO417100  29.350   6.861   9.295
 1015POPC   GL117101  29.011   6.630   9.145
 1015POPC   GL217102  29.067   6.310   9.070
 1015POPC   C1A17103  28.904   6.782   8.758
 1015POPC   D2A17104  29.162   6.886   8.422
 1015POPC   C3A17105  28.923   6.818   8.070
 1015POPC   C4A17106  28.937   6.656   7.676
 1015POPC   C1B17107  29.350   6.518   8.754
 1015POPC   C2B17108  29.518   6.517   8.350
 1015POPC   C3B17109  29.442   6.687   7.972
 1015POPC   C4B17110  29.405   6.423   7.600
 1016POPC   NC317111   8.433  18.048   9.543
 1016POPC   PO417112   9.093  18.360   9.534
 1016POPC   GL117113   8.990  18.496   9.152
 1016POPC   GL217114   8.667  18.380   9.178
 1016POPC   C1A17115   8.962  18.266   8.765
 1016POPC   D2A17116   8.888  17.958   8.445
 1016POPC   C3A17117   8.950  18.116   8.066
 1016POPC   C4A17118   9.105  18.009   7.643
 1016POPC   C1B17119   8.502  18.549   8.831
 1016POPC   C2B17120   8.568  18.339   8.455
 1016POPC   C3B17121   8.554  18.455   8.031
 1016POPC   C4B17122   8.793  18.387   7.667
 1017POPC   NC317123   6.873  30.773   9.772
 1017POPC   PO417124   6.254  30.741   9.692
 1017POPC   GL117125   6.596  30.737   9.336
 1017POPC   GL217126   6.777  30.428   9.399
 1017POPC   C1A17127   6.652  30.899   8.887
 1017POPC   D2A17128   6.395  30.796   8.515
 1017POPC   C3A17129   6.383  30.901   8.089
 1017POPC   C4A17130   6.433  30.705   7.720
 1017POPC   C1B17131   6.894  30.436   8.992
 1017POPC   C2B17132   6.871  30.552   8.566
 1017POPC   C3B17133   6.823  30.614   8.140
 1017POPC   C4B17134   7.050  30.399   7.833
 1018POPC   NC317135  10.298  11.600   9.444
 1018POPC   PO417136   9.675  11.413   9.577
 1018POPC   GL117137   9.716  11.458   9.143
 1018POPC   GL217138   9.908  11.748   9.148
 1018POPC   C1A17139   9.486  11.336   8.737
 1018POPC   D2A17140   9.406  11.198   8.302
 1018POPC   C3A17141   9.760  11.233   7.993
 1018POPC   C4A17142  10.091  10.916   7.886
 1018POPC   C1B17143   9.932  11.632   8.725
 1018POPC   C2B17144   9.849  11.620   8.318
 1018POPC   C3B17145  10.047  11.709   7.959
 1018POPC   C4B17146  10.074  11.871   7.559
 1019POPC   NC317147  41.602   2.988   9.555
 1019POPC   PO417148  41.360   2.348   9.749
 1019POPC   GL117149  41.384   2.573   9.321
 1019POPC   GL217150  41.707   2.556   9.181
 1019POPC   C1A17151  41.401   2.864   8.917
 1019POPC   D2A17152  41.502   3.017   8.503
 1019POPC   C3A17153  41.291   2.883   8.135
 1019POPC   C4A17154  41.238   2.953   7.722
 1019POPC   C1B17155  41.545   2.392   8.775
 1019POPC   C2B17156  41.586   2.518   8.329
 1019POPC   C3B17157  41.574   2.559   7.850
 1019POPC   C4B17158  41.688   2.394   7.443
 1020POPC   NC317159  36.763  20.818   9.480
 1020POPC   PO417160  37.368  20.607   9.275
 1020POPC   GL117161  36.963  20.475   9.137
 1020POPC   GL217162  36.925  20.824   8.990
 1020POPC   C1A17163  36.643  20.367   8.818
 1020POPC   D2A17164  36.555  20.672   8.501
 1020POPC   C3A17165  36.791  20.678   8.137
 1020POPC   C4A17166  36.793  20.739   7.717
 1020POPC   C1B17167  37.067  20.584   8.642
 1020POPC   C2B17168  37.140  20.356   8.311
 1020POPC   C3B17169  37.247  20.514   7.943
 1020POPC   C4B17170  37.170  20.405   7.546
 1021POPC   NC317171  33.161  23.021   9.743
 1021POPC   PO417172  32.663  22.585   9.743
 1021POPC   GL117173  32.947  22.591   9.372
 1021POPC   GL217174  32.938  22.956   9.236
 1021POPC   C1A17175  32.900  22.560   8.915
 1021POPC   D2A17176  32.950  22.829   8.582
 1021POPC   C3A17177  32.869  22.840   8.166
 1021POPC   C4A17178  33.116  23.009   7.837
 1021POPC   C1B17179  32.637  23.106   8.882
 1021POPC   C2B17180  32.627  23.250   8.419
 1021POPC   C3B17181  32.764  23.362   7.971
 1021POPC   C4B17182  32.587  23.390   7.535
 1022POPC   NC317183   7.626   5.784   9.433
 1022POPC   PO417184   7.266   6.353   9.491
 1022POPC   GL117185   7.388   6.110   9.114
 1022POPC   GL217186   7.273   5.740   9.060
 1022POPC   C1A17187   7.661   6.080   8.746
 1022POPC   D2A17188   7.426   5.954   8.376
 1022POPC   C3A17189   7.299   6.181   8.001
 1022POPC   C4A17190   6.995   5.963   7.724
 1022POPC   C1B17191   7.550   5.573   8.733
 1022POPC   C2B17192   7.561   5.469   8.286
 1022POPC   C3B17193   7.567   5.753   7.909
 1022POPC   C4B17194   7.746   5.655   7.492
 1023POPC   NC317195  19.245  24.403   9.447
 1023POPC   PO417196  18.763  24.866   9.418
 1023POPC   GL117197  18.921  24.793   9.011
 1023POPC   GL217198  19.295  24.798   8.964
 1023POPC   C1A17199  18.991  24.687   8.573
 1023POPC   D2A17200  19.186  24.611   8.242
 1023POPC   C3A17201  18.900  24.472   7.979
 1023POPC   C4A17202  18.874  24.666   7.613
 1023POPC   C1B17203  19.348  24.383   8.773
 1023POPC   C2B17204  19.517  24.265   8.388
 1023POPC   C3B17205  19.326  24.178   7.996
 1023POPC   C4B17206  19.205  24.295   7.568
 1024POPC   NC317207  32.231  31.775   9.610
 1024POPC   PO417208  31.858  31.273   9.564
 1024POPC   GL117209  32.079  31.452   9.178
 1024POPC   GL217210  32.184  31.794   9.096
 1024POPC   C1A17211  32.213  31.412   8.744
 1024POPC   D2A17212  31.932  31.374   8.384
 1024POPC   C3A17213  32.061  31.597   8.032
 1024POPC   C4A17214  32.345  31.427   7.734
 1024POPC   C1B17215  32.289  31.930   8.706
 1024POPC   C2B17216  32.499  31.761   8.370
 1024POPC   C3B17217  32.666  32.025   8.063
 1024POPC   C4B17218  32.411  32.057   7.688
 1025POPC   NC317219  43.293  27.300   9.459
 1025POPC   PO417220  43.039  27.961   9.567
 1025POPC   GL117221  43.054  27.807   9.128
 1025POPC   GL217222  43.064  27.472   9.059
 1025POPC   C1A17223  43.038  27.909   8.704
 1025POPC   D2A17224  43.288  27.780   8.373
 1025POPC   C3A17225  43.128  27.445   8.145
 1025POPC   C4A17226  43.170  27.388   7.699
 1025POPC   C1B17227  42.966  27.391   8.648
 1025POPC   C2B17228  42.705  27.658   8.407
 1025POPC   C3B17229  42.860  27.912   8.101
 1025POPC   C4B17230  42.742  27.604   7.812
 1026POPC   NC317231  31.943  17.842   9.344
 1026POPC   PO417232  32.351  17.273   9.476
 1026POPC   GL117233  32.141  17.390   9.142
 1026POPC   GL217234  32.353  17.662   9.084
 1026POPC   C1A17235  32.084  17.295   8.715
 1026POPC   D2A17236  31.950  17.352   8.297
 1026POPC   C3A17237  32.232  17.610   8.077
 1026POPC   C4A17238  32.450  17.536   7.690
 1026POPC   C1B17239  32.122  17.805   8.730
 1026POPC   C2B17240  31.890  17.872   8.384
 1026POPC   C3B17241  31.906  18.029   7.975
 1026POPC   C4B17242  32.215  17.966   7.700
 1027POPC   NC317243  35.759  30.060   9.448
 1027POPC   PO417244  36.357  29.716   9.408
 1027POPC   GL117245  36.232  30.010   9.101
 1027POPC   GL217246  35.889  29.950   8.979
 1027POPC   C1A17247  36.291  29.961   8.657
 1027POPC   D2A17248  36.332  30.218   8.248
 1027POPC   C3A17249  36.151  30.083   7.843
 1027POPC   C4A17250  36.377  30.091   7.419
 1027POPC   C1B17251  35.655  30.039   8.592
 1027POPC   C2B17252  35.714  29.771   8.240
 1027POPC   C3B17253  35.888  29.638   7.872
 1027POPC   C4B17254  35.921  29.495   7.459
 1028POPC   NC317255  30.233  21.328   9.501
 1028POPC   PO417256  29.676  21.579   9.240
 1028POPC   GL117257  29.889  21.268   9.080
 1028POPC   GL217258  29.572  21.076   9.073
 1028POPC   C1A17259  30.143  21.357   8.706
 1028POPC   D2A17260  30.074  21.749   8.475
 1028POPC   C3A17261  30.169  21.784   8.053
 1028POPC   C4A17262  30.095  21.551   7.674
 1028POPC   C1B17263  29.626  21.213   8.629
 1028POPC   C2B17264  29.837  21.338   8.253
 1028POPC   C3B17265  29.827  21.178   7.843
 1028POPC   C4B17266  29.725  21.261   7.368
 1029POPC   NC317267  11.588   0.510   9.475
 1029POPC   PO417268  10.920   0.205   9.562
 1029POPC   GL117269  11.156   0.463   9.243
 1029POPC   GL217270  11.367   0.234   9.075
 1029POPC   C1A17271  11.186   0.710   8.843
 1029POPC   D2A17272  10.999   0.647   8.443
 1029POPC   C3A17273  11.145   0.798   8.052
 1029POPC   C4A17274  11.111   0.680   7.635
 1029POPC   C1B17275  11.487   0.348   8.650
 1029POPC   C2B17276  11.373   0.351   8.203
 1029POPC   C3B17277  11.344   0.125   7.783
 1029POPC   C4B17278  11.635   0.114   7.436
 1030POPC   NC317279   7.840  20.036   9.221
 1030POPC   PO417280   7.535  19.450   9.509
 1030POPC   GL117281   7.473  19.669   9.105
 1030POPC   GL217282   7.254  19.953   9.017
 1030POPC   C1A17283   7.579  19.756   8.679
 1030POPC   D2A17284   7.454  19.811   8.273
 1030POPC   C3A17285   7.799  19.801   7.973
 1030POPC   C4A17286   7.700  19.807   7.516
 1030POPC   C1B17287   7.400  20.244   8.674
 1030POPC   C2B17288   7.458  20.350   8.235
 1030POPC   C3B17289   7.415  20.092   7.840
 1030POPC   C4B17290   7.217  19.965   7.453
 1031POPC   NC317291  30.676  19.040   9.496
 1031POPC   PO417292  30.271  19.410   9.160
 1031POPC   GL117293  30.542  19.047   9.017
 1031POPC   GL217294  30.920  19.128   9.045
 1031POPC   C1A17295  30.760  18.807   8.694
 1031POPC   D2A17296  30.677  18.831   8.269
 1031POPC   C3A17297  30.928  18.872   7.925
 1031POPC   C4A17298  30.798  18.882   7.476
 1031POPC   C1B17299  30.719  19.339   8.645
 1031POPC   C2B17300  30.374  19.239   8.326
 1031POPC   C3B17301  30.508  19.153   7.893
 1031POPC   C4B17302  30.879  19.352   7.714
 1032POPC   NC317303  16.564   9.201   9.497
 1032POPC   PO417304  17.029   8.738   9.566
 1032POPC   GL117305  16.831   8.913   9.172
 1032POPC   GL217306  16.445   8.903   9.107
 1032POPC   C1A17307  16.747   8.771   8.725
 1032POPC   D2A17308  16.939   9.024   8.406
 1032POPC   C3A17309  16.776   8.830   8.056
 1032POPC   C4A17310  16.750   8.554   7.715
 1032POPC   C1B17311  16.635   9.239   8.817
 1032POPC   C2B17312  16.491   9.267   8.394
 1032POPC   C3B17313  16.276   9.057   8.063
 1032POPC   C4B17314  16.438   8.964   7.668
 1033POPC   NC317315  23.489  19.273   9.541
 1033POPC   PO417316  23.898  18.774   9.472
 1033POPC   GL117317  23.666  18.990   9.147
 1033POPC   GL217318  23.736  19.367   9.110
 1033POPC   C1A17319  23.581  19.098   8.699
 1033POPC   D2A17320  23.670  19.019   8.275
 1033POPC   C3A17321  23.565  19.111   7.895
 1033POPC   C4A17322  23.714  19.394   7.642
 1033POPC   C1B17323  24.066  19.169   8.900
 1033POPC   C2B17324  24.089  19.246   8.478
 1033POPC   C3B17325  24.148  19.150   8.083
 1033POPC   C4B17326  24.069  18.980   7.708
 1034POPC   NC317327  42.345  22.662   9.609
 1034POPC   PO417328  41.845  23.168   9.619
 1034POPC   GL117329  42.073  23.016   9.216
 1034POPC   GL217330  42.408  22.815   9.120
 1034POPC   C1A17331  42.138  23.068   8.767
 1034POPC   D2A17332  42.259  22.981   8.358
 1034POPC   C3A17333  42.098  23.214   8.031
 1034POPC   C4A17334  42.159  23.203   7.597
 1034POPC   C1B17335  42.642  22.970   8.745
 1034POPC   C2B17336  42.781  23.001   8.306
 1034POPC   C3B17337  42.575  22.961   7.881
 1034POPC   C4B17338  42.723  22.657   7.517
 1035POPC   NC317339  10.940  14.613   9.479
 1035POPC   PO417340  11.538  14.131   9.557
 1035POPC   GL117341  11.378  14.317   9.136
 1035POPC   GL217342  11.062  14.184   9.176
 1035POPC   C1A17343  11.398  14.636   8.728
 1035POPC   D2A17344  11.714  14.719   8.375
 1035POPC   C3A17345  11.550  14.748   7.979
 1035POPC   C4A17346  11.281  14.447   7.788
 1035POPC   C1B17347  11.053  14.266   8.737
 1035POPC   C2B17348  11.072  14.452   8.317
 1035POPC   C3B17349  10.925  14.186   8.018
 1035POPC   C4B17350  10.782  14.188   7.622
 1036POPC   NC317351  16.595   5.710   9.669
 1036POPC   PO417352  17.091   6.149   9.627
 1036POPC   GL117353  16.836   5.970   9.320
 1036POPC   GL217354  16.971   5.705   9.150
 1036POPC   C1A17355  16.579   5.944   8.961
 1036POPC   D2A17356  16.569   5.837   8.518
 1036POPC   C3A17357  16.856   5.952   8.196
 1036POPC   C4A17358  16.503   6.041   7.934
 1036POPC   C1B17359  16.848   5.498   8.792
 1036POPC   C2B17360  16.765   5.367   8.375
 1036POPC   C3B17361  16.590   5.535   8.050
 1036POPC   C4B17362  16.789   5.702   7.704
 1037POPC   NC317363  30.700  36.635   9.517
 1037POPC   PO417364  30.826  37.352   9.523
 1037POPC   GL117365  30.676  37.024   9.171
 1037POPC   GL217366  30.723  36.702   9.021
 1037POPC   C1A17367  30.527  37.050   8.714
 1037POPC   D2A17368  30.747  36.950   8.340
 1037POPC   C3A17369  30.621  37.006   7.950
 1037POPC   C4A17370  30.805  36.990   7.567
 1037POPC   C1B17371  30.332  36.603   8.865
 1037POPC   C2B17372  30.306  36.553   8.447
 1037POPC   C3B17373  30.585  36.484   8.126
 1037POPC   C4B17374  30.562  36.559   7.718
 1038POPC   NC317375   1.125  36.620   9.672
 1038POPC   PO417376   1.695  36.864   9.781
 1038POPC   GL117377   1.416  36.849   9.284
 1038POPC   GL217378   1.094  36.712   9.167
 1038POPC   C1A17379   1.253  37.079   8.872
 1038POPC   D2A17380   1.366  37.136   8.421
 1038POPC   C3A17381   1.208  37.099   8.028
 1038POPC   C4A17382   1.369  37.093   7.594
 1038POPC   C1B17383   1.436  36.615   8.817
 1038POPC   C2B17384   1.425  36.467   8.401
 1038POPC   C3B17385   1.433  36.608   8.026
 1038POPC   C4B17386   1.330  36.592   7.618
 1039POPC   NC317387  25.856  33.116   9.571
 1039POPC   PO417388  26.417  33.272   9.339
 1039POPC   GL117389  26.139  33.138   9.086
 1039POPC   GL217390  25.813  33.290   9.105
 1039POPC   C1A17391  26.097  33.125   8.656
 1039POPC   D2A17392  26.132  32.941   8.286
 1039POPC   C3A17393  26.045  33.160   7.910
 1039POPC   C4A17394  26.159  33.038   7.495
 1039POPC   C1B17395  25.735  32.868   8.894
 1039POPC   C2B17396  25.705  32.713   8.448
 1039POPC   C3B17397  25.743  32.775   8.014
 1039POPC   C4B17398  25.870  32.629   7.621
 1040POPC   NC317399  24.199  41.456   9.365
 1040POPC   PO417400  24.892  41.505   9.389
 1040POPC   GL117401  24.635  41.365   9.055
 1040POPC   GL217402  24.424  41.668   8.952
 1040POPC   C1A17403  24.526  41.310   8.618
 1040POPC   D2A17404  24.490  41.670   8.366
 1040POPC   C3A17405  24.351  41.629   7.968
 1040POPC   C4A17406  24.446  41.466   7.592
 1040POPC   C1B17407  24.832  41.758   8.755
 1040POPC   C2B17408  24.924  41.948   8.360
 1040POPC   C3B17409  24.707  42.037   8.043
 1040POPC   C4B17410  24.792  41.807   7.727
 1041POPC   NC317411  10.601   6.690   9.529
 1041POPC   PO417412  10.258   6.208   9.204
 1041POPC   GL117413  10.312   6.630   9.101
 1041POPC   GL217414  10.678   6.531   9.061
 1041POPC   C1A17415  10.369   6.657   8.673
 1041POPC   D2A17416  10.439   6.340   8.407
 1041POPC   C3A17417  10.458   6.577   8.053
 1041POPC   C4A17418  10.255   6.856   7.812
 1041POPC   C1B17419  10.747   6.919   8.868
 1041POPC   C2B17420  10.742   7.115   8.442
 1041POPC   C3B17421  10.761   7.001   8.009
 1041POPC   C4B17422  11.012   6.910   7.663
 1042POPC   NC317423  43.833  40.297   9.319
 1042POPC   PO417424  44.360  40.012   9.566
 1042POPC   GL117425  44.220  39.818   9.187
 1042POPC   GL217426  43.834  39.776   9.150
 1042POPC   C1A17427  44.156  39.830   8.736
 1042POPC   D2A17428  44.055  40.095   8.361
 1042POPC   C3A17429  44.086  39.913   7.940
 1042POPC   C4A17430  44.017  40.240   7.637
 1042POPC   C1B17431  43.647  39.758   8.730
 1042POPC   C2B17432  43.757  39.677   8.339
 1042POPC   C3B17433  43.549  39.667   7.968
 1042POPC   C4B17434  43.704  39.804   7.582
 1043POPC   NC317435  25.763  24.040   9.367
 1043POPC   PO417436  25.136  24.452   9.451
 1043POPC   GL117437  25.108  24.452   9.078
 1043POPC   GL217438  25.486  24.344   9.047
 1043POPC   C1A17439  25.127  24.259   8.725
 1043POPC   D2A17440  25.399  24.280   8.412
 1043POPC   C3A17441  25.229  24.278   8.031
 1043POPC   C4A17442  25.077  24.641   7.831
 1043POPC   C1B17443  25.417  24.687   8.743
 1043POPC   C2B17444  25.413  24.788   8.285
 1043POPC   C3B17445  25.569  24.790   7.854
 1043POPC   C4B17446  25.721  24.757   7.389
 1044POPC   NC317447  32.239  22.741   9.598
 1044POPC   PO417448  31.646  22.715   9.463
 1044POPC   GL117449  31.990  22.574   9.186
 1044POPC   GL217450  32.213  22.883   9.098
 1044POPC   C1A17451  32.195  22.523   8.768
 1044POPC   D2A17452  32.403  22.763   8.433
 1044POPC   C3A17453  32.427  22.634   7.977
 1044POPC   C4A17454  32.635  22.904   7.675
 1044POPC   C1B17455  32.147  23.154   8.703
 1044POPC   C2B17456  32.112  23.164   8.232
 1044POPC   C3B17457  31.978  23.118   7.785
 1044POPC   C4B17458  32.204  23.079   7.378
 1045POPC   NC317459  30.759   0.704   9.536
 1045POPC   PO417460  31.247   0.887   9.242
 1045POPC   GL117461  30.816   0.904   9.040
 1045POPC   GL217462  30.716   1.273   9.051
 1045POPC   C1A17463  30.675   1.000   8.599
 1045POPC   D2A17464  30.762   0.962   8.167
 1045POPC   C3A17465  30.794   1.251   7.824
 1045POPC   C4A17466  30.630   1.160   7.383
 1045POPC   C1B17467  30.441   1.441   8.695
 1045POPC   C2B17468  30.504   1.428   8.231
 1045POPC   C3B17469  30.296   1.313   7.828
 1045POPC   C4B17470  30.245   1.479   7.407
 1046POPC   NC317471  31.137  26.259   9.413
 1046POPC   PO417472  30.736  25.884   9.798
 1046POPC   GL117473  30.753  25.955   9.310
 1046POPC   GL217474  30.757  26.314   9.106
 1046POPC   C1A17475  30.773  25.849   8.881
 1046POPC   D2A17476  30.890  25.907   8.467
 1046POPC   C3A17477  30.636  25.700   8.159
 1046POPC   C4A17478  30.571  25.945   7.802
 1046POPC   C1B17479  30.472  26.313   8.755
 1046POPC   C2B17480  30.469  26.174   8.333
 1046POPC   C3B17481  30.476  26.402   7.956
 1046POPC   C4B17482  30.552  26.375   7.500
 1047POPC   NC317483  14.728  27.438   9.560
 1047POPC   PO417484  14.057  27.278   9.483
 1047POPC   GL117485  14.330  27.308   9.099
 1047POPC   GL217486  14.653  27.466   9.076
 1047POPC   C1A17487  14.436  27.344   8.651
 1047POPC   D2A17488  14.613  27.199   8.311
 1047POPC   C3A17489  14.401  27.397   7.998
 1047POPC   C4A17490  14.544  27.577   7.658
 1047POPC   C1B17491  14.815  27.690   8.708
 1047POPC   C2B17492  14.599  27.746   8.301
 1047POPC   C3B17493  14.357  27.939   7.956
 1047POPC   C4B17494  14.418  28.324   7.733
 1048POPC   NC317495  26.949   2.236   9.382
 1048POPC   PO417496  26.542   2.802   9.404
 1048POPC   GL117497  26.899   2.741   9.139
 1048POPC   GL217498  27.219   2.983   9.073
 1048POPC   C1A17499  26.712   2.636   8.747
 1048POPC   D2A17500  26.512   2.914   8.486
 1048POPC   C3A17501  26.673   2.854   8.102
 1048POPC   C4A17502  26.690   2.583   7.786
 1048POPC   C1B17503  27.185   2.811   8.712
 1048POPC   C2B17504  27.275   2.527   8.442
 1048POPC   C3B17505  27.148   2.666   8.064
 1048POPC   C4B17506  27.075   2.942   7.717
 1049POPC   NC317507  42.458  31.394   9.487
 1049POPC   PO417508  42.202  32.015   9.551
 1049POPC   GL117509  42.219  31.704   9.159
 1049POPC   GL217510  42.494  31.440   8.994
 1049POPC   C1A17511  42.252  31.808   8.730
 1049POPC   D2A17512  42.294  31.577   8.326
 1049POPC   C3A17513  42.225  31.822   7.968
 1049POPC   C4A17514  42.492  31.658   7.680
 1049POPC   C1B17515  42.141  31.304   8.734
 1049POPC   C2B17516  41.861  31.294   8.371
 1049POPC   C3B17517  42.043  31.240   7.931
 1049POPC   C4B17518  41.949  30.981   7.583
 1050POPC   NC317519  33.536   7.915   9.371
 1050POPC   PO417520  33.975   8.401   9.538
 1050POPC   GL117521  33.867   8.225   9.152
 1050POPC   GL217522  33.580   8.383   9.135
 1050POPC   C1A17523  33.769   8.014   8.734
 1050POPC   D2A17524  33.635   8.235   8.355
 1050POPC   C3A17525  33.706   8.178   7.939
 1050POPC   C4A17526  33.536   7.849   7.746
 1050POPC   C1B17527  33.645   8.529   8.765
 1050POPC   C2B17528  33.380   8.673   8.433
 1050POPC   C3B17529  33.416   8.722   8.036
 1050POPC   C4B17530  33.649   8.625   7.708
 1051POPC   NC317531  24.846  37.497   9.363
 1051POPC   PO417532  24.435  37.985   9.591
 1051POPC   GL117533  24.497  37.806   9.198
 1051POPC   GL217534  24.325  37.521   9.142
 1051POPC   C1A17535  24.559  37.919   8.777
 1051POPC   D2A17536  24.594  38.135   8.391
 1051POPC   C3A17537  24.597  37.853   8.083
 1051POPC   C4A17538  24.511  37.811   7.672
 1051POPC   C1B17539  24.155  37.570   8.771
 1051POPC   C2B17540  24.373  37.498   8.396
 1051POPC   C3B17541  24.304  37.406   7.963
 1051POPC   C4B17542  24.051  37.597   7.666
 1052POPC   NC317543  32.844  25.287   9.672
 1052POPC   PO417544  32.205  25.087   9.438
 1052POPC   GL117545  31.991  25.226   9.077
 1052POPC   GL217546  31.787  24.921   9.012
 1052POPC   C1A17547  32.073  25.372   8.681
 1052POPC   D2A17548  32.054  25.140   8.251
 1052POPC   C3A17549  31.966  25.336   7.854
 1052POPC   C4A17550  31.645  25.357   7.531
 1052POPC   C1B17551  32.170  24.870   8.765
 1052POPC   C2B17552  32.475  25.123   8.511
 1052POPC   C3B17553  32.526  25.051   8.066
 1052POPC   C4B17554  32.483  25.396   7.795
 1053POPC   NC317555   3.985  12.261   9.550
 1053POPC   PO417556   4.423  11.799   9.900
 1053POPC   GL117557   4.499  12.044   9.410
 1053POPC   GL217558   4.403  12.305   9.103
 1053POPC   C1A17559   4.554  11.866   8.941
 1053POPC   D2A17560   4.703  12.027   8.532
 1053POPC   C3A17561   4.398  12.090   8.173
 1053POPC   C4A17562   4.108  11.888   7.833
 1053POPC   C1B17563   4.082  12.072   8.890
 1053POPC   C2B17564   3.806  12.221   8.585
 1053POPC   C3B17565   3.913  12.246   8.170
 1053POPC   C4B17566   4.126  12.399   7.788
 1054POPC   NC317567  28.149  34.642   9.472
 1054POPC   PO417568  28.807  34.446   9.376
 1054POPC   GL117569  28.557  34.647   9.100
 1054POPC   GL217570  28.227  34.503   8.988
 1054POPC   C1A17571  28.624  34.658   8.680
 1054POPC   D2A17572  28.316  34.613   8.390
 1054POPC   C3A17573  28.484  34.768   8.006
 1054POPC   C4A17574  28.446  34.664   7.563
 1054POPC   C1B17575  28.194  34.943   8.787
 1054POPC   C2B17576  28.112  35.103   8.382
 1054POPC   C3B17577  27.932  34.808   8.090
 1054POPC   C4B17578  27.893  34.634   7.664
 1055POPC   NC317579  11.924   6.033   9.714
 1055POPC   PO417580  11.818   6.660   9.466
 1055POPC   GL117581  11.875   6.665   9.076
 1055POPC   GL217582  11.778   6.349   8.941
 1055POPC   C1A17583  12.055   6.811   8.738
 1055POPC   D2A17584  11.990   6.536   8.425
 1055POPC   C3A17585  12.188   6.792   8.147
 1055POPC   C4A17586  12.301   7.005   7.791
 1055POPC   C1B17587  12.244   6.346   8.872
 1055POPC   C2B17588  12.496   6.496   8.517
 1055POPC   C3B17589  12.464   6.344   8.112
 1055POPC   C4B17590  12.218   6.479   7.752
 1056POPC   NC317591  23.424  37.347   9.386
 1056POPC   PO417592  23.647  36.719   9.434
 1056POPC   GL117593  23.831  36.882   9.103
 1056POPC   GL217594  23.901  37.222   9.181
 1056POPC   C1A17595  23.807  36.724   8.718
 1056POPC   D2A17596  23.605  36.851   8.371
 1056POPC   C3A17597  23.820  36.674   8.050
 1056POPC   C4A17598  23.658  36.777   7.689
 1056POPC   C1B17599  23.734  37.255   8.753
 1056POPC   C2B17600  23.912  37.278   8.342
 1056POPC   C3B17601  23.819  37.203   7.921
 1056POPC   C4B17602  23.728  37.249   7.479
 1057POPC   NC317603  28.863  16.841   9.506
 1057POPC   PO417604  29.397  16.390   9.407
 1057POPC   GL117605  29.065  16.499   9.138
 1057POPC   GL217606  29.207  16.828   9.119
 1057POPC   C1A17607  28.965  16.625   8.695
 1057POPC   D2A17608  28.773  16.682   8.271
 1057POPC   C3A17609  29.057  16.784   7.974
 1057POPC   C4A17610  29.119  16.991   7.617
 1057POPC   C1B17611  29.193  17.086   8.749
 1057POPC   C2B17612  29.029  17.142   8.334
 1057POPC   C3B17613  29.348  17.238   8.023
 1057POPC   C4B17614  29.448  17.375   7.607
 1058POPC   NC317615  11.874   9.680   9.543
 1058POPC   PO417616  12.222  10.153   9.359
 1058POPC   GL117617  12.090   9.977   9.105
 1058POPC   GL217618  11.749  10.047   9.135
 1058POPC   C1A17619  12.272   9.878   8.724
 1058POPC   D2A17620  12.142   9.595   8.432
 1058POPC   C3A17621  12.302   9.739   8.063
 1058POPC   C4A17622  12.161   9.631   7.695
 1058POPC   C1B17623  11.798   9.704   8.834
 1058POPC   C2B17624  11.654   9.703   8.446
 1058POPC   C3B17625  11.767   9.587   8.051
 1058POPC   C4B17626  11.660   9.740   7.675
 1059POPC   NC317627  33.374  34.591   9.458
 1059POPC   PO417628  32.696  34.531   9.262
 1059POPC   GL117629  33.037  34.343   9.068
 1059POPC   GL217630  33.192  34.660   9.002
 1059POPC   C1A17631  33.110  34.343   8.604
 1059POPC   D2A17632  33.247  34.519   8.205
 1059POPC   C3A17633  32.987  34.449   7.853
 1059POPC   C4A17634  32.907  34.675   7.471
 1059POPC   C1B17635  33.124  34.875   8.645
 1059POPC   C2B17636  33.260  35.024   8.287
 1059POPC   C3B17637  33.109  34.944   7.873
 1059POPC   C4B17638  33.130  35.148   7.463
 1060POPC   NC317639   1.014  13.134   9.334
 1060POPC   PO417640   1.513  12.644   9.458
 1060POPC   GL117641   1.390  12.849   9.054
 1060POPC   GL217642   1.578  13.105   8.898
 1060POPC   C1A17643   1.418  12.744   8.597
 1060POPC   D2A17644   1.434  12.868   8.162
 1060POPC   C3A17645   1.066  12.830   7.893
 1060POPC   C4A17646   0.948  12.620   7.475
 1060POPC   C1B17647   1.181  13.217   8.660
 1060POPC   C2B17648   1.083  13.293   8.214
 1060POPC   C3B17649   1.347  13.262   7.834
 1060POPC   C4B17650   1.334  12.956   7.464
 1061POPC   NC317651  39.943   8.795   9.501
 1061POPC   PO417652  40.248   9.378   9.425
 1061POPC   GL117653  40.039   9.104   9.095
 1061POPC   GL217654  40.206   8.744   9.076
 1061POPC   C1A17655  40.056   8.963   8.640
 1061POPC   D2A17656  40.209   8.832   8.250
 1061POPC   C3A17657  39.991   8.989   7.850
 1061POPC   C4A17658  39.712   9.351   7.743
 1061POPC   C1B17659  39.886   8.514   8.812
 1061POPC   C2B17660  39.679   8.649   8.420
 1061POPC   C3B17661  39.794   8.550   8.010
 1061POPC   C4B17662  40.217   8.525   7.852
 1062POPC   NC317663  36.610  30.842   9.437
 1062POPC   PO417664  37.033  30.410   9.446
 1062POPC   GL117665  36.783  30.510   9.104
 1062POPC   GL217666  36.663  30.248   8.904
 1062POPC   C1A17667  36.640  30.755   8.762
 1062POPC   D2A17668  36.502  30.752   8.348
 1062POPC   C3A17669  36.685  31.074   8.089
 1062POPC   C4A17670  36.654  30.928   7.658
 1062POPC   C1B17671  37.076  30.447   8.723
 1062POPC   C2B17672  37.140  30.461   8.313
 1062POPC   C3B17673  36.881  30.600   7.991
 1062POPC   C4B17674  37.106  30.553   7.632
 1063POPC   NC317675   0.669   8.553   9.498
 1063POPC   PO417676   0.115   8.118   9.479
 1063POPC   GL117677   0.299   8.206   9.087
 1063POPC   GL217678   0.618   7.996   8.971
 1063POPC   C1A17679   0.264   8.224   8.646
 1063POPC   D2A17680   0.602   8.168   8.391
 1063POPC   C3A17681   0.533   7.999   8.032
 1063POPC   C4A17682   0.351   8.147   7.656
 1063POPC   C1B17683   0.713   8.404   8.823
 1063POPC   C2B17684   0.880   8.595   8.449
 1063POPC   C3B17685   0.835   8.448   8.022
 1063POPC   C4B17686   0.767   8.484   7.581
 1064POPC   NC317687  44.403  22.203   9.454
 1064POPC   PO417688   0.011  21.967   9.549
 1064POPC   GL117689  44.832  22.188   9.182
 1064POPC   GL217690   0.127  22.132   9.069
 1064POPC   C1A17691  44.573  22.377   8.816
 1064POPC   D2A17692  44.313  22.161   8.491
 1064POPC   C3A17693  44.487  22.218   8.060
 1064POPC   C4A17694  44.690  21.905   7.748
 1064POPC   C1B17695  44.996  22.130   8.670
 1064POPC   C2B17696   0.165  22.066   8.279
 1064POPC   C3B17697  44.997  22.246   7.947
 1064POPC   C4B17698  44.993  22.291   7.515
 1065POPC   NC317699  27.319   7.721   9.431
 1065POPC   PO417700  26.615   7.810   9.578
 1065POPC   GL117701  26.777   7.885   9.108
 1065POPC   GL217702  27.077   8.068   9.142
 1065POPC   C1A17703  26.923   8.038   8.644
 1065POPC   D2A17704  26.731   8.414   8.409
 1065POPC   C3A17705  26.603   8.365   7.977
 1065POPC   C4A17706  26.840   8.045   7.789
 1065POPC   C1B17707  27.129   8.430   8.870
 1065POPC   C2B17708  27.263   8.382   8.425
 1065POPC   C3B17709  27.122   8.428   7.978
 1065POPC   C4B17710  27.201   8.437   7.524
 1066POPC   NC317711  21.158  32.157   9.553
 1066POPC   PO417712  21.375  31.458   9.462
 1066POPC   GL117713  21.618  31.433   9.081
 1066POPC   GL217714  21.613  31.803   9.093
 1066POPC   C1A17715  21.440  31.502   8.653
 1066POPC   D2A17716  21.284  31.451   8.222
 1066POPC   C3A17717  21.531  31.373   7.864
 1066POPC   C4A17718  21.322  31.547   7.522
 1066POPC   C1B17719  21.574  31.986   8.703
 1066POPC   C2B17720  21.658  31.829   8.298
 1066POPC   C3B17721  21.471  31.879   7.913
 1066POPC   C4B17722  21.207  32.180   7.785
 1067POPC   NC317723   3.063  16.267   9.573
 1067POPC   PO417724   2.558  15.835   9.589
 1067POPC   GL117725   2.721  15.824   9.160
 1067POPC   GL217726   3.043  16.003   9.142
 1067POPC   C1A17727   2.567  15.889   8.725
 1067POPC   D2A17728   2.581  15.950   8.281
 1067POPC   C3A17729   2.787  15.905   7.943
 1067POPC   C4A17730   2.491  16.104   7.679
 1067POPC   C1B17731   2.855  16.287   8.870
 1067POPC   C2B17732   2.993  16.144   8.470
 1067POPC   C3B17733   3.093  16.294   8.090
 1067POPC   C4B17734   2.958  16.353   7.679
 1068POPC   NC317735  25.236  41.187   9.469
 1068POPC   PO417736  25.701  41.637   9.406
 1068POPC   GL117737  25.466  41.688   9.045
 1068POPC   GL217738  25.277  41.406   9.024
 1068POPC   C1A17739  25.348  41.722   8.625
 1068POPC   D2A17740  25.483  41.524   8.270
 1068POPC   C3A17741  25.231  41.737   7.973
 1068POPC   C4A17742  25.283  41.812   7.516
 1068POPC   C1B17743  25.036  41.248   8.704
 1068POPC   C2B17744  24.960  41.446   8.337
 1068POPC   C3B17745  24.849  41.358   7.942
 1068POPC   C4B17746  25.153  41.314   7.641
 1069POPC   NC317747   3.696  10.666   9.648
 1069POPC   PO417748   3.154  10.791   9.325
 1069POPC   GL117749   3.482  10.585   9.165
 1069POPC   GL217750   3.768  10.834   9.173
 1069POPC   C1A17751   3.432  10.377   8.759
 1069POPC   D2A17752   3.566  10.320   8.338
 1069POPC   C3A17753   3.364  10.524   7.994
 1069POPC   C4A17754   3.424  10.357   7.614
 1069POPC   C1B17755   3.604  10.871   8.757
 1069POPC   C2B17756   3.574  10.851   8.337
 1069POPC   C3B17757   3.559  11.033   7.938
 1069POPC   C4B17758   3.448  10.886   7.529
 1070POPC   NC317759  24.221   0.931   9.404
 1070POPC   PO417760  24.451   1.487   9.677
 1070POPC   GL117761  24.434   1.379   9.218
 1070POPC   GL217762  24.637   1.107   9.086
 1070POPC   C1A17763  24.331   1.386   8.752
 1070POPC   D2A17764  24.571   1.445   8.344
 1070POPC   C3A17765  24.325   1.378   7.989
 1070POPC   C4A17766  24.140   1.337   7.588
 1070POPC   C1B17767  24.744   0.848   8.732
 1070POPC   C2B17768  24.792   0.992   8.317
 1070POPC   C3B17769  24.653   1.000   7.901
 1070POPC   C4B17770  24.820   0.761   7.560
 1071POPC   NC317771  18.619  31.136   9.621
 1071POPC   PO417772  18.874  30.562   9.487
 1071POPC   GL117773  19.070  30.816   9.175
 1071POPC   GL217774  19.138  30.482   9.009
 1071POPC   C1A17775  19.305  30.883   8.783
 1071POPC   D2A17776  19.371  30.567   8.435
 1071POPC   C3A17777  19.150  30.675   8.047
 1071POPC   C4A17778  18.924  30.760   7.661
 1071POPC   C1B17779  18.967  30.300   8.639
 1071POPC   C2B17780  18.883  30.225   8.214
 1071POPC   C3B17781  18.901  30.269   7.771
 1071POPC   C4B17782  18.672  30.383   7.375
 1072POPC   NC317783  11.349  10.497   9.783
 1072POPC   PO417784  10.740  10.447   9.871
 1072POPC   GL117785  11.003  10.476   9.383
 1072POPC   GL217786  11.378  10.429   9.273
 1072POPC   C1A17787  11.073  10.350   8.883
 1072POPC   D2A17788  11.128  10.578   8.448
 1072POPC   C3A17789  11.034  10.388   8.000
 1072POPC   C4A17790  11.190  10.460   7.540
 1072POPC   C1B17791  11.534  10.587   8.863
 1072POPC   C2B17792  11.671  10.590   8.435
 1072POPC   C3B17793  11.473  10.619   8.037
 1072POPC   C4B17794  11.630  10.767   7.651
 1073POPC   NC317795  41.380  22.889   9.513
 1073POPC   PO417796  41.146  23.534   9.482
 1073POPC   GL117797  41.157  23.153   9.133
 1073POPC   GL217798  41.180  22.733   9.090
 1073POPC   C1A17799  41.496  23.053   8.806
 1073POPC   D2A17800  41.778  22.786   8.518
 1073POPC   C3A17801  41.730  22.834   8.056
 1073POPC   C4A17802  41.606  23.215   7.844
 1073POPC   C1B17803  41.263  22.556   8.697
 1073POPC   C2B17804  41.289  22.841   8.376
 1073POPC   C3B17805  41.205  22.933   8.003
 1073POPC   C4B17806  41.322  22.777   7.678
 1074POPC   NC317807   5.556  16.551   9.549
 1074POPC   PO417808   6.076  16.987   9.298
 1074POPC   GL117809   5.877  16.694   9.094
 1074POPC   GL217810   5.914  16.384   9.122
 1074POPC   C1A17811   5.715  16.685   8.725
 1074POPC   D2A17812   5.785  16.959   8.420
 1074POPC   C3A17813   5.779  16.793   8.020
 1074POPC   C4A17814   5.857  17.049   7.674
 1074POPC   C1B17815   6.163  16.461   8.725
 1074POPC   C2B17816   6.194  16.649   8.333
 1074POPC   C3B17817   6.164  16.452   7.951
 1074POPC   C4B17818   6.184  16.307   7.536
 1075POPC   NC317819  20.947  24.472   9.473
 1075POPC   PO417820  20.308  24.321   9.557
 1075POPC   GL117821  20.434  24.569   9.213
 1075POPC   GL217822  20.762  24.696   9.059
 1075POPC   C1A17823  20.357  24.583   8.797
 1075POPC   D2A17824  20.700  24.648   8.511
 1075POPC   C3A17825  20.564  24.633   8.103
 1075POPC   C4A17826  20.513  24.749   7.675
 1075POPC   C1B17827  20.741  24.251   8.865
 1075POPC   C2B17828  20.698  24.111   8.416
 1075POPC   C3B17829  20.834  24.206   7.967
 1075POPC   C4B17830  20.996  24.582   7.707
 1076POPC   NC317831  12.038  22.559   9.700
 1076POPC   PO417832  12.172  21.919   9.712
 1076POPC   GL117833  12.037  22.114   9.302
 1076POPC   GL217834  12.275  22.336   9.182
 1076POPC   C1A17835  11.870  22.157   8.866
 1076POPC   D2A17836  11.926  22.376   8.448
 1076POPC   C3A17837  11.848  22.164   8.051
 1076POPC   C4A17838  11.923  22.274   7.627
 1076POPC   C1B17839  12.385  22.233   8.735
 1076POPC   C2B17840  12.414  22.550   8.386
 1076POPC   C3B17841  12.248  22.494   8.000
 1076POPC   C4B17842  12.423  22.187   7.736
 1077POPC   NC317843  16.232  28.185   9.679
 1077POPC   PO417844  15.686  28.412   9.510
 1077POPC   GL117845  15.981  28.190   9.231
 1077POPC   GL217846  16.015  28.475   9.018
 1077POPC   C1A17847  16.204  28.032   8.871
 1077POPC   D2A17848  16.076  28.091   8.432
 1077POPC   C3A17849  16.255  28.184   7.999
 1077POPC   C4A17850  16.105  28.402   7.582
 1077POPC   C1B17851  15.702  28.220   8.777
 1077POPC   C2B17852  15.574  28.057   8.350
 1077POPC   C3B17853  15.578  28.199   7.889
 1077POPC   C4B17854  15.562  28.469   7.478
 1078POPC   NC317855  24.872  17.189   9.408
 1078POPC   PO417856  24.219  17.318   9.485
 1078POPC   GL117857  24.446  17.311   9.132
 1078POPC   GL217858  24.665  17.580   9.060
 1078POPC   C1A17859  24.321  17.364   8.727
 1078POPC   D2A17860  24.346  17.150   8.365
 1078POPC   C3A17861  24.506  17.356   8.059
 1078POPC   C4A17862  24.619  17.417   7.646
 1078POPC   C1B17863  24.493  17.861   8.716
 1078POPC   C2B17864  24.243  17.704   8.339
 1078POPC   C3B17865  24.247  17.750   7.880
 1078POPC   C4B17866  24.654  17.920   7.756
 1079POPC   NC317867  26.348  29.268   9.635
 1079POPC   PO417868  25.800  29.029   9.591
 1079POPC   GL117869  26.091  29.068   9.238
 1079POPC   GL217870  26.183  29.431   9.173
 1079POPC   C1A17871  26.016  29.063   8.814
 1079POPC   D2A17872  26.163  28.850   8.462
 1079POPC   C3A17873  26.153  29.113   8.131
 1079POPC   C4A17874  26.017  29.286   7.755
 1079POPC   C1B17875  26.213  29.652   8.787
 1079POPC   C2B17876  26.100  29.608   8.370
 1079POPC   C3B17877  26.458  29.526   8.135
 1079POPC   C4B17878  26.526  29.225   7.823
 1080POPC   NC317879  39.067  35.207   9.435
 1080POPC   PO417880  39.650  35.583   9.444
 1080POPC   GL117881  39.462  35.314   9.132
 1080POPC   GL217882  39.568  35.480   8.892
 1080POPC   C1A17883  39.148  35.172   8.762
 1080POPC   D2A17884  38.895  35.267   8.370
 1080POPC   C3A17885  38.976  35.146   7.939
 1080POPC   C4A17886  39.068  35.383   7.569
 1080POPC   C1B17887  39.640  35.144   8.639
 1080POPC   C2B17888  39.446  35.070   8.277
 1080POPC   C3B17889  39.471  35.329   7.943
 1080POPC   C4B17890  39.455  35.051   7.646
 1081POPC   NC317891  39.790  44.524   9.548
 1081POPC   PO417892  40.229   0.168   9.427
 1081POPC   GL117893  39.910  44.922   9.205
 1081POPC   GL217894  40.048  44.593   9.104
 1081POPC   C1A17895  39.795   0.030   8.799
 1081POPC   D2A17896  39.628   0.026   8.378
 1081POPC   C3A17897  39.939  44.913   8.082
 1081POPC   C4A17898  39.981  44.819   7.659
 1081POPC   C1B17899  39.921  44.510   8.674
 1081POPC   C2B17900  39.913  44.237   8.297
 1081POPC   C3B17901  40.069  44.369   7.896
 1081POPC   C4B17902  40.032  44.314   7.441
 1082POPC   NC317903  17.213  20.202   9.904
 1082POPC   PO417904  17.704  20.019   9.420
 1082POPC   GL117905  17.537  19.874   9.038
 1082POPC   GL217906  17.243  19.678   9.129
 1082POPC   C1A17907  17.615  20.094   8.632
 1082POPC   D2A17908  17.529  20.262   8.198
 1082POPC   C3A17909  17.627  19.958   7.928
 1082POPC   C4A17910  17.524  19.496   7.862
 1082POPC   C1B17911  17.261  19.557   8.734
 1082POPC   C2B17912  17.307  19.792   8.379
 1082POPC   C3B17913  17.086  20.012   8.138
 1082POPC   C4B17914  17.173  19.869   7.750
 1083POPC   NC317915  17.556  41.738   9.578
 1083POPC   PO417916  17.877  41.301   9.844
 1083POPC   GL117917  17.838  41.412   9.325
 1083POPC   GL217918  17.884  41.737   9.143
 1083POPC   C1A17919  17.730  41.331   8.880
 1083POPC   D2A17920  17.697  41.327   8.422
 1083POPC   C3A17921  17.836  41.715   8.242
 1083POPC   C4A17922  17.701  41.933   7.858
 1083POPC   C1B17923  17.550  41.881   8.855
 1083POPC   C2B17924  17.350  41.742   8.465
 1083POPC   C3B17925  17.350  41.559   8.046
 1083POPC   C4B17926  17.214  41.834   7.733
 1084POPC   NC317927  26.580  16.878   9.502
 1084POPC   PO417928  27.102  16.412   9.576
 1084POPC   GL117929  26.840  16.526   9.204
 1084POPC   GL217930  26.865  16.909   9.094
 1084POPC   C1A17931  26.596  16.526   8.819
 1084POPC   D2A17932  26.544  16.650   8.369
 1084POPC   C3A17933  26.777  16.479   8.020
 1084POPC   C4A17934  27.180  16.334   7.894
 1084POPC   C1B17935  26.654  17.028   8.716
 1084POPC   C2B17936  26.494  17.148   8.285
 1084POPC   C3B17937  26.622  16.957   7.877
 1084POPC   C4B17938  26.468  16.834   7.445
 1085POPC   NC317939  36.402  36.907   9.546
 1085POPC   PO417940  37.034  36.844   9.452
 1085POPC   GL117941  36.773  36.713   9.118
 1085POPC   GL217942  36.718  37.057   9.108
 1085POPC   C1A17943  36.664  36.779   8.672
 1085POPC   D2A17944  36.718  37.063   8.320
 1085POPC   C3A17945  36.781  36.820   7.947
 1085POPC   C4A17946  36.475  36.586   7.730
 1085POPC   C1B17947  36.957  37.184   8.757
 1085POPC   C2B17948  37.256  37.163   8.447
 1085POPC   C3B17949  37.124  37.207   8.029
 1085POPC   C4B17950  36.744  37.331   7.795
 1086POPC   NC317951   1.896   7.673   9.572
 1086POPC   PO417952   2.016   8.280   9.543
 1086POPC   GL117953   1.967   8.156   9.156
 1086POPC   GL217954   2.206   7.929   9.087
 1086POPC   C1A17955   2.083   8.373   8.774
 1086POPC   D2A17956   1.875   8.253   8.393
 1086POPC   C3A17957   2.080   8.271   8.009
 1086POPC   C4A17958   1.763   8.495   7.845
 1086POPC   C1B17959   2.018   7.877   8.708
 1086POPC   C2B17960   2.041   7.769   8.330
 1086POPC   C3B17961   1.858   7.799   7.939
 1086POPC   C4B17962   1.758   7.876   7.531
 1087POPC   NC317963  17.280  20.211   9.321
 1087POPC   PO417964  17.514  20.840   9.424
 1087POPC   GL117965  17.360  20.637   9.052
 1087POPC   GL217966  17.656  20.438   8.997
 1087POPC   C1A17967  17.364  20.571   8.586
 1087POPC   D2A17968  17.564  20.770   8.223
 1087POPC   C3A17969  17.384  20.771   7.813
 1087POPC   C4A17970  17.288  20.339   7.671
 1087POPC   C1B17971  17.804  20.847   8.756
 1087POPC   C2B17972  18.017  20.968   8.324
 1087POPC   C3B17973  17.898  20.959   7.890
 1087POPC   C4B17974  17.752  20.882   7.451
 1088POPC   NC317975  24.280  12.422   9.616
 1088POPC   PO417976  24.979  12.310   9.470
 1088POPC   GL117977  24.690  12.251   9.144
 1088POPC   GL217978  24.322  12.199   9.164
 1088POPC   C1A17979  24.594  11.946   8.801
 1088POPC   D2A17980  24.357  11.976   8.423
 1088POPC   C3A17981  24.541  12.020   8.035
 1088POPC   C4A17982  24.744  11.736   7.801
 1088POPC   C1B17983  24.376  12.409   8.775
 1088POPC   C2B17984  24.309  12.486   8.366
 1088POPC   C3B17985  24.167  12.366   7.981
 1088POPC   C4B17986  24.289  12.426   7.563
 1089POPC   NC317987  28.594  44.186   9.952
 1089POPC   PO417988  28.064  43.991   9.555
 1089POPC   GL117989  28.152  43.847   9.136
 1089POPC   GL217990  28.473  43.638   9.099
 1089POPC   C1A17991  28.058  44.014   8.720
 1089POPC   D2A17992  28.180  43.808   8.347
 1089POPC   C3A17993  28.193  44.025   7.970
 1089POPC   C4A17994  28.585  44.201   7.849
 1089POPC   C1B17995  28.545  43.939   8.774
 1089POPC   C2B17996  28.605  44.083   8.365
 1089POPC   C3B17997  28.623  43.756   8.085
 1089POPC   C4B17998  28.701  43.418   7.864
 1090POPC   NC317999  25.969  31.247   9.873
 1090POPC   PO418000  25.539  31.655   9.493
 1090POPC   GL118001  25.428  31.514   9.126
 1090POPC   GL218002  25.079  31.512   9.074
 1090POPC   C1A18003  25.605  31.505   8.750
 1090POPC   D2A18004  25.442  31.511   8.373
 1090POPC   C3A18005  25.628  31.367   8.045
 1090POPC   C4A18006  25.389  31.560   7.723
 1090POPC   C1B18007  25.138  31.261   8.764
 1090POPC   C2B18008  24.951  31.329   8.422
 1090POPC   C3B18009  24.982  31.527   8.089
 1090POPC   C4B18010  24.861  31.432   7.722
 1091POPC   NC318011  26.709  12.548   9.588
 1091POPC   PO418012  27.287  12.258   9.755
 1091POPC   GL118013  26.971  12.165   9.363
 1091POPC   GL218014  26.982  12.427   9.102
 1091POPC   C1A18015  26.629  12.092   8.977
 1091POPC   D2A18016  26.623  12.093   8.497
 1091POPC   C3A18017  26.540  11.888   8.088
 1091POPC   C4A18018  26.696  12.153   7.768
 1091POPC   C1B18019  27.120  12.652   8.686
 1091POPC   C2B18020  27.157  12.604   8.205
 1091POPC   C3B18021  27.214  12.240   7.881
 1091POPC   C4B18022  27.491  12.168   7.490
 1092POPC   NC318023  43.251  25.010   9.661
 1092POPC   PO418024  43.340  24.384   9.517
 1092POPC   GL118025  43.219  24.488   9.162
 1092POPC   GL218026  43.484  24.765   9.159
 1092POPC   C1A18027  43.014  24.303   8.766
 1092POPC   D2A18028  42.858  24.407   8.323
 1092POPC   C3A18029  43.025  24.523   7.908
 1092POPC   C4A18030  42.903  24.949   7.772
 1092POPC   C1B18031  43.455  24.553   8.726
 1092POPC   C2B18032  43.371  24.504   8.296
 1092POPC   C3B18033  43.518  24.373   7.871
 1092POPC   C4B18034  43.353  24.292   7.463
 1093POPC   NC318035  36.399  11.687   9.410
 1093POPC   PO418036  36.156  12.371   9.491
 1093POPC   GL118037  36.074  12.288   9.089
 1093POPC   GL218038  36.393  12.187   9.011
 1093POPC   C1A18039  35.986  12.107   8.696
 1093POPC   D2A18040  36.176  12.114   8.317
 1093POPC   C3A18041  35.987  11.994   7.963
 1093POPC   C4A18042  36.145  12.094   7.595
 1093POPC   C1B18043  36.418  11.829   8.697
 1093POPC   C2B18044  36.564  11.765   8.262
 1093POPC   C3B18045  36.555  12.078   7.942
 1093POPC   C4B18046  36.626  11.999   7.513
 1094POPC   NC318047  39.030  34.424   9.462
 1094POPC   PO418048  39.554  34.823   9.498
 1094POPC   GL118049  39.507  34.816   9.061
 1094POPC   GL218050  39.158  34.791   9.096
 1094POPC   C1A18051  39.397  34.687   8.642
 1094POPC   D2A18052  39.284  34.417   8.304
 1094POPC   C3A18053  39.209  34.680   7.935
 1094POPC   C4A18054  39.169  34.659   7.491
 1094POPC   C1B18055  38.939  34.504   8.796
 1094POPC   C2B18056  38.665  34.493   8.453
 1094POPC   C3B18057  38.824  34.346   8.061
 1094POPC   C4B18058  38.924  34.231   7.642
 1095POPC   NC318059  19.520  21.674   9.417
 1095POPC   PO418060  18.873  21.674   9.586
 1095POPC   GL118061  19.074  21.511   9.179
 1095POPC   GL218062  19.192  21.171   9.131
 1095POPC   C1A18063  19.220  21.462   8.719
 1095POPC   D2A18064  18.993  21.571   8.343
 1095POPC   C3A18065  19.137  21.560   7.924
 1095POPC   C4A18066  18.818  21.669   7.659
 1095POPC   C1B18067  19.329  20.955   8.725
 1095POPC   C2B18068  19.239  21.127   8.319
 1095POPC   C3B18069  19.071  21.035   7.926
 1095POPC   C4B18070  19.299  21.046   7.552
 1096POPC   NC318071  37.255  32.379   9.523
 1096POPC   PO418072  36.680  32.007   9.325
 1096POPC   GL118073  37.048  32.131   9.118
 1096POPC   GL218074  37.022  32.502   9.083
 1096POPC   C1A18075  37.021  32.186   8.696
 1096POPC   D2A18076  36.772  32.224   8.337
 1096POPC   C3A18077  36.845  32.147   7.896
 1096POPC   C4A18078  36.532  32.133   7.536
 1096POPC   C1B18079  36.701  32.571   8.755
 1096POPC   C2B18080  36.643  32.747   8.367
 1096POPC   C3B18081  36.846  32.638   8.039
 1096POPC   C4B18082  37.147  32.525   7.739
 1097POPC   NC318083  27.389   5.388   9.398
 1097POPC   PO418084  27.880   5.964   9.536
 1097POPC   GL118085  27.741   6.095   9.183
 1097POPC   GL218086  27.631   5.761   9.110
 1097POPC   C1A18087  27.736   6.240   8.797
 1097POPC   D2A18088  27.630   6.059   8.415
 1097POPC   C3A18089  27.618   5.924   8.000
 1097POPC   C4A18090  27.714   6.102   7.629
 1097POPC   C1B18091  27.387   5.732   8.734
 1097POPC   C2B18092  27.243   5.756   8.307
 1097POPC   C3B18093  27.291   5.526   7.918
 1097POPC   C4B18094  27.606   5.566   7.581
 1098POPC   NC318095  11.285  11.462   9.530
 1098POPC   PO418096  11.614  10.824   9.566
 1098POPC   GL118097  11.308  10.945   9.182
 1098POPC   GL218098  11.407  11.280   9.078
 1098POPC   C1A18099  11.183  11.045   8.704
 1098POPC   D2A18100  11.308  11.343   8.384
 1098POPC   C3A18101  11.144  11.296   7.969
 1098POPC   C4A18102  11.177  10.947   7.721
 1098POPC   C1B18103  11.568  11.573   8.796
 1098POPC   C2B18104  11.714  11.650   8.393
 1098POPC   C3B18105  11.613  11.509   7.999
 1098POPC   C4B18106  11.774  11.541   7.630
 1099POPC   NC318107   8.818  17.126   9.515
 1099POPC   PO418108   9.124  16.555   9.593
 1099POPC   GL118109   9.172  16.794   9.182
 1099POPC   GL218110   8.842  16.869   9.056
 1099POPC   C1A18111   9.181  16.687   8.708
 1099POPC   D2A18112   8.942  16.496   8.358
 1099POPC   C3A18113   8.998  16.633   7.926
 1099POPC   C4A18114   8.747  16.652   7.550
 1099POPC   C1B18115   8.730  17.013   8.633
 1099POPC   C2B18116   8.736  16.972   8.179
 1099POPC   C3B18117   8.800  17.111   7.759
 1099POPC   C4B18118   8.775  17.113   7.284
 1100POPC   NC318119  33.090  41.733   9.653
 1100POPC   PO418120  32.745  41.241   9.566
 1100POPC   GL118121  33.056  41.428   9.224
 1100POPC   GL218122  33.317  41.748   9.180
 1100POPC   C1A18123  33.018  41.539   8.794
 1100POPC   D2A18124  33.111  41.366   8.392
 1100POPC   C3A18125  32.951  41.517   7.989
 1100POPC   C4A18126  33.103  41.346   7.598
 1100POPC   C1B18127  33.316  41.987   8.806
 1100POPC   C2B18128  33.172  41.892   8.423
 1100POPC   C3B18129  33.239  42.019   8.026
 1100POPC   C4B18130  33.241  41.812   7.649
 1101POPC   NC318131   9.350  31.465   9.408
 1101POPC   PO418132  10.005  31.446   9.377
 1101POPC   GL118133   9.701  31.266   9.076
 1101POPC   GL218134   9.645  31.618   9.018
 1101POPC   C1A18135   9.421  31.342   8.678
 1101POPC   D2A18136   9.524  31.570   8.292
 1101POPC   C3A18137   9.624  31.240   8.029
 1101POPC   C4A18138   9.391  30.936   7.867
 1101POPC   C1B18139   9.917  31.705   8.681
 1101POPC   C2B18140   9.987  31.834   8.232
 1101POPC   C3B18141   9.827  31.675   7.822
 1101POPC   C4B18142   9.449  31.471   7.608
 1102POPC   NC318143  40.505  34.403   9.498
 1102POPC   PO418144  40.981  34.788   9.471
 1102POPC   GL118145  40.825  34.549   9.120
 1102POPC   GL218146  40.450  34.513   9.013
 1102POPC   C1A18147  41.049  34.523   8.746
 1102POPC   D2A18148  40.915  34.610   8.373
 1102POPC   C3A18149  40.755  34.368   8.082
 1102POPC   C4A18150  40.798  34.512   7.737
 1102POPC   C1B18151  40.571  34.804   8.756
 1102POPC   C2B18152  40.544  34.955   8.366
 1102POPC   C3B18153  40.721  34.930   8.008
 1102POPC   C4B18154  40.634  34.967   7.589
 1103POPC   NC318155  23.578  12.608   9.786
 1103POPC   PO418156  23.506  12.036   9.428
 1103POPC   GL118157  23.772  12.187   9.132
 1103POPC   GL218158  23.562  12.317   8.861
 1103POPC   C1A18159  23.998  12.072   8.772
 1103POPC   D2A18160  23.860  12.180   8.366
 1103POPC   C3A18161  23.659  12.156   7.976
 1103POPC   C4A18162  23.836  12.218   7.608
 1103POPC   C1B18163  23.530  11.891   8.679
 1103POPC   C2B18164  23.492  11.719   8.240
 1103POPC   C3B18165  23.266  11.832   7.873
 1103POPC   C4B18166  23.391  12.002   7.534
 1104POPC   NC318167  16.038  38.956   9.491
 1104POPC   PO418168  15.674  39.452   9.532
 1104POPC   GL118169  16.045  39.493   9.223
 1104POPC   GL218170  16.074  39.181   9.041
 1104POPC   C1A18171  16.195  39.580   8.777
 1104POPC   D2A18172  15.916  39.330   8.511
 1104POPC   C3A18173  15.808  39.409   8.075
 1104POPC   C4A18174  16.145  39.518   7.812
 1104POPC   C1B18175  15.788  38.965   8.861
 1104POPC   C2B18176  15.786  38.835   8.445
 1104POPC   C3B18177  16.099  38.995   8.155
 1104POPC   C4B18178  15.914  39.010   7.775
 1105POPC   NC318179   3.617  16.578   9.646
 1105POPC   PO418180   3.739  17.243   9.523
 1105POPC   GL118181   3.514  16.858   9.239
 1105POPC   GL218182   3.398  16.466   9.212
 1105POPC   C1A18183   3.688  16.652   8.858
 1105POPC   D2A18184   3.475  16.679   8.463
 1105POPC   C3A18185   3.587  16.765   8.070
 1105POPC   C4A18186   3.330  16.735   7.703
 1105POPC   C1B18187   3.353  16.289   8.788
 1105POPC   C2B18188   3.526  16.156   8.364
 1105POPC   C3B18189   3.555  16.288   7.898
 1105POPC   C4B18190   3.836  16.590   7.652
 1106POPC   NC318191  12.140  38.779   9.593
 1106POPC   PO418192  11.848  38.173   9.508
 1106POPC   GL118193  12.141  38.383   9.222
 1106POPC   GL218194  11.922  38.628   9.143
 1106POPC   C1A18195  12.349  38.346   8.843
 1106POPC   D2A18196  12.291  38.442   8.424
 1106POPC   C3A18197  12.246  38.659   8.057
 1106POPC   C4A18198  12.251  38.432   7.682
 1106POPC   C1B18199  11.847  38.456   8.733
 1106POPC   C2B18200  11.798  38.354   8.289
 1106POPC   C3B18201  11.767  38.416   7.858
 1106POPC   C4B18202  11.475  38.656   7.627
 1107POPC   NC318203  27.307  36.691   9.525
 1107POPC   PO418204  27.560  37.230   9.675
 1107POPC   GL118205  27.534  37.026   9.188
 1107POPC   GL218206  27.438  36.665   9.039
 1107POPC   C1A18207  27.825  36.902   8.818
 1107POPC   D2A18208  28.082  36.941   8.471
 1107POPC   C3A18209  27.885  36.934   8.061
 1107POPC   C4A18210  27.591  36.832   7.731
 1107POPC   C1B18211  27.358  36.870   8.630
 1107POPC   C2B18212  27.356  36.900   8.189
 1107POPC   C3B18213  27.141  37.030   7.812
 1107POPC   C4B18214  27.242  37.057   7.341
 1108POPC   NC318215  15.041  12.733   9.584
 1108POPC   PO418216  15.677  12.827   9.527
 1108POPC   GL118217  15.297  12.946   9.208
 1108POPC   GL218218  15.039  13.249   9.230
 1108POPC   C1A18219  15.090  12.713   8.863
 1108POPC   D2A18220  15.115  12.821   8.422
 1108POPC   C3A18221  14.899  12.666   8.052
 1108POPC   C4A18222  15.143  12.642   7.682
 1108POPC   C1B18223  15.003  13.221   8.758
 1108POPC   C2B18224  14.805  13.194   8.303
 1108POPC   C3B18225  15.079  13.152   7.913
 1108POPC   C4B18226  15.291  13.142   7.469
 1109POPC   NC318227  39.058  20.593   9.718
 1109POPC   PO418228  39.609  20.590   9.442
 1109POPC   GL118229  39.285  20.588   9.175
 1109POPC   GL218230  39.081  20.290   9.086
 1109POPC   C1A18231  39.260  20.844   8.804
 1109POPC   D2A18232  39.453  20.741   8.424
 1109POPC   C3A18233  39.392  20.952   8.047
 1109POPC   C4A18234  39.061  20.962   7.749
 1109POPC   C1B18235  39.356  20.332   8.744
 1109POPC   C2B18236  39.253  20.251   8.373
 1109POPC   C3B18237  39.326  20.412   8.015
 1109POPC   C4B18238  39.069  20.458   7.680
 1110POPC   NC318239  19.290   3.012   9.538
 1110POPC   PO418240  18.747   2.675   9.487
 1110POPC   GL118241  18.898   2.643   9.107
 1110POPC   GL218242  19.002   2.972   9.128
 1110POPC   C1A18243  18.793   2.763   8.696
 1110POPC   D2A18244  18.859   2.542   8.317
 1110POPC   C3A18245  19.330   2.508   8.188
 1110POPC   C4A18246  19.422   2.478   7.735
 1110POPC   C1B18247  19.250   2.971   8.771
 1110POPC   C2B18248  19.151   2.957   8.333
 1110POPC   C3B18249  19.142   2.909   7.870
 1110POPC   C4B18250  18.943   3.148   7.525
 1111POPC   NC318251   9.472  24.252   9.587
 1111POPC   PO418252   9.899  24.795   9.488
 1111POPC   GL118253   9.820  24.477   9.217
 1111POPC   GL218254   9.484  24.537   9.158
 1111POPC   C1A18255   9.961  24.333   8.837
 1111POPC   D2A18256   9.873  24.460   8.431
 1111POPC   C3A18257  10.098  24.261   8.159
 1111POPC   C4A18258  10.033  24.406   7.773
 1111POPC   C1B18259   9.607  24.722   8.777
 1111POPC   C2B18260   9.504  24.838   8.336
 1111POPC   C3B18261   9.569  24.818   7.859
 1111POPC   C4B18262   9.618  24.935   7.379
 1112POPC   NC318263   9.848   8.218   9.492
 1112POPC   PO418264   9.181   8.154   9.316
 1112POPC   GL118265   9.540   7.920   9.099
 1112POPC   GL218266   9.887   8.049   9.021
 1112POPC   C1A18267   9.606   7.820   8.645
 1112POPC   D2A18268   9.396   7.867   8.240
 1112POPC   C3A18269   9.572   8.175   7.991
 1112POPC   C4A18270   9.873   8.056   7.715
 1112POPC   C1B18271   9.889   8.457   8.800
 1112POPC   C2B18272  10.091   8.566   8.393
 1112POPC   C3B18273  10.017   8.479   7.951
 1112POPC   C4B18274   9.967   8.480   7.492
 1113POPC   NC318275  12.610  17.883   9.529
 1113POPC   PO418276  12.658  17.133   9.494
 1113POPC   GL118277  12.796  17.219   9.079
 1113POPC   GL218278  12.836  17.583   9.069
 1113POPC   C1A18279  12.997  17.308   8.669
 1113POPC   D2A18280  13.139  17.357   8.249
 1113POPC   C3A18281  12.814  17.315   7.955
 1113POPC   C4A18282  12.586  17.159   7.634
 1113POPC   C1B18283  12.822  17.800   8.689
 1113POPC   C2B18284  12.739  17.684   8.301
 1113POPC   C3B18285  12.950  17.818   7.947
 1113POPC   C4B18286  12.878  18.094   7.615
 1114POPC   NC318287  32.363  20.102   9.641
 1114POPC   PO418288  32.490  20.760   9.576
 1114POPC   GL118289  32.317  20.695   9.113
 1114POPC   GL218290  32.616  20.855   9.031
 1114POPC   C1A18291  32.106  20.501   8.696
 1114POPC   D2A18292  32.193  20.294   8.288
 1114POPC   C3A18293  32.205  20.590   7.936
 1114POPC   C4A18294  31.924  20.886   7.816
 1114POPC   C1B18295  32.410  20.921   8.663
 1114POPC   C2B18296  32.487  20.736   8.327
 1114POPC   C3B18297  32.678  20.863   7.965
 1114POPC   C4B18298  32.569  20.705   7.600
 1115POPC   NC318299  33.367  23.306   9.237
 1115POPC   PO418300  32.935  23.673   9.576
 1115POPC   GL118301  32.858  23.893   9.176
 1115POPC   GL218302  33.188  23.816   9.051
 1115POPC   C1A18303  32.825  23.937   8.723
 1115POPC   D2A18304  32.906  23.717   8.335
 1115POPC   C3A18305  32.998  23.929   7.975
 1115POPC   C4A18306  32.776  23.852   7.632
 1115POPC   C1B18307  32.994  23.462   8.762
 1115POPC   C2B18308  33.158  23.257   8.385
 1115POPC   C3B18309  33.295  23.457   8.030
 1115POPC   C4B18310  33.214  23.582   7.602
 1116POPC   NC318311  28.099   7.097   9.473
 1116POPC   PO418312  28.473   7.676   9.505
 1116POPC   GL118313  28.415   7.398   9.193
 1116POPC   GL218314  28.093   7.554   9.155
 1116POPC   C1A18315  28.635   7.340   8.795
 1116POPC   D2A18316  28.781   7.244   8.371
 1116POPC   C3A18317  28.609   7.562   8.096
 1116POPC   C4A18318  28.717   7.624   7.677
 1116POPC   C1B18319  28.106   7.242   8.817
 1116POPC   C2B18320  28.266   7.330   8.423
 1116POPC   C3B18321  28.157   7.296   8.000
 1116POPC   C4B18322  28.523   7.139   7.793
 1117POPC   NC318323  43.762  31.016   9.433
 1117POPC   PO418324  43.347  30.610   9.534
 1117POPC   GL118325  43.486  30.432   9.147
 1117POPC   GL218326  43.575  30.764   9.035
 1117POPC   C1A18327  43.789  30.370   8.780
 1117POPC   D2A18328  44.113  30.209   8.460
 1117POPC   C3A18329  44.079  30.324   8.036
 1117POPC   C4A18330  43.748  30.558   7.905
 1117POPC   C1B18331  43.682  30.856   8.604
 1117POPC   C2B18332  43.969  30.838   8.266
 1117POPC   C3B18333  44.174  30.819   7.854
 1117POPC   C4B18334  44.039  30.827   7.417
 1118POPC   NC318335  25.435  22.377   9.640
 1118POPC   PO418336  25.492  23.033   9.683
 1118POPC   GL118337  25.398  23.146   9.244
 1118POPC   GL218338  25.005  23.109   9.180
 1118POPC   C1A18339  25.445  22.872   8.893
 1118POPC   D2A18340  25.238  22.830   8.505
 1118POPC   C3A18341  25.437  22.926   8.140
 1118POPC   C4A18342  25.248  22.750   7.785
 1118POPC   C1B18343  25.149  23.275   8.791
 1118POPC   C2B18344  25.141  23.341   8.362
 1118POPC   C3B18345  24.961  23.091   8.045
 1118POPC   C4B18346  24.945  23.158   7.603
 1119POPC   NC318347  24.270   0.210   9.543
 1119POPC   PO418348  24.677   0.774   9.462
 1119POPC   GL118349  24.463   0.567   9.116
 1119POPC   GL218350  24.521   0.217   9.119
 1119POPC   C1A18351  24.287   0.619   8.701
 1119POPC   D2A18352  24.341   0.744   8.266
 1119POPC   C3A18353  24.700   0.525   8.056
 1119POPC   C4A18354  24.849   0.264   7.708
 1119POPC   C1B18355  24.529   0.148   8.720
 1119POPC   C2B18356  24.325   0.219   8.361
 1119POPC   C3B18357  24.299   0.094   7.964
 1119POPC   C4B18358  24.338   0.272   7.578
 1120POPC   NC318359  36.729  40.193   9.454
 1120POPC   PO418360  36.918  39.552   9.397
 1120POPC   GL118361  36.753  39.803   9.026
 1120POPC   GL218362  36.770  40.211   8.963
 1120POPC   C1A18363  36.796  39.599   8.613
 1120POPC   D2A18364  37.152  39.555   8.309
 1120POPC   C3A18365  37.110  39.796   7.879
 1120POPC   C4A18366  36.666  39.686   7.667
 1120POPC   C1B18367  36.732  40.109   8.560
 1120POPC   C2B18368  36.727  39.902   8.202
 1120POPC   C3B18369  36.701  40.138   7.859
 1120POPC   C4B18370  36.915  40.481   7.727
 1121POPC   NC318371  22.570  31.324   9.564
 1121POPC   PO418372  23.223  31.289   9.373
 1121POPC   GL118373  22.972  31.517   9.146
 1121POPC   GL218374  22.647  31.439   9.058
 1121POPC   C1A18375  23.081  31.519   8.713
 1121POPC   D2A18376  23.260  31.701   8.373
 1121POPC   C3A18377  23.157  31.416   8.073
 1121POPC   C4A18378  22.923  31.486   7.744
 1121POPC   C1B18379  22.579  31.641   8.658
 1121POPC   C2B18380  22.664  31.546   8.236
 1121POPC   C3B18381  22.434  31.523   7.836
 1121POPC   C4B18382  22.552  31.470   7.380
 1122POPC   NC318383  29.557   8.607   9.307
 1122POPC   PO418384  29.132   8.962   9.752
 1122POPC   GL118385  29.087   9.080   9.311
 1122POPC   GL218386  29.074   8.779   9.204
 1122POPC   C1A18387  29.080   9.159   8.844
 1122POPC   D2A18388  29.062   8.945   8.436
 1122POPC   C3A18389  29.236   9.093   8.088
 1122POPC   C4A18390  29.294   9.093   7.674
 1122POPC   C1B18391  29.004   8.609   8.818
 1122POPC   C2B18392  28.966   8.410   8.422
 1122POPC   C3B18393  29.024   8.472   8.021
 1122POPC   C4B18394  28.847   8.649   7.683
 1123POPC   NC318395  10.608  36.339   9.521
 1123POPC   PO418396  10.898  35.670   9.482
 1123POPC   GL118397  10.823  35.969   9.174
 1123POPC   GL218398  10.483  35.981   9.152
 1123POPC   C1A18399  10.745  35.892   8.745
 1123POPC   D2A18400  10.664  36.042   8.356
 1123POPC   C3A18401  10.769  35.832   8.002
 1123POPC   C4A18402  10.572  36.062   7.696
 1123POPC   C1B18403  10.215  36.146   8.846
 1123POPC   C2B18404  10.283  36.365   8.467
 1123POPC   C3B18405  10.207  36.233   8.038
 1123POPC   C4B18406  10.086  35.998   7.655
 1124POPC   NC318407  15.602  14.969   9.647
 1124POPC   PO418408  16.212  14.979   9.531
 1124POPC   GL118409  15.995  15.135   9.135
 1124POPC   GL218410  15.654  15.219   9.189
 1124POPC   C1A18411  15.835  15.292   8.704
 1124POPC   D2A18412  15.907  15.129   8.278
 1124POPC   C3A18413  15.857  15.270   7.836
 1124POPC   C4A18414  16.034  15.162   7.436
 1124POPC   C1B18415  15.552  14.879   8.871
 1124POPC   C2B18416  15.616  14.709   8.417
 1124POPC   C3B18417  15.764  14.761   7.958
 1124POPC   C4B18418  15.889  14.689   7.490
 1125POPC   NC318419  20.830  25.287   9.650
 1125POPC   PO418420  20.170  25.325   9.547
 1125POPC   GL118421  20.434  25.085   9.208
 1125POPC   GL218422  20.791  25.207   9.143
 1125POPC   C1A18423  20.530  25.071   8.743
 1125POPC   D2A18424  20.462  25.323   8.365
 1125POPC   C3A18425  20.582  25.158   7.984
 1125POPC   C4A18426  20.959  25.117   7.758
 1125POPC   C1B18427  20.838  25.464   8.775
 1125POPC   C2B18428  20.987  25.702   8.437
 1125POPC   C3B18429  20.857  25.590   8.028
 1125POPC   C4B18430  20.650  25.531   7.623
 1126POPC   NC318431  31.755  22.034   9.448
 1126POPC   PO418432  31.018  22.121   9.457
 1126POPC   GL118433  31.151  22.293   9.079
 1126POPC   GL218434  31.512  22.330   9.121
 1126POPC   C1A18435  31.276  22.095   8.703
 1126POPC   D2A18436  31.109  21.969   8.321
 1126POPC   C3A18437  31.284  22.177   8.024
 1126POPC   C4A18438  31.603  22.335   7.824
 1126POPC   C1B18439  31.758  22.253   8.755
 1126POPC   C2B18440  31.696  22.415   8.335
 1126POPC   C3B18441  31.917  22.666   8.047
 1126POPC   C4B18442  31.966  22.625   7.596
 1127POPC   NC318443  15.095  21.111   9.516
 1127POPC   PO418444  14.961  20.456   9.495
 1127POPC   GL118445  15.016  20.649   9.112
 1127POPC   GL218446  14.889  20.963   9.075
 1127POPC   C1A18447  15.288  20.811   8.802
 1127POPC   D2A18448  15.420  20.661   8.442
 1127POPC   C3A18449  15.142  20.623   8.134
 1127POPC   C4A18450  15.210  20.666   7.727
 1127POPC   C1B18451  14.923  21.142   8.699
 1127POPC   C2B18452  14.854  20.984   8.324
 1127POPC   C3B18453  14.936  21.068   7.894
 1127POPC   C4B18454  15.109  21.114   7.484
 1128POPC   NC318455  11.473  33.383   9.498
 1128POPC   PO418456  10.981  33.821   9.625
 1128POPC   GL118457  11.320  33.856   9.271
 1128POPC   GL218458  11.583  34.145   9.199
 1128POPC   C1A18459  11.298  33.634   8.867
 1128POPC   D2A18460  11.189  33.747   8.438
 1128POPC   C3A18461  11.389  33.707   8.055
 1128POPC   C4A18462  11.395  33.766   7.639
 1128POPC   C1B18463  11.434  34.108   8.748
 1128POPC   C2B18464  11.654  34.036   8.346
 1128POPC   C3B18465  11.566  34.191   7.915
 1128POPC   C4B18466  11.120  34.298   7.788
 1129POPC   NC318467  37.017  33.933   9.493
 1129POPC   PO418468  36.520  33.484   9.537
 1129POPC   GL118469  36.748  33.704   9.122
 1129POPC   GL218470  36.811  34.062   9.035
 1129POPC   C1A18471  36.839  33.715   8.670
 1129POPC   D2A18472  36.610  33.707   8.287
 1129POPC   C3A18473  36.918  33.698   7.930
 1129POPC   C4A18474  36.843  33.771   7.492
 1129POPC   C1B18475  36.576  34.166   8.672
 1129POPC   C2B18476  36.848  34.161   8.326
 1129POPC   C3B18477  37.157  34.212   8.011
 1129POPC   C4B18478  37.214  34.120   7.586
 1130POPC   NC318479   3.982   9.713   9.550
 1130POPC   PO418480   4.583   9.820   9.729
 1130POPC   GL118481   4.331   9.670   9.184
 1130POPC   GL218482   4.065   9.959   9.107
 1130POPC   C1A18483   4.312   9.862   8.677
 1130POPC   D2A18484   4.285   9.677   8.247
 1130POPC   C3A18485   4.219   9.862   7.851
 1130POPC   C4A18486   4.211   9.763   7.412
 1130POPC   C1B18487   3.959  10.226   8.721
 1130POPC   C2B18488   4.039  10.144   8.263
 1130POPC   C3B18489   3.820  10.163   7.856
 1130POPC   C4B18490   3.876  10.139   7.380
 1131POPC   NC318491  36.389  23.012   9.458
 1131POPC   PO418492  35.796  22.619   9.563
 1131POPC   GL118493  35.983  22.800   9.178
 1131POPC   GL218494  36.048  23.153   9.104
 1131POPC   C1A18495  36.079  22.798   8.734
 1131POPC   D2A18496  36.242  22.589   8.360
 1131POPC   C3A18497  36.095  22.714   7.957
 1131POPC   C4A18498  36.068  23.073   7.744
 1131POPC   C1B18499  36.421  23.198   8.846
 1131POPC   C2B18500  36.393  23.104   8.449
 1131POPC   C3B18501  36.490  23.077   8.071
 1131POPC   C4B18502  36.449  23.389   7.789
 1132POPC   NC318503  29.052  27.213   9.529
 1132POPC   PO418504  29.460  26.660   9.488
 1132POPC   GL118505  29.266  26.841   9.154
 1132POPC   GL218506  28.981  26.617   9.113
 1132POPC   C1A18507  29.214  26.864   8.724
 1132POPC   D2A18508  29.112  26.688   8.391
 1132POPC   C3A18509  29.182  26.983   8.100
 1132POPC   C4A18510  29.345  26.789   7.765
 1132POPC   C1B18511  28.727  26.587   8.713
 1132POPC   C2B18512  28.657  26.539   8.227
 1132POPC   C3B18513  28.833  26.725   7.828
 1132POPC   C4B18514  28.916  26.568   7.386
 1133POPC   NC318515  37.315  18.567   9.453
 1133POPC   PO418516  37.968  18.260   9.428
 1133POPC   GL118517  37.874  18.164   9.055
 1133POPC   GL218518  37.517  18.169   9.169
 1133POPC   C1A18519  37.701  18.335   8.705
 1133POPC   D2A18520  37.714  18.458   8.305
 1133POPC   C3A18521  37.983  18.358   8.017
 1133POPC   C4A18522  37.744  18.199   7.693
 1133POPC   C1B18523  37.250  18.146   8.831
 1133POPC   C2B18524  37.260  17.974   8.439
 1133POPC   C3B18525  37.429  17.975   8.036
 1133POPC   C4B18526  37.413  17.793   7.627
 1134POPC   NC318527   0.896  17.673   9.404
 1134POPC   PO418528   1.144  17.053   9.397
 1134POPC   GL118529   1.160  17.387   9.051
 1134POPC   GL218530   1.501  17.558   9.005
 1134POPC   C1A18531   1.128  17.707   8.671
 1134POPC   D2A18532   1.452  17.748   8.301
 1134POPC   C3A18533   1.264  17.733   7.905
 1134POPC   C4A18534   0.825  17.679   7.857
 1134POPC   C1B18535   1.423  17.318   8.588
 1134POPC   C2B18536   1.143  17.330   8.206
 1134POPC   C3B18537   1.115  17.268   7.740
 1134POPC   C4B18538   1.381  17.143   7.395
 1135POPC   NC318539  43.790   4.398   9.615
 1135POPC   PO418540  44.195   3.979   9.295
 1135POPC   GL118541  44.004   4.335   9.134
 1135POPC   GL218542  43.660   4.269   9.114
 1135POPC   C1A18543  43.900   4.495   8.727
 1135POPC   D2A18544  43.913   4.564   8.308
 1135POPC   C3A18545  43.777   4.413   7.923
 1135POPC   C4A18546  44.128   4.510   7.694
 1135POPC   C1B18547  43.855   4.006   8.718
 1135POPC   C2B18548  43.813   3.974   8.254
 1135POPC   C3B18549  44.078   4.001   7.886
 1135POPC   C4B18550  44.089   4.057   7.458
 1136POPC   NC318551  32.033  43.160   9.307
 1136POPC   PO418552  32.473  43.644   9.625
 1136POPC   GL118553  32.508  43.342   9.256
 1136POPC   GL218554  32.497  42.995   9.194
 1136POPC   C1A18555  32.390  43.233   8.780
 1136POPC   D2A18556  32.425  43.164   8.352
 1136POPC   C3A18557  32.393  43.497   8.061
 1136POPC   C4A18558  32.234  43.337   7.651
 1136POPC   C1B18559  32.710  42.839   8.833
 1136POPC   C2B18560  32.692  42.702   8.384
 1136POPC   C3B18561  32.595  42.843   7.965
 1136POPC   C4B18562  32.626  42.912   7.542
 1137POPC   NC318563  14.104  41.354   9.724
 1137POPC   PO418564  14.645  41.765   9.569
 1137POPC   GL118565  14.551  41.670   9.176
 1137POPC   GL218566  14.236  41.552   9.256
 1137POPC   C1A18567  14.665  41.544   8.772
 1137POPC   D2A18568  14.499  41.767   8.408
 1137POPC   C3A18569  14.649  41.571   8.051
 1137POPC   C4A18570  14.905  41.560   7.718
 1137POPC   C1B18571  14.170  41.725   8.842
 1137POPC   C2B18572  14.004  41.556   8.472
 1137POPC   C3B18573  14.134  41.604   8.054
 1137POPC   C4B18574  13.945  41.570   7.676
 1138POPC   NC318575   2.602  42.561   9.383
 1138POPC   PO418576   3.052  42.039   9.405
 1138POPC   GL118577   2.925  42.070   9.047
 1138POPC   GL218578   2.600  42.147   9.088
 1138POPC   C1A18579   2.882  42.241   8.659
 1138POPC   D2A18580   2.778  42.449   8.285
 1138POPC   C3A18581   3.010  42.262   7.976
 1138POPC   C4A18582   2.876  42.318   7.589
 1138POPC   C1B18583   2.412  42.002   8.734
 1138POPC   C2B18584   2.603  41.974   8.316
 1138POPC   C3B18585   2.504  42.169   7.917
 1138POPC   C4B18586   2.436  42.158   7.427
 1139POPC   NC318587  28.946  18.545   9.495
 1139POPC   PO418588  29.252  17.934   9.511
 1139POPC   GL118589  29.215  18.213   9.152
 1139POPC   GL218590  28.873  18.249   9.040
 1139POPC   C1A18591  29.304  18.356   8.718
 1139POPC   D2A18592  29.204  18.504   8.271
 1139POPC   C3A18593  29.256  18.311   7.846
 1139POPC   C4A18594  29.068  18.296   7.427
 1139POPC   C1B18595  28.976  17.987   8.645
 1139POPC   C2B18596  28.964  18.045   8.192
 1139POPC   C3B18597  28.824  17.990   7.760
 1139POPC   C4B18598  28.891  17.827   7.299
 1140POPC   NC318599  42.878  44.520   9.509
 1140POPC   PO418600  43.353  44.971   9.401
 1140POPC   GL118601  43.209  44.625   9.143
 1140POPC   GL218602  42.958  44.848   9.095
 1140POPC   C1A18603  43.260  44.615   8.711
 1140POPC   D2A18604  43.469  44.759   8.343
 1140POPC   C3A18605  43.488  44.480   7.992
 1140POPC   C4A18606  43.174  44.474   7.647
 1140POPC   C1B18607  43.078   0.107   8.750
 1140POPC   C2B18608  43.007  44.966   8.362
 1140POPC   C3B18609  42.944  44.720   8.029
 1140POPC   C4B18610  42.891  44.888   7.621
 1141POPC   NC318611  43.476  30.065   9.550
 1141POPC   PO418612  44.070  29.926   9.632
 1141POPC   GL118613  43.849  29.976   9.189
 1141POPC   GL218614  43.499  29.925   9.050
 1141POPC   C1A18615  43.905  29.859   8.762
 1141POPC   D2A18616  44.029  29.541   8.501
 1141POPC   C3A18617  44.068  29.742   8.118
 1141POPC   C4A18618  44.160  29.912   7.721
 1141POPC   C1B18619  43.423  30.050   8.656
 1141POPC   C2B18620  43.617  30.197   8.289
 1141POPC   C3B18621  43.683  30.026   7.891
 1141POPC   C4B18622  43.722  29.771   7.523
 1142POPC   NC318623  25.568  29.841   9.530
 1142POPC   PO418624  25.103  30.276   9.686
 1142POPC   GL118625  25.244  30.200   9.265
 1142POPC   GL218626  25.013  29.940   9.128
 1142POPC   C1A18627  25.406  30.113   8.849
 1142POPC   D2A18628  25.259  30.014   8.467
 1142POPC   C3A18629  25.483  30.057   8.104
 1142POPC   C4A18630  25.422  30.162   7.688
 1142POPC   C1B18631  25.144  29.620   8.774
 1142POPC   C2B18632  25.064  29.575   8.305
 1142POPC   C3B18633  25.171  29.726   7.857
 1142POPC   C4B18634  24.954  29.794   7.442
 1143POPC   NC318635  37.585  20.976   9.456
 1143POPC   PO418636  37.520  21.634   9.390
 1143POPC   GL118637  37.636  21.338   9.088
 1143POPC   GL218638  37.321  21.184   9.062
 1143POPC   C1A18639  37.841  21.261   8.684
 1143POPC   D2A18640  37.816  21.528   8.310
 1143POPC   C3A18641  37.689  21.321   7.942
 1143POPC   C4A18642  37.688  21.130   7.546
 1143POPC   C1B18643  37.346  21.432   8.657
 1143POPC   C2B18644  37.257  21.447   8.207
 1143POPC   C3B18645  37.229  21.495   7.738
 1143POPC   C4B18646  37.473  21.589   7.369
 1144POPC   NC318647  18.105  22.561   9.379
 1144POPC   PO418648  18.225  21.941   9.680
 1144POPC   GL118649  18.357  21.898   9.228
 1144POPC   GL218650  18.409  22.221   9.165
 1144POPC   C1A18651  18.146  22.000   8.785
 1144POPC   D2A18652  18.045  22.272   8.420
 1144POPC   C3A18653  18.098  21.988   8.072
 1144POPC   C4A18654  17.798  21.833   7.802
 1144POPC   C1B18655  18.648  22.098   8.817
 1144POPC   C2B18656  18.548  22.169   8.405
 1144POPC   C3B18657  18.422  22.384   8.058
 1144POPC   C4B18658  18.558  22.096   7.766
 1145POPC   NC318659  34.109  23.121   9.449
 1145POPC   PO418660  33.434  22.861   9.400
 1145POPC   GL118661  33.766  23.000   9.105
 1145POPC   GL218662  33.978  22.716   9.075
 1145POPC   C1A18663  33.957  23.265   8.780
 1145POPC   D2A18664  33.726  23.242   8.399
 1145POPC   C3A18665  33.965  23.219   8.043
 1145POPC   C4A18666  33.609  23.042   7.844
 1145POPC   C1B18667  33.838  22.787   8.637
 1145POPC   C2B18668  33.924  22.743   8.207
 1145POPC   C3B18669  33.971  22.722   7.766
 1145POPC   C4B18670  33.940  22.684   7.305
 1146POPC   NC318671  37.447  38.815   9.538
 1146POPC   PO418672  37.881  39.326   9.647
 1146POPC   GL118673  37.857  39.100   9.235
 1146POPC   GL218674  37.524  39.030   9.064
 1146POPC   C1A18675  37.966  39.032   8.783
 1146POPC   D2A18676  37.842  38.859   8.371
 1146POPC   C3A18677  37.794  39.079   7.978
 1146POPC   C4A18678  38.002  39.172   7.623
 1146POPC   C1B18679  37.560  39.343   8.730
 1146POPC   C2B18680  37.747  39.393   8.370
 1146POPC   C3B18681  37.547  39.525   8.004
 1146POPC   C4B18682  37.423  39.415   7.613
 1147POPC   NC318683  35.552  43.977   9.367
 1147POPC   PO418684  35.091  43.530   9.383
 1147POPC   GL118685  35.090  43.879   9.095
 1147POPC   GL218686  35.367  43.742   8.962
 1147POPC   C1A18687  35.195  44.107   8.684
 1147POPC   D2A18688  35.138  43.946   8.259
 1147POPC   C3A18689  35.283  43.998   7.840
 1147POPC   C4A18690  35.686  44.153   7.697
 1147POPC   C1B18691  35.279  43.577   8.596
 1147POPC   C2B18692  35.142  43.440   8.207
 1147POPC   C3B18693  35.238  43.452   7.774
 1147POPC   C4B18694  35.297  43.347   7.323
 1148POPC   NC318695   4.797  35.084   9.560
 1148POPC   PO418696   4.144  35.037   9.434
 1148POPC   GL118697   4.484  35.320   9.226
 1148POPC   GL218698   4.728  35.097   9.050
 1148POPC   C1A18699   4.557  35.548   8.841
 1148POPC   D2A18700   4.256  35.540   8.464
 1148POPC   C3A18701   4.351  35.343   8.050
 1148POPC   C4A18702   4.187  35.371   7.638
 1148POPC   C1B18703   4.524  35.082   8.643
 1148POPC   C2B18704   4.665  34.969   8.232
 1148POPC   C3B18705   4.434  34.739   7.930
 1148POPC   C4B18706   4.034  34.916   7.824
 1149POPC   NC318707  13.695  44.194   9.495
 1149POPC   PO418708  14.168  43.701   9.382
 1149POPC   GL118709  13.773  43.825   9.155
 1149POPC   GL218710  13.405  43.984   9.141
 1149POPC   C1A18711  13.617  43.675   8.812
 1149POPC   D2A18712  13.584  43.828   8.448
 1149POPC   C3A18713  13.896  43.728   8.191
 1149POPC   C4A18714  13.646  43.949   7.893
 1149POPC   C1B18715  13.564  44.205   8.823
 1149POPC   C2B18716  13.633  44.366   8.431
 1149POPC   C3B18717  13.536  44.440   8.033
 1149POPC   C4B18718  13.372  44.299   7.654
 1150POPC   NC318719  10.532  43.136   9.619
 1150POPC   PO418720   9.917  43.090   9.496
 1150POPC   GL118721  10.283  43.014   9.201
 1150POPC   GL218722  10.498  43.313   9.140
 1150POPC   C1A18723  10.470  42.943   8.770
 1150POPC   D2A18724  10.777  42.824   8.470
 1150POPC   C3A18725  10.921  43.119   8.203
 1150POPC   C4A18726  10.698  43.294   7.873
 1150POPC   C1B18727  10.712  43.423   8.755
 1150POPC   C2B18728  10.485  43.345   8.383
 1150POPC   C3B18729  10.355  43.013   8.160
 1150POPC   C4B18730  10.235  42.890   7.750
 1151POPC   NC318731  35.152  25.912   9.327
 1151POPC   PO418732  35.551  26.505   9.430
 1151POPC   GL118733  35.371  26.300   9.066
 1151POPC   GL218734  35.036  26.372   9.064
 1151POPC   C1A18735  35.365  26.000   8.696
 1151POPC   D2A18736  35.575  26.010   8.296
 1151POPC   C3A18737  35.472  25.883   7.904
 1151POPC   C4A18738  35.107  25.734   7.782
 1151POPC   C1B18739  35.072  26.397   8.599
 1151POPC   C2B18740  35.090  26.204   8.191
 1151POPC   C3B18741  35.234  26.344   7.795
 1151POPC   C4B18742  35.582  26.207   7.503
 1152POPC   NC318743  15.633  36.075   9.451
 1152POPC   PO418744  15.055  36.480   9.478
 1152POPC   GL118745  15.185  36.199   9.169
 1152POPC   GL218746  14.994  36.376   8.928
 1152POPC   C1A18747  15.406  36.136   8.776
 1152POPC   D2A18748  15.164  36.108   8.419
 1152POPC   C3A18749  15.329  36.136   7.986
 1152POPC   C4A18750  15.206  35.830   7.693
 1152POPC   C1B18751  15.104  36.610   8.567
 1152POPC   C2B18752  14.944  36.482   8.163
 1152POPC   C3B18753  14.928  36.399   7.739
 1152POPC   C4B18754  14.609  36.341   7.449
 1153POPC   NC318755  43.047   3.343   9.479
 1153POPC   PO418756  43.300   3.956   9.449
 1153POPC   GL118757  43.038   3.768   9.133
 1153POPC   GL218758  43.270   3.591   9.082
 1153POPC   C1A18759  43.039   3.867   8.706
 1153POPC   D2A18760  43.329   3.788   8.382
 1153POPC   C3A18761  43.091   3.672   8.021
 1153POPC   C4A18762  42.840   3.911   7.726
 1153POPC   C1B18763  43.149   3.371   8.691
 1153POPC   C2B18764  43.279   3.160   8.317
 1153POPC   C3B18765  43.165   3.180   7.885
 1153POPC   C4B18766  42.964   3.424   7.574
 1154POPC   NC318767  31.682   2.482   9.725
 1154POPC   PO418768  31.168   2.285   9.618
 1154POPC   GL118769  31.395   2.485   9.266
 1154POPC   GL218770  31.361   2.318   8.928
 1154POPC   C1A18771  31.429   2.824   8.931
 1154POPC   D2A18772  31.408   3.076   8.522
 1154POPC   C3A18773  31.354   2.892   8.102
 1154POPC   C4A18774  31.431   2.583   7.804
 1154POPC   C1B18775  31.193   2.572   8.542
 1154POPC   C2B18776  30.978   2.548   8.126
 1154POPC   C3B18777  31.008   2.299   7.733
 1154POPC   C4B18778  31.296   2.315   7.360
 1155POPC   NC318779  35.436  24.755   9.386
 1155POPC   PO418780  35.076  24.234   9.510
 1155POPC   GL118781  35.326  24.300   9.164
 1155POPC   GL218782  35.081  24.572   9.068
 1155POPC   C1A18783  35.507  24.445   8.757
 1155POPC   D2A18784  35.616  24.340   8.318
 1155POPC   C3A18785  35.348  24.312   7.970
 1155POPC   C4A18786  35.459  24.631   7.712
 1155POPC   C1B18787  35.033  24.258   8.762
 1155POPC   C2B18788  35.117  24.495   8.402
 1155POPC   C3B18789  35.152  24.794   8.097
 1155POPC   C4B18790  35.016  24.896   7.703
 1156POPC   NC318791  42.940  42.899   9.843
 1156POPC   PO418792  43.354  43.417   9.698
 1156POPC   GL118793  43.229  43.164   9.319
 1156POPC   GL218794  42.946  42.907   9.324
 1156POPC   C1A18795  43.113  43.102   8.873
 1156POPC   D2A18796  42.859  43.063   8.492
 1156POPC   C3A18797  43.116  43.175   8.120
 1156POPC   C4A18798  43.471  43.248   7.800
 1156POPC   C1B18799  42.832  42.676   8.933
 1156POPC   C2B18800  42.824  42.553   8.493
 1156POPC   C3B18801  42.931  42.682   8.099
 1156POPC   C4B18802  42.823  42.934   7.765
 1157POPC   NC318803  30.252  24.134   9.332
 1157POPC   PO418804  30.233  23.434   9.412
 1157POPC   GL118805  30.535  23.720   9.136
 1157POPC   GL218806  30.908  23.746   9.120
 1157POPC   C1A18807  30.620  23.785   8.674
 1157POPC   D2A18808  30.803  23.592   8.292
 1157POPC   C3A18809  30.596  23.655   7.878
 1157POPC   C4A18810  30.316  23.979   7.635
 1157POPC   C1B18811  31.053  24.023   8.794
 1157POPC   C2B18812  31.060  24.039   8.357
 1157POPC   C3B18813  30.804  24.135   8.021
 1157POPC   C4B18814  30.835  23.998   7.601
 1158POPC   NC318815  10.423  22.112   9.658
 1158POPC   PO418816  10.353  22.607   9.190
 1158POPC   GL118817  10.450  22.167   9.150
 1158POPC   GL218818  10.794  22.098   9.228
 1158POPC   C1A18819  10.526  21.884   8.811
 1158POPC   D2A18820  10.290  22.014   8.456
 1158POPC   C3A18821  10.457  22.001   8.044
 1158POPC   C4A18822  10.402  22.144   7.604
 1158POPC   C1B18823  10.936  22.187   8.778
 1158POPC   C2B18824  10.847  22.062   8.372
 1158POPC   C3B18825  10.939  22.162   7.912
 1158POPC   C4B18826  11.030  22.487   7.586
 1159POPC   NC318827  26.988   3.819   9.555
 1159POPC   PO418828  27.128   3.225   9.778
 1159POPC   GL118829  26.922   3.299   9.321
 1159POPC   GL218830  26.907   3.607   9.100
 1159POPC   C1A18831  26.839   3.176   8.820
 1159POPC   D2A18832  27.011   3.151   8.366
 1159POPC   C3A18833  26.797   3.324   7.990
 1159POPC   C4A18834  26.868   3.387   7.555
 1159POPC   C1B18835  26.958   3.819   8.682
 1159POPC   C2B18836  26.932   3.754   8.226
 1159POPC   C3B18837  27.110   3.891   7.824
 1159POPC   C4B18838  26.940   3.870   7.393
 1160POPC   NC318839  40.702  19.214   9.586
 1160POPC   PO418840  40.771  18.630   9.453
 1160POPC   GL118841  40.757  18.919   9.078
 1160POPC   GL218842  40.832  19.289   9.071
 1160POPC   C1A18843  40.656  18.984   8.623
 1160POPC   D2A18844  40.920  18.887   8.289
 1160POPC   C3A18845  40.729  18.857   7.930
 1160POPC   C4A18846  40.316  18.869   7.727
 1160POPC   C1B18847  40.860  19.456   8.630
 1160POPC   C2B18848  40.791  19.375   8.178
 1160POPC   C3B18849  40.670  19.345   7.753
 1160POPC   C4B18850  40.594  19.381   7.317
 1161POPC   NC318851  13.850  20.951   9.418
 1161POPC   PO418852  13.355  20.569   9.623
 1161POPC   GL118853  13.478  20.602   9.195
 1161POPC   GL218854  13.534  20.869   9.059
 1161POPC   C1A18855  13.511  20.536   8.687
 1161POPC   D2A18856  13.771  20.601   8.299
 1161POPC   C3A18857  13.727  20.476   7.859
 1161POPC   C4A18858  13.387  20.510   7.542
 1161POPC   C1B18859  13.754  20.992   8.685
 1161POPC   C2B18860  13.520  21.058   8.296
 1161POPC   C3B18861  13.414  20.898   7.885
 1161POPC   C4B18862  13.759  20.888   7.547
 1162POPC   NC318863  30.830  42.326   9.594
 1162POPC   PO418864  31.477  42.196   9.585
 1162POPC   GL118865  31.267  42.318   9.254
 1162POPC   GL218866  31.142  42.029   9.138
 1162POPC   C1A18867  31.265  42.394   8.803
 1162POPC   D2A18868  31.583  42.304   8.492
 1162POPC   C3A18869  31.487  42.403   8.070
 1162POPC   C4A18870  31.469  42.728   7.767
 1162POPC   C1B18871  31.537  41.919   8.873
 1162POPC   C2B18872  31.643  41.801   8.403
 1162POPC   C3B18873  31.699  41.939   7.950
 1162POPC   C4B18874  31.712  42.183   7.533
 1163POPC   NC318875  14.860  37.846   9.514
 1163POPC   PO418876  15.377  37.480   9.697
 1163POPC   GL118877  15.451  37.466   9.234
 1163POPC   GL218878  15.694  37.721   9.176
 1163POPC   C1A18879  15.242  37.649   8.834
 1163POPC   D2A18880  15.024  37.567   8.390
 1163POPC   C3A18881  15.212  37.712   7.971
 1163POPC   C4A18882  15.183  37.607   7.511
 1163POPC   C1B18883  15.758  37.570   8.804
 1163POPC   C2B18884  15.543  37.482   8.461
 1163POPC   C3B18885  15.636  37.444   8.074
 1163POPC   C4B18886  15.431  37.234   7.766
 1164POPC   NC318887  29.537  29.994   9.398
 1164POPC   PO418888  28.871  29.597   9.438
 1164POPC   GL118889  29.074  29.787   9.066
 1164POPC   GL218890  28.941  30.108   8.882
 1164POPC   C1A18891  29.068  29.693   8.638
 1164POPC   D2A18892  29.263  29.841   8.308
 1164POPC   C3A18893  29.065  30.035   8.018
 1164POPC   C4A18894  29.034  29.856   7.652
 1164POPC   C1B18895  29.401  30.100   8.735
 1164POPC   C2B18896  29.579  30.241   8.350
 1164POPC   C3B18897  29.560  30.135   7.923
 1164POPC   C4B18898  29.273  30.315   7.610
 1165POPC   NC318899   5.416   5.922   9.380
 1165POPC   PO418900   4.905   6.296   9.496
 1165POPC   GL118901   5.071   6.168   9.066
 1165POPC   GL218902   4.982   5.813   9.104
 1165POPC   C1A18903   5.288   5.907   8.710
 1165POPC   D2A18904   5.487   5.721   8.337
 1165POPC   C3A18905   5.324   5.856   7.968
 1165POPC   C4A18906   5.461   5.669   7.623
 1165POPC   C1B18907   4.785   5.919   8.700
 1165POPC   C2B18908   4.960   6.072   8.307
 1165POPC   C3B18909   4.833   5.978   7.894
 1165POPC   C4B18910   4.526   5.675   7.739
 1166POPC   NC318911  37.863  41.409   9.535
 1166POPC   PO418912  37.878  40.734   9.624
 1166POPC   GL118913  37.782  40.967   9.209
 1166POPC   GL218914  37.473  41.179   9.206
 1166POPC   C1A18915  37.577  40.745   8.833
 1166POPC   D2A18916  37.589  40.477   8.435
 1166POPC   C3A18917  37.578  40.665   8.018
 1166POPC   C4A18918  37.646  40.641   7.561
 1166POPC   C1B18919  37.560  41.255   8.769
 1166POPC   C2B18920  37.772  41.028   8.426
 1166POPC   C3B18921  37.875  41.104   8.002
 1166POPC   C4B18922  37.647  41.148   7.630
 1167POPC   NC318923  13.004  43.322   9.529
 1167POPC   PO418924  12.573  42.744   9.495
 1167POPC   GL118925  12.763  42.923   9.148
 1167POPC   GL218926  13.076  43.076   9.088
 1167POPC   C1A18927  12.704  43.096   8.728
 1167POPC   D2A18928  12.746  42.937   8.311
 1167POPC   C3A18929  12.780  43.268   8.072
 1167POPC   C4A18930  12.514  43.182   7.761
 1167POPC   C1B18931  13.181  43.420   8.836
 1167POPC   C2B18932  13.113  43.546   8.399
 1167POPC   C3B18933  13.345  43.568   8.034
 1167POPC   C4B18934  13.159  43.379   7.699
 1168POPC   NC318935  16.650  15.038   9.593
 1168POPC   PO418936  17.208  15.072   9.542
 1168POPC   GL118937  16.914  15.087   9.138
 1168POPC   GL218938  16.532  15.143   9.105
 1168POPC   C1A18939  16.855  15.084   8.656
 1168POPC   D2A18940  17.013  14.958   8.218
 1168POPC   C3A18941  16.700  14.925   7.893
 1168POPC   C4A18942  16.232  14.876   7.851
 1168POPC   C1B18943  16.347  15.218   8.681
 1168POPC   C2B18944  16.422  15.171   8.231
 1168POPC   C3B18945  16.399  15.343   7.768
 1168POPC   C4B18946  16.532  15.486   7.349
 1169POPC   NC318947   3.746  37.185   9.875
 1169POPC   PO418948   3.965  36.636   9.497
 1169POPC   GL118949   3.673  36.904   9.259
 1169POPC   GL218950   3.392  36.704   9.202
 1169POPC   C1A18951   3.609  37.140   8.841
 1169POPC   D2A18952   3.517  37.298   8.412
 1169POPC   C3A18953   3.662  37.133   8.021
 1169POPC   C4A18954   3.715  37.006   7.615
 1169POPC   C1B18955   3.637  36.635   8.811
 1169POPC   C2B18956   3.530  36.763   8.391
 1169POPC   C3B18957   3.528  36.626   7.953
 1169POPC   C4B18958   3.297  36.693   7.598
 1170POPC   NC318959  40.094  29.197   9.477
 1170POPC   PO418960  39.491  29.445   9.496
 1170POPC   GL118961  39.686  29.147   9.190
 1170POPC   GL218962  39.838  29.432   9.078
 1170POPC   C1A18963  39.850  28.996   8.784
 1170POPC   D2A18964  40.116  29.060   8.384
 1170POPC   C3A18965  40.119  28.759   8.041
 1170POPC   C4A18966  39.806  28.741   7.725
 1170POPC   C1B18967  40.108  29.464   8.731
 1170POPC   C2B18968  40.428  29.493   8.402
 1170POPC   C3B18969  40.361  29.469   7.963
 1170POPC   C4B18970  40.045  29.208   7.761
 1171POPC   NC318971   6.492  17.159   9.423
 1171POPC   PO418972   7.095  17.438   9.555
 1171POPC   GL118973   6.972  17.291   9.169
 1171POPC   GL218974   6.712  17.533   9.134
 1171POPC   C1A18975   6.804  17.210   8.757
 1171POPC   D2A18976   6.709  17.045   8.363
 1171POPC   C3A18977   6.653  17.280   7.987
 1171POPC   C4A18978   6.970  17.135   7.721
 1171POPC   C1B18979   6.752  17.766   8.781
 1171POPC   C2B18980   6.725  17.595   8.399
 1171POPC   C3B18981   6.976  17.656   8.039
 1171POPC   C4B18982   6.780  17.656   7.623
 1172POPC   NC318983  22.537  11.044   9.226
 1172POPC   PO418984  22.600  11.633   9.559
 1172POPC   GL118985  22.448  11.546   9.125
 1172POPC   GL218986  22.155  11.368   9.107
 1172POPC   C1A18987  22.514  11.384   8.673
 1172POPC   D2A18988  22.314  11.212   8.311
 1172POPC   C3A18989  22.288  11.504   8.012
 1172POPC   C4A18990  22.177  11.611   7.632
 1172POPC   C1B18991  22.038  11.161   8.736
 1172POPC   C2B18992  21.931  10.889   8.380
 1172POPC   C3B18993  21.849  11.009   7.932
 1172POPC   C4B18994  21.840  10.967   7.436
 1173POPC   NC318995  39.376   7.980   9.544
 1173POPC   PO418996  38.865   8.463   9.727
 1173POPC   GL118997  39.008   8.321   9.243
 1173POPC   GL218998  39.142   8.620   9.042
 1173POPC   C1A18999  39.306   8.188   8.866
 1173POPC   D2A19000  39.204   8.347   8.433
 1173POPC   C3A19001  39.383   8.166   8.022
 1173POPC   C4A19002  39.245   7.897   7.671
 1173POPC   C1B19003  38.833   8.644   8.719
 1173POPC   C2B19004  38.803   8.715   8.243
 1173POPC   C3B19005  38.874   8.363   7.988
 1173POPC   C4B19006  38.951   8.307   7.551
 1174POPC   NC319007  21.963  26.602   9.848
 1174POPC   PO419008  21.370  26.640   9.555
 1174POPC   GL119009  21.331  26.865   9.166
 1174POPC   GL219010  21.606  27.090   9.091
 1174POPC   C1A19011  21.321  26.727   8.737
 1174POPC   D2A19012  21.146  26.776   8.335
 1174POPC   C3A19013  21.300  26.627   7.904
 1174POPC   C4A19014  21.212  26.692   7.442
 1174POPC   C1B19015  21.799  27.319   8.782
 1174POPC   C2B19016  21.896  27.191   8.374
 1174POPC   C3B19017  21.634  26.974   8.067
 1174POPC   C4B19018  21.476  27.078   7.663
 1175POPC   NC319019  34.315  34.324   9.527
 1175POPC   PO419020  34.759  34.711   9.532
 1175POPC   GL119021  34.620  34.561   9.164
 1175POPC   GL219022  34.297  34.761   9.171
 1175POPC   C1A19023  34.394  34.386   8.817
 1175POPC   D2A19024  34.306  34.566   8.430
 1175POPC   C3A19025  34.520  34.385   8.127
 1175POPC   C4A19026  34.373  34.153   7.832
 1175POPC   C1B19027  34.493  34.904   8.763
 1175POPC   C2B19028  34.730  34.914   8.349
 1175POPC   C3B19029  34.632  34.822   7.900
 1175POPC   C4B19030  34.779  34.793   7.479
 1176POPC   NC319031  44.425  17.929   9.994
 1176POPC   PO419032  44.503  17.399   9.506
 1176POPC   GL119033  44.844  17.386   9.188
 1176POPC   GL219034   0.148  17.172   9.151
 1176POPC   C1A19035  44.808  17.538   8.784
 1176POPC   D2A19036  44.624  17.734   8.477
 1176POPC   C3A19037  44.541  17.556   8.127
 1176POPC   C4A19038  44.709  17.518   7.729
 1176POPC   C1B19039   0.256  17.332   8.730
 1176POPC   C2B19040  44.966  17.319   8.342
 1176POPC   C3B19041   0.058  17.137   7.953
 1176POPC   C4B19042   0.042  17.155   7.534
 1177POPC   NC319043  32.915  43.545   9.531
 1177POPC   PO419044  32.838  44.201   9.260
 1177POPC   GL119045  33.111  43.875   9.095
 1177POPC   GL219046  33.302  43.544   9.164
 1177POPC   C1A19047  33.050  43.774   8.680
 1177POPC   D2A19048  32.860  43.695   8.314
 1177POPC   C3A19049  33.082  43.797   7.957
 1177POPC   C4A19050  33.150  44.183   7.745
 1177POPC   C1B19051  33.370  43.377   8.722
 1177POPC   C2B19052  33.311  43.412   8.275
 1177POPC   C3B19053  33.561  43.559   7.947
 1177POPC   C4B19054  33.562  43.511   7.518
 1178POPC   NC319055  16.144  10.354   9.524
 1178POPC   PO419056  16.786  10.531   9.574
 1178POPC   GL119057  16.718  10.424   9.161
 1178POPC   GL219058  16.392  10.394   9.096
 1178POPC   C1A19059  16.874  10.235   8.785
 1178POPC   D2A19060  16.729  10.247   8.361
 1178POPC   C3A19061  16.809  10.517   8.038
 1178POPC   C4A19062  16.906  10.183   7.765
 1178POPC   C1B19063  16.444  10.485   8.686
 1178POPC   C2B19064  16.329  10.553   8.266
 1178POPC   C3B19065  16.301  10.586   7.860
 1178POPC   C4B19066  16.484  10.384   7.531
 1179POPC   NC319067  41.514  24.511   9.728
 1179POPC   PO419068  42.070  24.891   9.742
 1179POPC   GL119069  41.718  24.813   9.381
 1179POPC   GL219070  41.756  24.455   9.257
 1179POPC   C1A19071  41.536  24.797   8.939
 1179POPC   D2A19072  41.300  24.523   8.642
 1179POPC   C3A19073  41.351  24.555   8.207
 1179POPC   C4A19074  41.313  24.419   7.793
 1179POPC   C1B19075  41.770  24.323   8.821
 1179POPC   C2B19076  41.837  24.523   8.426
 1179POPC   C3B19077  41.802  24.449   7.996
 1179POPC   C4B19078  41.677  24.072   7.826
 1180POPC   NC319079  33.478  26.599   9.339
 1180POPC   PO419080  33.972  26.939   9.669
 1180POPC   GL119081  33.963  26.748   9.286
 1180POPC   GL219082  33.738  27.003   9.137
 1180POPC   C1A19083  33.952  26.657   8.838
 1180POPC   D2A19084  33.675  26.810   8.524
 1180POPC   C3A19085  33.657  26.519   8.192
 1180POPC   C4A19086  33.798  26.599   7.773
 1180POPC   C1B19087  33.403  27.129   8.847
 1180POPC   C2B19088  33.401  27.266   8.412
 1180POPC   C3B19089  33.552  27.023   8.042
 1180POPC   C4B19090  33.642  27.041   7.597
 1181POPC   NC319091  15.140  44.594   9.686
 1181POPC   PO419092  14.817  44.682   9.150
 1181POPC   GL119093  15.254  44.569   9.105
 1181POPC   GL219094  15.398  44.907   9.187
 1181POPC   C1A19095  15.277  44.418   8.649
 1181POPC   D2A19096  14.887  44.572   8.411
 1181POPC   C3A19097  14.921  44.686   7.964
 1181POPC   C4A19098  15.290  44.759   7.781
 1181POPC   C1B19099  15.416  44.900   8.738
 1181POPC   C2B19100  15.302  44.947   8.288
 1181POPC   C3B19101  15.583   0.127   7.963
 1181POPC   C4B19102  15.725  44.938   7.562
 1182POPC   NC319103  25.957  21.035   9.451
 1182POPC   PO419104  26.537  21.464   9.510
 1182POPC   GL119105  26.248  21.433   9.158
 1182POPC   GL219106  25.912  21.507   9.146
 1182POPC   C1A19107  26.106  21.229   8.765
 1182POPC   D2A19108  25.818  21.096   8.450
 1182POPC   C3A19109  25.992  21.162   8.068
 1182POPC   C4A19110  26.161  21.218   7.661
 1182POPC   C1B19111  25.763  21.611   8.709
 1182POPC   C2B19112  25.849  21.750   8.289
 1182POPC   C3B19113  25.940  21.633   7.857
 1182POPC   C4B19114  25.839  21.582   7.388
 1183POPC   NC319115   9.352  35.446   9.341
 1183POPC   PO419116   9.967  35.321   9.485
 1183POPC   GL119117   9.803  35.349   9.113
 1183POPC   GL219118   9.709  35.037   9.150
 1183POPC   C1A19119   9.965  35.216   8.727
 1183POPC   D2A19120  10.205  35.326   8.394
 1183POPC   C3A19121  10.044  35.261   8.009
 1183POPC   C4A19122   9.875  35.533   7.732
 1183POPC   C1B19123   9.474  35.037   8.766
 1183POPC   C2B19124   9.645  35.073   8.357
 1183POPC   C3B19125   9.550  35.227   7.975
 1183POPC   C4B19126   9.721  35.063   7.589
 1184POPC   NC319127   8.546  15.539   9.794
 1184POPC   PO419128   8.249  16.072   9.386
 1184POPC   GL119129   8.221  15.980   8.983
 1184POPC   GL219130   8.034  15.703   8.976
 1184POPC   C1A19131   8.266  15.849   8.564
 1184POPC   D2A19132   8.035  16.029   8.249
 1184POPC   C3A19133   8.212  15.944   7.889
 1184POPC   C4A19134   8.455  16.272   7.722
 1184POPC   C1B19135   7.751  15.813   8.656
 1184POPC   C2B19136   7.685  15.687   8.241
 1184POPC   C3B19137   7.706  15.904   7.843
 1184POPC   C4B19138   7.893  15.683   7.482
 1185POPC   NC319139  30.539  37.712   9.468
 1185POPC   PO419140  30.980  37.916   9.104
 1185POPC   GL119141  30.585  37.833   8.963
 1185POPC   GL219142  30.610  37.490   9.034
 1185POPC   C1A19143  30.438  38.052   8.611
 1185POPC   D2A19144  30.645  38.160   8.224
 1185POPC   C3A19145  30.560  37.987   7.818
 1185POPC   C4A19146  30.947  37.820   7.656
 1185POPC   C1B19147  30.866  37.431   8.706
 1185POPC   C2B19148  30.855  37.692   8.402
 1185POPC   C3B19149  30.809  37.494   8.048
 1185POPC   C4B19150  30.593  37.466   7.717
 1186POPC   NC319151   0.170   6.010   9.415
 1186POPC   PO419152   0.814   6.031   9.475
 1186POPC   GL119153   0.616   5.853   9.121
 1186POPC   GL219154   0.247   5.723   9.008
 1186POPC   C1A19155   0.592   6.098   8.763
 1186POPC   D2A19156   0.425   6.034   8.385
 1186POPC   C3A19157   0.594   6.105   7.980
 1186POPC   C4A19158   0.410   5.802   7.715
 1186POPC   C1B19159   0.539   5.596   8.681
 1186POPC   C2B19160   0.628   5.567   8.262
 1186POPC   C3B19161   0.466   5.337   7.968
 1186POPC   C4B19162   0.540   5.349   7.541
 1187POPC   NC319163  24.858   1.301   9.516
 1187POPC   PO419164  25.490   0.973   9.577
 1187POPC   GL119165  25.208   1.062   9.223
 1187POPC   GL219166  25.507   1.119   9.074
 1187POPC   C1A19167  25.074   1.236   8.800
 1187POPC   D2A19168  25.225   1.302   8.374
 1187POPC   C3A19169  25.016   1.359   7.969
 1187POPC   C4A19170  25.249   1.326   7.576
 1187POPC   C1B19171  25.700   0.900   8.741
 1187POPC   C2B19172  25.697   1.102   8.365
 1187POPC   C3B19173  25.581   1.186   7.969
 1187POPC   C4B19174  25.903   1.038   7.690
 1188POPC   NC319175  36.447   6.331   9.556
 1188POPC   PO419176  36.022   6.876   9.462
 1188POPC   GL119177  36.208   6.757   9.099
 1188POPC   GL219178  36.072   6.427   9.108
 1188POPC   C1A19179  36.466   6.782   8.712
 1188POPC   D2A19180  36.472   6.998   8.307
 1188POPC   C3A19181  36.483   6.862   7.880
 1188POPC   C4A19182  36.127   6.861   7.600
 1188POPC   C1B19183  36.098   6.453   8.661
 1188POPC   C2B19184  36.348   6.464   8.277
 1188POPC   C3B19185  36.167   6.455   7.883
 1188POPC   C4B19186  36.214   6.289   7.463
 1189POPC   NC319187   3.730  41.592   9.911
 1189POPC   PO419188   4.296  41.530   9.487
 1189POPC   GL119189   4.148  41.618   9.119
 1189POPC   GL219190   4.139  41.286   8.943
 1189POPC   C1A19191   4.054  41.719   8.741
 1189POPC   D2A19192   4.101  41.488   8.388
 1189POPC   C3A19193   4.226  41.823   8.101
 1189POPC   C4A19194   4.285  41.688   7.687
 1189POPC   C1B19195   4.517  41.406   8.712
 1189POPC   C2B19196   4.789  41.214   8.369
 1189POPC   C3B19197   4.727  41.188   7.916
 1189POPC   C4B19198   4.788  41.585   7.696
 1190POPC   NC319199  43.210  39.110   9.643
 1190POPC   PO419200  43.485  39.706   9.583
 1190POPC   GL119201  43.321  39.373   9.215
 1190POPC   GL219202  43.069  39.037   9.165
 1190POPC   C1A19203  43.376  39.227   8.772
 1190POPC   D2A19204  43.571  39.193   8.348
 1190POPC   C3A19205  43.293  39.207   7.963
 1190POPC   C4A19206  43.247  39.496   7.579
 1190POPC   C1B19207  42.867  39.273   8.850
 1190POPC   C2B19208  42.901  39.481   8.457
 1190POPC   C3B19209  42.823  39.342   8.054
 1190POPC   C4B19210  42.737  39.334   7.608
 1191POPC   NC319211   3.587  36.373   9.535
 1191POPC   PO419212   4.000  35.933   9.456
 1191POPC   GL119213   3.862  36.194   9.117
 1191POPC   GL219214   3.505  36.217   9.076
 1191POPC   C1A19215   3.776  36.158   8.658
 1191POPC   D2A19216   3.554  36.260   8.301
 1191POPC   C3A19217   3.885  36.197   8.014
 1191POPC   C4A19218   3.942  35.835   7.725
 1191POPC   C1B19219   3.258  36.317   8.729
 1191POPC   C2B19220   3.060  36.537   8.408
 1191POPC   C3B19221   3.010  36.506   7.990
 1191POPC   C4B19222   3.078  36.185   7.696
 1192POPC   NC319223   9.415  15.525   9.544
 1192POPC   PO419224   9.924  15.129   9.482
 1192POPC   GL119225  10.002  15.070   9.065
 1192POPC   GL219226   9.844  15.377   9.030
 1192POPC   C1A19227   9.696  14.929   8.755
 1192POPC   D2A19228   9.515  15.128   8.398
 1192POPC   C3A19229   9.673  14.997   8.025
 1192POPC   C4A19230  10.014  14.924   7.775
 1192POPC   C1B19231   9.429  15.406   8.839
 1192POPC   C2B19232   9.354  15.612   8.432
 1192POPC   C3B19233   9.717  15.607   8.149
 1192POPC   C4B19234   9.792  15.427   7.724
 1193POPC   NC319235  33.238  35.568   9.298
 1193POPC   PO419236  33.100  34.983   9.445
 1193POPC   GL119237  33.033  35.166   9.051
 1193POPC   GL219238  33.400  35.152   9.014
 1193POPC   C1A19239  32.844  35.313   8.639
 1193POPC   D2A19240  32.775  35.182   8.222
 1193POPC   C3A19241  32.882  35.420   7.864
 1193POPC   C4A19242  33.165  35.657   7.615
 1193POPC   C1B19243  33.335  35.455   8.672
 1193POPC   C2B19244  33.216  35.528   8.237
 1193POPC   C3B19245  33.432  35.337   7.884
 1193POPC   C4B19246  33.575  35.442   7.439
 1194POPC   NC319247  10.194   1.518   9.473
 1194POPC   PO419248  10.691   1.171   9.680
 1194POPC   GL119249  10.492   1.166   9.264
 1194POPC   GL219250  10.171   0.981   9.238
 1194POPC   C1A19251  10.368   1.338   8.852
 1194POPC   D2A19252  10.576   1.452   8.469
 1194POPC   C3A19253  10.482   1.225   8.085
 1194POPC   C4A19254  10.362   1.376   7.709
 1194POPC   C1B19255  10.440   0.821   8.885
 1194POPC   C2B19256  10.546   0.875   8.454
 1194POPC   C3B19257  10.621   0.729   8.013
 1194POPC   C4B19258  10.356   0.844   7.639
 1195POPC   NC319259  37.246  24.341   9.446
 1195POPC   PO419260  36.635  24.436   9.316
 1195POPC   GL119261  36.970  24.478   9.051
 1195POPC   GL219262  37.014  24.131   9.039
 1195POPC   C1A19263  37.056  24.686   8.667
 1195POPC   D2A19264  36.930  24.877   8.296
 1195POPC   C3A19265  37.080  24.714   7.907
 1195POPC   C4A19266  36.754  24.630   7.607
 1195POPC   C1B19267  36.812  24.211   8.660
 1195POPC   C2B19268  36.791  24.375   8.256
 1195POPC   C3B19269  36.908  24.236   7.858
 1195POPC   C4B19270  37.168  24.334   7.477
 1196POPC   NC319271  10.821  28.620   9.649
 1196POPC   PO419272  10.713  28.040   9.485
 1196POPC   GL119273  10.696  28.427   9.175
 1196POPC   GL219274  10.833  28.798   9.179
 1196POPC   C1A19275  10.439  28.446   8.781
 1196POPC   D2A19276  10.234  28.172   8.444
 1196POPC   C3A19277  10.230  28.352   8.046
 1196POPC   C4A19278  10.579  28.373   7.805
 1196POPC   C1B19279  10.943  28.640   8.775
 1196POPC   C2B19280  10.773  28.506   8.371
 1196POPC   C3B19281  10.941  28.655   8.003
 1196POPC   C4B19282  10.839  29.000   7.767
 1197POPC   NC319283  41.464  31.499   9.464
 1197POPC   PO419284  42.055  31.161   9.407
 1197POPC   GL119285  41.773  31.304   9.105
 1197POPC   GL219286  41.456  31.090   9.147
 1197POPC   C1A19287  41.759  31.637   8.796
 1197POPC   D2A19288  41.858  31.848   8.404
 1197POPC   C3A19289  41.753  31.647   8.019
 1197POPC   C4A19290  41.823  31.722   7.599
 1197POPC   C1B19291  41.407  31.273   8.744
 1197POPC   C2B19292  41.395  31.527   8.383
 1197POPC   C3B19293  41.344  31.371   7.981
 1197POPC   C4B19294  41.548  31.296   7.578
 1198POPC   NC319295  26.845  40.143   9.630
 1198POPC   PO419296  26.483  39.564   9.641
 1198POPC   GL119297  26.534  39.773   9.215
 1198POPC   GL219298  26.690  40.105   9.169
 1198POPC   C1A19299  26.766  39.756   8.794
 1198POPC   D2A19300  27.037  39.896   8.441
 1198POPC   C3A19301  26.843  40.096   8.084
 1198POPC   C4A19302  26.971  40.027   7.704
 1198POPC   C1B19303  26.921  40.239   8.846
 1198POPC   C2B19304  26.727  40.344   8.505
 1198POPC   C3B19305  26.899  40.599   8.215
 1198POPC   C4B19306  26.979  40.535   7.787
 1199POPC   NC319307  15.928   9.666   9.643
 1199POPC   PO419308  16.499  10.038   9.600
 1199POPC   GL119309  16.156   9.903   9.232
 1199POPC   GL219310  15.970   9.568   9.160
 1199POPC   C1A19311  15.918   9.904   8.783
 1199POPC   D2A19312  15.709   9.954   8.365
 1199POPC   C3A19313  15.821   9.752   7.960
 1199POPC   C4A19314  16.011   9.910   7.584
 1199POPC   C1B19315  16.214   9.502   8.800
 1199POPC   C2B19316  16.090   9.585   8.382
 1199POPC   C3B19317  16.296   9.582   8.002
 1199POPC   C4B19318  16.152   9.412   7.639
 1200POPC   NC319319  16.866  11.882   9.495
 1200POPC   PO419320  16.468  12.469   9.494
 1200POPC   GL119321  16.626  12.172   9.145
 1200POPC   GL219322  16.522  11.800   9.127
 1200POPC   C1A19323  16.531  12.154   8.714
 1200POPC   D2A19324  16.740  12.048   8.339
 1200POPC   C3A19325  16.474  12.074   7.958
 1200POPC   C4A19326  16.428  12.372   7.613
 1200POPC   C1B19327  16.643  11.669   8.720
 1200POPC   C2B19328  16.760  11.518   8.297
 1200POPC   C3B19329  16.889  11.778   7.934
 1200POPC   C4B19330  16.717  11.816   7.504
 1201POPC   NC319331  22.736  43.657   9.430
 1201POPC   PO419332  22.429  44.235   9.430
 1201POPC   GL119333  22.723  44.086   9.119
 1201POPC   GL219334  23.092  44.025   9.112
 1201POPC   C1A19335  22.700  43.805   8.780
 1201POPC   D2A19336  22.818  43.694   8.390
 1201POPC   C3A19337  22.737  43.952   8.072
 1201POPC   C4A19338  22.508  43.876   7.728
 1201POPC   C1B19339  23.214  43.845   8.688
 1201POPC   C2B19340  23.236  43.888   8.192
 1201POPC   C3B19341  23.153  43.880   7.734
 1201POPC   C4B19342  23.208  43.901   7.255
 1202POPC   NC319343  10.979  16.015   9.420
 1202POPC   PO419344  11.577  15.722   9.576
 1202POPC   GL119345  11.411  15.792   9.156
 1202POPC   GL219346  11.107  15.593   9.125
 1202POPC   C1A19347  11.419  16.041   8.749
 1202POPC   D2A19348  11.111  16.052   8.372
 1202POPC   C3A19349  11.292  16.145   7.957
 1202POPC   C4A19350  11.486  15.847   7.717
 1202POPC   C1B19351  11.103  15.647   8.717
 1202POPC   C2B19352  11.041  15.503   8.322
 1202POPC   C3B19353  11.076  15.609   7.894
 1202POPC   C4B19354  11.051  15.683   7.450
 1203POPC   NC319355  43.334  31.875   9.479
 1203POPC   PO419356  43.948  32.095   9.758
 1203POPC   GL119357  43.872  32.229   9.248
 1203POPC   GL219358  43.557  32.122   9.093
 1203POPC   C1A19359  43.866  32.230   8.722
 1203POPC   D2A19360  43.710  32.050   8.275
 1203POPC   C3A19361  43.795  32.338   7.892
 1203POPC   C4A19362  44.038  32.636   7.596
 1203POPC   C1B19363  43.307  31.867   8.802
 1203POPC   C2B19364  43.374  31.659   8.411
 1203POPC   C3B19365  43.246  31.805   8.030
 1203POPC   C4B19366  43.512  31.956   7.671
 1204POPC   NC319367  41.075   7.167   9.605
 1204POPC   PO419368  40.523   7.427   9.454
 1204POPC   GL119369  40.666   7.498   9.123
 1204POPC   GL219370  40.785   7.149   9.128
 1204POPC   C1A19371  40.850   7.624   8.778
 1204POPC   D2A19372  40.819   7.398   8.434
 1204POPC   C3A19373  40.528   7.524   8.126
 1204POPC   C4A19374  40.679   7.641   7.727
 1204POPC   C1B19375  40.490   7.144   8.815
 1204POPC   C2B19376  40.523   6.998   8.442
 1204POPC   C3B19377  40.707   7.060   8.061
 1204POPC   C4B19378  40.555   7.132   7.694
 1205POPC   NC319379  21.370   2.934   9.997
 1205POPC   PO419380  21.105   2.442   9.751
 1205POPC   GL119381  21.176   2.370   9.265
 1205POPC   GL219382  21.511   2.301   9.114
 1205POPC   C1A19383  20.980   2.649   8.921
 1205POPC   D2A19384  20.992   2.710   8.447
 1205POPC   C3A19385  21.265   2.561   8.085
 1205POPC   C4A19386  21.256   2.704   7.679
 1205POPC   C1B19387  21.393   2.456   8.705
 1205POPC   C2B19388  21.604   2.740   8.402
 1205POPC   C3B19389  21.694   2.834   7.946
 1205POPC   C4B19390  21.742   2.589   7.546
 1206POPC   NC319391  43.612  19.721   9.543
 1206POPC   PO419392  43.927  20.319   9.435
 1206POPC   GL119393  43.706  19.994   9.115
 1206POPC   GL219394  43.789  19.597   9.090
 1206POPC   C1A19395  43.769  19.871   8.653
 1206POPC   D2A19396  43.770  19.941   8.197
 1206POPC   C3A19397  44.012  19.702   7.902
 1206POPC   C4A19398  44.063  20.074   7.681
 1206POPC   C1B19399  43.716  19.318   8.730
 1206POPC   C2B19400  43.602  19.476   8.330
 1206POPC   C3B19401  43.542  19.527   7.911
 1206POPC   C4B19402  43.738  19.399   7.518
 1207POPC   NC319403  23.328  30.801   9.366
 1207POPC   PO419404  22.725  30.893   9.683
 1207POPC   GL119405  22.735  30.929   9.199
 1207POPC   GL219406  23.029  31.041   8.975
 1207POPC   C1A19407  22.844  30.592   8.858
 1207POPC   D2A19408  22.849  30.248   8.553
 1207POPC   C3A19409  23.011  30.366   8.146
 1207POPC   C4A19410  22.840  30.615   7.799
 1207POPC   C1B19411  22.758  31.118   8.613
 1207POPC   C2B19412  22.775  31.050   8.140
 1207POPC   C3B19413  22.622  31.063   7.698
 1207POPC   C4B19414  22.588  30.906   7.255
 1208POPC   NC319415   8.579  24.742   9.183
 1208POPC   PO419416   9.005  24.350   9.544
 1208POPC   GL119417   8.742  24.256   9.152
 1208POPC   GL219418   9.004  24.431   9.021
 1208POPC   C1A19419   8.697  24.343   8.644
 1208POPC   D2A19420   8.765  24.480   8.210
 1208POPC   C3A19421   8.764  24.152   7.877
 1208POPC   C4A19422   8.605  24.149   7.436
 1208POPC   C1B19423   9.179  24.492   8.633
 1208POPC   C2B19424   9.222  24.280   8.293
 1208POPC   C3B19425   9.197  24.435   7.897
 1208POPC   C4B19426   9.141  24.707   7.550
 1209POPC   NC319427   2.374  20.496   9.387
 1209POPC   PO419428   2.925  20.909   9.527
 1209POPC   GL119429   2.816  20.672   9.147
 1209POPC   GL219430   2.897  20.348   9.117
 1209POPC   C1A19431   2.599  20.546   8.748
 1209POPC   D2A19432   2.768  20.681   8.359
 1209POPC   C3A19433   2.871  20.530   7.960
 1209POPC   C4A19434   2.628  20.606   7.628
 1209POPC   C1B19435   2.914  20.163   8.683
 1209POPC   C2B19436   2.697  20.182   8.297
 1209POPC   C3B19437   2.431  20.235   7.916
 1209POPC   C4B19438   2.403  20.217   7.432
 1210POPC   NC319439  35.145  43.075   9.513
 1210POPC   PO419440  35.803  42.933   9.752
 1210POPC   GL119441  35.660  43.100   9.301
 1210POPC   GL219442  35.632  43.465   9.286
 1210POPC   C1A19443  35.347  43.145   8.922
 1210POPC   D2A19444  35.401  43.094   8.497
 1210POPC   C3A19445  35.348  42.994   8.071
 1210POPC   C4A19446  35.420  42.668   7.819
 1210POPC   C1B19447  35.768  43.410   8.859
 1210POPC   C2B19448  35.796  43.421   8.427
 1210POPC   C3B19449  35.839  43.180   8.070
 1210POPC   C4B19450  35.627  43.151   7.686
 1211POPC   NC319451   1.443  38.025   9.480
 1211POPC   PO419452   1.143  37.343   9.475
 1211POPC   GL119453   1.359  37.523   9.179
 1211POPC   GL219454   1.158  37.817   9.120
 1211POPC   C1A19455   1.433  37.522   8.729
 1211POPC   D2A19456   1.255  37.624   8.281
 1211POPC   C3A19457   1.502  37.517   7.883
 1211POPC   C4A19458   1.442  37.561   7.421
 1211POPC   C1B19459   0.920  38.046   8.788
 1211POPC   C2B19460   0.768  38.249   8.420
 1211POPC   C3B19461   1.045  38.209   8.064
 1211POPC   C4B19462   1.276  37.962   7.754
 1212POPC   NC319463  15.758  20.362   9.506
 1212POPC   PO419464  16.293  20.625   9.344
 1212POPC   GL119465  15.912  20.754   9.144
 1212POPC   GL219466  15.544  20.764   9.225
 1212POPC   C1A19467  15.816  20.866   8.734
 1212POPC   D2A19468  15.924  20.610   8.395
 1212POPC   C3A19469  16.013  20.820   8.024
 1212POPC   C4A19470  16.023  20.459   7.796
 1212POPC   C1B19471  15.614  20.414   8.874
 1212POPC   C2B19472  15.586  20.178   8.459
 1212POPC   C3B19473  15.570  20.355   8.033
 1212POPC   C4B19474  15.552  20.326   7.575
 1213POPC   NC319475   4.438   8.693   9.515
 1213POPC   PO419476   4.168   9.270   9.488
 1213POPC   GL119477   4.418   9.088   9.158
 1213POPC   GL219478   4.585   8.747   9.054
 1213POPC   C1A19479   4.432   9.106   8.740
 1213POPC   D2A19480   4.247   9.195   8.397
 1213POPC   C3A19481   4.422   9.185   8.026
 1213POPC   C4A19482   4.164   9.366   7.746
 1213POPC   C1B19483   4.420   8.579   8.676
 1213POPC   C2B19484   4.536   8.768   8.304
 1213POPC   C3B19485   4.571   8.708   7.864
 1213POPC   C4B19486   4.300   8.555   7.556
 1214POPC   NC319487  20.403  34.447   9.549
 1214POPC   PO419488  21.020  34.736   9.552
 1214POPC   GL119489  20.803  34.649   9.198
 1214POPC   GL219490  20.762  34.305   9.178
 1214POPC   C1A19491  20.854  34.554   8.758
 1214POPC   D2A19492  20.633  34.413   8.432
 1214POPC   C3A19493  20.725  34.608   8.054
 1214POPC   C4A19494  20.907  34.490   7.676
 1214POPC   C1B19495  20.381  34.390   8.907
 1214POPC   C2B19496  20.138  34.379   8.533
 1214POPC   C3B19497  20.215  34.423   8.109
 1214POPC   C4B19498  20.441  34.285   7.765
 1215POPC   NC319499  35.270  13.186   9.448
 1215POPC   PO419500  35.572  12.593   9.510
 1215POPC   GL119501  35.513  12.852   9.147
 1215POPC   GL219502  35.138  12.874   9.043
 1215POPC   C1A19503  35.617  12.940   8.718
 1215POPC   D2A19504  35.459  12.859   8.293
 1215POPC   C3A19505  35.684  12.806   7.899
 1215POPC   C4A19506  35.305  12.633   7.685
 1215POPC   C1B19507  35.207  13.252   8.763
 1215POPC   C2B19508  35.434  13.355   8.383
 1215POPC   C3B19509  35.380  13.224   7.933
 1215POPC   C4B19510  35.342  13.108   7.516
 1216POPC   NC319511   5.285   5.049   9.849
 1216POPC   PO419512   5.583   5.540   9.588
 1216POPC   GL119513   5.369   5.455   9.157
 1216POPC   GL219514   5.024   5.295   9.128
 1216POPC   C1A19515   5.290   5.402   8.697
 1216POPC   D2A19516   4.994   5.561   8.371
 1216POPC   C3A19517   5.017   5.438   7.938
 1216POPC   C4A19518   5.214   5.213   7.582
 1216POPC   C1B19519   4.823   5.189   8.699
 1216POPC   C2B19520   4.965   5.037   8.281
 1216POPC   C3B19521   4.858   4.931   7.838
 1216POPC   C4B19522   4.942   4.809   7.369
 1217POPC   NC319523  43.332  10.607   9.385
 1217POPC   PO419524  42.886  10.357   9.795
 1217POPC   GL119525  42.821  10.278   9.336
 1217POPC   GL219526  43.139  10.114   9.286
 1217POPC   C1A19527  42.746  10.287   8.856
 1217POPC   D2A19528  42.881  10.451   8.414
 1217POPC   C3A19529  42.860  10.563   7.954
 1217POPC   C4A19530  43.181  10.772   7.724
 1217POPC   C1B19531  43.214  10.008   8.857
 1217POPC   C2B19532  43.432  10.202   8.518
 1217POPC   C3B19533  43.288  10.315   8.113
 1217POPC   C4B19534  43.240  10.210   7.702
 1218POPC   NC319535  11.557   4.611   9.896
 1218POPC   PO419536  12.227   4.771   9.608
 1218POPC   GL119537  12.045   5.009   9.243
 1218POPC   GL219538  11.740   4.875   9.079
 1218POPC   C1A19539  12.172   4.981   8.806
 1218POPC   D2A19540  11.993   4.997   8.411
 1218POPC   C3A19541  12.128   4.946   8.018
 1218POPC   C4A19542  11.943   4.990   7.630
 1218POPC   C1B19543  11.689   5.173   8.780
 1218POPC   C2B19544  11.753   5.444   8.435
 1218POPC   C3B19545  11.761   5.310   7.999
 1218POPC   C4B19546  11.791   5.481   7.573
 1219POPC   NC319547  20.629  39.736   9.461
 1219POPC   PO419548  20.173  40.183   9.396
 1219POPC   GL119549  20.499  40.162   9.067
 1219POPC   GL219550  20.703  39.850   8.988
 1219POPC   C1A19551  20.691  40.206   8.640
 1219POPC   D2A19552  20.554  40.341   8.246
 1219POPC   C3A19553  20.341  40.070   7.998
 1219POPC   C4A19554  20.394  40.190   7.581
 1219POPC   C1B19555  21.021  39.692   8.704
 1219POPC   C2B19556  20.922  39.731   8.261
 1219POPC   C3B19557  20.841  39.999   7.890
 1219POPC   C4B19558  20.820  39.930   7.426
 1220POPC   NC319559  27.754  22.491   9.425
 1220POPC   PO419560  27.946  23.148   9.495
 1220POPC   GL119561  27.787  22.950   9.144
 1220POPC   GL219562  27.437  23.062   9.094
 1220POPC   C1A19563  27.822  22.671   8.801
 1220POPC   D2A19564  27.536  22.655   8.473
 1220POPC   C3A19565  27.718  22.766   8.066
 1220POPC   C4A19566  27.827  22.531   7.690
 1220POPC   C1B19567  27.162  23.007   8.715
 1220POPC   C2B19568  26.976  23.174   8.334
 1220POPC   C3B19569  27.195  23.243   7.946
 1220POPC   C4B19570  27.472  23.070   7.631
 1221POPC   NC319571  35.016  40.300   9.341
 1221POPC   PO419572  34.401  39.931   9.526
 1221POPC   GL119573  34.362  40.115   9.132
 1221POPC   GL219574  34.030  40.280   9.134
 1221POPC   C1A19575  34.618  40.102   8.753
 1221POPC   D2A19576  34.812  39.824   8.443
 1221POPC   C3A19577  34.763  39.885   8.003
 1221POPC   C4A19578  34.410  39.749   7.747
 1221POPC   C1B19579  34.191  40.384   8.734
 1221POPC   C2B19580  34.397  40.387   8.347
 1221POPC   C3B19581  34.304  40.199   7.986
 1221POPC   C4B19582  34.132  40.184   7.572
 1222POPC   NC319583  29.294  22.643   9.531
 1222POPC   PO419584  29.214  21.925   9.537
 1222POPC   GL119585  29.079  22.230   9.257
 1222POPC   GL219586  28.831  22.007   9.155
 1222POPC   C1A19587  29.177  22.290   8.814
 1222POPC   D2A19588  29.059  22.421   8.404
 1222POPC   C3A19589  29.339  22.382   8.053
 1222POPC   C4A19590  29.426  22.132   7.737
 1222POPC   C1B19591  28.953  21.827   8.815
 1222POPC   C2B19592  28.875  21.938   8.417
 1222POPC   C3B19593  29.095  21.878   8.053
 1222POPC   C4B19594  29.118  21.637   7.697
 1223POPC   NC319595  37.051  44.271   9.594
 1223POPC   PO419596  36.801  43.648   9.850
 1223POPC   GL119597  36.893  43.743   9.404
 1223POPC   GL219598  36.549  43.842   9.328
 1223POPC   C1A19599  37.156  43.735   8.995
 1223POPC   D2A19600  37.178  44.021   8.633
 1223POPC   C3A19601  37.057  43.964   8.189
 1223POPC   C4A19602  37.178  43.778   7.798
 1223POPC   C1B19603  36.748  44.061   8.970
 1223POPC   C2B19604  36.712  44.183   8.512
 1223POPC   C3B19605  36.545  44.034   8.107
 1223POPC   C4B19606  36.694  43.974   7.715
 1224POPC   NC319607   5.307  19.451   9.465
 1224POPC   PO419608   4.987  18.835   9.427
 1224POPC   GL119609   5.106  18.891   9.062
 1224POPC   GL219610   5.435  19.006   9.128
 1224POPC   C1A19611   5.149  19.093   8.693
 1224POPC   D2A19612   4.930  19.227   8.349
 1224POPC   C3A19613   4.883  19.012   7.981
 1224POPC   C4A19614   4.835  19.315   7.673
 1224POPC   C1B19615   5.483  18.703   8.749
 1224POPC   C2B19616   5.309  18.746   8.301
 1224POPC   C3B19617   5.242  18.648   7.847
 1224POPC   C4B19618   5.138  18.922   7.497
 1225POPC   NC319619  40.058  20.454   9.538
 1225POPC   PO419620  40.050  21.132   9.469
 1225POPC   GL119621  40.021  20.810   9.152
 1225POPC   GL219622  40.329  20.608   9.148
 1225POPC   C1A19623  39.779  20.627   8.802
 1225POPC   D2A19624  39.797  20.358   8.419
 1225POPC   C3A19625  39.797  20.620   8.068
 1225POPC   C4A19626  39.586  20.654   7.662
 1225POPC   C1B19627  40.185  20.337   8.840
 1225POPC   C2B19628  40.306  20.249   8.415
 1225POPC   C3B19629  40.103  20.223   7.989
 1225POPC   C4B19630  40.079  20.558   7.663
 1226POPC   NC319631  10.979   4.141   9.323
 1226POPC   PO419632  10.429   4.589   9.518
 1226POPC   GL119633  10.526   4.340   9.170
 1226POPC   GL219634  10.794   4.493   9.003
 1226POPC   C1A19635  10.456   4.191   8.736
 1226POPC   D2A19636  10.521   4.147   8.285
 1226POPC   C3A19637  10.246   4.317   7.943
 1226POPC   C4A19638  10.355   4.418   7.485
 1226POPC   C1B19639  10.443   4.710   8.820
 1226POPC   C2B19640  10.314   4.617   8.409
 1226POPC   C3B19641  10.613   4.634   8.079
 1226POPC   C4B19642  10.612   4.794   7.694
 1227POPC   NC319643  27.127  36.035   9.613
 1227POPC   PO419644  27.692  36.405   9.533
 1227POPC   GL119645  27.711  36.235   9.139
 1227POPC   GL219646  27.437  35.991   9.185
 1227POPC   C1A19647  27.857  36.383   8.744
 1227POPC   D2A19648  27.747  36.557   8.350
 1227POPC   C3A19649  27.954  36.452   7.929
 1227POPC   C4A19650  27.920  36.151   7.608
 1227POPC   C1B19651  27.414  36.061   8.765
 1227POPC   C2B19652  27.645  36.040   8.411
 1227POPC   C3B19653  27.582  36.106   8.002
 1227POPC   C4B19654  27.222  36.016   7.822
 1228POPC   NC319655  37.905  33.768   9.402
 1228POPC   PO419656  37.295  33.501   9.615
 1228POPC   GL119657  37.463  33.929   9.269
 1228POPC   GL219658  37.303  34.174   9.069
 1228POPC   C1A19659  37.723  34.004   8.833
 1228POPC   D2A19660  38.057  33.834   8.571
 1228POPC   C3A19661  38.032  33.801   8.129
 1228POPC   C4A19662  37.777  33.621   7.799
 1228POPC   C1B19663  37.279  34.118   8.626
 1228POPC   C2B19664  37.653  34.206   8.360
 1228POPC   C3B19665  37.645  34.096   7.949
 1228POPC   C4B19666  37.737  34.035   7.539
 1229POPC   NC319667  25.439  17.224   9.662
 1229POPC   PO419668  24.931  17.685   9.491
 1229POPC   GL119669  25.310  17.573   9.249
 1229POPC   GL219670  25.390  17.213   9.134
 1229POPC   C1A19671  25.516  17.653   8.835
 1229POPC   D2A19672  25.414  17.464   8.425
 1229POPC   C3A19673  25.494  17.647   8.017
 1229POPC   C4A19674  25.531  17.880   7.656
 1229POPC   C1B19675  25.066  17.413   8.823
 1229POPC   C2B19676  24.790  17.510   8.476
 1229POPC   C3B19677  24.965  17.566   8.046
 1229POPC   C4B19678  25.139  17.516   7.643
 1230POPC   NC319679  36.896  15.655   9.744
 1230POPC   PO419680  36.514  16.099   9.618
 1230POPC   GL119681  36.724  16.087   9.216
 1230POPC   GL219682  36.619  15.803   9.047
 1230POPC   C1A19683  36.901  16.212   8.806
 1230POPC   D2A19684  37.046  16.028   8.407
 1230POPC   C3A19685  36.951  16.213   8.016
 1230POPC   C4A19686  36.701  16.197   7.676
 1230POPC   C1B19687  36.623  15.792   8.599
 1230POPC   C2B19688  36.766  15.624   8.197
 1230POPC   C3B19689  36.821  15.679   7.754
 1230POPC   C4B19690  36.979  15.356   7.461
 1231POPC   NC319691   4.004  33.761   9.429
 1231POPC   PO419692   4.299  33.308   9.291
 1231POPC   GL119693   4.226  33.627   8.978
 1231POPC   GL219694   4.361  33.942   9.079
 1231POPC   C1A19695   4.186  33.764   8.555
 1231POPC   D2A19696   4.054  34.106   8.297
 1231POPC   C3A19697   4.254  34.065   7.906
 1231POPC   C4A19698   4.419  34.308   7.583
 1231POPC   C1B19699   4.529  34.122   8.671
 1231POPC   C2B19700   4.649  34.022   8.232
 1231POPC   C3B19701   4.678  33.761   7.840
 1231POPC   C4B19702   4.432  33.388   7.720
 1232POPC   NC319703  30.356  40.040   9.338
 1232POPC   PO419704  29.724  40.247   9.623
 1232POPC   GL119705  29.844  39.958   9.270
 1232POPC   GL219706  29.582  39.768   9.134
 1232POPC   C1A19707  30.011  39.892   8.824
 1232POPC   D2A19708  30.086  40.006   8.406
 1232POPC   C3A19709  30.223  39.699   8.107
 1232POPC   C4A19710  30.065  39.672   7.695
 1232POPC   C1B19711  29.596  40.165   8.860
 1232POPC   C2B19712  29.582  40.134   8.394
 1232POPC   C3B19713  29.762  39.991   7.971
 1232POPC   C4B19714  29.650  39.998   7.501
 1233POPC   NC319715  26.498  32.095   9.919
 1233POPC   PO419716  26.055  32.510   9.552
 1233POPC   GL119717  26.116  32.623   9.139
 1233POPC   GL219718  26.445  32.514   9.083
 1233POPC   C1A19719  26.022  32.448   8.741
 1233POPC   D2A19720  26.117  32.145   8.429
 1233POPC   C3A19721  26.085  32.310   8.034
 1233POPC   C4A19722  26.015  32.125   7.666
 1233POPC   C1B19723  26.456  32.737   8.695
 1233POPC   C2B19724  26.469  32.575   8.283
 1233POPC   C3B19725  26.363  32.698   7.860
 1233POPC   C4B19726  26.337  32.464   7.472
 1234POPC   NC319727  16.338  44.497   9.523
 1234POPC   PO419728  15.610  44.642   9.571
 1234POPC   GL119729  15.887  44.700   9.235
 1234POPC   GL219730  15.883  44.391   9.083
 1234POPC   C1A19731  15.924  44.829   8.807
 1234POPC   D2A19732  15.810  44.887   8.373
 1234POPC   C3A19733  15.660  44.596   8.100
 1234POPC   C4A19734  16.013  44.643   7.857
 1234POPC   C1B19735  15.809  44.356   8.641
 1234POPC   C2B19736  16.056  44.307   8.266
 1234POPC   C3B19737  16.265  44.198   7.882
 1234POPC   C4B19738  16.125  44.329   7.482
 1235POPC   NC319739  33.238  19.776   9.326
 1235POPC   PO419740  32.591  19.686   9.707
 1235POPC   GL119741  32.713  19.835   9.279
 1235POPC   GL219742  32.823  19.520   9.124
 1235POPC   C1A19743  32.837  19.981   8.840
 1235POPC   D2A19744  33.168  20.238   8.598
 1235POPC   C3A19745  33.212  20.219   8.113
 1235POPC   C4A19746  33.365  20.073   7.668
 1235POPC   C1B19747  33.068  19.531   8.721
 1235POPC   C2B19748  33.051  19.794   8.364
 1235POPC   C3B19749  32.907  19.838   7.942
 1235POPC   C4B19750  32.979  19.740   7.522
 1236POPC   NC319751   4.505  15.342   9.563
 1236POPC   PO419752   3.954  15.617   9.314
 1236POPC   GL119753   4.241  15.389   9.118
 1236POPC   GL219754   4.257  15.014   9.248
 1236POPC   C1A19755   4.280  15.483   8.698
 1236POPC   D2A19756   4.095  15.264   8.358
 1236POPC   C3A19757   4.256  15.454   8.016
 1236POPC   C4A19758   4.159  15.676   7.679
 1236POPC   C1B19759   4.293  14.972   8.789
 1236POPC   C2B19760   4.505  14.829   8.406
 1236POPC   C3B19761   4.600  14.722   7.980
 1236POPC   C4B19762   4.549  15.108   7.772
 1237POPC   NC319763  35.489  40.959   9.536
 1237POPC   PO419764  35.310  40.229   9.713
 1237POPC   GL119765  35.433  40.539   9.280
 1237POPC   GL219766  35.717  40.733   9.160
 1237POPC   C1A19767  35.273  40.796   8.899
 1237POPC   D2A19768  35.131  40.713   8.459
 1237POPC   C3A19769  35.177  40.940   8.038
 1237POPC   C4A19770  35.262  40.713   7.640
 1237POPC   C1B19771  35.788  40.880   8.760
 1237POPC   C2B19772  35.607  40.861   8.355
 1237POPC   C3B19773  35.675  40.826   7.938
 1237POPC   C4B19774  35.629  41.144   7.675
 1238POPC   NC319775  19.817  11.749   9.451
 1238POPC   PO419776  19.893  12.394   9.553
 1238POPC   GL119777  20.008  12.162   9.165
 1238POPC   GL219778  20.074  11.841   9.016
 1238POPC   C1A19779  20.035  12.270   8.724
 1238POPC   D2A19780  19.714  12.209   8.398
 1238POPC   C3A19781  19.830  12.191   7.962
 1238POPC   C4A19782  20.223  12.307   7.760
 1238POPC   C1B19783  19.945  11.771   8.568
 1238POPC   C2B19784  19.950  11.689   8.115
 1238POPC   C3B19785  19.940  11.766   7.692
 1238POPC   C4B19786  19.892  11.602   7.266
 1239POPC   NC319787  40.559  44.084   9.803
 1239POPC   PO419788  40.851  43.564   9.440
 1239POPC   GL119789  40.876  43.972   9.177
 1239POPC   GL219790  40.551  44.190   9.071
 1239POPC   C1A19791  41.023  44.058   8.778
 1239POPC   D2A19792  41.207  43.871   8.409
 1239POPC   C3A19793  40.919  43.888   8.094
 1239POPC   C4A19794  40.949  44.013   7.676
 1239POPC   C1B19795  40.557  43.868   8.730
 1239POPC   C2B19796  40.637  43.572   8.447
 1239POPC   C3B19797  40.550  43.477   8.070
 1239POPC   C4B19798  40.566  43.690   7.713
 1240POPC   NC319799  23.113  11.778   9.488
 1240POPC   PO419800  22.920  12.450   9.458
 1240POPC   GL119801  22.861  12.091   9.169
 1240POPC   GL219802  23.182  12.021   9.053
 1240POPC   C1A19803  22.794  11.787   8.838
 1240POPC   D2A19804  23.043  11.742   8.488
 1240POPC   C3A19805  22.887  12.013   8.145
 1240POPC   C4A19806  22.663  11.801   7.792
 1240POPC   C1B19807  23.102  12.199   8.702
 1240POPC   C2B19808  23.320  12.215   8.343
 1240POPC   C3B19809  23.225  12.414   7.957
 1240POPC   C4B19810  22.958  12.224   7.662
 1241POPC   NC319811  44.627   4.095   9.570
 1241POPC   PO419812  44.835   4.724   9.941
 1241POPC   GL119813  44.505   4.591   9.492
 1241POPC   GL219814  44.579   4.323   9.140
 1241POPC   C1A19815  44.324   4.725   9.040
 1241POPC   D2A19816  44.353   4.717   8.542
 1241POPC   C3A19817  44.708   4.579   8.243
 1241POPC   C4A19818  44.900   4.569   7.818
 1241POPC   C1B19819  44.357   4.227   8.725
 1241POPC   C2B19820  44.303   4.244   8.273
 1241POPC   C3B19821  44.521   4.240   7.869
 1241POPC   C4B19822  44.600   3.945   7.520
 1242POPC   NC319823  11.224  15.424   9.575
 1242POPC   PO419824  11.366  14.737   9.387
 1242POPC   GL119825  11.245  15.079   9.191
 1242POPC   GL219826  11.043  14.877   9.034
 1242POPC   C1A19827  11.426  15.278   8.860
 1242POPC   D2A19828  11.543  15.213   8.441
 1242POPC   C3A19829  11.540  15.513   8.106
 1242POPC   C4A19830  11.577  15.353   7.672
 1242POPC   C1B19831  10.930  15.160   8.739
 1242POPC   C2B19832  11.064  14.991   8.356
 1242POPC   C3B19833  11.220  15.125   7.984
 1242POPC   C4B19834  11.287  14.940   7.589
 1243POPC   NC319835  15.942  11.511   9.587
 1243POPC   PO419836  16.056  10.832   9.566
 1243POPC   GL119837  15.928  11.133   9.234
 1243POPC   GL219838  16.255  11.225   9.286
 1243POPC   C1A19839  15.861  11.284   8.779
 1243POPC   D2A19840  15.633  11.213   8.343
 1243POPC   C3A19841  15.659  11.479   7.947
 1243POPC   C4A19842  15.882  11.507   7.541
 1243POPC   C1B19843  16.375  11.311   8.932
 1243POPC   C2B19844  16.350  11.291   8.534
 1243POPC   C3B19845  16.123  11.361   8.180
 1243POPC   C4B19846  16.390  11.553   7.873
 1244POPC   NC319847  39.127  30.407   9.508
 1244POPC   PO419848  39.079  31.098   9.430
 1244POPC   GL119849  39.297  30.786   9.190
 1244POPC   GL219850  39.624  30.874   9.121
 1244POPC   C1A19851  39.253  30.684   8.752
 1244POPC   D2A19852  39.019  30.781   8.366
 1244POPC   C3A19853  39.117  30.514   8.017
 1244POPC   C4A19854  39.124  30.602   7.589
 1244POPC   C1B19855  39.744  30.824   8.680
 1244POPC   C2B19856  39.537  30.724   8.282
 1244POPC   C3B19857  39.389  30.927   7.900
 1244POPC   C4B19858  39.535  30.926   7.467
 1245POPC   NC319859  13.737  38.661   9.295
 1245POPC   PO419860  13.371  38.207   9.515
 1245POPC   GL119861  13.194  38.230   9.137
 1245POPC   GL219862  13.191  38.584   9.059
 1245POPC   C1A19863  13.392  38.239   8.718
 1245POPC   D2A19864  13.631  38.392   8.355
 1245POPC   C3A19865  13.629  38.240   7.930
 1245POPC   C4A19866  13.545  38.371   7.500
 1245POPC   C1B19867  13.439  38.750   8.704
 1245POPC   C2B19868  13.304  38.806   8.276
 1245POPC   C3B19869  13.459  38.738   7.873
 1245POPC   C4B19870  13.452  38.881   7.461
 1246POPC   NC319871  39.772  34.368   9.542
 1246POPC   PO419872  40.273  34.803   9.428
 1246POPC   GL119873  39.975  34.630   9.152
 1246POPC   GL219874  39.956  34.251   9.084
 1246POPC   C1A19875  39.904  34.625   8.710
 1246POPC   D2A19876  39.884  34.428   8.298
 1246POPC   C3A19877  39.747  34.705   7.962
 1246POPC   C4A19878  39.657  34.585   7.553
 1246POPC   C1B19879  40.179  34.180   8.716
 1246POPC   C2B19880  40.384  34.461   8.431
 1246POPC   C3B19881  40.311  34.612   8.019
 1246POPC   C4B19882  40.112  34.423   7.690
 1247POPC   NC319883  12.831   7.613   9.492
 1247POPC   PO419884  13.346   7.160   9.522
 1247POPC   GL119885  13.081   7.087   9.105
 1247POPC   GL219886  12.848   7.383   9.032
 1247POPC   C1A19887  13.051   7.184   8.614
 1247POPC   D2A19888  12.842   7.559   8.344
 1247POPC   C3A19889  13.002   7.694   7.897
 1247POPC   C4A19890  13.005   7.418   7.473
 1247POPC   C1B19891  12.555   7.161   8.741
 1247POPC   C2B19892  12.576   7.105   8.306
 1247POPC   C3B19893  12.693   7.296   7.887
 1247POPC   C4B19894  12.520   7.282   7.422
 1248POPC   NC319895   1.731  42.084   9.268
 1248POPC   PO419896   1.607  41.477   9.603
 1248POPC   GL119897   1.783  41.551   9.186
 1248POPC   GL219898   2.041  41.281   9.165
 1248POPC   C1A19899   1.893  41.733   8.766
 1248POPC   D2A19900   1.688  41.881   8.398
 1248POPC   C3A19901   1.893  41.777   8.006
 1248POPC   C4A19902   2.249  41.784   7.732
 1248POPC   C1B19903   1.836  41.216   8.768
 1248POPC   C2B19904   1.789  41.385   8.364
 1248POPC   C3B19905   1.807  41.186   7.972
 1248POPC   C4B19906   1.896  41.416   7.635
 1249POPC   NC319907  39.893  18.679   9.544
 1249POPC   PO419908  40.263  19.180   9.732
 1249POPC   GL119909  40.011  19.163   9.345
 1249POPC   GL219910  40.317  19.258   9.213
 1249POPC   C1A19911  39.893  19.020   8.910
 1249POPC   D2A19912  40.092  19.009   8.480
 1249POPC   C3A19913  39.893  18.898   8.060
 1249POPC   C4A19914  39.695  19.184   7.754
 1249POPC   C1B19915  40.358  19.340   8.830
 1249POPC   C2B19916  40.364  19.436   8.427
 1249POPC   C3B19917  40.229  19.290   8.036
 1249POPC   C4B19918  40.175  19.344   7.593
 1250POPC   NC319919  33.766  40.296   9.570
 1250POPC   PO419920  33.523  39.642   9.563
 1250POPC   GL119921  33.738  39.835   9.237
 1250POPC   GL219922  33.539  40.105   9.128
 1250POPC   C1A19923  34.050  39.775   8.915
 1250POPC   D2A19924  34.192  39.928   8.506
 1250POPC   C3A19925  33.968  39.848   8.131
 1250POPC   C4A19926  33.886  39.750   7.731
 1250POPC   C1B19927  33.647  39.964   8.690
 1250POPC   C2B19928  33.493  39.929   8.293
 1250POPC   C3B19929  33.453  40.172   7.940
 1250POPC   C4B19930  33.620  40.139   7.535
 1251POPC   NC319931  44.017  18.639   9.652
 1251POPC   PO419932  43.857  19.313   9.526
 1251POPC   GL119933  43.990  19.080   9.155
 1251POPC   GL219934  43.867  18.739   9.168
 1251POPC   C1A19935  44.181  19.096   8.715
 1251POPC   D2A19936  44.122  19.371   8.325
 1251POPC   C3A19937  44.018  19.176   7.910
 1251POPC   C4A19938  43.844  18.775   7.720
 1251POPC   C1B19939  43.729  18.794   8.738
 1251POPC   C2B19940  43.785  18.958   8.336
 1251POPC   C3B19941  43.536  19.052   8.004
 1251POPC   C4B19942  43.383  19.060   7.582
 1252POPC   NC319943  33.465  22.357   9.419
 1252POPC   PO419944  34.074  21.886   9.417
 1252POPC   GL119945  33.861  22.169   9.124
 1252POPC   GL219946  33.499  22.158   8.956
 1252POPC   C1A19947  33.947  22.295   8.723
 1252POPC   D2A19948  33.719  22.303   8.351
 1252POPC   C3A19949  33.996  22.279   7.994
 1252POPC   C4A19950  34.203  21.918   7.828
 1252POPC   C1B19951  33.391  22.552   8.730
 1252POPC   C2B19952  33.410  22.780   8.311
 1252POPC   C3B19953  33.499  22.544   7.932
 1252POPC   C4B19954  33.681  22.328   7.581
 1253POPC   NC319955  43.720   9.694   9.511
 1253POPC   PO419956  44.296  10.003   9.387
 1253POPC   GL119957  44.113   9.639   9.114
 1253POPC   GL219958  43.732   9.586   9.027
 1253POPC   C1A19959  44.100   9.488   8.665
 1253POPC   D2A19960  44.037   9.831   8.375
 1253POPC   C3A19961  44.207   9.959   7.996
 1253POPC   C4A19962  43.979  10.181   7.648
 1253POPC   C1B19963  43.602   9.679   8.622
 1253POPC   C2B19964  43.677   9.544   8.187
 1253POPC   C3B19965  43.661   9.742   7.785
 1253POPC   C4B19966  43.691   9.515   7.368
 1254POPC   NC319967  33.237  16.211   9.440
 1254POPC   PO419968  32.665  15.891   9.476
 1254POPC   GL119969  32.928  15.956   9.137
 1254POPC   GL219970  33.240  15.767   9.157
 1254POPC   C1A19971  32.916  16.220   8.789
 1254POPC   D2A19972  32.754  16.100   8.386
 1254POPC   C3A19973  32.964  16.107   7.997
 1254POPC   C4A19974  32.845  15.879   7.619
 1254POPC   C1B19975  33.280  15.867   8.718
 1254POPC   C2B19976  33.360  15.904   8.277
 1254POPC   C3B19977  33.240  15.687   7.902
 1254POPC   C4B19978  33.466  15.540   7.521
 1255POPC   NC319979  41.278  21.309   9.395
 1255POPC   PO419980  41.706  21.777   9.432
 1255POPC   GL119981  41.563  21.601   9.061
 1255POPC   GL219982  41.690  21.234   9.071
 1255POPC   C1A19983  41.669  21.521   8.641
 1255POPC   D2A19984  41.685  21.160   8.364
 1255POPC   C3A19985  41.756  21.316   7.960
 1255POPC   C4A19986  41.711  21.302   7.522
 1255POPC   C1B19987  41.361  21.132   8.770
 1255POPC   C2B19988  41.260  20.870   8.403
 1255POPC   C3B19989  41.301  21.049   7.985
 1255POPC   C4B19990  41.216  21.256   7.573
 1256POPC   NC319991   7.849  29.243   9.411
 1256POPC   PO419992   8.416  29.245   9.758
 1256POPC   GL119993   8.338  29.333   9.295
 1256POPC   GL219994   8.303  29.037   9.157
 1256POPC   C1A19995   8.102  29.357   8.848
 1256POPC   D2A19996   8.015  29.088   8.503
 1256POPC   C3A19997   8.004  29.278   8.111
 1256POPC   C4A19998   8.103  29.085   7.721
 1256POPC   C1B19999   8.499  28.972   8.779
 1256POPC   C2B20000   8.672  28.914   8.402
 1256POPC   C3B20001   8.499  29.039   8.046
 1256POPC   C4B20002   8.565  28.830   7.638
 1257POPC   NC320003  18.840  33.302   9.547
 1257POPC   PO420004  19.309  32.875   9.583
 1257POPC   GL120005  19.385  32.897   9.149
 1257POPC   GL220006  19.574  33.195   9.218
 1257POPC   C1A20007  19.140  32.955   8.737
 1257POPC   D2A20008  18.964  33.097   8.314
 1257POPC   C3A20009  19.032  32.923   7.859
 1257POPC   C4A20010  18.905  32.953   7.390
 1257POPC   C1B20011  19.466  33.351   8.847
 1257POPC   C2B20012  19.485  33.184   8.426
 1257POPC   C3B20013  19.306  33.337   8.042
 1257POPC   C4B20014  19.244  33.322   7.614
 1258POPC   NC320015  26.461  27.685   9.614
 1258POPC   PO420016  27.062  27.862   9.637
 1258POPC   GL120017  26.768  27.821   9.234
 1258POPC   GL220018  26.689  27.453   9.189
 1258POPC   C1A20019  26.806  27.733   8.763
 1258POPC   D2A20020  26.640  27.502   8.365
 1258POPC   C3A20021  26.620  27.689   7.939
 1258POPC   C4A20022  26.914  27.896   7.716
 1258POPC   C1B20023  26.738  27.208   8.792
 1258POPC   C2B20024  26.751  26.992   8.396
 1258POPC   C3B20025  26.655  27.054   7.946
 1258POPC   C4B20026  26.802  27.315   7.578
 1259POPC   NC320027  37.272   4.677   9.442
 1259POPC   PO420028  37.875   4.895   9.641
 1259POPC   GL120029  37.730   4.518   9.320
 1259POPC   GL220030  37.507   4.668   9.002
 1259POPC   C1A20031  37.870   4.347   8.880
 1259POPC   D2A20032  38.045   4.479   8.450
 1259POPC   C3A20033  37.853   4.460   8.065
 1259POPC   C4A20034  38.030   4.361   7.654
 1259POPC   C1B20035  37.517   4.657   8.510
 1259POPC   C2B20036  37.346   4.406   8.156
 1259POPC   C3B20037  37.281   4.120   7.787
 1259POPC   C4B20038  37.495   4.105   7.356
 1260POPC   NC320039   9.246  44.038   9.566
 1260POPC   PO420040   8.589  44.130   9.420
 1260POPC   GL120041   8.958  43.972   9.150
 1260POPC   GL220042   9.318  43.773   9.121
 1260POPC   C1A20043   8.913  43.845   8.756
 1260POPC   D2A20044   8.980  43.662   8.391
 1260POPC   C3A20045   8.787  43.896   8.059
 1260POPC   C4A20046   8.758  43.936   7.612
 1260POPC   C1B20047   9.407  44.005   8.776
 1260POPC   C2B20048   9.243  44.084   8.358
 1260POPC   C3B20049   9.283  43.994   7.907
 1260POPC   C4B20050   9.586  44.208   7.658
 1261POPC   NC320051   4.086   8.098   9.448
 1261POPC   PO420052   4.713   8.321   9.509
 1261POPC   GL120053   4.478   8.221   9.123
 1261POPC   GL220054   4.672   7.953   9.016
 1261POPC   C1A20055   4.102   8.142   8.819
 1261POPC   D2A20056   3.964   8.275   8.429
 1261POPC   C3A20057   4.287   8.337   8.107
 1261POPC   C4A20058   4.273   8.081   7.724
 1261POPC   C1B20059   4.556   8.094   8.609
 1261POPC   C2B20060   4.405   7.864   8.262
 1261POPC   C3B20061   4.668   7.826   7.928
 1261POPC   C4B20062   4.617   7.767   7.502
 1262POPC   NC320063  10.992  42.622   9.425
 1262POPC   PO420064  10.383  42.697   9.664
 1262POPC   GL120065  10.259  42.487   9.265
 1262POPC   GL220066  10.287  42.097   9.176
 1262POPC   C1A20067  10.311  42.441   8.819
 1262POPC   D2A20068  10.595  42.348   8.490
 1262POPC   C3A20069  10.449  42.514   8.121
 1262POPC   C4A20070  10.716  42.766   7.865
 1262POPC   C1B20071  10.448  41.918   8.730
 1262POPC   C2B20072  10.561  41.899   8.252
 1262POPC   C3B20073  10.668  42.126   7.858
 1262POPC   C4B20074  10.388  42.412   7.616
 1263POPC   NC320075  44.995  18.432   9.609
 1263POPC   PO420076   0.569  18.019   9.410
 1263POPC   GL120077   0.496  18.195   9.029
 1263POPC   GL220078   0.208  18.334   9.144
 1263POPC   C1A20079   0.636  18.249   8.596
 1263POPC   D2A20080   0.311  18.217   8.320
 1263POPC   C3A20081   0.241  18.171   7.918
 1263POPC   C4A20082   0.525  18.061   7.661
 1263POPC   C1B20083   0.217  18.523   8.730
 1263POPC   C2B20084   0.385  18.720   8.322
 1263POPC   C3B20085   0.295  18.667   7.869
 1263POPC   C4B20086   0.181  18.419   7.465
 1264POPC   NC320087  22.473  12.094   9.517
 1264POPC   PO420088  22.263  12.670   9.474
 1264POPC   GL120089  22.466  12.405   9.092
 1264POPC   GL220090  22.340  12.035   9.027
 1264POPC   C1A20091  22.594  12.211   8.640
 1264POPC   D2A20092  22.473  11.835   8.366
 1264POPC   C3A20093  22.257  12.034   7.981
 1264POPC   C4A20094  22.107  12.475   7.838
 1264POPC   C1B20095  22.125  11.709   8.734
 1264POPC   C2B20096  21.899  11.521   8.357
 1264POPC   C3B20097  21.809  11.759   7.956
 1264POPC   C4B20098  21.938  12.049   7.565
 1265POPC   NC320099  29.050  41.358   9.375
 1265POPC   PO420100  29.481  41.808   9.471
 1265POPC   GL120101  29.199  41.826   9.102
 1265POPC   GL220102  28.836  41.915   9.157
 1265POPC   C1A20103  29.201  41.547   8.729
 1265POPC   D2A20104  29.470  41.337   8.442
 1265POPC   C3A20105  29.354  41.389   8.055
 1265POPC   C4A20106  29.474  41.375   7.634
 1265POPC   C1B20107  28.749  41.791   8.712
 1265POPC   C2B20108  28.933  41.648   8.291
 1265POPC   C3B20109  28.866  41.414   7.899
 1265POPC   C4B20110  28.850  41.660   7.511
 1266POPC   NC320111  41.741  25.596   9.771
 1266POPC   PO420112  41.533  26.233   9.551
 1266POPC   GL120113  41.417  26.169   9.143
 1266POPC   GL220114  41.439  25.827   9.085
 1266POPC   C1A20115  41.316  26.147   8.715
 1266POPC   D2A20116  41.266  25.928   8.332
 1266POPC   C3A20117  41.349  26.133   7.929
 1266POPC   C4A20118  41.657  26.212   7.598
 1266POPC   C1B20119  41.767  25.868   8.763
 1266POPC   C2B20120  41.788  25.972   8.345
 1266POPC   C3B20121  41.643  25.722   7.969
 1266POPC   C4B20122  41.397  25.579   7.632
 1267POPC   NC320123  13.381  21.694   9.353
 1267POPC   PO420124  13.925  21.972   9.712
 1267POPC   GL120125  13.729  22.121   9.285
 1267POPC   GL220126  13.536  22.467   9.259
 1267POPC   C1A20127  13.789  22.239   8.850
 1267POPC   D2A20128  13.827  22.045   8.444
 1267POPC   C3A20129  13.821  22.311   8.074
 1267POPC   C4A20130  13.654  22.212   7.659
 1267POPC   C1B20131  13.302  22.467   8.874
 1267POPC   C2B20132  13.396  22.345   8.455
 1267POPC   C3B20133  13.289  22.324   8.017
 1267POPC   C4B20134  13.160  22.246   7.594
 1268POPC   NC320135  14.200  35.499   9.538
 1268POPC   PO420136  14.692  35.224   9.769
 1268POPC   GL120137  14.614  35.246   9.295
 1268POPC   GL220138  14.596  35.548   9.161
 1268POPC   C1A20139  14.448  35.146   8.837
 1268POPC   D2A20140  14.552  35.300   8.378
 1268POPC   C3A20141  14.487  35.139   7.941
 1268POPC   C4A20142  14.530  35.076   7.476
 1268POPC   C1B20143  14.427  35.649   8.777
 1268POPC   C2B20144  14.319  35.761   8.390
 1268POPC   C3B20145  14.403  35.670   8.011
 1268POPC   C4B20146  14.251  35.508   7.659
 1269POPC   NC320147  27.730  29.087   9.595
 1269POPC   PO420148  27.174  29.302   9.284
 1269POPC   GL120149  27.473  29.067   9.077
 1269POPC   GL220150  27.807  28.981   9.113
 1269POPC   C1A20151  27.463  29.019   8.641
 1269POPC   D2A20152  27.206  28.942   8.313
 1269POPC   C3A20153  27.402  29.176   8.011
 1269POPC   C4A20154  27.287  29.335   7.619
 1269POPC   C1B20155  27.955  29.185   8.755
 1269POPC   C2B20156  27.951  29.033   8.340
 1269POPC   C3B20157  27.912  29.222   7.928
 1269POPC   C4B20158  27.820  29.220   7.471
 1270POPC   NC320159   6.698  22.003   9.546
 1270POPC   PO420160   7.242  21.788   9.170
 1270POPC   GL120161   6.879  22.047   9.070
 1270POPC   GL220162   6.485  22.054   9.097
 1270POPC   C1A20163   6.731  22.184   8.677
 1270POPC   D2A20164   6.614  21.960   8.332
 1270POPC   C3A20165   6.772  22.084   7.948
 1270POPC   C4A20166   6.673  22.252   7.548
 1270POPC   C1B20167   6.230  21.948   8.725
 1270POPC   C2B20168   6.115  22.061   8.309
 1270POPC   C3B20169   6.250  22.099   7.892
 1270POPC   C4B20170   6.295  21.892   7.521
 1271POPC   NC320171  38.727  25.395   9.585
 1271POPC   PO420172  38.327  24.861   9.554
 1271POPC   GL120173  38.561  25.014   9.200
 1271POPC   GL220174  38.455  25.341   9.065
 1271POPC   C1A20175  38.493  24.913   8.741
 1271POPC   D2A20176  38.206  25.144   8.463
 1271POPC   C3A20177  38.153  25.057   8.028
 1271POPC   C4A20178  38.314  25.323   7.719
 1271POPC   C1B20179  38.645  25.391   8.631
 1271POPC   C2B20180  38.638  25.302   8.158
 1271POPC   C3B20181  38.813  25.451   7.753
 1271POPC   C4B20182  38.953  25.483   7.325
 1272POPC   NC320183  35.261  19.988   9.454
 1272POPC   PO420184  35.536  19.471   9.301
 1272POPC   GL120185  35.434  19.718   9.039
 1272POPC   GL220186  35.110  19.734   9.028
 1272POPC   C1A20187  35.464  19.676   8.629
 1272POPC   D2A20188  35.580  19.943   8.325
 1272POPC   C3A20189  35.667  19.662   8.010
 1272POPC   C4A20190  35.608  19.702   7.587
 1272POPC   C1B20191  35.181  20.086   8.780
 1272POPC   C2B20192  35.120  20.160   8.354
 1272POPC   C3B20193  35.289  20.034   7.910
 1272POPC   C4B20194  35.231  20.023   7.473
 1273POPC   NC320195  27.866  44.297   9.276
 1273POPC   PO420196  28.407  44.518   9.675
 1273POPC   GL120197  28.354  44.446   9.234
 1273POPC   GL220198  28.172  44.724   9.196
 1273POPC   C1A20199  28.383  44.431   8.772
 1273POPC   D2A20200  28.684  44.572   8.457
 1273POPC   C3A20201  28.548  44.681   8.027
 1273POPC   C4A20202  28.619  44.992   7.724
 1273POPC   C1B20203  28.272  44.940   8.810
 1273POPC   C2B20204  28.195  44.795   8.393
 1273POPC   C3B20205  27.988  44.677   7.992
 1273POPC   C4B20206  28.023  44.406   7.663
 1274POPC   NC320207   3.447   8.756   9.392
 1274POPC   PO420208   3.247   9.157   9.859
 1274POPC   GL120209   3.610   9.213   9.438
 1274POPC   GL220210   3.886   8.942   9.239
 1274POPC   C1A20211   3.592   9.129   8.883
 1274POPC   D2A20212   3.746   9.175   8.445
 1274POPC   C3A20213   3.561   9.109   8.030
 1274POPC   C4A20214   3.184   9.288   7.825
 1274POPC   C1B20215   3.998   8.839   8.787
 1274POPC   C2B20216   4.003   8.757   8.308
 1274POPC   C3B20217   4.014   8.877   7.860
 1274POPC   C4B20218   3.845   8.730   7.438
 1275POPC   NC320219  20.011   0.062   9.349
 1275POPC   PO420220  19.729   0.586   9.602
 1275POPC   GL120221  19.767   0.489   9.166
 1275POPC   GL220222  19.654   0.744   9.039
 1275POPC   C1A20223  19.894   0.415   8.706
 1275POPC   D2A20224  19.744   0.342   8.278
 1275POPC   C3A20225  19.951   0.328   7.857
 1275POPC   C4A20226  19.772   0.104   7.474
 1275POPC   C1B20227  19.551   0.817   8.622
 1275POPC   C2B20228  19.348   0.674   8.263
 1275POPC   C3B20229  19.460   0.456   7.856
 1275POPC   C4B20230  19.713   0.615   7.525
 1276POPC   NC320231  20.024  26.428   9.766
 1276POPC   PO420232  19.549  26.864   9.717
 1276POPC   GL120233  19.537  26.978   9.266
 1276POPC   GL220234  19.888  27.135   9.223
 1276POPC   C1A20235  19.604  26.749   8.879
 1276POPC   D2A20236  19.502  26.778   8.451
 1276POPC   C3A20237  19.799  26.754   8.131
 1276POPC   C4A20238  19.894  26.918   7.738
 1276POPC   C1B20239  20.098  27.070   8.811
 1276POPC   C2B20240  20.223  27.023   8.365
 1276POPC   C3B20241  20.298  26.763   7.998
 1276POPC   C4B20242  20.449  26.751   7.585
 1277POPC   NC320243  12.178   6.951   9.412
 1277POPC   PO420244  11.741   7.423   9.695
 1277POPC   GL120245  11.886   7.404   9.309
 1277POPC   GL220246  11.722   7.146   9.196
 1277POPC   C1A20247  12.128   7.438   8.934
 1277POPC   D2A20248  12.122   7.306   8.496
 1277POPC   C3A20249  12.336   7.548   8.186
 1277POPC   C4A20250  12.248   7.536   7.771
 1277POPC   C1B20251  11.689   7.187   8.764
 1277POPC   C2B20252  11.750   7.003   8.336
 1277POPC   C3B20253  11.864   7.247   7.984
 1277POPC   C4B20254  11.496   7.515   7.891
 1278POPC   NC320255  41.486  42.643   9.671
 1278POPC   PO420256  41.853  42.141   9.553
 1278POPC   GL120257  41.590  42.231   9.211
 1278POPC   GL220258  41.603  42.562   9.162
 1278POPC   C1A20259  41.631  42.146   8.784
 1278POPC   D2A20260  41.330  42.082   8.482
 1278POPC   C3A20261  41.363  42.078   8.033
 1278POPC   C4A20262  41.227  42.402   7.794
 1278POPC   C1B20263  41.470  42.640   8.719
 1278POPC   C2B20264  41.417  42.537   8.271
 1278POPC   C3B20265  41.597  42.729   7.911
 1278POPC   C4B20266  41.863  42.661   7.573
 1279POPC   NC320267   8.455  11.422   9.537
 1279POPC   PO420268   7.855  11.899   9.308
 1279POPC   GL120269   7.956  11.582   8.934
 1279POPC   GL220270   8.252  11.376   9.055
 1279POPC   C1A20271   8.010  11.147   8.688
 1279POPC   D2A20272   8.059  10.949   8.274
 1279POPC   C3A20273   8.157  11.247   7.925
 1279POPC   C4A20274   7.903  11.515   7.602
 1279POPC   C1B20275   8.521  11.220   8.807
 1279POPC   C2B20276   8.505  11.182   8.406
 1279POPC   C3B20277   8.588  10.938   8.099
 1279POPC   C4B20278   8.586  11.052   7.708
 1280POPC   NC320279  26.346  37.917   9.560
 1280POPC   PO420280  26.210  37.235   9.547
 1280POPC   GL120281  26.027  37.470   9.198
 1280POPC   GL220282  25.930  37.837   9.165
 1280POPC   C1A20283  26.065  37.519   8.760
 1280POPC   D2A20284  26.006  37.767   8.407
 1280POPC   C3A20285  26.050  37.626   7.993
 1280POPC   C4A20286  26.062  37.585   7.559
 1280POPC   C1B20287  26.187  38.054   8.817
 1280POPC   C2B20288  26.393  38.093   8.387
 1280POPC   C3B20289  26.217  38.145   7.962
 1280POPC   C4B20290  26.342  38.041   7.527
 1281POPC   NC320291  32.352  19.477   9.370
 1281POPC   PO420292  32.172  20.028   9.233
 1281POPC   GL120293  32.310  20.033   8.863
 1281POPC   GL220294  32.400  19.693   8.897
 1281POPC   C1A20295  32.042  19.850   8.567
 1281POPC   D2A20296  32.123  19.617   8.254
 1281POPC   C3A20297  32.377  19.872   8.023
 1281POPC   C4A20298  32.116  20.118   7.782
 1281POPC   C1B20299  32.574  19.661   8.499
 1281POPC   C2B20300  32.626  19.427   8.112
 1281POPC   C3B20301  32.521  19.530   7.656
 1281POPC   C4B20302  32.590  19.590   7.225
 1282POPC   NC320303  20.974  17.875   9.711
 1282POPC   PO420304  20.664  17.343   9.689
 1282POPC   GL120305  20.580  17.473   9.258
 1282POPC   GL220306  20.817  17.754   9.212
 1282POPC   C1A20307  20.560  17.514   8.788
 1282POPC   D2A20308  20.677  17.561   8.327
 1282POPC   C3A20309  20.489  17.311   7.967
 1282POPC   C4A20310  20.436  17.262   7.487
 1282POPC   C1B20311  20.820  17.993   8.806
 1282POPC   C2B20312  20.743  18.081   8.343
 1282POPC   C3B20313  20.798  17.907   7.930
 1282POPC   C4B20314  20.502  17.724   7.664
 1283POPC   NC320315  24.944  42.877   9.517
 1283POPC   PO420316  25.520  43.029   9.772
 1283POPC   GL120317  25.414  43.150   9.347
 1283POPC   GL220318  25.467  42.834   9.173
 1283POPC   C1A20319  25.192  43.254   8.946
 1283POPC   D2A20320  25.281  43.120   8.509
 1283POPC   C3A20321  25.269  43.427   8.201
 1283POPC   C4A20322  25.230  43.230   7.799
 1283POPC   C1B20323  25.164  42.732   8.832
 1283POPC   C2B20324  25.114  42.618   8.387
 1283POPC   C3B20325  25.281  42.752   7.998
 1283POPC   C4B20326  25.049  42.765   7.611
 1284POPC   NC320327   1.841  19.824   9.565
 1284POPC   PO420328   1.929  20.414   9.475
 1284POPC   GL120329   2.077  20.189   9.095
 1284POPC   GL220330   2.131  19.812   9.117
 1284POPC   C1A20331   1.900  20.109   8.682
 1284POPC   D2A20332   2.005  19.940   8.302
 1284POPC   C3A20333   1.826  19.812   7.949
 1284POPC   C4A20334   1.955  20.072   7.624
 1284POPC   C1B20335   2.002  19.606   8.707
 1284POPC   C2B20336   1.892  19.395   8.318
 1284POPC   C3B20337   2.027  19.341   7.916
 1284POPC   C4B20338   1.994  19.571   7.488
 1285POPC   NC320339   0.351  44.283   9.243
 1285POPC   PO420340   0.419  43.715   9.628
 1285POPC   GL120341   0.624  43.609   9.206
 1285POPC   GL220342   0.393  43.812   9.101
 1285POPC   C1A20343   0.809  43.858   8.843
 1285POPC   D2A20344   0.559  44.070   8.517
 1285POPC   C3A20345   0.739  44.211   8.128
 1285POPC   C4A20346   0.511  44.241   7.765
 1285POPC   C1B20347   0.267  43.689   8.723
 1285POPC   C2B20348   0.056  43.901   8.425
 1285POPC   C3B20349   0.085  44.048   8.016
 1285POPC   C4B20350   0.282  43.806   7.721
 1286POPC   NC320351  14.649   7.364   9.493
 1286POPC   PO420352  13.995   7.269   9.617
 1286POPC   GL120353  14.162   7.040   9.163
 1286POPC   GL220354  14.465   7.170   9.079
 1286POPC   C1A20355  14.188   7.118   8.670
 1286POPC   D2A20356  14.492   7.283   8.368
 1286POPC   C3A20357  14.288   7.363   7.990
 1286POPC   C4A20358  14.388   7.193   7.618
 1286POPC   C1B20359  14.622   7.483   8.825
 1286POPC   C2B20360  14.535   7.774   8.531
 1286POPC   C3B20361  14.574   7.793   8.116
 1286POPC   C4B20362  14.718   7.549   7.797
 1287POPC   NC320363  40.406  22.465   9.417
 1287POPC   PO420364  40.761  21.834   9.444
 1287POPC   GL120365  40.475  22.049   9.105
 1287POPC   GL220366  40.358  22.358   8.939
 1287POPC   C1A20367  40.523  21.962   8.645
 1287POPC   D2A20368  40.733  21.722   8.288
 1287POPC   C3A20369  41.008  21.989   7.945
 1287POPC   C4A20370  41.118  22.009   7.464
 1287POPC   C1B20371  40.749  22.446   8.775
 1287POPC   C2B20372  40.839  22.597   8.369
 1287POPC   C3B20373  40.952  22.492   7.979
 1287POPC   C4B20374  40.938  22.470   7.559
 1288POPC   NC320375  24.972  44.704   9.417
 1288POPC   PO420376  25.457  44.224   9.505
 1288POPC   GL120377  25.425  44.556   9.155
 1288POPC   GL220378  25.092  44.550   8.943
 1288POPC   C1A20379  25.495  44.761   8.740
 1288POPC   D2A20380  25.200  44.633   8.408
 1288POPC   C3A20381  25.419  44.511   8.012
 1288POPC   C4A20382  25.511  44.815   7.673
 1288POPC   C1B20383  25.045   0.030   8.812
 1288POPC   C2B20384  24.922   0.383   8.528
 1288POPC   C3B20385  24.809   0.064   8.228
 1288POPC   C4B20386  25.104  44.899   7.949
 1289POPC   NC320387  22.370  30.624   9.591
 1289POPC   PO420388  21.756  30.427   9.329
 1289POPC   GL120389  22.096  30.660   9.160
 1289POPC   GL220390  21.955  30.929   9.026
 1289POPC   C1A20391  22.378  30.775   8.813
 1289POPC   D2A20392  22.397  30.513   8.436
 1289POPC   C3A20393  22.383  30.713   8.033
 1289POPC   C4A20394  22.281  30.682   7.621
 1289POPC   C1B20395  21.911  30.602   8.686
 1289POPC   C2B20396  21.922  30.707   8.260
 1289POPC   C3B20397  21.785  30.776   7.800
 1289POPC   C4B20398  21.723  30.431   7.484
 1290POPC   NC320399  17.711  22.040   9.321
 1290POPC   PO420400  17.233  22.206   9.735
 1290POPC   GL120401  17.226  22.182   9.222
 1290POPC   GL220402  17.167  21.910   9.129
 1290POPC   C1A20403  17.479  22.012   8.750
 1290POPC   D2A20404  17.629  21.868   8.348
 1290POPC   C3A20405  17.632  22.222   8.102
 1290POPC   C4A20406  17.439  22.462   7.804
 1290POPC   C1B20407  16.987  22.004   8.725
 1290POPC   C2B20408  17.145  22.079   8.309
 1290POPC   C3B20409  17.279  21.903   7.923
 1290POPC   C4B20410  17.141  22.119   7.561
 1291POPC   NC320411  16.029  26.488   9.286
 1291POPC   PO420412  15.553  26.794   9.664
 1291POPC   GL120413  15.776  26.909   9.164
 1291POPC   GL220414  16.126  26.854   8.971
 1291POPC   C1A20415  15.755  26.672   8.701
 1291POPC   D2A20416  15.982  26.564   8.355
 1291POPC   C3A20417  15.765  26.619   7.982
 1291POPC   C4A20418  16.030  26.746   7.674
 1291POPC   C1B20419  16.333  27.037   8.653
 1291POPC   C2B20420  16.235  27.204   8.257
 1291POPC   C3B20421  16.323  27.150   7.829
 1291POPC   C4B20422  16.375  26.961   7.398
 1292POPC   NC320423  35.721  18.486   9.600
 1292POPC   PO420424  35.331  18.029   9.658
 1292POPC   GL120425  35.467  18.120   9.213
 1292POPC   GL220426  35.538  18.494   9.129
 1292POPC   C1A20427  35.424  18.188   8.742
 1292POPC   D2A20428  35.584  18.002   8.357
 1292POPC   C3A20429  35.266  18.123   8.116
 1292POPC   C4A20430  35.123  18.180   7.710
 1292POPC   C1B20431  35.317  18.699   8.777
 1292POPC   C2B20432  35.430  18.728   8.357
 1292POPC   C3B20433  35.349  18.586   7.952
 1292POPC   C4B20434  35.530  18.508   7.552
 1293POPC   NC320435  13.699   7.186   9.240
 1293POPC   PO420436  13.623   6.555   9.539
 1293POPC   GL120437  13.680   6.663   9.149
 1293POPC   GL220438  13.959   6.414   9.183
 1293POPC   C1A20439  13.415   6.794   8.768
 1293POPC   D2A20440  13.442   6.948   8.341
 1293POPC   C3A20441  13.357   6.713   7.953
 1293POPC   C4A20442  13.731   6.780   7.712
 1293POPC   C1B20443  14.082   6.645   8.832
 1293POPC   C2B20444  13.871   6.688   8.462
 1293POPC   C3B20445  13.841   6.467   8.095
 1293POPC   C4B20446  14.194   6.575   7.882
 1294POPC   NC320447  43.777  12.230   9.946
 1294POPC   PO420448  43.550  11.596   9.693
 1294POPC   GL120449  43.761  11.718   9.226
 1294POPC   GL220450  44.121  11.799   9.275
 1294POPC   C1A20451  43.729  11.824   8.733
 1294POPC   D2A20452  43.813  12.122   8.362
 1294POPC   C3A20453  43.736  12.099   7.891
 1294POPC   C4A20454  43.582  12.197   7.440
 1294POPC   C1B20455  44.167  12.064   8.903
 1294POPC   C2B20456  44.303  12.129   8.499
 1294POPC   C3B20457  44.251  12.140   8.081
 1294POPC   C4B20458  44.279  12.061   7.672
 1295POPC   NC320459  39.275  27.776   9.518
 1295POPC   PO420460  39.706  27.237   9.575
 1295POPC   GL120461  39.498  27.527   9.140
 1295POPC   GL220462  39.122  27.608   9.048
 1295POPC   C1A20463  39.449  27.815   8.750
 1295POPC   D2A20464  39.144  27.820   8.406
 1295POPC   C3A20465  39.389  27.979   8.046
 1295POPC   C4A20466  39.442  27.918   7.619
 1295POPC   C1B20467  39.252  27.334   8.685
 1295POPC   C2B20468  39.413  27.308   8.258
 1295POPC   C3B20469  39.365  27.413   7.808
 1295POPC   C4B20470  39.341  27.139   7.425
 1296POPC   NC320471  26.996  21.523   9.423
 1296POPC   PO420472  27.219  20.899   9.687
 1296POPC   GL120473  26.938  21.058   9.269
 1296POPC   GL220474  26.592  21.043   9.198
 1296POPC   C1A20475  27.097  21.249   8.819
 1296POPC   D2A20476  27.170  21.117   8.376
 1296POPC   C3A20477  26.897  21.242   8.013
 1296POPC   C4A20478  27.088  21.347   7.602
 1296POPC   C1B20479  26.601  21.302   8.793
 1296POPC   C2B20480  26.465  21.381   8.343
 1296POPC   C3B20481  26.453  21.551   7.904
 1296POPC   C4B20482  26.655  21.612   7.491
 1297POPC   NC320483  26.058  12.674   9.493
 1297POPC   PO420484  26.044  13.327   9.364
 1297POPC   GL120485  25.953  13.004   9.076
 1297POPC   GL220486  26.275  12.904   9.108
 1297POPC   C1A20487  26.003  12.746   8.689
 1297POPC   D2A20488  25.806  12.737   8.277
 1297POPC   C3A20489  26.089  12.723   7.950
 1297POPC   C4A20490  26.041  12.920   7.576
 1297POPC   C1B20491  26.368  13.114   8.728
 1297POPC   C2B20492  26.299  13.063   8.269
 1297POPC   C3B20493  26.467  13.066   7.824
 1297POPC   C4B20494  26.479  13.082   7.350
 1298POPC   NC320495   6.104   6.551   9.443
 1298POPC   PO420496   5.597   6.976   9.491
 1298POPC   GL120497   5.806   6.917   9.106
 1298POPC   GL220498   5.856   6.573   9.024
 1298POPC   C1A20499   5.607   6.860   8.709
 1298POPC   D2A20500   5.736   6.618   8.389
 1298POPC   C3A20501   5.701   6.760   8.011
 1298POPC   C4A20502   5.747   6.572   7.636
 1298POPC   C1B20503   6.063   6.400   8.706
 1298POPC   C2B20504   6.236   6.516   8.325
 1298POPC   C3B20505   6.125   6.434   7.928
 1298POPC   C4B20506   6.151   6.326   7.485
 1299POPC   NC320507  16.826   4.238   9.557
 1299POPC   PO420508  16.631   4.842   9.497
 1299POPC   GL120509  16.720   4.502   9.125
 1299POPC   GL220510  16.604   4.115   9.119
 1299POPC   C1A20511  16.967   4.432   8.725
 1299POPC   D2A20512  17.103   4.450   8.291
 1299POPC   C3A20513  16.731   4.539   8.037
 1299POPC   C4A20514  16.746   4.713   7.628
 1299POPC   C1B20515  16.525   4.158   8.691
 1299POPC   C2B20516  16.772   4.053   8.343
 1299POPC   C3B20517  16.792   4.057   7.900
 1299POPC   C4B20518  16.467   4.282   7.683
 1300POPC   NC320519  43.061  42.047   9.417
 1300POPC   PO420520  43.267  42.625   9.660
 1300POPC   GL120521  43.252  42.485   9.182
 1300POPC   GL220522  43.494  42.222   9.160
 1300POPC   C1A20523  43.023  42.202   8.800
 1300POPC   D2A20524  42.758  42.041   8.413
 1300POPC   C3A20525  42.954  41.907   7.997
 1300POPC   C4A20526  42.981  42.028   7.548
 1300POPC   C1B20527  43.491  42.358   8.699
 1300POPC   C2B20528  43.281  42.282   8.267
 1300POPC   C3B20529  43.265  42.366   7.794
 1300POPC   C4B20530  43.451  42.708   7.500
 1301POPC   NC320531  33.212  39.998   9.513
 1301POPC   PO420532  32.545  39.881   9.432
 1301POPC   GL120533  32.734  40.075   9.078
 1301POPC   GL220534  33.050  39.932   9.038
 1301POPC   C1A20535  32.747  39.975   8.620
 1301POPC   D2A20536  32.987  39.979   8.245
 1301POPC   C3A20537  32.858  39.677   7.956
 1301POPC   C4A20538  32.800  39.658   7.497
 1301POPC   C1B20539  33.197  40.223   8.762
 1301POPC   C2B20540  33.300  40.404   8.385
 1301POPC   C3B20541  33.029  40.449   8.027
 1301POPC   C4B20542  32.859  40.137   7.717
 1302POPC   NC320543  13.319  26.223   9.570
 1302POPC   PO420544  13.963  26.499   9.462
 1302POPC   GL120545  13.706  26.147   9.243
 1302POPC   GL220546  13.369  26.290   9.082
 1302POPC   C1A20547  13.560  25.897   8.848
 1302POPC   D2A20548  13.436  26.123   8.470
 1302POPC   C3A20549  13.490  26.018   8.017
 1302POPC   C4A20550  13.466  26.130   7.558
 1302POPC   C1B20551  13.744  26.403   8.808
 1302POPC   C2B20552  13.952  26.552   8.442
 1302POPC   C3B20553  13.842  26.404   8.034
 1302POPC   C4B20554  13.977  26.221   7.618
 1303POPC   NC320555  17.801  18.759   9.425
 1303POPC   PO420556  17.996  19.376   9.503
 1303POPC   GL120557  18.154  19.362   9.090
 1303POPC   GL220558  18.065  19.028   9.064
 1303POPC   C1A20559  18.384  19.454   8.722
 1303POPC   D2A20560  18.297  19.554   8.332
 1303POPC   C3A20561  18.074  19.206   8.141
 1303POPC   C4A20562  18.074  19.137   7.729
 1303POPC   C1B20563  18.388  18.945   8.757
 1303POPC   C2B20564  18.532  19.098   8.336
 1303POPC   C3B20565  18.521  18.934   7.914
 1303POPC   C4B20566  18.406  18.717   7.537
 1304POPC   NC320567  26.229  40.925   9.531
 1304POPC   PO420568  25.564  40.860   9.552
 1304POPC   GL120569  25.792  40.993   9.220
 1304POPC   GL220570  25.986  40.700   9.158
 1304POPC   C1A20571  25.917  41.010   8.775
 1304POPC   D2A20572  25.920  40.785   8.415
 1304POPC   C3A20573  25.815  41.022   8.087
 1304POPC   C4A20574  26.050  40.867   7.746
 1304POPC   C1B20575  25.882  40.444   8.803
 1304POPC   C2B20576  26.102  40.296   8.429
 1304POPC   C3B20577  26.083  40.419   8.011
 1304POPC   C4B20578  25.965  40.373   7.575
 1305POPC   NC320579  39.536  22.340   9.881
 1305POPC   PO420580  40.091  22.131   9.444
 1305POPC   GL120581  39.917  22.125   9.043
 1305POPC   GL220582  39.649  22.339   9.095
 1305POPC   C1A20583  40.062  22.140   8.564
 1305POPC   D2A20584  40.357  22.050   8.173
 1305POPC   C3A20585  40.124  21.991   7.817
 1305POPC   C4A20586  39.747  21.981   7.935
 1305POPC   C1B20587  39.899  22.571   8.798
 1305POPC   C2B20588  39.706  22.472   8.426
 1305POPC   C3B20589  39.657  22.486   8.017
 1305POPC   C4B20590  39.906  22.445   7.692
 1306POPC   NC320591  12.252  37.137   9.387
 1306POPC   PO420592  11.754  36.678   9.607
 1306POPC   GL120593  11.921  36.761   9.206
 1306POPC   GL220594  11.756  37.087   9.202
 1306POPC   C1A20595  12.176  36.652   8.806
 1306POPC   D2A20596  12.405  36.871   8.456
 1306POPC   C3A20597  12.236  37.000   8.062
 1306POPC   C4A20598  12.215  36.733   7.693
 1306POPC   C1B20599  11.799  37.010   8.753
 1306POPC   C2B20600  11.852  36.771   8.365
 1306POPC   C3B20601  11.756  36.884   7.915
 1306POPC   C4B20602  11.944  37.240   7.678
 1307POPC   NC320603  25.840  34.704   9.787
 1307POPC   PO420604  25.830  35.376   9.548
 1307POPC   GL120605  25.884  35.401   9.094
 1307POPC   GL220606  26.183  35.293   9.020
 1307POPC   C1A20607  25.842  35.344   8.641
 1307POPC   D2A20608  25.559  35.408   8.307
 1307POPC   C3A20609  25.761  35.400   7.931
 1307POPC   C4A20610  26.061  35.522   7.650
 1307POPC   C1B20611  26.269  35.060   8.667
 1307POPC   C2B20612  26.117  35.146   8.225
 1307POPC   C3B20613  26.114  35.033   7.770
 1307POPC   C4B20614  26.255  35.136   7.340
 1308POPC   NC320615  40.164  28.207   9.360
 1308POPC   PO420616  39.816  28.824   9.557
 1308POPC   GL120617  39.775  28.559   9.223
 1308POPC   GL220618  40.095  28.641   9.071
 1308POPC   C1A20619  39.663  28.509   8.801
 1308POPC   D2A20620  39.714  28.692   8.388
 1308POPC   C3A20621  39.754  28.371   8.098
 1308POPC   C4A20622  39.885  28.251   7.708
 1308POPC   C1B20623  40.179  28.574   8.605
 1308POPC   C2B20624  40.454  28.394   8.251
 1308POPC   C3B20625  40.376  28.199   7.837
 1308POPC   C4B20626  40.280  28.149   7.368
 1309POPC   NC320627  12.547  41.295   9.438
 1309POPC   PO420628  13.251  41.169   9.349
 1309POPC   GL120629  13.006  41.427   9.115
 1309POPC   GL220630  12.686  41.490   8.999
 1309POPC   C1A20631  13.082  41.736   8.817
 1309POPC   D2A20632  12.845  41.532   8.498
 1309POPC   C3A20633  12.785  41.659   8.101
 1309POPC   C4A20634  13.148  41.690   7.878
 1309POPC   C1B20635  12.426  41.321   8.694
 1309POPC   C2B20636  12.460  41.274   8.248
 1309POPC   C3B20637  12.411  41.402   7.848
 1309POPC   C4B20638  12.785  41.425   7.614
 1310POPC   NC320639  28.213  16.603   9.441
 1310POPC   PO420640  28.554  17.218   9.524
 1310POPC   GL120641  28.385  17.017   9.153
 1310POPC   GL220642  28.617  16.776   9.076
 1310POPC   C1A20643  28.125  16.876   8.775
 1310POPC   D2A20644  27.915  16.948   8.342
 1310POPC   C3A20645  28.118  16.809   7.942
 1310POPC   C4A20646  28.329  16.694   7.538
 1310POPC   C1B20647  28.617  16.977   8.659
 1310POPC   C2B20648  28.486  17.118   8.232
 1310POPC   C3B20649  28.636  17.033   7.792
 1310POPC   C4B20650  28.725  16.938   7.319
 1311POPC   NC320651   7.385   2.639   9.479
 1311POPC   PO420652   7.600   3.250   9.522
 1311POPC   GL120653   7.677   3.081   9.088
 1311POPC   GL220654   7.667   2.755   9.027
 1311POPC   C1A20655   7.830   3.070   8.621
 1311POPC   D2A20656   7.776   3.173   8.131
 1311POPC   C3A20657   7.424   2.945   7.872
 1311POPC   C4A20658   7.043   2.673   7.776
 1311POPC   C1B20659   7.534   2.602   8.644
 1311POPC   C2B20660   7.390   2.583   8.216
 1311POPC   C3B20661   7.541   2.369   7.841
 1311POPC   C4B20662   7.627   2.570   7.437
 1312POPC   NC320663  26.872  25.100   9.566
 1312POPC   PO420664  26.622  25.710   9.505
 1312POPC   GL120665  26.739  25.407   9.170
 1312POPC   GL220666  26.583  25.026   9.160
 1312POPC   C1A20667  26.873  25.579   8.775
 1312POPC   D2A20668  27.028  25.670   8.370
 1312POPC   C3A20669  26.793  25.461   8.046
 1312POPC   C4A20670  27.045  25.505   7.719
 1312POPC   C1B20671  26.860  24.907   8.823
 1312POPC   C2B20672  26.972  25.165   8.464
 1312POPC   C3B20673  27.096  25.065   8.052
 1312POPC   C4B20674  26.960  24.996   7.639
 1313POPC   NC320675  15.872  27.121   9.626
 1313POPC   PO420676  16.052  27.777   9.556
 1313POPC   GL120677  15.975  27.656   9.161
 1313POPC   GL220678  16.081  27.331   9.140
 1313POPC   C1A20679  15.810  27.723   8.766
 1313POPC   D2A20680  15.903  27.574   8.383
 1313POPC   C3A20681  15.894  27.803   8.026
 1313POPC   C4A20682  15.902  27.593   7.666
 1313POPC   C1B20683  15.853  27.204   8.738
 1313POPC   C2B20684  15.691  27.091   8.333
 1313POPC   C3B20685  15.814  27.152   7.911
 1313POPC   C4B20686  15.890  27.170   7.429
 1314POPC   NC320687  13.596  10.530   9.571
 1314POPC   PO420688  14.229  10.774   9.516
 1314POPC   GL120689  13.936  10.550   9.181
 1314POPC   GL220690  13.562  10.368   9.119
 1314POPC   C1A20691  13.948  10.264   8.846
 1314POPC   D2A20692  13.745  10.148   8.490
 1314POPC   C3A20693  13.751  10.447   8.154
 1314POPC   C4A20694  13.950  10.470   7.793
 1314POPC   C1B20695  13.304  10.241   8.797
 1314POPC   C2B20696  13.292  10.328   8.341
 1314POPC   C3B20697  13.362  10.113   7.939
 1314POPC   C4B20698  13.522  10.090   7.487
 1315POPC   NC320699  18.242  26.568   9.535
 1315POPC   PO420700  18.902  26.375   9.554
 1315POPC   GL120701  18.611  26.520   9.165
 1315POPC   GL220702  18.253  26.662   9.038
 1315POPC   C1A20703  18.667  26.720   8.749
 1315POPC   D2A20704  18.536  26.529   8.368
 1315POPC   C3A20705  18.260  26.720   8.079
 1315POPC   C4A20706  18.349  26.890   7.685
 1315POPC   C1B20707  18.044  26.717   8.628
 1315POPC   C2B20708  17.823  26.523   8.269
 1315POPC   C3B20709  17.915  26.398   7.821
 1315POPC   C4B20710  17.948  26.694   7.422
 1316POPC   NC320711  26.039   2.522   9.443
 1316POPC   PO420712  25.856   3.102   9.704
 1316POPC   GL120713  25.826   2.981   9.239
 1316POPC   GL220714  26.138   2.907   9.119
 1316POPC   C1A20715  25.725   2.838   8.784
 1316POPC   D2A20716  25.631   2.622   8.386
 1316POPC   C3A20717  25.805   2.820   8.008
 1316POPC   C4A20718  26.067   2.869   7.606
 1316POPC   C1B20719  26.192   2.629   8.802
 1316POPC   C2B20720  26.135   2.509   8.404
 1316POPC   C3B20721  26.245   2.595   8.026
 1316POPC   C4B20722  26.209   2.391   7.660
 1317POPC   NC320723  22.695  11.183   9.750
 1317POPC   PO420724  23.349  11.361   9.460
 1317POPC   GL120725  23.278  11.511   9.063
 1317POPC   GL220726  22.935  11.411   9.138
 1317POPC   C1A20727  23.450  11.391   8.657
 1317POPC   D2A20728  23.258  11.238   8.297
 1317POPC   C3A20729  22.968  11.465   8.073
 1317POPC   C4A20730  22.981  11.408   7.652
 1317POPC   C1B20731  22.983  11.175   8.739
 1317POPC   C2B20732  22.786  11.049   8.340
 1317POPC   C3B20733  22.627  11.123   7.911
 1317POPC   C4B20734  22.275  11.120   7.664
 1318POPC   NC320735  19.616  27.317   9.635
 1318POPC   PO420736  20.098  27.674   9.510
 1318POPC   GL120737  19.919  27.657   9.095
 1318POPC   GL220738  19.592  27.567   9.169
 1318POPC   C1A20739  19.785  27.703   8.660
 1318POPC   D2A20740  19.966  27.460   8.345
 1318POPC   C3A20741  19.840  27.410   7.928
 1318POPC   C4A20742  19.773  27.712   7.618
 1318POPC   C1B20743  19.587  27.265   8.827
 1318POPC   C2B20744  19.465  27.291   8.399
 1318POPC   C3B20745  19.425  27.078   8.007
 1318POPC   C4B20746  19.447  27.275   7.590
 1319POPC   NC320747  26.595  39.154   9.455
 1319POPC   PO420748  25.915  39.029   9.526
 1319POPC   GL120749  26.153  39.326   9.255
 1319POPC   GL220750  26.333  39.069   9.040
 1319POPC   C1A20751  26.209  39.518   8.832
 1319POPC   D2A20752  26.042  39.304   8.447
 1319POPC   C3A20753  26.073  39.483   7.988
 1319POPC   C4A20754  25.901  39.404   7.524
 1319POPC   C1B20755  25.907  38.996   8.860
 1319POPC   C2B20756  25.644  38.945   8.476
 1319POPC   C3B20757  25.773  39.071   8.061
 1319POPC   C4B20758  26.123  39.007   7.757
 1320POPC   NC320759  44.160  14.700   9.872
 1320POPC   PO420760  43.879  15.112   9.417
 1320POPC   GL120761  44.056  14.705   9.172
 1320POPC   GL220762  44.043  14.301   9.174
 1320POPC   C1A20763  44.061  14.572   8.715
 1320POPC   D2A20764  43.976  14.179   8.454
 1320POPC   C3A20765  43.782  14.282   8.111
 1320POPC   C4A20766  43.904  14.659   7.873
 1320POPC   C1B20767  44.331  14.175   8.813
 1320POPC   C2B20768  44.445  14.348   8.367
 1320POPC   C3B20769  44.237  14.092   7.974
 1320POPC   C4B20770  43.912  14.188   7.643
 1321POPC   NC320771   4.394  11.564   9.502
 1321POPC   PO420772   4.117  10.906   9.572
 1321POPC   GL120773   4.318  10.990   9.201
 1321POPC   GL220774   4.691  11.014   9.262
 1321POPC   C1A20775   4.342  11.293   8.849
 1321POPC   D2A20776   4.266  11.662   8.538
 1321POPC   C3A20777   4.430  11.571   8.109
 1321POPC   C4A20778   4.223  11.381   7.769
 1321POPC   C1B20779   4.655  10.816   8.850
 1321POPC   C2B20780   4.514  10.895   8.442
 1321POPC   C3B20781   4.275  10.990   8.080
 1321POPC   C4B20782   4.292  10.849   7.650
 1322POPC   NC320783   7.108  41.592   9.430
 1322POPC   PO420784   7.564  41.275   9.465
 1322POPC   GL120785   7.521  41.545   9.092
 1322POPC   GL220786   7.187  41.540   8.928
 1322POPC   C1A20787   7.588  41.743   8.683
 1322POPC   D2A20788   7.439  41.656   8.258
 1322POPC   C3A20789   7.716  41.602   7.886
 1322POPC   C4A20790   7.791  41.779   7.439
 1322POPC   C1B20791   7.432  41.257   8.647
 1322POPC   C2B20792   7.368  41.131   8.212
 1322POPC   C3B20793   7.173  41.408   7.889
 1322POPC   C4B20794   6.979  41.532   7.474
 1323POPC   NC320795  30.928  30.885   9.593
 1323POPC   PO420796  30.357  30.631   9.336
 1323POPC   GL120797  30.709  30.619   9.112
 1323POPC   GL220798  30.950  30.367   9.205
 1323POPC   C1A20799  30.699  30.822   8.715
 1323POPC   D2A20800  30.498  30.690   8.323
 1323POPC   C3A20801  30.620  30.898   7.941
 1323POPC   C4A20802  30.339  30.665   7.719
 1323POPC   C1B20803  30.974  30.341   8.749
 1323POPC   C2B20804  30.998  30.574   8.354
 1323POPC   C3B20805  30.968  30.522   7.905
 1323POPC   C4B20806  31.073  30.797   7.562
 1324POPC   NC320807  20.328  30.501   9.461
 1324POPC   PO420808  20.881  30.055   9.388
 1324POPC   GL120809  20.697  30.358   9.106
 1324POPC   GL220810  20.688  30.719   9.146
 1324POPC   C1A20811  20.614  30.517   8.681
 1324POPC   D2A20812  20.608  30.654   8.254
 1324POPC   C3A20813  20.933  30.472   8.034
 1324POPC   C4A20814  20.950  30.242   7.662
 1324POPC   C1B20815  20.372  30.939   8.839
 1324POPC   C2B20816  20.478  31.125   8.409
 1324POPC   C3B20817  20.336  31.053   7.992
 1324POPC   C4B20818  20.490  30.919   7.582
 1325POPC   NC320819  40.301  24.451   9.406
 1325POPC   PO420820  39.652  24.168   9.438
 1325POPC   GL120821  39.867  24.343   9.109
 1325POPC   GL220822  39.805  24.663   9.209
 1325POPC   C1A20823  40.174  24.331   8.774
 1325POPC   D2A20824  40.065  24.290   8.368
 1325POPC   C3A20825  40.361  24.294   8.033
 1325POPC   C4A20826  40.329  24.495   7.608
 1325POPC   C1B20827  39.895  24.768   8.780
 1325POPC   C2B20828  39.803  24.750   8.335
 1325POPC   C3B20829  39.972  24.664   7.944
 1325POPC   C4B20830  39.685  24.511   7.631
 1326POPC   NC320831   2.631   7.276   9.283
 1326POPC   PO420832   2.896   6.789   9.658
 1326POPC   GL120833   2.908   6.760   9.188
 1326POPC   GL220834   2.575   6.823   9.030
 1326POPC   C1A20835   2.939   6.531   8.764
 1326POPC   D2A20836   2.801   6.291   8.412
 1326POPC   C3A20837   2.873   6.465   8.033
 1326POPC   C4A20838   2.511   6.519   7.813
 1326POPC   C1B20839   2.893   7.030   8.723
 1326POPC   C2B20840   2.994   6.914   8.272
 1326POPC   C3B20841   2.886   6.942   7.810
 1326POPC   C4B20842   3.075   7.006   7.407
 1327POPC   NC320843   9.230   4.216   9.572
 1327POPC   PO420844   8.607   4.328   9.552
 1327POPC   GL120845   8.906   4.320   9.192
 1327POPC   GL220846   8.960   3.985   9.055
 1327POPC   C1A20847   9.036   4.427   8.755
 1327POPC   D2A20848   9.087   4.293   8.326
 1327POPC   C3A20849   9.232   4.552   7.986
 1327POPC   C4A20850   8.898   4.605   7.662
 1327POPC   C1B20851   8.742   4.007   8.614
 1327POPC   C2B20852   8.654   4.083   8.148
 1327POPC   C3B20853   8.579   4.200   7.690
 1327POPC   C4B20854   8.611   3.926   7.303
 1328POPC   NC320855  29.726  36.411   9.483
 1328POPC   PO420856  30.010  35.775   9.477
 1328POPC   GL120857  30.022  36.112   9.163
 1328POPC   GL220858  29.698  36.260   9.018
 1328POPC   C1A20859  30.126  36.145   8.741
 1328POPC   D2A20860  29.935  36.195   8.380
 1328POPC   C3A20861  30.139  36.229   7.994
 1328POPC   C4A20862  29.810  36.461   7.785
 1328POPC   C1B20863  29.636  35.906   8.812
 1328POPC   C2B20864  29.608  35.810   8.398
 1328POPC   C3B20865  29.726  35.903   7.989
 1328POPC   C4B20866  29.582  35.792   7.614
 1329POPC   NC320867  30.412  44.960   9.330
 1329POPC   PO420868  30.992   0.297   9.541
 1329POPC   GL120869  30.681   0.384   9.162
 1329POPC   GL220870  30.623   0.151   8.921
 1329POPC   C1A20871  30.465   0.586   8.782
 1329POPC   D2A20872  30.598   0.400   8.406
 1329POPC   C3A20873  30.472   0.572   8.017
 1329POPC   C4A20874  30.735   0.754   7.696
 1329POPC   C1B20875  30.898   0.000   8.611
 1329POPC   C2B20876  31.080   0.205   8.257
 1329POPC   C3B20877  30.920   0.298   7.855
 1329POPC   C4B20878  30.891   0.119   7.416
 1330POPC   NC320879  38.449  16.971   9.489
 1330POPC   PO420880  38.387  17.691   9.461
 1330POPC   GL120881  38.394  17.899   9.060
 1330POPC   GL220882  38.737  17.872   9.087
 1330POPC   C1A20883  38.256  17.864   8.625
 1330POPC   D2A20884  38.045  17.507   8.402
 1330POPC   C3A20885  38.170  17.371   8.015
 1330POPC   C4A20886  38.401  17.624   7.751
 1330POPC   C1B20887  38.742  17.662   8.686
 1330POPC   C2B20888  38.580  17.651   8.250
 1330POPC   C3B20889  38.835  17.845   7.903
 1330POPC   C4B20890  38.748  17.858   7.465
 1331POPC   NC320891  31.962  20.417   9.332
 1331POPC   PO420892  31.534  20.908   9.396
 1331POPC   GL120893  31.564  20.732   9.021
 1331POPC   GL220894  31.498  20.426   9.100
 1331POPC   C1A20895  31.579  20.631   8.580
 1331POPC   D2A20896  31.291  20.588   8.235
 1331POPC   C3A20897  31.414  20.794   7.851
 1331POPC   C4A20898  31.400  21.223   7.740
 1331POPC   C1B20899  31.671  20.160   8.764
 1331POPC   C2B20900  31.694  20.152   8.327
 1331POPC   C3B20901  31.728  20.412   7.997
 1331POPC   C4B20902  31.737  20.456   7.561
 1332POPC   NC320903  22.681  44.568   9.610
 1332POPC   PO420904  23.311  44.402   9.467
 1332POPC   GL120905  22.967  44.553   9.150
 1332POPC   GL220906  22.793  44.884   9.189
 1332POPC   C1A20907  22.957  44.756   8.715
 1332POPC   D2A20908  23.009  44.774   8.266
 1332POPC   C3A20909  23.103  44.407   8.026
 1332POPC   C4A20910  22.845  44.269   7.691
 1332POPC   C1B20911  22.487  44.969   8.851
 1332POPC   C2B20912  22.517  44.851   8.436
 1332POPC   C3B20913  22.598  44.969   8.027
 1332POPC   C4B20914  22.917  44.808   7.737
 1333POPC   NC320915  40.654  29.803   9.426
 1333POPC   PO420916  41.094  30.256   9.535
 1333POPC   GL120917  40.823  30.258   9.214
 1333POPC   GL220918  40.957  29.963   9.041
 1333POPC   C1A20919  40.489  30.182   8.913
 1333POPC   D2A20920  40.481  30.233   8.476
 1333POPC   C3A20921  40.647  29.940   8.211
 1333POPC   C4A20922  40.455  29.941   7.816
 1333POPC   C1B20923  40.957  30.315   8.728
 1333POPC   C2B20924  41.159  30.381   8.352
 1333POPC   C3B20925  40.956  30.279   7.956
 1333POPC   C4B20926  40.980  29.828   7.833
 1334POPC   NC320927  20.090   0.854   9.438
 1334POPC   PO420928  19.502   1.148   9.313
 1334POPC   GL120929  19.898   1.185   9.064
 1334POPC   GL220930  20.172   1.379   9.204
 1334POPC   C1A20931  19.973   1.136   8.609
 1334POPC   D2A20932  19.918   0.851   8.251
 1334POPC   C3A20933  19.626   0.941   7.934
 1334POPC   C4A20934  19.663   1.123   7.548
 1334POPC   C1B20935  20.002   1.631   8.839
 1334POPC   C2B20936  19.833   1.608   8.426
 1334POPC   C3B20937  19.867   1.385   8.039
 1334POPC   C4B20938  19.814   1.587   7.641
 1335POPC   NC320939   3.539   6.938   9.528
 1335POPC   PO420940   3.296   6.354   9.266
 1335POPC   GL120941   3.410   6.766   9.050
 1335POPC   GL220942   3.306   7.125   9.091
 1335POPC   C1A20943   3.375   6.858   8.620
 1335POPC   D2A20944   3.299   6.497   8.340
 1335POPC   C3A20945   3.448   6.476   7.902
 1335POPC   C4A20946   3.162   6.534   7.597
 1335POPC   C1B20947   3.735   7.139   8.866
 1335POPC   C2B20948   3.879   6.971   8.456
 1335POPC   C3B20949   3.548   6.921   8.136
 1335POPC   C4B20950   3.503   6.985   7.717
 1336POPC   NC320951  16.106   1.035   9.576
 1336POPC   PO420952  15.506   1.073   9.325
 1336POPC   GL120953  15.835   1.246   9.022
 1336POPC   GL220954  16.187   1.281   9.129
 1336POPC   C1A20955  16.099   1.131   8.628
 1336POPC   D2A20956  16.154   1.068   8.159
 1336POPC   C3A20957  15.923   1.056   7.741
 1336POPC   C4A20958  15.837   0.857   7.294
 1336POPC   C1B20959  16.435   1.483   8.809
 1336POPC   C2B20960  16.318   1.612   8.360
 1336POPC   C3B20961  16.371   1.467   7.928
 1336POPC   C4B20962  16.179   1.429   7.516
 1337POPC   NC320963  31.246  24.111   9.438
 1337POPC   PO420964  31.657  24.662   9.482
 1337POPC   GL120965  31.498  24.470   9.154
 1337POPC   GL220966  31.688  24.159   9.177
 1337POPC   C1A20967  31.260  24.504   8.783
 1337POPC   D2A20968  31.431  24.386   8.415
 1337POPC   C3A20969  31.400  24.618   8.061
 1337POPC   C4A20970  31.120  24.472   7.766
 1337POPC   C1B20971  31.554  24.033   8.788
 1337POPC   C2B20972  31.551  23.890   8.372
 1337POPC   C3B20973  31.455  24.111   7.990
 1337POPC   C4B20974  31.667  24.376   7.680
 1338POPC   NC320975  20.836  22.955   9.598
 1338POPC   PO420976  20.248  22.584   9.529
 1338POPC   GL120977  20.511  22.782   9.221
 1338POPC   GL220978  20.493  23.109   9.191
 1338POPC   C1A20979  20.842  22.849   8.893
 1338POPC   D2A20980  20.855  23.022   8.470
 1338POPC   C3A20981  20.655  22.777   8.176
 1338POPC   C4A20982  20.812  22.764   7.745
 1338POPC   C1B20983  20.506  23.237   8.803
 1338POPC   C2B20984  20.371  23.174   8.407
 1338POPC   C3B20985  20.555  23.250   8.000
 1338POPC   C4B20986  20.303  23.301   7.646
 1339POPC   NC320987  44.019  16.273   9.572
 1339POPC   PO420988  43.726  16.850   9.369
 1339POPC   GL120989  43.788  16.543   9.102
 1339POPC   GL220990  44.121  16.504   9.123
 1339POPC   C1A20991  43.811  16.656   8.686
 1339POPC   D2A20992  43.816  16.933   8.360
 1339POPC   C3A20993  43.867  16.734   7.936
 1339POPC   C4A20994  43.721  16.973   7.568
 1339POPC   C1B20995  44.320  16.683   8.738
 1339POPC   C2B20996  44.283  16.736   8.283
 1339POPC   C3B20997  44.369  16.632   7.850
 1339POPC   C4B20998  44.498  16.381   7.510
 1340POPC   NC320999  20.079  31.064   9.696
 1340POPC   PO421000  19.799  31.661   9.684
 1340POPC   GL121001  19.762  31.859   9.295
 1340POPC   GL221002  19.995  31.622   9.145
 1340POPC   C1A21003  19.698  31.930   8.862
 1340POPC   D2A21004  19.899  31.674   8.567
 1340POPC   C3A21005  19.843  31.669   8.096
 1340POPC   C4A21006  20.060  31.455   7.742
 1340POPC   C1B21007  19.920  31.241   8.904
 1340POPC   C2B21008  19.980  31.203   8.436
 1340POPC   C3B21009  19.803  31.126   8.029
 1340POPC   C4B21010  19.977  30.952   7.636
 1341POPC   NC321011  31.164  20.582   9.516
 1341POPC   PO421012  30.648  21.091   9.459
 1341POPC   GL121013  30.886  20.815   9.147
 1341POPC   GL221014  30.986  20.447   9.083
 1341POPC   C1A21015  31.098  20.764   8.740
 1341POPC   D2A21016  31.002  20.975   8.418
 1341POPC   C3A21017  30.739  20.841   8.112
 1341POPC   C4A21018  30.923  20.774   7.715
 1341POPC   C1B21019  30.683  20.441   8.796
 1341POPC   C2B21020  30.817  20.451   8.408
 1341POPC   C3B21021  30.753  20.344   7.983
 1341POPC   C4B21022  30.767  19.974   7.753
 1342POPC   NC321023  29.451  20.763   9.465
 1342POPC   PO421024  28.767  20.557   9.498
 1342POPC   GL121025  28.854  20.700   9.135
 1342POPC   GL221026  28.748  20.413   8.974
 1342POPC   C1A21027  29.136  20.874   8.845
 1342POPC   D2A21028  29.128  21.058   8.438
 1342POPC   C3A21029  29.368  20.850   8.091
 1342POPC   C4A21030  29.215  20.713   7.690
 1342POPC   C1B21031  29.175  20.371   8.781
 1342POPC   C2B21032  29.358  20.388   8.377
 1342POPC   C3B21033  29.337  20.275   7.936
 1342POPC   C4B21034  29.098  20.254   7.517
 1343POPC   NC321035  29.339  15.964   9.574
 1343POPC   PO421036  28.830  15.582   9.570
 1343POPC   GL121037  28.930  15.976   9.253
 1343POPC   GL221038  29.280  16.008   9.075
 1343POPC   C1A21039  28.848  16.112   8.796
 1343POPC   D2A21040  28.707  16.190   8.347
 1343POPC   C3A21041  28.753  15.910   7.950
 1343POPC   C4A21042  28.657  15.616   7.556
 1343POPC   C1B21043  29.318  16.284   8.729
 1343POPC   C2B21044  29.185  16.365   8.298
 1343POPC   C3B21045  29.186  16.216   7.873
 1343POPC   C4B21046  29.415  16.064   7.498
 1344POPC   NC321047  36.530   9.646   9.416
 1344POPC   PO421048  35.895   9.847   9.617
 1344POPC   GL121049  36.061   9.789   9.193
 1344POPC   GL221050  35.874   9.508   9.098
 1344POPC   C1A21051  36.312   9.914   8.792
 1344POPC   D2A21052  36.415  10.165   8.384
 1344POPC   C3A21053  36.272   9.913   7.998
 1344POPC   C4A21054  35.815   9.894   7.865
 1344POPC   C1B21055  36.058   9.459   8.747
 1344POPC   C2B21056  36.207   9.399   8.367
 1344POPC   C3B21057  35.979   9.407   8.030
 1344POPC   C4B21058  36.125   9.527   7.662
 1345POPC   NC321059  11.910  19.403   9.555
 1345POPC   PO421060  12.154  20.008   9.499
 1345POPC   GL121061  12.168  19.692   9.196
 1345POPC   GL221062  11.838  19.670   9.092
 1345POPC   C1A21063  12.292  19.836   8.818
 1345POPC   D2A21064  12.111  19.718   8.468
 1345POPC   C3A21065  12.130  19.929   8.091
 1345POPC   C4A21066  12.385  19.795   7.769
 1345POPC   C1B21067  11.779  19.431   8.709
 1345POPC   C2B21068  11.711  19.530   8.227
 1345POPC   C3B21069  11.800  19.549   7.765
 1345POPC   C4B21070  11.905  19.345   7.328
 1346POPC   NC321071  14.081  14.370   9.523
 1346POPC   PO421072  14.582  14.742   9.417
 1346POPC   GL121073  14.399  14.455   9.142
 1346POPC   GL221074  14.150  14.675   9.092
 1346POPC   C1A21075  14.294  14.274   8.736
 1346POPC   D2A21076  14.268  14.001   8.349
 1346POPC   C3A21077  14.263  14.226   7.988
 1346POPC   C4A21078  14.069  14.398   7.625
 1346POPC   C1B21079  14.490  14.775   8.770
 1346POPC   C2B21080  14.457  14.607   8.363
 1346POPC   C3B21081  14.211  14.720   8.024
 1346POPC   C4B21082  14.476  14.689   7.700
 1347POPC   NC321083  28.489   3.263   9.518
 1347POPC   PO421084  28.422   3.993   9.499
 1347POPC   GL121085  28.377   3.669   9.161
 1347POPC   GL221086  28.600   3.400   9.054
 1347POPC   C1A21087  28.261   3.653   8.732
 1347POPC   D2A21088  28.384   3.914   8.402
 1347POPC   C3A21089  28.127   3.907   8.069
 1347POPC   C4A21090  28.149   3.716   7.687
 1347POPC   C1B21091  28.307   3.157   8.812
 1347POPC   C2B21092  28.397   3.157   8.405
 1347POPC   C3B21093  28.362   3.392   8.057
 1347POPC   C4B21094  28.262   3.222   7.686
 1348POPC   NC321095  36.064  33.562   9.553
 1348POPC   PO421096  36.512  34.093   9.426
 1348POPC   GL121097  36.255  33.757   9.122
 1348POPC   GL221098  36.054  33.395   9.090
 1348POPC   C1A21099  36.017  33.786   8.737
 1348POPC   D2A21100  35.843  34.007   8.378
 1348POPC   C3A21101  36.149  33.924   8.055
 1348POPC   C4A21102  36.558  34.053   7.914
 1348POPC   C1B21103  35.920  33.282   8.677
 1348POPC   C2B21104  36.035  33.468   8.298
 1348POPC   C3B21105  36.036  33.310   7.891
 1348POPC   C4B21106  35.954  33.328   7.458
 1349POPC   NC321107   4.864  11.948   9.822
 1349POPC   PO421108   5.371  12.351   9.611
 1349POPC   GL121109   5.173  12.034   9.306
 1349POPC   GL221110   5.473  12.014   9.085
 1349POPC   C1A21111   5.061  11.827   8.876
 1349POPC   D2A21112   5.303  11.942   8.485
 1349POPC   C3A21113   5.016  12.054   8.127
 1349POPC   C4A21114   4.742  12.086   7.791
 1349POPC   C1B21115   5.155  12.315   8.857
 1349POPC   C2B21116   5.179  12.453   8.422
 1349POPC   C3B21117   5.457  12.298   8.092
 1349POPC   C4B21118   5.333  12.182   7.687
 1350POPC   NC321119   8.692  19.570   9.494
 1350POPC   PO421120   9.108  20.003   9.747
 1350POPC   GL121121   9.065  19.868   9.260
 1350POPC   GL221122   8.727  19.864   9.096
 1350POPC   C1A21123   9.110  19.963   8.782
 1350POPC   D2A21124   8.848  19.906   8.392
 1350POPC   C3A21125   9.058  19.838   7.978
 1350POPC   C4A21126   8.985  19.607   7.548
 1350POPC   C1B21127   8.520  20.115   8.783
 1350POPC   C2B21128   8.629  20.388   8.475
 1350POPC   C3B21129   8.731  20.274   8.056
 1350POPC   C4B21130   8.706  20.033   7.668
 1351POPC   NC321131  20.472  18.744   9.511
 1351POPC   PO421132  20.765  18.286   9.685
 1351POPC   GL121133  20.568  18.286   9.238
 1351POPC   GL221134  20.384  17.995   9.090
 1351POPC   C1A21135  20.498  18.397   8.760
 1351POPC   D2A21136  20.515  18.577   8.332
 1351POPC   C3A21137  20.509  18.332   7.921
 1351POPC   C4A21138  20.566  18.176   7.478
 1351POPC   C1B21139  20.335  17.927   8.607
 1351POPC   C2B21140  20.307  17.882   8.125
 1351POPC   C3B21141  20.119  18.071   7.708
 1351POPC   C4B21142  20.125  18.351   7.300
 1352POPC   NC321143  21.109  23.530   9.584
 1352POPC   PO421144  21.292  24.164   9.485
 1352POPC   GL121145  21.377  23.813   9.230
 1352POPC   GL221146  21.072  23.765   9.098
 1352POPC   C1A21147  21.517  23.595   8.862
 1352POPC   D2A21148  21.682  23.698   8.457
 1352POPC   C3A21149  21.652  23.392   8.139
 1352POPC   C4A21150  21.488  23.433   7.751
 1352POPC   C1B21151  21.127  23.880   8.647
 1352POPC   C2B21152  21.235  23.840   8.197
 1352POPC   C3B21153  21.125  23.791   7.750
 1352POPC   C4B21154  20.937  23.883   7.341
 1353POPC   NC321155  27.940  21.832   9.537
 1353POPC   PO421156  27.360  22.338   9.578
 1353POPC   GL121157  27.495  22.097   9.204
 1353POPC   GL221158  27.843  22.086   9.121
 1353POPC   C1A21159  27.493  22.177   8.767
 1353POPC   D2A21160  27.290  22.035   8.404
 1353POPC   C3A21161  27.477  22.281   8.110
 1353POPC   C4A21162  27.412  22.220   7.712
 1353POPC   C1B21163  27.896  21.810   8.800
 1353POPC   C2B21164  27.798  21.951   8.404
 1353POPC   C3B21165  27.764  21.829   8.002
 1353POPC   C4B21166  28.119  21.666   7.817
 1354POPC   NC321167   7.153  19.315   9.309
 1354POPC   PO421168   7.494  18.760   9.446
 1354POPC   GL121169   7.349  18.895   9.080
 1354POPC   GL221170   7.583  19.150   9.075
 1354POPC   C1A21171   7.533  18.794   8.688
 1354POPC   D2A21172   7.794  18.944   8.353
 1354POPC   C3A21173   7.643  18.929   7.923
 1354POPC   C4A21174   7.603  18.700   7.489
 1354POPC   C1B21175   7.397  19.286   8.703
 1354POPC   C2B21176   7.272  19.319   8.298
 1354POPC   C3B21177   7.458  19.416   7.930
 1354POPC   C4B21178   7.299  19.474   7.551
 1355POPC   NC321179   9.512  25.100   9.427
 1355POPC   PO421180   9.975  25.604   9.478
 1355POPC   GL121181   9.854  25.347   9.111
 1355POPC   GL221182   9.953  24.996   9.019
 1355POPC   C1A21183   9.575  25.248   8.773
 1355POPC   D2A21184   9.270  25.329   8.484
 1355POPC   C3A21185   9.432  25.322   8.092
 1355POPC   C4A21186   9.742  25.298   7.760
 1355POPC   C1B21187  10.053  24.915   8.578
 1355POPC   C2B21188   9.970  24.993   8.127
 1355POPC   C3B21189  10.054  24.910   7.676
 1355POPC   C4B21190  10.091  25.084   7.235
 1356POPC   NC321191  13.259  20.145   9.452
 1356POPC   PO421192  13.747  19.634   9.336
 1356POPC   GL121193  13.641  19.874   9.027
 1356POPC   GL221194  13.683  20.190   9.039
 1356POPC   C1A21195  13.789  19.968   8.604
 1356POPC   D2A21196  13.818  20.064   8.160
 1356POPC   C3A21197  13.594  19.725   8.001
 1356POPC   C4A21198  13.202  19.590   7.845
 1356POPC   C1B21199  13.285  20.102   8.768
 1356POPC   C2B21200  13.242  20.239   8.325
 1356POPC   C3B21201  13.306  20.125   7.889
 1356POPC   C4B21202  13.636  20.046   7.600
 1357POPC   NC321203   8.699  13.219   9.463
 1357POPC   PO421204   8.807  12.609   9.722
 1357POPC   GL121205   8.926  12.815   9.271
 1357POPC   GL221206   9.231  12.897   9.150
 1357POPC   C1A21207   8.870  12.793   8.779
 1357POPC   D2A21208   8.715  12.756   8.311
 1357POPC   C3A21209   9.022  12.840   7.971
 1357POPC   C4A21210   9.152  12.680   7.565
 1357POPC   C1B21211   9.098  13.235   8.809
 1357POPC   C2B21212   9.103  13.135   8.393
 1357POPC   C3B21213   9.348  13.243   8.022
 1357POPC   C4B21214   9.239  13.178   7.618
 1358POPC   NC321215  13.047  20.917   9.585
 1358POPC   PO421216  12.771  20.224   9.411
 1358POPC   GL121217  13.009  20.409   9.091
 1358POPC   GL221218  13.009  20.772   9.106
 1358POPC   C1A21219  12.919  20.486   8.676
 1358POPC   D2A21220  12.742  20.362   8.288
 1358POPC   C3A21221  12.976  20.499   7.932
 1358POPC   C4A21222  12.641  20.615   7.728
 1358POPC   C1B21223  13.187  20.933   8.723
 1358POPC   C2B21224  13.084  20.807   8.317
 1358POPC   C3B21225  12.897  20.996   7.965
 1358POPC   C4B21226  12.990  20.929   7.508
 1359POPC   NC321227  25.999   9.550   9.398
 1359POPC   PO421228  26.283  10.192   9.299
 1359POPC   GL121229  26.167   9.868   9.019
 1359POPC   GL221230  25.899  10.091   8.853
 1359POPC   C1A21231  25.869   9.601   8.756
 1359POPC   D2A21232  25.708   9.795   8.364
 1359POPC   C3A21233  25.991   9.745   8.039
 1359POPC   C4A21234  25.967   9.443   7.686
 1359POPC   C1B21235  26.186   9.894   8.512
 1359POPC   C2B21236  26.445   9.672   8.225
 1359POPC   C3B21237  26.415   9.646   7.772
 1359POPC   C4B21238  26.473   9.973   7.483
 1360POPC   NC321239  14.063  11.221   9.528
 1360POPC   PO421240  13.364  11.131   9.527
 1360POPC   GL121241  13.597  11.289   9.212
 1360POPC   GL221242  13.693  10.987   9.032
 1360POPC   C1A21243  13.480  11.431   8.834
 1360POPC   D2A21244  13.520  11.259   8.423
 1360POPC   C3A21245  13.315  11.434   8.088
 1360POPC   C4A21246  13.350  11.558   7.684
 1360POPC   C1B21247  13.562  10.683   8.695
 1360POPC   C2B21248  13.383  10.806   8.277
 1360POPC   C3B21249  13.549  11.021   7.918
 1360POPC   C4B21250  13.796  10.924   7.550
 1361POPC   NC321251  37.693  35.758   9.704
 1361POPC   PO421252  37.847  35.147   9.480
 1361POPC   GL121253  37.715  35.296   9.120
 1361POPC   GL221254  37.567  35.621   9.199
 1361POPC   C1A21255  37.596  35.143   8.718
 1361POPC   D2A21256  37.473  35.364   8.360
 1361POPC   C3A21257  37.635  35.281   7.980
 1361POPC   C4A21258  37.560  35.018   7.675
 1361POPC   C1B21259  37.657  35.684   8.759
 1361POPC   C2B21260  37.677  35.861   8.364
 1361POPC   C3B21261  37.455  35.769   7.994
 1361POPC   C4B21262  37.625  35.659   7.604
 1362POPC   NC321263   9.978  29.032   9.526
 1362POPC   PO421264   9.463  29.454   9.594
 1362POPC   GL121265   9.794  29.420   9.256
 1362POPC   GL221266   9.699  29.082   9.110
 1362POPC   C1A21267  10.029  29.348   8.852
 1362POPC   D2A21268  10.201  29.184   8.429
 1362POPC   C3A21269  10.071  29.319   8.008
 1362POPC   C4A21270   9.839  29.168   7.638
 1362POPC   C1B21271  10.033  28.825   8.869
 1362POPC   C2B21272  10.126  28.685   8.439
 1362POPC   C3B21273   9.946  28.800   8.022
 1362POPC   C4B21274   9.950  28.651   7.601
 1363POPC   NC321275  33.557  18.826   9.335
 1363POPC   PO421276  33.224  19.384   9.554
 1363POPC   GL121277  33.113  19.106   9.183
 1363POPC   GL221278  33.058  18.753   9.179
 1363POPC   C1A21279  32.992  19.023   8.743
 1363POPC   D2A21280  33.310  19.070   8.424
 1363POPC   C3A21281  33.136  19.342   8.123
 1363POPC   C4A21282  32.954  19.266   7.733
 1363POPC   C1B21283  33.245  18.592   8.783
 1363POPC   C2B21284  33.025  18.582   8.386
 1363POPC   C3B21285  33.097  18.818   8.018
 1363POPC   C4B21286  33.418  19.030   7.835
 1364POPC   NC321287  38.814  24.909   9.988
 1364POPC   PO421288  39.202  25.367   9.613
 1364POPC   GL121289  39.058  25.138   9.261
 1364POPC   GL221290  38.948  25.428   9.126
 1364POPC   C1A21291  39.006  25.026   8.829
 1364POPC   D2A21292  38.919  24.949   8.404
 1364POPC   C3A21293  39.292  24.963   8.128
 1364POPC   C4A21294  39.206  25.109   7.693
 1364POPC   C1B21295  39.292  25.490   8.861
 1364POPC   C2B21296  39.161  25.387   8.460
 1364POPC   C3B21297  39.243  25.472   8.053
 1364POPC   C4B21298  39.336  25.602   7.635
 1365POPC   NC321299  21.597  42.488   9.606
 1365POPC   PO421300  20.897  42.364   9.546
 1365POPC   GL121301  21.138  42.304   9.096
 1365POPC   GL221302  21.467  42.336   9.112
 1365POPC   C1A21303  21.287  42.430   8.640
 1365POPC   D2A21304  21.561  42.417   8.264
 1365POPC   C3A21305  21.388  42.621   7.893
 1365POPC   C4A21306  20.982  42.652   7.705
 1365POPC   C1B21307  21.617  42.055   8.760
 1365POPC   C2B21308  21.422  41.931   8.385
 1365POPC   C3B21309  21.233  42.089   8.010
 1365POPC   C4B21310  21.522  42.135   7.660
 1366POPC   NC321311  23.115  26.176   9.565
 1366POPC   PO421312  22.551  26.254   9.145
 1366POPC   GL121313  22.986  26.256   9.070
 1366POPC   GL221314  23.016  25.930   9.137
 1366POPC   C1A21315  23.146  26.234   8.639
 1366POPC   D2A21316  22.840  26.058   8.320
 1366POPC   C3A21317  22.852  26.199   7.904
 1366POPC   C4A21318  22.659  26.418   7.567
 1366POPC   C1B21319  22.940  25.766   8.745
 1366POPC   C2B21320  23.127  25.630   8.353
 1366POPC   C3B21321  23.003  25.692   7.934
 1366POPC   C4B21322  23.171  25.702   7.529
 1367POPC   NC321323  41.098  42.464   9.249
 1367POPC   PO421324  40.393  42.675   9.441
 1367POPC   GL121325  40.624  42.603   9.078
 1367POPC   GL221326  40.666  42.233   9.101
 1367POPC   C1A21327  40.651  42.584   8.628
 1367POPC   D2A21328  40.904  42.431   8.265
 1367POPC   C3A21329  40.674  42.509   7.907
 1367POPC   C4A21330  40.826  42.446   7.500
 1367POPC   C1B21331  40.869  42.121   8.695
 1367POPC   C2B21332  40.891  41.929   8.253
 1367POPC   C3B21333  40.857  42.031   7.791
 1367POPC   C4B21334  40.761  42.000   7.296
 1368POPC   NC321335  13.875   2.335   9.783
 1368POPC   PO421336  13.314   1.956   9.685
 1368POPC   GL121337  13.521   2.057   9.257
 1368POPC   GL221338  13.838   2.075   9.115
 1368POPC   C1A21339  13.441   1.968   8.792
 1368POPC   D2A21340  13.633   2.064   8.369
 1368POPC   C3A21341  13.617   1.825   7.961
 1368POPC   C4A21342  13.701   1.912   7.517
 1368POPC   C1B21343  13.830   2.341   8.755
 1368POPC   C2B21344  13.913   2.493   8.384
 1368POPC   C3B21345  13.991   2.253   8.045
 1368POPC   C4B21346  13.985   2.352   7.646
 1369POPC   NC321347   1.572   5.076   9.614
 1369POPC   PO421348   0.882   4.907   9.586
 1369POPC   GL121349   1.046   5.093   9.170
 1369POPC   GL221350   1.403   5.187   9.137
 1369POPC   C1A21351   0.948   5.287   8.775
 1369POPC   D2A21352   0.878   5.134   8.351
 1369POPC   C3A21353   0.978   5.277   7.932
 1369POPC   C4A21354   1.195   4.926   7.740
 1369POPC   C1B21355   1.441   5.449   8.785
 1369POPC   C2B21356   1.251   5.494   8.376
 1369POPC   C3B21357   1.467   5.436   7.984
 1369POPC   C4B21358   1.376   5.538   7.571
 1370POPC   NC321359  29.649  40.716   9.549
 1370POPC   PO421360  30.124  40.430   9.227
 1370POPC   GL121361  29.956  40.830   9.107
 1370POPC   GL221362  29.661  40.648   9.019
 1370POPC   C1A21363  29.871  41.028   8.672
 1370POPC   D2A21364  29.683  40.897   8.269
 1370POPC   C3A21365  29.917  40.880   7.889
 1370POPC   C4A21366  29.924  40.964   7.433
 1370POPC   C1B21367  29.909  40.514   8.633
 1370POPC   C2B21368  29.923  40.455   8.214
 1370POPC   C3B21369  29.590  40.478   7.975
 1370POPC   C4B21370  29.855  40.441   7.632
 1371POPC   NC321371  25.400  12.285   9.639
 1371POPC   PO421372  25.255  11.725   9.551
 1371POPC   GL121373  25.280  11.993   9.212
 1371POPC   GL221374  25.619  12.123   9.188
 1371POPC   C1A21375  25.100  12.086   8.841
 1371POPC   D2A21376  25.288  12.080   8.471
 1371POPC   C3A21377  25.062  11.971   8.157
 1371POPC   C4A21378  25.174  12.035   7.756
 1371POPC   C1B21379  25.729  11.867   8.849
 1371POPC   C2B21380  25.697  11.766   8.442
 1371POPC   C3B21381  25.555  11.878   8.069
 1371POPC   C4B21382  25.712  12.000   7.703
 1372POPC   NC321383  10.716  11.856   9.776
 1372POPC   PO421384  10.130  12.028   9.522
 1372POPC   GL121385  10.365  12.061   9.179
 1372POPC   GL221386  10.673  11.904   9.262
 1372POPC   C1A21387  10.358  12.202   8.767
 1372POPC   D2A21388  10.196  11.984   8.436
 1372POPC   C3A21389  10.422  12.040   8.065
 1372POPC   C4A21390  10.342  12.275   7.716
 1372POPC   C1B21391  10.842  12.039   8.863
 1372POPC   C2B21392  10.779  12.244   8.472
 1372POPC   C3B21393  10.909  12.175   8.074
 1372POPC   C4B21394  10.824  12.082   7.657
 1373POPC   NC321395  33.712  32.962   9.568
 1373POPC   PO421396  33.314  32.433   9.351
 1373POPC   GL121397  33.573  32.804   9.097
 1373POPC   GL221398  33.959  32.962   9.140
 1373POPC   C1A21399  33.702  33.108   8.748
 1373POPC   D2A21400  33.707  33.250   8.322
 1373POPC   C3A21401  33.789  32.993   7.938
 1373POPC   C4A21402  33.790  32.868   7.444
 1373POPC   C1B21403  34.211  32.868   8.810
 1373POPC   C2B21404  34.148  33.031   8.436
 1373POPC   C3B21405  34.255  33.160   8.063
 1373POPC   C4B21406  34.088  33.285   7.672
 1374POPC   NC321407  41.853   1.225   9.503
 1374POPC   PO421408  41.333   1.530   9.593
 1374POPC   GL121409  41.371   1.367   9.138
 1374POPC   GL221410  41.366   1.011   9.055
 1374POPC   C1A21411  41.477   1.379   8.690
 1374POPC   D2A21412  41.453   1.159   8.275
 1374POPC   C3A21413  41.562   1.416   7.924
 1374POPC   C4A21414  41.747   1.561   7.554
 1374POPC   C1B21415  41.675   0.905   8.675
 1374POPC   C2B21416  41.956   0.975   8.324
 1374POPC   C3B21417  41.865   0.905   7.891
 1374POPC   C4B21418  41.471   0.699   7.777
 1375POPC   NC321419  34.092  41.236   9.472
 1375POPC   PO421420  33.449  41.452   9.566
 1375POPC   GL121421  33.655  41.370   9.179
 1375POPC   GL221422  33.922  41.630   9.170
 1375POPC   C1A21423  33.531  41.496   8.747
 1375POPC   D2A21424  33.622  41.268   8.368
 1375POPC   C3A21425  33.452  41.400   7.974
 1375POPC   C4A21426  33.591  41.434   7.548
 1375POPC   C1B21427  34.024  41.383   8.803
 1375POPC   C2B21428  34.095  41.525   8.407
 1375POPC   C3B21429  33.988  41.385   8.018
 1375POPC   C4B21430  34.084  41.498   7.613
 1376POPC   NC321431  35.975  12.822   9.481
 1376POPC   PO421432  36.580  13.259   9.616
 1376POPC   GL121433  36.297  13.113   9.232
 1376POPC   GL221434  36.362  12.732   9.167
 1376POPC   C1A21435  36.059  13.208   8.797
 1376POPC   D2A21436  35.937  13.072   8.350
 1376POPC   C3A21437  35.884  13.314   7.964
 1376POPC   C4A21438  35.884  13.135   7.545
 1376POPC   C1B21439  36.121  12.694   8.778
 1376POPC   C2B21440  36.234  12.632   8.348
 1376POPC   C3B21441  36.171  12.480   7.939
 1376POPC   C4B21442  36.497  12.468   7.615
 1377POPC   NC321443  38.581  44.009   9.423
 1377POPC   PO421444  38.149  43.462   9.493
 1377POPC   GL121445  38.385  43.629   9.138
 1377POPC   GL221446  38.765  43.690   9.079
 1377POPC   C1A21447  38.365  44.012   8.803
 1377POPC   D2A21448  38.578  43.998   8.387
 1377POPC   C3A21449  38.316  44.008   8.046
 1377POPC   C4A21450  38.433  44.186   7.663
 1377POPC   C1B21451  38.562  43.576   8.682
 1377POPC   C2B21452  38.406  43.535   8.305
 1377POPC   C3B21453  38.607  43.606   7.963
 1377POPC   C4B21454  38.848  43.965   7.910
 1378POPC   NC321455  26.747  22.716   9.514
 1378POPC   PO421456  27.027  23.255   9.357
 1378POPC   GL121457  26.811  22.983   9.086
 1378POPC   GL221458  27.057  22.700   9.112
 1378POPC   C1A21459  26.663  22.776   8.705
 1378POPC   D2A21460  26.558  22.626   8.271
 1378POPC   C3A21461  26.734  22.927   7.964
 1378POPC   C4A21462  26.733  23.346   7.761
 1378POPC   C1B21463  27.066  22.467   8.728
 1378POPC   C2B21464  27.059  22.652   8.316
 1378POPC   C3B21465  27.230  22.715   7.902
 1378POPC   C4B21466  27.286  22.649   7.436
 1379POPC   NC321467   7.410   7.565   9.597
 1379POPC   PO421468   7.878   7.128   9.376
 1379POPC   GL121469   7.491   7.236   8.988
 1379POPC   GL221470   7.264   7.486   9.106
 1379POPC   C1A21471   7.442   7.329   8.553
 1379POPC   D2A21472   7.566   7.120   8.177
 1379POPC   C3A21473   7.616   7.421   7.907
 1379POPC   C4A21474   7.479   7.853   7.809
 1379POPC   C1B21475   7.000   7.527   8.760
 1379POPC   C2B21476   6.939   7.420   8.356
 1379POPC   C3B21477   7.118   7.505   7.989
 1379POPC   C4B21478   7.201   7.441   7.584
 1380POPC   NC321479   1.519  21.338   9.892
 1380POPC   PO421480   1.138  21.112   9.373
 1380POPC   GL121481   1.207  21.394   9.089
 1380POPC   GL221482   1.532  21.501   9.151
 1380POPC   C1A21483   1.057  21.319   8.712
 1380POPC   D2A21484   1.220  21.240   8.332
 1380POPC   C3A21485   1.025  21.458   8.020
 1380POPC   C4A21486   0.879  21.257   7.703
 1380POPC   C1B21487   1.538  21.515   8.710
 1380POPC   C2B21488   1.623  21.556   8.292
 1380POPC   C3B21489   1.522  21.316   7.903
 1380POPC   C4B21490   1.720  21.436   7.480
 1381POPC   NC321491  11.867  43.833   9.785
 1381POPC   PO421492  12.256  44.212   9.485
 1381POPC   GL121493  12.309  43.948   9.170
 1381POPC   GL221494  11.977  43.825   9.240
 1381POPC   C1A21495  12.369  43.979   8.738
 1381POPC   D2A21496  12.178  43.881   8.342
 1381POPC   C3A21497  12.200  44.078   7.949
 1381POPC   C4A21498  12.579  44.135   7.697
 1381POPC   C1B21499  11.896  43.853   8.816
 1381POPC   C2B21500  11.847  43.542   8.475
 1381POPC   C3B21501  11.790  43.722   8.039
 1381POPC   C4B21502  11.673  44.155   7.903
 1382POPC   NC321503  41.137  40.666   9.404
 1382POPC   PO421504  40.553  41.066   9.491
 1382POPC   GL121505  40.727  40.881   9.184
 1382POPC   GL221506  40.701  40.524   9.167
 1382POPC   C1A21507  40.889  40.886   8.808
 1382POPC   D2A21508  41.017  40.973   8.424
 1382POPC   C3A21509  40.832  40.843   8.078
 1382POPC   C4A21510  40.794  41.064   7.699
 1382POPC   C1B21511  41.001  40.397   8.845
 1382POPC   C2B21512  40.874  40.483   8.470
 1382POPC   C3B21513  40.853  40.332   8.097
 1382POPC   C4B21514  40.914  40.513   7.702
 1383POPC   NC321515  40.602   9.155   9.619
 1383POPC   PO421516  41.175   8.951   9.484
 1383POPC   GL121517  40.828   8.959   9.155
 1383POPC   GL221518  40.998   8.712   8.953
 1383POPC   C1A21519  40.502   9.089   8.873
 1383POPC   D2A21520  40.427   9.321   8.493
 1383POPC   C3A21521  40.616   9.149   8.143
 1383POPC   C4A21522  40.531   9.078   7.715
 1383POPC   C1B21523  40.914   8.978   8.596
 1383POPC   C2B21524  41.114   9.008   8.211
 1383POPC   C3B21525  41.033   9.145   7.809
 1383POPC   C4B21526  40.934   8.887   7.429
 1384POPC   NC321527  15.825  35.278   9.573
 1384POPC   PO421528  16.433  35.525   9.633
 1384POPC   GL121529  16.263  35.499   9.204
 1384POPC   GL221530  15.898  35.543   9.153
 1384POPC   C1A21531  16.211  35.494   8.736
 1384POPC   D2A21532  16.072  35.626   8.323
 1384POPC   C3A21533  16.055  35.374   7.955
 1384POPC   C4A21534  15.905  35.422   7.553
 1384POPC   C1B21535  15.693  35.324   8.785
 1384POPC   C2B21536  15.620  35.361   8.316
 1384POPC   C3B21537  15.466  35.248   7.877
 1384POPC   C4B21538  15.654  34.995   7.507
 1385POPC   NC321539  36.559  16.527   9.428
 1385POPC   PO421540  37.019  16.950   9.476
 1385POPC   GL121541  36.824  17.059   9.108
 1385POPC   GL221542  36.489  17.013   9.240
 1385POPC   C1A21543  37.018  16.842   8.756
 1385POPC   D2A21544  36.977  16.573   8.410
 1385POPC   C3A21545  36.900  16.744   8.006
 1385POPC   C4A21546  37.032  16.582   7.621
 1385POPC   C1B21547  36.513  16.806   8.803
 1385POPC   C2B21548  36.503  16.789   8.356
 1385POPC   C3B21549  36.430  16.530   8.021
 1385POPC   C4B21550  36.513  16.663   7.626
 1386POPC   NC321551   0.113  42.131   9.442
 1386POPC   PO421552   0.663  42.464   9.482
 1386POPC   GL121553   0.377  42.496   9.165
 1386POPC   GL221554   0.514  42.173   9.067
 1386POPC   C1A21555   0.111  42.678   8.793
 1386POPC   D2A21556   0.117  42.851   8.355
 1386POPC   C3A21557   0.222  42.673   7.949
 1386POPC   C4A21558   0.572  42.403   7.811
 1386POPC   C1B21559   0.576  42.471   8.723
 1386POPC   C2B21560   0.535  42.465   8.324
 1386POPC   C3B21561   0.722  42.099   8.177
 1386POPC   C4B21562   0.984  41.995   7.816
 1387POPC   NC321563   0.516  40.073   9.875
 1387POPC   PO421564   0.233  39.565   9.547
 1387POPC   GL121565   0.305  39.718   9.150
 1387POPC   GL221566   0.498  39.998   9.261
 1387POPC   C1A21567   0.221  39.925   8.774
 1387POPC   D2A21568   0.332  40.108   8.379
 1387POPC   C3A21569   0.177  39.917   8.018
 1387POPC   C4A21570   0.306  39.831   7.616
 1387POPC   C1B21571   0.721  39.888   8.872
 1387POPC   C2B21572   0.835  40.093   8.504
 1387POPC   C3B21573   0.733  39.999   8.062
 1387POPC   C4B21574   0.908  39.706   7.772
 1388POPC   NC321575  33.324  21.563   9.482
 1388POPC   PO421576  32.699  21.429   9.550
 1388POPC   GL121577  32.851  21.340   9.145
 1388POPC   GL221578  33.208  21.280   9.050
 1388POPC   C1A21579  32.824  21.204   8.734
 1388POPC   D2A21580  32.695  21.253   8.356
 1388POPC   C3A21581  33.040  21.207   8.133
 1388POPC   C4A21582  32.880  21.296   7.750
 1388POPC   C1B21583  33.274  21.481   8.636
 1388POPC   C2B21584  33.293  21.776   8.291
 1388POPC   C3B21585  33.289  21.597   7.883
 1388POPC   C4B21586  33.411  21.196   7.771
 1389POPC   NC321587   5.326  44.254   9.729
 1389POPC   PO421588   4.752  44.170   9.614
 1389POPC   GL121589   4.979  44.414   9.254
 1389POPC   GL221590   5.331  44.370   9.195
 1389POPC   C1A21591   5.032  44.514   8.779
 1389POPC   D2A21592   5.257  44.635   8.371
 1389POPC   C3A21593   5.146  44.602   7.899
 1389POPC   C4A21594   5.287  44.841   7.508
 1389POPC   C1B21595   5.545  44.411   8.773
 1389POPC   C2B21596   5.723  44.415   8.361
 1389POPC   C3B21597   5.661  44.593   7.967
 1389POPC   C4B21598   5.670  44.520   7.553
 1390POPC   NC321599  37.390   9.296   9.478
 1390POPC   PO421600  37.944   8.839   9.604
 1390POPC   GL121601  37.810   8.996   9.165
 1390POPC   GL221602  37.994   9.292   9.286
 1390POPC   C1A21603  37.712   9.117   8.655
 1390POPC   D2A21604  37.413   9.184   8.249
 1390POPC   C3A21605  37.487   8.875   7.921
 1390POPC   C4A21606  37.930   8.649   7.940
 1390POPC   C1B21607  38.151   9.314   8.866
 1390POPC   C2B21608  38.146   9.314   8.441
 1390POPC   C3B21609  37.904   9.142   8.120
 1390POPC   C4B21610  37.682   9.349   7.818
 1391POPC   NC321611  31.452   7.729   9.419
 1391POPC   PO421612  31.229   7.054   9.296
 1391POPC   GL121613  31.536   7.331   9.107
 1391POPC   GL221614  31.347   7.575   8.955
 1391POPC   C1A21615  31.651   7.235   8.689
 1391POPC   D2A21616  31.355   7.012   8.408
 1391POPC   C3A21617  31.413   7.116   8.003
 1391POPC   C4A21618  31.266   7.284   7.664
 1391POPC   C1B21619  31.195   7.461   8.581
 1391POPC   C2B21620  31.502   7.535   8.270
 1391POPC   C3B21621  31.401   7.701   7.910
 1391POPC   C4B21622  30.965   7.684   7.810
 1392POPC   NC321623   5.405  34.650   9.931
 1392POPC   PO421624   5.058  34.768   9.356
 1392POPC   GL121625   5.141  34.500   9.027
 1392POPC   GL221626   5.478  34.426   9.123
 1392POPC   C1A21627   4.961  34.414   8.606
 1392POPC   D2A21628   4.838  34.489   8.176
 1392POPC   C3A21629   5.106  34.752   8.004
 1392POPC   C4A21630   5.267  34.835   7.593
 1392POPC   C1B21631   5.464  34.299   8.687
 1392POPC   C2B21632   5.315  34.283   8.250
 1392POPC   C3B21633   5.272  34.315   7.802
 1392POPC   C4B21634   5.344  34.392   7.361
 1393POPC   NC321635  15.421   8.826   9.716
 1393POPC   PO421636  15.126   9.333   9.400
 1393POPC   GL121637  15.179   8.983   9.139
 1393POPC   GL221638  15.290   9.268   8.920
 1393POPC   C1A21639  15.376   8.789   8.789
 1393POPC   D2A21640  15.197   8.692   8.384
 1393POPC   C3A21641  15.409   8.862   8.039
 1393POPC   C4A21642  15.213   8.812   7.672
 1393POPC   C1B21643  15.065   9.426   8.612
 1393POPC   C2B21644  14.782   9.210   8.384
 1393POPC   C3B21645  14.938   9.062   8.025
 1393POPC   C4B21646  14.864   9.180   7.610
 1394POPC   NC321647   8.737  32.051   9.580
 1394POPC   PO421648   9.271  31.883   9.222
 1394POPC   GL121649   9.074  32.152   8.973
 1394POPC   GL221650   8.908  32.362   9.199
 1394POPC   C1A21651   9.127  32.286   8.542
 1394POPC   D2A21652   8.925  32.313   8.162
 1394POPC   C3A21653   9.120  32.234   7.839
 1394POPC   C4A21654   9.436  31.982   7.659
 1394POPC   C1B21655   8.666  32.424   8.812
 1394POPC   C2B21656   8.504  32.440   8.395
 1394POPC   C3B21657   8.551  32.570   7.937
 1394POPC   C4B21658   8.700  32.364   7.541
 1395POPC   NC321659  35.411  22.380   9.443
 1395POPC   PO421660  35.847  21.855   9.534
 1395POPC   GL121661  35.641  22.051   9.145
 1395POPC   GL221662  35.690  22.398   9.034
 1395POPC   C1A21663  35.356  22.074   8.784
 1395POPC   D2A21664  35.265  22.344   8.419
 1395POPC   C3A21665  35.023  22.274   8.043
 1395POPC   C4A21666  35.138  22.191   7.637
 1395POPC   C1B21667  35.845  22.361   8.654
 1395POPC   C2B21668  35.719  22.554   8.297
 1395POPC   C3B21669  35.554  22.353   7.971
 1395POPC   C4B21670  35.778  22.360   7.620
 1396POPC   NC321671  32.705  26.946   9.567
 1396POPC   PO421672  32.107  26.673   9.522
 1396POPC   GL121673  32.326  26.950   9.230
 1396POPC   GL221674  32.540  26.718   9.154
 1396POPC   C1A21675  32.397  27.032   8.783
 1396POPC   D2A21676  32.316  26.754   8.427
 1396POPC   C3A21677  32.276  26.930   8.023
 1396POPC   C4A21678  32.296  26.684   7.661
 1396POPC   C1B21679  32.723  26.557   8.823
 1396POPC   C2B21680  32.770  26.515   8.399
 1396POPC   C3B21681  32.699  26.649   8.002
 1396POPC   C4B21682  32.861  26.575   7.607
 1397POPC   NC321683  44.157   8.798   9.586
 1397POPC   PO421684  43.695   9.289   9.747
 1397POPC   GL121685  43.702   9.115   9.276
 1397POPC   GL221686  43.525   8.808   9.129
 1397POPC   C1A21687  43.923   8.958   8.848
 1397POPC   D2A21688  44.019   8.728   8.425
 1397POPC   C3A21689  44.085   9.002   8.056
 1397POPC   C4A21690  43.824   9.247   7.786
 1397POPC   C1B21691  43.575   8.499   8.801
 1397POPC   C2B21692  43.523   8.507   8.352
 1397POPC   C3B21693  43.672   8.696   7.981
 1397POPC   C4B21694  43.648   8.563   7.561
 1398POPC   NC321695  27.667   0.815   9.652
 1398POPC   PO421696  27.355   1.493   9.591
 1398POPC   GL121697  27.372   1.178   9.283
 1398POPC   GL221698  27.685   1.128   9.237
 1398POPC   C1A21699  27.288   1.194   8.824
 1398POPC   D2A21700  27.074   1.409   8.458
 1398POPC   C3A21701  27.289   1.376   8.023
 1398POPC   C4A21702  27.716   1.445   7.834
 1398POPC   C1B21703  27.801   1.213   8.817
 1398POPC   C2B21704  27.635   1.235   8.399
 1398POPC   C3B21705  27.716   0.981   8.041
 1398POPC   C4B21706  28.063   1.079   7.765
 1399POPC   NC321707   9.613  10.256   9.517
 1399POPC   PO421708   9.836   9.628   9.420
 1399POPC   GL121709   9.625   9.858   9.115
 1399POPC   GL221710   9.849  10.140   9.077
 1399POPC   C1A21711   9.660   9.708   8.698
 1399POPC   D2A21712   9.646   9.829   8.279
 1399POPC   C3A21713   9.647   9.577   7.917
 1399POPC   C4A21714   9.446   9.805   7.623
 1399POPC   C1B21715  10.117   9.952   8.763
 1399POPC   C2B21716  10.115   9.613   8.490
 1399POPC   C3B21717  10.103   9.679   8.084
 1399POPC   C4B21718   9.896  10.026   7.837
 1400POPC   NC321719  25.664  33.668   9.452
 1400POPC   PO421720  25.028  33.980   9.405
 1400POPC   GL121721  25.294  33.753   9.095
 1400POPC   GL221722  25.244  33.406   8.976
 1400POPC   C1A21723  25.579  33.834   8.758
 1400POPC   D2A21724  25.732  33.854   8.312
 1400POPC   C3A21725  25.354  33.916   8.033
 1400POPC   C4A21726  24.919  33.877   7.875
 1400POPC   C1B21727  25.580  33.325   8.680
 1400POPC   C2B21728  25.696  33.217   8.296
 1400POPC   C3B21729  25.595  33.452   7.959
 1400POPC   C4B21730  25.244  33.520   7.722
 1401POPC   NC321731  34.471  40.383   9.562
 1401POPC   PO421732  35.043  40.782   9.575
 1401POPC   GL121733  34.765  40.724   9.170
 1401POPC   GL221734  34.394  40.649   9.137
 1401POPC   C1A21735  34.665  40.660   8.709
 1401POPC   D2A21736  34.672  40.819   8.271
 1401POPC   C3A21737  34.817  40.585   7.906
 1401POPC   C4A21738  34.765  40.688   7.442
 1401POPC   C1B21739  34.142  40.869   8.823
 1401POPC   C2B21740  34.086  41.018   8.425
 1401POPC   C3B21741  34.199  40.830   8.076
 1401POPC   C4B21742  34.329  40.647   7.699
 1402POPC   NC321743  35.450  15.377   9.343
 1402POPC   PO421744  34.910  14.933   9.370
 1402POPC   GL121745  35.188  15.065   9.032
 1402POPC   GL221746  35.565  15.010   8.991
 1402POPC   C1A21747  35.193  15.307   8.691
 1402POPC   D2A21748  35.451  15.275   8.297
 1402POPC   C3A21749  35.283  15.011   8.001
 1402POPC   C4A21750  35.189  15.066   7.604
 1402POPC   C1B21751  35.683  15.405   8.735
 1402POPC   C2B21752  35.732  15.710   8.418
 1402POPC   C3B21753  35.853  15.535   8.020
 1402POPC   C4B21754  35.608  15.323   7.768
 1403POPC   NC321755  28.089   2.539   9.675
 1403POPC   PO421756  28.701   2.788   9.526
 1403POPC   GL121757  28.514   2.874   9.172
 1403POPC   GL221758  28.205   2.872   9.296
 1403POPC   C1A21759  28.531   2.688   8.773
 1403POPC   D2A21760  28.646   2.715   8.374
 1403POPC   C3A21761  28.502   2.834   8.014
 1403POPC   C4A21762  28.572   2.769   7.618
 1403POPC   C1B21763  28.041   2.721   8.929
 1403POPC   C2B21764  28.023   2.830   8.505
 1403POPC   C3B21765  28.022   2.964   8.082
 1403POPC   C4B21766  28.061   2.714   7.750
 1404POPC   NC321767  36.642  34.613   9.548
 1404POPC   PO421768  37.221  34.368   9.528
 1404POPC   GL121769  36.972  34.562   9.172
 1404POPC   GL221770  36.573  34.523   9.066
 1404POPC   C1A21771  36.972  34.501   8.753
 1404POPC   D2A21772  36.714  34.642   8.434
 1404POPC   C3A21773  36.842  34.603   8.074
 1404POPC   C4A21774  36.794  34.417   7.686
 1404POPC   C1B21775  36.684  34.920   8.836
 1404POPC   C2B21776  37.081  35.002   8.561
 1404POPC   C3B21777  37.213  35.000   8.104
 1404POPC   C4B21778  37.149  34.767   7.732
 1405POPC   NC321779   8.290  30.309   9.588
 1405POPC   PO421780   8.398  30.921   9.685
 1405POPC   GL121781   8.487  30.628   9.256
 1405POPC   GL221782   8.412  30.825   8.996
 1405POPC   C1A21783   8.432  30.341   8.837
 1405POPC   D2A21784   8.342  30.132   8.389
 1405POPC   C3A21785   8.260  30.295   7.963
 1405POPC   C4A21786   8.425  30.619   7.679
 1405POPC   C1B21787   8.065  30.704   8.710
 1405POPC   C2B21788   7.895  30.642   8.302
 1405POPC   C3B21789   7.960  30.719   7.885
 1405POPC   C4B21790   8.083  30.992   7.554
 1406POPC   NC321791  39.123   0.219   9.705
 1406POPC   PO421792  39.333   0.797   9.585
 1406POPC   GL121793  39.138   0.533   9.271
 1406POPC   GL221794  39.299   0.195   9.217
 1406POPC   C1A21795  39.036   0.535   8.827
 1406POPC   D2A21796  38.877   0.654   8.416
 1406POPC   C3A21797  39.026   0.832   8.070
 1406POPC   C4A21798  39.035   0.618   7.724
 1406POPC   C1B21799  39.284   0.111   8.775
 1406POPC   C2B21800  39.044   0.168   8.400
 1406POPC   C3B21801  39.105   0.135   7.955
 1406POPC   C4B21802  39.508   0.012   7.806
 1407POPC   NC321803   0.539  16.019   9.514
 1407POPC   PO421804  44.975  15.860   9.747
 1407POPC   GL121805   0.135  15.756   9.337
 1407POPC   GL221806   0.117  16.120   9.272
 1407POPC   C1A21807   0.359  15.768   8.922
 1407POPC   D2A21808   0.649  15.813   8.548
 1407POPC   C3A21809   0.546  15.743   8.109
 1407POPC   C4A21810   0.616  15.950   7.715
 1407POPC   C1B21811   0.304  16.311   8.905
 1407POPC   C2B21812   0.187  16.406   8.483
 1407POPC   C3B21813   0.376  16.221   8.132
 1407POPC   C4B21814   0.209  16.309   7.756
 1408POPC   NC321815  18.636   9.589   9.461
 1408POPC   PO421816  18.244  10.038   9.781
 1408POPC   GL121817  18.233  10.000   9.322
 1408POPC   GL221818  17.912  10.066   9.122
 1408POPC   C1A21819  18.391   9.929   8.894
 1408POPC   D2A21820  18.253   9.885   8.460
 1408POPC   C3A21821  18.378   9.636   8.122
 1408POPC   C4A21822  18.487   9.745   7.715
 1408POPC   C1B21823  17.787   9.869   8.702
 1408POPC   C2B21824  17.790   9.835   8.225
 1408POPC   C3B21825  18.073   9.989   7.865
 1408POPC   C4B21826  18.335  10.190   7.519
 1409POPC   NC321827  20.251  10.514   9.642
 1409POPC   PO421828  19.604  10.552   9.672
 1409POPC   GL121829  19.771  10.363   9.287
 1409POPC   GL221830  20.128  10.305   9.182
 1409POPC   C1A21831  19.752  10.549   8.859
 1409POPC   D2A21832  19.869  10.656   8.439
 1409POPC   C3A21833  19.692  10.507   8.052
 1409POPC   C4A21834  19.689  10.664   7.646
 1409POPC   C1B21835  20.281  10.492   8.786
 1409POPC   C2B21836  20.365  10.709   8.388
 1409POPC   C3B21837  20.125  10.805   8.005
 1409POPC   C4B21838  20.200  10.417   7.825
 1410POPC   NC321839  28.078   7.918   9.573
 1410POPC   PO421840  27.536   8.156   9.400
 1410POPC   GL121841  27.835   8.162   9.087
 1410POPC   GL221842  27.658   8.450   8.921
 1410POPC   C1A21843  27.955   8.136   8.656
 1410POPC   D2A21844  27.681   8.058   8.317
 1410POPC   C3A21845  27.632   8.368   8.046
 1410POPC   C4A21846  27.711   8.390   7.649
 1410POPC   C1B21847  27.448   8.026   8.777
 1410POPC   C2B21848  27.334   7.713   8.473
 1410POPC   C3B21849  27.197   7.922   8.131
 1410POPC   C4B21850  27.375   8.011   7.735
 1411POPC   NC321851  37.795  28.080   9.768
 1411POPC   PO421852  37.685  27.416   9.560
 1411POPC   GL121853  37.794  27.494   9.150
 1411POPC   GL221854  37.758  27.819   9.210
 1411POPC   C1A21855  37.626  27.549   8.729
 1411POPC   D2A21856  37.799  27.760   8.371
 1411POPC   C3A21857  37.612  27.754   7.958
 1411POPC   C4A21858  37.699  27.643   7.530
 1411POPC   C1B21859  37.942  27.977   8.832
 1411POPC   C2B21860  38.115  28.156   8.445
 1411POPC   C3B21861  38.099  28.024   8.042
 1411POPC   C4B21862  37.983  28.101   7.652
 1412POPC   NC321863  21.674  29.018   9.384
 1412POPC   PO421864  21.246  29.511   9.657
 1412POPC   GL121865  21.217  29.256   9.222
 1412POPC   GL221866  21.535  29.267   8.980
 1412POPC   C1A21867  21.083  29.234   8.756
 1412POPC   D2A21868  21.352  29.261   8.375
 1412POPC   C3A21869  21.241  29.067   7.946
 1412POPC   C4A21870  21.178  29.269   7.518
 1412POPC   C1B21871  21.810  29.467   8.678
 1412POPC   C2B21872  21.865  29.326   8.240
 1412POPC   C3B21873  21.744  29.152   7.839
 1412POPC   C4B21874  21.853  29.224   7.337
 1413POPC   NC321875  19.932   2.296   9.554
 1413POPC   PO421876  19.381   1.944   9.451
 1413POPC   GL121877  19.618   2.132   9.097
 1413POPC   GL221878  20.000   2.062   9.113
 1413POPC   C1A21879  19.769   2.087   8.649
 1413POPC   D2A21880  20.158   2.049   8.392
 1413POPC   C3A21881  20.039   1.900   8.007
 1413POPC   C4A21882  19.785   2.115   7.728
 1413POPC   C1B21883  20.003   2.465   8.913
 1413POPC   C2B21884  20.052   2.574   8.494
 1413POPC   C3B21885  19.902   2.453   8.104
 1413POPC   C4B21886  19.921   2.637   7.688
 1414POPC   NC321887  11.498  27.177   9.302
 1414POPC   PO421888  11.656  27.742   9.637
 1414POPC   GL121889  11.308  27.744   9.215
 1414POPC   GL221890  11.195  27.440   8.984
 1414POPC   C1A21891  11.101  27.877   8.774
 1414POPC   D2A21892  11.037  27.611   8.389
 1414POPC   C3A21893  11.058  27.728   7.957
 1414POPC   C4A21894  11.015  28.135   7.748
 1414POPC   C1B21895  11.547  27.486   8.719
 1414POPC   C2B21896  11.734  27.420   8.288
 1414POPC   C3B21897  11.533  27.528   7.895
 1414POPC   C4B21898  11.376  27.277   7.562
 1415POPC   NC321899   9.206  34.487   9.525
 1415POPC   PO421900   9.019  35.108   9.362
 1415POPC   GL121901   8.866  34.709   9.130
 1415POPC   GL221902   9.013  34.374   9.053
 1415POPC   C1A21903   8.648  34.559   8.725
 1415POPC   D2A21904   8.615  34.674   8.281
 1415POPC   C3A21905   8.893  34.630   7.979
 1415POPC   C4A21906   9.054  34.321   7.780
 1415POPC   C1B21907   9.172  34.610   8.716
 1415POPC   C2B21908   9.201  34.809   8.349
 1415POPC   C3B21909   9.387  34.751   7.934
 1415POPC   C4B21910   9.328  34.670   7.505
 1416POPC   NC321911  30.508   5.674   9.313
 1416POPC   PO421912  30.833   6.187   9.597
 1416POPC   GL121913  30.838   6.078   9.179
 1416POPC   GL221914  31.157   6.248   9.195
 1416POPC   C1A21915  30.622   5.964   8.754
 1416POPC   D2A21916  30.601   6.177   8.339
 1416POPC   C3A21917  30.427   5.982   7.935
 1416POPC   C4A21918  30.518   5.816   7.499
 1416POPC   C1B21919  31.031   6.293   8.765
 1416POPC   C2B21920  31.095   6.367   8.350
 1416POPC   C3B21921  30.969   6.341   7.934
 1416POPC   C4B21922  30.928   6.000   7.697
 1417POPC   NC321923  32.975  31.218   9.688
 1417POPC   PO421924  32.555  31.575   9.356
 1417POPC   GL121925  32.893  31.324   9.196
 1417POPC   GL221926  33.050  31.634   9.156
 1417POPC   C1A21927  33.155  31.226   8.819
 1417POPC   D2A21928  32.978  30.967   8.521
 1417POPC   C3A21929  32.968  31.008   8.083
 1417POPC   C4A21930  32.799  31.107   7.680
 1417POPC   C1B21931  32.768  31.525   8.751
 1417POPC   C2B21932  32.989  31.492   8.374
 1417POPC   C3B21933  32.777  31.487   8.024
 1417POPC   C4B21934  32.765  31.695   7.685
 1418POPC   NC321935  33.905  12.664   9.714
 1418POPC   PO421936  33.970  13.258   9.688
 1418POPC   GL121937  34.008  13.025   9.270
 1418POPC   GL221938  34.058  12.671   9.190
 1418POPC   C1A21939  33.993  13.039   8.783
 1418POPC   D2A21940  33.826  12.992   8.342
 1418POPC   C3A21941  34.043  13.000   7.951
 1418POPC   C4A21942  34.005  13.242   7.532
 1418POPC   C1B21943  34.060  12.513   8.754
 1418POPC   C2B21944  33.969  12.491   8.294
 1418POPC   C3B21945  33.744  12.527   7.885
 1418POPC   C4B21946  33.589  12.399   7.454
 1419POPC   NC321947   9.770  20.461   9.443
 1419POPC   PO421948   9.478  20.931   9.773
 1419POPC   GL121949   9.451  20.846   9.293
 1419POPC   GL221950   9.358  20.493   9.132
 1419POPC   C1A21951   9.710  20.777   8.896
 1419POPC   D2A21952   9.587  20.684   8.482
 1419POPC   C3A21953   9.741  20.948   8.159
 1419POPC   C4A21954   9.829  20.820   7.744
 1419POPC   C1B21955   9.605  20.253   8.796
 1419POPC   C2B21956   9.901  20.274   8.426
 1419POPC   C3B21957   9.993  20.440   8.033
 1419POPC   C4B21958  10.081  20.355   7.595
 1420POPC   NC321959  29.120   9.423   9.685
 1420POPC   PO421960  28.891  10.036   9.619
 1420POPC   GL121961  28.947   9.731   9.300
 1420POPC   GL221962  29.281   9.561   9.235
 1420POPC   C1A21963  28.928   9.639   8.889
 1420POPC   D2A21964  29.023   9.805   8.516
 1420POPC   C3A21965  29.012   9.606   8.109
 1420POPC   C4A21966  28.926   9.900   7.783
 1420POPC   C1B21967  29.460   9.532   8.838
 1420POPC   C2B21968  29.361   9.437   8.456
 1420POPC   C3B21969  29.535   9.511   8.067
 1420POPC   C4B21970  29.348   9.600   7.705
 1421POPC   NC321971  33.444  38.192   9.280
 1421POPC   PO421972  33.138  38.725   9.673
 1421POPC   GL121973  33.119  38.830   9.202
 1421POPC   GL221974  33.203  38.535   9.004
 1421POPC   C1A21975  32.792  38.751   8.828
 1421POPC   D2A21976  32.944  38.517   8.496
 1421POPC   C3A21977  32.869  38.631   8.087
 1421POPC   C4A21978  32.649  38.389   7.815
 1421POPC   C1B21979  33.477  38.554   8.642
 1421POPC   C2B21980  33.378  38.530   8.235
 1421POPC   C3B21981  33.211  38.293   7.959
 1421POPC   C4B21982  33.490  38.428   7.684
 1422POPC   NC321983  41.088  26.758   9.419
 1422POPC   PO421984  40.659  27.260   9.522
 1422POPC   GL121985  40.661  27.011   9.156
 1422POPC   GL221986  40.594  26.687   9.189
 1422POPC   C1A21987  40.825  26.893   8.751
 1422POPC   D2A21988  40.628  26.823   8.355
 1422POPC   C3A21989  40.828  26.666   7.982
 1422POPC   C4A21990  41.273  26.636   7.878
 1422POPC   C1B21991  40.396  26.571   8.798
 1422POPC   C2B21992  40.450  26.342   8.399
 1422POPC   C3B21993  40.321  26.477   7.992
 1422POPC   C4B21994  40.506  26.550   7.589
 1423POPC   NC321995  20.976  10.680   9.544
 1423POPC   PO421996  20.504  10.124   9.590
 1423POPC   GL121997  20.737  10.281   9.294
 1423POPC   GL221998  20.593  10.560   9.197
 1423POPC   C1A21999  20.739  10.201   8.842
 1423POPC   D2A22000  20.972  10.240   8.444
 1423POPC   C3A22001  20.706  10.259   8.067
 1423POPC   C4A22002  20.662  10.344   7.608
 1423POPC   C1B22003  20.757  10.712   8.788
 1423POPC   C2B22004  20.872  10.718   8.320
 1423POPC   C3B22005  20.624  10.743   7.932
 1423POPC   C4B22006  20.421  10.981   7.617
 1424POPC   NC322007  26.434  19.342   9.764
 1424POPC   PO422008  27.012  19.300   9.370
 1424POPC   GL122009  26.663  19.059   9.138
 1424POPC   GL222010  26.523  19.283   8.850
 1424POPC   C1A22011  26.740  18.824   8.757
 1424POPC   D2A22012  27.040  18.887   8.416
 1424POPC   C3A22013  26.830  18.981   8.034
 1424POPC   C4A22014  26.816  18.741   7.677
 1424POPC   C1B22015  26.990  19.314   8.716
 1424POPC   C2B22016  27.168  19.514   8.341
 1424POPC   C3B22017  27.038  19.446   7.908
 1424POPC   C4B22018  26.993  19.192   7.507
 1425POPC   NC322019  42.894   5.757   9.367
 1425POPC   PO422020  43.576   5.528   9.554
 1425POPC   GL122021  43.396   5.752   9.227
 1425POPC   GL222022  43.477   6.080   9.117
 1425POPC   C1A22023  43.315   5.717   8.791
 1425POPC   D2A22024  43.204   5.505   8.401
 1425POPC   C3A22025  43.291   5.734   8.019
 1425POPC   C4A22026  42.971   5.610   7.740
 1425POPC   C1B22027  43.408   6.270   8.709
 1425POPC   C2B22028  43.209   6.238   8.304
 1425POPC   C3B22029  43.128   6.190   7.860
 1425POPC   C4B22030  43.441   6.045   7.604
 1426POPC   NC322031  24.259  31.994   9.564
 1426POPC   PO422032  24.151  32.667   9.502
 1426POPC   GL122033  24.452  32.505   9.173
 1426POPC   GL222034  24.762  32.337   9.187
 1426POPC   C1A22035  24.432  32.274   8.778
 1426POPC   D2A22036  24.267  32.150   8.367
 1426POPC   C3A22037  24.362  32.361   7.967
 1426POPC   C4A22038  24.237  32.577   7.545
 1426POPC   C1B22039  24.958  32.328   8.790
 1426POPC   C2B22040  24.789  32.267   8.387
 1426POPC   C3B22041  24.899  32.331   7.976
 1426POPC   C4B22042  24.676  32.271   7.575
 1427POPC   NC322043  19.170  19.873   9.484
 1427POPC   PO422044  18.605  19.602   9.300
 1427POPC   GL122045  18.930  19.845   9.036
 1427POPC   GL222046  19.310  20.029   9.036
 1427POPC   C1A22047  19.007  19.969   8.627
 1427POPC   D2A22048  19.232  20.087   8.268
 1427POPC   C3A22049  19.016  19.838   7.960
 1427POPC   C4A22050  18.932  20.148   7.628
 1427POPC   C1B22051  19.431  19.712   8.803
 1427POPC   C2B22052  19.289  19.567   8.399
 1427POPC   C3B22053  19.415  19.417   8.000
 1427POPC   C4B22054  19.365  19.564   7.621
 1428POPC   NC322055  25.729  32.133   9.477
 1428POPC   PO422056  25.072  32.286   9.588
 1428POPC   GL122057  25.286  32.349   9.216
 1428POPC   GL222058  25.251  31.991   9.220
 1428POPC   C1A22059  25.469  32.409   8.802
 1428POPC   D2A22060  25.288  32.418   8.375
 1428POPC   C3A22061  25.581  32.306   8.053
 1428POPC   C4A22062  25.516  32.063   7.676
 1428POPC   C1B22063  25.282  31.916   8.833
 1428POPC   C2B22064  25.098  31.868   8.484
 1428POPC   C3B22065  25.234  31.950   8.100
 1428POPC   C4B22066  25.031  31.915   7.728
 1429POPC   NC322067  25.740  27.945   9.460
 1429POPC   PO422068  26.195  27.372   9.431
 1429POPC   GL122069  26.224  27.706   9.161
 1429POPC   GL222070  25.889  27.658   9.083
 1429POPC   C1A22071  26.325  27.551   8.776
 1429POPC   D2A22072  26.035  27.394   8.481
 1429POPC   C3A22073  26.203  27.451   8.091
 1429POPC   C4A22074  26.108  27.741   7.729
 1429POPC   C1B22075  25.950  27.885   8.736
 1429POPC   C2B22076  25.837  27.907   8.311
 1429POPC   C3B22077  25.659  27.984   7.902
 1429POPC   C4B22078  25.681  27.821   7.462
 1430POPC   NC322079   2.255  40.031   9.780
 1430POPC   PO422080   1.762  39.994   9.274
 1430POPC   GL122081   1.915  39.871   8.887
 1430POPC   GL222082   1.997  40.195   8.843
 1430POPC   C1A22083   1.835  39.935   8.449
 1430POPC   D2A22084   1.515  40.179   8.218
 1430POPC   C3A22085   1.696  40.208   7.817
 1430POPC   C4A22086   1.904  39.846   7.701
 1430POPC   C1B22087   2.322  40.402   8.715
 1430POPC   C2B22088   2.292  40.561   8.343
 1430POPC   C3B22089   2.401  40.459   7.939
 1430POPC   C4B22090   2.327  40.135   7.725
 1431POPC   NC322091  20.959  41.925   9.384
 1431POPC   PO422092  21.356  41.377   9.487
 1431POPC   GL122093  21.169  41.512   9.137
 1431POPC   GL222094  21.393  41.802   9.138
 1431POPC   C1A22095  21.119  41.681   8.723
 1431POPC   D2A22096  21.060  41.566   8.303
 1431POPC   C3A22097  21.342  41.579   7.974
 1431POPC   C4A22098  21.340  41.292   7.635
 1431POPC   C1B22099  21.582  41.495   8.831
 1431POPC   C2B22100  21.677  41.478   8.393
 1431POPC   C3B22101  21.806  41.776   8.051
 1431POPC   C4B22102  21.744  41.635   7.640
 1432POPC   NC322103  36.445  35.224   9.385
 1432POPC   PO422104  35.842  35.603   9.491
 1432POPC   GL122105  35.965  35.307   9.215
 1432POPC   GL222106  36.189  35.518   9.067
 1432POPC   C1A22107  35.867  35.199   8.781
 1432POPC   D2A22108  35.765  35.411   8.395
 1432POPC   C3A22109  35.818  35.200   8.006
 1432POPC   C4A22110  35.932  35.336   7.574
 1432POPC   C1B22111  36.255  35.518   8.646
 1432POPC   C2B22112  36.231  35.156   8.356
 1432POPC   C3B22113  36.304  35.228   7.912
 1432POPC   C4B22114  36.571  35.548   7.803
 1433POPC   NC322115  39.013   9.333   9.513
 1433POPC   PO422116  39.239  10.047   9.483
 1433POPC   GL122117  39.311   9.656   9.236
 1433POPC   GL222118  39.016   9.621   9.085
 1433POPC   C1A22119  39.482   9.560   8.822
 1433POPC   D2A22120  39.680   9.789   8.461
 1433POPC   C3A22121  39.417   9.922   8.124
 1433POPC   C4A22122  39.267   9.651   7.791
 1433POPC   C1B22123  39.035   9.828   8.700
 1433POPC   C2B22124  39.008   9.671   8.280
 1433POPC   C3B22125  38.775   9.691   7.904
 1433POPC   C4B22126  38.673  10.007   7.605
 1434POPC   NC322127  39.663  40.331   9.523
 1434POPC   PO422128  38.992  40.608   9.662
 1434POPC   GL122129  39.024  40.809   9.257
 1434POPC   GL222130  39.375  40.699   9.233
 1434POPC   C1A22131  39.060  40.976   8.836
 1434POPC   D2A22132  38.966  40.723   8.464
 1434POPC   C3A22133  39.044  40.950   8.078
 1434POPC   C4A22134  38.974  40.765   7.691
 1434POPC   C1B22135  39.362  40.579   8.827
 1434POPC   C2B22136  39.469  40.790   8.427
 1434POPC   C3B22137  39.420  40.613   8.038
 1434POPC   C4B22138  39.470  40.801   7.680
 1435POPC   NC322139  35.068  33.649   9.529
 1435POPC   PO422140  35.659  33.982   9.431
 1435POPC   GL122141  35.335  33.853   9.089
 1435POPC   GL222142  35.164  33.512   9.069
 1435POPC   C1A22143  35.450  33.663   8.668
 1435POPC   D2A22144  35.510  33.383   8.317
 1435POPC   C3A22145  35.648  33.686   8.029
 1435POPC   C4A22146  35.837  33.768   7.683
 1435POPC   C1B22147  34.938  33.598   8.716
 1435POPC   C2B22148  35.041  33.597   8.310
 1435POPC   C3B22149  35.165  33.624   7.883
 1435POPC   C4B22150  35.005  33.409   7.549
 1436POPC   NC322151  36.105  11.228   9.603
 1436POPC   PO422152  35.990  11.763   9.235
 1436POPC   GL122153  36.038  11.346   9.093
 1436POPC   GL222154  36.324  11.127   9.146
 1436POPC   C1A22155  36.082  11.253   8.657
 1436POPC   D2A22156  36.096  11.590   8.353
 1436POPC   C3A22157  35.861  11.498   8.005
 1436POPC   C4A22158  35.836  11.093   7.800
 1436POPC   C1B22159  36.548  11.353   8.832
 1436POPC   C2B22160  36.546  11.257   8.387
 1436POPC   C3B22161  36.320  11.255   8.004
 1436POPC   C4B22162  36.330  11.651   7.797
 1437POPC   NC322163  41.131  25.867   9.487
 1437POPC   PO422164  40.752  26.428   9.726
 1437POPC   GL122165  40.886  26.275   9.265
 1437POPC   GL222166  40.896  25.945   9.055
 1437POPC   C1A22167  40.859  26.374   8.802
 1437POPC   D2A22168  41.023  26.415   8.384
 1437POPC   C3A22169  40.855  26.141   8.081
 1437POPC   C4A22170  40.534  26.075   7.801
 1437POPC   C1B22171  41.086  25.673   8.765
 1437POPC   C2B22172  40.987  25.470   8.409
 1437POPC   C3B22173  41.068  25.588   8.004
 1437POPC   C4B22174  40.936  25.823   7.667
 1438POPC   NC322175  22.392  22.418   9.611
 1438POPC   PO422176  21.856  22.547   9.199
 1438POPC   GL122177  22.172  22.741   9.024
 1438POPC   GL222178  22.459  22.810   9.218
 1438POPC   C1A22179  22.131  22.712   8.592
 1438POPC   D2A22180  21.857  22.924   8.293
 1438POPC   C3A22181  22.046  23.114   7.932
 1438POPC   C4A22182  21.921  23.257   7.552
 1438POPC   C1B22183  22.532  23.022   8.791
 1438POPC   C2B22184  22.384  23.065   8.354
 1438POPC   C3B22185  22.432  22.782   7.978
 1438POPC   C4B22186  22.480  22.620   7.541
 1439POPC   NC322187  15.364   8.061   9.446
 1439POPC   PO422188  14.972   8.626   9.552
 1439POPC   GL122189  15.139   8.444   9.170
 1439POPC   GL222190  14.995   8.099   9.127
 1439POPC   C1A22191  15.219   8.304   8.735
 1439POPC   D2A22192  15.365   8.040   8.405
 1439POPC   C3A22193  15.306   8.280   8.029
 1439POPC   C4A22194  15.508   8.372   7.648
 1439POPC   C1B22195  14.998   7.835   8.762
 1439POPC   C2B22196  15.007   7.609   8.409
 1439POPC   C3B22197  15.090   7.792   8.036
 1439POPC   C4B22198  15.144   7.956   7.645
 1440POPC   NC322199  26.562  37.294   9.243
 1440POPC   PO422200  26.809  37.878   9.444
 1440POPC   GL122201  26.884  37.699   9.093
 1440POPC   GL222202  27.066  37.424   9.268
 1440POPC   C1A22203  26.660  37.744   8.702
 1440POPC   D2A22204  26.843  37.817   8.298
 1440POPC   C3A22205  26.559  37.757   7.953
 1440POPC   C4A22206  26.553  37.574   7.564
 1440POPC   C1B22207  27.146  37.304   8.843
 1440POPC   C2B22208  27.062  37.261   8.411
 1440POPC   C3B22209  26.805  37.314   8.069
 1440POPC   C4B22210  27.007  37.532   7.769
 1441POPC   NC322211  13.802   8.839   9.402
 1441POPC   PO422212  13.529   9.455   9.479
 1441POPC   GL122213  13.747   9.295   9.103
 1441POPC   GL222214  13.466   9.080   9.099
 1441POPC   C1A22215  13.837   8.955   8.735
 1441POPC   D2A22216  13.703   8.738   8.317
 1441POPC   C3A22217  13.626   9.062   7.988
 1441POPC   C4A22218  13.827   9.152   7.586
 1441POPC   C1B22219  13.437   9.282   8.712
 1441POPC   C2B22220  13.307   9.016   8.411
 1441POPC   C3B22221  13.223   8.685   8.135
 1441POPC   C4B22222  13.269   8.709   7.723
 1442POPC   NC322223  44.958  43.798   9.675
 1442POPC   PO422224  44.256  43.938   9.537
 1442POPC   GL122225  44.502  43.841   9.149
 1442POPC   GL222226  44.872  43.789   9.135
 1442POPC   C1A22227  44.624  44.081   8.742
 1442POPC   D2A22228  44.675  44.260   8.304
 1442POPC   C3A22229  44.494  44.076   7.937
 1442POPC   C4A22230  44.376  43.770   7.608
 1442POPC   C1B22231  44.740  43.593   8.730
 1442POPC   C2B22232  44.617  43.714   8.286
 1442POPC   C3B22233  44.823  43.633   7.875
 1442POPC   C4B22234  44.992  43.547   7.408
 1443POPC   NC322235  34.378  20.240   9.469
 1443POPC   PO422236  35.058  20.387   9.540
 1443POPC   GL122237  34.856  20.398   9.133
 1443POPC   GL222238  34.560  20.623   9.131
 1443POPC   C1A22239  34.733  20.338   8.693
 1443POPC   D2A22240  34.564  20.518   8.306
 1443POPC   C3A22241  34.829  20.386   8.003
 1443POPC   C4A22242  34.933  20.387   7.632
 1443POPC   C1B22243  34.286  20.570   8.764
 1443POPC   C2B22244  34.228  20.885   8.457
 1443POPC   C3B22245  34.260  20.871   8.019
 1443POPC   C4B22246  34.415  20.564   7.734
 1444POPC   NC322247   9.755   7.224   9.551
 1444POPC   PO422248  10.120   7.838   9.453
 1444POPC   GL122249   9.907   7.526   9.153
 1444POPC   GL222250  10.060   7.171   9.127
 1444POPC   C1A22251   9.841   7.377   8.716
 1444POPC   D2A22252  10.057   7.540   8.360
 1444POPC   C3A22253   9.801   7.637   8.003
 1444POPC   C4A22254   9.535   7.371   7.751
 1444POPC   C1B22255  10.323   7.197   8.758
 1444POPC   C2B22256  10.248   7.045   8.346
 1444POPC   C3B22257   9.908   7.124   8.090
 1444POPC   C4B22258  10.028   7.296   7.683
 1445POPC   NC322259  26.526  42.539   9.481
 1445POPC   PO422260  27.077  42.083   9.465
 1445POPC   GL122261  26.910  42.253   9.109
 1445POPC   GL222262  26.814  42.601   9.079
 1445POPC   C1A22263  27.033  42.405   8.694
 1445POPC   D2A22264  26.750  42.605   8.480
 1445POPC   C3A22265  26.774  42.396   8.141
 1445POPC   C4A22266  26.803  42.439   7.719
 1445POPC   C1B22267  26.420  42.688   8.844
 1445POPC   C2B22268  26.271  42.779   8.388
 1445POPC   C3B22269  26.412  42.686   7.921
 1445POPC   C4B22270  26.349  42.421   7.484
 1446POPC   NC322271  23.137  40.006   9.589
 1446POPC   PO422272  22.427  40.106   9.459
 1446POPC   GL122273  22.848  40.155   9.187
 1446POPC   GL222274  23.247  40.209   9.142
 1446POPC   C1A22275  22.896  40.001   8.780
 1446POPC   D2A22276  22.652  40.084   8.415
 1446POPC   C3A22277  22.868  40.171   8.056
 1446POPC   C4A22278  22.909  39.962   7.688
 1446POPC   C1B22279  23.146  40.462   8.810
 1446POPC   C2B22280  23.001  40.550   8.427
 1446POPC   C3B22281  23.246  40.521   8.073
 1446POPC   C4B22282  23.196  40.362   7.688
 1447POPC   NC322283  12.470  31.012   9.345
 1447POPC   PO422284  13.032  31.011   9.417
 1447POPC   GL122285  12.835  31.305   9.096
 1447POPC   GL222286  12.529  31.500   9.124
 1447POPC   C1A22287  12.713  31.313   8.656
 1447POPC   D2A22288  12.806  31.104   8.257
 1447POPC   C3A22289  12.731  31.388   7.947
 1447POPC   C4A22290  12.962  31.690   7.698
 1447POPC   C1B22291  12.503  31.782   8.744
 1447POPC   C2B22292  12.623  31.738   8.309
 1447POPC   C3B22293  12.496  31.821   7.867
 1447POPC   C4B22294  12.562  31.967   7.437
 1448POPC   NC322295  15.485  44.193   9.383
 1448POPC   PO422296  16.089  44.105   9.449
 1448POPC   GL122297  15.840  43.855   9.180
 1448POPC   GL222298  15.492  43.699   9.249
 1448POPC   C1A22299  15.974  43.842   8.775
 1448POPC   D2A22300  16.220  43.840   8.411
 1448POPC   C3A22301  16.027  43.768   8.029
 1448POPC   C4A22302  16.002  43.859   7.598
 1448POPC   C1B22303  15.454  43.799   8.791
 1448POPC   C2B22304  15.670  43.931   8.376
 1448POPC   C3B22305  15.653  44.092   7.945
 1448POPC   C4B22306  15.520  43.937   7.536
 1449POPC   NC322307   9.548   1.780   9.825
 1449POPC   PO422308   8.951   1.912   9.487
 1449POPC   GL122309   8.972   2.071   9.108
 1449POPC   GL222310   9.335   2.092   9.172
 1449POPC   C1A22311   8.753   1.960   8.743
 1449POPC   D2A22312   8.661   2.114   8.340
 1449POPC   C3A22313   8.824   1.825   8.043
 1449POPC   C4A22314   9.155   1.765   7.748
 1449POPC   C1B22315   9.338   1.922   8.785
 1449POPC   C2B22316   9.163   1.917   8.410
 1449POPC   C3B22317   9.184   2.193   8.101
 1449POPC   C4B22318   9.258   2.276   7.683
 1450POPC   NC322319  31.963   5.452   9.759
 1450POPC   PO422320  32.342   5.963   9.719
 1450POPC   GL122321  32.173   5.973   9.293
 1450POPC   GL222322  31.949   5.692   9.224
 1450POPC   C1A22323  32.274   5.851   8.849
 1450POPC   D2A22324  32.154   5.945   8.416
 1450POPC   C3A22325  32.486   5.894   8.097
 1450POPC   C4A22326  32.377   5.906   7.654
 1450POPC   C1B22327  31.774   5.744   8.774
 1450POPC   C2B22328  31.722   5.703   8.276
 1450POPC   C3B22329  31.888   5.798   7.838
 1450POPC   C4B22330  32.008   5.553   7.452
 1451POPC   NC322331   2.974  40.987   9.348
 1451POPC   PO422332   2.476  40.574   9.428
 1451POPC   GL122333   2.582  40.772   9.084
 1451POPC   GL222334   2.522  41.112   9.083
 1451POPC   C1A22335   2.742  40.676   8.691
 1451POPC   D2A22336   2.746  40.379   8.362
 1451POPC   C3A22337   2.846  40.655   8.055
 1451POPC   C4A22338   2.708  40.801   7.679
 1451POPC   C1B22339   2.812  41.192   8.762
 1451POPC   C2B22340   2.991  41.021   8.387
 1451POPC   C3B22341   2.999  41.138   7.953
 1451POPC   C4B22342   3.147  41.028   7.525
 1452POPC   NC322343  38.951  11.244   9.914
 1452POPC   PO422344  38.467  11.135   9.561
 1452POPC   GL122345  38.418  11.339   9.155
 1452POPC   GL222346  38.693  11.255   8.987
 1452POPC   C1A22347  38.234  11.242   8.743
 1452POPC   D2A22348  38.237  10.958   8.374
 1452POPC   C3A22349  38.327  11.186   8.003
 1452POPC   C4A22350  38.079  11.573   7.895
 1452POPC   C1B22351  38.694  10.967   8.640
 1452POPC   C2B22352  38.900  11.014   8.230
 1452POPC   C3B22353  38.917  11.248   7.815
 1452POPC   C4B22354  38.738  11.579   7.533
 1453POPC   NC322355  17.554   3.965   9.405
 1453POPC   PO422356  17.297   3.353   9.407
 1453POPC   GL122357  17.583   3.521   9.123
 1453POPC   GL222358  17.278   3.727   9.034
 1453POPC   C1A22359  17.830   3.632   8.747
 1453POPC   D2A22360  17.746   3.771   8.336
 1453POPC   C3A22361  17.840   3.542   7.957
 1453POPC   C4A22362  17.690   3.742   7.584
 1453POPC   C1B22363  17.354   3.485   8.650
 1453POPC   C2B22364  17.418   3.375   8.228
 1453POPC   C3B22365  17.325   3.604   7.894
 1453POPC   C4B22366  17.165   3.839   7.543
 1454POPC   NC322367  26.262  38.775   9.719
 1454POPC   PO422368  25.906  38.203   9.545
 1454POPC   GL122369  25.943  38.368   9.160
 1454POPC   GL222370  26.114  38.651   9.235
 1454POPC   C1A22371  25.811  38.489   8.755
 1454POPC   D2A22372  25.924  38.302   8.379
 1454POPC   C3A22373  25.915  38.570   8.027
 1454POPC   C4A22374  25.692  38.537   7.642
 1454POPC   C1B22375  26.298  38.580   8.840
 1454POPC   C2B22376  26.345  38.619   8.395
 1454POPC   C3B22377  26.441  38.640   7.953
 1454POPC   C4B22378  26.215  38.534   7.581
 1455POPC   NC322379  10.511  30.086   9.485
 1455POPC   PO422380  10.187  29.508   9.613
 1455POPC   GL122381  10.290  29.646   9.199
 1455POPC   GL222382  10.585  29.834   9.057
 1455POPC   C1A22383  10.155  29.901   8.836
 1455POPC   D2A22384  10.414  30.073   8.502
 1455POPC   C3A22385  10.275  29.985   8.084
 1455POPC   C4A22386  10.329  29.845   7.648
 1455POPC   C1B22387  10.842  29.824   8.686
 1455POPC   C2B22388  10.894  29.959   8.295
 1455POPC   C3B22389  10.759  29.839   7.942
 1455POPC   C4B22390  10.856  29.851   7.541
 1456POPC   NC322391  34.381  33.326   9.523
 1456POPC   PO422392  34.730  33.980   9.530
 1456POPC   GL122393  34.797  33.877   9.140
 1456POPC   GL222394  34.616  33.538   9.109
 1456POPC   C1A22395  34.832  34.105   8.775
 1456POPC   D2A22396  34.624  33.950   8.425
 1456POPC   C3A22397  34.826  33.980   8.052
 1456POPC   C4A22398  34.684  33.779   7.716
 1456POPC   C1B22399  34.214  33.406   8.845
 1456POPC   C2B22400  34.085  33.561   8.420
 1456POPC   C3B22401  34.274  33.675   8.026
 1456POPC   C4B22402  34.156  33.773   7.597
 1457POPC   NC322403  22.304  14.952   9.514
 1457POPC   PO422404  22.036  14.287   9.466
 1457POPC   GL122405  22.270  14.321   9.078
 1457POPC   GL222406  22.395  14.639   9.103
 1457POPC   C1A22407  22.305  14.375   8.617
 1457POPC   D2A22408  22.478  14.324   8.185
 1457POPC   C3A22409  22.222  14.299   7.811
 1457POPC   C4A22410  22.179  14.532   7.412
 1457POPC   C1B22411  22.307  14.873   8.742
 1457POPC   C2B22412  22.222  14.775   8.291
 1457POPC   C3B22413  22.351  14.779   7.862
 1457POPC   C4B22414  22.206  15.046   7.504
 1458POPC   NC322415  23.428  34.786   9.477
 1458POPC   PO422416  23.979  34.309   9.523
 1458POPC   GL122417  23.771  34.545   9.212
 1458POPC   GL222418  23.478  34.340   9.170
 1458POPC   C1A22419  23.493  34.703   8.816
 1458POPC   D2A22420  23.628  34.580   8.390
 1458POPC   C3A22421  23.373  34.540   8.030
 1458POPC   C4A22422  23.447  34.346   7.630
 1458POPC   C1B22423  23.755  34.284   8.790
 1458POPC   C2B22424  24.062  34.369   8.517
 1458POPC   C3B22425  23.976  34.365   8.074
 1458POPC   C4B22426  24.314  34.277   7.816
 1459POPC   NC322427  43.778  24.585   9.587
 1459POPC   PO422428  44.300  24.278   9.258
 1459POPC   GL122429  43.977  24.507   9.138
 1459POPC   GL222430  43.707  24.291   9.158
 1459POPC   C1A22431  43.898  24.764   8.799
 1459POPC   D2A22432  43.908  24.607   8.390
 1459POPC   C3A22433  43.703  24.825   8.076
 1459POPC   C4A22434  43.893  24.712   7.701
 1459POPC   C1B22435  43.853  24.234   8.730
 1459POPC   C2B22436  43.700  24.125   8.310
 1459POPC   C3B22437  43.914  24.054   7.934
 1459POPC   C4B22438  43.822  24.065   7.511
 1460POPC   NC322439  31.707  26.798   9.712
 1460POPC   PO422440  31.110  26.708   9.453
 1460POPC   GL122441  31.392  26.554   9.097
 1460POPC   GL222442  31.752  26.630   9.151
 1460POPC   C1A22443  31.438  26.673   8.693
 1460POPC   D2A22444  31.448  26.400   8.365
 1460POPC   C3A22445  31.378  26.637   8.015
 1460POPC   C4A22446  31.405  26.604   7.591
 1460POPC   C1B22447  31.937  26.742   8.761
 1460POPC   C2B22448  31.810  26.829   8.292
 1460POPC   C3B22449  31.827  26.789   7.805
 1460POPC   C4B22450  31.865  26.684   7.334
 1461POPC   NC322451  16.748  25.831   9.516
 1461POPC   PO422452  17.127  26.449   9.523
 1461POPC   GL122453  16.836  26.189   9.148
 1461POPC   GL222454  16.558  25.856   9.064
 1461POPC   C1A22455  16.647  26.180   8.712
 1461POPC   D2A22456  16.471  26.403   8.387
 1461POPC   C3A22457  16.598  26.137   8.111
 1461POPC   C4A22458  16.664  26.009   7.731
 1461POPC   C1B22459  16.987  25.781   8.890
 1461POPC   C2B22460  17.088  25.939   8.521
 1461POPC   C3B22461  17.030  25.857   8.104
 1461POPC   C4B22462  17.143  25.873   7.700
 1462POPC   NC322463  12.682   0.937   9.471
 1462POPC   PO422464  13.090   0.418   9.389
 1462POPC   GL122465  12.669   0.479   9.168
 1462POPC   GL222466  12.595   0.807   8.981
 1462POPC   C1A22467  12.513   0.329   8.754
 1462POPC   D2A22468  12.524   0.539   8.336
 1462POPC   C3A22469  12.762   0.651   7.968
 1462POPC   C4A22470  12.814   0.463   7.567
 1462POPC   C1B22471  12.934   0.622   8.721
 1462POPC   C2B22472  13.122   0.624   8.315
 1462POPC   C3B22473  13.150   0.317   7.952
 1462POPC   C4B22474  13.290   0.237   7.530
 1463POPC   NC322475  23.442   2.184   9.518
 1463POPC   PO422476  22.794   1.911   9.421
 1463POPC   GL122477  22.978   1.809   9.073
 1463POPC   GL222478  23.162   2.117   9.093
 1463POPC   C1A22479  22.803   1.895   8.668
 1463POPC   D2A22480  22.635   1.982   8.240
 1463POPC   C3A22481  22.929   1.935   7.873
 1463POPC   C4A22482  22.772   1.856   7.454
 1463POPC   C1B22483  23.347   2.026   8.720
 1463POPC   C2B22484  23.162   2.023   8.327
 1463POPC   C3B22485  23.156   2.366   8.019
 1463POPC   C4B22486  23.131   2.355   7.574
 1464POPC   NC322487  18.471  19.160   9.432
 1464POPC   PO422488  19.123  19.199   9.638
 1464POPC   GL122489  19.168  19.391   9.203
 1464POPC   GL222490  18.859  19.300   8.973
 1464POPC   C1A22491  19.334  19.217   8.794
 1464POPC   D2A22492  19.393  19.054   8.375
 1464POPC   C3A22493  19.015  19.114   8.123
 1464POPC   C4A22494  18.968  19.203   7.698
 1464POPC   C1B22495  18.911  18.950   8.638
 1464POPC   C2B22496  18.798  18.659   8.258
 1464POPC   C3B22497  18.941  18.681   7.795
 1464POPC   C4B22498  18.884  18.818   7.348
 1465POPC   NC322499  34.066  16.294   9.631
 1465POPC   PO422500  33.602  15.912   9.521
 1465POPC   GL122501  33.690  16.071   9.098
 1465POPC   GL222502  34.042  16.087   9.161
 1465POPC   C1A22503  33.786  16.045   8.616
 1465POPC   D2A22504  33.861  15.750   8.282
 1465POPC   C3A22505  33.692  15.905   7.868
 1465POPC   C4A22506  33.487  16.065   7.487
 1465POPC   C1B22507  34.205  15.809   8.857
 1465POPC   C2B22508  34.298  15.993   8.458
 1465POPC   C3B22509  34.077  16.179   8.124
 1465POPC   C4B22510  34.145  16.054   7.726
 1466POPC   NC322511  38.317  34.461   9.388
 1466POPC   PO422512  38.796  34.832   9.469
 1466POPC   GL122513  38.630  34.757   9.083
 1466POPC   GL222514  38.405  34.524   8.908
 1466POPC   C1A22515  38.602  34.974   8.692
 1466POPC   D2A22516  38.385  35.108   8.314
 1466POPC   C3A22517  38.537  34.790   8.035
 1466POPC   C4A22518  38.493  34.559   7.659
 1466POPC   C1B22519  38.122  34.349   8.614
 1466POPC   C2B22520  38.121  34.469   8.197
 1466POPC   C3B22521  38.019  34.391   7.792
 1466POPC   C4B22522  38.128  34.310   7.364
 1467POPC   NC322523  22.858  25.227   9.745
 1467POPC   PO422524  23.279  25.705   9.557
 1467POPC   GL122525  22.980  25.462   9.311
 1467POPC   GL222526  23.262  25.464   9.095
 1467POPC   C1A22527  22.813  25.303   8.892
 1467POPC   D2A22528  22.676  25.439   8.439
 1467POPC   C3A22529  22.814  25.232   8.107
 1467POPC   C4A22530  22.761  25.054   7.745
 1467POPC   C1B22531  23.310  25.292   8.692
 1467POPC   C2B22532  23.282  25.142   8.264
 1467POPC   C3B22533  23.237  25.239   7.809
 1467POPC   C4B22534  23.159  25.072   7.392
 1468POPC   NC322535  41.225  18.522   9.373
 1468POPC   PO422536  41.751  18.076   9.479
 1468POPC   GL122537  41.545  18.162   9.120
 1468POPC   GL222538  41.811  18.376   9.009
 1468POPC   C1A22539  41.361  18.242   8.715
 1468POPC   D2A22540  41.321  18.604   8.415
 1468POPC   C3A22541  41.561  18.540   8.055
 1468POPC   C4A22542  41.888  18.262   7.879
 1468POPC   C1B22543  41.918  17.962   8.791
 1468POPC   C2B22544  42.161  17.901   8.389
 1468POPC   C3B22545  41.983  17.775   7.998
 1468POPC   C4B22546  41.778  17.829   7.618
 1469POPC   NC322547   5.148   8.565   9.517
 1469POPC   PO422548   5.403   7.883   9.432
 1469POPC   GL122549   5.139   8.098   9.135
 1469POPC   GL222550   4.977   8.412   9.081
 1469POPC   C1A22551   5.071   8.084   8.701
 1469POPC   D2A22552   4.940   7.884   8.348
 1469POPC   C3A22553   5.170   7.963   7.989
 1469POPC   C4A22554   5.094   7.864   7.613
 1469POPC   C1B22555   4.938   8.612   8.716
 1469POPC   C2B22556   4.900   8.412   8.336
 1469POPC   C3B22557   5.002   8.438   7.929
 1469POPC   C4B22558   4.742   8.253   7.629
 1470POPC   NC322559  41.021   4.302   9.514
 1470POPC   PO422560  40.363   4.505   9.563
 1470POPC   GL122561  40.622   4.317   9.179
 1470POPC   GL222562  40.931   4.302   9.036
 1470POPC   C1A22563  40.597   4.068   8.747
 1470POPC   D2A22564  40.436   4.189   8.315
 1470POPC   C3A22565  40.686   4.327   7.982
 1470POPC   C4A22566  40.793   4.187   7.558
 1470POPC   C1B22567  40.831   4.690   8.838
 1470POPC   C2B22568  40.835   4.626   8.420
 1470POPC   C3B22569  40.833   4.815   8.061
 1470POPC   C4B22570  40.854   4.690   7.660
 1471POPC   NC322571  38.603  31.755   9.365
 1471POPC   PO422572  38.584  32.364   9.667
 1471POPC   GL122573  38.529  32.281   9.264
 1471POPC   GL222574  38.237  32.081   9.223
 1471POPC   C1A22575  38.592  32.478   8.893
 1471POPC   D2A22576  38.433  32.341   8.518
 1471POPC   C3A22577  38.688  32.388   8.181
 1471POPC   C4A22578  38.489  32.457   7.814
 1471POPC   C1B22579  38.066  32.348   8.906
 1471POPC   C2B22580  37.895  32.298   8.496
 1471POPC   C3B22581  38.066  32.273   8.076
 1471POPC   C4B22582  38.123  31.993   7.734
 1472POPC   NC322583  28.398  37.423   9.428
 1472POPC   PO422584  28.422  38.165   9.462
 1472POPC   GL122585  28.312  37.850   9.154
 1472POPC   GL222586  28.603  37.626   9.035
 1472POPC   C1A22587  28.090  37.845   8.762
 1472POPC   D2A22588  28.220  38.059   8.396
 1472POPC   C3A22589  28.206  37.839   8.011
 1472POPC   C4A22590  28.348  37.564   7.662
 1472POPC   C1B22591  28.609  37.927   8.748
 1472POPC   C2B22592  28.610  37.742   8.358
 1472POPC   C3B22593  28.735  37.664   7.968
 1472POPC   C4B22594  28.771  37.244   7.783
 1473POPC   NC322595  31.463  42.673   9.575
 1473POPC   PO422596  31.738  43.296   9.638
 1473POPC   GL122597  31.500  43.102   9.265
 1473POPC   GL222598  31.726  42.829   9.100
 1473POPC   C1A22599  31.305  42.918   8.874
 1473POPC   D2A22600  31.509  42.819   8.486
 1473POPC   C3A22601  31.358  43.042   8.143
 1473POPC   C4A22602  31.184  43.283   7.820
 1473POPC   C1B22603  31.689  43.231   8.773
 1473POPC   C2B22604  31.944  43.425   8.446
 1473POPC   C3B22605  31.968  43.205   8.071
 1473POPC   C4B22606  31.706  43.185   7.737
 1474POPC   NC322607  12.251  33.910   9.754
 1474POPC   PO422608  11.900  33.429   9.661
 1474POPC   GL122609  11.846  33.707   9.268
 1474POPC   GL222610  12.085  33.992   9.237
 1474POPC   C1A22611  11.854  33.822   8.793
 1474POPC   D2A22612  12.095  33.778   8.370
 1474POPC   C3A22613  11.887  33.779   7.936
 1474POPC   C4A22614  11.841  33.555   7.552
 1474POPC   C1B22615  12.294  34.104   8.829
 1474POPC   C2B22616  12.187  34.274   8.410
 1474POPC   C3B22617  12.206  34.185   7.975
 1474POPC   C4B22618  12.611  34.139   7.767
 1475POPC   NC322619  32.641  34.975   9.379
 1475POPC   PO422620  32.283  34.489   9.743
 1475POPC   GL122621  32.196  34.478   9.231
 1475POPC   GL222622  32.256  34.813   9.040
 1475POPC   C1A22623  32.242  34.370   8.748
 1475POPC   D2A22624  32.295  34.493   8.288
 1475POPC   C3A22625  32.215  34.342   7.851
 1475POPC   C4A22626  31.921  34.506   7.540
 1475POPC   C1B22627  32.609  34.809   8.699
 1475POPC   C2B22628  32.779  34.680   8.305
 1475POPC   C3B22629  32.561  34.758   7.933
 1475POPC   C4B22630  32.088  34.845   7.878
 1476POPC   NC322631  21.803  25.479   9.521
 1476POPC   PO422632  22.448  25.362   9.585
 1476POPC   GL122633  22.204  25.360   9.197
 1476POPC   GL222634  22.089  25.034   9.039
 1476POPC   C1A22635  22.317  25.360   8.760
 1476POPC   D2A22636  22.116  25.141   8.417
 1476POPC   C3A22637  22.281  25.222   8.027
 1476POPC   C4A22638  22.499  25.547   7.853
 1476POPC   C1B22639  21.824  25.305   8.792
 1476POPC   C2B22640  21.571  25.163   8.463
 1476POPC   C3B22641  21.753  25.204   8.056
 1476POPC   C4B22642  21.908  25.341   7.664
 1477POPC   NC322643  36.981  43.245   9.730
 1477POPC   PO422644  36.835  42.623   9.727
 1477POPC   GL122645  36.881  42.994   9.315
 1477POPC   GL222646  36.658  43.294   9.300
 1477POPC   C1A22647  36.925  43.043   8.870
 1477POPC   D2A22648  36.667  43.161   8.520
 1477POPC   C3A22649  36.760  43.074   8.099
 1477POPC   C4A22650  37.082  43.197   7.819
 1477POPC   C1B22651  36.687  43.536   8.912
 1477POPC   C2B22652  36.689  43.677   8.469
 1477POPC   C3B22653  36.762  43.569   8.023
 1477POPC   C4B22654  36.783  43.509   7.549
 1478POPC   NC322655  36.060  26.293   9.505
 1478POPC   PO422656  35.586  25.818   9.454
 1478POPC   GL122657  35.830  26.037   9.119
 1478POPC   GL222658  35.884  26.410   9.047
 1478POPC   C1A22659  36.182  25.990   8.820
 1478POPC   D2A22660  36.314  26.160   8.415
 1478POPC   C3A22661  36.028  26.076   8.051
 1478POPC   C4A22662  36.218  25.819   7.835
 1478POPC   C1B22663  35.834  26.299   8.618
 1478POPC   C2B22664  35.999  26.525   8.253
 1478POPC   C3B22665  36.168  26.497   7.794
 1478POPC   C4B22666  35.922  26.584   7.396
 1479POPC   NC322667  30.233  25.916   9.669
 1479POPC   PO422668  29.881  26.401   9.834
 1479POPC   GL122669  29.887  26.319   9.300
 1479POPC   GL222670  29.551  26.321   9.121
 1479POPC   C1A22671  29.926  26.149   8.821
 1479POPC   D2A22672  29.764  25.973   8.375
 1479POPC   C3A22673  30.085  26.011   8.026
 1479POPC   C4A22674  30.084  26.278   7.675
 1479POPC   C1B22675  29.581  26.525   8.713
 1479POPC   C2B22676  29.608  26.708   8.294
 1479POPC   C3B22677  29.670  26.422   7.961
 1479POPC   C4B22678  29.595  26.018   7.850
 1480POPC   NC322679   4.030  16.052   9.435
 1480POPC   PO422680   4.652  15.707   9.316
 1480POPC   GL122681   4.355  15.912   9.063
 1480POPC   GL222682   4.418  16.276   9.145
 1480POPC   C1A22683   4.427  16.030   8.657
 1480POPC   D2A22684   4.450  16.258   8.302
 1480POPC   C3A22685   4.484  15.981   7.962
 1480POPC   C4A22686   4.669  15.650   7.735
 1480POPC   C1B22687   4.149  16.421   8.822
 1480POPC   C2B22688   3.958  16.441   8.429
 1480POPC   C3B22689   4.052  16.315   8.008
 1480POPC   C4B22690   4.183  16.170   7.586
 1481POPC   NC322691  40.516   6.230   9.510
 1481POPC   PO422692  39.927   5.896   9.440
 1481POPC   GL122693  39.877   5.917   9.084
 1481POPC   GL222694  39.625   6.149   9.017
 1481POPC   C1A22695  40.069   5.670   8.732
 1481POPC   D2A22696  40.224   5.745   8.328
 1481POPC   C3A22697  40.301   5.668   7.907
 1481POPC   C4A22698  40.035   5.647   7.557
 1481POPC   C1B22699  39.569   5.741   8.768
 1481POPC   C2B22700  39.706   5.857   8.378
 1481POPC   C3B22701  39.829   5.870   7.988
 1481POPC   C4B22702  39.591   5.845   7.641
 1482POPC   NC322703  15.185   1.398   9.436
 1482POPC   PO422704  15.163   2.011   9.363
 1482POPC   GL122705  15.424   2.015   9.036
 1482POPC   GL222706  15.607   1.711   9.166
 1482POPC   C1A22707  15.157   1.979   8.653
 1482POPC   D2A22708  14.902   2.280   8.422
 1482POPC   C3A22709  14.966   2.160   7.969
 1482POPC   C4A22710  15.345   2.101   7.688
 1482POPC   C1B22711  15.464   1.587   8.775
 1482POPC   C2B22712  15.266   1.552   8.380
 1482POPC   C3B22713  15.333   1.679   7.975
 1482POPC   C4B22714  15.278   1.477   7.573
 1483POPC   NC322715  44.699  39.693   9.507
 1483POPC   PO422716   0.157  40.229   9.627
 1483POPC   GL122717  44.930  40.052   9.229
 1483POPC   GL222718  44.616  40.215   9.151
 1483POPC   C1A22719  44.710  39.815   8.832
 1483POPC   D2A22720  44.508  39.657   8.404
 1483POPC   C3A22721  44.628  39.792   7.966
 1483POPC   C4A22722  44.493  39.812   7.505
 1483POPC   C1B22723  44.886  40.312   8.792
 1483POPC   C2B22724  44.831  40.117   8.406
 1483POPC   C3B22725  44.816  40.283   8.015
 1483POPC   C4B22726  44.500  40.263   7.737
 1484POPC   NC322727  19.999  38.983   9.495
 1484POPC   PO422728  19.490  39.487   9.450
 1484POPC   GL122729  19.788  39.332   9.191
 1484POPC   GL222730  19.701  39.560   8.980
 1484POPC   C1A22731  19.943  39.075   8.858
 1484POPC   D2A22732  19.740  38.962   8.494
 1484POPC   C3A22733  19.915  38.945   8.085
 1484POPC   C4A22734  20.000  38.911   7.684
 1484POPC   C1B22735  19.790  39.489   8.584
 1484POPC   C2B22736  19.724  39.407   8.194
 1484POPC   C3B22737  19.911  39.462   7.814
 1484POPC   C4B22738  20.006  39.338   7.409
 1485POPC   NC322739  36.622  37.710   9.627
 1485POPC   PO422740  37.097  38.159   9.648
 1485POPC   GL122741  36.834  37.896   9.232
 1485POPC   GL222742  36.853  37.551   9.074
 1485POPC   C1A22743  36.778  37.939   8.782
 1485POPC   D2A22744  36.699  37.620   8.452
 1485POPC   C3A22745  36.618  37.817   8.035
 1485POPC   C4A22746  36.778  37.874   7.613
 1485POPC   C1B22747  37.188  37.642   8.691
 1485POPC   C2B22748  37.380  37.640   8.293
 1485POPC   C3B22749  37.131  37.695   7.937
 1485POPC   C4B22750  37.196  37.490   7.527
 1486POPC   NC322751  16.943   7.257   9.457
 1486POPC   PO422752  16.453   7.650   9.218
 1486POPC   GL122753  16.582   7.259   9.055
 1486POPC   GL222754  16.931   7.308   8.958
 1486POPC   C1A22755  16.568   7.284   8.615
 1486POPC   D2A22756  16.596   7.710   8.468
 1486POPC   C3A22757  16.664   7.646   8.045
 1486POPC   C4A22758  16.544   7.373   7.720
 1486POPC   C1B22759  17.155   7.219   8.588
 1486POPC   C2B22760  17.003   7.300   8.205
 1486POPC   C3B22761  17.233   7.191   7.854
 1486POPC   C4B22762  17.019   7.161   7.496
 1487POPC   NC322763  16.040   4.374   9.738
 1487POPC   PO422764  15.807   3.950   9.396
 1487POPC   GL122765  15.824   4.356   9.237
 1487POPC   GL222766  16.170   4.351   9.233
 1487POPC   C1A22767  15.769   4.590   8.808
 1487POPC   D2A22768  15.874   4.392   8.373
 1487POPC   C3A22769  15.716   4.584   7.963
 1487POPC   C4A22770  15.862   4.464   7.502
 1487POPC   C1B22771  16.028   4.150   8.830
 1487POPC   C2B22772  16.091   3.938   8.494
 1487POPC   C3B22773  16.291   4.133   8.178
 1487POPC   C4B22774  16.015   4.157   7.856
 1488POPC   NC322775  27.095  30.346   9.473
 1488POPC   PO422776  26.957  30.965   9.312
 1488POPC   GL122777  26.600  30.776   9.105
 1488POPC   GL222778  26.803  30.476   9.074
 1488POPC   C1A22779  26.498  30.562   8.689
 1488POPC   D2A22780  26.761  30.421   8.340
 1488POPC   C3A22781  26.714  30.722   8.017
 1488POPC   C4A22782  26.889  30.996   7.715
 1488POPC   C1B22783  27.116  30.345   8.753
 1488POPC   C2B22784  27.285  30.417   8.325
 1488POPC   C3B22785  27.091  30.395   7.892
 1488POPC   C4B22786  27.101  30.294   7.444
 1489POPC   NC322787  20.693  36.722   9.555
 1489POPC   PO422788  20.873  37.310   9.421
 1489POPC   GL122789  20.777  36.965   9.108
 1489POPC   GL222790  20.877  36.588   9.102
 1489POPC   C1A22791  20.463  36.754   8.839
 1489POPC   D2A22792  20.310  36.888   8.441
 1489POPC   C3A22793  20.453  37.227   8.177
 1489POPC   C4A22794  20.503  37.175   7.743
 1489POPC   C1B22795  20.957  36.727   8.665
 1489POPC   C2B22796  20.886  36.938   8.286
 1489POPC   C3B22797  20.872  36.799   7.855
 1489POPC   C4B22798  20.986  36.681   7.399
 1490POPC   NC322799  14.993   3.198   9.263
 1490POPC   PO422800  15.234   2.719   9.712
 1490POPC   GL122801  15.087   2.665   9.215
 1490POPC   GL222802  15.157   2.918   8.895
 1490POPC   C1A22803  15.231   2.452   8.806
 1490POPC   D2A22804  15.287   2.669   8.410
 1490POPC   C3A22805  15.390   2.446   8.085
 1490POPC   C4A22806  15.197   2.612   7.753
 1490POPC   C1B22807  15.483   3.090   8.641
 1490POPC   C2B22808  15.588   3.251   8.265
 1490POPC   C3B22809  15.513   2.964   7.966
 1490POPC   C4B22810  15.379   3.030   7.542
 1491POPC   NC322811  12.648  10.307   9.450
 1491POPC   PO422812  12.800   9.673   9.583
 1491POPC   GL122813  12.837   9.875   9.200
 1491POPC   GL222814  12.534   9.722   9.136
 1491POPC   C1A22815  12.809   9.993   8.770
 1491POPC   D2A22816  13.001   9.947   8.370
 1491POPC   C3A22817  12.894   9.822   7.971
 1491POPC   C4A22818  12.597   9.872   7.647
 1491POPC   C1B22819  12.502   9.431   8.800
 1491POPC   C2B22820  12.637   9.587   8.415
 1491POPC   C3B22821  12.645   9.364   8.034
 1491POPC   C4B22822  12.815   9.419   7.638
 1492POPC   NC322823  12.325  39.606   9.474
 1492POPC   PO422824  11.946  40.159   9.703
 1492POPC   GL122825  12.214  40.225   9.292
 1492POPC   GL222826  12.332  39.943   9.087
 1492POPC   C1A22827  12.179  40.358   8.820
 1492POPC   D2A22828  12.206  40.191   8.364
 1492POPC   C3A22829  12.057  40.360   7.946
 1492POPC   C4A22830  11.949  40.297   7.490
 1492POPC   C1B22831  12.433  39.816   8.656
 1492POPC   C2B22832  12.278  39.681   8.219
 1492POPC   C3B22833  12.113  39.819   7.819
 1492POPC   C4B22834  12.181  39.825   7.380
 1493POPC   NC322835  22.363  27.390   9.617
 1493POPC   PO422836  22.283  27.969   9.908
 1493POPC   GL122837  22.133  27.798   9.421
 1493POPC   GL222838  21.941  27.450   9.324
 1493POPC   C1A22839  21.982  27.785   8.940
 1493POPC   D2A22840  22.056  27.950   8.523
 1493POPC   C3A22841  22.078  27.662   8.189
 1493POPC   C4A22842  21.789  27.433   7.904
 1493POPC   C1B22843  22.264  27.369   8.986
 1493POPC   C2B22844  22.357  27.374   8.554
 1493POPC   C3B22845  22.491  27.357   8.124
 1493POPC   C4B22846  22.265  27.472   7.756
 1494POPC   NC322847  44.044  37.137   9.628
 1494POPC   PO422848  43.833  36.434   9.556
 1494POPC   GL122849  44.056  36.677   9.206
 1494POPC   GL222850  44.274  37.021   9.175
 1494POPC   C1A22851  43.875  36.869   8.842
 1494POPC   D2A22852  43.587  37.048   8.539
 1494POPC   C3A22853  43.724  36.955   8.122
 1494POPC   C4A22854  43.843  36.775   7.736
 1494POPC   C1B22855  44.340  37.048   8.729
 1494POPC   C2B22856  44.270  36.852   8.310
 1494POPC   C3B22857  44.284  37.001   7.877
 1494POPC   C4B22858  44.107  37.105   7.456
 1495POPC   NC322859   7.716  18.291   9.414
 1495POPC   PO422860   8.341  18.506   9.528
 1495POPC   GL122861   8.118  18.486   9.150
 1495POPC   GL222862   8.157  18.180   9.135
 1495POPC   C1A22863   8.053  18.337   8.684
 1495POPC   D2A22864   8.137  18.230   8.240
 1495POPC   C3A22865   7.884  18.034   7.976
 1495POPC   C4A22866   7.800  18.136   7.536
 1495POPC   C1B22867   8.473  18.009   8.864
 1495POPC   C2B22868   8.407  17.774   8.505
 1495POPC   C3B22869   8.408  17.800   8.101
 1495POPC   C4B22870   8.554  17.968   7.769
 1496POPC   NC322871  24.112  16.842   9.462
 1496POPC   PO422872  24.791  16.712   9.487
 1496POPC   GL122873  24.534  16.788   9.152
 1496POPC   GL222874  24.430  16.443   9.130
 1496POPC   C1A22875  24.255  16.833   8.778
 1496POPC   D2A22876  24.183  16.652   8.346
 1496POPC   C3A22877  24.351  16.836   7.967
 1496POPC   C4A22878  24.776  16.965   7.888
 1496POPC   C1B22879  24.593  16.361   8.704
 1496POPC   C2B22880  24.452  16.213   8.314
 1496POPC   C3B22881  24.498  16.347   7.909
 1496POPC   C4B22882  24.250  16.489   7.586
 1497POPC   NC322883  11.731  24.883   9.556
 1497POPC   PO422884  12.223  24.397   9.601
 1497POPC   GL122885  12.182  24.403   9.157
 1497POPC   GL222886  12.488  24.214   9.161
 1497POPC   C1A22887  11.933  24.365   8.746
 1497POPC   D2A22888  11.965  24.612   8.346
 1497POPC   C3A22889  11.941  24.537   7.913
 1497POPC   C4A22890  12.250  24.673   7.578
 1497POPC   C1B22891  12.332  24.058   8.763
 1497POPC   C2B22892  12.302  24.200   8.343
 1497POPC   C3B22893  12.390  24.319   7.920
 1497POPC   C4B22894  12.228  24.172   7.510
 1498POPC   NC322895  10.513  10.691   9.547
 1498POPC   PO422896  10.684  11.407   9.596
 1498POPC   GL122897  10.523  11.173   9.213
 1498POPC   GL222898  10.212  11.314   9.035
 1498POPC   C1A22899  10.649  11.231   8.785
 1498POPC   D2A22900  10.801  11.288   8.386
 1498POPC   C3A22901  10.478  11.264   8.085
 1498POPC   C4A22902  10.667  11.197   7.712
 1498POPC   C1B22903  10.438  11.686   8.825
 1498POPC   C2B22904  10.650  11.761   8.450
 1498POPC   C3B22905  10.811  11.679   8.036
 1498POPC   C4B22906  10.524  11.676   7.707
 1499POPC   NC322907  28.295  43.319   9.553
 1499POPC   PO422908  28.554  42.702   9.565
 1499POPC   GL122909  28.314  42.878   9.209
 1499POPC   GL222910  28.234  43.198   9.065
 1499POPC   C1A22911  28.269  42.722   8.830
 1499POPC   D2A22912  28.097  42.654   8.434
 1499POPC   C3A22913  28.236  42.863   8.093
 1499POPC   C4A22914  28.365  43.060   7.729
 1499POPC   C1B22915  28.381  43.398   8.659
 1499POPC   C2B22916  28.382  43.331   8.230
 1499POPC   C3B22917  28.169  43.508   7.877
 1499POPC   C4B22918  28.118  43.435   7.416
 1500POPC   NC322919   0.866  28.658   9.606
 1500POPC   PO422920   0.392  29.022   9.556
 1500POPC   GL122921   0.322  29.094   9.120
 1500POPC   GL222922   0.669  29.004   9.052
 1500POPC   C1A22923   0.313  28.997   8.654
 1500POPC   D2A22924   0.143  29.089   8.244
 1500POPC   C3A22925   0.338  28.957   7.850
 1500POPC   C4A22926   0.549  28.864   7.448
 1500POPC   C1B22927   0.836  28.995   8.633
 1500POPC   C2B22928   0.681  29.083   8.234
 1500POPC   C3B22929   0.841  29.013   7.834
 1500POPC   C4B22930   0.819  29.341   7.532
 1501POPC   NC322931  44.038  29.489   9.484
 1501POPC   PO422932  43.766  28.775   9.571
 1501POPC   GL122933  43.868  29.083   9.197
 1501POPC   GL222934  43.857  29.421   9.022
 1501POPC   C1A22935  43.922  29.031   8.710
 1501POPC   D2A22936  43.829  29.140   8.260
 1501POPC   C3A22937  44.028  28.881   7.942
 1501POPC   C4A22938  44.293  29.020   7.572
 1501POPC   C1B22939  43.537  29.510   8.715
 1501POPC   C2B22940  43.545  29.687   8.328
 1501POPC   C3B22941  43.614  29.532   7.977
 1501POPC   C4B22942  43.946  29.371   7.776
 1502POPC   NC322943  14.235   0.876   9.458
 1502POPC   PO422944  14.016   1.552   9.578
 1502POPC   GL122945  14.243   1.371   9.236
 1502POPC   GL222946  14.088   1.135   9.012
 1502POPC   C1A22947  14.371   1.540   8.827
 1502POPC   D2A22948  14.313   1.359   8.415
 1502POPC   C3A22949  14.530   1.238   8.021
 1502POPC   C4A22950  14.410   1.323   7.613
 1502POPC   C1B22951  14.539   1.075   8.783
 1502POPC   C2B22952  14.521   0.876   8.378
 1502POPC   C3B22953  14.126   0.944   8.159
 1502POPC   C4B22954  13.946   0.947   7.754
 1503POPC   NC322955  27.388  31.111   9.427
 1503POPC   PO422956  27.572  30.414   9.555
 1503POPC   GL122957  27.477  30.516   9.143
 1503POPC   GL222958  27.639  30.847   9.063
 1503POPC   C1A22959  27.629  30.471   8.727
 1503POPC   D2A22960  27.677  30.841   8.465
 1503POPC   C3A22961  27.870  30.630   8.166
 1503POPC   C4A22962  27.760  30.587   7.765
 1503POPC   C1B22963  27.262  30.829   8.771
 1503POPC   C2B22964  27.100  30.917   8.367
 1503POPC   C3B22965  27.356  30.835   8.014
 1503POPC   C4B22966  27.313  30.746   7.580
 1504POPC   NC322967   2.440   8.060   9.507
 1504POPC   PO422968   3.096   8.217   9.591
 1504POPC   GL122969   2.803   8.264   9.174
 1504POPC   GL222970   2.447   8.434   9.145
 1504POPC   C1A22971   2.560   8.109   8.779
 1504POPC   D2A22972   2.412   8.186   8.380
 1504POPC   C3A22973   2.767   8.146   8.075
 1504POPC   C4A22974   2.824   8.063   7.628
 1504POPC   C1B22975   2.554   8.600   8.670
 1504POPC   C2B22976   2.641   8.640   8.189
 1504POPC   C3B22977   2.567   8.486   7.720
 1504POPC   C4B22978   2.956   8.490   7.359
 1505POPC   NC322979   0.494  19.251   9.492
 1505POPC   PO422980   0.421  18.618   9.546
 1505POPC   GL122981   0.477  18.778   9.148
 1505POPC   GL222982   0.235  19.030   9.104
 1505POPC   C1A22983   0.621  18.887   8.758
 1505POPC   D2A22984   0.540  19.270   8.523
 1505POPC   C3A22985   0.723  19.229   8.152
 1505POPC   C4A22986   0.783  18.872   7.906
 1505POPC   C1B22987   0.116  19.027   8.670
 1505POPC   C2B22988   0.107  19.150   8.234
 1505POPC   C3B22989   0.125  19.147   7.785
 1505POPC   C4B22990  44.910  18.845   7.492
 1506POPC   NC322991  44.665  34.253   9.767
 1506POPC   PO422992  44.559  34.881   9.704
 1506POPC   GL122993  44.545  34.871   9.208
 1506POPC   GL222994  44.433  34.524   9.094
 1506POPC   C1A22995  44.673  34.767   8.722
 1506POPC   D2A22996  44.449  34.539   8.346
 1506POPC   C3A22997  44.528  34.593   7.867
 1506POPC   C4A22998  44.400  34.453   7.445
 1506POPC   C1B22999  44.187  34.819   8.828
 1506POPC   C2B23000  44.275  35.019   8.438
 1506POPC   C3B23001  44.089  34.803   8.078
 1506POPC   C4B23002  44.112  34.845   7.646
 1507POPC   NC323003  16.970  10.115   9.481
 1507POPC   PO423004  17.429   9.681   9.696
 1507POPC   GL123005  17.430   9.938   9.312
 1507POPC   GL223006  17.590   9.652   9.149
 1507POPC   C1A23007  17.312   9.990   8.865
 1507POPC   D2A23008  17.175  10.020   8.409
 1507POPC   C3A23009  17.282   9.873   7.987
 1507POPC   C4A23010  17.619   9.786   7.735
 1507POPC   C1B23011  17.346   9.481   8.795
 1507POPC   C2B23012  17.202   9.483   8.347
 1507POPC   C3B23013  17.433   9.357   7.962
 1507POPC   C4B23014  17.369   9.342   7.512
 1508POPC   NC323015  35.472  37.276   9.553
 1508POPC   PO423016  35.631  37.857   9.329
 1508POPC   GL123017  35.566  37.482   9.087
 1508POPC   GL223018  35.235  37.503   9.139
 1508POPC   C1A23019  35.497  37.526   8.679
 1508POPC   D2A23020  35.624  37.866   8.489
 1508POPC   C3A23021  35.615  37.830   8.057
 1508POPC   C4A23022  35.504  37.544   7.759
 1508POPC   C1B23023  35.009  37.662   8.773
 1508POPC   C2B23024  35.069  37.508   8.369
 1508POPC   C3B23025  35.057  37.660   7.970
 1508POPC   C4B23026  35.056  37.451   7.581
 1509POPC   NC323027  42.484  29.911   9.580
 1509POPC   PO423028  43.067  30.043   9.761
 1509POPC   GL123029  43.048  29.802   9.361
 1509POPC   GL223030  43.051  30.107   9.205
 1509POPC   C1A23031  43.074  29.669   8.905
 1509POPC   D2A23032  43.032  29.762   8.440
 1509POPC   C3A23033  43.095  29.587   8.009
 1509POPC   C4A23034  43.237  29.845   7.688
 1509POPC   C1B23035  42.976  30.194   8.812
 1509POPC   C2B23036  43.043  30.272   8.371
 1509POPC   C3B23037  42.904  30.105   8.013
 1509POPC   C4B23038  42.695  30.329   7.716
 1510POPC   NC323039   2.150  21.852   9.585
 1510POPC   PO423040   2.132  22.436   9.633
 1510POPC   GL123041   1.894  22.153   9.274
 1510POPC   GL223042   2.178  21.964   9.105
 1510POPC   C1A23043   1.724  22.008   8.852
 1510POPC   D2A23044   1.776  22.338   8.500
 1510POPC   C3A23045   1.889  22.286   8.038
 1510POPC   C4A23046   1.737  22.474   7.650
 1510POPC   C1B23047   2.198  22.117   8.702
 1510POPC   C2B23048   2.021  21.904   8.356
 1510POPC   C3B23049   2.193  21.882   7.953
 1510POPC   C4B23050   2.020  22.021   7.537
 1511POPC   NC323051  18.764  27.827   9.518
 1511POPC   PO423052  19.188  27.332   9.495
 1511POPC   GL123053  19.092  27.557   9.127
 1511POPC   GL223054  18.857  27.757   9.027
 1511POPC   C1A23055  19.282  27.684   8.729
 1511POPC   D2A23056  19.262  27.879   8.293
 1511POPC   C3A23057  19.323  27.582   7.979
 1511POPC   C4A23058  18.983  27.285   7.812
 1511POPC   C1B23059  18.895  28.006   8.675
 1511POPC   C2B23060  18.656  27.918   8.335
 1511POPC   C3B23061  18.714  27.694   7.981
 1511POPC   C4B23062  18.998  27.766   7.650
 1512POPC   NC323063  26.625  23.477   9.389
 1512POPC   PO423064  27.223  23.838   9.597
 1512POPC   GL123065  26.992  23.800   9.206
 1512POPC   GL223066  27.227  23.597   9.056
 1512POPC   C1A23067  26.738  23.916   8.830
 1512POPC   D2A23068  26.583  23.658   8.456
 1512POPC   C3A23069  26.612  23.809   8.021
 1512POPC   C4A23070  26.551  23.785   7.567
 1512POPC   C1B23071  27.052  23.535   8.684
 1512POPC   C2B23072  27.107  23.709   8.273
 1512POPC   C3B23073  27.084  23.742   7.826
 1512POPC   C4B23074  27.199  23.477   7.482
 1513POPC   NC323075  41.839  32.343   9.512
 1513POPC   PO423076  41.237  31.919   9.550
 1513POPC   GL123077  41.463  32.119   9.227
 1513POPC   GL223078  41.368  32.455   9.226
 1513POPC   C1A23079  41.531  32.082   8.785
 1513POPC   D2A23080  41.411  32.090   8.371
 1513POPC   C3A23081  41.629  32.122   7.994
 1513POPC   C4A23082  41.389  31.957   7.681
 1513POPC   C1B23083  41.584  32.593   8.883
 1513POPC   C2B23084  41.499  32.607   8.443
 1513POPC   C3B23085  41.650  32.617   8.027
 1513POPC   C4B23086  41.460  32.535   7.640
 1514POPC   NC323087  40.041  31.949   9.414
 1514POPC   PO423088  40.493  32.483   9.614
 1514POPC   GL123089  40.398  32.305   9.230
 1514POPC   GL223090  40.086  32.510   9.223
 1514POPC   C1A23091  40.231  32.249   8.808
 1514POPC   D2A23092  40.003  32.292   8.417
 1514POPC   C3A23093  40.153  32.048   8.045
 1514POPC   C4A23094  39.857  31.911   7.739
 1514POPC   C1B23095  39.803  32.520   8.843
 1514POPC   C2B23096  39.535  32.702   8.543
 1514POPC   C3B23097  39.633  32.730   8.129
 1514POPC   C4B23098  39.769  32.364   7.946
 1515POPC   NC323099  17.619  38.854   9.309
 1515POPC   PO423100  17.337  39.429   9.530
 1515POPC   GL123101  17.420  39.295   9.136
 1515POPC   GL223102  17.208  38.996   9.059
 1515POPC   C1A23103  17.442  39.468   8.749
 1515POPC   D2A23104  17.298  39.336   8.360
 1515POPC   C3A23105  17.571  39.491   8.072
 1515POPC   C4A23106  17.727  39.365   7.712
 1515POPC   C1B23107  17.469  38.913   8.675
 1515POPC   C2B23108  17.582  38.944   8.218
 1515POPC   C3B23109  17.334  39.074   7.874
 1515POPC   C4B23110  17.217  38.897   7.500
 1516POPC   NC323111  11.602  29.122   9.566
 1516POPC   PO423112  11.762  29.754   9.347
 1516POPC   GL123113  11.500  29.386   9.128
 1516POPC   GL223114  11.179  29.201   9.180
 1516POPC   C1A23115  11.470  29.075   8.766
 1516POPC   D2A23116  11.207  28.897   8.420
 1516POPC   C3A23117  11.292  29.038   8.006
 1516POPC   C4A23118  11.640  28.927   7.778
 1516POPC   C1B23119  10.996  29.281   8.727
 1516POPC   C2B23120  11.032  29.442   8.277
 1516POPC   C3B23121  11.079  29.457   7.798
 1516POPC   C4B23122  11.024  29.429   7.321
 1517POPC   NC323123  28.984  35.803   9.282
 1517POPC   PO423124  28.968  35.190   9.499
 1517POPC   GL123125  29.073  35.325   9.081
 1517POPC   GL223126  29.353  35.548   9.029
 1517POPC   C1A23127  28.930  35.509   8.680
 1517POPC   D2A23128  29.090  35.831   8.401
 1517POPC   C3A23129  29.280  35.617   8.045
 1517POPC   C4A23130  29.125  35.561   7.646
 1517POPC   C1B23131  29.562  35.363   8.651
 1517POPC   C2B23132  29.521  34.969   8.402
 1517POPC   C3B23133  29.281  35.021   7.996
 1517POPC   C4B23134  29.265  35.004   7.539
 1518POPC   NC323135   7.439  43.600   9.470
 1518POPC   PO423136   7.603  44.288   9.375
 1518POPC   GL123137   7.527  43.928   9.091
 1518POPC   GL223138   7.200  43.926   9.096
 1518POPC   C1A23139   7.346  43.724   8.672
 1518POPC   D2A23140   7.113  43.673   8.294
 1518POPC   C3A23141   7.283  43.706   7.852
 1518POPC   C4A23142   7.547  43.705   7.495
 1518POPC   C1B23143   7.225  44.204   8.787
 1518POPC   C2B23144   7.269  44.252   8.400
 1518POPC   C3B23145   7.106  44.141   8.042
 1518POPC   C4B23146   7.303  44.222   7.681
 1519POPC   NC323147  40.575  43.140   9.473
 1519POPC   PO423148  41.220  42.900   9.398
 1519POPC   GL123149  40.948  43.157   9.121
 1519POPC   GL223150  40.623  43.402   9.020
 1519POPC   C1A23151  40.839  43.046   8.743
 1519POPC   D2A23152  40.980  42.912   8.383
 1519POPC   C3A23153  40.815  43.043   8.016
 1519POPC   C4A23154  40.997  42.867   7.715
 1519POPC   C1B23155  41.020  43.525   8.758
 1519POPC   C2B23156  41.096  43.404   8.278
 1519POPC   C3B23157  41.017  43.491   7.801
 1519POPC   C4B23158  41.101  43.657   7.339
 1520POPC   NC323159  11.192  25.721   9.466
 1520POPC   PO423160  11.533  25.163   9.220
 1520POPC   GL123161  11.371  25.499   9.003
 1520POPC   GL223162  11.027  25.555   9.032
 1520POPC   C1A23163  11.527  25.641   8.604
 1520POPC   D2A23164  11.599  25.483   8.168
 1520POPC   C3A23165  11.636  25.014   8.087
 1520POPC   C4A23166  11.374  24.759   7.810
 1520POPC   C1B23167  10.940  25.349   8.688
 1520POPC   C2B23168  10.943  25.105   8.333
 1520POPC   C3B23169  11.161  25.208   7.971
 1520POPC   C4B23170  11.049  25.298   7.570
 1521POPC   NC323171  15.138  42.796   9.371
 1521POPC   PO423172  15.310  43.346   9.661
 1521POPC   GL123173  15.373  43.208   9.184
 1521POPC   GL223174  15.093  43.085   8.965
 1521POPC   C1A23175  15.487  43.272   8.717
 1521POPC   D2A23176  15.202  43.123   8.361
 1521POPC   C3A23177  15.279  43.309   7.948
 1521POPC   C4A23178  15.437  43.437   7.530
 1521POPC   C1B23179  14.913  42.760   8.684
 1521POPC   C2B23180  14.930  42.656   8.244
 1521POPC   C3B23181  15.253  42.778   7.946
 1521POPC   C4B23182  15.185  42.985   7.558
 1522POPC   NC323183  36.269  25.556   9.437
 1522POPC   PO423184  35.816  25.022   9.466
 1522POPC   GL123185  36.058  25.198   9.170
 1522POPC   GL223186  35.856  25.496   9.164
 1522POPC   C1A23187  36.163  25.385   8.765
 1522POPC   D2A23188  35.929  25.211   8.417
 1522POPC   C3A23189  36.145  25.114   8.072
 1522POPC   C4A23190  36.259  25.333   7.740
 1522POPC   C1B23191  35.754  25.682   8.768
 1522POPC   C2B23192  35.967  25.709   8.390
 1522POPC   C3B23193  35.815  25.510   8.000
 1522POPC   C4B23194  35.824  25.606   7.565
 1523POPC   NC323195  35.723   6.500   9.502
 1523POPC   PO423196  35.074   6.513   9.541
 1523POPC   GL123197  35.266   6.792   9.199
 1523POPC   GL223198  35.651   6.796   9.110
 1523POPC   C1A23199  35.316   6.768   8.732
 1523POPC   D2A23200  35.471   7.007   8.377
 1523POPC   C3A23201  35.255   6.844   8.023
 1523POPC   C4A23202  35.239   6.789   7.585
 1523POPC   C1B23203  35.861   6.923   8.740
 1523POPC   C2B23204  35.973   6.828   8.309
 1523POPC   C3B23205  35.747   6.759   7.920
 1523POPC   C4B23206  35.725   6.506   7.542
 1524POPC   NC323207  18.672  30.143   9.519
 1524POPC   PO423208  19.291  29.987   9.553
 1524POPC   GL123209  19.061  30.001   9.175
 1524POPC   GL223210  19.315  29.799   9.069
 1524POPC   C1A23211  18.952  29.796   8.738
 1524POPC   D2A23212  18.815  29.662   8.324
 1524POPC   C3A23213  19.049  29.778   7.979
 1524POPC   C4A23214  18.964  29.802   7.584
 1524POPC   C1B23215  19.399  30.078   8.784
 1524POPC   C2B23216  19.315  29.974   8.382
 1524POPC   C3B23217  19.367  30.200   8.023
 1524POPC   C4B23218  19.376  30.410   7.634
 1525POPC   NC323219  20.437  22.068   9.478
 1525POPC   PO423220  21.101  22.118   9.519
 1525POPC   GL123221  20.817  22.054   9.145
 1525POPC   GL223222  20.527  22.301   9.030
 1525POPC   C1A23223  20.780  22.008   8.701
 1525POPC   D2A23224  20.483  22.177   8.448
 1525POPC   C3A23225  20.358  21.845   8.195
 1525POPC   C4A23226  20.564  21.878   7.840
 1525POPC   C1B23227  20.376  22.650   8.735
 1525POPC   C2B23228  20.189  22.592   8.328
 1525POPC   C3B23229  20.228  22.310   7.999
 1525POPC   C4B23230  20.510  22.355   7.681
 1526POPC   NC323231   3.385  20.755   9.621
 1526POPC   PO423232   3.509  20.117   9.654
 1526POPC   GL123233   3.526  20.468   9.234
 1526POPC   GL223234   3.808  20.756   9.311
 1526POPC   C1A23235   3.363  20.446   8.765
 1526POPC   D2A23236   3.201  20.377   8.331
 1526POPC   C3A23237   3.396  20.561   7.982
 1526POPC   C4A23238   3.821  20.441   7.842
 1526POPC   C1B23239   3.693  20.794   8.894
 1526POPC   C2B23240   3.670  20.808   8.412
 1526POPC   C3B23241   3.709  20.954   7.970
 1526POPC   C4B23242   3.743  20.846   7.523
 1527POPC   NC323243   1.890  22.808   9.721
 1527POPC   PO423244   1.246  22.749   9.759
 1527POPC   GL123245   1.159  22.834   9.327
 1527POPC   GL223246   0.912  22.606   9.227
 1527POPC   C1A23247   1.134  22.903   8.867
 1527POPC   D2A23248   1.334  22.675   8.520
 1527POPC   C3A23249   1.364  22.827   8.093
 1527POPC   C4A23250   1.095  23.042   7.777
 1527POPC   C1B23251   0.914  22.449   8.755
 1527POPC   C2B23252   0.933  22.437   8.285
 1527POPC   C3B23253   1.041  22.530   7.848
 1527POPC   C4B23254   0.882  22.605   7.416
 1528POPC   NC323255  33.477  29.024   9.428
 1528POPC   PO423256  33.780  29.728   9.489
 1528POPC   GL123257  33.606  29.478   9.193
 1528POPC   GL223258  33.893  29.264   9.226
 1528POPC   C1A23259  33.603  29.202   8.813
 1528POPC   D2A23260  33.919  28.990   8.574
 1528POPC   C3A23261  33.820  28.877   8.135
 1528POPC   C4A23262  33.887  28.919   7.693
 1528POPC   C1B23263  34.033  29.465   8.830
 1528POPC   C2B23264  33.857  29.480   8.389
 1528POPC   C3B23265  34.015  29.364   7.961
 1528POPC   C4B23266  34.064  29.587   7.537
 1529POPC   NC323267  31.672  29.441   9.250
 1529POPC   PO423268  32.206  29.034   9.471
 1529POPC   GL123269  32.286  28.989   9.076
 1529POPC   GL223270  32.096  29.259   9.020
 1529POPC   C1A23271  32.615  28.968   8.784
 1529POPC   D2A23272  32.717  28.951   8.395
 1529POPC   C3A23273  32.360  28.950   8.169
 1529POPC   C4A23274  32.243  28.976   7.769
 1529POPC   C1B23275  32.143  29.197   8.607
 1529POPC   C2B23276  32.427  29.396   8.406
 1529POPC   C3B23277  32.419  29.560   8.068
 1529POPC   C4B23278  32.361  29.454   7.713
 1530POPC   NC323279  26.237  36.764   9.627
 1530POPC   PO423280  26.889  36.498   9.555
 1530POPC   GL123281  26.919  36.658   9.124
 1530POPC   GL223282  26.690  36.455   8.903
 1530POPC   C1A23283  26.846  36.889   8.701
 1530POPC   D2A23284  26.868  36.710   8.273
 1530POPC   C3A23285  26.629  36.840   7.921
 1530POPC   C4A23286  26.332  37.200   7.835
 1530POPC   C1B23287  27.079  36.432   8.691
 1530POPC   C2B23288  27.277  36.409   8.308
 1530POPC   C3B23289  27.191  36.523   7.888
 1530POPC   C4B23290  26.968  36.652   7.498
 1531POPC   NC323291  26.808  43.602   9.415
 1531POPC   PO423292  26.987  42.908   9.458
 1531POPC   GL123293  26.705  43.097   9.153
 1531POPC   GL223294  26.989  43.279   9.053
 1531POPC   C1A23295  26.676  43.102   8.682
 1531POPC   D2A23296  26.937  43.323   8.418
 1531POPC   C3A23297  26.816  43.407   7.988
 1531POPC   C4A23298  26.515  43.178   7.748
 1531POPC   C1B23299  27.132  42.911   8.791
 1531POPC   C2B23300  27.204  42.794   8.375
 1531POPC   C3B23301  26.880  42.899   8.093
 1531POPC   C4B23302  26.977  42.977   7.722
 1532POPC   NC323303   6.510  12.500   9.468
 1532POPC   PO423304   6.117  13.021   9.357
 1532POPC   GL123305   6.324  12.791   9.079
 1532POPC   GL223306   6.654  12.895   9.160
 1532POPC   C1A23307   6.454  12.962   8.698
 1532POPC   D2A23308   6.618  12.817   8.318
 1532POPC   C3A23309   6.811  13.115   8.055
 1532POPC   C4A23310   6.551  13.229   7.735
 1532POPC   C1B23311   6.809  12.608   8.800
 1532POPC   C2B23312   6.978  12.459   8.416
 1532POPC   C3B23313   6.794  12.413   8.015
 1532POPC   C4B23314   6.880  12.739   7.719
 1533POPC   NC323315  29.004   0.588   9.702
 1533POPC   PO423316  29.395   0.109   9.858
 1533POPC   GL123317  29.301   0.373   9.351
 1533POPC   GL223318  28.988   0.600   9.195
 1533POPC   C1A23319  29.246   0.329   8.841
 1533POPC   D2A23320  28.993   0.502   8.454
 1533POPC   C3A23321  29.119   0.395   8.023
 1533POPC   C4A23322  28.980   0.307   7.577
 1533POPC   C1B23323  29.185   0.827   8.836
 1533POPC   C2B23324  29.391   0.822   8.428
 1533POPC   C3B23325  29.129   0.913   8.097
 1533POPC   C4B23326  29.015   0.791   7.696
 1534POPC   NC323327  12.587  16.648   9.443
 1534POPC   PO423328  13.178  16.284   9.593
 1534POPC   GL123329  13.144  16.440   9.146
 1534POPC   GL223330  12.804  16.392   9.034
 1534POPC   C1A23331  13.151  16.657   8.704
 1534POPC   D2A23332  12.918  16.899   8.330
 1534POPC   C3A23333  12.942  16.830   7.848
 1534POPC   C4A23334  13.079  17.087   7.470
 1534POPC   C1B23335  12.640  16.767   8.796
 1534POPC   C2B23336  12.454  16.692   8.419
 1534POPC   C3B23337  12.424  16.837   7.997
 1534POPC   C4B23338  12.501  16.652   7.570
 1535POPC   NC323339  43.751  23.672   9.692
 1535POPC   PO423340  44.107  24.244   9.748
 1535POPC   GL123341  44.031  23.880   9.336
 1535POPC   GL223342  43.717  23.782   9.201
 1535POPC   C1A23343  44.048  23.783   8.841
 1535POPC   D2A23344  44.135  23.922   8.428
 1535POPC   C3A23345  44.079  23.617   8.135
 1535POPC   C4A23346  43.857  23.567   7.748
 1535POPC   C1B23347  43.582  23.506   8.867
 1535POPC   C2B23348  43.700  23.612   8.486
 1535POPC   C3B23349  43.519  23.654   8.135
 1535POPC   C4B23350  43.402  23.345   7.839
 1536POPC   NC323351  13.360  35.036   9.362
 1536POPC   PO423352  13.756  35.557   9.632
 1536POPC   GL123353  13.590  35.485   9.189
 1536POPC   GL223354  13.474  35.770   8.957
 1536POPC   C1A23355  13.599  35.267   8.767
 1536POPC   D2A23356  13.657  35.069   8.317
 1536POPC   C3A23357  13.809  35.265   7.896
 1536POPC   C4A23358  13.984  35.126   7.478
 1536POPC   C1B23359  13.899  35.703   8.833
 1536POPC   C2B23360  13.868  35.543   8.432
 1536POPC   C3B23361  13.613  35.672   8.131
 1536POPC   C4B23362  13.828  35.799   7.751
 1537POPC   NC323363   7.553   9.268   9.199
 1537POPC   PO423364   7.445   8.671   9.508
 1537POPC   GL123365   7.217   8.880   9.178
 1537POPC   GL223366   7.490   8.769   8.990
 1537POPC   C1A23367   7.085   8.983   8.736
 1537POPC   D2A23368   7.207   8.942   8.290
 1537POPC   C3A23369   7.308   9.102   7.889
 1537POPC   C4A23370   7.551   8.845   7.640
 1537POPC   C1B23371   7.614   8.991   8.618
 1537POPC   C2B23372   7.721   8.991   8.206
 1537POPC   C3B23373   7.857   9.228   7.875
 1537POPC   C4B23374   7.769   9.281   7.456
 1538POPC   NC323375  28.832   2.325   9.485
 1538POPC   PO423376  29.373   1.947   9.753
 1538POPC   GL123377  29.351   1.838   9.219
 1538POPC   GL223378  28.972   1.909   9.181
 1538POPC   C1A23379  29.210   1.808   8.747
 1538POPC   D2A23380  28.901   1.784   8.413
 1538POPC   C3A23381  29.098   1.921   8.023
 1538POPC   C4A23382  29.413   1.692   7.799
 1538POPC   C1B23383  28.824   2.197   8.841
 1538POPC   C2B23384  28.680   2.229   8.448
 1538POPC   C3B23385  28.816   2.349   8.066
 1538POPC   C4B23386  28.780   2.302   7.636
 1539POPC   NC323387  25.994   8.826   9.536
 1539POPC   PO423388  26.419   9.356   9.485
 1539POPC   GL123389  26.154   9.130   9.168
 1539POPC   GL223390  26.186   8.776   9.040
 1539POPC   C1A23391  25.844   9.091   8.832
 1539POPC   D2A23392  25.988   8.759   8.545
 1539POPC   C3A23393  25.942   8.710   8.118
 1539POPC   C4A23394  25.907   8.948   7.772
 1539POPC   C1B23395  26.347   9.086   8.709
 1539POPC   C2B23396  26.568   9.167   8.348
 1539POPC   C3B23397  26.372   9.141   7.943
 1539POPC   C4B23398  26.399   8.763   7.683
 1540POPC   NC323399  32.721  38.616   9.459
 1540POPC   PO423400  32.157  38.242   9.462
 1540POPC   GL123401  32.310  38.441   9.124
 1540POPC   GL223402  32.002  38.656   9.067
 1540POPC   C1A23403  32.519  38.282   8.747
 1540POPC   D2A23404  32.479  38.371   8.320
 1540POPC   C3A23405  32.297  38.099   8.009
 1540POPC   C4A23406  32.179  38.185   7.584
 1540POPC   C1B23407  32.271  38.748   8.711
 1540POPC   C2B23408  32.543  38.887   8.382
 1540POPC   C3B23409  32.350  38.774   8.017
 1540POPC   C4B23410  31.927  38.676   7.935
 1541POPC   NC323411  23.926  38.983   9.460
 1541POPC   PO423412  23.481  39.484   9.695
 1541POPC   GL123413  23.479  39.325   9.289
 1541POPC   GL223414  23.127  39.440   9.213
 1541POPC   C1A23415  23.744  39.345   8.901
 1541POPC   D2A23416  24.012  39.131   8.561
 1541POPC   C3A23417  23.879  39.230   8.141
 1541POPC   C4A23418  23.724  39.026   7.789
 1541POPC   C1B23419  23.251  39.189   8.853
 1541POPC   C2B23420  23.475  39.161   8.470
 1541POPC   C3B23421  23.342  39.302   8.056
 1541POPC   C4B23422  23.381  39.413   7.627
 1542POPC   NC323423  38.175  39.631   9.445
 1542POPC   PO423424  38.315  40.266   9.605
 1542POPC   GL123425  38.569  40.349   9.223
 1542POPC   GL223426  38.650  40.008   9.144
 1542POPC   C1A23427  38.386  40.320   8.788
 1542POPC   D2A23428  38.510  40.270   8.364
 1542POPC   C3A23429  38.191  40.166   8.049
 1542POPC   C4A23430  38.270  39.945   7.685
 1542POPC   C1B23431  38.828  39.751   8.846
 1542POPC   C2B23432  38.720  39.785   8.437
 1542POPC   C3B23433  38.669  39.884   8.011
 1542POPC   C4B23434  38.714  39.739   7.582
 1543POPC   NC323435  15.178   4.832   9.670
 1543POPC   PO423436  15.415   5.437   9.800
 1543POPC   GL123437  15.362   5.248   9.320
 1543POPC   GL223438  15.117   4.978   9.180
 1543POPC   C1A23439  15.484   5.064   8.864
 1543POPC   D2A23440  15.315   4.916   8.455
 1543POPC   C3A23441  15.443   5.049   8.065
 1543POPC   C4A23442  15.344   5.317   7.740
 1543POPC   C1B23443  14.917   5.004   8.797
 1543POPC   C2B23444  14.797   4.988   8.399
 1543POPC   C3B23445  14.928   5.086   8.017
 1543POPC   C4B23446  14.780   5.325   7.706
 1544POPC   NC323447  44.221  20.741   9.606
 1544POPC   PO423448  44.759  20.410   9.500
 1544POPC   GL123449  44.597  20.605   9.157
 1544POPC   GL223450  44.443  20.914   9.167
 1544POPC   C1A23451  44.638  20.439   8.746
 1544POPC   D2A23452  44.423  20.351   8.397
 1544POPC   C3A23453  44.608  20.441   8.023
 1544POPC   C4A23454  44.382  20.440   7.636
 1544POPC   C1B23455  44.681  20.955   8.798
 1544POPC   C2B23456  44.720  20.806   8.388
 1544POPC   C3B23457  44.471  20.937   8.062
 1544POPC   C4B23458  44.639  20.853   7.681
 1545POPC   NC323459  15.615   5.709   9.470
 1545POPC   PO423460  16.178   5.802   9.839
 1545POPC   GL123461  16.147   5.997   9.308
 1545POPC   GL223462  15.805   6.068   9.136
 1545POPC   C1A23463  16.108   5.850   8.793
 1545POPC   D2A23464  16.122   5.541   8.414
 1545POPC   C3A23465  16.106   5.706   7.976
 1545POPC   C4A23466  16.017   6.067   7.707
 1545POPC   C1B23467  15.596   5.758   8.835
 1545POPC   C2B23468  15.611   5.424   8.521
 1545POPC   C3B23469  15.622   5.542   8.106
 1545POPC   C4B23470  15.466   5.806   7.763
 1546POPC   NC323471  26.632  16.104   9.536
 1546POPC   PO423472  27.096  15.607   9.671
 1546POPC   GL123473  27.004  15.979   9.242
 1546POPC   GL223474  26.643  16.048   9.036
 1546POPC   C1A23475  27.080  16.198   8.866
 1546POPC   D2A23476  26.815  16.229   8.486
 1546POPC   C3A23477  26.891  15.956   8.154
 1546POPC   C4A23478  26.776  16.027   7.752
 1546POPC   C1B23479  26.480  15.847   8.626
 1546POPC   C2B23480  26.374  15.607   8.264
 1546POPC   C3B23481  26.502  15.618   7.866
 1546POPC   C4B23482  26.518  15.737   7.423
 1547POPC   NC323483  26.288  21.835   9.628
 1547POPC   PO423484  25.791  22.169   9.401
 1547POPC   GL123485  25.979  22.008   9.055
 1547POPC   GL223486  26.328  21.954   9.131
 1547POPC   C1A23487  25.985  22.144   8.631
 1547POPC   D2A23488  26.117  22.375   8.269
 1547POPC   C3A23489  25.946  22.172   7.921
 1547POPC   C4A23490  26.148  21.969   7.553
 1547POPC   C1B23491  26.294  21.736   8.737
 1547POPC   C2B23492  26.347  21.885   8.327
 1547POPC   C3B23493  26.468  22.074   7.970
 1547POPC   C4B23494  26.627  22.119   7.557
 1548POPC   NC323495  41.962  19.926   9.605
 1548POPC   PO423496  42.493  19.624   9.324
 1548POPC   GL123497  42.247  19.938   9.128
 1548POPC   GL223498  41.998  19.725   9.143
 1548POPC   C1A23499  42.413  20.066   8.736
 1548POPC   D2A23500  42.631  20.036   8.316
 1548POPC   C3A23501  42.357  20.024   7.938
 1548POPC   C4A23502  42.458  20.001   7.522
 1548POPC   C1B23503  42.090  19.577   8.747
 1548POPC   C2B23504  42.213  19.706   8.351
 1548POPC   C3B23505  42.189  19.528   7.960
 1548POPC   C4B23506  41.887  19.423   7.725
 1549POPC   NC323507  44.795  27.137   9.362
 1549POPC   PO423508  44.286  26.709   9.600
 1549POPC   GL123509  44.399  26.638   9.177
 1549POPC   GL223510  44.729  26.619   9.186
 1549POPC   C1A23511  44.494  26.812   8.750
 1549POPC   D2A23512  44.659  26.661   8.344
 1549POPC   C3A23513  44.660  26.918   7.988
 1549POPC   C4A23514  44.318  26.710   7.840
 1549POPC   C1B23515  44.934  26.604   8.805
 1549POPC   C2B23516   0.034  26.948   8.509
 1549POPC   C3B23517   0.178  26.695   8.180
 1549POPC   C4B23518  44.916  26.472   7.882
 1550POPC   NC323519  43.475   5.001   9.525
 1550POPC   PO423520  42.849   5.300   9.506
 1550POPC   GL123521  43.095   5.087   9.199
 1550POPC   GL223522  43.414   5.247   9.076
 1550POPC   C1A23523  43.027   5.010   8.782
 1550POPC   D2A23524  43.067   4.983   8.354
 1550POPC   C3A23525  42.845   5.228   8.069
 1550POPC   C4A23526  42.903   4.988   7.716
 1550POPC   C1B23527  43.600   5.299   8.654
 1550POPC   C2B23528  43.657   5.389   8.201
 1550POPC   C3B23529  43.345   5.243   7.938
 1550POPC   C4B23530  43.365   5.108   7.572
 1551POPC   NC323531  12.531   2.614   9.531
 1551POPC   PO423532  13.083   2.982   9.493
 1551POPC   GL123533  12.998   2.792   9.128
 1551POPC   GL223534  12.640   2.774   9.052
 1551POPC   C1A23535  12.996   2.822   8.700
 1551POPC   D2A23536  12.845   2.624   8.358
 1551POPC   C3A23537  12.943   2.838   7.994
 1551POPC   C4A23538  13.204   2.731   7.669
 1551POPC   C1B23539  12.545   2.464   8.747
 1551POPC   C2B23540  12.544   2.215   8.337
 1551POPC   C3B23541  12.502   2.479   7.966
 1551POPC   C4B23542  12.715   2.559   7.616
 1552POPC   NC323543  18.065  43.504   9.417
 1552POPC   PO423544  18.372  44.112   9.562
 1552POPC   GL123545  18.286  43.875   9.155
 1552POPC   GL223546  18.514  43.543   9.161
 1552POPC   C1A23547  18.105  43.971   8.735
 1552POPC   D2A23548  17.962  43.844   8.312
 1552POPC   C3A23549  18.217  43.923   7.935
 1552POPC   C4A23550  18.576  44.155   7.763
 1552POPC   C1B23551  18.535  43.690   8.750
 1552POPC   C2B23552  18.453  43.637   8.357
 1552POPC   C3B23553  18.695  43.681   8.002
 1552POPC   C4B23554  18.675  43.577   7.597
 1553POPC   NC323555  24.376  31.146   9.566
 1553POPC   PO423556  23.786  30.785   9.490
 1553POPC   GL123557  23.840  30.741   9.083
 1553POPC   GL223558  24.107  30.481   9.100
 1553POPC   C1A23559  23.654  30.970   8.720
 1553POPC   D2A23560  23.278  31.090   8.445
 1553POPC   C3A23561  23.254  30.846   8.014
 1553POPC   C4A23562  23.335  30.432   7.727
 1553POPC   C1B23563  23.929  30.475   8.662
 1553POPC   C2B23564  24.061  30.781   8.340
 1553POPC   C3B23565  24.128  30.667   7.911
 1553POPC   C4B23566  23.857  30.334   7.747
 1554POPC   NC323567  43.067  36.742   9.416
 1554POPC   PO423568  43.452  37.225   9.275
 1554POPC   GL123569  43.195  37.009   8.974
 1554POPC   GL223570  42.846  37.043   9.038
 1554POPC   C1A23571  42.972  36.663   8.728
 1554POPC   D2A23572  43.093  36.508   8.332
 1554POPC   C3A23573  43.204  36.871   8.140
 1554POPC   C4A23574  43.327  36.855   7.738
 1554POPC   C1B23575  42.893  37.220   8.627
 1554POPC   C2B23576  42.994  37.357   8.215
 1554POPC   C3B23577  42.895  37.141   7.823
 1554POPC   C4B23578  43.085  37.146   7.403
 1555POPC   NC323579  10.964  26.676   9.475
 1555POPC   PO423580  10.409  27.096   9.619
 1555POPC   GL123581  10.504  26.834   9.237
 1555POPC   GL223582  10.701  26.547   9.068
 1555POPC   C1A23583  10.516  26.949   8.789
 1555POPC   D2A23584  10.642  26.676   8.483
 1555POPC   C3A23585  10.698  26.920   8.121
 1555POPC   C4A23586  10.647  26.968   7.702
 1555POPC   C1B23587  10.290  26.510   8.870
 1555POPC   C2B23588  10.177  26.446   8.444
 1555POPC   C3B23589  10.361  26.549   8.048
 1555POPC   C4B23590  10.798  26.484   7.874
 1556POPC   NC323591  10.070   5.835   9.410
 1556POPC   PO423592  10.601   6.214   9.646
 1556POPC   GL123593  10.560   5.823   9.231
 1556POPC   GL223594  10.860   5.644   9.123
 1556POPC   C1A23595  10.381   5.719   8.814
 1556POPC   D2A23596  10.479   5.831   8.388
 1556POPC   C3A23597  10.571   6.037   8.004
 1556POPC   C4A23598  10.452   5.877   7.559
 1556POPC   C1B23599  10.810   5.493   8.691
 1556POPC   C2B23600  10.889   5.567   8.288
 1556POPC   C3B23601  10.791   5.597   7.853
 1556POPC   C4B23602  10.982   5.670   7.442
 1557POPC   NC323603   1.070  35.963   9.466
 1557POPC   PO423604   1.492  36.407   9.510
 1557POPC   GL123605   1.315  36.242   9.127
 1557POPC   GL223606   0.922  36.245   9.088
 1557POPC   C1A23607   1.517  36.076   8.745
 1557POPC   D2A23608   1.691  36.027   8.317
 1557POPC   C3A23609   1.445  36.058   7.956
 1557POPC   C4A23610   1.225  35.699   7.735
 1557POPC   C1B23611   1.034  36.297   8.677
 1557POPC   C2B23612   1.019  36.180   8.243
 1557POPC   C3B23613   0.967  36.194   7.806
 1557POPC   C4B23614   0.916  36.406   7.410
 1558POPC   NC323615   9.511   0.031   9.370
 1558POPC   PO423616  10.076  44.670   9.592
 1558POPC   GL123617   9.794  44.617   9.220
 1558POPC   GL223618   9.881  44.896   9.005
 1558POPC   C1A23619   9.740  44.453   8.776
 1558POPC   D2A23620   9.775  44.751   8.401
 1558POPC   C3A23621   9.766  44.585   7.996
 1558POPC   C4A23622  10.108  44.350   7.790
 1558POPC   C1B23623   9.449  44.849   8.791
 1558POPC   C2B23624   9.281  44.836   8.413
 1558POPC   C3B23625   9.391   0.036   8.051
 1558POPC   C4B23626   9.638   0.071   7.697
 1559POPC   NC323627  18.544   7.148   9.522
 1559POPC   PO423628  18.196   6.634   9.515
 1559POPC   GL123629  18.104   6.645   9.104
 1559POPC   GL223630  18.037   7.002   9.151
 1559POPC   C1A23631  18.223   6.497   8.712
 1559POPC   D2A23632  18.188   6.707   8.336
 1559POPC   C3A23633  18.393   6.542   7.974
 1559POPC   C4A23634  18.211   6.499   7.563
 1559POPC   C1B23635  17.938   7.004   8.701
 1559POPC   C2B23636  17.868   7.128   8.251
 1559POPC   C3B23637  18.026   6.897   7.889
 1559POPC   C4B23638  18.387   6.959   7.660
 1560POPC   NC323639   2.633  15.365   9.526
 1560POPC   PO423640   3.279  15.157   9.442
 1560POPC   GL123641   2.953  15.264   9.153
 1560POPC   GL223642   2.676  14.979   9.190
 1560POPC   C1A23643   2.819  15.450   8.781
 1560POPC   D2A23644   3.007  15.634   8.440
 1560POPC   C3A23645   3.143  15.342   8.142
 1560POPC   C4A23646   2.826  15.384   7.833
 1560POPC   C1B23647   2.866  14.926   8.796
 1560POPC   C2B23648   2.754  15.123   8.387
 1560POPC   C3B23649   2.807  14.917   8.006
 1560POPC   C4B23650   2.908  14.639   7.686
 1561POPC   NC323651  20.757  11.478   9.529
 1561POPC   PO423652  20.557  10.851   9.628
 1561POPC   GL123653  20.730  11.052   9.250
 1561POPC   GL223654  20.457  11.314   9.161
 1561POPC   C1A23655  20.854  11.215   8.853
 1561POPC   D2A23656  20.622  11.133   8.500
 1561POPC   C3A23657  20.763  11.187   8.109
 1561POPC   C4A23658  20.892  11.189   7.709
 1561POPC   C1B23659  20.335  11.470   8.769
 1561POPC   C2B23660  20.395  11.550   8.326
 1561POPC   C3B23661  20.300  11.349   7.950
 1561POPC   C4B23662  20.324  11.470   7.542
 1562POPC   NC323663  40.549  39.866   9.529
 1562POPC   PO423664  41.031  40.241   9.511
 1562POPC   GL123665  40.816  40.019   9.126
 1562POPC   GL223666  40.443  40.085   9.094
 1562POPC   C1A23667  40.711  40.027   8.663
 1562POPC   D2A23668  40.436  39.799   8.429
 1562POPC   C3A23669  40.564  39.864   8.044
 1562POPC   C4A23670  40.834  39.995   7.721
 1562POPC   C1B23671  40.307  40.299   8.743
 1562POPC   C2B23672  40.385  40.323   8.297
 1562POPC   C3B23673  40.412  40.309   7.825
 1562POPC   C4B23674  40.360  39.925   7.571
 1563POPC   NC323675  31.241  27.926   9.637
 1563POPC   PO423676  31.543  28.549   9.534
 1563POPC   GL123677  31.641  28.330   9.153
 1563POPC   GL223678  31.507  27.993   9.179
 1563POPC   C1A23679  31.673  28.345   8.694
 1563POPC   D2A23680  31.393  28.634   8.472
 1563POPC   C3A23681  31.325  28.792   8.069
 1563POPC   C4A23682  31.484  28.545   7.752
 1563POPC   C1B23683  31.208  28.147   8.851
 1563POPC   C2B23684  31.085  28.236   8.423
 1563POPC   C3B23685  31.346  28.189   8.059
 1563POPC   C4B23686  31.415  27.976   7.654
 1564POPC   NC323687   2.517   4.774   9.490
 1564POPC   PO423688   2.030   5.197   9.587
 1564POPC   GL123689   2.289   5.349   9.210
 1564POPC   GL223690   2.627   5.176   9.170
 1564POPC   C1A23691   2.435   5.366   8.750
 1564POPC   D2A23692   2.695   5.342   8.360
 1564POPC   C3A23693   2.563   5.246   7.939
 1564POPC   C4A23694   2.636   4.902   7.627
 1564POPC   C1B23695   2.886   5.084   8.775
 1564POPC   C2B23696   2.958   4.911   8.344
 1564POPC   C3B23697   3.063   5.074   7.921
 1564POPC   C4B23698   3.156   4.923   7.478
 1565POPC   NC323699  38.583  43.379   9.666
 1565POPC   PO423700  38.467  42.758   9.596
 1565POPC   GL123701  38.593  42.892   9.191
 1565POPC   GL223702  38.721  43.200   9.216
 1565POPC   C1A23703  38.420  43.099   8.819
 1565POPC   D2A23704  38.156  43.130   8.458
 1565POPC   C3A23705  38.359  43.109   8.033
 1565POPC   C4A23706  38.670  42.858   7.816
 1565POPC   C1B23707  38.926  43.280   8.821
 1565POPC   C2B23708  38.770  43.193   8.432
 1565POPC   C3B23709  38.929  43.198   8.072
 1565POPC   C4B23710  38.894  43.320   7.675
 1566POPC   NC323711  21.111  37.664   9.624
 1566POPC   PO423712  21.787  37.409   9.590
 1566POPC   GL123713  21.568  37.662   9.213
 1566POPC   GL223714  21.217  37.642   9.144
 1566POPC   C1A23715  21.441  37.705   8.719
 1566POPC   D2A23716  21.612  37.984   8.402
 1566POPC   C3A23717  21.728  37.761   8.007
 1566POPC   C4A23718  21.405  37.599   7.719
 1566POPC   C1B23719  21.149  37.276   8.846
 1566POPC   C2B23720  21.321  37.180   8.471
 1566POPC   C3B23721  21.194  37.302   8.080
 1566POPC   C4B23722  21.203  37.115   7.670
 1567POPC   NC323723  24.384  34.101   9.431
 1567POPC   PO423724  24.695  34.702   9.397
 1567POPC   GL123725  24.400  34.606   9.095
 1567POPC   GL223726  24.200  34.327   9.011
 1567POPC   C1A23727  24.471  34.681   8.666
 1567POPC   D2A23728  24.471  34.515   8.265
 1567POPC   C3A23729  24.645  34.664   7.904
 1567POPC   C4A23730  24.797  34.321   7.629
 1567POPC   C1B23731  24.000  34.765   8.827
 1567POPC   C2B23732  24.034  34.947   8.420
 1567POPC   C3B23733  24.159  34.816   7.999
 1567POPC   C4B23734  24.230  34.721   7.570
 1568POPC   NC323735  44.223  28.654   9.510
 1568POPC   PO423736  44.430  29.238   9.392
 1568POPC   GL123737  44.351  28.942   9.089
 1568POPC   GL223738  44.622  28.756   9.156
 1568POPC   C1A23739  44.389  28.733   8.684
 1568POPC   D2A23740  44.468  28.835   8.229
 1568POPC   C3A23741  44.367  29.257   8.053
 1568POPC   C4A23742  44.529  29.550   7.736
 1568POPC   C1B23743  44.927  28.714   8.843
 1568POPC   C2B23744  44.962  28.600   8.416
 1568POPC   C3B23745  44.906  28.726   7.980
 1568POPC   C4B23746  44.842  29.139   7.800
 1569POPC   NC323747  38.159   4.554   9.766
 1569POPC   PO423748  38.294   3.986   9.627
 1569POPC   GL123749  38.329   4.360   9.294
 1569POPC   GL223750  38.688   4.406   9.179
 1569POPC   C1A23751  38.355   4.486   8.838
 1569POPC   D2A23752  38.566   4.303   8.447
 1569POPC   C3A23753  38.377   4.379   8.058
 1569POPC   C4A23754  38.385   4.012   7.758
 1569POPC   C1B23755  38.863   4.525   8.786
 1569POPC   C2B23756  39.011   4.665   8.384
 1569POPC   C3B23757  38.895   4.439   8.000
 1569POPC   C4B23758  38.601   4.435   7.611
 1570POPC   NC323759  18.518   7.828   9.318
 1570POPC   PO423760  18.250   8.357   9.636
 1570POPC   GL123761  18.242   8.224   9.163
 1570POPC   GL223762  17.951   8.002   9.114
 1570POPC   C1A23763  18.343   7.966   8.731
 1570POPC   D2A23764  18.592   8.049   8.359
 1570POPC   C3A23765  18.445   8.140   7.920
 1570POPC   C4A23766  18.411   7.918   7.526
 1570POPC   C1B23767  17.961   8.285   8.746
 1570POPC   C2B23768  18.089   8.196   8.333
 1570POPC   C3B23769  17.962   8.035   7.956
 1570POPC   C4B23770  18.022   8.265   7.594
 1571POPC   NC323771  19.691  43.209   9.506
 1571POPC   PO423772  20.190  42.741   9.502
 1571POPC   GL123773  19.942  42.928   9.168
 1571POPC   GL223774  19.618  42.867   9.044
 1571POPC   C1A23775  19.892  43.258   8.853
 1571POPC   D2A23776  20.086  43.327   8.465
 1571POPC   C3A23777  19.810  43.450   8.142
 1571POPC   C4A23778  19.694  43.273   7.781
 1571POPC   C1B23779  19.817  42.682   8.694
 1571POPC   C2B23780  19.809  42.556   8.243
 1571POPC   C3B23781  19.665  42.703   7.821
 1571POPC   C4B23782  19.756  42.608   7.334
 1572POPC   NC323783   4.523  37.818   9.924
 1572POPC   PO423784   4.046  37.431   9.630
 1572POPC   GL123785   4.189  37.725   9.300
 1572POPC   GL223786   4.390  37.469   9.193
 1572POPC   C1A23787   4.329  37.844   8.851
 1572POPC   D2A23788   4.391  37.946   8.394
 1572POPC   C3A23789   4.064  37.911   8.086
 1572POPC   C4A23790   4.005  38.185   7.751
 1572POPC   C1B23791   4.078  37.392   8.840
 1572POPC   C2B23792   4.088  37.493   8.391
 1572POPC   C3B23793   4.432  37.506   8.087
 1572POPC   C4B23794   4.493  37.873   7.824
 1573POPC   NC323795  34.530  16.981   9.651
 1573POPC   PO423796  35.074  16.536   9.425
 1573POPC   GL123797  34.740  16.619   9.133
 1573POPC   GL223798  34.386  16.598   9.230
 1573POPC   C1A23799  34.542  16.702   8.750
 1573POPC   D2A23800  34.279  16.509   8.480
 1573POPC   C3A23801  34.476  16.492   8.096
 1573POPC   C4A23802  34.594  16.737   7.760
 1573POPC   C1B23803  34.141  16.912   8.980
 1573POPC   C2B23804  34.175  17.010   8.563
 1573POPC   C3B23805  34.381  16.996   8.182
 1573POPC   C4B23806  34.175  17.028   7.768
 1574POPC   NC323807   3.154   9.541   9.620
 1574POPC   PO423808   3.622  10.034   9.559
 1574POPC   GL123809   3.580   9.702   9.214
 1574POPC   GL223810   3.864   9.481   9.120
 1574POPC   C1A23811   3.433   9.597   8.788
 1574POPC   D2A23812   3.361   9.500   8.338
 1574POPC   C3A23813   3.432   9.871   8.078
 1574POPC   C4A23814   3.216   9.836   7.726
 1574POPC   C1B23815   4.019   9.463   8.772
 1574POPC   C2B23816   3.828   9.703   8.460
 1574POPC   C3B23817   3.819   9.558   8.052
 1574POPC   C4B23818   3.721   9.709   7.644
 1575POPC   NC323819  40.944  28.781   9.423
 1575POPC   PO423820  40.911  29.425   9.364
 1575POPC   GL123821  40.609  29.104   9.193
 1575POPC   GL223822  40.817  28.853   8.953
 1575POPC   C1A23823  40.362  29.007   8.832
 1575POPC   D2A23824  40.610  28.827   8.477
 1575POPC   C3A23825  40.556  29.031   8.109
 1575POPC   C4A23826  40.518  29.077   7.648
 1575POPC   C1B23827  40.795  29.243   8.714
 1575POPC   C2B23828  40.969  29.283   8.317
 1575POPC   C3B23829  40.953  29.249   7.878
 1575POPC   C4B23830  40.981  29.136   7.434
 1576POPC   NC323831   9.174  16.128   9.827
 1576POPC   PO423832   9.771  15.852   9.558
 1576POPC   GL123833   9.621  15.819   9.142
 1576POPC   GL223834   9.817  16.092   9.076
 1576POPC   C1A23835   9.779  15.777   8.695
 1576POPC   D2A23836   9.939  16.139   8.466
 1576POPC   C3A23837   9.792  16.122   8.064
 1576POPC   C4A23838   9.886  15.933   7.715
 1576POPC   C1B23839   9.519  16.258   8.755
 1576POPC   C2B23840   9.489  16.462   8.336
 1576POPC   C3B23841   9.484  16.491   7.872
 1576POPC   C4B23842   9.513  16.213   7.533
 1577POPC   NC323843   9.761  18.862   9.417
 1577POPC   PO423844   9.805  19.428   9.776
 1577POPC   GL123845   9.598  19.329   9.273
 1577POPC   GL223846   9.345  19.019   9.157
 1577POPC   C1A23847   9.705  19.156   8.814
 1577POPC   D2A23848   9.728  19.265   8.409
 1577POPC   C3A23849   9.874  19.021   8.085
 1577POPC   C4A23850   9.929  19.257   7.736
 1577POPC   C1B23851   9.215  19.188   8.747
 1577POPC   C2B23852   9.271  19.025   8.330
 1577POPC   C3B23853   9.408  19.024   7.883
 1577POPC   C4B23854   9.680  18.761   7.631
 1578POPC   NC323855  30.323  44.149   9.583
 1578POPC   PO423856  30.266  44.806   9.744
 1578POPC   GL123857  29.971  44.646   9.341
 1578POPC   GL223858  29.956  44.296   9.234
 1578POPC   C1A23859  29.937  44.648   8.852
 1578POPC   D2A23860  29.836  44.460   8.437
 1578POPC   C3A23861  29.687  44.658   8.063
 1578POPC   C4A23862  29.588  44.730   7.640
 1578POPC   C1B23863  29.974  44.119   8.815
 1578POPC   C2B23864  30.073  44.009   8.376
 1578POPC   C3B23865  30.170  44.308   8.010
 1578POPC   C4B23866  30.111  44.652   7.681
 1579POPC   NC323867  14.565  25.049   9.810
 1579POPC   PO423868  14.320  25.575   9.597
 1579POPC   GL123869  14.420  25.402   9.216
 1579POPC   GL223870  14.621  25.096   9.294
 1579POPC   C1A23871  14.283  25.468   8.790
 1579POPC   D2A23872  14.197  25.574   8.370
 1579POPC   C3A23873  14.524  25.442   8.075
 1579POPC   C4A23874  14.532  25.313   7.673
 1579POPC   C1B23875  14.465  25.002   8.869
 1579POPC   C2B23876  14.389  25.075   8.410
 1579POPC   C3B23877  14.436  24.906   7.959
 1579POPC   C4B23878  14.633  24.855   7.494
 1580POPC   NC323879   3.884  17.713   9.544
 1580POPC   PO423880   3.170  17.747   9.502
 1580POPC   GL123881   3.403  17.678   9.129
 1580POPC   GL223882   3.466  17.346   9.106
 1580POPC   C1A23883   3.554  17.622   8.690
 1580POPC   D2A23884   3.582  17.828   8.302
 1580POPC   C3A23885   3.668  17.647   7.914
 1580POPC   C4A23886   3.304  17.660   7.658
 1580POPC   C1B23887   3.545  17.118   8.746
 1580POPC   C2B23888   3.632  17.228   8.323
 1580POPC   C3B23889   3.377  17.215   7.945
 1580POPC   C4B23890   3.476  17.198   7.526
 1581POPC   NC323891  10.925   9.965   9.410
 1581POPC   PO423892  11.571  10.101   9.616
 1581POPC   GL123893  11.386   9.755   9.310
 1581POPC   GL223894  11.563   9.427   9.196
 1581POPC   C1A23895  11.309   9.842   8.857
 1581POPC   D2A23896  11.399  10.147   8.518
 1581POPC   C3A23897  11.413   9.986   8.099
 1581POPC   C4A23898  11.188   9.965   7.742
 1581POPC   C1B23899  11.475   9.323   8.732
 1581POPC   C2B23900  11.285   9.364   8.274
 1581POPC   C3B23901  11.272   9.449   7.798
 1581POPC   C4B23902  11.403   9.470   7.330
 1582POPC   NC323903  15.251  39.533   9.383
 1582POPC   PO423904  15.184  38.858   9.481
 1582POPC   GL123905  15.305  39.038   9.155
 1582POPC   GL223906  14.955  39.188   9.127
 1582POPC   C1A23907  15.359  39.242   8.772
 1582POPC   D2A23908  15.430  39.192   8.359
 1582POPC   C3A23909  15.284  39.392   7.997
 1582POPC   C4A23910  15.444  39.164   7.666
 1582POPC   C1B23911  14.968  38.877   8.811
 1582POPC   C2B23912  14.837  38.965   8.446
 1582POPC   C3B23913  14.967  38.897   8.047
 1582POPC   C4B23914  14.915  39.140   7.711
 1583POPC   NC323915  12.741   3.841   9.430
 1583POPC   PO423916  13.140   4.420   9.537
 1583POPC   GL123917  12.844   4.329   9.210
 1583POPC   GL223918  12.885   4.660   9.081
 1583POPC   C1A23919  12.591   4.298   8.815
 1583POPC   D2A23920  12.448   4.473   8.397
 1583POPC   C3A23921  12.657   4.317   8.022
 1583POPC   C4A23922  13.040   4.118   7.854
 1583POPC   C1B23923  12.844   4.714   8.646
 1583POPC   C2B23924  12.996   4.650   8.240
 1583POPC   C3B23925  13.068   4.621   7.816
 1583POPC   C4B23926  12.925   4.859   7.517
 1584POPC   NC323927  29.421   3.624   9.563
 1584POPC   PO423928  30.040   3.527   9.626
 1584POPC   GL123929  29.897   3.786   9.220
 1584POPC   GL223930  29.543   3.794   9.108
 1584POPC   C1A23931  30.067   3.854   8.767
 1584POPC   D2A23932  29.973   3.815   8.284
 1584POPC   C3A23933  30.309   3.709   7.949
 1584POPC   C4A23934  30.442   3.305   7.741
 1584POPC   C1B23935  29.577   3.769   8.679
 1584POPC   C2B23936  29.532   4.071   8.368
 1584POPC   C3B23937  29.550   3.899   7.998
 1584POPC   C4B23938  29.811   3.567   7.845
 1585POPC   NC323939  34.019  39.491   9.555
 1585POPC   PO423940  33.735  38.832   9.563
 1585POPC   GL123941  33.956  39.080   9.242
 1585POPC   GL223942  33.679  39.287   9.200
 1585POPC   C1A23943  34.041  39.248   8.825
 1585POPC   D2A23944  33.863  39.499   8.494
 1585POPC   C3A23945  33.857  39.346   8.053
 1585POPC   C4A23946  33.587  39.298   7.680
 1585POPC   C1B23947  33.532  39.070   8.798
 1585POPC   C2B23948  33.465  39.021   8.321
 1585POPC   C3B23949  33.293  38.871   7.863
 1585POPC   C4B23950  33.257  38.961   7.386
 1586POPC   NC323951  29.986  28.782   9.465
 1586POPC   PO423952  29.684  28.178   9.536
 1586POPC   GL123953  29.904  28.237   9.155
 1586POPC   GL223954  29.770  28.548   9.054
 1586POPC   C1A23955  29.793  28.151   8.699
 1586POPC   D2A23956  29.661  28.263   8.255
 1586POPC   C3A23957  29.907  28.168   7.851
 1586POPC   C4A23958  30.154  28.108   7.445
 1586POPC   C1B23959  29.839  28.665   8.625
 1586POPC   C2B23960  29.581  28.787   8.299
 1586POPC   C3B23961  29.740  28.671   7.938
 1586POPC   C4B23962  30.123  28.841   7.770
 1587POPC   NC323963  24.670  20.525   9.558
 1587POPC   PO423964  23.987  20.756   9.558
 1587POPC   GL123965  24.235  20.713   9.184
 1587POPC   GL223966  24.485  20.521   9.080
 1587POPC   C1A23967  24.194  20.756   8.724
 1587POPC   D2A23968  24.094  20.640   8.275
 1587POPC   C3A23969  24.423  20.669   7.938
 1587POPC   C4A23970  24.335  20.824   7.516
 1587POPC   C1B23971  24.754  20.395   8.745
 1587POPC   C2B23972  24.812  20.553   8.329
 1587POPC   C3B23973  24.809  20.333   7.937
 1587POPC   C4B23974  24.536  20.277   7.589
 1588POPC   NC323975   8.211  17.278   9.439
 1588POPC   PO423976   7.972  17.898   9.527
 1588POPC   GL123977   8.148  17.681   9.152
 1588POPC   GL223978   7.960  17.354   9.012
 1588POPC   C1A23979   7.982  17.812   8.777
 1588POPC   D2A23980   7.741  17.546   8.531
 1588POPC   C3A23981   7.921  17.497   8.125
 1588POPC   C4A23982   8.084  17.656   7.733
 1588POPC   C1B23983   8.309  17.325   8.757
 1588POPC   C2B23984   8.296  17.177   8.349
 1588POPC   C3B23985   8.371  17.299   7.948
 1588POPC   C4B23986   8.546  17.503   7.564
 1589POPC   NC323987  21.758  29.972   9.384
 1589POPC   PO423988  22.466  29.939   9.533
 1589POPC   GL123989  22.235  29.977   9.143
 1589POPC   GL223990  22.168  29.665   9.004
 1589POPC   C1A23991  22.035  30.093   8.724
 1589POPC   D2A23992  21.776  30.216   8.341
 1589POPC   C3A23993  21.971  30.316   7.945
 1589POPC   C4A23994  22.384  30.225   7.816
 1589POPC   C1B23995  22.508  29.856   8.679
 1589POPC   C2B23996  22.658  29.886   8.229
 1589POPC   C3B23997  22.443  29.697   7.889
 1589POPC   C4B23998  22.111  29.468   7.713
 1590POPC   NC323999  43.231  34.318   9.610
 1590POPC   PO424000  43.124  34.967   9.374
 1590POPC   GL124001  43.213  34.586   9.115
 1590POPC   GL224002  42.968  34.294   9.142
 1590POPC   C1A24003  43.266  34.706   8.673
 1590POPC   D2A24004  42.933  34.856   8.389
 1590POPC   C3A24005  43.007  34.695   8.002
 1590POPC   C4A24006  43.304  34.673   7.703
 1590POPC   C1B24007  43.151  34.212   8.718
 1590POPC   C2B24008  43.180  34.346   8.315
 1590POPC   C3B24009  43.087  34.183   7.894
 1590POPC   C4B24010  43.006  33.983   7.514
 1591POPC   NC324011   6.426  21.044   9.462
 1591POPC   PO424012   6.657  21.603   9.776
 1591POPC   GL124013   6.517  21.573   9.290
 1591POPC   GL224014   6.683  21.288   9.106
 1591POPC   C1A24015   6.635  21.659   8.794
 1591POPC   D2A24016   6.660  21.458   8.365
 1591POPC   C3A24017   6.446  21.614   7.985
 1591POPC   C4A24018   6.737  21.670   7.667
 1591POPC   C1B24019   6.523  21.102   8.711
 1591POPC   C2B24020   6.527  20.949   8.261
 1591POPC   C3B24021   6.621  21.127   7.868
 1591POPC   C4B24022   6.506  21.262   7.450
 1592POPC   NC324023   8.025  24.052   9.510
 1592POPC   PO424024   8.359  23.547   9.558
 1592POPC   GL124025   8.398  23.587   9.127
 1592POPC   GL224026   8.145  23.836   9.069
 1592POPC   C1A24027   8.257  23.505   8.699
 1592POPC   D2A24028   8.479  23.590   8.348
 1592POPC   C3A24029   8.353  23.388   8.035
 1592POPC   C4A24030   8.092  23.433   7.712
 1592POPC   C1B24031   8.340  24.007   8.716
 1592POPC   C2B24032   8.388  24.116   8.260
 1592POPC   C3B24033   8.265  24.002   7.814
 1592POPC   C4B24034   8.121  24.250   7.445
 1593POPC   NC324035  36.499  43.985   9.919
 1593POPC   PO424036  35.974  43.854   9.519
 1593POPC   GL124037  36.093  44.007   9.153
 1593POPC   GL224038  35.855  43.899   8.972
 1593POPC   C1A24039  36.308  43.929   8.757
 1593POPC   D2A24040  36.131  43.842   8.355
 1593POPC   C3A24041  36.040  44.158   8.060
 1593POPC   C4A24042  36.215  44.170   7.636
 1593POPC   C1B24043  35.672  43.922   8.584
 1593POPC   C2B24044  35.628  43.832   8.170
 1593POPC   C3B24045  35.750  43.639   7.811
 1593POPC   C4B24046  35.960  43.776   7.453
 1594POPC   NC324047  16.806  41.278   9.384
 1594POPC   PO424048  17.107  41.902   9.551
 1594POPC   GL124049  16.887  41.768   9.166
 1594POPC   GL224050  16.539  41.662   9.163
 1594POPC   C1A24051  16.899  41.517   8.767
 1594POPC   D2A24052  17.101  41.273   8.433
 1594POPC   C3A24053  16.846  41.318   8.076
 1594POPC   C4A24054  16.827  41.533   7.734
 1594POPC   C1B24055  16.367  41.549   8.759
 1594POPC   C2B24056  16.573  41.655   8.365
 1594POPC   C3B24057  16.444  41.786   7.970
 1594POPC   C4B24058  16.454  41.808   7.523
 1595POPC   NC324059  17.662  24.491   9.588
 1595POPC   PO424060  17.386  23.916   9.536
 1595POPC   GL124061  17.407  24.270   9.200
 1595POPC   GL224062  17.741  24.431   9.084
 1595POPC   C1A24063  17.320  24.387   8.769
 1595POPC   D2A24064  17.435  24.534   8.332
 1595POPC   C3A24065  17.404  24.273   7.967
 1595POPC   C4A24066  17.102  24.173   7.650
 1595POPC   C1B24067  17.720  24.722   8.726
 1595POPC   C2B24068  17.868  24.802   8.279
 1595POPC   C3B24069  17.568  24.869   7.908
 1595POPC   C4B24070  17.411  24.598   7.537
 1596POPC   NC324071  15.980   2.795   9.501
 1596POPC   PO424072  15.423   3.031   9.308
 1596POPC   GL124073  15.610   2.679   9.074
 1596POPC   GL224074  15.974   2.607   9.048
 1596POPC   C1A24075  15.730   2.622   8.632
 1596POPC   D2A24076  15.925   2.848   8.332
 1596POPC   C3A24077  15.869   2.594   7.969
 1596POPC   C4A24078  15.756   2.715   7.576
 1596POPC   C1B24079  16.248   2.478   8.724
 1596POPC   C2B24080  16.404   2.644   8.346
 1596POPC   C3B24081  16.304   2.814   7.957
 1596POPC   C4B24082  16.251   2.647   7.565
 1597POPC   NC324083  25.173  30.666   9.933
 1597POPC   PO424084  24.866  31.094   9.446
 1597POPC   GL124085  24.540  30.844   9.173
 1597POPC   GL224086  24.667  30.482   9.067
 1597POPC   C1A24087  24.360  30.729   8.754
 1597POPC   D2A24088  24.545  30.442   8.459
 1597POPC   C3A24089  24.614  30.493   8.019
 1597POPC   C4A24090  24.517  30.620   7.562
 1597POPC   C1B24091  24.850  30.826   8.764
 1597POPC   C2B24092  24.885  30.834   8.321
 1597POPC   C3B24093  24.734  30.968   7.911
 1597POPC   C4B24094  24.815  31.000   7.458
 1598POPC   NC324095  13.701  41.031   9.322
 1598POPC   PO424096  13.418  40.426   9.605
 1598POPC   GL124097  13.545  40.564   9.193
 1598POPC   GL224098  13.915  40.585   9.168
 1598POPC   C1A24099  13.466  40.792   8.787
 1598POPC   D2A24100  13.486  40.657   8.395
 1598POPC   C3A24101  13.468  40.935   8.058
 1598POPC   C4A24102  13.650  40.819   7.686
 1598POPC   C1B24103  13.992  40.779   8.741
 1598POPC   C2B24104  13.892  41.040   8.362
 1598POPC   C3B24105  13.946  41.134   7.917
 1598POPC   C4B24106  13.986  41.127   7.434
 1599POPC   NC324107  42.240  36.479   9.321
 1599POPC   PO424108  42.347  35.844   9.477
 1599POPC   GL124109  42.412  36.014   9.065
 1599POPC   GL224110  42.092  36.164   8.950
 1599POPC   C1A24111  42.550  35.912   8.633
 1599POPC   D2A24112  42.670  36.226   8.304
 1599POPC   C3A24113  42.637  36.121   7.907
 1599POPC   C4A24114  42.254  36.075   7.684
 1599POPC   C1B24115  42.395  36.398   8.697
 1599POPC   C2B24116  42.313  36.589   8.307
 1599POPC   C3B24117  42.165  36.558   7.917
 1599POPC   C4B24118  42.279  36.545   7.491
 1600POPC   NC324119  25.510   2.098   9.419
 1600POPC   PO424120  25.035   1.704   9.375
 1600POPC   GL124121  25.140   1.953   9.053
 1600POPC   GL224122  25.114   2.298   9.164
 1600POPC   C1A24123  25.253   1.831   8.645
 1600POPC   D2A24124  25.132   1.779   8.244
 1600POPC   C3A24125  25.346   1.745   7.850
 1600POPC   C4A24126  25.012   1.768   7.487
 1600POPC   C1B24127  25.403   2.301   8.773
 1600POPC   C2B24128  25.245   2.277   8.333
 1600POPC   C3B24129  25.080   2.171   7.925
 1600POPC   C4B24130  25.331   2.180   7.558
 1601POPC   NC324131  20.997   1.444   9.452
 1601POPC   PO424132  20.472   1.092   9.551
 1601POPC   GL124133  20.624   1.110   9.161
 1601POPC   GL224134  20.355   0.932   8.978
 1601POPC   C1A24135  20.842   0.995   8.802
 1601POPC   D2A24136  20.630   0.793   8.464
 1601POPC   C3A24137  20.509   1.056   8.106
 1601POPC   C4A24138  20.619   1.079   7.677
 1601POPC   C1B24139  20.427   1.338   8.734
 1601POPC   C2B24140  20.319   1.506   8.308
 1601POPC   C3B24141  20.331   1.508   7.845
 1601POPC   C4B24142  20.235   1.338   7.452
 1602POPC   NC324143  15.705  26.301   9.675
 1602POPC   PO424144  16.368  26.169   9.427
 1602POPC   GL124145  16.074  26.046   9.054
 1602POPC   GL224146  16.158  26.349   8.822
 1602POPC   C1A24147  15.695  26.094   8.748
 1602POPC   D2A24148  15.569  26.262   8.329
 1602POPC   C3A24149  15.779  26.101   7.958
 1602POPC   C4A24150  16.178  26.293   7.903
 1602POPC   C1B24151  16.174  26.020   8.551
 1602POPC   C2B24152  16.053  25.762   8.263
 1602POPC   C3B24153  16.266  25.759   7.921
 1602POPC   C4B24154  16.182  25.907   7.557
 1603POPC   NC324155  16.684   2.487   9.553
 1603POPC   PO424156  16.336   3.110   9.521
 1603POPC   GL124157  16.646   2.931   9.239
 1603POPC   GL224158  16.468   2.675   9.143
 1603POPC   C1A24159  16.833   2.808   8.807
 1603POPC   D2A24160  16.915   2.566   8.412
 1603POPC   C3A24161  16.805   2.728   7.993
 1603POPC   C4A24162  16.759   2.545   7.570
 1603POPC   C1B24163  16.338   2.976   8.832
 1603POPC   C2B24164  16.424   3.143   8.451
 1603POPC   C3B24165  16.609   3.191   8.066
 1603POPC   C4B24166  16.606   3.035   7.612
 1604POPC   NC324167  27.108  22.025   9.784
 1604POPC   PO424168  26.531  22.251   9.541
 1604POPC   GL124169  26.658  22.363   9.134
 1604POPC   GL224170  26.979  22.205   9.236
 1604POPC   C1A24171  26.521  22.274   8.705
 1604POPC   D2A24172  26.797  22.158   8.384
 1604POPC   C3A24173  26.927  22.303   7.969
 1604POPC   C4A24174  26.821  22.571   7.617
 1604POPC   C1B24175  26.976  21.961   8.855
 1604POPC   C2B24176  26.924  21.652   8.517
 1604POPC   C3B24177  26.876  21.750   8.095
 1604POPC   C4B24178  27.031  21.866   7.717
 1605POPC   NC324179   7.441  30.149   9.527
 1605POPC   PO424180   6.816  29.921   9.582
 1605POPC   GL124181   7.075  29.981   9.203
 1605POPC   GL224182   7.428  29.791   9.161
 1605POPC   C1A24183   7.212  30.092   8.802
 1605POPC   D2A24184   7.389  29.915   8.459
 1605POPC   C3A24185   7.263  29.969   8.073
 1605POPC   C4A24186   7.563  29.721   7.873
 1605POPC   C1B24187   7.736  29.960   8.846
 1605POPC   C2B24188   7.830  30.159   8.430
 1605POPC   C3B24189   7.714  30.238   7.993
 1605POPC   C4B24190   7.889  30.080   7.603
 1606POPC   NC324191  38.707   5.994   9.588
 1606POPC   PO424192  38.139   5.644   9.472
 1606POPC   GL124193  38.349   5.931   9.147
 1606POPC   GL224194  38.667   6.104   9.117
 1606POPC   C1A24195  38.347   6.041   8.706
 1606POPC   D2A24196  38.205   5.856   8.316
 1606POPC   C3A24197  38.253   6.105   7.961
 1606POPC   C4A24198  38.610   6.274   7.864
 1606POPC   C1B24199  38.821   5.827   8.822
 1606POPC   C2B24200  38.692   5.701   8.448
 1606POPC   C3B24201  38.662   5.795   8.045
 1606POPC   C4B24202  38.460   5.724   7.676
 1607POPC   NC324203  25.000  27.208   9.290
 1607POPC   PO424204  25.305  26.856   9.703
 1607POPC   GL124205  25.342  26.744   9.272
 1607POPC   GL224206  25.661  26.887   9.237
 1607POPC   C1A24207  25.176  26.639   8.874
 1607POPC   D2A24208  25.191  26.854   8.469
 1607POPC   C3A24209  25.327  26.602   8.153
 1607POPC   C4A24210  25.245  26.475   7.731
 1607POPC   C1B24211  25.571  26.987   8.801
 1607POPC   C2B24212  25.685  27.032   8.357
 1607POPC   C3B24213  25.517  27.032   7.959
 1607POPC   C4B24214  25.565  26.865   7.565
 1608POPC   NC324215  31.565   7.133   9.599
 1608POPC   PO424216  31.472   6.454   9.676
 1608POPC   GL124217  31.516   6.607   9.245
 1608POPC   GL224218  31.705   6.862   9.182
 1608POPC   C1A24219  31.380   6.659   8.809
 1608POPC   D2A24220  31.570   6.557   8.434
 1608POPC   C3A24221  31.402   6.623   8.040
 1608POPC   C4A24222  31.501   6.774   7.615
 1608POPC   C1B24223  31.873   6.780   8.773
 1608POPC   C2B24224  31.879   6.922   8.306
 1608POPC   C3B24225  31.900   6.697   7.900
 1608POPC   C4B24226  31.961   6.718   7.419
 1609POPC   NC324227  16.544  35.875   9.929
 1609POPC   PO424228  16.839  36.342   9.524
 1609POPC   GL124229  16.811  36.256   9.091
 1609POPC   GL224230  16.453  36.360   9.129
 1609POPC   C1A24231  16.990  35.976   8.748
 1609POPC   D2A24232  17.232  35.968   8.328
 1609POPC   C3A24233  16.933  36.072   8.000
 1609POPC   C4A24234  16.544  35.846   8.025
 1609POPC   C1B24235  16.479  36.230   8.688
 1609POPC   C2B24236  16.583  36.425   8.277
 1609POPC   C3B24237  16.477  36.303   7.836
 1609POPC   C4B24238  16.417  36.330   7.390
 1610POPC   NC324239   0.791  18.423   9.355
 1610POPC   PO424240   1.268  17.975   9.411
 1610POPC   GL124241   1.344  18.172   9.061
 1610POPC   GL224242   1.000  18.114   8.967
 1610POPC   C1A24243   1.428  18.136   8.646
 1610POPC   D2A24244   1.156  18.162   8.286
 1610POPC   C3A24245   1.500  18.166   7.973
 1610POPC   C4A24246   1.651  18.467   7.704
 1610POPC   C1B24247   1.063  18.505   8.734
 1610POPC   C2B24248   0.903  18.669   8.371
 1610POPC   C3B24249   0.735  18.380   8.057
 1610POPC   C4B24250   1.014  18.160   7.766
 1611POPC   NC324251  13.214  44.974   9.352
 1611POPC   PO424252  12.579  44.729   9.441
 1611POPC   GL124253  12.856  44.652   9.133
 1611POPC   GL224254  13.131  44.420   9.208
 1611POPC   C1A24255  12.825  44.892   8.761
 1611POPC   D2A24256  12.905   0.164   8.409
 1611POPC   C3A24257  12.759  44.980   8.028
 1611POPC   C4A24258  12.880  44.933   7.606
 1611POPC   C1B24259  13.092  44.440   8.741
 1611POPC   C2B24260  12.888  44.551   8.353
 1611POPC   C3B24261  12.973  44.498   7.905
 1611POPC   C4B24262  12.913  44.420   7.457
 1612POPC   NC324263  13.475   6.071   9.573
 1612POPC   PO424264  13.973   5.665   9.488
 1612POPC   GL124265  13.780   5.928   9.172
 1612POPC   GL224266  13.476   6.161   9.093
 1612POPC   C1A24267  13.708   5.824   8.770
 1612POPC   D2A24268  13.769   6.005   8.371
 1612POPC   C3A24269  13.622   5.706   8.091
 1612POPC   C4A24270  13.451   5.706   7.698
 1612POPC   C1B24271  13.639   6.335   8.753
 1612POPC   C2B24272  13.424   6.406   8.379
 1612POPC   C3B24273  13.426   6.167   7.997
 1612POPC   C4B24274  13.542   6.330   7.619
 1613POPC   NC324275  28.710  40.743   9.351
 1613POPC   PO424276  28.186  40.765   9.768
 1613POPC   GL124277  28.206  40.786   9.220
 1613POPC   GL224278  28.462  40.949   8.968
 1613POPC   C1A24279  28.226  40.601   8.725
 1613POPC   D2A24280  28.335  40.820   8.355
 1613POPC   C3A24281  28.353  40.652   7.944
 1613POPC   C4A24282  28.205  40.873   7.548
 1613POPC   C1B24283  28.783  41.247   8.759
 1613POPC   C2B24284  29.004  41.144   8.401
 1613POPC   C3B24285  28.780  40.928   8.100
 1613POPC   C4B24286  28.722  40.868   7.664
 1614POPC   NC324287  31.088   6.661   9.510
 1614POPC   PO424288  30.416   6.830   9.581
 1614POPC   GL124289  30.634   6.563   9.243
 1614POPC   GL224290  30.899   6.718   9.048
 1614POPC   C1A24291  30.524   6.457   8.800
 1614POPC   D2A24292  30.429   6.689   8.411
 1614POPC   C3A24293  30.442   6.514   7.991
 1614POPC   C4A24294  30.630   6.585   7.616
 1614POPC   C1B24295  30.919   6.776   8.613
 1614POPC   C2B24296  30.873   6.795   8.161
 1614POPC   C3B24297  31.035   6.832   7.756
 1614POPC   C4B24298  31.096   6.561   7.377
 1615POPC   NC324299   8.930   7.821   9.514
 1615POPC   PO424300   9.305   7.300   9.665
 1615POPC   GL124301   9.140   7.453   9.207
 1615POPC   GL224302   8.809   7.281   9.071
 1615POPC   C1A24303   9.238   7.355   8.759
 1615POPC   D2A24304   9.443   7.358   8.330
 1615POPC   C3A24305   9.121   7.256   8.001
 1615POPC   C4A24306   9.050   7.407   7.571
 1615POPC   C1B24307   8.621   7.391   8.680
 1615POPC   C2B24308   8.695   7.198   8.270
 1615POPC   C3B24309   8.607   7.348   7.856
 1615POPC   C4B24310   8.556   7.492   7.429
 1616POPC   NC324311  35.879  30.849   9.343
 1616POPC   PO424312  36.381  30.429   9.401
 1616POPC   GL124313  36.246  30.608   9.046
 1616POPC   GL224314  35.935  30.447   9.053
 1616POPC   C1A24315  36.092  30.875   8.685
 1616POPC   D2A24316  36.195  31.172   8.336
 1616POPC   C3A24317  36.198  30.944   7.921
 1616POPC   C4A24318  36.366  30.537   7.810
 1616POPC   C1B24319  36.034  30.380   8.638
 1616POPC   C2B24320  35.979  30.608   8.260
 1616POPC   C3B24321  35.827  30.527   7.860
 1616POPC   C4B24322  35.970  30.404   7.449
 1617POPC   NC324323  38.405  19.687   9.495
 1617POPC   PO424324  38.851  20.203   9.554
 1617POPC   GL124325  38.872  19.813   9.212
 1617POPC   GL224326  38.561  19.892   9.052
 1617POPC   C1A24327  38.759  19.529   8.780
 1617POPC   D2A24328  38.466  19.492   8.403
 1617POPC   C3A24329  38.565  19.687   7.979
 1617POPC   C4A24330  38.571  20.141   7.939
 1617POPC   C1B24331  38.180  19.731   8.833
 1617POPC   C2B24332  37.942  19.936   8.504
 1617POPC   C3B24333  38.099  19.914   8.092
 1617POPC   C4B24334  37.959  19.735   7.707
 1618POPC   NC324335  29.355  39.030   9.560
 1618POPC   PO424336  29.369  38.349   9.491
 1618POPC   GL124337  29.130  38.648   9.219
 1618POPC   GL224338  29.367  38.877   9.084
 1618POPC   C1A24339  28.921  38.751   8.818
 1618POPC   D2A24340  29.064  38.634   8.403
 1618POPC   C3A24341  28.874  38.547   8.042
 1618POPC   C4A24342  29.113  38.570   7.667
 1618POPC   C1B24343  29.411  38.601   8.761
 1618POPC   C2B24344  29.471  38.302   8.457
 1618POPC   C3B24345  29.496  38.375   8.020
 1618POPC   C4B24346  29.463  38.193   7.635
 1619POPC   NC324347  41.273  35.957   9.360
 1619POPC   PO424348  41.742  36.507   9.381
 1619POPC   GL124349  41.560  36.284   9.056
 1619POPC   GL224350  41.651  35.918   9.025
 1619POPC   C1A24351  41.625  36.351   8.633
 1619POPC   D2A24352  41.915  36.240   8.316
 1619POPC   C3A24353  41.634  36.005   8.034
 1619POPC   C4A24354  41.237  36.198   7.852
 1619POPC   C1B24355  41.331  35.835   8.701
 1619POPC   C2B24356  41.099  35.845   8.324
 1619POPC   C3B24357  41.216  35.691   7.945
 1619POPC   C4B24358  41.272  35.785   7.540
 1620POPC   NC324359  19.447  41.491   9.545
 1620POPC   PO424360  18.774  41.722   9.709
 1620POPC   GL124361  18.919  41.503   9.348
 1620POPC   GL224362  19.124  41.744   9.194
 1620POPC   C1A24363  18.852  41.399   8.887
 1620POPC   D2A24364  19.164  41.345   8.558
 1620POPC   C3A24365  19.183  41.348   8.119
 1620POPC   C4A24366  19.506  41.202   7.831
 1620POPC   C1B24367  19.082  41.841   8.757
 1620POPC   C2B24368  18.922  41.776   8.363
 1620POPC   C3B24369  19.137  41.835   8.015
 1620POPC   C4B24370  19.031  41.601   7.661
 1621POPC   NC324371  38.788  40.133   9.623
 1621POPC   PO424372  39.425  39.889   9.552
 1621POPC   GL124373  39.151  39.937   9.238
 1621POPC   GL224374  39.087  40.282   9.218
 1621POPC   C1A24375  39.278  39.978   8.806
 1621POPC   D2A24376  39.442  39.804   8.439
 1621POPC   C3A24377  39.142  39.678   8.160
 1621POPC   C4A24378  39.161  39.867   7.767
 1621POPC   C1B24379  38.898  40.308   8.795
 1621POPC   C2B24380  39.041  40.187   8.373
 1621POPC   C3B24381  38.979  40.321   7.961
 1621POPC   C4B24382  38.585  40.338   7.736
 1622POPC   NC324383  23.457  22.781   9.446
 1622POPC   PO424384  22.781  22.698   9.623
 1622POPC   GL124385  22.970  22.768   9.253
 1622POPC   GL224386  23.080  23.043   9.114
 1622POPC   C1A24387  22.852  22.630   8.869
 1622POPC   D2A24388  22.632  22.623   8.465
 1622POPC   C3A24389  22.925  22.736   8.130
 1622POPC   C4A24390  22.855  22.952   7.724
 1622POPC   C1B24391  23.394  23.218   8.764
 1622POPC   C2B24392  23.447  23.194   8.327
 1622POPC   C3B24393  23.179  23.351   8.026
 1622POPC   C4B24394  23.237  23.243   7.628
 1623POPC   NC324395  35.808  39.009   9.563
 1623POPC   PO424396  35.165  39.299   9.658
 1623POPC   GL124397  35.404  39.215   9.311
 1623POPC   GL224398  35.489  39.543   9.208
 1623POPC   C1A24399  35.448  39.057   8.909
 1623POPC   D2A24400  35.389  39.015   8.449
 1623POPC   C3A24401  35.314  39.176   8.019
 1623POPC   C4A24402  35.259  39.008   7.608
 1623POPC   C1B24403  35.364  39.516   8.735
 1623POPC   C2B24404  35.250  39.603   8.307
 1623POPC   C3B24405  35.265  39.692   7.876
 1623POPC   C4B24406  35.336  39.563   7.449
 1624POPC   NC324407  44.947   5.040   9.511
 1624POPC   PO424408  44.518   5.582   9.731
 1624POPC   GL124409  44.525   5.271   9.312
 1624POPC   GL224410  44.824   5.294   9.088
 1624POPC   C1A24411  44.460   5.163   8.799
 1624POPC   D2A24412  44.502   5.272   8.330
 1624POPC   C3A24413  44.706   5.042   7.947
 1624POPC   C4A24414  44.764   4.915   7.480
 1624POPC   C1B24415  44.848   5.524   8.691
 1624POPC   C2B24416   0.015   5.446   8.264
 1624POPC   C3B24417  44.984   5.444   7.817
 1624POPC   C4B24418  44.615   5.404   7.490
 1625POPC   NC324419   6.971  44.949  10.014
 1625POPC   PO424420   6.673  44.452   9.695
 1625POPC   GL124421   6.624  44.480   9.241
 1625POPC   GL224422   6.853  44.319   9.088
 1625POPC   C1A24423   6.526  44.705   8.839
 1625POPC   D2A24424   6.668  44.899   8.420
 1625POPC   C3A24425   6.544  44.795   7.958
 1625POPC   C4A24426   6.526  44.742   7.487
 1625POPC   C1B24427   6.717  44.271   8.667
 1625POPC   C2B24428   6.723  44.406   8.265
 1625POPC   C3B24429   6.642  44.302   7.835
 1625POPC   C4B24430   6.894  44.400   7.470
 1626POPC   NC324431  31.666  32.550   9.500
 1626POPC   PO424432  31.667  33.202   9.578
 1626POPC   GL124433  31.591  33.214   9.182
 1626POPC   GL224434  31.467  32.910   9.138
 1626POPC   C1A24435  31.699  33.367   8.798
 1626POPC   D2A24436  31.495  33.264   8.419
 1626POPC   C3A24437  31.559  33.477   8.037
 1626POPC   C4A24438  31.536  33.203   7.709
 1626POPC   C1B24439  31.582  32.850   8.727
 1626POPC   C2B24440  31.705  32.641   8.341
 1626POPC   C3B24441  31.530  32.741   7.922
 1626POPC   C4B24442  31.185  32.793   7.638
 1627POPC   NC324443  25.518  21.802   9.287
 1627POPC   PO424444  25.038  22.156   9.524
 1627POPC   GL124445  25.137  22.090   9.087
 1627POPC   GL224446  24.988  21.756   9.094
 1627POPC   C1A24447  25.463  22.229   8.741
 1627POPC   D2A24448  25.605  22.433   8.319
 1627POPC   C3A24449  25.399  22.277   7.931
 1627POPC   C4A24450  25.074  21.987   7.713
 1627POPC   C1B24451  25.257  21.743   8.709
 1627POPC   C2B24452  25.350  21.920   8.322
 1627POPC   C3B24453  25.467  21.763   7.936
 1627POPC   C4B24454  25.628  21.992   7.566
 1628POPC   NC324455  11.595  31.070   9.378
 1628POPC   PO424456  11.253  30.522   9.385
 1628POPC   GL124457  11.077  30.648   9.004
 1628POPC   GL224458  11.027  30.979   8.999
 1628POPC   C1A24459  11.298  30.751   8.604
 1628POPC   D2A24460  11.635  30.747   8.260
 1628POPC   C3A24461  11.483  30.664   7.839
 1628POPC   C4A24462  11.045  30.679   7.763
 1628POPC   C1B24463  10.797  30.950   8.644
 1628POPC   C2B24464  10.965  30.889   8.244
 1628POPC   C3B24465  11.308  31.097   8.079
 1628POPC   C4B24466  11.333  31.147   7.661
 1629POPC   NC324467  27.532  16.581   9.580
 1629POPC   PO424468  27.945  16.984   9.426
 1629POPC   GL124469  27.739  16.733   9.120
 1629POPC   GL224470  27.342  16.692   9.120
 1629POPC   C1A24471  27.595  16.870   8.719
 1629POPC   D2A24472  27.446  16.697   8.321
 1629POPC   C3A24473  27.671  16.446   8.022
 1629POPC   C4A24474  27.930  16.420   7.658
 1629POPC   C1B24475  27.098  16.683   8.712
 1629POPC   C2B24476  26.971  16.888   8.333
 1629POPC   C3B24477  27.168  16.922   7.942
 1629POPC   C4B24478  27.617  16.938   7.897
 1630POPC   NC324479  28.696  21.845   9.609
 1630POPC   PO424480  28.165  22.285   9.489
 1630POPC   GL124481  28.246  22.427   9.108
 1630POPC   GL224482  28.584  22.443   9.162
 1630POPC   C1A24483  28.135  22.252   8.718
 1630POPC   D2A24484  27.982  22.425   8.355
 1630POPC   C3A24485  28.113  22.207   8.007
 1630POPC   C4A24486  28.377  22.247   7.669
 1630POPC   C1B24487  28.649  22.278   8.758
 1630POPC   C2B24488  28.545  22.335   8.335
 1630POPC   C3B24489  28.802  22.300   7.975
 1630POPC   C4B24490  28.828  22.034   7.611
 1631POPC   NC324491  42.140  21.768   9.609
 1631POPC   PO424492  42.637  21.338   9.609
 1631POPC   GL124493  42.360  21.383   9.270
 1631POPC   GL224494  42.342  21.040   9.141
 1631POPC   C1A24495  42.130  21.527   8.911
 1631POPC   D2A24496  42.139  21.396   8.477
 1631POPC   C3A24497  42.321  21.550   8.131
 1631POPC   C4A24498  42.213  21.414   7.736
 1631POPC   C1B24499  42.074  20.997   8.786
 1631POPC   C2B24500  42.117  20.878   8.353
 1631POPC   C3B24501  42.309  20.965   7.955
 1631POPC   C4B24502  42.468  21.032   7.522
 1632POPC   NC324503  41.643  19.421   9.316
 1632POPC   PO424504  41.515  20.040   9.462
 1632POPC   GL124505  41.553  19.954   9.094
 1632POPC   GL224506  41.204  19.850   9.086
 1632POPC   C1A24507  41.841  20.041   8.768
 1632POPC   D2A24508  41.713  19.908   8.389
 1632POPC   C3A24509  41.724  20.142   8.035
 1632POPC   C4A24510  41.716  19.904   7.720
 1632POPC   C1B24511  41.329  19.705   8.696
 1632POPC   C2B24512  41.214  19.767   8.289
 1632POPC   C3B24513  41.348  19.607   7.891
 1632POPC   C4B24514  41.236  19.864   7.540
 1633POPC   NC324515  10.643   8.748   9.787
 1633POPC   PO424516  10.649   8.097   9.807
 1633POPC   GL124517  10.464   8.227   9.400
 1633POPC   GL224518  10.627   7.999   9.220
 1633POPC   C1A24519  10.368   8.291   8.911
 1633POPC   D2A24520  10.555   8.211   8.491
 1633POPC   C3A24521  10.503   8.415   8.096
 1633POPC   C4A24522  10.430   8.258   7.701
 1633POPC   C1B24523  10.834   7.951   8.855
 1633POPC   C2B24524  10.980   7.897   8.462
 1633POPC   C3B24525  10.732   7.921   8.087
 1633POPC   C4B24526  10.784   7.872   7.686
 1634POPC   NC324527  33.971  17.997   9.712
 1634POPC   PO424528  33.825  18.590   9.637
 1634POPC   GL124529  33.818  18.220   9.286
 1634POPC   GL224530  33.552  18.209   9.049
 1634POPC   C1A24531  33.990  18.036   8.861
 1634POPC   D2A24532  33.931  18.160   8.413
 1634POPC   C3A24533  34.077  18.017   8.003
 1634POPC   C4A24534  33.914  18.299   7.715
 1634POPC   C1B24535  33.743  18.497   8.754
 1634POPC   C2B24536  33.543  18.605   8.328
 1634POPC   C3B24537  33.482  18.502   7.879
 1634POPC   C4B24538  33.457  18.477   7.406
 1635POPC   NC324539  35.437  21.802   9.739
 1635POPC   PO424540  35.567  21.151   9.516
 1635POPC   GL124541  35.340  21.278   9.186
 1635POPC   GL224542  35.456  21.600   9.256
 1635POPC   C1A24543  35.109  21.322   8.792
 1635POPC   D2A24544  35.126  21.163   8.431
 1635POPC   C3A24545  35.060  21.395   8.075
 1635POPC   C4A24546  35.444  21.461   7.817
 1635POPC   C1B24547  35.563  21.583   8.820
 1635POPC   C2B24548  35.280  21.673   8.459
 1635POPC   C3B24549  35.329  21.883   8.083
 1635POPC   C4B24550  35.559  21.926   7.696
 1636POPC   NC324551  41.140  24.065   9.388
 1636POPC   PO424552  40.442  23.979   9.418
 1636POPC   GL124553  40.619  23.835   9.041
 1636POPC   GL224554  40.903  23.605   9.046
 1636POPC   C1A24555  40.809  23.906   8.646
 1636POPC   D2A24556  40.858  23.642   8.303
 1636POPC   C3A24557  40.743  23.803   7.924
 1636POPC   C4A24558  40.548  24.034   7.621
 1636POPC   C1B24559  41.148  23.432   8.691
 1636POPC   C2B24560  41.302  23.379   8.255
 1636POPC   C3B24561  41.024  23.381   7.874
 1636POPC   C4B24562  40.839  23.514   7.469
 1637POPC   NC324563  23.704  40.545   9.689
 1637POPC   PO424564  24.050  41.064   9.698
 1637POPC   GL124565  24.009  40.645   9.320
 1637POPC   GL224566  23.629  40.658   9.204
 1637POPC   C1A24567  24.087  40.541   8.867
 1637POPC   D2A24568  24.003  40.718   8.442
 1637POPC   C3A24569  23.748  40.457   8.184
 1637POPC   C4A24570  23.675  40.502   7.739
 1637POPC   C1B24571  23.609  40.682   8.771
 1637POPC   C2B24572  23.490  40.851   8.400
 1637POPC   C3B24573  23.683  40.954   8.019
 1637POPC   C4B24574  23.757  41.069   7.594
 1638POPC   NC324575   5.278  15.030   9.531
 1638POPC   PO424576   4.878  15.504   9.791
 1638POPC   GL124577   4.978  15.346   9.322
 1638POPC   GL224578   4.718  15.183   9.127
 1638POPC   C1A24579   5.156  15.250   8.892
 1638POPC   D2A24580   5.029  15.398   8.473
 1638POPC   C3A24581   5.333  15.507   8.149
 1638POPC   C4A24582   5.153  15.446   7.776
 1638POPC   C1B24583   4.804  14.844   8.827
 1638POPC   C2B24584   5.041  14.862   8.451
 1638POPC   C3B24585   5.026  15.027   8.032
 1638POPC   C4B24586   5.175  14.979   7.596
 1639POPC   NC324587  25.339  20.871   9.531
 1639POPC   PO424588  25.076  20.240   9.637
 1639POPC   GL124589  24.992  20.369   9.190
 1639POPC   GL224590  24.963  20.714   9.167
 1639POPC   C1A24591  25.249  20.529   8.791
 1639POPC   D2A24592  25.305  20.647   8.345
 1639POPC   C3A24593  25.323  20.265   8.063
 1639POPC   C4A24594  25.553  20.342   7.661
 1639POPC   C1B24595  24.871  20.891   8.771
 1639POPC   C2B24596  24.996  21.070   8.373
 1639POPC   C3B24597  24.894  20.948   7.985
 1639POPC   C4B24598  25.188  20.687   7.830
 1640POPC   NC324599   4.135  40.245   9.536
 1640POPC   PO424600   4.520  39.809   9.250
 1640POPC   GL124601   4.167  40.048   9.076
 1640POPC   GL224602   4.354  40.362   9.106
 1640POPC   C1A24603   4.026  40.122   8.683
 1640POPC   D2A24604   4.258  39.939   8.355
 1640POPC   C3A24605   4.038  40.022   8.015
 1640POPC   C4A24606   3.982  40.427   7.833
 1640POPC   C1B24607   4.522  40.241   8.737
 1640POPC   C2B24608   4.409  40.456   8.427
 1640POPC   C3B24609   4.422  40.340   8.058
 1640POPC   C4B24610   4.537  39.946   7.896
 1641POPC   NC324611  26.662   7.536  10.026
 1641POPC   PO424612  27.064   7.327   9.447
 1641POPC   GL124613  27.087   7.467   9.049
 1641POPC   GL224614  26.950   7.139   8.966
 1641POPC   C1A24615  26.896   7.535   8.660
 1641POPC   D2A24616  26.920   7.220   8.379
 1641POPC   C3A24617  26.946   7.259   7.949
 1641POPC   C4A24618  26.914   7.587   7.616
 1641POPC   C1B24619  26.656   6.909   8.712
 1641POPC   C2B24620  26.462   7.002   8.329
 1641POPC   C3B24621  26.463   7.374   8.053
 1641POPC   C4B24622  26.432   7.423   7.615
 1642POPC   NC324623  15.317  18.259   9.540
 1642POPC   PO424624  16.016  18.230   9.646
 1642POPC   GL124625  15.982  18.366   9.225
 1642POPC   GL224626  15.636  18.453   9.178
 1642POPC   C1A24627  15.867  18.273   8.777
 1642POPC   D2A24628  15.868  18.027   8.401
 1642POPC   C3A24629  15.983  18.282   8.097
 1642POPC   C4A24630  15.951  18.204   7.704
 1642POPC   C1B24631  15.589  18.690   8.779
 1642POPC   C2B24632  15.562  18.510   8.341
 1642POPC   C3B24633  15.663  18.608   7.884
 1642POPC   C4B24634  15.573  18.445   7.458
 1643POPC   NC324635  24.639   1.890   9.525
 1643POPC   PO424636  24.056   1.713   9.315
 1643POPC   GL124637  24.388   1.872   9.059
 1643POPC   GL224638  24.649   2.110   9.079
 1643POPC   C1A24639  24.698   1.760   8.729
 1643POPC   D2A24640  24.667   1.959   8.330
 1643POPC   C3A24641  24.696   1.771   7.935
 1643POPC   C4A24642  24.298   1.846   7.792
 1643POPC   C1B24643  24.883   2.247   8.706
 1643POPC   C2B24644  24.771   2.446   8.302
 1643POPC   C3B24645  24.600   2.294   7.922
 1643POPC   C4B24646  24.659   2.120   7.539
 1644POPC   NC324647  28.119  27.571   9.486
 1644POPC   PO424648  28.703  28.033   9.406
 1644POPC   GL124649  28.502  27.823   9.006
 1644POPC   GL224650  28.130  27.689   8.997
 1644POPC   C1A24651  28.565  27.506   8.672
 1644POPC   D2A24652  28.255  27.298   8.408
 1644POPC   C3A24653  28.281  27.477   8.012
 1644POPC   C4A24654  28.638  27.717   7.839
 1644POPC   C1B24655  28.157  27.780   8.581
 1644POPC   C2B24656  28.371  27.968   8.243
 1644POPC   C3B24657  28.193  27.964   7.831
 1644POPC   C4B24658  28.020  27.600   7.581
 1645POPC   NC324659  28.880  38.268   9.470
 1645POPC   PO424660  28.932  37.531   9.469
 1645POPC   GL124661  29.026  37.854   9.180
 1645POPC   GL224662  29.360  37.973   9.107
 1645POPC   C1A24663  29.078  37.717   8.759
 1645POPC   D2A24664  29.357  37.810   8.452
 1645POPC   C3A24665  29.252  37.539   8.140
 1645POPC   C4A24666  29.171  37.592   7.730
 1645POPC   C1B24667  29.064  38.229   8.822
 1645POPC   C2B24668  28.952  38.132   8.400
 1645POPC   C3B24669  29.111  38.037   8.014
 1645POPC   C4B24670  28.973  38.049   7.602
 1646POPC   NC324671   9.136   8.602   9.366
 1646POPC   PO424672   8.676   8.193   9.661
 1646POPC   GL124673   8.689   8.101   9.167
 1646POPC   GL224674   8.773   8.430   9.052
 1646POPC   C1A24675   8.934   7.806   8.830
 1646POPC   D2A24676   8.974   7.604   8.388
 1646POPC   C3A24677   8.960   7.770   7.963
 1646POPC   C4A24678   9.078   8.181   7.813
 1646POPC   C1B24679   9.067   8.368   8.709
 1646POPC   C2B24680   8.969   8.122   8.355
 1646POPC   C3B24681   8.651   8.224   8.077
 1646POPC   C4B24682   8.763   8.590   7.809
 1647POPC   NC324683  26.676  31.813   9.448
 1647POPC   PO424684  26.779  32.418   9.712
 1647POPC   GL124685  26.904  32.370   9.289
 1647POPC   GL224686  27.087  32.043   9.252
 1647POPC   C1A24687  26.919  32.502   8.850
 1647POPC   D2A24688  27.011  32.256   8.463
 1647POPC   C3A24689  26.884  32.411   8.031
 1647POPC   C4A24690  26.551  32.162   7.832
 1647POPC   C1B24691  27.211  31.894   8.843
 1647POPC   C2B24692  27.099  31.684   8.439
 1647POPC   C3B24693  27.011  31.891   8.040
 1647POPC   C4B24694  27.281  32.176   7.803
 1648POPC   NC324695  29.481   8.619   9.813
 1648POPC   PO424696  29.923   9.036   9.449
 1648POPC   GL124697  29.867   8.917   9.037
 1648POPC   GL224698  29.535   9.074   9.083
 1648POPC   C1A24699  29.958   8.686   8.653
 1648POPC   D2A24700  30.093   8.816   8.280
 1648POPC   C3A24701  29.972   8.582   7.977
 1648POPC   C4A24702  29.942   8.780   7.600
 1648POPC   C1B24703  29.482   8.880   8.707
 1648POPC   C2B24704  29.657   9.047   8.369
 1648POPC   C3B24705  29.728   9.040   7.969
 1648POPC   C4B24706  29.802   9.324   7.661
 1649POPC   NC324707   8.964   9.584   9.394
 1649POPC   PO424708   9.145  10.242   9.478
 1649POPC   GL124709   9.091  10.026   9.102
 1649POPC   GL224710   8.746   9.888   9.015
 1649POPC   C1A24711   9.168   9.773   8.755
 1649POPC   D2A24712   9.123   9.820   8.344
 1649POPC   C3A24713   9.156   9.621   8.000
 1649POPC   C4A24714   8.944   9.875   7.705
 1649POPC   C1B24715   8.694   9.636   8.583
 1649POPC   C2B24716   8.666   9.587   8.086
 1649POPC   C3B24717   8.499   9.608   7.623
 1649POPC   C4B24718   8.636   9.490   7.193
 1650POPC   NC324719   4.015  13.966   9.726
 1650POPC   PO424720   4.532  13.579   9.517
 1650POPC   GL124721   4.543  13.651   9.110
 1650POPC   GL224722   4.674  13.995   9.098
 1650POPC   C1A24723   4.224  13.461   8.829
 1650POPC   D2A24724   4.072  13.205   8.468
 1650POPC   C3A24725   4.300  13.273   8.082
 1650POPC   C4A24726   4.285  13.411   7.655
 1650POPC   C1B24727   4.667  13.840   8.651
 1650POPC   C2B24728   4.314  13.679   8.382
 1650POPC   C3B24729   4.222  13.811   7.978
 1650POPC   C4B24730   4.453  13.884   7.606
 1651POPC   NC324731   9.978  22.585   9.444
 1651POPC   PO424732  10.031  23.252   9.428
 1651POPC   GL124733  10.016  22.977   9.095
 1651POPC   GL224734  10.262  22.990   8.824
 1651POPC   C1A24735   9.767  22.762   8.791
 1651POPC   D2A24736   9.540  22.937   8.448
 1651POPC   C3A24737   9.714  22.808   8.067
 1651POPC   C4A24738   9.470  22.807   7.702
 1651POPC   C1B24739   9.911  23.278   8.693
 1651POPC   C2B24740   9.662  23.435   8.355
 1651POPC   C3B24741   9.695  23.281   7.913
 1651POPC   C4B24742   9.957  22.966   7.648
 1652POPC   NC324743  31.622  23.186   9.353
 1652POPC   PO424744  31.195  23.666   9.553
 1652POPC   GL124745  31.423  23.668   9.163
 1652POPC   GL224746  31.776  23.662   9.252
 1652POPC   C1A24747  31.310  23.578   8.727
 1652POPC   D2A24748  31.305  23.465   8.289
 1652POPC   C3A24749  31.141  23.706   7.921
 1652POPC   C4A24750  31.094  23.528   7.490
 1652POPC   C1B24751  31.832  23.581   8.814
 1652POPC   C2B24752  32.006  23.641   8.408
 1652POPC   C3B24753  31.797  23.560   8.047
 1652POPC   C4B24754  31.619  23.748   7.689
 1653POPC   NC324755  25.171   0.645   9.525
 1653POPC   PO424756  25.312   0.004   9.405
 1653POPC   GL124757  25.455   0.294   9.120
 1653POPC   GL224758  25.550   0.616   9.171
 1653POPC   C1A24759  25.524   0.298   8.715
 1653POPC   D2A24760  25.331   0.126   8.380
 1653POPC   C3A24761  25.224   0.386   8.077
 1653POPC   C4A24762  25.364   0.314   7.679
 1653POPC   C1B24763  25.231   0.702   8.854
 1653POPC   C2B24764  25.237   0.792   8.423
 1653POPC   C3B24765  25.170   0.873   7.965
 1653POPC   C4B24766  25.407   0.844   7.574
 1654POPC   NC324767  32.407  30.259   9.396
 1654POPC   PO424768  32.766  30.859   9.488
 1654POPC   GL124769  32.899  30.794   9.068
 1654POPC   GL224770  33.225  30.891   9.173
 1654POPC   C1A24771  32.876  30.497   8.692
 1654POPC   D2A24772  32.810  30.328   8.266
 1654POPC   C3A24773  32.690  30.590   7.926
 1654POPC   C4A24774  32.795  30.581   7.491
 1654POPC   C1B24775  33.334  30.691   8.782
 1654POPC   C2B24776  33.258  30.591   8.326
 1654POPC   C3B24777  33.199  30.577   7.876
 1654POPC   C4B24778  33.231  30.879   7.530
 1655POPC   NC324779  43.091   9.940   9.911
 1655POPC   PO424780  43.301   9.537   9.403
 1655POPC   GL124781  43.060   9.576   9.092
 1655POPC   GL224782  42.795   9.746   9.268
 1655POPC   C1A24783  43.100   9.545   8.627
 1655POPC   D2A24784  43.250   9.797   8.257
 1655POPC   C3A24785  43.183   9.574   7.888
 1655POPC   C4A24786  42.942   9.276   7.655
 1655POPC   C1B24787  42.682   9.756   8.836
 1655POPC   C2B24788  42.816   9.954   8.463
 1655POPC   C3B24789  42.839  10.005   8.007
 1655POPC   C4B24790  42.756  10.159   7.603
 1656POPC   NC324791  25.869  23.270   9.513
 1656POPC   PO424792  26.246  23.879   9.385
 1656POPC   GL124793  25.996  23.671   9.079
 1656POPC   GL224794  26.178  23.385   9.104
 1656POPC   C1A24795  26.063  23.682   8.632
 1656POPC   D2A24796  26.155  23.854   8.231
 1656POPC   C3A24797  25.950  23.702   7.882
 1656POPC   C4A24798  26.048  23.837   7.514
 1656POPC   C1B24799  26.469  23.259   8.781
 1656POPC   C2B24800  26.452  23.136   8.364
 1656POPC   C3B24801  26.296  23.368   8.046
 1656POPC   C4B24802  26.225  23.358   7.612
 1657POPC   NC324803  43.394   5.892   9.774
 1657POPC   PO424804  43.963   5.937   9.737
 1657POPC   GL124805  43.906   5.852   9.278
 1657POPC   GL224806  43.869   5.503   9.146
 1657POPC   C1A24807  43.830   5.905   8.811
 1657POPC   D2A24808  43.621   5.861   8.404
 1657POPC   C3A24809  43.696   6.108   8.030
 1657POPC   C4A24810  43.958   6.105   7.630
 1657POPC   C1B24811  44.068   5.470   8.761
 1657POPC   C2B24812  44.109   5.605   8.373
 1657POPC   C3B24813  44.048   5.740   7.992
 1657POPC   C4B24814  43.739   5.617   7.721
 1658POPC   NC324815   7.145  35.140   9.434
 1658POPC   PO424816   7.354  35.827   9.590
 1658POPC   GL124817   7.449  35.574   9.210
 1658POPC   GL224818   7.591  35.240   9.184
 1658POPC   C1A24819   7.408  35.478   8.764
 1658POPC   D2A24820   7.245  35.426   8.352
 1658POPC   C3A24821   7.453  35.602   8.010
 1658POPC   C4A24822   7.528  35.447   7.646
 1658POPC   C1B24823   7.440  34.961   8.829
 1658POPC   C2B24824   7.604  34.857   8.434
 1658POPC   C3B24825   7.464  35.047   8.054
 1658POPC   C4B24826   7.732  34.975   7.740
 1659POPC   NC324827  25.017  28.157   9.279
 1659POPC   PO424828  25.611  28.444   9.461
 1659POPC   GL124829  25.395  28.445   9.081
 1659POPC   GL224830  25.510  28.099   9.032
 1659POPC   C1A24831  25.168  28.537   8.686
 1659POPC   D2A24832  24.940  28.552   8.286
 1659POPC   C3A24833  25.029  28.740   7.872
 1659POPC   C4A24834  25.034  28.545   7.447
 1659POPC   C1B24835  25.578  28.210   8.655
 1659POPC   C2B24836  25.386  28.192   8.313
 1659POPC   C3B24837  25.368  28.404   7.984
 1659POPC   C4B24838  25.525  28.573   7.622
 1660POPC   NC324839  17.355  34.592   9.572
 1660POPC   PO424840  17.976  34.448   9.641
 1660POPC   GL124841  17.717  34.598   9.219
 1660POPC   GL224842  17.736  34.945   9.157
 1660POPC   C1A24843  17.498  34.492   8.787
 1660POPC   D2A24844  17.433  34.681   8.322
 1660POPC   C3A24845  17.516  34.458   7.901
 1660POPC   C4A24846  17.689  34.300   7.466
 1660POPC   C1B24847  17.577  34.981   8.732
 1660POPC   C2B24848  17.808  35.054   8.348
 1660POPC   C3B24849  17.729  34.919   7.944
 1660POPC   C4B24850  17.308  34.963   7.874
 1661POPC   NC324851  21.051  21.410   9.915
 1661POPC   PO424852  20.657  21.645   9.435
 1661POPC   GL124853  20.668  21.361   9.090
 1661POPC   GL224854  20.835  21.575   8.954
 1661POPC   C1A24855  20.624  21.268   8.617
 1661POPC   D2A24856  20.833  21.145   8.240
 1661POPC   C3A24857  20.599  21.332   7.902
 1661POPC   C4A24858  20.333  21.149   7.561
 1661POPC   C1B24859  21.085  21.421   8.655
 1661POPC   C2B24860  20.901  21.651   8.337
 1661POPC   C3B24861  21.052  21.910   8.044
 1661POPC   C4B24862  20.997  21.769   7.612
 1662POPC   NC324863  36.060   8.595   9.411
 1662POPC   PO424864  36.185   9.312   9.429
 1662POPC   GL124865  36.232   9.032   9.132
 1662POPC   GL224866  35.887   8.976   9.123
 1662POPC   C1A24867  36.254   8.989   8.693
 1662POPC   D2A24868  36.248   8.751   8.316
 1662POPC   C3A24869  36.297   8.984   7.905
 1662POPC   C4A24870  36.332   9.012   7.425
 1662POPC   C1B24871  35.794   8.775   8.753
 1662POPC   C2B24872  35.835   9.024   8.383
 1662POPC   C3B24873  35.780   8.889   7.988
 1662POPC   C4B24874  35.873   9.094   7.608
 1663POPC   NC324875  21.199  20.958   9.582
 1663POPC   PO424876  21.306  20.421   9.463
 1663POPC   GL124877  21.426  20.681   9.172
 1663POPC   GL224878  21.085  20.740   9.134
 1663POPC   C1A24879  21.691  20.617   8.807
 1663POPC   D2A24880  21.670  20.441   8.397
 1663POPC   C3A24881  21.546  20.601   8.007
 1663POPC   C4A24882  21.502  20.475   7.584
 1663POPC   C1B24883  20.910  20.912   8.803
 1663POPC   C2B24884  21.114  20.760   8.438
 1663POPC   C3B24885  21.014  20.652   8.025
 1663POPC   C4B24886  21.148  20.825   7.651
 1664POPC   NC324887  43.546  28.248   9.633
 1664POPC   PO424888  43.064  28.735   9.438
 1664POPC   GL124889  43.017  28.371   9.187
 1664POPC   GL224890  43.354  28.208   9.173
 1664POPC   C1A24891  43.127  28.407   8.754
 1664POPC   D2A24892  43.298  28.285   8.386
 1664POPC   C3A24893  43.154  28.419   7.974
 1664POPC   C4A24894  42.914  28.537   7.590
 1664POPC   C1B24895  43.523  28.051   8.807
 1664POPC   C2B24896  43.769  28.034   8.442
 1664POPC   C3B24897  43.581  28.062   8.042
 1664POPC   C4B24898  43.339  28.059   7.660
 1665POPC   NC324899  43.986  39.628   9.616
 1665POPC   PO424900  43.721  38.995   9.643
 1665POPC   GL124901  43.848  39.268   9.266
 1665POPC   GL224902  44.195  39.300   9.163
 1665POPC   C1A24903  43.887  39.331   8.787
 1665POPC   D2A24904  44.132  39.216   8.432
 1665POPC   C3A24905  43.991  39.348   8.020
 1665POPC   C4A24906  43.704  39.263   7.692
 1665POPC   C1B24907  44.250  38.932   8.881
 1665POPC   C2B24908  44.438  38.775   8.482
 1665POPC   C3B24909  44.205  38.787   8.106
 1665POPC   C4B24910  44.193  38.992   7.709
 1666POPC   NC324911  24.216  21.231   9.545
 1666POPC   PO424912  24.869  21.021   9.556
 1666POPC   GL124913  24.577  21.096   9.187
 1666POPC   GL224914  24.547  21.447   9.137
 1666POPC   C1A24915  24.448  21.179   8.734
 1666POPC   D2A24916  24.500  20.965   8.358
 1666POPC   C3A24917  24.380  21.172   7.982
 1666POPC   C4A24918  24.623  21.217   7.637
 1666POPC   C1B24919  24.496  21.696   8.772
 1666POPC   C2B24920  24.425  21.553   8.358
 1666POPC   C3B24921  24.559  21.666   7.965
 1666POPC   C4B24922  24.303  21.603   7.656
 1667POPC   NC324923  34.029   7.081   9.429
 1667POPC   PO424924  33.958   7.745   9.315
 1667POPC   GL124925  33.887   7.422   9.075
 1667POPC   GL224926  33.589   7.223   9.148
 1667POPC   C1A24927  33.753   7.436   8.685
 1667POPC   D2A24928  33.504   7.687   8.435
 1667POPC   C3A24929  33.826   7.742   8.152
 1667POPC   C4A24930  33.950   7.531   7.755
 1667POPC   C1B24931  33.546   6.976   8.756
 1667POPC   C2B24932  33.469   7.165   8.356
 1667POPC   C3B24933  33.474   7.390   7.999
 1667POPC   C4B24934  33.316   7.024   7.819
 1668POPC   NC324935  36.220  14.649   9.478
 1668POPC   PO424936  36.056  14.008   9.500
 1668POPC   GL124937  35.873  14.166   9.110
 1668POPC   GL224938  35.746  14.520   9.166
 1668POPC   C1A24939  36.156  14.216   8.743
 1668POPC   D2A24940  36.380  14.009   8.399
 1668POPC   C3A24941  36.320  14.191   7.976
 1668POPC   C4A24942  36.051  14.424   7.685
 1668POPC   C1B24943  35.742  14.513   8.711
 1668POPC   C2B24944  36.035  14.483   8.316
 1668POPC   C3B24945  36.318  14.715   8.019
 1668POPC   C4B24946  36.157  14.953   7.663
 1669POPC   NC324947  18.650  40.912   9.367
 1669POPC   PO424948  19.254  41.111   9.355
 1669POPC   GL124949  19.177  40.829   9.058
 1669POPC   GL224950  19.315  40.506   9.050
 1669POPC   C1A24951  19.360  40.886   8.664
 1669POPC   D2A24952  19.164  40.786   8.248
 1669POPC   C3A24953  19.024  40.958   7.856
 1669POPC   C4A24954  19.028  41.100   7.441
 1669POPC   C1B24955  19.085  40.470   8.648
 1669POPC   C2B24956  19.002  40.307   8.217
 1669POPC   C3B24957  18.973  40.457   7.784
 1669POPC   C4B24958  18.968  40.565   7.362
 1670POPC   NC324959   4.434  31.558   9.635
 1670POPC   PO424960   3.931  31.718   9.444
 1670POPC   GL124961   4.324  31.678   9.145
 1670POPC   GL224962   4.471  31.351   9.142
 1670POPC   C1A24963   4.607  31.685   8.750
 1670POPC   D2A24964   4.488  31.760   8.292
 1670POPC   C3A24965   4.544  31.499   7.926
 1670POPC   C4A24966   4.483  31.222   7.575
 1670POPC   C1B24967   4.258  31.317   8.712
 1670POPC   C2B24968   4.195  31.298   8.238
 1670POPC   C3B24969   4.030  31.448   7.822
 1670POPC   C4B24970   3.891  31.394   7.378
 1671POPC   NC324971  42.797  35.767   9.566
 1671POPC   PO424972  43.139  36.310   9.530
 1671POPC   GL124973  42.976  36.129   9.154
 1671POPC   GL224974  43.259  35.940   9.077
 1671POPC   C1A24975  43.005  36.141   8.684
 1671POPC   D2A24976  43.033  35.878   8.274
 1671POPC   C3A24977  43.169  36.116   7.956
 1671POPC   C4A24978  43.052  36.429   7.741
 1671POPC   C1B24979  43.402  36.390   8.904
 1671POPC   C2B24980  43.607  36.555   8.511
 1671POPC   C3B24981  43.538  36.480   8.055
 1671POPC   C4B24982  43.525  36.411   7.607
 1672POPC   NC324983  29.005   5.305   9.564
 1672POPC   PO424984  28.986   4.560   9.505
 1672POPC   GL124985  29.176   4.912   9.261
 1672POPC   GL224986  28.852   5.012   9.173
 1672POPC   C1A24987  29.249   5.137   8.855
 1672POPC   D2A24988  29.116   5.161   8.405
 1672POPC   C3A24989  29.302   5.130   7.951
 1672POPC   C4A24990  29.397   4.837   7.567
 1672POPC   C1B24991  28.778   5.322   8.843
 1672POPC   C2B24992  28.677   5.435   8.419
 1672POPC   C3B24993  28.795   5.275   8.032
 1672POPC   C4B24994  28.787   5.387   7.629
 1673POPC   NC324995  36.581  33.061   9.717
 1673POPC   PO424996  35.953  33.066   9.558
 1673POPC   GL124997  36.154  32.876   9.215
 1673POPC   GL224998  35.863  32.896   9.032
 1673POPC   C1A24999  36.293  32.898   8.753
 1673POPC   D2A25000  36.082  32.896   8.331
 1673POPC   C3A25001  36.349  32.860   7.950
 1673POPC   C4A25002  36.234  32.919   7.516
 1673POPC   C1B25003  35.635  32.840   8.651
 1673POPC   C2B25004  35.538  32.854   8.210
 1673POPC   C3B25005  35.823  32.823   7.848
 1673POPC   C4B25006  35.774  32.606   7.440
 1674POPC   NC325007  15.304  21.667   9.462
 1674POPC   PO425008  14.660  21.264   9.438
 1674POPC   GL125009  14.920  21.482   9.103
 1674POPC   GL225010  15.254  21.325   9.071
 1674POPC   C1A25011  15.113  21.630   8.699
 1674POPC   D2A25012  15.179  21.396   8.296
 1674POPC   C3A25013  15.378  21.452   7.888
 1674POPC   C4A25014  15.242  21.602   7.473
 1674POPC   C1B25015  15.490  21.264   8.683
 1674POPC   C2B25016  15.611  21.091   8.247
 1674POPC   C3B25017  15.594  21.004   7.771
 1674POPC   C4B25018  15.621  21.254   7.359
 1675POPC   NC325019   6.056  20.482   9.473
 1675POPC   PO425020   5.447  20.439   9.639
 1675POPC   GL125021   5.565  20.368   9.220
 1675POPC   GL225022   5.706  20.683   9.138
 1675POPC   C1A25023   5.650  20.334   8.771
 1675POPC   D2A25024   5.619  20.638   8.458
 1675POPC   C3A25025   5.678  20.463   8.074
 1675POPC   C4A25026   5.824  20.536   7.681
 1675POPC   C1B25027   6.051  20.716   8.822
 1675POPC   C2B25028   6.138  20.623   8.385
 1675POPC   C3B25029   6.051  20.850   8.035
 1675POPC   C4B25030   6.209  20.882   7.641
 1676POPC   NC325031  20.253  36.097   9.344
 1676POPC   PO425032  19.631  36.238   9.451
 1676POPC   GL125033  19.665  35.876   9.133
 1676POPC   GL225034  20.030  35.718   9.029
 1676POPC   C1A25035  19.494  35.975   8.718
 1676POPC   D2A25036  19.667  36.225   8.349
 1676POPC   C3A25037  19.621  36.127   7.893
 1676POPC   C4A25038  19.317  36.258   7.568
 1676POPC   C1B25039  19.997  36.088   8.760
 1676POPC   C2B25040  20.174  36.386   8.489
 1676POPC   C3B25041  20.104  36.340   8.037
 1676POPC   C4B25042  20.097  35.923   7.780
 1677POPC   NC325043  27.392   6.155   9.565
 1677POPC   PO425044  27.780   6.754   9.625
 1677POPC   GL125045  27.792   6.621   9.214
 1677POPC   GL225046  27.445   6.524   9.212
 1677POPC   C1A25047  28.007   6.699   8.799
 1677POPC   D2A25048  27.915   6.948   8.424
 1677POPC   C3A25049  27.960   6.764   8.017
 1677POPC   C4A25050  28.083   6.948   7.605
 1677POPC   C1B25051  27.505   6.699   8.809
 1677POPC   C2B25052  27.584   6.569   8.401
 1677POPC   C3B25053  27.417   6.671   8.012
 1677POPC   C4B25054  27.122   6.683   7.663
 1678POPC   NC325055  26.134  41.621   9.544
 1678POPC   PO425056  26.454  41.127   9.181
 1678POPC   GL125057  26.067  41.417   9.085
 1678POPC   GL225058  26.062  41.800   9.063
 1678POPC   C1A25059  25.820  41.513   8.706
 1678POPC   D2A25060  26.070  41.362   8.368
 1678POPC   C3A25061  25.976  41.491   7.951
 1678POPC   C4A25062  25.606  41.472   7.769
 1678POPC   C1B25063  26.227  41.815   8.637
 1678POPC   C2B25064  26.346  41.760   8.209
 1678POPC   C3B25065  26.471  41.568   7.832
 1678POPC   C4B25066  26.355  41.560   7.361
 1679POPC   NC325067  35.468  25.377   9.538
 1679POPC   PO425068  35.002  24.944   9.407
 1679POPC   GL125069  35.259  25.153   9.120
 1679POPC   GL225070  35.361  25.519   9.067
 1679POPC   C1A25071  35.189  25.278   8.682
 1679POPC   D2A25072  35.457  25.461   8.396
 1679POPC   C3A25073  35.221  25.321   8.067
 1679POPC   C4A25074  35.360  25.273   7.667
 1679POPC   C1B25075  35.655  25.169   8.836
 1679POPC   C2B25076  35.511  24.908   8.478
 1679POPC   C3B25077  35.627  24.992   8.043
 1679POPC   C4B25078  35.822  25.070   7.647
 1680POPC   NC325079  44.171  38.846   9.561
 1680POPC   PO425080  44.719  38.377   9.678
 1680POPC   GL125081  44.682  38.354   9.242
 1680POPC   GL225082   0.019  38.276   9.168
 1680POPC   C1A25083  44.501  38.372   8.828
 1680POPC   D2A25084  44.699  38.272   8.433
 1680POPC   C3A25085  44.428  38.291   8.073
 1680POPC   C4A25086  44.465  38.549   7.716
 1680POPC   C1B25087   0.007  38.521   8.810
 1680POPC   C2B25088  44.967  38.721   8.405
 1680POPC   C3B25089  44.905  38.528   8.017
 1680POPC   C4B25090  44.959  38.568   7.581
 1681POPC   NC325091  19.127  25.154   9.313
 1681POPC   PO425092  18.604  25.560   9.379
 1681POPC   GL125093  18.835  25.401   8.999
 1681POPC   GL225094  19.244  25.487   8.971
 1681POPC   C1A25095  19.037  25.158   8.681
 1681POPC   D2A25096  19.267  25.114   8.326
 1681POPC   C3A25097  19.111  25.009   7.929
 1681POPC   C4A25098  19.066  25.244   7.559
 1681POPC   C1B25099  19.261  25.578   8.556
 1681POPC   C2B25100  19.068  25.681   8.234
 1681POPC   C3B25101  19.262  25.510   7.954
 1681POPC   C4B25102  19.357  25.669   7.597
 1682POPC   NC325103  42.849   4.100   9.457
 1682POPC   PO425104  43.390   4.550   9.454
 1682POPC   GL125105  43.173   4.581   9.052
 1682POPC   GL225106  43.061   4.264   9.030
 1682POPC   C1A25107  43.009   4.514   8.596
 1682POPC   D2A25108  42.925   4.178   8.289
 1682POPC   C3A25109  42.934   4.421   7.938
 1682POPC   C4A25110  43.310   4.663   7.828
 1682POPC   C1B25111  43.395   4.228   8.713
 1682POPC   C2B25112  43.431   4.360   8.315
 1682POPC   C3B25113  43.362   4.112   7.980
 1682POPC   C4B25114  43.615   3.917   7.692
 1683POPC   NC325115  21.264  29.976   9.627
 1683POPC   PO425116  21.779  29.509   9.393
 1683POPC   GL125117  21.385  29.719   9.176
 1683POPC   GL225118  21.328  30.072   9.133
 1683POPC   C1A25119  21.348  29.685   8.741
 1683POPC   D2A25120  21.548  29.757   8.344
 1683POPC   C3A25121  21.446  29.565   7.973
 1683POPC   C4A25122  21.612  29.583   7.597
 1683POPC   C1B25123  21.514  30.160   8.767
 1683POPC   C2B25124  21.222  30.133   8.429
 1683POPC   C3B25125  21.156  29.989   8.038
 1683POPC   C4B25126  21.493  30.073   7.772
 1684POPC   NC325127  20.485  28.669   9.417
 1684POPC   PO425128  20.804  28.044   9.488
 1684POPC   GL125129  20.769  28.291   9.151
 1684POPC   GL225130  20.430  28.314   9.068
 1684POPC   C1A25131  20.779  28.567   8.780
 1684POPC   D2A25132  20.542  28.585   8.377
 1684POPC   C3A25133  20.824  28.515   8.032
 1684POPC   C4A25134  21.116  28.607   7.696
 1684POPC   C1B25135  20.605  28.081   8.703
 1684POPC   C2B25136  20.641  28.057   8.281
 1684POPC   C3B25137  20.401  28.223   7.986
 1684POPC   C4B25138  20.619  28.283   7.625
 1685POPC   NC325139  16.184  24.259   9.247
 1685POPC   PO425140  15.620  24.258   9.627
 1685POPC   GL125141  15.733  24.484   9.214
 1685POPC   GL225142  16.006  24.721   9.078
 1685POPC   C1A25143  15.712  24.332   8.773
 1685POPC   D2A25144  15.669  24.521   8.372
 1685POPC   C3A25145  15.466  24.326   8.041
 1685POPC   C4A25146  15.580  24.227   7.632
 1685POPC   C1B25147  16.249  24.583   8.702
 1685POPC   C2B25148  16.482  24.339   8.415
 1685POPC   C3B25149  16.156  24.299   8.139
 1685POPC   C4B25150  16.012  24.552   7.835
 1686POPC   NC325151  37.303  23.348   9.339
 1686POPC   PO425152  37.048  23.924   9.533
 1686POPC   GL125153  36.843  23.673   9.165
 1686POPC   GL225154  36.753  23.352   9.205
 1686POPC   C1A25155  36.631  23.684   8.747
 1686POPC   D2A25156  36.677  23.872   8.311
 1686POPC   C3A25157  36.582  23.862   7.862
 1686POPC   C4A25158  36.960  23.796   7.553
 1686POPC   C1B25159  36.940  23.296   8.765
 1686POPC   C2B25160  36.821  23.382   8.358
 1686POPC   C3B25161  36.929  23.463   7.953
 1686POPC   C4B25162  36.874  23.296   7.524
 1687POPC   NC325163  23.039  42.829   9.516
 1687POPC   PO425164  22.571  43.257   9.587
 1687POPC   GL125165  22.850  43.221   9.192
 1687POPC   GL225166  22.920  42.909   9.042
 1687POPC   C1A25167  22.915  43.342   8.744
 1687POPC   D2A25168  23.241  43.412   8.420
 1687POPC   C3A25169  23.143  43.372   7.962
 1687POPC   C4A25170  23.288  42.943   7.813
 1687POPC   C1B25171  22.664  42.901   8.693
 1687POPC   C2B25172  22.843  43.085   8.294
 1687POPC   C3B25173  22.769  43.011   7.843
 1687POPC   C4B25174  22.885  42.639   7.582
 1688POPC   NC325175  12.820  36.356   9.489
 1688POPC   PO425176  13.263  35.853   9.397
 1688POPC   GL125177  12.957  36.015   9.162
 1688POPC   GL225178  12.715  35.786   9.113
 1688POPC   C1A25179  12.626  36.218   8.879
 1688POPC   D2A25180  12.535  36.346   8.450
 1688POPC   C3A25181  12.876  36.219   8.199
 1688POPC   C4A25182  13.093  36.424   7.870
 1688POPC   C1B25183  12.989  35.754   8.756
 1688POPC   C2B25184  13.253  35.886   8.468
 1688POPC   C3B25185  13.104  35.762   8.077
 1688POPC   C4B25186  12.879  35.956   7.765
 1689POPC   NC325187   5.881  42.701   9.669
 1689POPC   PO425188   6.184  43.312   9.787
 1689POPC   GL125189   6.114  43.232   9.287
 1689POPC   GL225190   5.971  42.957   9.207
 1689POPC   C1A25191   5.966  43.304   8.827
 1689POPC   D2A25192   5.761  43.411   8.427
 1689POPC   C3A25193   5.826  43.250   8.040
 1689POPC   C4A25194   5.678  43.116   7.660
 1689POPC   C1B25195   6.206  42.862   8.798
 1689POPC   C2B25196   6.167  43.054   8.379
 1689POPC   C3B25197   6.123  42.835   7.967
 1689POPC   C4B25198   6.253  42.559   7.635
 1690POPC   NC325199  30.449  28.447   9.366
 1690POPC   PO425200  30.783  27.971   9.832
 1690POPC   GL125201  30.852  28.113   9.312
 1690POPC   GL225202  31.094  28.416   9.262
 1690POPC   C1A25203  30.701  28.270   8.826
 1690POPC   D2A25204  30.390  28.590   8.625
 1690POPC   C3A25205  30.179  28.490   8.208
 1690POPC   C4A25206  30.400  28.397   7.802
 1690POPC   C1B25207  31.035  28.661   8.848
 1690POPC   C2B25208  30.888  28.705   8.376
 1690POPC   C3B25209  30.922  28.477   7.956
 1690POPC   C4B25210  30.913  28.033   7.817
 1691POPC   NC325211   3.241  43.276   9.601
 1691POPC   PO425212   3.758  42.821   9.829
 1691POPC   GL125213   3.708  42.952   9.335
 1691POPC   GL225214   3.358  42.899   9.215
 1691POPC   C1A25215   3.801  42.831   8.863
 1691POPC   D2A25216   3.646  42.735   8.432
 1691POPC   C3A25217   3.746  42.965   8.038
 1691POPC   C4A25218   3.655  43.384   7.888
 1691POPC   C1B25219   3.342  43.015   8.765
 1691POPC   C2B25220   3.371  43.247   8.395
 1691POPC   C3B25221   3.194  43.241   7.999
 1691POPC   C4B25222   3.320  43.018   7.702
 1692POPC   NC325223  24.855  21.507   9.545
 1692POPC   PO425224  25.553  21.303   9.444
 1692POPC   GL125225  25.357  21.364   9.088
 1692POPC   GL225226  25.062  21.233   9.133
 1692POPC   C1A25227  25.378  21.214   8.702
 1692POPC   D2A25228  25.416  21.403   8.324
 1692POPC   C3A25229  25.430  21.104   8.025
 1692POPC   C4A25230  25.632  21.226   7.679
 1692POPC   C1B25231  24.900  21.398   8.748
 1692POPC   C2B25232  24.934  21.583   8.325
 1692POPC   C3B25233  25.038  21.450   7.896
 1692POPC   C4B25234  25.110  21.148   7.542
 1693POPC   NC325235  38.679  22.151   9.560
 1693POPC   PO425236  38.084  22.458   9.428
 1693POPC   GL125237  38.336  22.174   9.133
 1693POPC   GL225238  38.656  22.338   9.092
 1693POPC   C1A25239  38.420  21.946   8.712
 1693POPC   D2A25240  38.398  22.098   8.260
 1693POPC   C3A25241  38.410  21.863   7.835
 1693POPC   C4A25242  38.206  21.987   7.412
 1693POPC   C1B25243  38.639  22.413   8.647
 1693POPC   C2B25244  38.668  22.586   8.239
 1693POPC   C3B25245  38.409  22.502   7.935
 1693POPC   C4B25246  38.485  22.331   7.617
 1694POPC   NC325247  31.606  31.594   9.787
 1694POPC   PO425248  31.218  31.244   9.421
 1694POPC   GL125249  31.550  31.420   9.164
 1694POPC   GL225250  31.686  31.770   9.159
 1694POPC   C1A25251  31.463  31.395   8.733
 1694POPC   D2A25252  31.430  31.169   8.357
 1694POPC   C3A25253  31.588  31.276   7.950
 1694POPC   C4A25254  31.353  31.448   7.544
 1694POPC   C1B25255  31.813  31.742   8.731
 1694POPC   C2B25256  31.543  31.715   8.321
 1694POPC   C3B25257  31.566  31.774   7.879
 1694POPC   C4B25258  31.912  31.963   7.689
 1695POPC   NC325259  28.097  26.728   9.646
 1695POPC   PO425260  28.586  27.210   9.605
 1695POPC   GL125261  28.579  26.950   9.241
 1695POPC   GL225262  28.364  26.658   9.191
 1695POPC   C1A25263  28.386  27.005   8.828
 1695POPC   D2A25264  28.267  26.791   8.443
 1695POPC   C3A25265  28.417  26.955   8.060
 1695POPC   C4A25266  28.206  27.110   7.664
 1695POPC   C1B25267  28.249  26.434   8.791
 1695POPC   C2B25268  28.264  26.240   8.401
 1695POPC   C3B25269  28.145  26.459   8.048
 1695POPC   C4B25270  28.345  26.604   7.712
 1696POPC   NC325271  10.186   5.003   9.410
 1696POPC   PO425272  10.704   5.385   9.555
 1696POPC   GL125273  10.562   5.231   9.126
 1696POPC   GL225274  10.724   4.932   9.246
 1696POPC   C1A25275  10.382   5.205   8.665
 1696POPC   D2A25276  10.452   5.338   8.196
 1696POPC   C3A25277  10.335   5.285   7.752
 1696POPC   C4A25278  10.096   5.454   7.381
 1696POPC   C1B25279  10.903   4.974   8.824
 1696POPC   C2B25280  10.796   5.024   8.395
 1696POPC   C3B25281  10.927   5.093   7.962
 1696POPC   C4B25282  10.808   5.212   7.516
 1697POPC   NC325283  23.559  28.532   9.596
 1697POPC   PO425284  24.123  28.253   9.374
 1697POPC   GL125285  23.787  28.400   9.152
 1697POPC   GL225286  23.507  28.185   9.166
 1697POPC   C1A25287  23.767  28.339   8.737
 1697POPC   D2A25288  23.933  28.330   8.349
 1697POPC   C3A25289  23.678  28.370   7.991
 1697POPC   C4A25290  23.935  28.270   7.653
 1697POPC   C1B25291  23.384  28.014   8.781
 1697POPC   C2B25292  23.357  28.232   8.403
 1697POPC   C3B25293  23.282  28.042   7.996
 1697POPC   C4B25294  23.501  28.002   7.604
 1698POPC   NC325295  41.559   9.403   9.474
 1698POPC   PO425296  42.022   8.801   9.414
 1698POPC   GL125297  41.789   8.906   9.050
 1698POPC   GL225298  41.461   8.931   9.070
 1698POPC   C1A25299  41.773   9.232   8.740
 1698POPC   D2A25300  41.530   9.290   8.355
 1698POPC   C3A25301  41.591   9.047   7.995
 1698POPC   C4A25302  41.851   9.173   7.657
 1698POPC   C1B25303  41.424   8.846   8.621
 1698POPC   C2B25304  41.446   8.598   8.223
 1698POPC   C3B25305  41.213   8.650   7.838
 1698POPC   C4B25306  41.410   8.941   7.523
 1699POPC   NC325307  23.078  41.853   9.607
 1699POPC   PO425308  22.735  42.457   9.523
 1699POPC   GL125309  22.700  42.449   9.111
 1699POPC   GL225310  22.497  42.147   9.125
 1699POPC   C1A25311  22.979  42.492   8.737
 1699POPC   D2A25312  23.116  42.206   8.388
 1699POPC   C3A25313  22.957  42.222   7.929
 1699POPC   C4A25314  23.019  42.175   7.415
 1699POPC   C1B25315  22.795  42.031   8.815
 1699POPC   C2B25316  22.604  41.958   8.426
 1699POPC   C3B25317  22.637  41.838   8.025
 1699POPC   C4B25318  22.559  42.099   7.645
 1700POPC   NC325319  16.565   0.456   9.352
 1700POPC   PO425320  17.160   0.720   9.366
 1700POPC   GL125321  16.974   0.445   9.041
 1700POPC   GL225322  16.948   0.104   9.213
 1700POPC   C1A25323  16.778   0.479   8.623
 1700POPC   D2A25324  16.413   0.686   8.414
 1700POPC   C3A25325  16.478   0.688   7.989
 1700POPC   C4A25326  16.887   0.649   7.778
 1700POPC   C1B25327  16.682   0.009   8.821
 1700POPC   C2B25328  16.715   0.023   8.360
 1700POPC   C3B25329  16.655   0.207   7.962
 1700POPC   C4B25330  16.587   0.316   7.526
 1701POPC   NC325331  26.464   8.240   9.442
 1701POPC   PO425332  25.825   8.408   9.446
 1701POPC   GL125333  25.822   8.397   9.034
 1701POPC   GL225334  26.136   8.218   9.052
 1701POPC   C1A25335  25.894   8.272   8.620
 1701POPC   D2A25336  26.201   8.306   8.309
 1701POPC   C3A25337  25.962   8.188   7.994
 1701POPC   C4A25338  25.734   8.429   7.744
 1701POPC   C1B25339  26.427   8.101   8.719
 1701POPC   C2B25340  26.564   7.921   8.281
 1701POPC   C3B25341  26.362   7.888   7.861
 1701POPC   C4B25342  26.199   8.191   7.550
 1702POPC   NC325343  20.547  27.680   9.601
 1702POPC   PO425344  21.007  27.205   9.512
 1702POPC   GL125345  20.825  27.559   9.208
 1702POPC   GL225346  20.492  27.790   9.124
 1702POPC   C1A25347  20.873  27.663   8.798
 1702POPC   D2A25348  21.049  27.757   8.445
 1702POPC   C3A25349  20.870  27.639   8.079
 1702POPC   C4A25350  20.745  27.804   7.701
 1702POPC   C1B25351  20.318  27.606   8.762
 1702POPC   C2B25352  20.460  27.574   8.362
 1702POPC   C3B25353  20.305  27.698   7.935
 1702POPC   C4B25354  20.279  27.664   7.443
 1703POPC   NC325355  19.224   1.513   9.401
 1703POPC   PO425356  18.853   0.956   9.461
 1703POPC   GL125357  18.951   1.153   9.085
 1703POPC   GL225358  18.925   1.498   9.018
 1703POPC   C1A25359  19.160   1.145   8.690
 1703POPC   D2A25360  19.432   1.260   8.329
 1703POPC   C3A25361  19.186   1.220   7.945
 1703POPC   C4A25362  19.115   0.828   7.765
 1703POPC   C1B25363  18.753   1.626   8.708
 1703POPC   C2B25364  18.944   1.476   8.367
 1703POPC   C3B25365  18.902   1.666   8.025
 1703POPC   C4B25366  18.872   1.589   7.642
 1704POPC   NC325367   7.692  20.046   9.728
 1704POPC   PO425368   8.270  20.109   9.377
 1704POPC   GL125369   8.235  19.731   9.107
 1704POPC   GL225370   7.965  19.510   9.229
 1704POPC   C1A25371   8.311  19.668   8.654
 1704POPC   D2A25372   8.240  20.034   8.362
 1704POPC   C3A25373   8.304  19.933   7.964
 1704POPC   C4A25374   8.586  19.584   7.906
 1704POPC   C1B25375   7.925  19.370   8.794
 1704POPC   C2B25376   7.838  19.444   8.358
 1704POPC   C3B25377   8.004  19.303   7.963
 1704POPC   C4B25378   8.113  19.571   7.633
 1705POPC   NC325379  13.201  41.703   9.473
 1705POPC   PO425380  13.653  41.248   9.733
 1705POPC   GL125381  13.666  41.530   9.322
 1705POPC   GL225382  13.811  41.843   9.201
 1705POPC   C1A25383  13.568  41.532   8.858
 1705POPC   D2A25384  13.412  41.667   8.440
 1705POPC   C3A25385  13.614  41.506   8.079
 1705POPC   C4A25386  13.503  41.313   7.695
 1705POPC   C1B25387  13.746  42.000   8.741
 1705POPC   C2B25388  13.788  41.973   8.277
 1705POPC   C3B25389  13.743  41.992   7.835
 1705POPC   C4B25390  13.890  41.960   7.365
 1706POPC   NC325391  43.484  35.257   9.375
 1706POPC   PO425392  44.079  35.070   9.400
 1706POPC   GL125393  43.942  35.414   9.145
 1706POPC   GL225394  43.696  35.686   9.214
 1706POPC   C1A25395  43.957  35.364   8.705
 1706POPC   D2A25396  43.818  35.185   8.312
 1706POPC   C3A25397  44.050  35.334   7.944
 1706POPC   C4A25398  44.162  35.309   7.463
 1706POPC   C1B25399  43.479  35.536   8.811
 1706POPC   C2B25400  43.603  35.630   8.400
 1706POPC   C3B25401  43.534  35.489   7.995
 1706POPC   C4B25402  43.714  35.466   7.600
 1707POPC   NC325403  10.094  30.970   9.483
 1707POPC   PO425404   9.383  30.931   9.509
 1707POPC   GL125405   9.567  30.628   9.221
 1707POPC   GL225406   9.857  30.467   9.293
 1707POPC   C1A25407   9.746  30.719   8.834
 1707POPC   D2A25408   9.648  30.931   8.462
 1707POPC   C3A25409   9.778  30.740   8.108
 1707POPC   C4A25410   9.961  30.866   7.720
 1707POPC   C1B25411  10.166  30.423   8.912
 1707POPC   C2B25412  10.062  30.446   8.464
 1707POPC   C3B25413  10.217  30.497   8.007
 1707POPC   C4B25414  10.226  30.457   7.525
 1708POPC   NC325415  32.761   6.103   9.841
 1708POPC   PO425416  33.316   5.863   9.924
 1708POPC   GL125417  33.082   5.954   9.443
 1708POPC   GL225418  32.705   5.988   9.346
 1708POPC   C1A25419  33.006   6.048   8.931
 1708POPC   D2A25420  32.995   6.187   8.444
 1708POPC   C3A25421  33.045   6.019   7.993
 1708POPC   C4A25422  33.244   6.088   7.545
 1708POPC   C1B25423  32.524   6.256   9.025
 1708POPC   C2B25424  32.519   6.296   8.558
 1708POPC   C3B25425  32.652   6.383   8.105
 1708POPC   C4B25426  32.745   6.259   7.664
 1709POPC   NC325427  40.334   1.325   9.424
 1709POPC   PO425428  39.764   1.533   9.182
 1709POPC   GL125429  39.865   1.086   9.017
 1709POPC   GL225430  40.232   0.982   8.972
 1709POPC   C1A25431  39.803   1.024   8.588
 1709POPC   D2A25432  39.641   1.393   8.324
 1709POPC   C3A25433  39.790   1.336   7.897
 1709POPC   C4A25434  40.023   0.934   7.865
 1709POPC   C1B25435  40.203   1.336   8.715
 1709POPC   C2B25436  40.148   1.261   8.283
 1709POPC   C3B25437  40.304   1.373   7.904
 1709POPC   C4B25438  40.276   1.211   7.502
 1710POPC   NC325439  18.773  44.061   9.818
 1710POPC   PO425440  18.966  43.561   9.440
 1710POPC   GL125441  19.198  43.793   9.132
 1710POPC   GL225442  18.994  43.619   8.940
 1710POPC   C1A25443  19.082  44.090   8.770
 1710POPC   D2A25444  18.775  44.059   8.407
 1710POPC   C3A25445  19.041  44.049   8.061
 1710POPC   C4A25446  19.025  43.931   7.643
 1710POPC   C1B25447  19.027  43.631   8.546
 1710POPC   C2B25448  19.335  43.531   8.313
 1710POPC   C3B25449  19.241  43.557   7.932
 1710POPC   C4B25450  19.254  43.472   7.541
 1711POPC   NC325451  40.443  43.774   9.342
 1711POPC   PO425452  40.168  44.259   9.634
 1711POPC   GL125453  40.024  44.070   9.206
 1711POPC   GL225454  39.993  43.670   9.107
 1711POPC   C1A25455  40.067  44.018   8.747
 1711POPC   D2A25456  40.139  43.707   8.404
 1711POPC   C3A25457  40.158  43.858   7.969
 1711POPC   C4A25458  40.126  43.820   7.494
 1711POPC   C1B25459  39.726  43.616   8.721
 1711POPC   C2B25460  39.626  43.761   8.288
 1711POPC   C3B25461  39.739  43.546   7.891
 1711POPC   C4B25462  39.776  43.449   7.432
 1712POPC   NC325463  44.871  25.483   9.592
 1712POPC   PO425464   0.459  25.106   9.529
 1712POPC   GL125465   0.364  25.338   9.167
 1712POPC   GL225466   0.093  25.558   9.135
 1712POPC   C1A25467   0.233  25.185   8.780
 1712POPC   D2A25468   0.452  25.205   8.393
 1712POPC   C3A25469   0.312  25.051   8.002
 1712POPC   C4A25470   0.509  25.286   7.694
 1712POPC   C1B25471   0.277  25.690   8.769
 1712POPC   C2B25472   0.089  25.665   8.406
 1712POPC   C3B25473   0.238  25.559   8.035
 1712POPC   C4B25474   0.077  25.590   7.639
 1713POPC   NC325475  40.950  32.356   9.507
 1713POPC   PO425476  40.487  31.855   9.516
 1713POPC   GL125477  40.700  31.865   9.122
 1713POPC   GL225478  40.971  32.069   9.110
 1713POPC   C1A25479  40.679  32.058   8.702
 1713POPC   D2A25480  40.504  32.254   8.369
 1713POPC   C3A25481  40.652  32.179   7.987
 1713POPC   C4A25482  40.522  31.906   7.677
 1713POPC   C1B25483  41.112  32.340   8.782
 1713POPC   C2B25484  40.997  32.390   8.369
 1713POPC   C3B25485  41.143  32.298   7.978
 1713POPC   C4B25486  40.961  32.390   7.601
 1714POPC   NC325487  21.939  33.525   9.653
 1714POPC   PO425488  21.947  32.822   9.688
 1714POPC   GL125489  22.116  32.918   9.276
 1714POPC   GL225490  22.378  32.718   9.213
 1714POPC   C1A25491  22.207  33.094   8.841
 1714POPC   D2A25492  22.055  33.053   8.406
 1714POPC   C3A25493  22.239  33.226   8.031
 1714POPC   C4A25494  22.015  33.452   7.733
 1714POPC   C1B25495  22.329  32.580   8.787
 1714POPC   C2B25496  22.437  32.733   8.365
 1714POPC   C3B25497  22.445  32.763   7.909
 1714POPC   C4B25498  22.414  33.049   7.558
 1715POPC   NC325499   9.070   7.003   9.424
 1715POPC   PO425500   8.769   6.486   9.439
 1715POPC   GL125501   8.798   6.722   9.082
 1715POPC   GL225502   9.147   6.635   9.057
 1715POPC   C1A25503   8.926   6.902   8.678
 1715POPC   D2A25504   9.041   6.642   8.342
 1715POPC   C3A25505   8.770   6.598   7.988
 1715POPC   C4A25506   8.817   6.916   7.700
 1715POPC   C1B25507   9.420   6.685   8.734
 1715POPC   C2B25508   9.506   6.845   8.317
 1715POPC   C3B25509   9.284   6.760   7.901
 1715POPC   C4B25510   9.276   6.940   7.478
 1716POPC   NC325511  27.124  41.643   9.661
 1716POPC   PO425512  26.497  41.311   9.683
 1716POPC   GL125513  26.571  41.610   9.260
 1716POPC   GL225514  26.916  41.704   9.173
 1716POPC   C1A25515  26.639  41.558   8.764
 1716POPC   D2A25516  26.611  41.333   8.358
 1716POPC   C3A25517  26.930  41.462   8.057
 1716POPC   C4A25518  26.922  41.535   7.583
 1716POPC   C1B25519  27.010  41.893   8.768
 1716POPC   C2B25520  26.795  41.911   8.374
 1716POPC   C3B25521  26.858  41.947   7.928
 1716POPC   C4B25522  26.628  41.975   7.564
 1717POPC   NC325523  10.903  30.883   9.475
 1717POPC   PO425524  10.284  30.500   9.543
 1717POPC   GL125525  10.609  30.526   9.232
 1717POPC   GL225526  10.540  30.845   9.105
 1717POPC   C1A25527  10.669  30.409   8.813
 1717POPC   D2A25528  10.549  30.573   8.431
 1717POPC   C3A25529  10.719  30.400   8.094
 1717POPC   C4A25530  10.665  30.287   7.708
 1717POPC   C1B25531  10.225  30.918   8.800
 1717POPC   C2B25532  10.171  30.939   8.381
 1717POPC   C3B25533  10.484  30.969   8.107
 1717POPC   C4B25534  10.557  30.786   7.726
 1718POPC   NC325535  35.944  21.416   9.418
 1718POPC   PO425536  36.529  21.586   9.518
 1718POPC   GL125537  36.392  21.398   9.160
 1718POPC   GL225538  36.280  21.050   9.258
 1718POPC   C1A25539  36.118  21.378   8.816
 1718POPC   D2A25540  36.079  21.546   8.460
 1718POPC   C3A25541  35.957  21.269   8.158
 1718POPC   C4A25542  35.932  21.359   7.713
 1718POPC   C1B25543  36.465  20.996   8.868
 1718POPC   C2B25544  36.406  21.153   8.456
 1718POPC   C3B25545  36.409  21.011   8.060
 1718POPC   C4B25546  36.415  21.109   7.665
 1719POPC   NC325547  25.131  34.490   9.427
 1719POPC   PO425548  25.849  34.381   9.447
 1719POPC   GL125549  25.594  34.577   9.162
 1719POPC   GL225550  25.456  34.258   9.069
 1719POPC   C1A25551  25.302  34.736   8.845
 1719POPC   D2A25552  25.050  34.780   8.459
 1719POPC   C3A25553  25.252  34.634   8.053
 1719POPC   C4A25554  25.069  34.746   7.660
 1719POPC   C1B25555  25.801  34.303   8.751
 1719POPC   C2B25556  25.831  34.417   8.320
 1719POPC   C3B25557  25.718  34.251   7.915
 1719POPC   C4B25558  25.329  34.300   7.640
 1720POPC   NC325559  43.593  44.584   9.493
 1720POPC   PO425560  44.241  44.832   9.489
 1720POPC   GL125561  44.043  44.789   9.105
 1720POPC   GL225562  43.681  44.759   9.020
 1720POPC   C1A25563  44.043  44.492   8.777
 1720POPC   D2A25564  43.912  44.547   8.377
 1720POPC   C3A25565  44.044  44.316   8.045
 1720POPC   C4A25566  43.941  44.195   7.649
 1720POPC   C1B25567  43.824  44.984   8.659
 1720POPC   C2B25568  43.892   0.124   8.253
 1720POPC   C3B25569  43.924  44.842   7.965
 1720POPC   C4B25570  43.734  44.710   7.621
 1721POPC   NC325571  12.164  25.542   9.619
 1721POPC   PO425572  12.065  26.230   9.518
 1721POPC   GL125573  11.966  26.280   9.136
 1721POPC   GL225574  12.042  25.934   9.045
 1721POPC   C1A25575  11.950  26.446   8.751
 1721POPC   D2A25576  12.164  26.361   8.376
 1721POPC   C3A25577  12.009  26.465   7.971
 1721POPC   C4A25578  11.901  26.205   7.640
 1721POPC   C1B25579  12.003  25.918   8.596
 1721POPC   C2B25580  11.787  25.965   8.173
 1721POPC   C3B25581  11.680  25.770   7.723
 1721POPC   C4B25582  11.772  25.882   7.242
 1722POPC   NC325583  43.036  33.414   9.231
 1722POPC   PO425584  43.371  34.000   9.308
 1722POPC   GL125585  43.222  33.807   9.009
 1722POPC   GL225586  43.420  33.495   8.927
 1722POPC   C1A25587  43.002  33.715   8.651
 1722POPC   D2A25588  42.854  33.918   8.316
 1722POPC   C3A25589  42.952  33.574   8.062
 1722POPC   C4A25590  42.989  33.503   7.642
 1722POPC   C1B25591  43.510  33.828   8.619
 1722POPC   C2B25592  43.350  33.878   8.227
 1722POPC   C3B25593  43.406  33.750   7.831
 1722POPC   C4B25594  43.735  33.460   7.727
 1723POPC   NC325595  19.256  26.077   9.527
 1723POPC   PO425596  19.908  25.968   9.655
 1723POPC   GL125597  19.901  25.887   9.221
 1723POPC   GL225598  19.569  25.801   9.185
 1723POPC   C1A25599  19.745  26.185   8.874
 1723POPC   D2A25600  19.889  26.425   8.514
 1723POPC   C3A25601  19.869  26.228   8.084
 1723POPC   C4A25602  20.113  26.358   7.698
 1723POPC   C1B25603  19.725  25.686   8.766
 1723POPC   C2B25604  19.681  25.764   8.326
 1723POPC   C3B25605  19.771  25.681   7.905
 1723POPC   C4B25606  19.733  26.018   7.612
 1724POPC   NC325607  36.250   8.051   9.555
 1724POPC   PO425608  36.432   8.534   9.141
 1724POPC   GL125609  36.138   8.244   9.030
 1724POPC   GL225610  36.151   7.882   9.097
 1724POPC   C1A25611  36.069   8.344   8.621
 1724POPC   D2A25612  36.034   8.154   8.256
 1724POPC   C3A25613  36.179   8.405   7.956
 1724POPC   C4A25614  36.036   8.627   7.627
 1724POPC   C1B25615  36.163   7.832   8.662
 1724POPC   C2B25616  36.478   7.917   8.310
 1724POPC   C3B25617  36.305   7.903   7.903
 1724POPC   C4B25618  36.280   8.171   7.526
 1725POPC   NC325619  28.819  17.617   9.528
 1725POPC   PO425620  29.338  17.154   9.514
 1725POPC   GL125621  29.161  17.378   9.189
 1725POPC   GL225622  28.860  17.228   9.113
 1725POPC   C1A25623  29.317  17.613   8.842
 1725POPC   D2A25624  29.235  17.606   8.419
 1725POPC   C3A25625  29.405  17.807   8.046
 1725POPC   C4A25626  29.287  17.854   7.622
 1725POPC   C1B25627  28.832  17.431   8.706
 1725POPC   C2B25628  28.719  17.602   8.341
 1725POPC   C3B25629  28.951  17.562   8.016
 1725POPC   C4B25630  28.943  17.461   7.675
 1726POPC   NC325631  32.394  31.123   9.391
 1726POPC   PO425632  32.007  30.629   9.412
 1726POPC   GL125633  32.286  30.682   9.131
 1726POPC   GL225634  32.109  30.952   8.990
 1726POPC   C1A25635  32.379  30.462   8.770
 1726POPC   D2A25636  32.434  30.655   8.380
 1726POPC   C3A25637  32.195  30.486   8.016
 1726POPC   C4A25638  32.334  30.388   7.588
 1726POPC   C1B25639  32.522  30.996   8.772
 1726POPC   C2B25640  32.543  31.204   8.389
 1726POPC   C3B25641  32.394  31.029   8.036
 1726POPC   C4B25642  32.353  30.879   7.646
 1727POPC   NC325643  13.135   6.662   9.449
 1727POPC   PO425644  12.613   7.094   9.397
 1727POPC   GL125645  12.593   6.791   9.090
 1727POPC   GL225646  12.668   6.466   9.211
 1727POPC   C1A25647  12.886   6.711   8.772
 1727POPC   D2A25648  12.984   6.731   8.340
 1727POPC   C3A25649  12.725   6.757   7.981
 1727POPC   C4A25650  12.883   6.903   7.619
 1727POPC   C1B25651  12.781   6.207   8.846
 1727POPC   C2B25652  12.951   6.232   8.417
 1727POPC   C3B25653  12.941   6.292   7.972
 1727POPC   C4B25654  12.702   6.405   7.582
 1728POPC   NC325655  38.318   3.528   9.574
 1728POPC   PO425656  38.988   3.748   9.560
 1728POPC   GL125657  38.779   3.624   9.180
 1728POPC   GL225658  38.541   3.898   9.149
 1728POPC   C1A25659  38.664   3.636   8.702
 1728POPC   D2A25660  38.699   3.847   8.264
 1728POPC   C3A25661  38.624   3.580   7.879
 1728POPC   C4A25662  38.381   3.219   7.712
 1728POPC   C1B25663  38.288   3.987   8.733
 1728POPC   C2B25664  38.189   3.927   8.243
 1728POPC   C3B25665  38.077   3.610   7.851
 1728POPC   C4B25666  37.968   3.394   7.408
 1729POPC   NC325667  27.884  36.907   9.556
 1729POPC   PO425668  28.578  36.877   9.562
 1729POPC   GL125669  28.641  37.033   9.123
 1729POPC   GL225670  28.291  36.994   9.042
 1729POPC   C1A25671  28.590  36.945   8.640
 1729POPC   D2A25672  28.472  37.148   8.231
 1729POPC   C3A25673  28.389  36.824   7.937
 1729POPC   C4A25674  28.547  36.864   7.524
 1729POPC   C1B25675  28.296  37.350   8.738
 1729POPC   C2B25676  28.124  37.496   8.367
 1729POPC   C3B25677  27.954  37.407   7.954
 1729POPC   C4B25678  28.079  37.112   7.623
 1730POPC   NC325679  14.882   0.123   9.336
 1730POPC   PO425680  14.694   0.825   9.386
 1730POPC   GL125681  14.453   0.473   9.216
 1730POPC   GL225682  14.354   0.694   9.006
 1730POPC   C1A25683  14.214   0.273   8.835
 1730POPC   D2A25684  14.493   0.382   8.510
 1730POPC   C3A25685  14.509   0.168   8.114
 1730POPC   C4A25686  14.578   0.312   7.664
 1730POPC   C1B25687  14.098   0.724   8.646
 1730POPC   C2B25688  14.014   0.393   8.312
 1730POPC   C3B25689  14.155   0.495   7.927
 1730POPC   C4B25690  14.531   0.772   7.850
 1731POPC   NC325691  12.132  36.429   9.551
 1731POPC   PO425692  12.497  35.913   9.549
 1731POPC   GL125693  12.233  35.942   9.143
 1731POPC   GL225694  12.029  36.235   9.080
 1731POPC   C1A25695  12.230  35.950   8.685
 1731POPC   D2A25696  12.029  36.290   8.437
 1731POPC   C3A25697  12.186  36.319   8.002
 1731POPC   C4A25698  12.325  35.952   7.747
 1731POPC   C1B25699  11.736  36.007   8.786
 1731POPC   C2B25700  11.651  35.920   8.288
 1731POPC   C3B25701  11.559  35.976   7.816
 1731POPC   C4B25702  11.748  35.986   7.396
 1732POPC   NC325703  40.005   4.723   9.771
 1732POPC   PO425704  39.847   4.178   9.378
 1732POPC   GL125705  39.832   4.323   8.974
 1732POPC   GL225706  40.164   4.309   8.991
 1732POPC   C1A25707  39.977   4.190   8.559
 1732POPC   D2A25708  40.045   3.836   8.288
 1732POPC   C3A25709  39.864   4.080   7.994
 1732POPC   C4A25710  39.967   4.376   7.699
 1732POPC   C1B25711  40.377   4.538   8.690
 1732POPC   C2B25712  40.334   4.723   8.284
 1732POPC   C3B25713  40.361   4.714   7.832
 1732POPC   C4B25714  40.400   4.467   7.444
 1733POPC   NC325715  42.557  40.707   9.574
 1733POPC   PO425716  41.996  40.506   9.264
 1733POPC   GL125717  42.366  40.678   9.099
 1733POPC   GL225718  42.154  40.847   8.891
 1733POPC   C1A25719  42.651  40.863   8.764
 1733POPC   D2A25720  42.524  41.039   8.342
 1733POPC   C3A25721  42.306  40.734   8.115
 1733POPC   C4A25722  42.470  40.556   7.757
 1733POPC   C1B25723  41.851  41.108   8.703
 1733POPC   C2B25724  41.963  41.326   8.342
 1733POPC   C3B25725  42.102  41.200   7.974
 1733POPC   C4B25726  42.183  40.950   7.658
 1734POPC   NC325727  23.948  26.264   9.520
 1734POPC   PO425728  24.089  25.647   9.226
 1734POPC   GL125729  23.819  25.979   9.090
 1734POPC   GL225730  23.506  26.039   9.227
 1734POPC   C1A25731  23.731  26.250   8.719
 1734POPC   D2A25732  24.007  26.211   8.331
 1734POPC   C3A25733  23.802  26.077   7.937
 1734POPC   C4A25734  23.360  26.099   7.828
 1734POPC   C1B25735  23.439  25.836   8.798
 1734POPC   C2B25736  23.548  25.901   8.361
 1734POPC   C3B25737  23.528  25.629   8.007
 1734POPC   C4B25738  23.685  25.642   7.615
 1735POPC   NC325739   6.197  31.508   9.721
 1735POPC   PO425740   6.815  31.206   9.505
 1735POPC   GL125741   6.604  31.450   9.177
 1735POPC   GL225742   6.275  31.560   9.212
 1735POPC   C1A25743   6.668  31.424   8.720
 1735POPC   D2A25744   6.772  31.116   8.352
 1735POPC   C3A25745   6.692  31.395   7.991
 1735POPC   C4A25746   6.753  31.858   8.112
 1735POPC   C1B25747   6.175  31.442   8.781
 1735POPC   C2B25748   6.324  31.347   8.346
 1735POPC   C3B25749   6.153  31.341   7.938
 1735POPC   C4B25750   6.296  31.165   7.527
 1736POPC   NC325751  30.678  32.486   9.592
 1736POPC   PO425752  30.910  31.791   9.678
 1736POPC   GL125753  30.679  32.046   9.317
 1736POPC   GL225754  30.904  32.300   9.163
 1736POPC   C1A25755  30.451  32.303   8.950
 1736POPC   D2A25756  30.257  32.428   8.547
 1736POPC   C3A25757  30.542  32.395   8.170
 1736POPC   C4A25758  30.645  32.066   7.843
 1736POPC   C1B25759  30.871  32.024   8.805
 1736POPC   C2B25760  30.837  32.019   8.358
 1736POPC   C3B25761  31.119  31.999   8.017
 1736POPC   C4B25762  31.160  32.246   7.659
 1737POPC   NC325763   3.097  39.998   9.420
 1737POPC   PO425764   3.683  40.218   9.614
 1737POPC   GL125765   3.572  40.045   9.146
 1737POPC   GL225766   3.281  39.778   9.012
 1737POPC   C1A25767   3.501  40.081   8.672
 1737POPC   D2A25768   3.678  40.247   8.277
 1737POPC   C3A25769   3.572  40.109   7.821
 1737POPC   C4A25770   3.244  39.826   7.766
 1737POPC   C1B25771   3.653  39.619   8.849
 1737POPC   C2B25772   3.785  39.747   8.420
 1737POPC   C3B25773   3.664  39.650   8.037
 1737POPC   C4B25774   3.723  39.491   7.659
 1738POPC   NC325775  37.148  22.591   9.400
 1738POPC   PO425776  36.782  22.099   9.789
 1738POPC   GL125777  36.793  22.146   9.330
 1738POPC   GL225778  37.128  22.075   9.260
 1738POPC   C1A25779  36.836  22.305   8.886
 1738POPC   D2A25780  36.793  22.135   8.448
 1738POPC   C3A25781  36.571  22.039   8.036
 1738POPC   C4A25782  36.745  22.156   7.633
 1738POPC   C1B25783  37.131  21.885   8.818
 1738POPC   C2B25784  37.289  21.931   8.389
 1738POPC   C3B25785  37.077  21.936   8.000
 1738POPC   C4B25786  37.222  22.003   7.588
 1739POPC   NC325787  36.793  19.417   9.378
 1739POPC   PO425788  37.260  19.845   9.478
 1739POPC   GL125789  37.056  19.818   9.090
 1739POPC   GL225790  36.676  19.857   9.095
 1739POPC   C1A25791  37.007  20.033   8.694
 1739POPC   D2A25792  36.718  19.955   8.319
 1739POPC   C3A25793  36.817  20.194   7.934
 1739POPC   C4A25794  37.219  20.023   7.887
 1739POPC   C1B25795  36.763  19.565   8.732
 1739POPC   C2B25796  37.092  19.600   8.441
 1739POPC   C3B25797  37.094  19.547   8.031
 1739POPC   C4B25798  36.806  19.715   7.758
 1740POPC   NC325799  22.702  18.739   9.532
 1740POPC   PO425800  23.121  18.146   9.492
 1740POPC   GL125801  23.012  18.460   9.231
 1740POPC   GL225802  22.678  18.300   9.246
 1740POPC   C1A25803  22.913  18.507   8.812
 1740POPC   D2A25804  22.967  18.194   8.513
 1740POPC   C3A25805  22.853  18.367   8.140
 1740POPC   C4A25806  22.898  18.400   7.727
 1740POPC   C1B25807  22.543  18.156   8.854
 1740POPC   C2B25808  22.443  18.175   8.398
 1740POPC   C3B25809  22.503  18.037   7.945
 1740POPC   C4B25810  22.670  17.997   7.531
 1741POPC   NC325811  41.271   6.196   9.465
 1741POPC   PO425812  40.795   6.804   9.540
 1741POPC   GL125813  40.594   6.646   9.213
 1741POPC   GL225814  40.863   6.411   9.149
 1741POPC   C1A25815  40.494   6.622   8.808
 1741POPC   D2A25816  40.754   6.552   8.467
 1741POPC   C3A25817  40.481   6.599   8.138
 1741POPC   C4A25818  40.594   6.611   7.717
 1741POPC   C1B25819  40.995   6.769   8.853
 1741POPC   C2B25820  41.091   6.923   8.422
 1741POPC   C3B25821  41.025   6.691   8.030
 1741POPC   C4B25822  41.014   6.889   7.627
 1742POPC   NC325823  21.680  38.634   9.479
 1742POPC   PO425824  21.383  38.056   9.612
 1742POPC   GL125825  21.337  38.296   9.242
 1742POPC   GL225826  21.541  38.127   9.005
 1742POPC   C1A25827  21.373  38.593   8.875
 1742POPC   D2A25828  21.279  38.807   8.510
 1742POPC   C3A25829  21.213  38.533   8.176
 1742POPC   C4A25830  21.482  38.607   7.850
 1742POPC   C1B25831  21.106  38.124   8.808
 1742POPC   C2B25832  20.923  38.112   8.375
 1742POPC   C3B25833  21.123  38.009   7.954
 1742POPC   C4B25834  21.511  38.114   7.704
 1743POPC   NC325835  42.626  38.102   9.561
 1743POPC   PO425836  43.032  38.683   9.575
 1743POPC   GL125837  43.182  38.507   9.186
 1743POPC   GL225838  43.087  38.140   9.225
 1743POPC   C1A25839  43.243  38.706   8.775
 1743POPC   D2A25840  43.062  38.958   8.417
 1743POPC   C3A25841  43.155  38.714   8.035
 1743POPC   C4A25842  43.417  38.389   7.835
 1743POPC   C1B25843  42.912  38.233   8.818
 1743POPC   C2B25844  42.910  38.454   8.447
 1743POPC   C3B25845  42.765  38.337   8.073
 1743POPC   C4B25846  42.912  38.196   7.707
 1744POPC   NC325847  38.609  28.149   9.429
 1744POPC   PO425848  38.173  28.570   9.714
 1744POPC   GL125849  38.386  28.559   9.254
 1744POPC   GL225850  38.388  28.233   8.989
 1744POPC   C1A25851  38.646  28.647   8.863
 1744POPC   D2A25852  38.716  28.715   8.398
 1744POPC   C3A25853  38.471  28.399   8.147
 1744POPC   C4A25854  38.364  28.436   7.723
 1744POPC   C1B25855  38.473  27.907   8.685
 1744POPC   C2B25856  38.551  27.878   8.252
 1744POPC   C3B25857  38.543  27.980   7.795
 1744POPC   C4B25858  38.457  28.047   7.346
 1745POPC   NC325859  11.868   4.548   9.431
 1745POPC   PO425860  12.284   3.929   9.380
 1745POPC   GL125861  12.099   4.207   9.085
 1745POPC   GL225862  12.245   4.556   9.086
 1745POPC   C1A25863  12.148   4.111   8.652
 1745POPC   D2A25864  11.967   3.900   8.327
 1745POPC   C3A25865  12.145   4.129   7.999
 1745POPC   C4A25866  12.383   4.038   7.666
 1745POPC   C1B25867  11.905   4.553   8.735
 1745POPC   C2B25868  11.944   4.490   8.299
 1745POPC   C3B25869  11.797   4.578   7.886
 1745POPC   C4B25870  11.610   4.640   7.470
 1746POPC   NC325871  23.050  22.320   9.754
 1746POPC   PO425872  22.551  21.913   9.537
 1746POPC   GL125873  22.767  22.260   9.276
 1746POPC   GL225874  23.167  22.310   9.258
 1746POPC   C1A25875  22.880  22.127   8.850
 1746POPC   D2A25876  23.033  22.320   8.464
 1746POPC   C3A25877  22.779  22.221   8.122
 1746POPC   C4A25878  22.731  21.842   7.859
 1746POPC   C1B25879  23.374  22.245   8.869
 1746POPC   C2B25880  23.528  22.223   8.450
 1746POPC   C3B25881  23.326  22.212   8.021
 1746POPC   C4B25882  23.616  21.997   7.733
 1747POPC   NC325883  42.028  32.916   9.436
 1747POPC   PO425884  42.545  32.604   9.749
 1747POPC   GL125885  42.528  32.860   9.192
 1747POPC   GL225886  42.291  33.135   9.081
 1747POPC   C1A25887  42.243  32.792   8.737
 1747POPC   D2A25888  42.010  32.809   8.343
 1747POPC   C3A25889  42.323  32.743   8.000
 1747POPC   C4A25890  42.442  32.803   7.564
 1747POPC   C1B25891  42.084  33.364   8.750
 1747POPC   C2B25892  41.939  33.429   8.301
 1747POPC   C3B25893  42.037  33.160   7.942
 1747POPC   C4B25894  42.071  33.185   7.508
 1748POPC   NC325895  33.856  43.734   9.629
 1748POPC   PO425896  33.226  43.892   9.602
 1748POPC   GL125897  33.569  43.983   9.270
 1748POPC   GL225898  33.894  43.870   9.153
 1748POPC   C1A25899  33.539  43.892   8.815
 1748POPC   D2A25900  33.658  43.779   8.417
 1748POPC   C3A25901  33.547  44.061   8.093
 1748POPC   C4A25902  33.609  43.998   7.666
 1748POPC   C1B25903  34.084  43.931   8.746
 1748POPC   C2B25904  34.180  43.672   8.407
 1748POPC   C3B25905  34.017  43.763   8.001
 1748POPC   C4B25906  34.129  44.087   7.763
 1749POPC   NC325907   5.476   9.230   9.438
 1749POPC   PO425908   4.842   8.929   9.476
 1749POPC   GL125909   5.130   8.935   9.142
 1749POPC   GL225910   4.913   9.153   8.985
 1749POPC   C1A25911   5.351   9.017   8.735
 1749POPC   D2A25912   5.308   8.746   8.368
 1749POPC   C3A25913   5.373   8.854   7.938
 1749POPC   C4A25914   5.078   8.828   7.596
 1749POPC   C1B25915   4.893   9.092   8.542
 1749POPC   C2B25916   5.163   9.231   8.259
 1749POPC   C3B25917   5.017   9.247   7.872
 1749POPC   C4B25918   5.367   9.331   7.699
 1750POPC   NC325919  35.207  36.752   9.503
 1750POPC   PO425920  35.857  37.074   9.422
 1750POPC   GL125921  35.671  36.905   9.090
 1750POPC   GL225922  35.368  37.010   9.112
 1750POPC   C1A25923  35.674  37.047   8.673
 1750POPC   D2A25924  35.682  36.992   8.235
 1750POPC   C3A25925  35.446  36.666   8.001
 1750POPC   C4A25926  35.531  36.627   7.550
 1750POPC   C1B25927  35.160  37.158   8.785
 1750POPC   C2B25928  35.197  37.023   8.389
 1750POPC   C3B25929  35.255  37.158   7.987
 1750POPC   C4B25930  35.054  36.916   7.703
 1751POPC   NC325931  33.844   4.377   9.987
 1751POPC   PO425932  33.739   4.667   9.637
 1751POPC   GL125933  33.713   4.472   9.206
 1751POPC   GL225934  33.895   4.170   9.154
 1751POPC   C1A25935  33.721   4.448   8.736
 1751POPC   D2A25936  33.770   4.507   8.279
 1751POPC   C3A25937  33.508   4.655   7.896
 1751POPC   C4A25938  33.476   4.587   7.411
 1751POPC   C1B25939  33.913   3.964   8.741
 1751POPC   C2B25940  33.829   3.986   8.296
 1751POPC   C3B25941  33.694   4.172   7.895
 1751POPC   C4B25942  33.930   4.510   7.655
 1752POPC   NC325943  42.112  44.277   9.247
 1752POPC   PO425944  42.489  43.805   9.503
 1752POPC   GL125945  42.540  44.034   9.110
 1752POPC   GL225946  42.213  43.886   8.946
 1752POPC   C1A25947  42.633  43.971   8.672
 1752POPC   D2A25948  42.378  43.917   8.291
 1752POPC   C3A25949  42.639  43.735   7.975
 1752POPC   C4A25950  42.577  43.657   7.512
 1752POPC   C1B25951  41.886  44.063   8.658
 1752POPC   C2B25952  41.692  44.023   8.273
 1752POPC   C3B25953  41.961  43.860   7.931
 1752POPC   C4B25954  42.317  44.063   7.720
 1753POPC   NC325955  14.780   9.044   9.440
 1753POPC   PO425956  14.141   9.162   9.406
 1753POPC   GL125957  14.444   9.095   9.052
 1753POPC   GL225958  14.761   9.312   9.008
 1753POPC   C1A25959  14.366   8.997   8.630
 1753POPC   D2A25960  14.149   8.957   8.271
 1753POPC   C3A25961  14.118   8.580   8.066
 1753POPC   C4A25962  14.239   8.861   7.735
 1753POPC   C1B25963  14.856   8.901   8.780
 1753POPC   C2B25964  14.687   8.634   8.470
 1753POPC   C3B25965  14.602   8.693   8.063
 1753POPC   C4B25966  14.711   8.694   7.641
 1754POPC   NC325967  16.519  39.665   9.395
 1754POPC   PO425968  17.061  40.054   9.424
 1754POPC   GL125969  16.740  40.022   9.121
 1754POPC   GL225970  16.560  40.315   9.134
 1754POPC   C1A25971  16.671  39.824   8.720
 1754POPC   D2A25972  16.829  40.014   8.331
 1754POPC   C3A25973  16.680  39.861   7.957
 1754POPC   C4A25974  16.364  39.973   7.688
 1754POPC   C1B25975  16.687  40.352   8.715
 1754POPC   C2B25976  16.440  40.403   8.373
 1754POPC   C3B25977  16.509  40.418   7.971
 1754POPC   C4B25978  16.838  40.314   7.785
 1755POPC   NC325979  27.292  39.367   9.431
 1755POPC   PO425980  27.716  38.800   9.593
 1755POPC   GL125981  27.539  38.981   9.225
 1755POPC   GL225982  27.706  39.292   9.119
 1755POPC   C1A25983  27.421  39.007   8.796
 1755POPC   D2A25984  27.577  39.345   8.531
 1755POPC   C3A25985  27.514  39.296   8.112
 1755POPC   C4A25986  27.656  39.187   7.692
 1755POPC   C1B25987  27.960  39.553   8.820
 1755POPC   C2B25988  28.074  39.644   8.368
 1755POPC   C3B25989  27.932  39.536   7.934
 1755POPC   C4B25990  27.714  39.634   7.488
 1756POPC   NC325991  26.630  44.510   9.297
 1756POPC   PO425992  26.906   0.096   9.470
 1756POPC   GL125993  26.913  44.921   9.076
 1756POPC   GL225994  27.127  44.626   9.127
 1756POPC   C1A25995  26.815  44.729   8.700
 1756POPC   D2A25996  26.961  44.442   8.409
 1756POPC   C3A25997  26.606  44.438   8.156
 1756POPC   C4A25998  26.496  44.676   7.774
 1756POPC   C1B25999  27.319  44.717   8.712
 1756POPC   C2B26000  27.159  44.949   8.348
 1756POPC   C3B26001  27.009  44.731   7.969
 1756POPC   C4B26002  27.020  44.280   7.901
 1757POPC   NC326003  41.201  33.426   9.184
 1757POPC   PO426004  41.727  33.743   9.547
 1757POPC   GL126005  41.691  33.592   9.135
 1757POPC   GL226006  41.465  33.876   9.054
 1757POPC   C1A26007  41.654  33.625   8.680
 1757POPC   D2A26008  41.484  33.794   8.338
 1757POPC   C3A26009  41.361  33.555   8.014
 1757POPC   C4A26010  41.703  33.519   7.819
 1757POPC   C1B26011  41.173  33.967   8.729
 1757POPC   C2B26012  41.088  34.092   8.313
 1757POPC   C3B26013  41.368  34.046   7.899
 1757POPC   C4B26014  41.433  33.928   7.423
 1758POPC   NC326015  29.048  30.867   9.408
 1758POPC   PO426016  29.157  30.258   9.310
 1758POPC   GL126017  29.165  30.561   9.001
 1758POPC   GL226018  28.823  30.681   8.979
 1758POPC   C1A26019  29.107  30.510   8.568
 1758POPC   D2A26020  28.777  30.333   8.315
 1758POPC   C3A26021  28.876  30.570   7.952
 1758POPC   C4A26022  29.301  30.775   7.857
 1758POPC   C1B26023  29.066  31.009   8.766
 1758POPC   C2B26024  29.251  31.036   8.373
 1758POPC   C3B26025  29.152  31.287   8.030
 1758POPC   C4B26026  28.878  31.101   7.761
 1759POPC   NC326027  22.747  27.996   9.826
 1759POPC   PO426028  22.849  27.317   9.589
 1759POPC   GL126029  22.883  27.528   9.214
 1759POPC   GL226030  22.595  27.679   9.225
 1759POPC   C1A26031  22.947  27.652   8.783
 1759POPC   D2A26032  23.116  27.785   8.410
 1759POPC   C3A26033  22.962  27.633   8.061
 1759POPC   C4A26034  22.754  27.513   7.685
 1759POPC   C1B26035  22.477  27.866   8.834
 1759POPC   C2B26036  22.590  27.808   8.417
 1759POPC   C3B26037  22.518  27.860   8.011
 1759POPC   C4B26038  22.465  27.949   7.612
 1760POPC   NC326039  33.567  25.606   9.406
 1760POPC   PO426040  33.800  26.249   9.499
 1760POPC   GL126041  33.655  26.156   9.105
 1760POPC   GL226042  33.843  25.845   9.052
 1760POPC   C1A26043  33.664  26.269   8.657
 1760POPC   D2A26044  34.064  26.225   8.415
 1760POPC   C3A26045  34.002  26.175   7.974
 1760POPC   C4A26046  33.526  26.185   7.808
 1760POPC   C1B26047  33.822  25.776   8.630
 1760POPC   C2B26048  33.670  25.907   8.224
 1760POPC   C3B26049  33.783  25.728   7.789
 1760POPC   C4B26050  33.859  25.775   7.303
 1761POPC   NC326051  24.409  28.612   9.445
 1761POPC   PO426052  24.653  27.941   9.458
 1761POPC   GL126053  24.546  28.232   9.079
 1761POPC   GL226054  24.694  28.583   9.017
 1761POPC   C1A26055  24.615  28.301   8.621
 1761POPC   D2A26056  24.494  28.345   8.186
 1761POPC   C3A26057  24.854  28.238   7.871
 1761POPC   C4A26058  24.776  28.080   7.445
 1761POPC   C1B26059  24.247  28.639   8.804
 1761POPC   C2B26060  24.081  28.835   8.416
 1761POPC   C3B26061  24.118  28.663   7.974
 1761POPC   C4B26062  24.430  28.421   7.687
 1762POPC   NC326063  30.066  34.692   9.481
 1762POPC   PO426064  29.516  35.044   9.205
 1762POPC   GL126065  29.794  34.687   9.028
 1762POPC   GL226066  30.112  34.453   9.036
 1762POPC   C1A26067  29.929  34.644   8.591
 1762POPC   D2A26068  30.097  34.695   8.201
 1762POPC   C3A26069  29.769  34.838   7.965
 1762POPC   C4A26070  29.524  34.599   7.749
 1762POPC   C1B26071  30.396  34.470   8.672
 1762POPC   C2B26072  30.539  34.361   8.264
 1762POPC   C3B26073  30.369  34.432   7.841
 1762POPC   C4B26074  30.018  34.540   7.566
 1763POPC   NC326075   0.901  43.550   9.622
 1763POPC   PO426076   1.294  44.073   9.478
 1763POPC   GL126077   1.285  43.934   9.082
 1763POPC   GL226078   1.164  43.625   9.183
 1763POPC   C1A26079   1.275  43.715   8.680
 1763POPC   D2A26080   1.474  43.691   8.294
 1763POPC   C3A26081   1.237  43.948   8.027
 1763POPC   C4A26082   1.175  43.861   7.598
 1763POPC   C1B26083   0.957  43.350   8.887
 1763POPC   C2B26084   0.691  43.437   8.563
 1763POPC   C3B26085   0.846  43.709   8.278
 1763POPC   C4B26086   0.758  43.749   7.878
 1764POPC   NC326087  29.373  21.485   9.560
 1764POPC   PO426088  28.905  21.065   9.616
 1764POPC   GL126089  29.049  21.193   9.242
 1764POPC   GL226090  28.828  21.479   9.206
 1764POPC   C1A26091  29.198  21.378   8.856
 1764POPC   D2A26092  29.271  21.583   8.467
 1764POPC   C3A26093  29.331  21.369   8.090
 1764POPC   C4A26094  29.351  21.194   7.690
 1764POPC   C1B26095  28.704  21.374   8.743
 1764POPC   C2B26096  28.813  21.441   8.278
 1764POPC   C3B26097  28.887  21.187   7.898
 1764POPC   C4B26098  28.894  21.169   7.439
 1765POPC   NC326099   0.022  28.752   9.508
 1765POPC   PO426100   0.618  28.286   9.507
 1765POPC   GL126101   0.247  28.313   9.242
 1765POPC   GL226102   0.361  28.594   9.105
 1765POPC   C1A26103   0.161  28.245   8.787
 1765POPC   D2A26104   0.347  28.134   8.378
 1765POPC   C3A26105   0.181  28.279   7.992
 1765POPC   C4A26106   0.172  28.546   7.577
 1765POPC   C1B26107   0.550  28.553   8.678
 1765POPC   C2B26108   0.435  28.639   8.249
 1765POPC   C3B26109   0.618  28.526   7.848
 1765POPC   C4B26110   0.992  28.583   7.594
 1766POPC   NC326111   6.745  33.968   9.629
 1766POPC   PO426112   6.297  33.515   9.714
 1766POPC   GL126113   6.414  33.770   9.297
 1766POPC   GL226114   6.785  33.922   9.113
 1766POPC   C1A26115   6.328  33.985   8.923
 1766POPC   D2A26116   6.617  33.896   8.571
 1766POPC   C3A26117   6.624  33.950   8.099
 1766POPC   C4A26118   6.486  33.848   7.659
 1766POPC   C1B26119   7.034  34.123   8.716
 1766POPC   C2B26120   7.208  34.166   8.244
 1766POPC   C3B26121   7.127  33.957   7.797
 1766POPC   C4B26122   7.079  34.014   7.307
 1767POPC   NC326123  34.423  22.218   9.466
 1767POPC   PO426124  35.067  21.970   9.506
 1767POPC   GL126125  34.765  22.009   9.150
 1767POPC   GL226126  34.512  21.717   9.107
 1767POPC   C1A26127  34.481  22.151   8.792
 1767POPC   D2A26128  34.305  22.149   8.370
 1767POPC   C3A26129  34.515  22.330   8.009
 1767POPC   C4A26130  34.759  22.527   7.670
 1767POPC   C1B26131  34.807  21.731   8.738
 1767POPC   C2B26132  34.810  21.960   8.389
 1767POPC   C3B26133  34.693  21.832   8.005
 1767POPC   C4B26134  34.983  21.728   7.711
 1768POPC   NC326135  37.003  33.324   9.307
 1768POPC   PO426136  36.838  32.700   9.523
 1768POPC   GL126137  36.674  32.906   9.155
 1768POPC   GL226138  36.525  33.217   9.126
 1768POPC   C1A26139  36.812  33.060   8.748
 1768POPC   D2A26140  37.110  32.922   8.480
 1768POPC   C3A26141  36.954  33.147   8.136
 1768POPC   C4A26142  36.897  33.023   7.732
 1768POPC   C1B26143  36.427  33.411   8.734
 1768POPC   C2B26144  36.479  33.222   8.331
 1768POPC   C3B26145  36.539  33.350   7.897
 1768POPC   C4B26146  36.581  33.296   7.440
 1769POPC   NC326147  37.363  39.426   9.362
 1769POPC   PO426148  36.966  38.927   9.600
 1769POPC   GL126149  36.924  39.024   9.157
 1769POPC   GL226150  36.614  38.851   9.098
 1769POPC   C1A26151  37.084  39.165   8.764
 1769POPC   D2A26152  37.357  39.009   8.412
 1769POPC   C3A26153  37.276  39.071   7.996
 1769POPC   C4A26154  36.967  39.326   7.870
 1769POPC   C1B26155  36.698  38.851   8.639
 1769POPC   C2B26156  36.801  39.161   8.336
 1769POPC   C3B26157  36.529  39.437   8.121
 1769POPC   C4B26158  36.506  39.156   7.775
 1770POPC   NC326159  39.021   3.164   9.488
 1770POPC   PO426160  38.819   2.508   9.603
 1770POPC   GL126161  39.028   2.709   9.233
 1770POPC   GL226162  39.370   2.838   9.223
 1770POPC   C1A26163  38.972   2.859   8.823
 1770POPC   D2A26164  38.905   2.651   8.447
 1770POPC   C3A26165  39.122   2.716   8.091
 1770POPC   C4A26166  39.363   2.714   7.747
 1770POPC   C1B26167  39.476   2.973   8.811
 1770POPC   C2B26168  39.250   3.087   8.434
 1770POPC   C3B26169  39.395   3.146   8.022
 1770POPC   C4B26170  39.600   3.320   7.704
 1771POPC   NC326171  42.555  38.865   9.460
 1771POPC   PO426172  42.110  38.298   9.586
 1771POPC   GL126173  42.340  38.363   9.202
 1771POPC   GL226174  42.672  38.460   9.194
 1771POPC   C1A26175  42.353  38.413   8.766
 1771POPC   D2A26176  42.115  38.339   8.392
 1771POPC   C3A26177  42.287  38.476   8.049
 1771POPC   C4A26178  42.273  38.594   7.657
 1771POPC   C1B26179  42.733  38.753   8.840
 1771POPC   C2B26180  42.517  38.777   8.435
 1771POPC   C3B26181  42.640  38.866   8.042
 1771POPC   C4B26182  42.786  38.688   7.683
 1772POPC   NC326183  42.041  43.297   9.431
 1772POPC   PO426184  42.505  42.888   9.680
 1772POPC   GL126185  42.418  42.984   9.243
 1772POPC   GL226186  42.352  42.699   9.091
 1772POPC   C1A26187  42.421  43.251   8.858
 1772POPC   D2A26188  42.550  43.476   8.478
 1772POPC   C3A26189  42.259  43.442   8.124
 1772POPC   C4A26190  42.401  43.245   7.758
 1772POPC   C1B26191  42.382  42.784   8.653
 1772POPC   C2B26192  42.394  42.944   8.253
 1772POPC   C3B26193  42.245  42.784   7.875
 1772POPC   C4B26194  42.452  42.705   7.490
 1773POPC   NC326195  19.299   0.755   9.461
 1773POPC   PO426196  18.927   0.222   9.336
 1773POPC   GL126197  19.260   0.380   9.099
 1773POPC   GL226198  19.151   0.693   8.983
 1773POPC   C1A26199  19.357   0.337   8.671
 1773POPC   D2A26200  19.015   0.211   8.416
 1773POPC   C3A26201  18.994   0.386   8.048
 1773POPC   C4A26202  19.020   0.348   7.615
 1773POPC   C1B26203  18.904   0.684   8.626
 1773POPC   C2B26204  18.870   0.845   8.226
 1773POPC   C3B26205  18.631   0.671   7.862
 1773POPC   C4B26206  18.701   0.721   7.431
 1774POPC   NC326207  44.680  15.528   9.658
 1774POPC   PO426208  44.913  14.904   9.587
 1774POPC   GL126209   0.030  15.091   9.180
 1774POPC   GL226210  44.810  15.384   9.189
 1774POPC   C1A26211  44.963  15.004   8.705
 1774POPC   D2A26212  44.646  14.955   8.375
 1774POPC   C3A26213  44.684  15.166   7.963
 1774POPC   C4A26214  44.818  15.043   7.576
 1774POPC   C1B26215  44.909  15.507   8.783
 1774POPC   C2B26216  44.821  15.494   8.342
 1774POPC   C3B26217   0.069  15.558   7.961
 1774POPC   C4B26218   0.014  15.507   7.520
 1775POPC   NC326219  12.289  37.979   9.498
 1775POPC   PO426220  12.879  37.517   9.525
 1775POPC   GL126221  12.865  37.706   9.155
 1775POPC   GL226222  12.533  37.605   9.145
 1775POPC   C1A26223  13.138  37.796   8.803
 1775POPC   D2A26224  13.086  37.631   8.398
 1775POPC   C3A26225  13.245  37.719   7.986
 1775POPC   C4A26226  12.981  37.742   7.640
 1775POPC   C1B26227  12.520  37.854   8.797
 1775POPC   C2B26228  12.587  37.981   8.412
 1775POPC   C3B26229  12.706  37.808   8.057
 1775POPC   C4B26230  12.539  38.002   7.704
 1776POPC   NC326231  30.042  30.911   9.512
 1776POPC   PO426232  29.764  30.373   9.590
 1776POPC   GL126233  29.642  30.503   9.176
 1776POPC   GL226234  29.933  30.674   9.068
 1776POPC   C1A26235  29.606  30.611   8.715
 1776POPC   D2A26236  29.986  30.622   8.444
 1776POPC   C3A26237  29.812  30.616   8.056
 1776POPC   C4A26238  29.836  30.754   7.657
 1776POPC   C1B26239  30.117  30.978   8.811
 1776POPC   C2B26240  30.299  31.141   8.451
 1776POPC   C3B26241  30.140  31.033   8.039
 1776POPC   C4B26242  30.214  31.144   7.613
 1777POPC   NC326243  39.788   9.548   9.413
 1777POPC   PO426244  40.219  10.003   9.558
 1777POPC   GL126245  40.122   9.832   9.134
 1777POPC   GL226246  40.311   9.565   8.970
 1777POPC   C1A26247  40.142   9.948   8.693
 1777POPC   D2A26248  40.187   9.764   8.294
 1777POPC   C3A26249  39.888   9.829   7.966
 1777POPC   C4A26250  39.637   9.982   7.640
 1777POPC   C1B26251  39.972   9.453   8.704
 1777POPC   C2B26252  39.939   9.322   8.254
 1777POPC   C3B26253  40.199   9.450   7.868
 1777POPC   C4B26254  40.026   9.687   7.465
 1778POPC   NC326255  13.074  28.085   9.553
 1778POPC   PO426256  12.789  28.678   9.360
 1778POPC   GL126257  12.712  28.242   9.197
 1778POPC   GL226258  12.995  28.145   9.056
 1778POPC   C1A26259  12.599  28.050   8.766
 1778POPC   D2A26260  12.701  28.223   8.335
 1778POPC   C3A26261  12.959  28.160   7.947
 1778POPC   C4A26262  13.034  28.223   7.489
 1778POPC   C1B26263  12.956  28.453   8.738
 1778POPC   C2B26264  13.071  28.619   8.324
 1778POPC   C3B26265  13.200  28.605   7.875
 1778POPC   C4B26266  13.457  28.508   7.522
 1779POPC   NC326267  44.160  41.071   9.840
 1779POPC   PO426268  43.630  40.695   9.540
 1779POPC   GL126269  43.601  40.710   9.123
 1779POPC   GL226270  43.974  40.809   9.032
 1779POPC   C1A26271  43.620  40.612   8.703
 1779POPC   D2A26272  44.023  40.633   8.474
 1779POPC   C3A26273  43.966  40.565   8.038
 1779POPC   C4A26274  43.643  40.618   7.702
 1779POPC   C1B26275  44.236  41.063   8.688
 1779POPC   C2B26276  44.297  41.104   8.225
 1779POPC   C3B26277  44.011  41.025   7.822
 1779POPC   C4B26278  44.010  41.159   7.349
 1780POPC   NC326279  34.185  32.348   9.589
 1780POPC   PO426280  34.874  32.196   9.619
 1780POPC   GL126281  34.819  32.227   9.189
 1780POPC   GL226282  35.142  32.128   9.006
 1780POPC   C1A26283  34.392  32.216   8.960
 1780POPC   D2A26284  34.241  32.381   8.556
 1780POPC   C3A26285  34.274  32.154   8.147
 1780POPC   C4A26286  34.337  32.318   7.747
 1780POPC   C1B26287  34.826  32.031   8.730
 1780POPC   C2B26288  34.706  32.241   8.395
 1780POPC   C3B26289  34.791  32.182   7.983
 1780POPC   C4B26290  34.945  32.138   7.580
 1781POPC   NC326291   5.459  31.475   9.567
 1781POPC   PO426292   4.876  31.505   9.631
 1781POPC   GL126293   4.970  31.494   9.153
 1781POPC   GL226294   5.320  31.487   9.074
 1781POPC   C1A26295   5.038  31.397   8.678
 1781POPC   D2A26296   5.096  31.654   8.319
 1781POPC   C3A26297   5.076  31.490   7.918
 1781POPC   C4A26298   5.289  31.586   7.567
 1781POPC   C1B26299   5.307  31.860   8.775
 1781POPC   C2B26300   5.521  31.965   8.355
 1781POPC   C3B26301   5.322  31.960   7.938
 1781POPC   C4B26302   4.834  31.925   7.936
 1782POPC   NC326303  10.972   3.264   9.255
 1782POPC   PO426304  11.540   3.420   9.582
 1782POPC   GL126305  11.460   3.485   9.167
 1782POPC   GL226306  11.375   3.827   9.224
 1782POPC   C1A26307  11.341   3.313   8.751
 1782POPC   D2A26308  11.102   3.419   8.378
 1782POPC   C3A26309  11.268   3.268   7.986
 1782POPC   C4A26310  11.505   3.354   7.628
 1782POPC   C1B26311  11.237   3.802   8.786
 1782POPC   C2B26312  11.415   3.818   8.371
 1782POPC   C3B26313  11.343   3.761   7.903
 1782POPC   C4B26314  11.065   3.900   7.569
 1783POPC   NC326315  33.256  44.396   9.180
 1783POPC   PO426316  32.719  44.640   9.574
 1783POPC   GL126317  32.849  44.708   9.110
 1783POPC   GL226318  33.198  44.827   8.922
 1783POPC   C1A26319  32.832  44.566   8.673
 1783POPC   D2A26320  32.579  44.598   8.299
 1783POPC   C3A26321  32.776  44.520   7.897
 1783POPC   C4A26322  33.041  44.619   7.530
 1783POPC   C1B26323  33.373  44.585   8.533
 1783POPC   C2B26324  33.387  44.560   8.045
 1783POPC   C3B26325  33.339  44.939   7.800
 1783POPC   C4B26326  33.525   0.146   7.437
 1784POPC   NC326327  36.589  39.204   9.488
 1784POPC   PO426328  35.935  39.464   9.558
 1784POPC   GL126329  35.907  39.269   9.141
 1784POPC   GL226330  36.207  39.159   9.133
 1784POPC   C1A26331  35.901  39.203   8.690
 1784POPC   D2A26332  36.032  39.513   8.384
 1784POPC   C3A26333  35.711  39.507   8.074
 1784POPC   C4A26334  35.694  39.289   7.659
 1784POPC   C1B26335  36.410  39.266   8.741
 1784POPC   C2B26336  36.291  39.048   8.354
 1784POPC   C3B26337  36.065  39.160   8.004
 1784POPC   C4B26338  36.137  39.527   7.769
 1785POPC   NC326339   4.169  37.038   9.406
 1785POPC   PO426340   4.717  36.609   9.478
 1785POPC   GL126341   4.423  36.697   9.130
 1785POPC   GL226342   4.520  37.014   9.007
 1785POPC   C1A26343   4.088  36.864   8.793
 1785POPC   D2A26344   3.975  37.004   8.391
 1785POPC   C3A26345   4.012  36.773   7.966
 1785POPC   C4A26346   4.131  36.730   7.509
 1785POPC   C1B26347   4.460  37.140   8.572
 1785POPC   C2B26348   4.441  36.958   8.168
 1785POPC   C3B26349   4.370  37.099   7.757
 1785POPC   C4B26350   4.499  37.026   7.334
 1786POPC   NC326351  30.146  43.441   9.543
 1786POPC   PO426352  29.480  43.397   9.674
 1786POPC   GL126353  29.608  43.293   9.217
 1786POPC   GL226354  29.942  43.131   9.200
 1786POPC   C1A26355  29.712  43.125   8.765
 1786POPC   D2A26356  29.631  42.969   8.348
 1786POPC   C3A26357  29.804  43.033   7.934
 1786POPC   C4A26358  29.720  43.406   7.731
 1786POPC   C1B26359  30.182  43.384   8.883
 1786POPC   C2B26360  30.247  43.510   8.422
 1786POPC   C3B26361  30.189  43.408   7.970
 1786POPC   C4B26362  30.165  43.300   7.516
 1787POPC   NC326363  31.180  34.219   9.456
 1787POPC   PO426364  30.487  34.458   9.477
 1787POPC   GL126365  30.572  34.678   9.105
 1787POPC   GL226366  30.886  34.523   9.127
 1787POPC   C1A26367  30.772  34.815   8.712
 1787POPC   D2A26368  30.507  34.925   8.402
 1787POPC   C3A26369  30.663  34.803   8.031
 1787POPC   C4A26370  30.638  34.814   7.613
 1787POPC   C1B26371  30.892  34.303   8.745
 1787POPC   C2B26372  31.107  34.343   8.355
 1787POPC   C3B26373  31.041  34.230   7.942
 1787POPC   C4B26374  30.881  34.372   7.568
 1788POPC   NC326375  24.152  15.815   9.483
 1788POPC   PO426376  24.815  15.996   9.501
 1788POPC   GL126377  24.632  15.949   9.072
 1788POPC   GL226378  24.431  15.666   9.097
 1788POPC   C1A26379  24.272  15.961   8.734
 1788POPC   D2A26380  24.186  15.724   8.342
 1788POPC   C3A26381  24.180  15.923   7.957
 1788POPC   C4A26382  24.102  16.003   7.520
 1788POPC   C1B26383  24.524  15.500   8.700
 1788POPC   C2B26384  24.702  15.786   8.436
 1788POPC   C3B26385  24.701  15.881   8.011
 1788POPC   C4B26386  24.487  15.584   7.738
 1789POPC   NC326387  17.132   4.889   9.519
 1789POPC   PO426388  17.821   5.018   9.660
 1789POPC   GL126389  17.598   5.038   9.277
 1789POPC   GL226390  17.557   5.393   9.253
 1789POPC   C1A26391  17.542   5.097   8.824
 1789POPC   D2A26392  17.522   4.925   8.417
 1789POPC   C3A26393  17.462   5.158   8.069
 1789POPC   C4A26394  17.317   4.968   7.701
 1789POPC   C1B26395  17.362   5.559   8.874
 1789POPC   C2B26396  17.256   5.483   8.455
 1789POPC   C3B26397  17.125   5.523   8.027
 1789POPC   C4B26398  17.276   5.448   7.588
 1790POPC   NC326399  16.526  38.224   9.966
 1790POPC   PO426400  16.000  38.511   9.618
 1790POPC   GL126401  15.869  38.553   9.198
 1790POPC   GL226402  15.851  38.202   9.182
 1790POPC   C1A26403  15.945  38.471   8.759
 1790POPC   D2A26404  16.202  38.553   8.392
 1790POPC   C3A26405  15.968  38.529   8.002
 1790POPC   C4A26406  16.200  38.621   7.619
 1790POPC   C1B26407  15.586  38.108   8.804
 1790POPC   C2B26408  15.583  38.316   8.385
 1790POPC   C3B26409  15.616  38.158   7.960
 1790POPC   C4B26410  15.834  38.201   7.549
 1791POPC   NC326411  18.245   5.225   9.649
 1791POPC   PO426412  18.922   5.090   9.692
 1791POPC   GL126413  18.578   4.974   9.330
 1791POPC   GL226414  18.169   4.916   9.279
 1791POPC   C1A26415  18.467   5.008   8.877
 1791POPC   D2A26416  18.211   5.164   8.527
 1791POPC   C3A26417  18.388   5.007   8.134
 1791POPC   C4A26418  18.268   4.824   7.726
 1791POPC   C1B26419  17.971   4.866   8.895
 1791POPC   C2B26420  18.000   4.707   8.457
 1791POPC   C3B26421  17.900   4.913   8.059
 1791POPC   C4B26422  17.796   5.208   7.679
 1792POPC   NC326423  15.344  37.028   9.545
 1792POPC   PO426424  14.644  36.909   9.453
 1792POPC   GL126425  15.020  36.875   9.122
 1792POPC   GL226426  15.364  36.702   9.142
 1792POPC   C1A26427  15.339  37.084   8.805
 1792POPC   D2A26428  15.519  36.965   8.385
 1792POPC   C3A26429  15.188  36.922   8.103
 1792POPC   C4A26430  14.924  37.005   7.741
 1792POPC   C1B26431  15.604  36.610   8.780
 1792POPC   C2B26432  15.556  36.432   8.353
 1792POPC   C3B26433  15.599  36.592   7.951
 1792POPC   C4B26434  15.331  36.728   7.649
 1793POPC   NC326435   2.668  36.005   9.582
 1793POPC   PO426436   3.152  36.470   9.599
 1793POPC   GL126437   2.994  36.333   9.174
 1793POPC   GL226438   3.060  35.962   9.137
 1793POPC   C1A26439   2.728  36.340   8.762
 1793POPC   D2A26440   2.391  36.356   8.406
 1793POPC   C3A26441   2.519  36.321   7.974
 1793POPC   C4A26442   2.592  35.965   7.710
 1793POPC   C1B26443   2.978  35.903   8.667
 1793POPC   C2B26444   3.037  36.025   8.218
 1793POPC   C3B26445   3.004  35.707   7.868
 1793POPC   C4B26446   2.896  35.627   7.423
 1794POPC   NC326447  28.342  40.014   9.456
 1794POPC   PO426448  27.882  40.442   9.443
 1794POPC   GL126449  28.105  40.283   9.094
 1794POPC   GL226450  28.488  40.364   9.080
 1794POPC   C1A26451  28.192  40.054   8.720
 1794POPC   D2A26452  28.286  40.259   8.339
 1794POPC   C3A26453  28.240  39.988   8.000
 1794POPC   C4A26454  28.175  39.794   7.570
 1794POPC   C1B26455  28.708  40.132   8.754
 1794POPC   C2B26456  28.614  39.890   8.378
 1794POPC   C3B26457  28.746  39.983   7.974
 1794POPC   C4B26458  28.663  39.858   7.565
 1795POPC   NC326459  34.145  44.448   9.439
 1795POPC   PO426460  34.622  44.897   9.479
 1795POPC   GL126461  34.619  44.653   9.133
 1795POPC   GL226462  34.602  44.335   9.271
 1795POPC   C1A26463  34.557  44.710   8.692
 1795POPC   D2A26464  34.681  44.722   8.256
 1795POPC   C3A26465  34.374  44.510   7.969
 1795POPC   C4A26466  34.234  44.530   7.540
 1795POPC   C1B26467  34.682  44.225   8.852
 1795POPC   C2B26468  34.788  44.264   8.446
 1795POPC   C3B26469  34.941  44.354   8.036
 1795POPC   C4B26470  34.802  44.666   7.734
 1796POPC   NC326471  35.794  23.810   9.481
 1796POPC   PO426472  35.194  23.445   9.444
 1796POPC   GL126473  35.414  23.689   9.147
 1796POPC   GL226474  35.760  23.590   9.035
 1796POPC   C1A26475  35.348  23.805   8.743
 1796POPC   D2A26476  35.264  23.975   8.366
 1796POPC   C3A26477  35.057  23.692   8.091
 1796POPC   C4A26478  35.043  23.528   7.665
 1796POPC   C1B26479  35.814  23.977   8.791
 1796POPC   C2B26480  35.824  23.884   8.353
 1796POPC   C3B26481  35.552  23.813   7.977
 1796POPC   C4B26482  35.556  23.565   7.590
 1797POPC   NC326483  11.969  24.004   9.650
 1797POPC   PO426484  12.482  23.613   9.555
 1797POPC   GL126485  12.173  23.574   9.245
 1797POPC   GL226486  12.069  23.885   9.157
 1797POPC   C1A26487  12.269  23.537   8.785
 1797POPC   D2A26488  12.174  23.688   8.367
 1797POPC   C3A26489  12.345  23.484   7.997
 1797POPC   C4A26490  12.367  23.705   7.641
 1797POPC   C1B26491  11.838  23.842   8.763
 1797POPC   C2B26492  11.805  24.055   8.357
 1797POPC   C3B26493  11.977  24.016   7.956
 1797POPC   C4B26494  11.850  23.851   7.565
 1798POPC   NC326495  20.621  32.643   9.395
 1798POPC   PO426496  20.678  31.956   9.541
 1798POPC   GL126497  20.686  32.196   9.109
 1798POPC   GL226498  20.447  32.465   8.947
 1798POPC   C1A26499  20.729  32.149   8.645
 1798POPC   D2A26500  20.645  32.135   8.200
 1798POPC   C3A26501  20.701  32.270   7.794
 1798POPC   C4A26502  20.517  32.125   7.425
 1798POPC   C1B26503  20.376  32.473   8.496
 1798POPC   C2B26504  20.144  32.478   8.119
 1798POPC   C3B26505  20.225  32.483   7.692
 1798POPC   C4B26506  20.560  32.615   7.413
 1799POPC   NC326507  43.900  26.406   9.583
 1799POPC   PO426508  43.613  26.981   9.507
 1799POPC   GL126509  43.886  26.891   9.185
 1799POPC   GL226510  43.825  27.273   9.116
 1799POPC   C1A26511  43.965  26.691   8.779
 1799POPC   D2A26512  44.147  26.738   8.362
 1799POPC   C3A26513  43.987  27.055   8.070
 1799POPC   C4A26514  43.817  26.768   7.782
 1799POPC   C1B26515  43.565  27.029   8.808
 1799POPC   C2B26516  43.622  26.869   8.390
 1799POPC   C3B26517  43.465  27.063   8.005
 1799POPC   C4B26518  43.615  27.173   7.597
 1800POPC   NC326519   3.487  13.127   9.514
 1800POPC   PO426520   3.509  12.467   9.535
 1800POPC   GL126521   3.384  12.704   9.158
 1800POPC   GL226522   3.155  13.018   9.139
 1800POPC   C1A26523   3.504  12.613   8.745
 1800POPC   D2A26524   3.821  12.734   8.439
 1800POPC   C3A26525   3.732  12.678   8.004
 1800POPC   C4A26526   3.711  12.707   7.552
 1800POPC   C1B26527   3.240  13.042   8.709
 1800POPC   C2B26528   3.323  12.849   8.300
 1800POPC   C3B26529   3.463  13.090   7.927
 1800POPC   C4B26530   3.248  13.330   7.644
 1801POPC   NC326531   0.323   1.402   9.554
 1801POPC   PO426532   0.415   0.801   9.475
 1801POPC   GL126533   0.277   0.889   9.078
 1801POPC   GL226534   0.083   1.159   9.127
 1801POPC   C1A26535   0.474   0.954   8.679
 1801POPC   D2A26536   0.775   1.086   8.338
 1801POPC   C3A26537   0.670   0.984   7.920
 1801POPC   C4A26538   0.326   1.111   7.703
 1801POPC   C1B26539  44.995   1.446   8.757
 1801POPC   C2B26540   0.111   1.483   8.301
 1801POPC   C3B26541   0.070   1.528   7.849
 1801POPC   C4B26542   0.001   1.674   7.421
 1802POPC   NC326543  31.619  44.673   9.477
 1802POPC   PO426544  30.936  44.567   9.537
 1802POPC   GL126545  31.240  44.506   9.181
 1802POPC   GL226546  31.414  44.223   9.280
 1802POPC   C1A26547  31.305  44.683   8.751
 1802POPC   D2A26548  31.180  44.710   8.294
 1802POPC   C3A26549  31.383  44.827   7.914
 1802POPC   C4A26550  31.798  44.992   7.744
 1802POPC   C1B26551  31.591  44.266   8.855
 1802POPC   C2B26552  31.576  44.415   8.410
 1802POPC   C3B26553  31.761  44.471   8.018
 1802POPC   C4B26554  31.772  44.131   7.719
 1803POPC   NC326555   1.944   8.743   9.538
 1803POPC   PO426556   2.615   8.837   9.563
 1803POPC   GL126557   2.259   8.928   9.184
 1803POPC   GL226558   1.867   9.045   9.141
 1803POPC   C1A26559   2.148   8.924   8.730
 1803POPC   D2A26560   2.150   8.679   8.344
 1803POPC   C3A26561   2.236   8.837   7.940
 1803POPC   C4A26562   2.116   8.838   7.512
 1803POPC   C1B26563   1.697   9.221   8.745
 1803POPC   C2B26564   1.731   8.998   8.352
 1803POPC   C3B26565   1.753   9.003   7.919
 1803POPC   C4B26566   1.848   9.266   7.543
 1804POPC   NC326567   9.283  14.020   9.475
 1804POPC   PO426568   9.171  13.305   9.425
 1804POPC   GL126569   9.096  13.629   9.199
 1804POPC   GL226570   8.769  13.667   9.218
 1804POPC   C1A26571   9.170  13.751   8.814
 1804POPC   D2A26572   9.331  13.595   8.437
 1804POPC   C3A26573   9.220  13.828   8.093
 1804POPC   C4A26574   9.209  13.670   7.707
 1804POPC   C1B26575   8.681  13.571   8.802
 1804POPC   C2B26576   8.815  13.643   8.396
 1804POPC   C3B26577   8.877  13.420   8.033
 1804POPC   C4B26578   8.708  13.510   7.662
 1805POPC   NC326579   6.814   6.331   9.636
 1805POPC   PO426580   6.515   5.722   9.685
 1805POPC   GL126581   6.340   5.975   9.355
 1805POPC   GL226582   6.352   5.709   9.122
 1805POPC   C1A26583   6.420   6.191   8.989
 1805POPC   D2A26584   6.339   5.969   8.609
 1805POPC   C3A26585   6.578   6.103   8.265
 1805POPC   C4A26586   6.492   6.080   7.847
 1805POPC   C1B26587   6.774   5.813   8.932
 1805POPC   C2B26588   7.046   5.622   8.579
 1805POPC   C3B26589   7.104   5.628   8.111
 1805POPC   C4B26590   6.969   5.417   7.743
 1806POPC   NC326591   7.206   9.042   9.663
 1806POPC   PO426592   6.562   9.072   9.751
 1806POPC   GL126593   6.729   9.039   9.257
 1806POPC   GL226594   6.887   9.326   9.082
 1806POPC   C1A26595   6.570   8.966   8.806
 1806POPC   D2A26596   6.712   8.852   8.361
 1806POPC   C3A26597   6.441   8.740   7.989
 1806POPC   C4A26598   6.524   8.830   7.532
 1806POPC   C1B26599   6.702   9.451   8.680
 1806POPC   C2B26600   6.878   9.348   8.278
 1806POPC   C3B26601   6.784   9.117   7.910
 1806POPC   C4B26602   6.736   9.278   7.503
 1807POPC   NC326603   6.255  33.125   9.409
 1807POPC   PO426604   6.823  32.744   9.355
 1807POPC   GL126605   6.795  32.840   8.961
 1807POPC   GL226606   6.455  32.870   8.908
 1807POPC   C1A26607   6.925  33.084   8.631
 1807POPC   D2A26608   6.600  33.001   8.385
 1807POPC   C3A26609   6.707  32.852   8.003
 1807POPC   C4A26610   6.725  32.610   7.646
 1807POPC   C1B26611   6.512  33.330   8.797
 1807POPC   C2B26612   6.428  33.469   8.369
 1807POPC   C3B26613   6.285  33.176   8.024
 1807POPC   C4B26614   6.427  33.025   7.598
 1808POPC   NC326615  39.159  39.467   9.510
 1808POPC   PO426616  38.688  38.921   9.432
 1808POPC   GL126617  38.945  39.234   9.093
 1808POPC   GL226618  39.269  39.471   9.034
 1808POPC   C1A26619  39.024  39.308   8.624
 1808POPC   D2A26620  39.162  38.943   8.374
 1808POPC   C3A26621  39.217  39.017   7.946
 1808POPC   C4A26622  38.977  39.352   7.784
 1808POPC   C1B26623  39.549  39.404   8.708
 1808POPC   C2B26624  39.531  39.322   8.254
 1808POPC   C3B26625  39.481  39.481   7.806
 1808POPC   C4B26626  39.607  39.645   7.377
 1809POPC   NC326627   6.748  29.430   9.573
 1809POPC   PO426628   7.401  29.212   9.475
 1809POPC   GL126629   7.282  29.183   9.097
 1809POPC   GL226630   7.041  29.468   9.156
 1809POPC   C1A26631   7.571  29.203   8.752
 1809POPC   D2A26632   7.553  29.439   8.375
 1809POPC   C3A26633   7.467  29.214   8.052
 1809POPC   C4A26634   7.619  29.265   7.675
 1809POPC   C1B26635   7.205  29.552   8.755
 1809POPC   C2B26636   7.015  29.504   8.355
 1809POPC   C3B26637   7.082  29.511   7.919
 1809POPC   C4B26638   7.190  29.571   7.492
 1810POPC   NC326639   8.000  24.991   9.655
 1810POPC   PO426640   8.337  24.449   9.481
 1810POPC   GL126641   8.174  24.430   9.105
 1810POPC   GL226642   8.064  24.806   9.127
 1810POPC   C1A26643   8.204  24.505   8.675
 1810POPC   D2A26644   8.044  24.705   8.326
 1810POPC   C3A26645   8.160  24.513   7.941
 1810POPC   C4A26646   7.943  24.691   7.615
 1810POPC   C1B26647   8.218  25.038   8.738
 1810POPC   C2B26648   8.502  24.872   8.465
 1810POPC   C3B26649   8.510  24.882   8.030
 1810POPC   C4B26650   8.623  24.612   7.680
 1811POPC   NC326651  38.901  10.352   9.466
 1811POPC   PO426652  38.237  10.163   9.506
 1811POPC   GL126653  38.322  10.412   9.109
 1811POPC   GL226654  38.609  10.669   9.111
 1811POPC   C1A26655  38.372  10.553   8.682
 1811POPC   D2A26656  38.571  10.590   8.295
 1811POPC   C3A26657  38.352  10.452   7.914
 1811POPC   C4A26658  38.227  10.699   7.559
 1811POPC   C1B26659  38.789  10.308   8.812
 1811POPC   C2B26660  38.776  10.131   8.362
 1811POPC   C3B26661  38.857  10.351   7.948
 1811POPC   C4B26662  38.701  10.789   7.829
 1812POPC   NC326663  43.085  29.194   9.552
 1812POPC   PO426664  43.569  29.598   9.409
 1812POPC   GL126665  43.384  29.232   9.123
 1812POPC   GL226666  43.033  29.165   9.057
 1812POPC   C1A26667  43.404  29.017   8.684
 1812POPC   D2A26668  43.316  29.213   8.301
 1812POPC   C3A26669  43.436  29.050   7.899
 1812POPC   C4A26670  43.409  29.358   7.557
 1812POPC   C1B26671  42.912  28.866   8.746
 1812POPC   C2B26672  43.061  28.767   8.342
 1812POPC   C3B26673  42.932  28.908   7.928
 1812POPC   C4B26674  43.069  29.001   7.473
 1813POPC   NC326675  10.748   0.701   9.676
 1813POPC   PO426676  10.117   0.355   9.688
 1813POPC   GL126677  10.326   0.486   9.314
 1813POPC   GL226678  10.658   0.499   9.214
 1813POPC   C1A26679  10.317   0.299   8.904
 1813POPC   D2A26680  10.266   0.439   8.498
 1813POPC   C3A26681  10.450   0.205   8.171
 1813POPC   C4A26682  10.439   0.305   7.730
 1813POPC   C1B26683  10.876   0.302   8.842
 1813POPC   C2B26684  10.948   0.145   8.413
 1813POPC   C3B26685  10.908   0.286   7.963
 1813POPC   C4B26686  10.844   0.049   7.554
 1814POPC   NC326687  14.922  19.970   9.530
 1814POPC   PO426688  15.535  19.733   9.393
 1814POPC   GL126689  15.187  19.783   9.155
 1814POPC   GL226690  15.250  20.161   9.150
 1814POPC   C1A26691  15.065  19.827   8.766
 1814POPC   D2A26692  15.261  19.656   8.400
 1814POPC   C3A26693  15.449  19.838   8.043
 1814POPC   C4A26694  15.296  19.789   7.622
 1814POPC   C1B26695  15.132  20.323   8.725
 1814POPC   C2B26696  15.073  20.134   8.308
 1814POPC   C3B26697  15.102  20.190   7.858
 1814POPC   C4B26698  15.076  20.184   7.391
 1815POPC   NC326699  13.967   9.607   9.472
 1815POPC   PO426700  14.583   9.893   9.405
 1815POPC   GL126701  14.274   9.880   9.085
 1815POPC   GL226702  14.219   9.549   9.053
 1815POPC   C1A26703  14.309   9.976   8.658
 1815POPC   D2A26704  14.166   9.945   8.270
 1815POPC   C3A26705  14.408   9.813   7.928
 1815POPC   C4A26706  14.236   9.839   7.539
 1815POPC   C1B26707  14.411   9.491   8.695
 1815POPC   C2B26708  14.311   9.440   8.313
 1815POPC   C3B26709  14.468   9.261   7.982
 1815POPC   C4B26710  14.286   9.356   7.659
 1816POPC   NC326711   8.663  31.316   9.661
 1816POPC   PO426712   9.141  31.812   9.724
 1816POPC   GL126713   8.852  31.632   9.313
 1816POPC   GL226714   9.036  31.449   9.029
 1816POPC   C1A26715   8.720  31.791   8.878
 1816POPC   D2A26716   8.776  31.942   8.474
 1816POPC   C3A26717   9.017  31.766   8.124
 1816POPC   C4A26718   8.684  31.559   7.936
 1816POPC   C1B26719   8.892  31.354   8.593
 1816POPC   C2B26720   9.071  31.214   8.180
 1816POPC   C3B26721   9.004  31.226   7.717
 1816POPC   C4B26722   9.079  31.324   7.286
 1817POPC   NC326723   9.570  16.579   9.823
 1817POPC   PO426724  10.047  16.932   9.668
 1817POPC   GL126725   9.703  16.881   9.348
 1817POPC   GL226726   9.642  16.541   9.228
 1817POPC   C1A26727   9.613  16.916   8.893
 1817POPC   D2A26728   9.784  16.830   8.510
 1817POPC   C3A26729   9.612  16.926   8.129
 1817POPC   C4A26730   9.756  16.926   7.714
 1817POPC   C1B26731   9.980  16.506   8.848
 1817POPC   C2B26732  10.208  16.582   8.449
 1817POPC   C3B26733   9.999  16.591   8.063
 1817POPC   C4B26734   9.959  16.446   7.648
 1818POPC   NC326735  27.347   4.314  10.029
 1818POPC   PO426736  26.863   4.273   9.580
 1818POPC   GL126737  26.771   4.142   9.184
 1818POPC   GL226738  27.076   4.096   9.104
 1818POPC   C1A26739  26.599   4.201   8.794
 1818POPC   D2A26740  26.522   3.991   8.432
 1818POPC   C3A26741  26.476   4.184   8.027
 1818POPC   C4A26742  26.435   4.593   7.771
 1818POPC   C1B26743  27.096   4.326   8.695
 1818POPC   C2B26744  26.943   4.290   8.265
 1818POPC   C3B26745  26.906   4.356   7.812
 1818POPC   C4B26746  26.947   4.372   7.363
 1819POPC   NC326747  11.403  39.257   9.641
 1819POPC   PO426748  10.896  39.250   9.407
 1819POPC   GL126749  11.238  39.041   9.142
 1819POPC   GL226750  11.597  39.017   9.204
 1819POPC   C1A26751  11.363  38.990   8.674
 1819POPC   D2A26752  11.435  39.254   8.281
 1819POPC   C3A26753  11.279  39.165   7.857
 1819POPC   C4A26754  11.156  39.006   7.429
 1819POPC   C1B26755  11.816  39.165   8.810
 1819POPC   C2B26756  11.923  39.353   8.375
 1819POPC   C3B26757  11.759  39.429   7.908
 1819POPC   C4B26758  11.638  39.206   7.500
 1820POPC   NC326759  27.590  20.583   9.517
 1820POPC   PO426760  28.053  21.041   9.342
 1820POPC   GL126761  27.839  20.754   9.101
 1820POPC   GL226762  27.814  20.381   9.093
 1820POPC   C1A26763  27.898  20.703   8.705
 1820POPC   D2A26764  28.195  20.738   8.409
 1820POPC   C3A26765  27.945  20.703   8.083
 1820POPC   C4A26766  27.748  20.768   7.724
 1820POPC   C1B26767  27.491  20.370   8.722
 1820POPC   C2B26768  27.372  20.578   8.314
 1820POPC   C3B26769  27.216  20.332   7.961
 1820POPC   C4B26770  27.273  19.899   7.908
 1821POPC   NC326771   7.838  27.197   9.557
 1821POPC   PO426772   8.235  27.747   9.513
 1821POPC   GL126773   8.107  27.483   9.180
 1821POPC   GL226774   8.370  27.285   9.174
 1821POPC   C1A26775   7.992  27.465   8.745
 1821POPC   D2A26776   8.155  27.614   8.374
 1821POPC   C3A26777   7.896  27.692   8.018
 1821POPC   C4A26778   7.940  27.552   7.595
 1821POPC   C1B26779   8.503  27.472   8.777
 1821POPC   C2B26780   8.556  27.242   8.412
 1821POPC   C3B26781   8.330  27.267   8.050
 1821POPC   C4B26782   8.367  27.635   7.879
 1822POPC   NC326783  12.449  23.138   9.502
 1822POPC   PO426784  11.761  22.922   9.605
 1822POPC   GL126785  12.058  22.813   9.251
 1822POPC   GL226786  12.151  23.102   9.070
 1822POPC   C1A26787  12.139  22.670   8.819
 1822POPC   D2A26788  12.054  22.929   8.451
 1822POPC   C3A26789  12.136  23.006   8.013
 1822POPC   C4A26790  12.012  22.797   7.631
 1822POPC   C1B26791  11.821  23.289   8.793
 1822POPC   C2B26792  11.769  23.364   8.356
 1822POPC   C3B26793  11.840  23.524   7.970
 1822POPC   C4B26794  12.009  23.342   7.590
 1823POPC   NC326795  42.015  37.765   9.591
 1823POPC   PO426796  41.474  38.103   9.588
 1823POPC   GL126797  41.635  37.909   9.219
 1823POPC   GL226798  41.917  38.086   9.177
 1823POPC   C1A26799  41.608  37.655   8.837
 1823POPC   D2A26800  41.646  37.396   8.487
 1823POPC   C3A26801  41.755  37.529   8.107
 1823POPC   C4A26802  41.587  37.506   7.696
 1823POPC   C1B26803  41.898  38.072   8.762
 1823POPC   C2B26804  41.720  37.986   8.358
 1823POPC   C3B26805  41.882  38.089   7.949
 1823POPC   C4B26806  41.729  37.975   7.563
 1824POPC   NC326807  11.676   8.817   9.538
 1824POPC   PO426808  10.986   8.708   9.471
 1824POPC   GL126809  11.269   8.927   9.157
 1824POPC   GL226810  11.604   8.930   9.041
 1824POPC   C1A26811  11.213   8.895   8.702
 1824POPC   D2A26812  11.056   8.858   8.298
 1824POPC   C3A26813  11.322   8.945   7.952
 1824POPC   C4A26814  11.197   9.013   7.516
 1824POPC   C1B26815  11.576   8.552   8.808
 1824POPC   C2B26816  11.432   8.504   8.399
 1824POPC   C3B26817  11.421   8.432   7.962
 1824POPC   C4B26818  11.520   8.662   7.574
 1825POPC   NC326819  20.706   2.356   9.456
 1825POPC   PO426820  20.171   2.700   9.504
 1825POPC   GL126821  20.425   2.704   9.115
 1825POPC   GL226822  20.502   2.373   8.980
 1825POPC   C1A26823  20.508   2.762   8.662
 1825POPC   D2A26824  20.535   2.507   8.272
 1825POPC   C3A26825  20.648   2.783   7.927
 1825POPC   C4A26826  20.446   2.774   7.536
 1825POPC   C1B26827  20.853   2.200   8.735
 1825POPC   C2B26828  20.980   2.219   8.304
 1825POPC   C3B26829  20.871   2.351   7.836
 1825POPC   C4B26830  20.980   2.396   7.379
 1826POPC   NC326831  31.947  18.659   9.573
 1826POPC   PO426832  32.369  18.113   9.390
 1826POPC   GL126833  31.999  18.318   9.163
 1826POPC   GL226834  32.146  18.620   9.062
 1826POPC   C1A26835  31.806  18.432   8.736
 1826POPC   D2A26836  32.020  18.662   8.433
 1826POPC   C3A26837  31.891  18.534   8.045
 1826POPC   C4A26838  32.017  18.422   7.648
 1826POPC   C1B26839  32.293  18.298   8.739
 1826POPC   C2B26840  32.315  18.189   8.319
 1826POPC   C3B26841  32.626  18.351   8.065
 1826POPC   C4B26842  32.516  18.376   7.678
 1827POPC   NC326843  25.371  28.873   9.521
 1827POPC   PO426844  25.189  29.576   9.436
 1827POPC   GL126845  25.170  29.201   9.156
 1827POPC   GL226846  25.511  29.004   9.071
 1827POPC   C1A26847  25.051  29.055   8.750
 1827POPC   D2A26848  25.251  28.949   8.351
 1827POPC   C3A26849  25.188  29.214   7.974
 1827POPC   C4A26850  24.788  29.367   7.798
 1827POPC   C1B26851  25.527  29.230   8.728
 1827POPC   C2B26852  25.721  29.148   8.367
 1827POPC   C3B26853  25.632  28.928   8.012
 1827POPC   C4B26854  25.559  29.076   7.647
 1828POPC   NC326855  39.554  21.060   9.454
 1828POPC   PO426856  39.219  21.682   9.559
 1828POPC   GL126857  39.466  21.531   9.205
 1828POPC   GL226858  39.205  21.321   9.139
 1828POPC   C1A26859  39.498  21.372   8.739
 1828POPC   D2A26860  39.294  21.518   8.362
 1828POPC   C3A26861  39.303  21.438   7.912
 1828POPC   C4A26862  39.367  21.655   7.514
 1828POPC   C1B26863  39.004  21.531   8.840
 1828POPC   C2B26864  38.799  21.506   8.469
 1828POPC   C3B26865  38.830  21.654   8.061
 1828POPC   C4B26866  38.858  21.476   7.682
 1829POPC   NC326867  34.463  26.703   9.506
 1829POPC   PO426868  34.869  27.234   9.348
 1829POPC   GL126869  34.639  26.920   9.099
 1829POPC   GL226870  34.302  27.005   8.981
 1829POPC   C1A26871  34.606  26.561   8.780
 1829POPC   D2A26872  34.598  26.282   8.373
 1829POPC   C3A26873  34.453  26.481   7.954
 1829POPC   C4A26874  34.741  26.633   7.610
 1829POPC   C1B26875  34.630  27.080   8.628
 1829POPC   C2B26876  34.809  27.192   8.245
 1829POPC   C3B26877  34.549  26.989   7.944
 1829POPC   C4B26878  34.097  27.000   7.852
 1830POPC   NC326879  41.323  44.226   9.486
 1830POPC   PO426880  41.801  43.713   9.440
 1830POPC   GL126881  41.569  43.869   9.106
 1830POPC   GL226882  41.634  44.218   9.068
 1830POPC   C1A26883  41.544  43.656   8.711
 1830POPC   D2A26884  41.620  43.511   8.284
 1830POPC   C3A26885  41.459  43.719   7.904
 1830POPC   C4A26886  41.588  43.579   7.476
 1830POPC   C1B26887  41.430  44.340   8.698
 1830POPC   C2B26888  41.155  44.356   8.360
 1830POPC   C3B26889  41.318  44.220   7.986
 1830POPC   C4B26890  41.748  44.316   7.809
 1831POPC   NC326891  20.996  44.499   9.406
 1831POPC   PO426892  21.643  44.635   9.551
 1831POPC   GL126893  21.473  44.623   9.140
 1831POPC   GL226894  21.355  44.286   9.106
 1831POPC   C1A26895  21.515  44.546   8.676
 1831POPC   D2A26896  21.686  44.448   8.268
 1831POPC   C3A26897  21.452  44.642   7.953
 1831POPC   C4A26898  21.379  44.905   7.566
 1831POPC   C1B26899  21.083  44.258   8.760
 1831POPC   C2B26900  21.147  44.408   8.330
 1831POPC   C3B26901  21.025  44.330   7.901
 1831POPC   C4B26902  21.268  44.410   7.544
 1832POPC   NC326903   2.394  12.087   9.556
 1832POPC   PO426904   2.912  11.749   9.477
 1832POPC   GL126905   2.630  11.869   9.170
 1832POPC   GL226906   2.715  12.223   9.147
 1832POPC   C1A26907   2.503  11.958   8.768
 1832POPC   D2A26908   2.732  12.168   8.486
 1832POPC   C3A26909   2.599  12.049   8.109
 1832POPC   C4A26910   2.730  11.755   7.770
 1832POPC   C1B26911   3.069  12.329   8.859
 1832POPC   C2B26912   3.246  12.321   8.417
 1832POPC   C3B26913   3.174  12.462   7.979
 1832POPC   C4B26914   2.740  12.420   7.796
 1833POPC   NC326915  25.639  40.412   9.640
 1833POPC   PO426916  24.915  40.599   9.507
 1833POPC   GL126917  25.201  40.725   9.192
 1833POPC   GL226918  25.490  40.515   9.166
 1833POPC   C1A26919  25.411  40.928   8.860
 1833POPC   D2A26920  25.419  40.860   8.432
 1833POPC   C3A26921  25.267  41.071   8.090
 1833POPC   C4A26922  25.047  40.805   7.797
 1833POPC   C1B26923  25.390  40.415   8.752
 1833POPC   C2B26924  25.598  40.389   8.334
 1833POPC   C3B26925  25.605  40.593   7.923
 1833POPC   C4B26926  25.547  40.971   7.661
 1834POPC   NC326927  34.887   6.937   9.566
 1834POPC   PO426928  35.233   7.489   9.467
 1834POPC   GL126929  35.312   7.473   9.046
 1834POPC   GL226930  35.440   7.214   8.918
 1834POPC   C1A26931  35.342   7.646   8.643
 1834POPC   D2A26932  35.311   7.470   8.210
 1834POPC   C3A26933  35.258   7.688   7.809
 1834POPC   C4A26934  35.488   7.989   7.595
 1834POPC   C1B26935  35.054   7.212   8.655
 1834POPC   C2B26936  34.903   7.157   8.236
 1834POPC   C3B26937  35.000   7.230   7.819
 1834POPC   C4B26938  35.179   7.263   7.409
 1835POPC   NC326939   5.994  33.953   9.670
 1835POPC   PO426940   5.844  33.327   9.505
 1835POPC   GL126941   5.911  33.670   9.245
 1835POPC   GL226942   5.738  33.469   8.994
 1835POPC   C1A26943   5.791  33.981   8.919
 1835POPC   D2A26944   5.628  33.852   8.486
 1835POPC   C3A26945   5.709  34.024   8.068
 1835POPC   C4A26946   5.878  33.952   7.680
 1835POPC   C1B26947   6.077  33.602   8.751
 1835POPC   C2B26948   6.129  33.901   8.430
 1835POPC   C3B26949   6.160  33.733   8.027
 1835POPC   C4B26950   6.126  33.475   7.653
 1836POPC   NC326951   6.553  43.396   9.518
 1836POPC   PO426952   6.312  42.728   9.496
 1836POPC   GL126953   6.546  43.004   9.188
 1836POPC   GL226954   6.890  43.150   9.223
 1836POPC   C1A26955   6.517  43.277   8.816
 1836POPC   D2A26956   6.669  43.397   8.399
 1836POPC   C3A26957   6.495  43.252   7.997
 1836POPC   C4A26958   6.180  43.238   7.673
 1836POPC   C1B26959   7.042  43.336   8.855
 1836POPC   C2B26960   7.132  43.181   8.467
 1836POPC   C3B26961   7.044  43.048   8.050
 1836POPC   C4B26962   6.911  43.127   7.644
 1837POPC   NC326963  36.349  22.022   9.594
 1837POPC   PO426964  36.684  22.624   9.513
 1837POPC   GL126965  36.406  22.485   9.163
 1837POPC   GL226966  36.134  22.232   9.194
 1837POPC   C1A26967  36.354  22.283   8.747
 1837POPC   D2A26968  36.237  22.030   8.415
 1837POPC   C3A26969  36.061  22.216   8.059
 1837POPC   C4A26970  36.274  22.321   7.675
 1837POPC   C1B26971  36.010  21.904   8.854
 1837POPC   C2B26972  35.733  21.917   8.451
 1837POPC   C3B26973  35.849  21.755   8.057
 1837POPC   C4B26974  36.146  21.832   7.726
 1838POPC   NC326975  28.745   8.043   9.459
 1838POPC   PO426976  28.201   8.365   9.685
 1838POPC   GL126977  28.330   8.111   9.184
 1838POPC   GL226978  28.564   7.850   9.029
 1838POPC   C1A26979  28.482   8.243   8.733
 1838POPC   D2A26980  28.552   8.074   8.347
 1838POPC   C3A26981  28.469   8.350   8.027
 1838POPC   C4A26982  28.104   8.620   7.917
 1838POPC   C1B26983  28.278   7.746   8.712
 1838POPC   C2B26984  28.126   7.806   8.277
 1838POPC   C3B26985  28.069   8.039   7.882
 1838POPC   C4B26986  28.342   7.932   7.515
 1839POPC   NC326987  44.137  10.401   9.569
 1839POPC   PO426988  43.561  10.142   9.577
 1839POPC   GL126989  43.731  10.290   9.173
 1839POPC   GL226990  44.045  10.490   9.099
 1839POPC   C1A26991  43.919  10.124   8.778
 1839POPC   D2A26992  44.144  10.329   8.409
 1839POPC   C3A26993  43.820  10.346   8.120
 1839POPC   C4A26994  43.633  10.553   7.785
 1839POPC   C1B26995  43.898  10.652   8.740
 1839POPC   C2B26996  43.927  10.820   8.351
 1839POPC   C3B26997  44.092  10.769   7.940
 1839POPC   C4B26998  44.010  10.726   7.490
 1840POPC   NC326999   8.685  16.439   9.379
 1840POPC   PO427000   8.808  15.876   9.629
 1840POPC   GL127001   8.974  15.752   9.248
 1840POPC   GL227002   8.743  16.012   9.071
 1840POPC   C1A27003   9.178  15.855   8.861
 1840POPC   D2A27004   8.979  15.989   8.483
 1840POPC   C3A27005   9.255  16.053   8.142
 1840POPC   C4A27006   9.388  15.801   7.803
 1840POPC   C1B27007   8.565  16.256   8.702
 1840POPC   C2B27008   8.538  16.150   8.249
 1840POPC   C3B27009   8.760  15.909   7.946
 1840POPC   C4B27010   9.012  16.176   7.704
 1841POPC   NC327011  32.961  36.881   9.578
 1841POPC   PO427012  33.424  37.183   9.493
 1841POPC   GL127013  33.076  37.161   9.167
 1841POPC   GL227014  32.726  36.951   9.147
 1841POPC   C1A27015  33.003  37.003   8.752
 1841POPC   D2A27016  32.900  37.123   8.346
 1841POPC   C3A27017  33.121  36.822   8.059
 1841POPC   C4A27018  33.276  36.956   7.656
 1841POPC   C1B27019  32.503  36.915   8.764
 1841POPC   C2B27020  32.517  36.768   8.355
 1841POPC   C3B27021  32.643  36.880   7.927
 1841POPC   C4B27022  32.796  36.965   7.476
 1842POPC   NC327023  17.529  10.767   9.541
 1842POPC   PO427024  17.538  11.375   9.654
 1842POPC   GL127025  17.328  11.313   9.235
 1842POPC   GL227026  17.413  10.986   9.097
 1842POPC   C1A27027  17.412  11.381   8.773
 1842POPC   D2A27028  17.630  11.223   8.392
 1842POPC   C3A27029  17.459  11.238   7.954
 1842POPC   C4A27030  17.560  11.385   7.540
 1842POPC   C1B27031  17.546  10.823   8.708
 1842POPC   C2B27032  17.866  10.745   8.423
 1842POPC   C3B27033  17.903  10.965   8.043
 1842POPC   C4B27034  17.689  10.865   7.685
 1843POPC   NC327035  43.706  41.870   9.612
 1843POPC   PO427036  43.879  42.448   9.453
 1843POPC   GL127037  44.010  42.271   9.103
 1843POPC   GL227038  44.076  41.932   9.211
 1843POPC   C1A27039  44.006  42.449   8.690
 1843POPC   D2A27040  43.795  42.600   8.343
 1843POPC   C3A27041  43.734  42.328   8.006
 1843POPC   C4A27042  43.805  42.375   7.602
 1843POPC   C1B27043  43.759  41.927   8.850
 1843POPC   C2B27044  43.819  42.047   8.434
 1843POPC   C3B27045  44.086  41.975   8.113
 1843POPC   C4B27046  44.103  41.950   7.719
 1844POPC   NC327047  23.767  30.322   9.433
 1844POPC   PO427048  23.431  29.679   9.569
 1844POPC   GL127049  23.595  29.860   9.142
 1844POPC   GL227050  23.950  29.962   9.122
 1844POPC   C1A27051  23.631  30.028   8.694
 1844POPC   D2A27052  23.684  30.196   8.256
 1844POPC   C3A27053  23.640  29.898   7.909
 1844POPC   C4A27054  23.469  29.886   7.506
 1844POPC   C1B27055  24.011  29.706   8.766
 1844POPC   C2B27056  23.895  29.725   8.324
 1844POPC   C3B27057  24.125  29.732   7.908
 1844POPC   C4B27058  23.980  29.911   7.482
 1845POPC   NC327059  27.509  40.314   9.668
 1845POPC   PO427060  27.120  39.740   9.675
 1845POPC   GL127061  27.107  39.849   9.269
 1845POPC   GL227062  27.225  40.189   9.244
 1845POPC   C1A27063  27.287  39.812   8.879
 1845POPC   D2A27064  27.620  39.855   8.591
 1845POPC   C3A27065  27.537  39.911   8.187
 1845POPC   C4A27066  27.773  40.014   7.836
 1845POPC   C1B27067  27.569  40.245   8.919
 1845POPC   C2B27068  27.803  40.329   8.524
 1845POPC   C3B27069  27.901  40.454   8.093
 1845POPC   C4B27070  27.842  40.529   7.661
 1846POPC   NC327071  15.891   6.405   9.523
 1846POPC   PO427072  15.825   7.089   9.469
 1846POPC   GL127073  15.864   6.752   9.146
 1846POPC   GL227074  16.235   6.691   9.152
 1846POPC   C1A27075  15.882   6.676   8.690
 1846POPC   D2A27076  16.062   6.800   8.287
 1846POPC   C3A27077  15.805   6.724   7.895
 1846POPC   C4A27078  15.871   6.528   7.470
 1846POPC   C1B27079  16.252   6.343   8.834
 1846POPC   C2B27080  16.190   6.233   8.372
 1846POPC   C3B27081  16.237   6.459   7.959
 1846POPC   C4B27082  16.382   6.420   7.547
 1847POPC   NC327083  26.352  11.614   9.568
 1847POPC   PO427084  26.317  12.298   9.513
 1847POPC   GL127085  26.150  11.994   9.196
 1847POPC   GL227086  25.919  11.677   9.272
 1847POPC   C1A27087  26.114  12.184   8.785
 1847POPC   D2A27088  25.752  12.289   8.525
 1847POPC   C3A27089  25.898  12.260   8.109
 1847POPC   C4A27090  26.190  12.183   7.785
 1847POPC   C1B27091  26.163  11.564   8.890
 1847POPC   C2B27092  26.223  11.747   8.489
 1847POPC   C3B27093  26.052  11.768   8.079
 1847POPC   C4B27094  26.098  11.655   7.674
 1848POPC   NC327095  13.713  35.968   9.440
 1848POPC   PO427096  14.163  36.431   9.365
 1848POPC   GL127097  13.816  36.274   9.047
 1848POPC   GL227098  13.439  36.263   9.134
 1848POPC   C1A27099  13.705  36.141   8.606
 1848POPC   D2A27100  13.953  36.048   8.204
 1848POPC   C3A27101  13.859  36.330   7.848
 1848POPC   C4A27102  13.918  36.279   7.411
 1848POPC   C1B27103  13.158  36.319   8.789
 1848POPC   C2B27104  13.317  36.421   8.391
 1848POPC   C3B27105  13.461  36.164   8.095
 1848POPC   C4B27106  13.386  36.022   7.693
 1849POPC   NC327107  13.434  12.527   9.495
 1849POPC   PO427108  13.904  13.092   9.451
 1849POPC   GL127109  13.831  12.942   9.105
 1849POPC   GL227110  13.512  12.908   9.141
 1849POPC   C1A27111  13.833  13.124   8.701
 1849POPC   D2A27112  13.778  12.953   8.332
 1849POPC   C3A27113  13.930  13.163   8.019
 1849POPC   C4A27114  13.714  13.139   7.663
 1849POPC   C1B27115  13.557  12.699   8.744
 1849POPC   C2B27116  13.313  12.740   8.389
 1849POPC   C3B27117  13.412  12.837   7.977
 1849POPC   C4B27118  13.178  12.603   7.709
 1850POPC   NC327119  12.704   4.680   9.565
 1850POPC   PO427120  13.055   5.304   9.650
 1850POPC   GL127121  12.914   5.243   9.212
 1850POPC   GL227122  12.575   5.063   9.195
 1850POPC   C1A27123  13.087   5.333   8.813
 1850POPC   D2A27124  13.063   5.132   8.412
 1850POPC   C3A27125  12.879   5.305   8.031
 1850POPC   C4A27126  13.160   5.296   7.687
 1850POPC   C1B27127  12.621   5.177   8.742
 1850POPC   C2B27128  12.541   5.005   8.331
 1850POPC   C3B27129  12.606   4.857   7.898
 1850POPC   C4B27130  12.442   4.961   7.440
 1851POPC   NC327131  19.945   3.096   9.530
 1851POPC   PO427132  19.490   2.596   9.544
 1851POPC   GL127133  19.421   2.617   9.129
 1851POPC   GL227134  19.656   2.888   9.110
 1851POPC   C1A27135  19.555   2.578   8.687
 1851POPC   D2A27136  19.671   2.932   8.439
 1851POPC   C3A27137  19.633   2.890   8.028
 1851POPC   C4A27138  19.619   3.102   7.663
 1851POPC   C1B27139  20.026   2.978   8.850
 1851POPC   C2B27140  20.157   3.087   8.441
 1851POPC   C3B27141  20.167   2.911   8.039
 1851POPC   C4B27142  20.133   3.153   7.646
 1852POPC   NC327143  38.471  20.640   9.585
 1852POPC   PO427144  39.066  20.957   9.436
 1852POPC   GL127145  38.780  20.704   9.157
 1852POPC   GL227146  38.412  20.795   9.092
 1852POPC   C1A27147  38.844  20.544   8.702
 1852POPC   D2A27148  38.966  20.691   8.272
 1852POPC   C3A27149  38.644  20.658   7.954
 1852POPC   C4A27150  38.549  20.480   7.554
 1852POPC   C1B27151  38.407  20.364   8.924
 1852POPC   C2B27152  38.382  20.248   8.465
 1852POPC   C3B27153  38.167  20.436   8.092
 1852POPC   C4B27154  38.116  20.229   7.680
 1853POPC   NC327155  41.470  10.954   9.633
 1853POPC   PO427156  41.484  11.479   9.492
 1853POPC   GL127157  41.615  11.205   9.146
 1853POPC   GL227158  41.417  10.914   9.115
 1853POPC   C1A27159  41.636  11.291   8.700
 1853POPC   D2A27160  41.420  11.474   8.364
 1853POPC   C3A27161  41.642  11.350   7.998
 1853POPC   C4A27162  42.062  11.210   7.911
 1853POPC   C1B27163  41.288  10.922   8.680
 1853POPC   C2B27164  41.435  10.956   8.259
 1853POPC   C3B27165  41.362  10.962   7.801
 1853POPC   C4B27166  41.273  11.102   7.369
 1854POPC   NC327167  41.087  27.429   9.502
 1854POPC   PO427168  40.491  27.849   9.481
 1854POPC   GL127169  40.810  27.778   9.132
 1854POPC   GL227170  40.906  27.441   9.047
 1854POPC   C1A27171  40.742  27.743   8.679
 1854POPC   D2A27172  40.501  27.869   8.325
 1854POPC   C3A27173  40.719  27.829   7.942
 1854POPC   C4A27174  40.522  27.747   7.582
 1854POPC   C1B27175  41.067  27.344   8.666
 1854POPC   C2B27176  41.018  27.544   8.273
 1854POPC   C3B27177  41.010  27.386   7.863
 1854POPC   C4B27178  40.686  27.100   7.728
 1855POPC   NC327179  12.569  22.045   9.488
 1855POPC   PO427180  13.277  22.116   9.512
 1855POPC   GL127181  13.068  22.051   9.115
 1855POPC   GL227182  12.786  22.275   9.093
 1855POPC   C1A27183  12.944  22.053   8.661
 1855POPC   D2A27184  12.692  22.111   8.287
 1855POPC   C3A27185  12.900  21.944   7.918
 1855POPC   C4A27186  12.775  21.892   7.478
 1855POPC   C1B27187  12.797  22.529   8.719
 1855POPC   C2B27188  12.945  22.565   8.328
 1855POPC   C3B27189  12.783  22.483   7.916
 1855POPC   C4B27190  12.528  22.763   7.665
 1856POPC   NC327191  34.839  23.125   9.398
 1856POPC   PO427192  34.307  22.671   9.483
 1856POPC   GL127193  34.500  22.756   9.122
 1856POPC   GL227194  34.381  23.082   9.023
 1856POPC   C1A27195  34.346  22.692   8.701
 1856POPC   D2A27196  34.287  23.037   8.422
 1856POPC   C3A27197  34.418  22.883   8.014
 1856POPC   C4A27198  34.414  22.882   7.578
 1856POPC   C1B27199  34.746  23.060   8.754
 1856POPC   C2B27200  34.928  23.333   8.458
 1856POPC   C3B27201  34.815  23.244   8.047
 1856POPC   C4B27202  34.897  23.030   7.679
 1857POPC   NC327203  28.107   6.413   9.579
 1857POPC   PO427204  28.513   6.899   9.342
 1857POPC   GL127205  28.510   6.553   9.043
 1857POPC   GL227206  28.227   6.361   9.107
 1857POPC   C1A27207  28.468   6.615   8.578
 1857POPC   D2A27208  28.413   6.889   8.237
 1857POPC   C3A27209  28.465   6.642   7.909
 1857POPC   C4A27210  28.643   6.260   8.025
 1857POPC   C1B27211  28.236   6.196   8.736
 1857POPC   C2B27212  28.068   6.344   8.362
 1857POPC   C3B27213  28.100   6.261   7.936
 1857POPC   C4B27214  28.189   6.445   7.540
 1858POPC   NC327215  10.849   5.826   9.618
 1858POPC   PO427216  11.535   5.881   9.521
 1858POPC   GL127217  11.255   5.963   9.161
 1858POPC   GL227218  10.968   6.157   9.256
 1858POPC   C1A27219  11.333   6.082   8.749
 1858POPC   D2A27220  11.346   5.755   8.461
 1858POPC   C3A27221  11.612   5.825   8.101
 1858POPC   C4A27222  11.444   5.838   7.688
 1858POPC   C1B27223  10.805   6.068   8.830
 1858POPC   C2B27224  10.927   6.098   8.407
 1858POPC   C3B27225  11.103   5.981   8.044
 1858POPC   C4B27226  10.935   6.093   7.665
 1859POPC   NC327227  14.835  11.138   9.326
 1859POPC   PO427228  15.497  11.374   9.444
 1859POPC   GL127229  15.250  11.361   9.062
 1859POPC   GL227230  15.265  11.016   9.001
 1859POPC   C1A27231  15.089  11.314   8.611
 1859POPC   D2A27232  14.853  11.312   8.206
 1859POPC   C3A27233  15.124  11.259   7.826
 1859POPC   C4A27234  15.539  11.035   7.751
 1859POPC   C1B27235  14.901  10.837   8.740
 1859POPC   C2B27236  14.801  10.699   8.322
 1859POPC   C3B27237  14.716  10.863   7.904
 1859POPC   C4B27238  14.667  11.122   7.539
 1860POPC   NC327239  14.145  26.858   9.264
 1860POPC   PO427240  14.754  27.027   9.365
 1860POPC   GL127241  14.568  26.850   9.009
 1860POPC   GL227242  14.551  26.506   9.184
 1860POPC   C1A27243  14.342  26.847   8.641
 1860POPC   D2A27244  14.139  27.001   8.313
 1860POPC   C3A27245  14.365  26.899   7.985
 1860POPC   C4A27246  14.381  27.089   7.563
 1860POPC   C1B27247  14.338  26.355   8.812
 1860POPC   C2B27248  14.458  26.413   8.382
 1860POPC   C3B27249  14.343  26.374   7.963
 1860POPC   C4B27250  14.454  26.591   7.607
 1861POPC   NC327251  10.914  17.756   9.311
 1861POPC   PO427252  10.949  17.123   9.565
 1861POPC   GL127253  11.249  17.238   9.210
 1861POPC   GL227254  11.501  17.498   9.298
 1861POPC   C1A27255  11.482  17.237   8.808
 1861POPC   D2A27256  11.320  17.397   8.402
 1861POPC   C3A27257  11.470  17.323   8.006
 1861POPC   C4A27258  11.293  17.506   7.634
 1861POPC   C1B27259  11.450  17.734   8.911
 1861POPC   C2B27260  11.553  17.820   8.487
 1861POPC   C3B27261  11.365  17.829   8.082
 1861POPC   C4B27262  11.467  17.991   7.697
 1862POPC   NC327263  32.446  21.153   9.805
 1862POPC   PO427264  32.151  21.693   9.452
 1862POPC   GL127265  32.348  21.500   9.096
 1862POPC   GL227266  32.237  21.189   9.088
 1862POPC   C1A27267  32.306  21.434   8.651
 1862POPC   D2A27268  32.101  21.652   8.327
 1862POPC   C3A27269  32.324  21.696   7.947
 1862POPC   C4A27270  32.173  21.733   7.536
 1862POPC   C1B27271  31.924  21.000   8.778
 1862POPC   C2B27272  31.981  20.893   8.340
 1862POPC   C3B27273  32.252  21.166   8.092
 1862POPC   C4B27274  32.380  21.260   7.666
 1863POPC   NC327275   4.202  17.125   9.527
 1863POPC   PO427276   4.071  16.503   9.551
 1863POPC   GL127277   4.057  16.751   9.196
 1863POPC   GL227278   3.948  17.074   9.074
 1863POPC   C1A27279   4.406  16.870   8.936
 1863POPC   D2A27280   4.458  16.710   8.526
 1863POPC   C3A27281   4.575  16.883   8.134
 1863POPC   C4A27282   4.307  16.929   7.771
 1863POPC   C1B27283   4.014  16.961   8.633
 1863POPC   C2B27284   4.053  16.928   8.214
 1863POPC   C3B27285   3.882  17.166   7.861
 1863POPC   C4B27286   3.945  17.043   7.426
 1864POPC   NC327287  44.669  11.944   9.597
 1864POPC   PO427288  44.125  12.414   9.643
 1864POPC   GL127289  44.473  12.275   9.254
 1864POPC   GL227290  44.599  11.891   9.123
 1864POPC   C1A27291  44.683  12.266   8.813
 1864POPC   D2A27292  44.728  12.401   8.378
 1864POPC   C3A27293  44.727  12.249   7.937
 1864POPC   C4A27294  44.667  12.331   7.494
 1864POPC   C1B27295  44.597  11.772   8.738
 1864POPC   C2B27296  44.733  11.879   8.352
 1864POPC   C3B27297  44.602  11.751   7.971
 1864POPC   C4B27298  44.793  11.842   7.598
 1865POPC   NC327299  36.689   8.821   9.406
 1865POPC   PO427300  37.342   8.857   9.371
 1865POPC   GL127301  37.144   9.060   9.060
 1865POPC   GL227302  36.775   9.150   9.011
 1865POPC   C1A27303  37.207   8.962   8.650
 1865POPC   D2A27304  36.919   9.200   8.357
 1865POPC   C3A27305  36.954   9.042   7.916
 1865POPC   C4A27306  36.859   8.992   7.452
 1865POPC   C1B27307  36.735   8.824   8.679
 1865POPC   C2B27308  36.663   8.451   8.444
 1865POPC   C3B27309  36.641   8.596   8.014
 1865POPC   C4B27310  36.552   8.596   7.581
 1866POPC   NC327311   0.568  13.933   9.339
 1866POPC   PO427312   0.442  14.605   9.442
 1866POPC   GL127313   0.374  14.354   9.091
 1866POPC   GL227314   0.523  14.590   8.849
 1866POPC   C1A27315   0.315  14.081   8.741
 1866POPC   D2A27316   0.417  14.162   8.356
 1866POPC   C3A27317   0.229  14.304   7.996
 1866POPC   C4A27318   0.431  14.651   7.833
 1866POPC   C1B27319   0.799  14.222   8.765
 1866POPC   C2B27320   0.926  14.112   8.375
 1866POPC   C3B27321   0.781  14.264   8.020
 1866POPC   C4B27322   0.557  13.938   7.829
 1867POPC   NC327323  36.341  24.783   9.393
 1867POPC   PO427324  36.079  24.161   9.463
 1867POPC   GL127325  36.113  24.412   9.082
 1867POPC   GL227326  35.853  24.680   9.080
 1867POPC   C1A27327  36.003  24.432   8.639
 1867POPC   D2A27328  35.962  24.709   8.320
 1867POPC   C3A27329  35.962  24.529   7.933
 1867POPC   C4A27330  36.354  24.341   7.739
 1867POPC   C1B27331  36.118  24.890   8.786
 1867POPC   C2B27332  36.432  24.902   8.478
 1867POPC   C3B27333  36.438  24.693   8.084
 1867POPC   C4B27334  36.276  24.832   7.661
 1868POPC   NC327335  35.513  31.880   9.458
 1868POPC   PO427336  35.278  32.475   9.335
 1868POPC   GL127337  35.545  32.488   9.025
 1868POPC   GL227338  35.673  32.173   9.077
 1868POPC   C1A27339  35.519  32.327   8.621
 1868POPC   D2A27340  35.228  32.192   8.360
 1868POPC   C3A27341  35.402  32.362   8.000
 1868POPC   C4A27342  35.454  32.241   7.589
 1868POPC   C1B27343  35.545  31.840   8.801
 1868POPC   C2B27344  35.539  31.787   8.377
 1868POPC   C3B27345  35.370  31.849   7.962
 1868POPC   C4B27346  35.306  31.758   7.517
 1869POPC   NC327347   0.016   9.307   9.560
 1869POPC   PO427348   0.647   9.035   9.536
 1869POPC   GL127349   0.381   9.063   9.195
 1869POPC   GL227350   0.431   8.740   9.083
 1869POPC   C1A27351   0.455   9.212   8.775
 1869POPC   D2A27352   0.679   9.081   8.414
 1869POPC   C3A27353   0.361   9.134   8.085
 1869POPC   C4A27354   0.456   9.208   7.656
 1869POPC   C1B27355   0.349   8.733   8.659
 1869POPC   C2B27356   0.422   8.656   8.249
 1869POPC   C3B27357   0.380   8.696   7.806
 1869POPC   C4B27358   0.265   8.602   7.355
 1870POPC   NC327359  25.055  18.142   9.561
 1870POPC   PO427360  25.495  18.644   9.571
 1870POPC   GL127361  25.272  18.469   9.221
 1870POPC   GL227362  25.245  18.107   9.102
 1870POPC   C1A27363  25.271  18.547   8.795
 1870POPC   D2A27364  25.186  18.356   8.422
 1870POPC   C3A27365  25.300  18.544   8.022
 1870POPC   C4A27366  25.356  18.414   7.636
 1870POPC   C1B27367  25.033  17.928   8.736
 1870POPC   C2B27368  24.858  17.992   8.315
 1870POPC   C3B27369  25.118  18.057   7.938
 1870POPC   C4B27370  25.070  18.007   7.468
 1871POPC   NC327371  12.900  27.120   9.432
 1871POPC   PO427372  12.646  27.841   9.542
 1871POPC   GL127373  12.905  27.666   9.237
 1871POPC   GL227374  12.606  27.458   9.182
 1871POPC   C1A27375  12.949  27.601   8.792
 1871POPC   D2A27376  12.696  27.607   8.423
 1871POPC   C3A27377  12.850  27.670   7.999
 1871POPC   C4A27378  12.672  27.854   7.616
 1871POPC   C1B27379  12.517  27.309   8.811
 1871POPC   C2B27380  12.676  27.089   8.501
 1871POPC   C3B27381  12.712  27.185   8.093
 1871POPC   C4B27382  12.535  27.359   7.713
 1872POPC   NC327383  18.598  26.034   9.444
 1872POPC   PO427384  19.210  25.599   9.500
 1872POPC   GL127385  18.992  25.864   9.146
 1872POPC   GL227386  18.959  26.174   9.110
 1872POPC   C1A27387  19.261  26.015   8.770
 1872POPC   D2A27388  19.426  26.228   8.408
 1872POPC   C3A27389  19.368  26.033   7.997
 1872POPC   C4A27390  19.229  26.150   7.584
 1872POPC   C1B27391  18.728  26.213   8.756
 1872POPC   C2B27392  18.905  26.145   8.386
 1872POPC   C3B27393  18.861  26.215   7.974
 1872POPC   C4B27394  18.843  25.850   7.731
 1873POPC   NC327395  44.113  23.054   9.518
 1873POPC   PO427396  43.609  23.252   9.828
 1873POPC   GL127397  43.692  23.223   9.307
 1873POPC   GL227398  44.009  23.366   9.132
 1873POPC   C1A27399  43.509  22.988   8.936
 1873POPC   D2A27400  43.613  22.740   8.532
 1873POPC   C3A27401  43.746  23.002   8.161
 1873POPC   C4A27402  43.633  22.862   7.763
 1873POPC   C1B27403  44.008  22.970   8.878
 1873POPC   C2B27404  44.116  22.618   8.613
 1873POPC   C3B27405  44.092  22.619   8.171
 1873POPC   C4B27406  44.136  22.927   7.774
 1874POPC   NC327407  24.302  23.316   9.446
 1874POPC   PO427408  24.256  22.660   9.516
 1874POPC   GL127409  24.575  22.769   9.171
 1874POPC   GL227410  24.456  23.061   9.055
 1874POPC   C1A27411  24.774  22.871   8.732
 1874POPC   D2A27412  24.566  23.086   8.390
 1874POPC   C3A27413  24.485  22.945   7.949
 1874POPC   C4A27414  24.745  22.664   7.719
 1874POPC   C1B27415  24.202  23.204   8.729
 1874POPC   C2B27416  24.168  23.434   8.326
 1874POPC   C3B27417  24.119  23.312   7.881
 1874POPC   C4B27418  24.004  23.385   7.420
 1875POPC   NC327419  14.353   4.564   9.430
 1875POPC   PO427420  14.950   4.413   9.618
 1875POPC   GL127421  14.705   4.234   9.236
 1875POPC   GL227422  14.747   4.546   9.040
 1875POPC   C1A27423  14.681   4.110   8.767
 1875POPC   D2A27424  14.412   4.181   8.388
 1875POPC   C3A27425  14.557   4.201   7.934
 1875POPC   C4A27426  14.472   4.157   7.488
 1875POPC   C1B27427  14.485   4.661   8.663
 1875POPC   C2B27428  14.492   4.649   8.193
 1875POPC   C3B27429  14.405   4.671   7.752
 1875POPC   C4B27430  14.270   4.667   7.314
 1876POPC   NC327431  29.554  26.152   9.622
 1876POPC   PO427432  29.025  25.770   9.625
 1876POPC   GL127433  29.356  25.810   9.323
 1876POPC   GL227434  29.115  26.058   9.192
 1876POPC   C1A27435  29.465  25.835   8.895
 1876POPC   D2A27436  29.173  25.756   8.583
 1876POPC   C3A27437  29.284  25.757   8.172
 1876POPC   C4A27438  29.081  25.859   7.793
 1876POPC   C1B27439  29.130  26.246   8.784
 1876POPC   C2B27440  28.980  26.174   8.369
 1876POPC   C3B27441  29.162  26.343   8.010
 1876POPC   C4B27442  29.281  26.313   7.597
 1877POPC   NC327443  15.847  17.792   9.669
 1877POPC   PO427444  16.386  17.565   9.613
 1877POPC   GL127445  16.045  17.589   9.230
 1877POPC   GL227446  15.835  17.885   9.154
 1877POPC   C1A27447  15.810  17.510   8.790
 1877POPC   D2A27448  15.617  17.560   8.323
 1877POPC   C3A27449  15.821  17.267   7.997
 1877POPC   C4A27450  16.200  17.344   7.713
 1877POPC   C1B27451  16.169  17.873   8.795
 1877POPC   C2B27452  16.379  17.849   8.388
 1877POPC   C3B27453  16.299  17.886   7.968
 1877POPC   C4B27454  15.924  17.746   7.889
 1878POPC   NC327455  35.988  36.635   9.403
 1878POPC   PO427456  36.326  37.350   9.565
 1878POPC   GL127457  36.241  37.193   9.123
 1878POPC   GL227458  36.258  36.839   9.028
 1878POPC   C1A27459  36.380  37.229   8.708
 1878POPC   D2A27460  36.179  36.973   8.403
 1878POPC   C3A27461  36.324  37.046   7.991
 1878POPC   C4A27462  36.185  37.105   7.590
 1878POPC   C1B27463  35.962  36.619   8.746
 1878POPC   C2B27464  35.874  36.523   8.323
 1878POPC   C3B27465  35.964  36.698   7.916
 1878POPC   C4B27466  36.035  36.628   7.486
 1879POPC   NC327467  26.827  33.497   9.420
 1879POPC   PO427468  26.786  34.194   9.455
 1879POPC   GL127469  26.809  34.046   9.051
 1879POPC   GL227470  26.608  33.708   9.015
 1879POPC   C1A27471  26.704  34.027   8.632
 1879POPC   D2A27472  26.574  33.666   8.467
 1879POPC   C3A27473  26.640  33.633   8.047
 1879POPC   C4A27474  26.770  33.896   7.721
 1879POPC   C1B27475  26.985  33.577   8.775
 1879POPC   C2B27476  27.023  33.390   8.375
 1879POPC   C3B27477  27.162  33.533   7.991
 1879POPC   C4B27478  26.935  33.426   7.645
 1880POPC   NC327479   0.355  44.916   9.498
 1880POPC   PO427480   0.710  44.533   9.132
 1880POPC   GL127481   0.303  44.724   9.024
 1880POPC   GL227482   0.074  44.962   9.083
 1880POPC   C1A27483   0.032  44.586   8.712
 1880POPC   D2A27484   0.161  44.400   8.367
 1880POPC   C3A27485   0.255  44.654   8.049
 1880POPC   C4A27486   0.652  44.698   7.920
 1880POPC   C1B27487   0.281   0.029   8.642
 1880POPC   C2B27488   0.560   0.070   8.268
 1880POPC   C3B27489   0.377   0.130   7.862
 1880POPC   C4B27490   0.322   0.053   7.446
 1881POPC   NC327491   0.061   6.987   9.739
 1881POPC   PO427492  44.441   7.267   9.482
 1881POPC   GL127493  44.469   7.226   9.070
 1881POPC   GL227494  44.829   7.209   9.112
 1881POPC   C1A27495  44.569   7.442   8.720
 1881POPC   D2A27496  44.840   7.517   8.421
 1881POPC   C3A27497  44.600   7.653   8.115
 1881POPC   C4A27498  44.540   7.534   7.712
 1881POPC   C1B27499   0.078   7.203   8.759
 1881POPC   C2B27500   0.043   7.036   8.342
 1881POPC   C3B27501  44.929   7.261   7.981
 1881POPC   C4B27502   0.057   7.475   7.606
 1882POPC   NC327503  22.104  43.255   9.657
 1882POPC   PO427504  21.779  42.754   9.281
 1882POPC   GL127505  22.073  43.029   9.104
 1882POPC   GL227506  22.409  42.964   9.199
 1882POPC   C1A27507  22.154  42.975   8.669
 1882POPC   D2A27508  22.360  42.985   8.283
 1882POPC   C3A27509  22.112  43.102   7.985
 1882POPC   C4A27510  21.965  42.887   7.646
 1882POPC   C1B27511  22.429  43.343   8.910
 1882POPC   C2B27512  22.380  43.460   8.482
 1882POPC   C3B27513  22.545  43.439   8.054
 1882POPC   C4B27514  22.410  43.358   7.653
 1883POPC   NC327515  42.662  20.042   9.410
 1883POPC   PO427516  43.344  20.114   9.510
 1883POPC   GL127517  43.138  19.878   9.193
 1883POPC   GL227518  43.271  19.512   9.213
 1883POPC   C1A27519  42.978  20.003   8.761
 1883POPC   D2A27520  43.311  20.047   8.446
 1883POPC   C3A27521  43.297  19.960   7.996
 1883POPC   C4A27522  42.983  19.980   7.694
 1883POPC   C1B27523  43.332  19.635   8.785
 1883POPC   C2B27524  43.093  19.597   8.412
 1883POPC   C3B27525  43.024  19.508   7.999
 1883POPC   C4B27526  42.662  19.620   7.801
 1884POPC   NC327527  37.722  28.591   9.562
 1884POPC   PO427528  38.159  27.981   9.514
 1884POPC   GL127529  37.961  28.289   9.244
 1884POPC   GL227530  37.636  28.312   9.148
 1884POPC   C1A27531  37.952  28.485   8.800
 1884POPC   D2A27532  37.709  28.460   8.375
 1884POPC   C3A27533  37.929  28.497   7.996
 1884POPC   C4A27534  37.781  28.546   7.565
 1884POPC   C1B27535  37.487  28.196   8.739
 1884POPC   C2B27536  37.369  28.070   8.298
 1884POPC   C3B27537  37.492  28.240   7.873
 1884POPC   C4B27538  37.520  28.100   7.431
 1885POPC   NC327539  13.651  12.128  10.024
 1885POPC   PO427540  13.216  12.118   9.584
 1885POPC   GL127541  13.620  12.080   9.289
 1885POPC   GL227542  13.745  12.409   9.123
 1885POPC   C1A27543  13.781  11.833   8.889
 1885POPC   D2A27544  13.535  11.771   8.475
 1885POPC   C3A27545  13.655  11.830   8.065
 1885POPC   C4A27546  13.637  11.976   7.649
 1885POPC   C1B27547  13.470  12.213   8.819
 1885POPC   C2B27548  13.570  12.277   8.416
 1885POPC   C3B27549  13.509  12.324   8.019
 1885POPC   C4B27550  13.654  12.480   7.678
 1886POPC   NC327551  41.554  30.208   9.585
 1886POPC   PO427552  41.788  29.635   9.362
 1886POPC   GL127553  41.467  29.880   9.167
 1886POPC   GL227554  41.729  30.073   9.055
 1886POPC   C1A27555  41.359  30.007   8.737
 1886POPC   D2A27556  41.606  29.984   8.373
 1886POPC   C3A27557  41.400  30.050   8.004
 1886POPC   C4A27558  41.555  29.844   7.638
 1886POPC   C1B27559  41.716  29.643   8.737
 1886POPC   C2B27560  41.884  29.556   8.307
 1886POPC   C3B27561  41.803  29.434   7.872
 1886POPC   C4B27562  41.826  29.476   7.394
 1887POPC   NC327563   3.287   7.834   9.792
 1887POPC   PO427564   3.688   7.383   9.524
 1887POPC   GL127565   3.577   7.577   9.143
 1887POPC   GL227566   3.717   7.913   9.141
 1887POPC   C1A27567   3.412   7.550   8.738
 1887POPC   D2A27568   3.563   7.358   8.400
 1887POPC   C3A27569   3.532   7.546   8.002
 1887POPC   C4A27570   3.290   7.430   7.662
 1887POPC   C1B27571   3.585   8.044   8.739
 1887POPC   C2B27572   3.659   7.871   8.374
 1887POPC   C3B27573   3.908   7.909   8.048
 1887POPC   C4B27574   3.729   7.920   7.658
 1888POPC   NC327575   1.123  15.688   9.498
 1888POPC   PO427576   1.299  15.048   9.659
 1888POPC   GL127577   1.227  15.082   9.214
 1888POPC   GL227578   1.034  15.362   9.126
 1888POPC   C1A27579   1.347  15.092   8.780
 1888POPC   D2A27580   1.111  15.078   8.400
 1888POPC   C3A27581   1.216  15.175   7.992
 1888POPC   C4A27582   1.318  14.919   7.673
 1888POPC   C1B27583   1.024  15.493   8.702
 1888POPC   C2B27584   1.041  15.567   8.263
 1888POPC   C3B27585   0.991  15.623   7.807
 1888POPC   C4B27586   1.013  15.581   7.352
 1889POPC   NC327587   1.632   7.244   9.333
 1889POPC   PO427588   2.331   7.588   9.454
 1889POPC   GL127589   2.089   7.419   9.129
 1889POPC   GL227590   1.789   7.627   9.057
 1889POPC   C1A27591   2.081   7.208   8.734
 1889POPC   D2A27592   1.981   7.136   8.281
 1889POPC   C3A27593   2.199   7.431   8.006
 1889POPC   C4A27594   2.131   7.518   7.543
 1889POPC   C1B27595   1.642   7.479   8.645
 1889POPC   C2B27596   1.533   7.394   8.192
 1889POPC   C3B27597   1.750   7.299   7.800
 1889POPC   C4B27598   1.647   7.395   7.362
 1890POPC   NC327599   4.515   6.518   9.460
 1890POPC   PO427600   3.976   6.811   9.627
 1890POPC   GL127601   4.106   6.891   9.140
 1890POPC   GL227602   4.398   6.680   8.980
 1890POPC   C1A27603   4.294   7.114   8.748
 1890POPC   D2A27604   4.591   6.910   8.426
 1890POPC   C3A27605   4.395   6.793   8.030
 1890POPC   C4A27606   3.956   6.719   7.851
 1890POPC   C1B27607   4.638   6.430   8.671
 1890POPC   C2B27608   4.522   6.316   8.236
 1890POPC   C3B27609   4.453   6.312   7.782
 1890POPC   C4B27610   4.620   6.083   7.411
 1891POPC   NC327611  43.540  36.072   9.545
 1891POPC   PO427612  44.157  35.793   9.539
 1891POPC   GL127613  44.037  36.074   9.178
 1891POPC   GL227614  44.088  35.843   8.890
 1891POPC   C1A27615  44.048  36.354   8.797
 1891POPC   D2A27616  43.951  36.192   8.380
 1891POPC   C3A27617  44.049  36.382   7.997
 1891POPC   C4A27618  43.975  36.207   7.594
 1891POPC   C1B27619  43.683  35.993   8.784
 1891POPC   C2B27620  43.452  36.100   8.415
 1891POPC   C3B27621  43.660  35.989   8.014
 1891POPC   C4B27622  43.533  35.919   7.621
 1892POPC   NC327623  29.354  43.841   9.719
 1892POPC   PO427624  29.968  43.877   9.525
 1892POPC   GL127625  29.875  43.734   9.142
 1892POPC   GL227626  29.530  43.831   9.234
 1892POPC   C1A27627  29.816  43.642   8.681
 1892POPC   D2A27628  29.701  43.588   8.235
 1892POPC   C3A27629  29.921  43.834   7.927
 1892POPC   C4A27630  29.937  43.796   7.476
 1892POPC   C1B27631  29.375  43.819   8.841
 1892POPC   C2B27632  29.552  44.031   8.496
 1892POPC   C3B27633  29.553  44.164   8.102
 1892POPC   C4B27634  29.760  44.257   7.707
 1893POPC   NC327635  27.158  15.167   9.550
 1893POPC   PO427636  26.737  15.567   9.194
 1893POPC   GL127637  26.673  15.113   9.128
 1893POPC   GL227638  26.990  14.959   9.106
 1893POPC   C1A27639  26.632  14.936   8.709
 1893POPC   D2A27640  26.768  15.266   8.415
 1893POPC   C3A27641  26.765  15.197   7.973
 1893POPC   C4A27642  26.822  15.359   7.555
 1893POPC   C1B27643  27.127  14.911   8.670
 1893POPC   C2B27644  26.936  14.792   8.264
 1893POPC   C3B27645  27.087  14.843   7.801
 1893POPC   C4B27646  27.264  14.846   7.359
 1894POPC   NC327647  37.666  43.552   9.433
 1894POPC   PO427648  37.489  44.209   9.414
 1894POPC   GL127649  37.712  44.118   9.037
 1894POPC   GL227650  37.914  43.820   9.078
 1894POPC   C1A27651  37.691  43.978   8.596
 1894POPC   D2A27652  37.571  43.939   8.140
 1894POPC   C3A27653  37.873  44.021   7.785
 1894POPC   C4A27654  38.014  44.133   7.346
 1894POPC   C1B27655  38.054  43.595   8.724
 1894POPC   C2B27656  37.898  43.583   8.332
 1894POPC   C3B27657  38.037  43.532   7.933
 1894POPC   C4B27658  37.916  43.168   7.729
 1895POPC   NC327659  37.032  31.747   9.487
 1895POPC   PO427660  36.584  31.302   9.408
 1895POPC   GL127661  36.892  31.390   9.103
 1895POPC   GL227662  37.155  31.224   9.286
 1895POPC   C1A27663  37.016  31.702   8.785
 1895POPC   D2A27664  37.173  31.874   8.335
 1895POPC   C3A27665  36.982  31.652   7.980
 1895POPC   C4A27666  36.895  31.774   7.551
 1895POPC   C1B27667  37.123  30.940   8.926
 1895POPC   C2B27668  37.038  30.913   8.484
 1895POPC   C3B27669  37.248  30.969   8.090
 1895POPC   C4B27670  37.077  31.177   7.736
 1896POPC   NC327671  18.435  35.885   9.386
 1896POPC   PO427672  18.344  35.214   9.591
 1896POPC   GL127673  18.241  35.054   9.197
 1896POPC   GL227674  18.548  35.083   9.003
 1896POPC   C1A27675  18.078  35.115   8.781
 1896POPC   D2A27676  18.351  35.156   8.405
 1896POPC   C3A27677  18.154  35.212   8.001
 1896POPC   C4A27678  18.051  35.136   7.603
 1896POPC   C1B27679  18.433  35.470   8.829
 1896POPC   C2B27680  18.495  35.755   8.500
 1896POPC   C3B27681  18.438  35.625   8.097
 1896POPC   C4B27682  18.384  35.531   7.651
 1897POPC   NC327683  30.819  23.355   9.439
 1897POPC   PO427684  30.719  22.683   9.838
 1897POPC   GL127685  30.817  22.716   9.322
 1897POPC   GL227686  30.656  23.020   9.106
 1897POPC   C1A27687  30.904  22.678   8.841
 1897POPC   D2A27688  30.711  22.952   8.542
 1897POPC   C3A27689  30.974  23.071   8.223
 1897POPC   C4A27690  31.002  23.006   7.809
 1897POPC   C1B27691  30.412  23.306   8.798
 1897POPC   C2B27692  30.342  23.406   8.367
 1897POPC   C3B27693  30.482  23.175   7.996
 1897POPC   C4B27694  30.269  23.296   7.621
 1898POPC   NC327695  11.877   3.726   9.469
 1898POPC   PO427696  12.261   3.123   9.459
 1898POPC   GL127697  12.298   3.457   9.176
 1898POPC   GL227698  11.975   3.444   9.057
 1898POPC   C1A27699  12.327   3.635   8.759
 1898POPC   D2A27700  12.167   3.430   8.417
 1898POPC   C3A27701  12.286   3.505   8.000
 1898POPC   C4A27702  12.410   3.537   7.566
 1898POPC   C1B27703  11.767   3.591   8.717
 1898POPC   C2B27704  11.642   3.380   8.348
 1898POPC   C3B27705  11.775   3.502   8.023
 1898POPC   C4B27706  11.926   3.757   7.725
 1899POPC   NC327707  43.315   1.076   9.592
 1899POPC   PO427708  43.146   1.726   9.439
 1899POPC   GL127709  43.084   1.337   9.159
 1899POPC   GL227710  43.201   0.960   9.127
 1899POPC   C1A27711  43.120   1.247   8.710
 1899POPC   D2A27712  43.267   1.490   8.365
 1899POPC   C3A27713  43.076   1.385   7.986
 1899POPC   C4A27714  43.107   1.574   7.607
 1899POPC   C1B27715  43.514   0.914   8.817
 1899POPC   C2B27716  43.614   1.126   8.450
 1899POPC   C3B27717  43.467   1.055   8.031
 1899POPC   C4B27718  43.482   1.228   7.646
 1900POPC   NC327719  18.992  42.108   9.549
 1900POPC   PO427720  19.539  42.053   9.181
 1900POPC   GL127721  19.173  42.317   9.127
 1900POPC   GL227722  19.009  42.634   9.247
 1900POPC   C1A27723  18.884  42.312   8.813
 1900POPC   D2A27724  19.061  42.278   8.420
 1900POPC   C3A27725  18.776  42.238   8.120
 1900POPC   C4A27726  18.955  42.177   7.710
 1900POPC   C1B27727  19.164  42.754   8.833
 1900POPC   C2B27728  19.046  42.799   8.398
 1900POPC   C3B27729  19.085  42.632   7.957
 1900POPC   C4B27730  18.881  42.704   7.539
 1901POPC   NC327731  27.232  42.525   9.420
 1901POPC   PO427732  27.738  42.170   9.416
 1901POPC   GL127733  27.664  42.467   9.131
 1901POPC   GL227734  27.406  42.281   9.023
 1901POPC   C1A27735  27.573  42.638   8.716
 1901POPC   D2A27736  27.631  42.440   8.311
 1901POPC   C3A27737  27.840  42.551   7.958
 1901POPC   C4A27738  27.722  42.517   7.538
 1901POPC   C1B27739  27.446  42.117   8.650
 1901POPC   C2B27740  27.221  42.161   8.267
 1901POPC   C3B27741  27.285  42.336   7.860
 1901POPC   C4B27742  27.125  42.084   7.494
 1902POPC   NC327743  32.467  17.697   9.590
 1902POPC   PO427744  33.093  17.426   9.458
 1902POPC   GL127745  32.870  17.497   9.111
 1902POPC   GL227746  33.186  17.512   8.952
 1902POPC   C1A27747  32.606  17.329   8.795
 1902POPC   D2A27748  32.480  17.265   8.353
 1902POPC   C3A27749  32.787  17.342   8.053
 1902POPC   C4A27750  32.763  17.165   7.619
 1902POPC   C1B27751  33.011  17.587   8.586
 1902POPC   C2B27752  33.188  17.658   8.222
 1902POPC   C3B27753  33.401  17.390   7.956
 1902POPC   C4B27754  33.253  17.172   7.651
 1903POPC   NC327755  23.905  22.838   9.764
 1903POPC   PO427756  23.449  23.241   9.408
 1903POPC   GL127757  23.708  22.983   9.071
 1903POPC   GL227758  23.444  22.732   8.960
 1903POPC   C1A27759  23.791  22.920   8.618
 1903POPC   D2A27760  24.083  22.908   8.296
 1903POPC   C3A27761  23.845  22.891   7.953
 1903POPC   C4A27762  23.688  23.016   7.559
 1903POPC   C1B27763  23.258  22.760   8.588
 1903POPC   C2B27764  23.441  22.686   8.228
 1903POPC   C3B27765  23.356  22.731   7.812
 1903POPC   C4B27766  23.359  22.519   7.412
 1904POPC   NC327767   3.017  10.366   9.469
 1904POPC   PO427768   2.362  10.380   9.432
 1904POPC   GL127769   2.636  10.632   9.160
 1904POPC   GL227770   2.969  10.510   8.973
 1904POPC   C1A27771   2.578  10.632   8.707
 1904POPC   D2A27772   2.870  10.365   8.508
 1904POPC   C3A27773   2.860  10.532   8.147
 1904POPC   C4A27774   2.554  10.574   7.818
 1904POPC   C1B27775   3.102  10.815   8.626
 1904POPC   C2B27776   3.097  10.990   8.186
 1904POPC   C3B27777   2.985  10.840   7.745
 1904POPC   C4B27778   3.029  10.574   7.348
 1905POPC   NC327779  19.929  39.779   9.415
 1905POPC   PO427780  19.574  40.286   9.433
 1905POPC   GL127781  19.621  40.056   9.073
 1905POPC   GL227782  19.980  40.009   8.948
 1905POPC   C1A27783  19.549  39.940   8.669
 1905POPC   D2A27784  19.881  39.988   8.389
 1905POPC   C3A27785  19.692  39.886   8.026
 1905POPC   C4A27786  19.610  39.851   7.598
 1905POPC   C1B27787  20.171  40.348   8.687
 1905POPC   C2B27788  20.048  40.475   8.275
 1905POPC   C3B27789  19.914  40.318   7.904
 1905POPC   C4B27790  19.870  40.436   7.521
 1906POPC   NC327791  14.497  36.525   9.715
 1906POPC   PO427792  14.497  35.858   9.548
 1906POPC   GL127793  14.241  35.945   9.180
 1906POPC   GL227794  14.577  36.050   9.060
 1906POPC   C1A27795  14.209  36.116   8.735
 1906POPC   D2A27796  14.578  36.196   8.463
 1906POPC   C3A27797  14.428  36.320   8.043
 1906POPC   C4A27798  14.262  36.068   7.711
 1906POPC   C1B27799  14.893  35.882   8.827
 1906POPC   C2B27800  14.819  35.738   8.425
 1906POPC   C3B27801  14.820  35.982   8.039
 1906POPC   C4B27802  14.697  35.855   7.625
 1907POPC   NC327803   8.484  22.289   9.545
 1907POPC   PO427804   8.065  21.823   9.579
 1907POPC   GL127805   8.197  22.029   9.167
 1907POPC   GL227806   8.478  22.279   9.058
 1907POPC   C1A27807   8.113  22.167   8.742
 1907POPC   D2A27808   8.252  22.090   8.344
 1907POPC   C3A27809   8.053  22.149   8.013
 1907POPC   C4A27810   8.263  22.007   7.697
 1907POPC   C1B27811   8.597  22.274   8.657
 1907POPC   C2B27812   8.616  22.530   8.303
 1907POPC   C3B27813   8.437  22.510   7.893
 1907POPC   C4B27814   8.094  22.483   7.638
 1908POPC   NC327815  17.064  24.232   9.589
 1908POPC   PO427816  16.436  24.453   9.594
 1908POPC   GL127817  16.689  24.324   9.228
 1908POPC   GL227818  16.951  24.518   9.189
 1908POPC   C1A27819  16.823  24.187   8.798
 1908POPC   D2A27820  17.053  24.159   8.410
 1908POPC   C3A27821  16.905  24.416   8.107
 1908POPC   C4A27822  16.562  24.312   7.829
 1908POPC   C1B27823  16.863  24.688   8.780
 1908POPC   C2B27824  17.063  24.871   8.432
 1908POPC   C3B27825  16.959  24.934   8.006
 1908POPC   C4B27826  16.911  24.648   7.654
 1909POPC   NC327827   0.769   0.509   9.488
 1909POPC   PO427828   0.092   0.286   9.518
 1909POPC   GL127829   0.341   0.387   9.152
 1909POPC   GL227830   0.615   0.150   9.111
 1909POPC   C1A27831   0.191   0.519   8.724
 1909POPC   D2A27832   0.156   0.387   8.273
 1909POPC   C3A27833   0.247   0.636   7.898
 1909POPC   C4A27834   0.265   0.611   7.433
 1909POPC   C1B27835   0.682   0.336   8.695
 1909POPC   C2B27836   0.602   0.602   8.314
 1909POPC   C3B27837   0.740   0.470   7.909
 1909POPC   C4B27838   0.978   0.096   7.871
 1910POPC   NC327839  16.738  33.426   9.392
 1910POPC   PO427840  16.302  33.820   9.697
 1910POPC   GL127841  16.494  33.885   9.256
 1910POPC   GL227842  16.855  33.890   9.137
 1910POPC   C1A27843  16.498  33.748   8.798
 1910POPC   D2A27844  16.656  33.645   8.368
 1910POPC   C3A27845  16.533  33.887   7.997
 1910POPC   C4A27846  16.799  34.119   7.698
 1910POPC   C1B27847  16.969  33.941   8.675
 1910POPC   C2B27848  16.990  34.022   8.217
 1910POPC   C3B27849  17.004  33.699   7.882
 1910POPC   C4B27850  16.785  33.648   7.465
 1911POPC   NC327851  17.743   6.656   9.463
 1911POPC   PO427852  17.297   7.018   9.725
 1911POPC   GL127853  17.321   6.592   9.241
 1911POPC   GL227854  17.606   6.752   8.998
 1911POPC   C1A27855  17.223   6.534   8.795
 1911POPC   D2A27856  17.509   6.774   8.472
 1911POPC   C3A27857  17.506   6.791   8.003
 1911POPC   C4A27858  17.193   6.695   7.647
 1911POPC   C1B27859  17.720   6.403   8.786
 1911POPC   C2B27860  17.819   6.347   8.407
 1911POPC   C3B27861  17.869   6.418   8.016
 1911POPC   C4B27862  17.707   6.117   7.779
 1912POPC   NC327863  35.400  35.786   9.448
 1912POPC   PO427864  35.568  36.466   9.476
 1912POPC   GL127865  35.347  36.254   9.200
 1912POPC   GL227866  35.206  36.523   9.060
 1912POPC   C1A27867  35.273  36.070   8.796
 1912POPC   D2A27868  35.506  36.182   8.430
 1912POPC   C3A27869  35.285  36.140   8.057
 1912POPC   C4A27870  35.104  35.877   7.758
 1912POPC   C1B27871  35.365  36.631   8.697
 1912POPC   C2B27872  35.101  36.513   8.378
 1912POPC   C3B27873  34.897  36.503   8.001
 1912POPC   C4B27874  35.083  36.401   7.642
 1913POPC   NC327875  17.910  35.382   9.591
 1913POPC   PO427876  17.361  35.048   9.510
 1913POPC   GL127877  17.565  35.422   9.209
 1913POPC   GL227878  17.959  35.520   9.120
 1913POPC   C1A27879  17.618  35.470   8.762
 1913POPC   D2A27880  17.432  35.381   8.398
 1913POPC   C3A27881  17.519  35.576   8.090
 1913POPC   C4A27882  17.600  35.369   7.729
 1913POPC   C1B27883  18.027  35.755   8.748
 1913POPC   C2B27884  17.989  35.546   8.349
 1913POPC   C3B27885  17.971  35.709   7.899
 1913POPC   C4B27886  17.918  35.621   7.446
 1914POPC   NC327887  33.503  38.467   9.766
 1914POPC   PO427888  33.929  38.222   9.323
 1914POPC   GL127889  33.819  38.332   8.976
 1914POPC   GL227890  33.702  38.651   9.086
 1914POPC   C1A27891  33.918  38.204   8.595
 1914POPC   D2A27892  33.884  38.475   8.281
 1914POPC   C3A27893  34.072  38.405   7.860
 1914POPC   C4A27894  33.956  38.412   7.420
 1914POPC   C1B27895  33.994  38.744   8.734
 1914POPC   C2B27896  34.055  38.955   8.330
 1914POPC   C3B27897  33.779  38.846   7.970
 1914POPC   C4B27898  33.720  38.839   7.541
 1915POPC   NC327899  36.177  17.886   9.569
 1915POPC   PO427900  36.182  18.551   9.599
 1915POPC   GL127901  36.295  18.313   9.234
 1915POPC   GL227902  35.975  18.222   9.196
 1915POPC   C1A27903  36.313  18.421   8.781
 1915POPC   D2A27904  36.488  18.371   8.333
 1915POPC   C3A27905  36.253  18.527   7.974
 1915POPC   C4A27906  36.049  18.585   7.580
 1915POPC   C1B27907  35.925  18.105   8.758
 1915POPC   C2B27908  35.983  18.303   8.354
 1915POPC   C3B27909  35.791  18.273   7.937
 1915POPC   C4B27910  35.595  18.011   7.605
 1916POPC   NC327911  11.016   8.161   9.530
 1916POPC   PO427912  11.766   8.343   9.566
 1916POPC   GL127913  11.470   8.264   9.212
 1916POPC   GL227914  11.160   8.419   9.094
 1916POPC   C1A27915  11.372   8.084   8.772
 1916POPC   D2A27916  11.455   7.980   8.326
 1916POPC   C3A27917  11.230   7.952   7.939
 1916POPC   C4A27918  11.360   8.133   7.521
 1916POPC   C1B27919  10.987   8.429   8.670
 1916POPC   C2B27920  10.987   8.349   8.221
 1916POPC   C3B27921  10.936   8.368   7.766
 1916POPC   C4B27922  11.041   8.548   7.358
 1917POPC   NC327923  42.485   8.777   9.434
 1917POPC   PO427924  42.748   9.374   9.677
 1917POPC   GL127925  42.601   9.281   9.220
 1917POPC   GL227926  42.289   9.109   9.114
 1917POPC   C1A27927  42.679   9.145   8.777
 1917POPC   D2A27928  42.610   8.797   8.462
 1917POPC   C3A27929  42.393   8.939   8.085
 1917POPC   C4A27930  42.443   9.175   7.679
 1917POPC   C1B27931  42.190   8.862   8.751
 1917POPC   C2B27932  41.909   8.882   8.406
 1917POPC   C3B27933  41.946   8.674   8.078
 1917POPC   C4B27934  42.125   8.776   7.690
 1918POPC   NC327935  34.889  39.491   9.328
 1918POPC   PO427936  34.531  38.947   9.401
 1918POPC   GL127937  34.569  39.168   9.060
 1918POPC   GL227938  34.377  39.470   9.168
 1918POPC   C1A27939  34.920  39.096   8.769
 1918POPC   D2A27940  34.889  38.917   8.359
 1918POPC   C3A27941  34.832  39.305   8.140
 1918POPC   C4A27942  34.846  39.403   7.725
 1918POPC   C1B27943  34.468  39.537   8.712
 1918POPC   C2B27944  34.360  39.513   8.255
 1918POPC   C3B27945  34.377  39.241   7.901
 1918POPC   C4B27946  34.195  38.903   7.719
 1919POPC   NC327947   9.392  21.960   9.286
 1919POPC   PO427948   9.794  22.296   9.754
 1919POPC   GL127949   9.932  22.068   9.354
 1919POPC   GL227950   9.807  22.272   9.073
 1919POPC   C1A27951  10.027  21.841   8.938
 1919POPC   D2A27952   9.826  21.775   8.518
 1919POPC   C3A27953   9.914  21.979   8.094
 1919POPC   C4A27954  10.120  21.757   7.742
 1919POPC   C1B27955   9.651  22.249   8.652
 1919POPC   C2B27956   9.480  22.438   8.295
 1919POPC   C3B27957   9.499  22.327   7.877
 1919POPC   C4B27958   9.390  22.382   7.421
 1920POPC   NC327959   7.696  11.920   9.743
 1920POPC   PO427960   7.816  12.597   9.591
 1920POPC   GL127961   7.617  12.356   9.195
 1920POPC   GL227962   7.287  12.364   9.053
 1920POPC   C1A27963   7.627  12.113   8.763
 1920POPC   D2A27964   7.756  11.860   8.420
 1920POPC   C3A27965   7.742  12.042   7.997
 1920POPC   C4A27966   7.491  11.930   7.658
 1920POPC   C1B27967   7.117  12.096   8.745
 1920POPC   C2B27968   7.303  12.067   8.332
 1920POPC   C3B27969   7.311  12.350   7.986
 1920POPC   C4B27970   7.111  12.301   7.606
 1921POPC   NC327971   0.611  10.978   9.577
 1921POPC   PO427972   0.066  11.363   9.686
 1921POPC   GL127973   0.262  11.267   9.229
 1921POPC   GL227974   0.302  11.547   9.120
 1921POPC   C1A27975   0.323  11.079   8.808
 1921POPC   D2A27976   0.616  11.179   8.472
 1921POPC   C3A27977   0.528  11.075   8.049
 1921POPC   C4A27978   0.331  11.295   7.709
 1921POPC   C1B27979   0.456  11.602   8.714
 1921POPC   C2B27980   0.720  11.669   8.342
 1921POPC   C3B27981   0.803  11.530   7.915
 1921POPC   C4B27982   0.845  11.724   7.509
 1922POPC   NC327983   7.507  17.677   9.621
 1922POPC   PO427984   7.758  17.072   9.520
 1922POPC   GL127985   7.507  17.348   9.226
 1922POPC   GL227986   7.623  17.732   9.141
 1922POPC   C1A27987   7.424  17.219   8.810
 1922POPC   D2A27988   7.234  17.087   8.429
 1922POPC   C3A27989   7.441  17.255   8.084
 1922POPC   C4A27990   7.330  17.481   7.727
 1922POPC   C1B27991   7.243  17.682   8.919
 1922POPC   C2B27992   7.230  17.614   8.489
 1922POPC   C3B27993   7.473  17.772   8.146
 1922POPC   C4B27994   7.380  17.988   7.772
 1923POPC   NC327995  37.645   8.511   9.443
 1923POPC   PO427996  37.303   7.992   9.329
 1923POPC   GL127997  37.645   8.135   9.028
 1923POPC   GL227998  37.903   8.417   9.018
 1923POPC   C1A27999  37.942   7.965   8.738
 1923POPC   D2A28000  37.981   8.270   8.442
 1923POPC   C3A28001  37.938   8.081   8.101
 1923POPC   C4A28002  37.958   8.173   7.723
 1923POPC   C1B28003  37.615   8.629   8.786
 1923POPC   C2B28004  37.602   8.681   8.372
 1923POPC   C3B28005  37.524   8.368   8.072
 1923POPC   C4B28006  37.528   8.428   7.654
 1924POPC   NC328007  34.063  34.781   9.958
 1924POPC   PO428008  33.843  34.314   9.467
 1924POPC   GL128009  33.916  34.432   9.097
 1924POPC   GL228010  33.710  34.708   9.093
 1924POPC   C1A28011  33.874  34.381   8.675
 1924POPC   D2A28012  33.720  34.377   8.273
 1924POPC   C3A28013  34.038  34.519   7.986
 1924POPC   C4A28014  34.099  34.858   7.740
 1924POPC   C1B28015  33.641  34.842   8.686
 1924POPC   C2B28016  33.888  34.858   8.341
 1924POPC   C3B28017  33.637  34.845   7.990
 1924POPC   C4B28018  33.595  34.966   7.590
 1925POPC   NC328019  44.599   1.781   9.297
 1925POPC   PO428020  44.523   2.398   9.539
 1925POPC   GL128021  44.392   2.329   9.131
 1925POPC   GL228022  44.750   2.368   9.076
 1925POPC   C1A28023  44.400   2.173   8.706
 1925POPC   D2A28024  44.756   1.898   8.555
 1925POPC   C3A28025  44.683   1.764   8.129
 1925POPC   C4A28026  44.563   1.426   7.864
 1925POPC   C1B28027  44.848   2.429   8.665
 1925POPC   C2B28028  44.727   2.323   8.253
 1925POPC   C3B28029  44.872   2.402   7.823
 1925POPC   C4B28030  44.678   2.262   7.441
 1926POPC   NC328031  27.731   4.449   9.434
 1926POPC   PO428032  27.467   3.907   9.785
 1926POPC   GL128033  27.547   3.979   9.290
 1926POPC   GL228034  27.883   4.071   9.111
 1926POPC   C1A28035  27.470   3.996   8.814
 1926POPC   D2A28036  27.359   3.993   8.356
 1926POPC   C3A28037  27.404   4.286   7.979
 1926POPC   C4A28038  27.415   4.239   7.524
 1926POPC   C1B28039  27.959   4.092   8.676
 1926POPC   C2B28040  27.798   4.243   8.336
 1926POPC   C3B28041  27.919   4.371   7.980
 1926POPC   C4B28042  27.911   4.163   7.634
 1927POPC   NC328043   8.652  27.937   9.527
 1927POPC   PO428044   9.203  27.522   9.500
 1927POPC   GL128045   9.222  27.456   9.076
 1927POPC   GL228046   8.858  27.429   9.129
 1927POPC   C1A28047   9.008  27.603   8.677
 1927POPC   D2A28048   8.709  27.739   8.342
 1927POPC   C3A28049   8.963  27.773   7.971
 1927POPC   C4A28050   9.291  27.525   7.786
 1927POPC   C1B28051   8.892  27.109   8.804
 1927POPC   C2B28052   9.084  27.049   8.403
 1927POPC   C3B28053   8.922  27.257   8.042
 1927POPC   C4B28054   8.665  27.269   7.681
 1928POPC   NC328055  11.275  35.927   9.436
 1928POPC   PO428056  11.031  36.541   9.453
 1928POPC   GL128057  11.209  36.335   9.126
 1928POPC   GL228058  11.547  36.355   9.259
 1928POPC   C1A28059  11.226  36.060   8.785
 1928POPC   D2A28060  11.149  35.826   8.416
 1928POPC   C3A28061  11.176  36.147   8.130
 1928POPC   C4A28062  11.073  36.111   7.710
 1928POPC   C1B28063  11.652  36.514   8.861
 1928POPC   C2B28064  11.528  36.363   8.482
 1928POPC   C3B28065  11.656  36.399   8.070
 1928POPC   C4B28066  11.724  36.449   7.642
 1929POPC   NC328067   0.646  26.985   9.393
 1929POPC   PO428068   0.022  26.728   9.591
 1929POPC   GL128069   0.227  26.796   9.173
 1929POPC   GL228070   0.136  27.082   8.996
 1929POPC   C1A28071   0.420  26.717   8.747
 1929POPC   D2A28072   0.654  26.495   8.431
 1929POPC   C3A28073   0.694  26.734   8.047
 1929POPC   C4A28074   0.389  26.703   7.695
 1929POPC   C1B28075   0.443  27.231   8.686
 1929POPC   C2B28076   0.436  27.159   8.243
 1929POPC   C3B28077   0.141  27.123   7.894
 1929POPC   C4B28078   0.179  27.078   7.417
 1930POPC   NC328079  27.262  32.627   9.582
 1930POPC   PO428080  27.748  32.177   9.766
 1930POPC   GL128081  27.599  32.145   9.272
 1930POPC   GL228082  27.389  32.427   9.111
 1930POPC   C1A28083  27.762  32.242   8.829
 1930POPC   D2A28084  28.000  32.181   8.443
 1930POPC   C3A28085  27.778  32.277   8.073
 1930POPC   C4A28086  27.906  32.082   7.699
 1930POPC   C1B28087  27.400  32.600   8.690
 1930POPC   C2B28088  27.369  32.527   8.240
 1930POPC   C3B28089  27.394  32.662   7.831
 1930POPC   C4B28090  27.342  32.514   7.378
 1931POPC   NC328091   8.501  28.823   9.562
 1931POPC   PO428092   7.852  28.804   9.280
 1931POPC   GL128093   8.267  28.531   9.209
 1931POPC   GL228094   8.341  28.178   9.222
 1931POPC   C1A28095   8.461  28.460   8.813
 1931POPC   D2A28096   8.263  28.616   8.453
 1931POPC   C3A28097   8.393  28.558   8.055
 1931POPC   C4A28098   8.104  28.589   7.749
 1931POPC   C1B28099   8.253  27.927   8.856
 1931POPC   C2B28100   8.279  28.093   8.455
 1931POPC   C3B28101   8.046  28.186   8.106
 1931POPC   C4B28102   8.094  28.048   7.706
 1932POPC   NC328103  31.246  22.511   9.534
 1932POPC   PO428104  31.168  23.131   9.225
 1932POPC   GL128105  31.362  22.814   9.058
 1932POPC   GL228106  31.705  22.904   8.948
 1932POPC   C1A28107  31.386  22.605   8.699
 1932POPC   D2A28108  31.124  22.501   8.398
 1932POPC   C3A28109  31.296  22.680   8.054
 1932POPC   C4A28110  31.527  22.825   7.704
 1932POPC   C1B28111  31.631  23.150   8.593
 1932POPC   C2B28112  31.601  23.073   8.164
 1932POPC   C3B28113  31.426  23.289   7.824
 1932POPC   C4B28114  31.614  23.304   7.450
 1933POPC   NC328115  29.208  43.057   9.534
 1933POPC   PO428116  28.701  43.599   9.546
 1933POPC   GL128117  28.930  43.352   9.237
 1933POPC   GL228118  28.761  43.087   9.286
 1933POPC   C1A28119  29.196  43.171   8.851
 1933POPC   D2A28120  29.126  42.927   8.430
 1933POPC   C3A28121  29.282  42.865   7.976
 1933POPC   C4A28122  29.352  43.098   7.592
 1933POPC   C1B28123  28.696  43.057   8.867
 1933POPC   C2B28124  28.588  42.940   8.478
 1933POPC   C3B28125  28.750  42.919   8.070
 1933POPC   C4B28126  28.875  42.999   7.666
 1934POPC   NC328127   9.312   5.497   9.581
 1934POPC   PO428128   9.685   6.101   9.554
 1934POPC   GL128129   9.624   5.867   9.160
 1934POPC   GL228130   9.304   5.747   9.107
 1934POPC   C1A28131   9.746   5.806   8.710
 1934POPC   D2A28132  10.058   5.560   8.437
 1934POPC   C3A28133  10.151   5.720   7.976
 1934POPC   C4A28134   9.923   5.922   7.595
 1934POPC   C1B28135   9.375   6.158   8.821
 1934POPC   C2B28136   9.480   6.315   8.386
 1934POPC   C3B28137   9.616   6.128   8.016
 1934POPC   C4B28138   9.420   5.878   7.744
 1935POPC   NC328139   9.900  42.645   9.629
 1935POPC   PO428140   9.883  42.007   9.501
 1935POPC   GL128141   9.792  42.298   9.177
 1935POPC   GL228142   9.461  42.400   9.157
 1935POPC   C1A28143   9.801  42.481   8.739
 1935POPC   D2A28144  10.073  42.706   8.453
 1935POPC   C3A28145   9.901  42.604   8.065
 1935POPC   C4A28146   9.874  42.537   7.640
 1935POPC   C1B28147   9.288  42.606   8.756
 1935POPC   C2B28148   9.322  42.601   8.268
 1935POPC   C3B28149   9.401  42.650   7.795
 1935POPC   C4B28150   9.479  42.810   7.338
 1936POPC   NC328151   7.013  21.525   9.467
 1936POPC   PO428152   7.633  21.322   9.613
 1936POPC   GL128153   7.382  21.231   9.241
 1936POPC   GL228154   7.640  21.341   9.085
 1936POPC   C1A28155   7.187  21.191   8.807
 1936POPC   D2A28156   7.000  21.085   8.380
 1936POPC   C3A28157   7.113  21.303   7.957
 1936POPC   C4A28158   7.356  21.582   7.671
 1936POPC   C1B28159   7.630  21.447   8.697
 1936POPC   C2B28160   7.488  21.370   8.318
 1936POPC   C3B28161   7.694  21.319   7.964
 1936POPC   C4B28162   7.544  21.079   7.671
 1937POPC   NC328163  38.980   6.630   9.416
 1937POPC   PO428164  38.392   6.360   9.485
 1937POPC   GL128165  38.513   6.597   9.116
 1937POPC   GL228166  38.780   6.751   8.978
 1937POPC   C1A28167  38.358   6.621   8.705
 1937POPC   D2A28168  38.394   6.411   8.337
 1937POPC   C3A28169  38.249   6.639   7.978
 1937POPC   C4A28170  38.433   6.617   7.533
 1937POPC   C1B28171  38.743   7.009   8.649
 1937POPC   C2B28172  38.544   6.920   8.289
 1937POPC   C3B28173  38.690   6.883   7.885
 1937POPC   C4B28174  38.999   7.010   7.621
 1938POPC   NC328175  40.639  41.531   9.458
 1938POPC   PO428176  41.119  42.014   9.364
 1938POPC   GL128177  40.867  41.751   9.068
 1938POPC   GL228178  40.940  41.376   9.048
 1938POPC   C1A28179  40.524  41.762   8.771
 1938POPC   D2A28180  40.379  41.676   8.345
 1938POPC   C3A28181  40.646  41.602   7.951
 1938POPC   C4A28182  40.822  41.561   7.531
 1938POPC   C1B28183  40.717  41.324   8.631
 1938POPC   C2B28184  40.522  41.211   8.222
 1938POPC   C3B28185  40.317  41.251   7.788
 1938POPC   C4B28186  40.482  41.222   7.326
 1939POPC   NC328187  29.710   7.061   9.502
 1939POPC   PO428188  30.238   7.603   9.515
 1939POPC   GL128189  30.148   7.533   9.115
 1939POPC   GL228190  29.974   7.211   9.090
 1939POPC   C1A28191  30.050   7.553   8.692
 1939POPC   D2A28192  29.765   7.560   8.374
 1939POPC   C3A28193  29.910   7.665   7.981
 1939POPC   C4A28194  30.064   7.476   7.640
 1939POPC   C1B28195  29.663   7.189   8.755
 1939POPC   C2B28196  29.665   7.022   8.334
 1939POPC   C3B28197  29.753   7.118   7.901
 1939POPC   C4B28198  29.530   7.388   7.634
 1940POPC   NC328199  24.347  25.444   9.546
 1940POPC   PO428200  25.029  25.376   9.436
 1940POPC   GL128201  24.796  25.221   9.095
 1940POPC   GL228202  24.431  25.283   9.084
 1940POPC   C1A28203  24.718  25.347   8.682
 1940POPC   D2A28204  24.502  25.524   8.361
 1940POPC   C3A28205  24.674  25.409   8.016
 1940POPC   C4A28206  24.977  25.169   7.805
 1940POPC   C1B28207  24.195  25.317   8.687
 1940POPC   C2B28208  24.147  25.068   8.320
 1940POPC   C3B28209  24.197  24.958   7.915
 1940POPC   C4B28210  24.466  25.175   7.626
 1941POPC   NC328211  42.365   0.766   9.562
 1941POPC   PO428212  41.758   0.830   9.298
 1941POPC   GL128213  42.104   0.659   9.084
 1941POPC   GL228214  42.230   0.326   9.155
 1941POPC   C1A28215  42.162   0.617   8.649
 1941POPC   D2A28216  42.245   0.345   8.295
 1941POPC   C3A28217  42.306   0.560   7.894
 1941POPC   C4A28218  42.348   0.733   7.459
 1941POPC   C1B28219  42.264   0.052   8.778
 1941POPC   C2B28220  42.509  44.895   8.415
 1941POPC   C3B28221  42.572   0.084   7.970
 1941POPC   C4B28222  42.536   0.255   7.513
 1942POPC   NC328223  28.334  31.141   9.539
 1942POPC   PO428224  28.083  31.701   9.434
 1942POPC   GL128225  28.385  31.470   9.137
 1942POPC   GL228226  28.664  31.200   9.149
 1942POPC   C1A28227  28.441  31.567   8.716
 1942POPC   D2A28228  28.098  31.671   8.476
 1942POPC   C3A28229  28.192  31.541   8.068
 1942POPC   C4A28230  27.959  31.486   7.698
 1942POPC   C1B28231  28.555  31.063   8.732
 1942POPC   C2B28232  28.727  31.021   8.317
 1942POPC   C3B28233  28.432  31.071   7.979
 1942POPC   C4B28234  28.436  31.319   7.628
 1943POPC   NC328235  30.656  27.443   9.490
 1943POPC   PO428236  30.329  27.994   9.415
 1943POPC   GL128237  30.537  27.744   9.100
 1943POPC   GL228238  30.413  27.394   9.058
 1943POPC   C1A28239  30.807  27.788   8.750
 1943POPC   D2A28240  30.652  27.982   8.365
 1943POPC   C3A28241  30.638  27.678   8.064
 1943POPC   C4A28242  30.819  27.369   7.847
 1943POPC   C1B28243  30.432  27.453   8.642
 1943POPC   C2B28244  30.473  27.229   8.286
 1943POPC   C3B28245  30.258  27.215   7.922
 1943POPC   C4B28246  30.403  27.248   7.524
 1944POPC   NC328247   7.094  10.908   9.523
 1944POPC   PO428248   7.547  10.315   9.617
 1944POPC   GL128249   7.601  10.505   9.193
 1944POPC   GL228250   7.321  10.715   9.091
 1944POPC   C1A28251   7.779  10.640   8.787
 1944POPC   D2A28252   7.652  10.390   8.415
 1944POPC   C3A28253   7.768  10.578   8.063
 1944POPC   C4A28254   7.674  10.651   7.654
 1944POPC   C1B28255   7.294  10.414   8.774
 1944POPC   C2B28256   7.143  10.327   8.371
 1944POPC   C3B28257   7.243  10.508   7.975
 1944POPC   C4B28258   7.229  10.442   7.534
 1945POPC   NC328259  34.995  10.616   9.555
 1945POPC   PO428260  34.467  10.190   9.563
 1945POPC   GL128261  34.665  10.247   9.176
 1945POPC   GL228262  34.628  10.598   9.167
 1945POPC   C1A28263  34.574  10.215   8.729
 1945POPC   D2A28264  34.606  10.434   8.340
 1945POPC   C3A28265  34.571  10.334   7.903
 1945POPC   C4A28266  34.395  10.595   7.555
 1945POPC   C1B28267  34.471  10.722   8.777
 1945POPC   C2B28268  34.493  10.935   8.359
 1945POPC   C3B28269  34.516  10.949   7.900
 1945POPC   C4B28270  34.331  11.103   7.461
 1946POPC   NC328271   7.951  34.807   9.595
 1946POPC   PO428272   8.062  34.194   9.648
 1946POPC   GL128273   7.964  34.440   9.229
 1946POPC   GL228274   7.841  34.778   9.104
 1946POPC   C1A28275   7.941  34.403   8.776
 1946POPC   D2A28276   8.185  34.472   8.438
 1946POPC   C3A28277   8.114  34.651   8.044
 1946POPC   C4A28278   8.446  34.535   7.727
 1946POPC   C1B28279   8.220  34.822   8.863
 1946POPC   C2B28280   8.252  34.999   8.445
 1946POPC   C3B28281   8.455  35.097   8.052
 1946POPC   C4B28282   8.252  35.019   7.704
 1947POPC   NC328283  28.584  27.676   9.678
 1947POPC   PO428284  29.273  27.640   9.557
 1947POPC   GL128285  29.054  27.723   9.200
 1947POPC   GL228286  28.786  27.487   9.215
 1947POPC   C1A28287  29.046  27.652   8.788
 1947POPC   D2A28288  29.168  27.348   8.509
 1947POPC   C3A28289  29.214  27.495   8.097
 1947POPC   C4A28290  29.382  27.341   7.698
 1947POPC   C1B28291  28.871  27.170   8.903
 1947POPC   C2B28292  28.754  27.045   8.483
 1947POPC   C3B28293  28.746  27.323   8.179
 1947POPC   C4B28294  28.720  27.221   7.763
 1948POPC   NC328295  34.511  25.134   9.414
 1948POPC   PO428296  35.015  25.512   9.482
 1948POPC   GL128297  34.822  25.393   9.069
 1948POPC   GL228298  34.787  25.040   8.954
 1948POPC   C1A28299  34.702  25.406   8.636
 1948POPC   D2A28300  34.821  25.005   8.435
 1948POPC   C3A28301  34.688  25.040   8.053
 1948POPC   C4A28302  34.752  25.374   7.800
 1948POPC   C1B28303  34.373  25.009   8.688
 1948POPC   C2B28304  34.212  25.039   8.227
 1948POPC   C3B28305  34.283  24.973   7.727
 1948POPC   C4B28306  34.161  24.961   7.219
 1949POPC   NC328307  24.070   2.144   9.464
 1949POPC   PO428308  23.486   1.740   9.613
 1949POPC   GL128309  23.613   1.877   9.147
 1949POPC   GL228310  23.728   2.221   9.088
 1949POPC   C1A28311  23.820   1.727   8.737
 1949POPC   D2A28312  24.125   1.728   8.369
 1949POPC   C3A28313  23.876   1.646   7.967
 1949POPC   C4A28314  23.834   1.931   7.569
 1949POPC   C1B28315  23.857   2.223   8.653
 1949POPC   C2B28316  23.667   1.955   8.319
 1949POPC   C3B28317  23.471   1.975   7.931
 1949POPC   C4B28318  23.319   1.875   7.538
 1950POPC   NC328319  31.743  30.305   9.599
 1950POPC   PO428320  31.526  29.623   9.642
 1950POPC   GL128321  31.513  29.924   9.183
 1950POPC   GL228322  31.154  29.907   9.030
 1950POPC   C1A28323  31.465  30.177   8.753
 1950POPC   D2A28324  31.326  30.177   8.332
 1950POPC   C3A28325  31.693  30.278   8.085
 1950POPC   C4A28326  31.857  30.220   7.673
 1950POPC   C1B28327  31.406  29.679   8.668
 1950POPC   C2B28328  31.537  29.727   8.221
 1950POPC   C3B28329  31.457  29.893   7.809
 1950POPC   C4B28330  31.218  29.747   7.447
 1951POPC   NC328331  10.234   9.902   9.381
 1951POPC   PO428332  10.821   9.535   9.274
 1951POPC   GL128333  10.548   9.741   8.990
 1951POPC   GL228334  10.648  10.078   8.962
 1951POPC   C1A28335  10.584   9.816   8.536
 1951POPC   D2A28336  10.870   9.951   8.210
 1951POPC   C3A28337  10.804   9.662   7.895
 1951POPC   C4A28338  10.430   9.383   7.850
 1951POPC   C1B28339  10.441  10.338   8.635
 1951POPC   C2B28340  10.255  10.127   8.275
 1951POPC   C3B28341  10.431  10.013   7.885
 1951POPC   C4B28342  10.741  10.162   7.591
 1952POPC   NC328343   4.367  20.868   9.459
 1952POPC   PO428344   3.957  20.264   9.370
 1952POPC   GL128345   4.006  20.391   8.995
 1952POPC   GL228346   4.257  20.589   9.029
 1952POPC   C1A28347   3.872  20.385   8.587
 1952POPC   D2A28348   4.161  20.522   8.260
 1952POPC   C3A28349   4.329  20.319   7.887
 1952POPC   C4A28350   4.455  20.483   7.505
 1952POPC   C1B28351   4.116  20.851   8.663
 1952POPC   C2B28352   4.155  21.031   8.226
 1952POPC   C3B28353   4.187  20.813   7.798
 1952POPC   C4B28354   4.246  20.888   7.284
 1953POPC   NC328355   8.017  32.079   9.673
 1953POPC   PO428356   8.514  32.536   9.486
 1953POPC   GL128357   8.412  32.167   9.193
 1953POPC   GL228358   8.063  32.090   9.170
 1953POPC   C1A28359   8.325  32.053   8.739
 1953POPC   D2A28360   8.126  32.006   8.365
 1953POPC   C3A28361   8.467  32.049   8.068
 1953POPC   C4A28362   8.458  31.945   7.662
 1953POPC   C1B28363   8.018  32.427   8.865
 1953POPC   C2B28364   8.019  32.492   8.424
 1953POPC   C3B28365   8.055  32.359   7.966
 1953POPC   C4B28366   7.775  32.381   7.592
 1954POPC   NC328367  24.902  36.924   9.487
 1954POPC   PO428368  25.560  36.700   9.613
 1954POPC   GL128369  25.342  36.823   9.222
 1954POPC   GL228370  25.116  36.555   9.104
 1954POPC   C1A28371  25.281  37.021   8.801
 1954POPC   D2A28372  25.293  36.832   8.383
 1954POPC   C3A28373  25.335  37.053   8.018
 1954POPC   C4A28374  25.136  37.332   7.713
 1954POPC   C1B28375  25.474  36.549   8.780
 1954POPC   C2B28376  25.641  36.466   8.330
 1954POPC   C3B28377  25.394  36.530   7.935
 1954POPC   C4B28378  25.246  36.807   7.585
 1955POPC   NC328379  36.545  23.999   9.446
 1955POPC   PO428380  36.138  23.462   9.512
 1955POPC   GL128381  36.290  23.603   9.129
 1955POPC   GL228382  36.236  23.906   9.056
 1955POPC   C1A28383  36.130  23.575   8.680
 1955POPC   D2A28384  36.268  23.594   8.256
 1955POPC   C3A28385  35.961  23.510   7.947
 1955POPC   C4A28386  36.042  23.549   7.482
 1955POPC   C1B28387  36.322  24.059   8.650
 1955POPC   C2B28388  36.268  24.185   8.232
 1955POPC   C3B28389  36.044  23.996   7.900
 1955POPC   C4B28390  35.738  24.165   7.645
 1956POPC   NC328391  19.703  28.985   9.401
 1956POPC   PO428392  20.278  29.365   9.453
 1956POPC   GL128393  20.068  29.177   9.063
 1956POPC   GL228394  19.676  29.172   8.942
 1956POPC   C1A28395  20.004  29.007   8.635
 1956POPC   D2A28396  19.676  29.096   8.366
 1956POPC   C3A28397  19.905  29.171   8.012
 1956POPC   C4A28398  20.207  29.107   7.706
 1956POPC   C1B28399  19.412  29.471   8.704
 1956POPC   C2B28400  19.286  29.445   8.293
 1956POPC   C3B28401  19.407  29.263   7.881
 1956POPC   C4B28402  19.345  29.248   7.397
 1957POPC   NC328403  10.142  19.599   9.505
 1957POPC   PO428404  10.809  19.850   9.502
 1957POPC   GL128405  10.477  19.956   9.215
 1957POPC   GL228406  10.367  19.638   9.045
 1957POPC   C1A28407  10.511  20.049   8.778
 1957POPC   D2A28408  10.411  19.779   8.426
 1957POPC   C3A28409  10.323  20.056   8.128
 1957POPC   C4A28410  10.545  20.253   7.800
 1957POPC   C1B28411  10.166  19.403   8.691
 1957POPC   C2B28412  10.269  19.276   8.274
 1957POPC   C3B28413  10.441  19.508   7.941
 1957POPC   C4B28414  10.255  19.835   7.683
 1958POPC   NC328415  28.955  37.121   9.678
 1958POPC   PO428416  29.551  37.094   9.483
 1958POPC   GL128417  29.272  37.018   9.140
 1958POPC   GL228418  29.376  36.676   9.019
 1958POPC   C1A28419  29.066  37.152   8.736
 1958POPC   D2A28420  28.964  37.037   8.267
 1958POPC   C3A28421  29.258  37.066   7.897
 1958POPC   C4A28422  29.710  36.988   7.823
 1958POPC   C1B28423  28.972  36.621   8.779
 1958POPC   C2B28424  28.768  36.541   8.355
 1958POPC   C3B28425  28.894  36.629   7.912
 1958POPC   C4B28426  29.307  36.573   7.687
 1959POPC   NC328427  39.052  44.388   9.714
 1959POPC   PO428428  39.484  44.933   9.625
 1959POPC   GL128429  39.321  44.666   9.298
 1959POPC   GL228430  39.554  44.430   9.114
 1959POPC   C1A28431  38.989  44.619   8.983
 1959POPC   D2A28432  38.796  44.364   8.652
 1959POPC   C3A28433  38.871  44.383   8.181
 1959POPC   C4A28434  39.121  44.619   7.871
 1959POPC   C1B28435  39.442  44.639   8.769
 1959POPC   C2B28436  39.235  44.682   8.404
 1959POPC   C3B28437  39.556  44.568   8.122
 1959POPC   C4B28438  39.602  44.511   7.697
 1960POPC   NC328439  22.433  17.055   9.472
 1960POPC   PO428440  22.243  17.684   9.622
 1960POPC   GL128441  22.300  17.880   9.212
 1960POPC   GL228442  22.505  17.619   9.089
 1960POPC   C1A28443  22.190  17.813   8.741
 1960POPC   D2A28444  22.327  17.695   8.319
 1960POPC   C3A28445  22.144  17.552   7.954
 1960POPC   C4A28446  22.282  17.700   7.588
 1960POPC   C1B28447  22.412  17.348   8.698
 1960POPC   C2B28448  22.436  17.200   8.247
 1960POPC   C3B28449  22.409  17.130   7.791
 1960POPC   C4B28450  22.394  17.265   7.366
 1961POPC   NC328451  39.833  17.552   9.705
 1961POPC   PO428452  40.033  18.228   9.529
 1961POPC   GL128453  39.878  18.431   9.087
 1961POPC   GL228454  39.628  18.183   8.913
 1961POPC   C1A28455  39.792  18.587   8.637
 1961POPC   D2A28456  39.776  18.373   8.229
 1961POPC   C3A28457  40.050  18.436   7.872
 1961POPC   C4A28458  40.028  18.266   7.420
 1961POPC   C1B28459  40.042  18.144   8.679
 1961POPC   C2B28460  40.236  18.140   8.247
 1961POPC   C3B28461  40.061  17.936   7.833
 1961POPC   C4B28462  40.077  17.755   7.387
 1962POPC   NC328463  15.755  42.010   9.424
 1962POPC   PO428464  15.547  42.630   9.487
 1962POPC   GL128465  15.611  42.405   9.121
 1962POPC   GL228466  15.990  42.346   9.091
 1962POPC   C1A28467  15.660  42.202   8.724
 1962POPC   D2A28468  15.992  42.326   8.462
 1962POPC   C3A28469  15.876  42.538   8.119
 1962POPC   C4A28470  15.718  42.427   7.716
 1962POPC   C1B28471  16.122  41.982   8.821
 1962POPC   C2B28472  16.072  41.809   8.390
 1962POPC   C3B28473  16.017  42.056   8.001
 1962POPC   C4B28474  16.222  42.425   7.762
 1963POPC   NC328475  42.630  25.733   9.514
 1963POPC   PO428476  43.034  26.187   9.575
 1963POPC   GL128477  43.025  26.211   9.147
 1963POPC   GL228478  42.804  26.514   9.090
 1963POPC   C1A28479  43.236  26.013   8.763
 1963POPC   D2A28480  43.102  25.897   8.342
 1963POPC   C3A28481  43.279  25.826   7.928
 1963POPC   C4A28482  43.151  25.780   7.477
 1963POPC   C1B28483  42.853  26.370   8.699
 1963POPC   C2B28484  42.840  26.485   8.315
 1963POPC   C3B28485  43.018  26.287   8.000
 1963POPC   C4B28486  42.873  26.347   7.634
 1964POPC   NC328487   6.013  33.197   9.906
 1964POPC   PO428488   6.181  32.606   9.644
 1964POPC   GL128489   6.156  32.586   9.225
 1964POPC   GL228490   5.939  32.858   9.107
 1964POPC   C1A28491   6.110  32.490   8.785
 1964POPC   D2A28492   6.167  32.723   8.375
 1964POPC   C3A28493   6.011  32.683   7.945
 1964POPC   C4A28494   6.202  32.567   7.554
 1964POPC   C1B28495   6.036  33.100   8.702
 1964POPC   C2B28496   5.907  33.389   8.324
 1964POPC   C3B28497   5.686  33.521   7.920
 1964POPC   C4B28498   5.666  33.466   7.459
 1965POPC   NC328499  34.177  38.635   9.362
 1965POPC   PO428500  34.675  38.123   9.457
 1965POPC   GL128501  34.615  38.455   9.161
 1965POPC   GL228502  34.346  38.274   8.979
 1965POPC   C1A28503  34.558  38.705   8.779
 1965POPC   D2A28504  34.365  38.508   8.438
 1965POPC   C3A28505  34.488  38.697   8.061
 1965POPC   C4A28506  34.794  38.881   7.791
 1965POPC   C1B28507  34.753  38.238   8.705
 1965POPC   C2B28508  34.842  38.386   8.269
 1965POPC   C3B28509  34.724  38.275   7.810
 1965POPC   C4B28510  34.808  38.231   7.320
 1966POPC   NC328511  35.703   7.496   9.420
 1966POPC   PO428512  36.399   7.593   9.478
 1966POPC   GL128513  36.158   7.346   9.148
 1966POPC   GL228514  35.868   7.486   8.954
 1966POPC   C1A28515  36.249   7.256   8.712
 1966POPC   D2A28516  36.214   7.462   8.304
 1966POPC   C3A28517  36.041   7.215   7.974
 1966POPC   C4A28518  36.024   7.337   7.530
 1966POPC   C1B28519  35.772   7.408   8.550
 1966POPC   C2B28520  35.751   7.739   8.273
 1966POPC   C3B28521  35.768   7.642   7.862
 1966POPC   C4B28522  35.538   7.234   7.804
 1967POPC   NC328523  38.285  39.104   9.578
 1967POPC   PO428524  38.694  39.663   9.524
 1967POPC   GL128525  38.502  39.466   9.110
 1967POPC   GL228526  38.387  39.117   9.071
 1967POPC   C1A28527  38.482  39.377   8.637
 1967POPC   D2A28528  38.696  39.300   8.214
 1967POPC   C3A28529  38.455  39.353   7.795
 1967POPC   C4A28530  38.284  39.532   7.363
 1967POPC   C1B28531  38.690  38.921   8.757
 1967POPC   C2B28532  38.707  38.700   8.346
 1967POPC   C3B28533  38.674  38.851   7.917
 1967POPC   C4B28534  38.434  38.882   7.538
 1968POPC   NC328535  20.896  35.585   9.376
 1968POPC   PO428536  20.672  36.255   9.442
 1968POPC   GL128537  20.669  35.981   9.074
 1968POPC   GL228538  20.950  35.866   8.885
 1968POPC   C1A28539  20.468  35.807   8.705
 1968POPC   D2A28540  20.786  35.786   8.383
 1968POPC   C3A28541  20.684  36.037   8.064
 1968POPC   C4A28542  20.599  35.955   7.667
 1968POPC   C1B28543  20.723  36.259   8.637
 1968POPC   C2B28544  20.600  36.510   8.233
 1968POPC   C3B28545  20.513  36.465   7.757
 1968POPC   C4B28546  20.631  36.312   7.327
 1969POPC   NC328547   7.131   8.310   9.486
 1969POPC   PO428548   7.729   7.940   9.463
 1969POPC   GL128549   7.562   8.248   9.167
 1969POPC   GL228550   7.320   8.002   9.117
 1969POPC   C1A28551   7.461   8.333   8.732
 1969POPC   D2A28552   7.606   8.227   8.322
 1969POPC   C3A28553   7.464   8.538   8.046
 1969POPC   C4A28554   7.311   8.380   7.637
 1969POPC   C1B28555   7.433   7.815   8.738
 1969POPC   C2B28556   7.270   7.835   8.352
 1969POPC   C3B28557   7.097   8.085   8.037
 1969POPC   C4B28558   7.013   7.952   7.644
 1970POPC   NC328559  25.892  43.290   9.661
 1970POPC   PO428560  26.078  42.681   9.479
 1970POPC   GL128561  26.186  42.993   9.186
 1970POPC   GL228562  25.901  43.173   9.169
 1970POPC   C1A28563  26.181  43.161   8.743
 1970POPC   D2A28564  26.329  43.301   8.315
 1970POPC   C3A28565  26.088  43.060   7.978
 1970POPC   C4A28566  26.154  42.889   7.516
 1970POPC   C1B28567  25.676  43.158   8.812
 1970POPC   C2B28568  25.784  43.257   8.375
 1970POPC   C3B28569  25.702  43.372   7.935
 1970POPC   C4B28570  25.670  42.968   7.675
 1971POPC   NC328571  26.733   7.019   9.511
 1971POPC   PO428572  26.964   6.355   9.453
 1971POPC   GL128573  26.812   6.349   9.034
 1971POPC   GL228574  27.016   6.633   8.958
 1971POPC   C1A28575  26.737   6.419   8.576
 1971POPC   D2A28576  26.389   6.445   8.277
 1971POPC   C3A28577  26.404   6.740   7.903
 1971POPC   C4A28578  26.691   6.960   7.625
 1971POPC   C1B28579  27.112   6.769   8.515
 1971POPC   C2B28580  26.902   6.758   8.137
 1971POPC   C3B28581  26.776   6.400   7.939
 1971POPC   C4B28582  26.440   6.137   7.857
 1972POPC   NC328583  42.984  43.623   9.489
 1972POPC   PO428584  43.308  44.232   9.588
 1972POPC   GL128585  43.166  44.069   9.216
 1972POPC   GL228586  43.344  43.758   9.152
 1972POPC   C1A28587  43.134  44.106   8.778
 1972POPC   D2A28588  43.321  44.217   8.397
 1972POPC   C3A28589  43.066  44.165   8.036
 1972POPC   C4A28590  42.943  43.967   7.660
 1972POPC   C1B28591  43.012  43.618   8.821
 1972POPC   C2B28592  43.001  43.771   8.379
 1972POPC   C3B28593  43.203  43.671   7.985
 1972POPC   C4B28594  42.976  43.432   7.694
 1973POPC   NC328595   1.460  16.290   9.751
 1973POPC   PO428596   0.958  16.075   9.302
 1973POPC   GL128597   1.263  15.820   9.012
 1973POPC   GL228598   1.515  15.538   9.157
 1973POPC   C1A28599   1.280  15.933   8.551
 1973POPC   D2A28600   0.993  16.060   8.190
 1973POPC   C3A28601   1.262  16.123   7.840
 1973POPC   C4A28602   1.388  15.883   7.489
 1973POPC   C1B28603   1.587  15.559   8.727
 1973POPC   C2B28604   1.724  15.733   8.308
 1973POPC   C3B28605   1.472  15.646   7.961
 1973POPC   C4B28606   1.474  15.387   7.581
 1974POPC   NC328607  28.939  19.266   9.540
 1974POPC   PO428608  29.448  18.709   9.490
 1974POPC   GL128609  29.222  18.751   9.108
 1974POPC   GL228610  29.087  19.092   9.083
 1974POPC   C1A28611  29.237  18.853   8.662
 1974POPC   D2A28612  29.149  19.023   8.257
 1974POPC   C3A28613  29.190  18.863   7.855
 1974POPC   C4A28614  28.961  18.800   7.472
 1974POPC   C1B28615  29.145  19.396   8.769
 1974POPC   C2B28616  29.295  19.508   8.382
 1974POPC   C3B28617  29.062  19.463   8.035
 1974POPC   C4B28618  29.131  19.417   7.622
 1975POPC   NC328619   6.143  16.582   9.525
 1975POPC   PO428620   6.804  16.772   9.483
 1975POPC   GL128621   6.749  16.569   9.105
 1975POPC   GL228622   6.416  16.668   9.092
 1975POPC   C1A28623   6.669  16.605   8.654
 1975POPC   D2A28624   6.673  16.559   8.229
 1975POPC   C3A28625   6.985  16.725   8.016
 1975POPC   C4A28626   7.066  16.565   7.636
 1975POPC   C1B28627   6.310  16.970   8.711
 1975POPC   C2B28628   6.226  17.172   8.281
 1975POPC   C3B28629   6.298  16.944   7.897
 1975POPC   C4B28630   6.574  16.631   7.708
 1976POPC   NC328631  27.829  30.067   9.770
 1976POPC   PO428632  27.547  29.451   9.823
 1976POPC   GL128633  27.617  29.681   9.411
 1976POPC   GL228634  27.853  29.489   9.211
 1976POPC   C1A28635  27.606  29.989   9.024
 1976POPC   D2A28636  27.508  29.971   8.538
 1976POPC   C3A28637  27.689  30.145   8.125
 1976POPC   C4A28638  27.527  30.158   7.701
 1976POPC   C1B28639  27.564  29.515   8.823
 1976POPC   C2B28640  27.609  29.438   8.395
 1976POPC   C3B28641  27.588  29.642   8.012
 1976POPC   C4B28642  27.654  29.682   7.600
 1977POPC   NC328643   6.868  19.657   9.665
 1977POPC   PO428644   6.383  20.137   9.460
 1977POPC   GL128645   6.470  19.829   9.141
 1977POPC   GL228646   6.822  19.691   9.139
 1977POPC   C1A28647   6.526  19.864   8.692
 1977POPC   D2A28648   6.515  20.173   8.333
 1977POPC   C3A28649   6.560  19.948   7.959
 1977POPC   C4A28650   6.487  19.498   7.844
 1977POPC   C1B28651   7.003  19.641   8.705
 1977POPC   C2B28652   6.837  19.628   8.283
 1977POPC   C3B28653   7.017  19.741   7.887
 1977POPC   C4B28654   6.811  19.671   7.468
 1978POPC   NC328655  37.031   5.522   9.484
 1978POPC   PO428656  36.399   5.241   9.418
 1978POPC   GL128657  36.796   5.319   9.078
 1978POPC   GL228658  37.050   5.030   9.006
 1978POPC   C1A28659  36.979   5.362   8.616
 1978POPC   D2A28660  36.988   5.051   8.238
 1978POPC   C3A28661  36.662   5.094   7.920
 1978POPC   C4A28662  36.340   5.443   7.788
 1978POPC   C1B28663  37.424   5.116   8.749
 1978POPC   C2B28664  37.444   5.212   8.347
 1978POPC   C3B28665  37.493   4.895   8.025
 1978POPC   C4B28666  37.105   4.720   7.831
 1979POPC   NC328667  11.728   5.372   9.471
 1979POPC   PO428668  12.232   5.752   9.531
 1979POPC   GL128669  11.910   5.886   9.174
 1979POPC   GL228670  11.654   5.638   9.048
 1979POPC   C1A28671  11.874   5.915   8.697
 1979POPC   D2A28672  12.181   6.042   8.425
 1979POPC   C3A28673  12.003   6.143   8.057
 1979POPC   C4A28674  11.953   5.946   7.681
 1979POPC   C1B28675  12.084   5.483   8.895
 1979POPC   C2B28676  12.269   5.492   8.488
 1979POPC   C3B28677  12.123   5.632   8.081
 1979POPC   C4B28678  12.270   5.379   7.740
 1980POPC   NC328679  13.488   1.520   9.569
 1980POPC   PO428680  13.775   0.927   9.443
 1980POPC   GL128681  13.575   1.238   9.155
 1980POPC   GL228682  13.771   1.568   9.128
 1980POPC   C1A28683  13.497   1.420   8.745
 1980POPC   D2A28684  13.801   1.297   8.433
 1980POPC   C3A28685  13.616   1.232   8.048
 1980POPC   C4A28686  13.458   1.168   7.666
 1980POPC   C1B28687  13.912   1.754   8.714
 1980POPC   C2B28688  14.026   1.746   8.262
 1980POPC   C3B28689  14.060   1.437   7.963
 1980POPC   C4B28690  13.882   1.407   7.551
 1981POPC   NC328691  16.108   3.598   9.518
 1981POPC   PO428692  15.482   3.577   9.751
 1981POPC   GL128693  15.700   3.466   9.265
 1981POPC   GL228694  16.027   3.670   9.037
 1981POPC   C1A28695  15.896   3.219   8.892
 1981POPC   D2A28696  16.011   3.434   8.500
 1981POPC   C3A28697  16.096   3.275   8.079
 1981POPC   C4A28698  15.887   3.197   7.713
 1981POPC   C1B28699  15.684   3.708   8.792
 1981POPC   C2B28700  15.582   3.766   8.399
 1981POPC   C3B28701  15.847   3.711   8.059
 1981POPC   C4B28702  15.883   3.719   7.618
 1982POPC   NC328703   0.408  35.173   9.521
 1982POPC   PO428704   0.654  35.840   9.576
 1982POPC   GL128705   0.558  35.573   9.207
 1982POPC   GL228706   0.284  35.744   9.096
 1982POPC   C1A28707   0.699  35.250   8.841
 1982POPC   D2A28708   0.832  35.055   8.390
 1982POPC   C3A28709   0.612  35.160   7.966
 1982POPC   C4A28710   0.421  34.985   7.551
 1982POPC   C1B28711   0.325  35.583   8.707
 1982POPC   C2B28712   0.657  35.537   8.387
 1982POPC   C3B28713   0.634  35.707   7.981
 1982POPC   C4B28714   0.228  35.542   7.897
 1983POPC   NC328715  12.154  27.801   9.514
 1983POPC   PO428716  11.914  27.160   9.553
 1983POPC   GL128717  11.963  27.395   9.174
 1983POPC   GL228718  11.807  27.715   9.145
 1983POPC   C1A28719  12.030  27.361   8.734
 1983POPC   D2A28720  12.248  27.291   8.359
 1983POPC   C3A28721  12.312  27.594   8.085
 1983POPC   C4A28722  12.040  27.444   7.786
 1983POPC   C1B28723  12.110  27.854   8.857
 1983POPC   C2B28724  12.022  27.824   8.443
 1983POPC   C3B28725  11.896  27.871   8.023
 1983POPC   C4B28726  12.111  27.982   7.637
 1984POPC   NC328727  10.377  31.724   9.381
 1984POPC   PO428728  10.525  31.152   9.552
 1984POPC   GL128729  10.702  31.341   9.177
 1984POPC   GL228730  10.847  31.669   9.181
 1984POPC   C1A28731  10.512  31.348   8.781
 1984POPC   D2A28732  10.264  31.446   8.424
 1984POPC   C3A28733  10.123  31.313   8.026
 1984POPC   C4A28734  10.341  31.237   7.684
 1984POPC   C1B28735  10.942  31.637   8.743
 1984POPC   C2B28736  10.797  31.405   8.357
 1984POPC   C3B28737  10.570  31.573   8.024
 1984POPC   C4B28738  10.717  31.690   7.613
 1985POPC   NC328739  42.890  22.006   9.516
 1985POPC   PO428740  43.299  22.558   9.432
 1985POPC   GL128741  43.001  22.351   9.151
 1985POPC   GL228742  43.178  22.050   9.086
 1985POPC   C1A28743  42.853  22.211   8.743
 1985POPC   D2A28744  42.942  21.925   8.412
 1985POPC   C3A28745  42.936  22.056   7.979
 1985POPC   C4A28746  43.178  22.047   7.603
 1985POPC   C1B28747  43.440  21.838   8.792
 1985POPC   C2B28748  43.384  21.684   8.381
 1985POPC   C3B28749  43.458  21.917   8.030
 1985POPC   C4B28750  43.680  21.935   7.685
 1986POPC   NC328751   7.718   6.614   9.585
 1986POPC   PO428752   7.341   7.112   9.451
 1986POPC   GL128753   7.635   6.780   9.101
 1986POPC   GL228754   7.786   6.437   9.115
 1986POPC   C1A28755   7.512   6.827   8.649
 1986POPC   D2A28756   7.122   6.929   8.378
 1986POPC   C3A28757   7.173   6.849   7.925
 1986POPC   C4A28758   7.288   6.542   7.589
 1986POPC   C1B28759   7.936   6.544   8.698
 1986POPC   C2B28760   7.917   6.768   8.312
 1986POPC   C3B28761   7.654   6.627   7.959
 1986POPC   C4B28762   7.800   6.495   7.543
 1987POPC   NC328763  23.009  37.648   9.855
 1987POPC   PO428764  22.597  37.528   9.297
 1987POPC   GL128765  23.021  37.564   9.167
 1987POPC   GL228766  23.185  37.897   9.108
 1987POPC   C1A28767  23.237  37.489   8.775
 1987POPC   D2A28768  23.112  37.634   8.380
 1987POPC   C3A28769  23.130  37.349   8.059
 1987POPC   C4A28770  22.942  37.583   7.753
 1987POPC   C1B28771  22.848  37.862   8.756
 1987POPC   C2B28772  22.711  38.039   8.324
 1987POPC   C3B28773  22.755  38.066   7.844
 1987POPC   C4B28774  22.703  38.148   7.372
 1988POPC   NC328775  14.358  18.072   9.552
 1988POPC   PO428776  14.271  18.788   9.438
 1988POPC   GL128777  14.480  18.428   9.184
 1988POPC   GL228778  14.166  18.225   9.097
 1988POPC   C1A28779  14.669  18.276   8.774
 1988POPC   D2A28780  14.477  18.309   8.339
 1988POPC   C3A28781  14.629  18.417   7.932
 1988POPC   C4A28782  14.305  18.690   7.807
 1988POPC   C1B28783  14.238  18.009   8.695
 1988POPC   C2B28784  14.319  17.809   8.294
 1988POPC   C3B28785  14.406  17.944   7.880
 1988POPC   C4B28786  14.181  18.216   7.613
 1989POPC   NC328787   2.157   6.395   9.264
 1989POPC   PO428788   2.015   7.008   9.485
 1989POPC   GL128789   1.924   6.836   9.081
 1989POPC   GL228790   1.603   6.667   9.124
 1989POPC   C1A28791   2.133   6.672   8.676
 1989POPC   D2A28792   2.253   6.441   8.293
 1989POPC   C3A28793   2.051   6.694   7.964
 1989POPC   C4A28794   2.225   7.035   7.730
 1989POPC   C1B28795   1.685   6.421   8.751
 1989POPC   C2B28796   1.708   6.430   8.281
 1989POPC   C3B28797   1.655   6.408   7.820
 1989POPC   C4B28798   1.858   6.272   7.417
 1990POPC   NC328799   0.003  14.453   9.453
 1990POPC   PO428800  44.345  14.255   9.636
 1990POPC   GL128801  44.522  14.458   9.249
 1990POPC   GL228802  44.651  14.156   9.195
 1990POPC   C1A28803  44.653  14.590   8.797
 1990POPC   D2A28804  44.987  14.556   8.425
 1990POPC   C3A28805  44.845  14.666   7.986
 1990POPC   C4A28806  44.416  14.553   7.851
 1990POPC   C1B28807  44.826  14.114   8.793
 1990POPC   C2B28808  44.894  14.053   8.374
 1990POPC   C3B28809  44.741  14.161   8.000
 1990POPC   C4B28810  44.842  14.274   7.627
 1991POPC   NC328811  32.020  26.232   9.426
 1991POPC   PO428812  32.545  25.774   9.527
 1991POPC   GL128813  32.375  25.904   9.149
 1991POPC   GL228814  32.477  26.223   9.149
 1991POPC   C1A28815  32.411  25.843   8.695
 1991POPC   D2A28816  32.329  25.605   8.302
 1991POPC   C3A28817  32.086  25.829   8.013
 1991POPC   C4A28818  32.269  25.820   7.652
 1991POPC   C1B28819  32.254  26.339   8.779
 1991POPC   C2B28820  32.334  26.237   8.347
 1991POPC   C3B28821  32.363  26.256   7.916
 1991POPC   C4B28822  32.061  26.262   7.531
 1992POPC   NC328823  30.372   8.070   9.525
 1992POPC   PO428824  29.739   8.272   9.579
 1992POPC   GL128825  29.940   8.034   9.204
 1992POPC   GL228826  29.956   8.347   9.031
 1992POPC   C1A28827  29.761   7.965   8.746
 1992POPC   D2A28828  29.837   8.243   8.379
 1992POPC   C3A28829  29.651   8.163   7.971
 1992POPC   C4A28830  29.796   8.315   7.566
 1992POPC   C1B28831  30.224   8.083   8.740
 1992POPC   C2B28832  30.207   7.902   8.344
 1992POPC   C3B28833  30.169   8.104   7.951
 1992POPC   C4B28834  30.185   7.975   7.539
 1993POPC   NC328835   8.308   1.274   9.592
 1993POPC   PO428836   7.909   0.732   9.600
 1993POPC   GL128837   8.114   0.979   9.218
 1993POPC   GL228838   8.100   1.380   9.141
 1993POPC   C1A28839   8.324   1.068   8.795
 1993POPC   D2A28840   8.445   0.909   8.370
 1993POPC   C3A28841   8.256   1.166   8.029
 1993POPC   C4A28842   7.833   1.268   7.743
 1993POPC   C1B28843   8.354   1.585   8.783
 1993POPC   C2B28844   8.278   1.692   8.326
 1993POPC   C3B28845   8.141   1.638   7.888
 1993POPC   C4B28846   8.547   1.509   7.776
 1994POPC   NC328847   7.421  20.794   9.525
 1994POPC   PO428848   7.275  20.064   9.505
 1994POPC   GL128849   7.316  20.445   9.155
 1994POPC   GL228850   7.550  20.763   9.053
 1994POPC   C1A28851   7.116  20.665   8.794
 1994POPC   D2A28852   7.407  20.815   8.496
 1994POPC   C3A28853   7.316  20.825   8.068
 1994POPC   C4A28854   7.512  20.581   7.763
 1994POPC   C1B28855   7.779  20.579   8.769
 1994POPC   C2B28856   7.972  20.473   8.438
 1994POPC   C3B28857   7.935  20.320   8.063
 1994POPC   C4B28858   7.884  20.248   7.707
 1995POPC   NC328859   0.742  16.888   9.592
 1995POPC   PO428860   0.102  16.598   9.495
 1995POPC   GL128861   0.441  16.739   9.198
 1995POPC   GL228862   0.670  17.067   9.124
 1995POPC   C1A28863   0.347  16.821   8.788
 1995POPC   D2A28864   0.251  16.924   8.398
 1995POPC   C3A28865   0.374  16.719   8.065
 1995POPC   C4A28866   0.389  16.780   7.660
 1995POPC   C1B28867   0.778  17.244   8.711
 1995POPC   C2B28868   0.732  17.044   8.302
 1995POPC   C3B28869   0.846  16.889   7.895
 1995POPC   C4B28870   0.844  16.770   7.418
 1996POPC   NC328871  26.882  41.125   9.362
 1996POPC   PO428872  27.105  40.518   9.634
 1996POPC   GL128873  26.886  40.600   9.216
 1996POPC   GL228874  26.520  40.601   9.238
 1996POPC   C1A28875  26.814  40.778   8.766
 1996POPC   D2A28876  27.077  41.062   8.528
 1996POPC   C3A28877  27.222  40.972   8.118
 1996POPC   C4A28878  26.958  41.045   7.776
 1996POPC   C1B28879  26.359  40.581   8.799
 1996POPC   C2B28880  26.427  40.759   8.364
 1996POPC   C3B28881  26.507  40.699   7.900
 1996POPC   C4B28882  26.522  40.298   7.670
 1997POPC   NC328883  14.379  24.184   9.509
 1997POPC   PO428884  14.190  24.794   9.730
 1997POPC   GL128885  14.453  24.602   9.243
 1997POPC   GL228886  14.585  24.209   9.062
 1997POPC   C1A28887  14.356  24.525   8.762
 1997POPC   D2A28888  14.571  24.586   8.417
 1997POPC   C3A28889  14.408  24.417   8.095
 1997POPC   C4A28890  14.549  24.420   7.721
 1997POPC   C1B28891  14.221  24.040   8.843
 1997POPC   C2B28892  14.108  23.931   8.420
 1997POPC   C3B28893  13.984  24.125   8.053
 1997POPC   C4B28894  14.079  24.222   7.615
 1998POPC   NC328895  34.336  36.915   9.546
 1998POPC   PO428896  35.011  37.182   9.505
 1998POPC   GL128897  34.863  36.893   9.150
 1998POPC   GL228898  34.598  36.653   9.131
 1998POPC   C1A28899  34.807  36.821   8.703
 1998POPC   D2A28900  34.711  36.877   8.299
 1998POPC   C3A28901  34.758  37.220   8.060
 1998POPC   C4A28902  34.624  37.228   7.655
 1998POPC   C1B28903  34.289  36.600   8.760
 1998POPC   C2B28904  34.230  36.718   8.277
 1998POPC   C3B28905  34.457  36.785   7.857
 1998POPC   C4B28906  34.666  36.759   7.435
 1999POPC   NC328907  30.993  38.603   9.475
 1999POPC   PO428908  30.301  38.562   9.451
 1999POPC   GL128909  30.574  38.331   9.132
 1999POPC   GL228910  30.222  38.246   9.034
 1999POPC   C1A28911  30.807  38.410   8.678
 1999POPC   D2A28912  30.931  38.609   8.242
 1999POPC   C3A28913  30.932  38.357   7.808
 1999POPC   C4A28914  30.752  38.194   7.380
 1999POPC   C1B28915  30.377  38.652   8.805
 1999POPC   C2B28916  30.341  38.538   8.379
 1999POPC   C3B28917  30.495  38.576   7.971
 1999POPC   C4B28918  30.352  38.450   7.592
 2000POPC   NC328919  13.090  38.573   9.568
 2000POPC   PO428920  12.465  38.434   9.615
 2000POPC   GL128921  12.691  38.481   9.231
 2000POPC   GL228922  12.673  38.165   9.174
 2000POPC   C1A28923  12.721  38.711   8.818
 2000POPC   D2A28924  12.784  38.565   8.384
 2000POPC   C3A28925  12.839  38.764   7.999
 2000POPC   C4A28926  12.544  38.859   7.673
 2000POPC   C1B28927  12.874  38.228   8.751
 2000POPC   C2B28928  13.088  38.151   8.303
 2000POPC   C3B28929  13.116  38.195   7.825
 2000POPC   C4B28930  13.138  38.102   7.330
 2001POPC   NC328931  14.538  42.783   9.762
 2001POPC   PO428932  14.656  43.424   9.864
 2001POPC   GL128933  14.462  43.242   9.417
 2001POPC   GL228934  14.652  42.970   9.262
 2001POPC   C1A28935  14.161  43.104   9.018
 2001POPC   D2A28936  14.072  43.310   8.569
 2001POPC   C3A28937  14.271  43.284   8.124
 2001POPC   C4A28938  14.353  43.219   7.659
 2001POPC   C1B28939  14.620  43.207   8.858
 2001POPC   C2B28940  14.672  43.135   8.416
 2001POPC   C3B28941  14.784  43.088   7.970
 2001POPC   C4B28942  14.859  43.397   7.633
 2002POPC   NC328943   7.885  35.804   9.544
 2002POPC   PO428944   8.204  35.190   9.613
 2002POPC   GL128945   8.119  35.230   9.176
 2002POPC   GL228946   8.000  35.556   9.113
 2002POPC   C1A28947   7.891  35.198   8.762
 2002POPC   D2A28948   7.758  35.366   8.367
 2002POPC   C3A28949   7.946  35.374   7.945
 2002POPC   C4A28950   7.994  35.362   7.460
 2002POPC   C1B28951   8.126  35.659   8.695
 2002POPC   C2B28952   8.286  35.498   8.312
 2002POPC   C3B28953   8.390  35.596   7.864
 2002POPC   C4B28954   8.268  35.792   7.470
 2003POPC   NC328955  16.086  24.092   9.741
 2003POPC   PO428956  15.686  23.540   9.514
 2003POPC   GL128957  15.987  23.701   9.190
 2003POPC   GL228958  16.281  23.468   9.071
 2003POPC   C1A28959  15.942  23.820   8.751
 2003POPC   D2A28960  15.635  23.920   8.414
 2003POPC   C3A28961  15.805  23.941   8.007
 2003POPC   C4A28962  16.074  24.065   7.670
 2003POPC   C1B28963  15.892  23.316   8.867
 2003POPC   C2B28964  15.751  23.401   8.466
 2003POPC   C3B28965  15.919  23.445   8.091
 2003POPC   C4B28966  15.797  23.550   7.678
 2004POPC   NC328967  31.299  28.924   9.623
 2004POPC   PO428968  31.198  29.445   9.255
 2004POPC   GL128969  31.358  29.041   9.101
 2004POPC   GL228970  31.722  28.912   9.197
 2004POPC   C1A28971  31.308  29.093   8.663
 2004POPC   D2A28972  31.533  29.222   8.289
 2004POPC   C3A28973  31.324  29.350   7.880
 2004POPC   C4A28974  31.508  29.326   7.457
 2004POPC   C1B28975  31.763  28.870   8.743
 2004POPC   C2B28976  31.844  28.811   8.252
 2004POPC   C3B28977  31.725  29.013   7.824
 2004POPC   C4B28978  31.729  28.854   7.372
 2005POPC   NC328979  36.130  20.165   9.359
 2005POPC   PO428980  36.318  19.521   9.399
 2005POPC   GL128981  36.289  19.537   8.961
 2005POPC   GL228982  35.934  19.675   8.894
 2005POPC   C1A28983  36.343  19.899   8.680
 2005POPC   D2A28984  36.086  19.927   8.293
 2005POPC   C3A28985  36.296  19.745   7.917
 2005POPC   C4A28986  36.419  19.450   7.561
 2005POPC   C1B28987  35.718  20.101   8.812
 2005POPC   C2B28988  35.647  20.436   8.508
 2005POPC   C3B28989  35.840  20.370   8.088
 2005POPC   C4B28990  35.912  20.057   7.801
 2006POPC   NC328991  31.722  38.607   9.483
 2006POPC   PO428992  31.186  38.185   9.655
 2006POPC   GL128993  31.384  38.262   9.221
 2006POPC   GL228994  31.738  38.151   9.164
 2006POPC   C1A28995  31.481  38.414   8.765
 2006POPC   D2A28996  31.433  38.328   8.293
 2006POPC   C3A28997  31.362  38.641   7.926
 2006POPC   C4A28998  31.224  38.699   7.465
 2006POPC   C1B28999  31.976  38.245   8.773
 2006POPC   C2B29000  31.965  38.346   8.348
 2006POPC   C3B29001  31.804  38.178   7.956
 2006POPC   C4B29002  31.671  38.397   7.591
 2007POPC   NC329003  40.371  36.009   9.277
 2007POPC   PO429004  39.793  36.431   9.369
 2007POPC   GL129005  39.928  36.177   9.056
 2007POPC   GL229006  39.880  35.852   9.088
 2007POPC   C1A29007  40.117  36.088   8.655
 2007POPC   D2A29008  40.187  36.377   8.334
 2007POPC   C3A29009  40.013  36.252   7.982
 2007POPC   C4A29010  40.306  36.061   7.736
 2007POPC   C1B29011  39.596  35.955   8.739
 2007POPC   C2B29012  39.663  35.979   8.319
 2007POPC   C3B29013  39.696  35.846   7.938
 2007POPC   C4B29014  39.833  35.841   7.503
 2008POPC   NC329015  16.209  22.503   9.474
 2008POPC   PO429016  15.771  21.914   9.516
 2008POPC   GL129017  15.900  22.175   9.229
 2008POPC   GL229018  16.228  22.030   9.287
 2008POPC   C1A29019  16.070  22.353   8.857
 2008POPC   D2A29020  16.090  22.465   8.444
 2008POPC   C3A29021  15.906  22.244   8.136
 2008POPC   C4A29022  15.882  22.282   7.722
 2008POPC   C1B29023  16.109  21.843   8.909
 2008POPC   C2B29024  16.109  21.938   8.492
 2008POPC   C3B29025  16.252  21.850   8.075
 2008POPC   C4B29026  16.147  21.764   7.672
 2009POPC   NC329027  22.792  40.945   9.596
 2009POPC   PO429028  23.261  40.456   9.608
 2009POPC   GL129029  23.082  40.687   9.259
 2009POPC   GL229030  23.242  41.004   9.306
 2009POPC   C1A29031  22.785  40.826   8.904
 2009POPC   D2A29032  22.545  40.836   8.532
 2009POPC   C3A29033  22.693  40.852   8.133
 2009POPC   C4A29034  22.817  40.702   7.742
 2009POPC   C1B29035  23.246  41.007   8.873
 2009POPC   C2B29036  23.051  41.080   8.466
 2009POPC   C3B29037  23.156  41.024   8.025
 2009POPC   C4B29038  23.309  40.850   7.666
 2010POPC   NC329039  10.319  35.632   9.513
 2010POPC   PO429040  10.605  35.018   9.604
 2010POPC   GL129041  10.624  35.278   9.248
 2010POPC   GL229042  10.311  35.266   9.110
 2010POPC   C1A29043  10.743  35.373   8.819
 2010POPC   D2A29044  10.674  35.530   8.406
 2010POPC   C3A29045  10.886  35.318   8.088
 2010POPC   C4A29046  10.730  35.168   7.715
 2010POPC   C1B29047  10.290  35.627   8.827
 2010POPC   C2B29048  10.181  35.846   8.443
 2010POPC   C3B29049  10.268  35.728   8.057
 2010POPC   C4B29050  10.380  35.531   7.703
 2011POPC   NC329051  23.961  23.777   9.611
 2011POPC   PO429052  24.691  23.561   9.529
 2011POPC   GL129053  24.531  23.778   9.198
 2011POPC   GL229054  24.280  23.630   9.034
 2011POPC   C1A29055  24.586  23.971   8.805
 2011POPC   D2A29056  24.311  23.941   8.483
 2011POPC   C3A29057  24.436  23.906   8.087
 2011POPC   C4A29058  24.292  23.776   7.712
 2011POPC   C1B29059  24.647  23.457   8.811
 2011POPC   C2B29060  24.681  23.571   8.401
 2011POPC   C3B29061  24.585  23.428   8.005
 2011POPC   C4B29062  24.490  23.343   7.533
 2012POPC   NC329063   5.008  43.455   9.791
 2012POPC   PO429064   5.472  42.971   9.592
 2012POPC   GL129065   5.402  43.097   9.181
 2012POPC   GL229066   5.195  42.837   8.953
 2012POPC   C1A29067   5.437  43.232   8.781
 2012POPC   D2A29068   5.129  43.121   8.473
 2012POPC   C3A29069   5.301  43.185   8.082
 2012POPC   C4A29070   5.246  42.898   7.766
 2012POPC   C1B29071   4.813  43.091   8.881
 2012POPC   C2B29072   4.556  43.178   8.503
 2012POPC   C3B29073   4.761  43.201   8.074
 2012POPC   C4B29074   4.966  43.333   7.688
 2013POPC   NC329075  35.646  13.807   9.419
 2013POPC   PO429076  35.072  13.537   9.670
 2013POPC   GL129077  35.212  13.595   9.183
 2013POPC   GL229078  35.012  13.785   8.988
 2013POPC   C1A29079  35.473  13.687   8.789
 2013POPC   D2A29080  35.462  13.900   8.385
 2013POPC   C3A29081  35.543  13.683   8.008
 2013POPC   C4A29082  35.556  13.632   7.580
 2013POPC   C1B29083  34.996  13.783   8.576
 2013POPC   C2B29084  35.039  13.625   8.184
 2013POPC   C3B29085  35.047  13.588   7.740
 2013POPC   C4B29086  35.118  13.512   7.301
 2014POPC   NC329087  26.594  17.890   9.902
 2014POPC   PO429088  26.736  17.398   9.433
 2014POPC   GL129089  26.822  17.437   9.011
 2014POPC   GL229090  26.750  17.767   8.993
 2014POPC   C1A29091  26.856  17.452   8.545
 2014POPC   D2A29092  26.960  17.357   8.133
 2014POPC   C3A29093  26.713  17.454   7.817
 2014POPC   C4A29094  26.803  17.222   7.438
 2014POPC   C1B29095  27.140  17.809   8.759
 2014POPC   C2B29096  27.239  17.748   8.335
 2014POPC   C3B29097  27.120  17.791   7.922
 2014POPC   C4B29098  27.193  17.491   7.609
 2015POPC   NC329099  13.535  34.465   9.533
 2015POPC   PO429100  13.830  34.976   9.328
 2015POPC   GL129101  13.604  34.787   8.992
 2015POPC   GL229102  13.638  34.447   9.035
 2015POPC   C1A29103  13.330  34.822   8.642
 2015POPC   D2A29104  13.332  34.665   8.208
 2015POPC   C3A29105  13.635  34.771   7.873
 2015POPC   C4A29106  13.717  34.657   7.435
 2015POPC   C1B29107  13.598  34.375   8.597
 2015POPC   C2B29108  13.799  34.379   8.181
 2015POPC   C3B29109  13.825  34.250   7.737
 2015POPC   C4B29110  13.668  34.170   7.298
 2016POPC   NC329111   1.723   0.068   9.332
 2016POPC   PO429112   1.084   0.178   9.455
 2016POPC   GL129113   1.066   0.417   9.044
 2016POPC   GL229114   0.770   0.695   9.032
 2016POPC   C1A29115   1.423   0.486   8.700
 2016POPC   D2A29116   1.616   0.418   8.254
 2016POPC   C3A29117   1.434   0.369   7.805
 2016POPC   C4A29118   1.515   0.542   7.346
 2016POPC   C1B29119   0.985   0.739   8.655
 2016POPC   C2B29120   1.103   0.505   8.290
 2016POPC   C3B29121   1.150   0.769   7.944
 2016POPC   C4B29122   1.067   0.645   7.540
 2017POPC   NC329123   7.796  15.986   9.308
 2017POPC   PO429124   7.182  15.849   9.555
 2017POPC   GL129125   7.343  15.786   9.155
 2017POPC   GL229126   7.211  16.107   9.088
 2017POPC   C1A29127   7.232  15.783   8.713
 2017POPC   D2A29128   7.247  15.521   8.392
 2017POPC   C3A29129   7.228  15.774   8.052
 2017POPC   C4A29130   7.048  15.804   7.685
 2017POPC   C1B29131   7.465  16.256   8.762
 2017POPC   C2B29132   7.523  16.178   8.326
 2017POPC   C3B29133   7.340  16.262   7.934
 2017POPC   C4B29134   7.520  16.357   7.530
 2018POPC   NC329135  41.270   5.270   9.481
 2018POPC   PO429136  41.658   5.818   9.425
 2018POPC   GL129137  41.457   5.928   9.019
 2018POPC   GL229138  41.101   5.836   8.990
 2018POPC   C1A29139  41.502   5.957   8.554
 2018POPC   D2A29140  41.763   5.826   8.188
 2018POPC   C3A29141  41.819   6.085   7.862
 2018POPC   C4A29142  41.625   5.803   7.633
 2018POPC   C1B29143  41.090   6.224   8.739
 2018POPC   C2B29144  41.209   6.311   8.325
 2018POPC   C3B29145  41.297   5.988   8.026
 2018POPC   C4B29146  41.170   6.042   7.617
 2019POPC   NC329147  30.122   5.048   9.696
 2019POPC   PO429148  29.483   5.274   9.576
 2019POPC   GL129149  29.662   5.109   9.190
 2019POPC   GL229150  30.017   5.081   9.203
 2019POPC   C1A29151  29.733   5.163   8.738
 2019POPC   D2A29152  29.672   5.333   8.323
 2019POPC   C3A29153  29.936   5.202   7.970
 2019POPC   C4A29154  29.679   5.372   7.657
 2019POPC   C1B29155  30.152   4.909   8.783
 2019POPC   C2B29156  30.028   4.876   8.356
 2019POPC   C3B29157  30.154   4.712   7.946
 2019POPC   C4B29158  30.323   4.983   7.679
 2020POPC   NC329159  27.550  33.349   9.442
 2020POPC   PO429160  27.721  32.633   9.441
 2020POPC   GL129161  27.548  32.921   9.158
 2020POPC   GL229162  27.880  33.079   9.173
 2020POPC   C1A29163  27.588  33.105   8.732
 2020POPC   D2A29164  27.404  33.027   8.313
 2020POPC   C3A29165  27.513  33.158   7.900
 2020POPC   C4A29166  27.925  33.200   7.702
 2020POPC   C1B29167  27.924  32.735   8.844
 2020POPC   C2B29168  27.831  32.684   8.432
 2020POPC   C3B29169  27.883  32.801   8.033
 2020POPC   C4B29170  27.870  32.586   7.671
 2021POPC   NC329171  19.034   8.672   9.468
 2021POPC   PO429172  18.727   9.168   9.679
 2021POPC   GL129173  19.005   9.153   9.175
 2021POPC   GL229174  19.133   8.908   9.041
 2021POPC   C1A29175  18.931   9.179   8.676
 2021POPC   D2A29176  18.940   8.840   8.360
 2021POPC   C3A29177  18.784   8.959   7.980
 2021POPC   C4A29178  19.140   9.039   7.721
 2021POPC   C1B29179  19.395   9.255   8.838
 2021POPC   C2B29180  19.352   9.195   8.350
 2021POPC   C3B29181  19.598   9.088   7.948
 2021POPC   C4B29182  19.592   8.941   7.486
 2022POPC   NC329183  20.743  38.974   9.392
 2022POPC   PO429184  20.261  39.437   9.457
 2022POPC   GL129185  20.489  39.355   9.104
 2022POPC   GL229186  20.843  39.362   9.075
 2022POPC   C1A29187  20.475  39.037   8.806
 2022POPC   D2A29188  20.254  39.003   8.448
 2022POPC   C3A29189  20.453  38.981   8.073
 2022POPC   C4A29190  20.378  39.254   7.756
 2022POPC   C1B29191  20.963  39.147   8.709
 2022POPC   C2B29192  20.948  39.135   8.256
 2022POPC   C3B29193  20.849  39.387   7.888
 2022POPC   C4B29194  20.873  39.331   7.446
 2023POPC   NC329195  24.895  24.049   9.418
 2023POPC   PO429196  24.197  24.113   9.407
 2023POPC   GL129197  24.480  24.383   9.131
 2023POPC   GL229198  24.463  24.756   9.229
 2023POPC   C1A29199  24.664  24.457   8.692
 2023POPC   D2A29200  24.520  24.410   8.245
 2023POPC   C3A29201  24.734  24.246   7.864
 2023POPC   C4A29202  24.594  24.112   7.447
 2023POPC   C1B29203  24.376  24.864   8.805
 2023POPC   C2B29204  24.618  24.916   8.447
 2023POPC   C3B29205  24.671  24.866   8.048
 2023POPC   C4B29206  24.586  24.689   7.651
 2024POPC   NC329207  27.604  21.087   9.447
 2024POPC   PO429208  27.387  21.734   9.559
 2024POPC   GL129209  27.483  21.569   9.177
 2024POPC   GL229210  27.815  21.477   9.170
 2024POPC   C1A29211  27.398  21.669   8.762
 2024POPC   D2A29212  27.514  21.520   8.371
 2024POPC   C3A29213  27.344  21.549   7.981
 2024POPC   C4A29214  27.476  21.727   7.545
 2024POPC   C1B29215  27.677  21.231   8.790
 2024POPC   C2B29216  27.706  21.047   8.377
 2024POPC   C3B29217  27.833  21.229   7.989
 2024POPC   C4B29218  27.606  21.253   7.638
 2025POPC   NC329219  16.407   5.209   9.328
 2025POPC   PO429220  17.030   5.387   9.522
 2025POPC   GL129221  17.101   5.191   9.112
 2025POPC   GL229222  16.808   5.009   9.064
 2025POPC   C1A29223  17.076   5.039   8.666
 2025POPC   D2A29224  16.810   4.850   8.424
 2025POPC   C3A29225  16.970   4.996   8.060
 2025POPC   C4A29226  16.848   5.207   7.683
 2025POPC   C1B29227  16.506   5.113   8.727
 2025POPC   C2B29228  16.334   5.072   8.352
 2025POPC   C3B29229  16.475   5.046   7.979
 2025POPC   C4B29230  16.351   5.325   7.649
 2026POPC   NC329231  36.508   7.108   9.446
 2026POPC   PO429232  37.142   7.405   9.456
 2026POPC   GL129233  37.037   7.555   9.061
 2026POPC   GL229234  36.690   7.486   9.083
 2026POPC   C1A29235  37.080   7.408   8.660
 2026POPC   D2A29236  37.399   7.403   8.360
 2026POPC   C3A29237  37.184   7.428   7.976
 2026POPC   C4A29238  36.943   7.308   7.638
 2026POPC   C1B29239  36.620   7.600   8.678
 2026POPC   C2B29240  36.726   7.434   8.266
 2026POPC   C3B29241  36.501   7.416   7.873
 2026POPC   C4B29242  36.476   7.689   7.491
 2027POPC   NC329243  18.880   4.636   9.681
 2027POPC   PO429244  19.264   4.148   9.592
 2027POPC   GL129245  19.024   4.301   9.185
 2027POPC   GL229246  18.678   4.222   9.051
 2027POPC   C1A29247  18.987   4.400   8.706
 2027POPC   D2A29248  18.994   4.154   8.310
 2027POPC   C3A29249  19.163   4.398   7.944
 2027POPC   C4A29250  18.999   4.533   7.541
 2027POPC   C1B29251  18.547   4.136   8.597
 2027POPC   C2B29252  18.529   4.015   8.149
 2027POPC   C3B29253  18.794   4.084   7.781
 2027POPC   C4B29254  18.712   4.129   7.328
 2028POPC   NC329255  42.957  24.098   9.483
 2028POPC   PO429256  43.365  23.555   9.467
 2028POPC   GL129257  43.145  23.682   9.134
 2028POPC   GL229258  43.273  23.993   9.110
 2028POPC   C1A29259  42.959  23.726   8.734
 2028POPC   D2A29260  43.041  23.531   8.336
 2028POPC   C3A29261  42.824  23.432   7.977
 2028POPC   C4A29262  42.980  23.616   7.612
 2028POPC   C1B29263  43.417  23.978   8.725
 2028POPC   C2B29264  43.194  24.022   8.362
 2028POPC   C3B29265  43.159  23.995   7.952
 2028POPC   C4B29266  43.422  23.836   7.678
 2029POPC   NC329267  11.614  32.350  10.270
 2029POPC   PO429268  11.209  32.243   9.795
 2029POPC   GL129269  11.134  32.210   9.256
 2029POPC   GL229270  11.280  31.924   9.129
 2029POPC   C1A29271  10.997  32.151   8.785
 2029POPC   D2A29272  11.275  32.286   8.418
 2029POPC   C3A29273  11.132  32.337   8.014
 2029POPC   C4A29274  11.145  31.974   7.710
 2029POPC   C1B29275  11.437  31.868   8.686
 2029POPC   C2B29276  11.626  31.953   8.236
 2029POPC   C3B29277  11.583  32.184   7.820
 2029POPC   C4B29278  11.516  32.307   7.392
 2030POPC   NC329279   4.875   7.803   9.472
 2030POPC   PO429280   5.099   7.246   9.740
 2030POPC   GL129281   4.986   7.324   9.277
 2030POPC   GL229282   4.635   7.419   9.159
 2030POPC   C1A29283   5.027   7.591   8.861
 2030POPC   D2A29284   5.338   7.635   8.530
 2030POPC   C3A29285   5.224   7.479   8.114
 2030POPC   C4A29286   5.346   7.418   7.681
 2030POPC   C1B29287   4.826   7.133   8.821
 2030POPC   C2B29288   5.095   7.135   8.480
 2030POPC   C3B29289   4.916   7.079   8.064
 2030POPC   C4B29290   4.845   7.387   7.752
 2031POPC   NC329291  29.876  18.916   9.521
 2031POPC   PO429292  30.160  19.518   9.677
 2031POPC   GL129293  29.796  19.340   9.264
 2031POPC   GL229294  29.948  19.029   9.038
 2031POPC   C1A29295  29.651  19.386   8.812
 2031POPC   D2A29296  29.621  19.109   8.436
 2031POPC   C3A29297  29.611  19.257   8.001
 2031POPC   C4A29298  30.016  19.257   7.762
 2031POPC   C1B29299  30.219  18.660   8.894
 2031POPC   C2B29300  30.293  18.578   8.463
 2031POPC   C3B29301  30.188  18.777   8.059
 2031POPC   C4B29302  29.820  18.769   7.804
 2032POPC   NC329303  18.594   7.942   9.809
 2032POPC   PO429304  18.175   7.439   9.500
 2032POPC   GL129305  18.134   7.511   9.087
 2032POPC   GL229306  18.436   7.320   9.036
 2032POPC   C1A29307  18.154   7.500   8.647
 2032POPC   D2A29308  18.004   7.657   8.291
 2032POPC   C3A29309  18.179   7.478   7.935
 2032POPC   C4A29310  18.568   7.449   7.765
 2032POPC   C1B29311  18.448   7.091   8.613
 2032POPC   C2B29312  18.521   7.059   8.148
 2032POPC   C3B29313  18.852   7.013   7.817
 2032POPC   C4B29314  18.779   7.169   7.376
 2033POPC   NC329315   1.737  18.103   9.420
 2033POPC   PO429316   1.817  18.794   9.301
 2033POPC   GL129317   2.107  18.558   9.055
 2033POPC   GL229318   1.857  18.317   8.983
 2033POPC   C1A29319   2.281  18.314   8.710
 2033POPC   D2A29320   1.941  18.289   8.442
 2033POPC   C3A29321   2.048  18.439   8.035
 2033POPC   C4A29322   2.119  18.205   7.666
 2033POPC   C1B29323   1.883  17.900   8.819
 2033POPC   C2B29324   1.938  17.748   8.438
 2033POPC   C3B29325   1.973  17.935   8.076
 2033POPC   C4B29326   1.782  17.834   7.708
 2034POPC   NC329327  24.671  30.190   9.801
 2034POPC   PO429328  24.302  29.752   9.454
 2034POPC   GL129329  24.481  29.978   9.146
 2034POPC   GL229330  24.522  29.686   8.914
 2034POPC   C1A29331  24.305  30.138   8.790
 2034POPC   D2A29332  24.341  29.929   8.422
 2034POPC   C3A29333  24.200  30.190   8.127
 2034POPC   C4A29334  24.343  30.182   7.718
 2034POPC   C1B29335  24.785  29.999   8.688
 2034POPC   C2B29336  24.809  30.049   8.261
 2034POPC   C3B29337  24.689  29.882   7.924
 2034POPC   C4B29338  24.890  30.207   7.706
 2035POPC   NC329339  27.802  40.916   9.549
 2035POPC   PO429340  27.286  41.384   9.314
 2035POPC   GL129341  27.505  41.010   9.141
 2035POPC   GL229342  27.433  40.672   9.266
 2035POPC   C1A29343  27.764  40.744   8.856
 2035POPC   D2A29344  27.637  40.794   8.407
 2035POPC   C3A29345  27.712  40.923   7.962
 2035POPC   C4A29346  27.395  40.803   7.648
 2035POPC   C1B29347  27.276  40.642   8.842
 2035POPC   C2B29348  27.281  40.370   8.485
 2035POPC   C3B29349  27.397  40.427   8.066
 2035POPC   C4B29350  27.403  40.278   7.657
 2036POPC   NC329351  27.041  38.264   9.356
 2036POPC   PO429352  26.724  38.754   9.711
 2036POPC   GL129353  26.668  38.633   9.221
 2036POPC   GL229354  26.665  38.249   9.024
 2036POPC   C1A29355  26.787  38.662   8.753
 2036POPC   D2A29356  26.821  38.366   8.413
 2036POPC   C3A29357  27.089  38.510   8.123
 2036POPC   C4A29358  26.940  38.714   7.783
 2036POPC   C1B29359  27.055  38.069   8.750
 2036POPC   C2B29360  27.283  38.101   8.342
 2036POPC   C3B29361  27.143  38.017   7.936
 2036POPC   C4B29362  26.730  38.229   7.879
 2037POPC   NC329363   1.502  19.126   9.346
 2037POPC   PO429364   0.872  19.372   9.266
 2037POPC   GL129365   1.024  18.955   9.085
 2037POPC   GL229366   1.325  18.700   9.119
 2037POPC   C1A29367   1.219  19.002   8.681
 2037POPC   D2A29368   1.424  19.017   8.283
 2037POPC   C3A29369   1.490  19.324   7.980
 2037POPC   C4A29370   1.092  19.290   7.791
 2037POPC   C1B29371   1.571  18.628   8.718
 2037POPC   C2B29372   1.515  18.532   8.308
 2037POPC   C3B29373   1.228  18.601   7.975
 2037POPC   C4B29374   1.346  18.882   7.688
 2038POPC   NC329375   3.036  21.463   9.462
 2038POPC   PO429376   3.618  21.159   9.612
 2038POPC   GL129377   3.575  21.211   9.182
 2038POPC   GL229378   3.279  20.997   9.160
 2038POPC   C1A29379   3.781  21.275   8.755
 2038POPC   D2A29380   3.591  21.305   8.344
 2038POPC   C3A29381   3.686  21.452   7.912
 2038POPC   C4A29382   3.622  21.852   7.695
 2038POPC   C1B29383   3.305  21.056   8.716
 2038POPC   C2B29384   3.196  20.954   8.294
 2038POPC   C3B29385   3.192  21.298   8.045
 2038POPC   C4B29386   3.219  21.548   7.725
 2039POPC   NC329387  44.704  40.324   9.640
 2039POPC   PO429388  44.567  41.036   9.607
 2039POPC   GL129389  44.672  40.734   9.285
 2039POPC   GL229390  44.929  40.926   9.145
 2039POPC   C1A29391  44.504  40.654   8.864
 2039POPC   D2A29392  44.627  40.716   8.432
 2039POPC   C3A29393  44.504  40.714   7.980
 2039POPC   C4A29394  44.434  40.878   7.555
 2039POPC   C1B29395   0.109  40.774   8.750
 2039POPC   C2B29396   0.115  40.579   8.357
 2039POPC   C3B29397   0.041  40.740   7.955
 2039POPC   C4B29398  44.855  40.588   7.562
 2040POPC   NC329399   0.486   7.838   9.430
 2040POPC   PO429400   0.471   7.194   9.618
 2040POPC   GL129401   0.323   7.403   9.216
 2040POPC   GL229402   0.035   7.658   9.249
 2040POPC   C1A29403   0.498   7.509   8.805
 2040POPC   D2A29404   0.518   7.240   8.440
 2040POPC   C3A29405   0.428   7.422   8.051
 2040POPC   C4A29406   0.555   7.625   7.683
 2040POPC   C1B29407   0.053   7.779   8.823
 2040POPC   C2B29408   0.274   7.764   8.417
 2040POPC   C3B29409   0.076   7.791   8.012
 2040POPC   C4B29410  44.831   7.942   7.685
 2041POPC   NC329411  10.802  34.337   9.968
 2041POPC   PO429412  10.372  34.418   9.392
 2041POPC   GL129413  10.588  34.418   9.076
 2041POPC   GL229414  10.811  34.712   9.224
 2041POPC   C1A29415  10.498  34.313   8.693
 2041POPC   D2A29416  10.641  34.501   8.352
 2041POPC   C3A29417  10.635  34.320   7.989
 2041POPC   C4A29418  10.449  34.552   7.691
 2041POPC   C1B29419  10.565  34.883   8.868
 2041POPC   C2B29420  10.592  35.013   8.437
 2041POPC   C3B29421  10.403  34.913   8.041
 2041POPC   C4B29422  10.250  35.025   7.592
 2042POPC   NC329423   2.764  22.163   9.544
 2042POPC   PO429424   3.350  21.812   9.464
 2042POPC   GL129425   3.023  21.853   9.116
 2042POPC   GL229426   2.684  22.008   9.059
 2042POPC   C1A29427   3.010  22.000   8.678
 2042POPC   D2A29428   3.026  22.187   8.263
 2042POPC   C3A29429   3.141  22.028   7.864
 2042POPC   C4A29430   3.350  22.242   7.499
 2042POPC   C1B29431   2.548  21.759   8.713
 2042POPC   C2B29432   2.550  21.936   8.326
 2042POPC   C3B29433   2.642  22.082   7.911
 2042POPC   C4B29434   2.513  21.938   7.490
 2043POPC   NC329435  10.632   2.853   9.793
 2043POPC   PO429436  10.671   2.170   9.630
 2043POPC   GL129437  10.540   2.523   9.292
 2043POPC   GL229438  10.709   2.796   9.174
 2043POPC   C1A29439  10.483   2.484   8.811
 2043POPC   D2A29440  10.527   2.680   8.392
 2043POPC   C3A29441  10.200   2.656   8.091
 2043POPC   C4A29442  10.243   2.529   7.658
 2043POPC   C1B29443  10.484   3.005   8.826
 2043POPC   C2B29444  10.632   3.227   8.468
 2043POPC   C3B29445  10.848   3.030   8.145
 2043POPC   C4B29446  10.632   2.795   7.835
 2044POPC   NC329447  17.162  43.934   9.458
 2044POPC   PO429448  17.611  43.464   9.516
 2044POPC   GL129449  17.743  43.726   9.117
 2044POPC   GL229450  17.461  43.848   9.051
 2044POPC   C1A29451  17.797  43.540   8.690
 2044POPC   D2A29452  17.710  43.365   8.266
 2044POPC   C3A29453  17.689  43.685   7.909
 2044POPC   C4A29454  17.386  43.766   7.584
 2044POPC   C1B29455  17.589  44.025   8.668
 2044POPC   C2B29456  17.530  44.132   8.246
 2044POPC   C3B29457  17.350  44.265   7.875
 2044POPC   C4B29458  17.527  44.342   7.499
 2045POPC   NC329459  29.575  18.270   9.551
 2045POPC   PO429460  30.181  18.521   9.609
 2045POPC   GL129461  29.964  18.386   9.245
 2045POPC   GL229462  29.907  18.013   9.265
 2045POPC   C1A29463  29.797  18.261   8.835
 2045POPC   D2A29464  29.630  18.014   8.490
 2045POPC   C3A29465  29.673  18.265   8.139
 2045POPC   C4A29466  29.772  18.252   7.719
 2045POPC   C1B29467  30.251  18.056   8.965
 2045POPC   C2B29468  30.195  18.080   8.527
 2045POPC   C3B29469  30.185  18.217   8.106
 2045POPC   C4B29470  30.286  17.966   7.770
 2046POPC   NC329471  25.765  37.077   9.434
 2046POPC   PO429472  26.456  36.850   9.231
 2046POPC   GL129473  26.147  36.598   9.046
 2046POPC   GL229474  25.833  36.704   9.103
 2046POPC   C1A29475  26.046  36.592   8.626
 2046POPC   D2A29476  26.266  36.816   8.315
 2046POPC   C3A29477  26.007  36.812   7.971
 2046POPC   C4A29478  26.046  36.895   7.542
 2046POPC   C1B29479  25.801  37.035   8.734
 2046POPC   C2B29480  25.787  37.222   8.271
 2046POPC   C3B29481  25.752  37.233   7.781
 2046POPC   C4B29482  25.752  37.298   7.304
 2047POPC   NC329483  35.335  14.758   9.404
 2047POPC   PO429484  35.279  14.080   9.327
 2047POPC   GL129485  35.348  14.255   8.945
 2047POPC   GL229486  35.188  14.566   8.961
 2047POPC   C1A29487  35.262  14.341   8.513
 2047POPC   D2A29488  34.968  14.183   8.237
 2047POPC   C3A29489  35.205  14.034   7.941
 2047POPC   C4A29490  35.614  14.141   7.770
 2047POPC   C1B29491  35.348  14.833   8.593
 2047POPC   C2B29492  35.553  14.688   8.272
 2047POPC   C3B29493  35.350  14.500   8.011
 2047POPC   C4B29494  35.190  14.536   7.639
 2048POPC   NC329495  15.139   0.798   9.492
 2048POPC   PO429496  14.803   1.350   9.688
 2048POPC   GL129497  14.750   1.311   9.208
 2048POPC   GL229498  15.015   1.064   9.068
 2048POPC   C1A29499  14.919   1.483   8.811
 2048POPC   D2A29500  14.826   1.305   8.425
 2048POPC   C3A29501  14.986   1.007   8.131
 2048POPC   C4A29502  14.942   1.120   7.708
 2048POPC   C1B29503  15.309   1.128   8.714
 2048POPC   C2B29504  15.638   1.198   8.408
 2048POPC   C3B29505  15.479   1.179   7.994
 2048POPC   C4B29506  15.434   0.966   7.616
 2049POPC   NC329507  18.393  39.441   9.541
 2049POPC   PO429508  18.070  38.922   9.327
 2049POPC   GL129509  17.943  39.215   9.070
 2049POPC   GL229510  18.268  39.359   9.057
 2049POPC   C1A29511  17.874  39.198   8.645
 2049POPC   D2A29512  18.061  39.048   8.335
 2049POPC   C3A29513  18.142  39.210   7.966
 2049POPC   C4A29514  18.498  38.956   7.889
 2049POPC   C1B29515  18.411  39.214   8.679
 2049POPC   C2B29516  18.488  39.401   8.291
 2049POPC   C3B29517  18.592  39.474   7.872
 2049POPC   C4B29518  18.579  39.699   7.500
 2050POPC   NC329519   3.211  17.255   9.529
 2050POPC   PO429520   2.526  17.333   9.527
 2050POPC   GL129521   2.815  17.465   9.243
 2050POPC   GL229522   2.863  17.140   9.161
 2050POPC   C1A29523   2.803  17.677   8.868
 2050POPC   D2A29524   2.913  17.586   8.450
 2050POPC   C3A29525   3.014  17.809   8.087
 2050POPC   C4A29526   2.775  17.690   7.740
 2050POPC   C1B29527   3.064  17.255   8.811
 2050POPC   C2B29528   3.140  17.134   8.402
 2050POPC   C3B29529   2.886  17.284   8.029
 2050POPC   C4B29530   2.955  17.255   7.571
 2051POPC   NC329531  39.613   1.184   9.458
 2051POPC   PO429532  39.112   1.725   9.547
 2051POPC   GL129533  39.227   1.448   9.201
 2051POPC   GL229534  39.141   1.088   9.216
 2051POPC   C1A29535  39.206   1.382   8.763
 2051POPC   D2A29536  38.985   1.253   8.419
 2051POPC   C3A29537  39.184   1.326   8.065
 2051POPC   C4A29538  38.972   1.434   7.695
 2051POPC   C1B29539  39.377   0.906   8.901
 2051POPC   C2B29540  39.329   0.893   8.484
 2051POPC   C3B29541  39.551   0.934   8.106
 2051POPC   C4B29542  39.368   1.025   7.707
 2052POPC   NC329543  31.721  43.804   9.473
 2052POPC   PO429544  31.025  43.749   9.384
 2052POPC   GL129545  31.235  43.832   9.026
 2052POPC   GL229546  31.500  43.598   9.077
 2052POPC   C1A29547  31.210  43.979   8.612
 2052POPC   D2A29548  31.073  44.218   8.284
 2052POPC   C3A29549  31.300  44.270   7.943
 2052POPC   C4A29550  31.186  44.136   7.564
 2052POPC   C1B29551  31.668  43.784   8.712
 2052POPC   C2B29552  31.621  43.924   8.299
 2052POPC   C3B29553  31.688  43.655   7.980
 2052POPC   C4B29554  31.441  43.705   7.651
 2053POPC   NC329555  33.627  26.678   9.824
 2053POPC   PO429556  33.024  26.580   9.534
 2053POPC   GL129557  33.059  26.797   9.146
 2053POPC   GL229558  32.868  27.122   9.134
 2053POPC   C1A29559  33.228  26.612   8.739
 2053POPC   D2A29560  33.190  26.796   8.348
 2053POPC   C3A29561  33.218  26.649   7.968
 2053POPC   C4A29562  33.143  27.002   7.708
 2053POPC   C1B29563  32.916  27.025   8.715
 2053POPC   C2B29564  32.719  27.048   8.360
 2053POPC   C3B29565  32.744  27.153   7.975
 2053POPC   C4B29566  32.642  27.028   7.570
 2054POPC   NC329567  33.568  42.088   9.500
 2054POPC   PO429568  34.202  42.399   9.392
 2054POPC   GL129569  33.778  42.455   9.178
 2054POPC   GL229570  33.763  42.121   9.040
 2054POPC   C1A29571  33.528  42.485   8.781
 2054POPC   D2A29572  33.594  42.269   8.388
 2054POPC   C3A29573  33.469  42.506   8.024
 2054POPC   C4A29574  33.730  42.664   7.708
 2054POPC   C1B29575  33.850  41.903   8.675
 2054POPC   C2B29576  33.659  41.766   8.287
 2054POPC   C3B29577  33.730  41.829   7.858
 2054POPC   C4B29578  33.582  42.184   7.648
 2055POPC   NC329579  39.481  43.576   9.475
 2055POPC   PO429580  39.432  44.205   9.553
 2055POPC   GL129581  39.227  43.968   9.211
 2055POPC   GL229582  39.544  43.911   9.094
 2055POPC   C1A29583  39.187  43.735   8.773
 2055POPC   D2A29584  38.963  43.680   8.361
 2055POPC   C3A29585  39.217  43.614   7.997
 2055POPC   C4A29586  39.345  43.733   7.584
 2055POPC   C1B29587  39.555  44.119   8.705
 2055POPC   C2B29588  39.274  44.148   8.377
 2055POPC   C3B29589  39.337  44.127   7.944
 2055POPC   C4B29590  39.721  44.027   7.739
 2056POPC   NC329591  23.877  29.572   9.465
 2056POPC   PO429592  23.694  28.973   9.604
 2056POPC   GL129593  23.698  29.149   9.194
 2056POPC   GL229594  23.395  29.369   9.170
 2056POPC   C1A29595  23.754  28.852   8.846
 2056POPC   D2A29596  23.550  28.707   8.474
 2056POPC   C3A29597  23.659  28.871   8.114
 2056POPC   C4A29598  23.782  28.987   7.734
 2056POPC   C1B29599  23.539  29.487   8.786
 2056POPC   C2B29600  23.711  29.255   8.464
 2056POPC   C3B29601  23.656  29.378   8.037
 2056POPC   C4B29602  23.791  29.473   7.621
 2057POPC   NC329603  21.803   0.866   9.470
 2057POPC   PO429604  21.506   1.553   9.531
 2057POPC   GL129605  21.544   1.302   9.159
 2057POPC   GL229606  21.671   0.975   8.996
 2057POPC   C1A29607  21.383   1.343   8.749
 2057POPC   D2A29608  21.618   1.150   8.429
 2057POPC   C3A29609  21.438   1.342   8.097
 2057POPC   C4A29610  21.260   1.512   7.720
 2057POPC   C1B29611  21.334   0.815   8.736
 2057POPC   C2B29612  21.119   0.933   8.350
 2057POPC   C3B29613  21.112   1.031   7.904
 2057POPC   C4B29614  21.504   1.083   7.670
 2058POPC   NC329615  24.190  27.789   9.377
 2058POPC   PO429616  24.647  27.283   9.571
 2058POPC   GL129617  24.563  27.477   9.166
 2058POPC   GL229618  24.219  27.370   9.086
 2058POPC   C1A29619  24.627  27.791   8.812
 2058POPC   D2A29620  24.409  27.880   8.414
 2058POPC   C3A29621  24.624  27.605   8.126
 2058POPC   C4A29622  24.800  27.648   7.716
 2058POPC   C1B29623  24.269  27.450   8.644
 2058POPC   C2B29624  24.103  27.489   8.233
 2058POPC   C3B29625  24.244  27.497   7.804
 2058POPC   C4B29626  24.170  27.259   7.441
 2059POPC   NC329627  24.405   9.577   9.516
 2059POPC   PO429628  24.741   9.045   9.396
 2059POPC   GL129629  24.435   9.109   9.090
 2059POPC   GL229630  24.240   9.416   9.062
 2059POPC   C1A29631  24.454   8.925   8.679
 2059POPC   D2A29632  24.718   9.042   8.337
 2059POPC   C3A29633  24.578   8.920   7.914
 2059POPC   C4A29634  24.671   8.896   7.439
 2059POPC   C1B29635  24.544   9.425   8.697
 2059POPC   C2B29636  24.203   9.311   8.399
 2059POPC   C3B29637  24.119   9.156   7.976
 2059POPC   C4B29638  24.336   9.249   7.602
 2060POPC   NC329639  32.700  19.260   9.943
 2060POPC   PO429640  32.173  19.065   9.500
 2060POPC   GL129641  32.238  19.111   9.058
 2060POPC   GL229642  32.583  19.012   9.069
 2060POPC   C1A29643  32.161  19.313   8.680
 2060POPC   D2A29644  32.218  19.121   8.312
 2060POPC   C3A29645  32.194  19.248   7.915
 2060POPC   C4A29646  32.165  18.892   7.734
 2060POPC   C1B29647  32.492  18.818   8.652
 2060POPC   C2B29648  32.620  18.854   8.193
 2060POPC   C3B29649  32.670  18.848   7.735
 2060POPC   C4B29650  32.622  19.070   7.349
 2061POPC   NC329651   5.353  28.694   9.512
 2061POPC   PO429652   5.617  29.264   9.414
 2061POPC   GL129653   5.657  29.073   9.023
 2061POPC   GL229654   5.764  28.726   8.995
 2061POPC   C1A29655   5.650  29.059   8.565
 2061POPC   D2A29656   5.661  28.993   8.143
 2061POPC   C3A29657   5.533  29.201   7.805
 2061POPC   C4A29658   5.786  28.965   7.564
 2061POPC   C1B29659   6.108  28.962   8.783
 2061POPC   C2B29660   6.178  29.105   8.352
 2061POPC   C3B29661   6.120  29.161   7.904
 2061POPC   C4B29662   5.930  29.473   7.650
 2062POPC   NC329663  38.969  37.758   9.638
 2062POPC   PO429664  38.229  37.719   9.595
 2062POPC   GL129665  38.545  37.801   9.309
 2062POPC   GL229666  38.456  37.513   9.139
 2062POPC   C1A29667  38.624  37.924   8.888
 2062POPC   D2A29668  38.559  37.653   8.543
 2062POPC   C3A29669  38.757  37.842   8.171
 2062POPC   C4A29670  38.577  37.886   7.759
 2062POPC   C1B29671  38.214  37.253   8.851
 2062POPC   C2B29672  38.220  37.282   8.410
 2062POPC   C3B29673  38.383  37.499   8.067
 2062POPC   C4B29674  38.474  37.401   7.650
 2063POPC   NC329675  42.540  32.156   9.837
 2063POPC   PO429676  42.214  32.513   9.312
 2063POPC   GL129677  42.212  32.277   9.000
 2063POPC   GL229678  41.944  32.116   9.041
 2063POPC   C1A29679  42.425  32.305   8.641
 2063POPC   D2A29680  42.506  32.035   8.356
 2063POPC   C3A29681  42.757  32.069   8.065
 2063POPC   C4A29682  42.508  32.168   7.703
 2063POPC   C1B29683  41.921  32.334   8.603
 2063POPC   C2B29684  42.087  32.290   8.216
 2063POPC   C3B29685  42.051  32.351   7.809
 2063POPC   C4B29686  41.935  32.708   7.594
 2064POPC   NC329687   7.143  12.078   9.420
 2064POPC   PO429688   6.469  12.090   9.673
 2064POPC   GL129689   6.684  12.092   9.226
 2064POPC   GL229690   6.836  11.801   9.100
 2064POPC   C1A29691   6.579  12.138   8.793
 2064POPC   D2A29692   6.465  12.333   8.416
 2064POPC   C3A29693   6.342  12.066   8.073
 2064POPC   C4A29694   6.588  12.016   7.743
 2064POPC   C1B29695   6.806  11.698   8.661
 2064POPC   C2B29696   6.812  11.938   8.269
 2064POPC   C3B29697   7.059  11.875   7.894
 2064POPC   C4B29698   7.065  11.827   7.394
 2065POPC   NC329699  21.882  35.642   9.219
 2065POPC   PO429700  21.979  35.013   9.480
 2065POPC   GL129701  22.158  35.224   9.140
 2065POPC   GL229702  22.425  35.466   9.215
 2065POPC   C1A29703  22.134  35.280   8.704
 2065POPC   D2A29704  21.779  35.460   8.498
 2065POPC   C3A29705  21.936  35.506   8.098
 2065POPC   C4A29706  22.136  35.208   7.796
 2065POPC   C1B29707  22.501  35.665   8.827
 2065POPC   C2B29708  22.567  35.453   8.431
 2065POPC   C3B29709  22.464  35.548   8.013
 2065POPC   C4B29710  22.430  35.890   7.726
 2066POPC   NC329711  37.243  38.165   9.213
 2066POPC   PO429712  37.829  38.424   9.558
 2066POPC   GL129713  37.716  38.363   9.147
 2066POPC   GL229714  37.765  38.008   9.203
 2066POPC   C1A29715  37.634  38.514   8.703
 2066POPC   D2A29716  37.348  38.502   8.356
 2066POPC   C3A29717  37.565  38.612   7.997
 2066POPC   C4A29718  37.382  38.480   7.659
 2066POPC   C1B29719  37.648  37.935   8.769
 2066POPC   C2B29720  37.633  38.079   8.396
 2066POPC   C3B29721  37.497  38.096   8.020
 2066POPC   C4B29722  37.770  38.148   7.689
 2067POPC   NC329723   8.568   3.873   9.462
 2067POPC   PO429724   8.412   3.276   9.655
 2067POPC   GL129725   8.394   3.382   9.224
 2067POPC   GL229726   8.047   3.402   9.192
 2067POPC   C1A29727   8.323   3.443   8.761
 2067POPC   D2A29728   8.359   3.697   8.376
 2067POPC   C3A29729   8.315   3.496   7.969
 2067POPC   C4A29730   8.191   3.151   7.730
 2067POPC   C1B29731   7.817   3.555   8.837
 2067POPC   C2B29732   7.836   3.871   8.531
 2067POPC   C3B29733   7.898   3.793   8.094
 2067POPC   C4B29734   7.837   3.549   7.713
 2068POPC   NC329735  43.022  17.393   9.520
 2068POPC   PO429736  42.987  18.025   9.612
 2068POPC   GL129737  43.147  17.809   9.218
 2068POPC   GL229738  42.909  17.589   9.063
 2068POPC   C1A29739  43.333  17.690   8.805
 2068POPC   D2A29740  43.130  17.752   8.403
 2068POPC   C3A29741  43.240  17.615   7.988
 2068POPC   C4A29742  42.877  17.480   7.761
 2068POPC   C1B29743  42.994  17.320   8.707
 2068POPC   C2B29744  42.949  17.263   8.270
 2068POPC   C3B29745  42.994  17.032   7.926
 2068POPC   C4B29746  43.275  17.203   7.638
 2069POPC   NC329747  17.756  11.741   9.522
 2069POPC   PO429748  17.279  12.068   9.391
 2069POPC   GL129749  17.386  11.805   9.065
 2069POPC   GL229750  17.042  11.710   9.038
 2069POPC   C1A29751  17.609  11.835   8.642
 2069POPC   D2A29752  17.454  12.079   8.289
 2069POPC   C3A29753  17.707  12.195   7.912
 2069POPC   C4A29754  17.599  12.330   7.472
 2069POPC   C1B29755  17.110  11.785   8.608
 2069POPC   C2B29756  17.281  11.584   8.271
 2069POPC   C3B29757  17.391  11.768   7.885
 2069POPC   C4B29758  17.198  12.199   7.831
 2070POPC   NC329759  22.719  20.546   9.599
 2070POPC   PO429760  23.343  20.565   9.754
 2070POPC   GL129761  23.094  20.439   9.263
 2070POPC   GL229762  22.791  20.615   9.105
 2070POPC   C1A29763  23.178  20.501   8.786
 2070POPC   D2A29764  23.005  20.358   8.361
 2070POPC   C3A29765  22.861  20.707   8.050
 2070POPC   C4A29766  22.908  20.882   7.639
 2070POPC   C1B29767  22.684  20.582   8.699
 2070POPC   C2B29768  22.501  20.508   8.350
 2070POPC   C3B29769  22.535  20.325   7.956
 2070POPC   C4B29770  22.527  20.505   7.572
 2071POPC   NC329771  30.516  31.539   9.680
 2071POPC   PO429772  30.556  30.887   9.918
 2071POPC   GL129773  30.516  31.106   9.395
 2071POPC   GL229774  30.792  31.120   9.161
 2071POPC   C1A29775  30.417  31.373   8.949
 2071POPC   D2A29776  30.420  31.666   8.544
 2071POPC   C3A29777  30.606  31.577   8.116
 2071POPC   C4A29778  30.508  31.572   7.661
 2071POPC   C1B29779  30.922  31.322   8.776
 2071POPC   C2B29780  31.066  31.576   8.439
 2071POPC   C3B29781  31.125  31.491   8.010
 2071POPC   C4B29782  30.908  31.262   7.689
 2072POPC   NC329783  15.221   3.184   9.721
 2072POPC   PO429784  14.860   3.635   9.344
 2072POPC   GL129785  15.175   3.746   9.058
 2072POPC   GL229786  15.303   3.441   8.955
 2072POPC   C1A29787  15.113   3.866   8.619
 2072POPC   D2A29788  14.816   3.853   8.258
 2072POPC   C3A29789  15.060   3.665   7.905
 2072POPC   C4A29790  15.450   3.462   7.802
 2072POPC   C1B29791  15.019   3.355   8.630
 2072POPC   C2B29792  14.828   3.324   8.252
 2072POPC   C3B29793  15.032   3.138   7.934
 2072POPC   C4B29794  14.938   3.261   7.541
 2073POPC   NC329795  12.387  39.099  10.048
 2073POPC   PO429796  11.858  39.166   9.618
 2073POPC   GL129797  12.132  39.147   9.214
 2073POPC   GL229798  12.369  38.869   9.157
 2073POPC   C1A29799  12.304  39.312   8.793
 2073POPC   D2A29800  12.409  39.092   8.374
 2073POPC   C3A29801  12.190  39.171   7.972
 2073POPC   C4A29802  12.125  39.347   7.546
 2073POPC   C1B29803  12.202  38.822   8.757
 2073POPC   C2B29804  11.910  38.849   8.406
 2073POPC   C3B29805  11.746  38.917   7.996
 2073POPC   C4B29806  11.983  38.858   7.617
 2074POPC   NC329807  33.550  17.114   9.506
 2074POPC   PO429808  34.139  16.746   9.644
 2074POPC   GL129809  33.861  16.589   9.278
 2074POPC   GL229810  33.671  16.847   9.106
 2074POPC   C1A29811  33.897  16.486   8.838
 2074POPC   D2A29812  33.750  16.729   8.488
 2074POPC   C3A29813  33.970  16.687   8.099
 2074POPC   C4A29814  33.845  16.472   7.728
 2074POPC   C1B29815  33.536  17.147   8.810
 2074POPC   C2B29816  33.431  17.164   8.407
 2074POPC   C3B29817  33.509  16.895   8.052
 2074POPC   C4B29818  33.693  16.953   7.666
 2075POPC   NC329819   5.254  11.059   9.582
 2075POPC   PO429820   4.857  11.633   9.493
 2075POPC   GL129821   5.206  11.426   9.226
 2075POPC   GL229822   5.183  11.052   9.085
 2075POPC   C1A29823   5.390  11.453   8.828
 2075POPC   D2A29824   5.116  11.457   8.479
 2075POPC   C3A29825   5.249  11.601   8.080
 2075POPC   C4A29826   4.908  11.613   7.818
 2075POPC   C1B29827   5.223  10.961   8.651
 2075POPC   C2B29828   5.337  11.064   8.219
 2075POPC   C3B29829   5.115  11.151   7.858
 2075POPC   C4B29830   4.683  11.141   7.755
 2076POPC   NC329831  38.209  38.170   9.472
 2076POPC   PO429832  38.863  38.177   9.474
 2076POPC   GL129833  38.567  38.443   9.210
 2076POPC   GL229834  38.203  38.576   9.150
 2076POPC   C1A29835  38.549  38.433   8.771
 2076POPC   D2A29836  38.469  38.160   8.439
 2076POPC   C3A29837  38.518  38.329   8.024
 2076POPC   C4A29838  38.263  38.268   7.652
 2076POPC   C1B29839  38.072  38.272   8.778
 2076POPC   C2B29840  38.031  38.389   8.313
 2076POPC   C3B29841  38.093  38.657   7.929
 2076POPC   C4B29842  37.915  38.615   7.500
 2077POPC   NC329843  14.720  38.800   9.414
 2077POPC   PO429844  14.456  39.451   9.584
 2077POPC   GL129845  14.434  39.200   9.213
 2077POPC   GL229846  14.497  39.494   8.995
 2077POPC   C1A29847  14.455  38.993   8.815
 2077POPC   D2A29848  14.338  38.805   8.418
 2077POPC   C3A29849  14.482  39.082   8.103
 2077POPC   C4A29850  14.381  39.114   7.714
 2077POPC   C1B29851  14.143  39.403   8.702
 2077POPC   C2B29852  14.065  39.283   8.292
 2077POPC   C3B29853  14.025  39.482   7.884
 2077POPC   C4B29854  14.111  39.449   7.435
 2078POPC   NC329855  26.507  26.148   9.463
 2078POPC   PO429856  27.198  26.263   9.345
 2078POPC   GL129857  26.865  26.016   9.083
 2078POPC   GL229858  26.495  25.891   9.048
 2078POPC   C1A29859  26.742  26.070   8.652
 2078POPC   D2A29860  26.909  26.187   8.291
 2078POPC   C3A29861  26.895  25.973   7.913
 2078POPC   C4A29862  26.607  26.151   7.638
 2078POPC   C1B29863  26.342  25.729   8.703
 2078POPC   C2B29864  26.510  25.718   8.366
 2078POPC   C3B29865  26.420  25.836   8.003
 2078POPC   C4B29866  26.562  25.659   7.618
 2079POPC   NC329867  10.105  26.739   9.624
 2079POPC   PO429868   9.549  27.022   9.401
 2079POPC   GL129869   9.643  26.786   9.093
 2079POPC   GL229870   9.998  26.847   9.137
 2079POPC   C1A29871   9.447  26.747   8.693
 2079POPC   D2A29872   9.723  26.647   8.372
 2079POPC   C3A29873   9.818  26.798   7.981
 2079POPC   C4A29874   9.570  26.869   7.622
 2079POPC   C1B29875   9.985  26.893   8.718
 2079POPC   C2B29876  10.213  26.960   8.357
 2079POPC   C3B29877  10.227  27.099   7.962
 2079POPC   C4B29878  10.077  26.976   7.556
 2080POPC   NC329879  19.850   5.972   9.677
 2080POPC   PO429880  20.352   5.928   9.426
 2080POPC   GL129881  19.949   5.810   9.188
 2080POPC   GL229882  19.671   6.052   9.188
 2080POPC   C1A29883  19.714   5.729   8.776
 2080POPC   D2A29884  19.538   5.613   8.349
 2080POPC   C3A29885  19.662   5.830   7.968
 2080POPC   C4A29886  19.899   6.147   7.752
 2080POPC   C1B29887  19.525   6.211   8.764
 2080POPC   C2B29888  19.481   6.191   8.300
 2080POPC   C3B29889  19.390   6.255   7.854
 2080POPC   C4B29890  19.481   5.967   7.493
 2081POPC   NC329891  18.171  25.491   9.243
 2081POPC   PO429892  18.079  26.131   9.459
 2081POPC   GL129893  18.273  26.141   9.046
 2081POPC   GL229894  18.479  25.842   8.979
 2081POPC   C1A29895  18.177  26.202   8.599
 2081POPC   D2A29896  17.876  26.003   8.298
 2081POPC   C3A29897  18.079  25.723   8.005
 2081POPC   C4A29898  18.325  25.884   7.654
 2081POPC   C1B29899  18.716  25.709   8.618
 2081POPC   C2B29900  18.559  25.797   8.205
 2081POPC   C3B29901  18.334  26.164   8.082
 2081POPC   C4B29902  18.422  26.385   7.725
 2082POPC   NC329903   7.126  10.105   9.562
 2082POPC   PO429904   7.219   9.465   9.447
 2082POPC   GL129905   7.293   9.676   9.068
 2082POPC   GL229906   7.330  10.044   9.106
 2082POPC   C1A29907   7.236   9.483   8.633
 2082POPC   D2A29908   7.468   9.425   8.245
 2082POPC   C3A29909   7.510   9.593   7.800
 2082POPC   C4A29910   7.262   9.392   7.418
 2082POPC   C1B29911   7.453   9.944   8.665
 2082POPC   C2B29912   7.469   9.934   8.230
 2082POPC   C3B29913   7.539  10.126   7.844
 2082POPC   C4B29914   7.660  10.190   7.420
 2083POPC   NC329915  23.144  32.455   9.603
 2083POPC   PO429916  22.567  32.590   9.688
 2083POPC   GL129917  22.685  32.318   9.311
 2083POPC   GL229918  22.699  31.938   9.304
 2083POPC   C1A29919  22.813  32.433   8.885
 2083POPC   D2A29920  22.912  32.602   8.481
 2083POPC   C3A29921  22.760  32.406   8.116
 2083POPC   C4A29922  22.938  32.350   7.746
 2083POPC   C1B29923  22.920  31.952   8.915
 2083POPC   C2B29924  22.882  32.037   8.470
 2083POPC   C3B29925  22.940  31.917   8.020
 2083POPC   C4B29926  22.704  31.923   7.612
 2084POPC   NC329927  42.159  30.818   9.692
 2084POPC   PO429928  42.528  30.308   9.336
 2084POPC   GL129929  42.538  30.639   9.008
 2084POPC   GL229930  42.306  30.929   9.041
 2084POPC   C1A29931  42.436  30.716   8.566
 2084POPC   D2A29932  42.567  30.521   8.174
 2084POPC   C3A29933  42.524  30.816   7.808
 2084POPC   C4A29934  42.727  31.179   7.698
 2084POPC   C1B29935  41.861  30.893   8.810
 2084POPC   C2B29936  41.929  30.794   8.402
 2084POPC   C3B29937  42.076  30.665   8.002
 2084POPC   C4B29938  42.198  30.483   7.621
 2085POPC   NC329939  27.440  23.436   9.478
 2085POPC   PO429940  27.924  23.930   9.455
 2085POPC   GL129941  27.692  23.812   9.133
 2085POPC   GL229942  27.795  23.483   9.112
 2085POPC   C1A29943  27.810  23.857   8.694
 2085POPC   D2A29944  27.663  23.745   8.272
 2085POPC   C3A29945  27.727  24.083   7.934
 2085POPC   C4A29946  27.799  24.288   7.498
 2085POPC   C1B29947  27.564  23.393   8.732
 2085POPC   C2B29948  27.501  23.170   8.359
 2085POPC   C3B29949  27.719  23.287   8.009
 2085POPC   C4B29950  27.583  23.620   7.783
 2086POPC   NC329951  28.528  24.428   9.541
 2086POPC   PO429952  27.944  24.721   9.575
 2086POPC   GL129953  28.069  24.788   9.162
 2086POPC   GL229954  28.413  24.818   9.225
 2086POPC   C1A29955  28.046  24.600   8.767
 2086POPC   D2A29956  27.980  24.354   8.404
 2086POPC   C3A29957  28.116  24.625   8.071
 2086POPC   C4A29958  28.193  24.291   7.846
 2086POPC   C1B29959  28.537  24.545   8.889
 2086POPC   C2B29960  28.480  24.511   8.458
 2086POPC   C3B29961  28.637  24.468   8.066
 2086POPC   C4B29962  28.611  24.690   7.691
 2087POPC   NC329963   1.657  37.215   9.492
 2087POPC   PO429964   1.914  37.805   9.526
 2087POPC   GL129965   1.864  37.688   9.154
 2087POPC   GL229966   1.678  37.868   8.995
 2087POPC   C1A29967   1.965  37.558   8.712
 2087POPC   D2A29968   1.759  37.486   8.322
 2087POPC   C3A29969   2.018  37.479   7.924
 2087POPC   C4A29970   2.334  37.767   7.740
 2087POPC   C1B29971   1.509  37.993   8.612
 2087POPC   C2B29972   1.553  38.048   8.189
 2087POPC   C3B29973   1.791  37.961   7.822
 2087POPC   C4B29974   1.768  38.137   7.421
 2088POPC   NC329975   4.634  19.272   9.505
 2088POPC   PO429976   4.321  18.675   9.407
 2088POPC   GL129977   4.555  18.964   9.105
 2088POPC   GL229978   4.341  19.219   9.053
 2088POPC   C1A29979   4.641  18.958   8.674
 2088POPC   D2A29980   4.395  19.050   8.303
 2088POPC   C3A29981   4.377  18.895   7.887
 2088POPC   C4A29982   4.635  18.891   7.499
 2088POPC   C1B29983   4.042  19.139   8.696
 2088POPC   C2B29984   3.999  19.378   8.280
 2088POPC   C3B29985   3.993  19.286   7.845
 2088POPC   C4B29986   3.721  19.146   7.512
 2089POPC   NC329987  40.677  44.984   9.505
 2089POPC   PO429988  40.871  44.328   9.563
 2089POPC   GL129989  40.855  44.590   9.161
 2089POPC   GL229990  40.528  44.776   9.078
 2089POPC   C1A29991  40.764  44.527   8.697
 2089POPC   D2A29992  40.647  44.231   8.370
 2089POPC   C3A29993  40.812  44.400   7.980
 2089POPC   C4A29994  40.843  44.706   7.648
 2089POPC   C1B29995  40.309  44.885   8.703
 2089POPC   C2B29996  40.301  44.630   8.336
 2089POPC   C3B29997  40.422  44.738   7.948
 2089POPC   C4B29998  40.487   0.098   7.710
 2090POPC   NC329999  41.225  21.901   9.505
 2090POPC   PO430000  41.530  22.470   9.371
 2090POPC   GL130001  41.309  22.214   9.089
 2090POPC   GL230002  40.955  22.249   9.200
 2090POPC   C1A30003  41.456  22.011   8.691
 2090POPC   D2A30004  41.775  21.963   8.378
 2090POPC   C3A30005  41.511  21.813   8.091
 2090POPC   C4A30006  41.462  21.711   7.711
 2090POPC   C1B30007  40.975  21.933   8.846
 2090POPC   C2B30008  41.024  22.121   8.446
 2090POPC   C3B30009  41.365  22.317   8.228
 2090POPC   C4B30010  41.397  22.283   7.787
 2091POPC   NC330011  35.137  20.835   9.523
 2091POPC   PO430012  35.685  20.301   9.441
 2091POPC   GL130013  35.386  20.437   9.136
 2091POPC   GL230014  35.453  20.780   9.138
 2091POPC   C1A30015  35.195  20.593   8.740
 2091POPC   D2A30016  35.074  20.677   8.335
 2091POPC   C3A30017  35.352  20.504   8.067
 2091POPC   C4A30018  35.467  20.475   7.654
 2091POPC   C1B30019  35.514  21.009   8.771
 2091POPC   C2B30020  35.566  20.922   8.331
 2091POPC   C3B30021  35.336  20.982   7.952
 2091POPC   C4B30022  35.520  21.012   7.573
 2092POPC   NC330023  28.637   4.363   9.270
 2092POPC   PO430024  29.283   4.079   9.478
 2092POPC   GL130025  29.267   4.227   9.099
 2092POPC   GL230026  29.057   4.484   9.007
 2092POPC   C1A30027  29.177   4.100   8.712
 2092POPC   D2A30028  29.170   4.459   8.407
 2092POPC   C3A30029  29.311   4.358   7.979
 2092POPC   C4A30030  29.119   4.007   7.762
 2092POPC   C1B30031  28.878   4.779   8.728
 2092POPC   C2B30032  28.740   4.819   8.319
 2092POPC   C3B30033  28.959   4.732   7.955
 2092POPC   C4B30034  28.876   4.440   7.619
 2093POPC   NC330035  44.348  18.164   9.406
 2093POPC   PO430036  44.855  18.030   9.836
 2093POPC   GL130037  44.833  18.025   9.340
 2093POPC   GL230038  44.589  17.817   9.138
 2093POPC   C1A30039  44.766  18.233   8.910
 2093POPC   D2A30040  44.832  18.189   8.471
 2093POPC   C3A30041  44.909  18.519   8.190
 2093POPC   C4A30042  44.733  18.462   7.786
 2093POPC   C1B30043  44.304  17.982   8.780
 2093POPC   C2B30044  44.199  18.009   8.314
 2093POPC   C3B30045  44.486  18.017   7.946
 2093POPC   C4B30046  44.367  18.084   7.505
 2094POPC   NC330047  23.380  23.696   9.517
 2094POPC   PO430048  23.917  23.300   9.695
 2094POPC   GL130049  23.847  23.463   9.216
 2094POPC   GL230050  23.729  23.812   9.161
 2094POPC   C1A30051  23.845  23.566   8.738
 2094POPC   D2A30052  23.800  23.957   8.470
 2094POPC   C3A30053  23.906  23.802   8.047
 2094POPC   C4A30054  23.653  23.455   7.842
 2094POPC   C1B30055  23.387  23.719   8.873
 2094POPC   C2B30056  23.364  23.677   8.464
 2094POPC   C3B30057  23.410  23.859   8.089
 2094POPC   C4B30058  23.309  23.779   7.667
 2095POPC   NC330059  26.295   3.168   9.558
 2095POPC   PO430060  26.528   3.801   9.459
 2095POPC   GL130061  26.229   3.559   9.203
 2095POPC   GL230062  26.460   3.307   9.113
 2095POPC   C1A30063  26.032   3.302   8.832
 2095POPC   D2A30064  26.021   3.042   8.432
 2095POPC   C3A30065  25.962   3.299   8.065
 2095POPC   C4A30066  26.209   3.376   7.708
 2095POPC   C1B30067  26.513   3.566   8.772
 2095POPC   C2B30068  26.269   3.528   8.432
 2095POPC   C3B30069  26.350   3.679   8.075
 2095POPC   C4B30070  26.628   3.761   7.794
 2096POPC   NC330071  26.046  28.637   9.532
 2096POPC   PO430072  26.193  28.047   9.556
 2096POPC   GL130073  26.010  28.262   9.138
 2096POPC   GL230074  25.866  28.627   9.061
 2096POPC   C1A30075  26.072  28.377   8.687
 2096POPC   D2A30076  26.317  28.385   8.331
 2096POPC   C3A30077  26.137  28.183   8.002
 2096POPC   C4A30078  25.945  28.268   7.603
 2096POPC   C1B30079  25.668  28.709   8.648
 2096POPC   C2B30080  25.809  28.513   8.248
 2096POPC   C3B30081  26.051  28.679   7.874
 2096POPC   C4B30082  25.957  28.770   7.434
 2097POPC   NC330083  16.234   7.323   9.461
 2097POPC   PO430084  15.671   7.709   9.406
 2097POPC   GL130085  15.931   7.536   9.070
 2097POPC   GL230086  16.072   7.192   9.012
 2097POPC   C1A30087  16.108   7.554   8.648
 2097POPC   D2A30088  16.236   7.424   8.230
 2097POPC   C3A30089  16.153   7.713   7.923
 2097POPC   C4A30090  15.899   7.592   7.589
 2097POPC   C1B30091  15.688   7.144   8.807
 2097POPC   C2B30092  15.799   7.224   8.394
 2097POPC   C3B30093  15.708   7.293   7.971
 2097POPC   C4B30094  15.686   7.094   7.551
 2098POPC   NC330095   9.576   4.900   9.834
 2098POPC   PO430096   9.815   5.377   9.474
 2098POPC   GL130097   9.672   4.990   9.319
 2098POPC   GL230098   9.425   5.157   9.175
 2098POPC   C1A30099   9.758   4.793   8.902
 2098POPC   D2A30100   9.917   4.976   8.488
 2098POPC   C3A30101   9.659   5.009   8.084
 2098POPC   C4A30102   9.892   4.982   7.690
 2098POPC   C1B30103   9.688   5.307   8.845
 2098POPC   C2B30104   9.588   5.392   8.446
 2098POPC   C3B30105   9.674   5.631   8.116
 2098POPC   C4B30106   9.729   5.465   7.718
 2099POPC   NC330107  32.701  28.938   9.418
 2099POPC   PO430108  33.154  29.352   9.478
 2099POPC   GL130109  32.990  29.207   9.100
 2099POPC   GL230110  32.631  29.383   9.119
 2099POPC   C1A30111  33.134  29.042   8.687
 2099POPC   D2A30112  33.432  29.145   8.337
 2099POPC   C3A30113  33.304  29.109   7.892
 2099POPC   C4A30114  33.061  28.983   7.497
 2099POPC   C1B30115  32.819  29.455   8.702
 2099POPC   C2B30116  32.964  29.357   8.259
 2099POPC   C3B30117  32.815  29.271   7.851
 2099POPC   C4B30118  32.808  29.547   7.479
 2100POPC   NC330119   9.237   1.512   9.374
 2100POPC   PO430120   8.702   0.944   9.490
 2100POPC   GL130121   8.944   0.870   9.100
 2100POPC   GL230122   9.196   1.153   9.015
 2100POPC   C1A30123   8.822   1.047   8.697
 2100POPC   D2A30124   8.691   1.359   8.394
 2100POPC   C3A30125   8.787   1.121   8.042
 2100POPC   C4A30126   9.004   1.260   7.720
 2100POPC   C1B30127   9.142   1.456   8.655
 2100POPC   C2B30128   9.202   1.454   8.188
 2100POPC   C3B30129   9.485   1.408   7.818
 2100POPC   C4B30130   9.304   1.428   7.343
 2101POPC   NC330131   1.929  35.747   9.929
 2101POPC   PO430132   1.551  35.418   9.449
 2101POPC   GL130133   1.696  35.656   9.068
 2101POPC   GL230134   2.027  35.504   9.017
 2101POPC   C1A30135   1.751  35.595   8.592
 2101POPC   D2A30136   1.826  35.200   8.333
 2101POPC   C3A30137   1.694  35.248   7.886
 2101POPC   C4A30138   1.363  35.186   7.549
 2101POPC   C1B30139   2.226  35.411   8.592
 2101POPC   C2B30140   2.203  35.458   8.111
 2101POPC   C3B30141   2.240  35.188   7.749
 2101POPC   C4B30142   2.250  35.142   7.258
 2102POPC   NC330143  11.558  41.386   9.559
 2102POPC   PO430144  11.142  41.933   9.530
 2102POPC   GL130145  11.506  41.786   9.235
 2102POPC   GL230146  11.783  42.025   9.181
 2102POPC   C1A30147  11.469  41.513   8.861
 2102POPC   D2A30148  11.178  41.487   8.491
 2102POPC   C3A30149  11.348  41.463   8.063
 2102POPC   C4A30150  11.159  41.579   7.650
 2102POPC   C1B30151  11.821  41.867   8.772
 2102POPC   C2B30152  11.594  41.769   8.419
 2102POPC   C3B30153  11.623  41.918   8.029
 2102POPC   C4B30154  11.641  41.700   7.706
 2103POPC   NC330155  17.773   8.386   9.684
 2103POPC   PO430156  17.354   7.921   9.559
 2103POPC   GL130157  17.469   8.266   9.249
 2103POPC   GL230158  17.780   8.483   9.183
 2103POPC   C1A30159  17.460   8.162   8.820
 2103POPC   D2A30160  17.646   7.942   8.509
 2103POPC   C3A30161  17.481   8.019   8.112
 2103POPC   C4A30162  17.536   7.969   7.697
 2103POPC   C1B30163  17.603   8.641   8.791
 2103POPC   C2B30164  17.630   8.455   8.359
 2103POPC   C3B30165  17.644   8.468   7.915
 2103POPC   C4B30166  17.472   8.424   7.531
 2104POPC   NC330167  25.640  42.601   9.618
 2104POPC   PO430168  26.078  42.098   9.495
 2104POPC   GL130169  26.083  42.336   9.098
 2104POPC   GL230170  26.407  42.201   9.109
 2104POPC   C1A30171  25.919  42.705   8.837
 2104POPC   D2A30172  25.621  42.716   8.505
 2104POPC   C3A30173  25.798  42.448   8.188
 2104POPC   C4A30174  25.942  42.502   7.783
 2104POPC   C1B30175  26.554  42.199   8.726
 2104POPC   C2B30176  26.319  42.267   8.364
 2104POPC   C3B30177  26.340  42.184   7.941
 2104POPC   C4B30178  26.129  41.915   7.684
 2105POPC   NC330179  12.934  18.515   9.356
 2105POPC   PO430180  13.081  17.853   9.429
 2105POPC   GL130181  12.854  18.096   9.101
 2105POPC   GL230182  12.533  18.002   9.055
 2105POPC   C1A30183  12.735  18.320   8.705
 2105POPC   D2A30184  12.912  18.207   8.305
 2105POPC   C3A30185  12.715  18.421   7.984
 2105POPC   C4A30186  12.825  18.592   7.590
 2105POPC   C1B30187  12.302  17.908   8.720
 2105POPC   C2B30188  12.424  18.083   8.349
 2105POPC   C3B30189  12.466  17.999   7.927
 2105POPC   C4B30190  12.399  18.293   7.563
 2106POPC   NC330191  28.613  25.848   9.457
 2106POPC   PO430192  28.183  26.299   9.516
 2106POPC   GL130193  28.292  26.102   9.152
 2106POPC   GL230194  28.630  26.228   9.091
 2106POPC   C1A30195  28.195  25.881   8.773
 2106POPC   D2A30196  28.170  25.701   8.356
 2106POPC   C3A30197  28.049  25.943   7.997
 2106POPC   C4A30198  28.299  26.008   7.623
 2106POPC   C1B30199  28.731  25.902   8.807
 2106POPC   C2B30200  28.685  25.724   8.398
 2106POPC   C3B30201  28.581  25.971   8.060
 2106POPC   C4B30202  28.728  26.245   7.753
 2107POPC   NC330203   1.665  41.935   9.747
 2107POPC   PO430204   2.273  42.212   9.477
 2107POPC   GL130205   2.125  42.393   9.104
 2107POPC   GL230206   1.824  42.589   9.108
 2107POPC   C1A30207   1.962  42.259   8.696
 2107POPC   D2A30208   2.125  42.144   8.315
 2107POPC   C3A30209   1.921  42.284   7.978
 2107POPC   C4A30210   1.942  42.171   7.563
 2107POPC   C1B30211   1.546  42.558   8.757
 2107POPC   C2B30212   1.545  42.385   8.359
 2107POPC   C3B30213   1.551  42.637   7.972
 2107POPC   C4B30214   1.767  42.684   7.565
 2108POPC   NC330215  39.421   7.290   9.352
 2108POPC   PO430216  38.952   7.829   9.417
 2108POPC   GL130217  38.841   7.505   9.104
 2108POPC   GL230218  39.035   7.181   9.036
 2108POPC   C1A30219  38.873   7.506   8.659
 2108POPC   D2A30220  38.795   7.375   8.235
 2108POPC   C3A30221  39.102   7.424   7.897
 2108POPC   C4A30222  39.027   7.496   7.435
 2108POPC   C1B30223  39.287   7.184   8.620
 2108POPC   C2B30224  39.508   7.425   8.241
 2108POPC   C3B30225  39.581   7.512   7.773
 2108POPC   C4B30226  39.445   7.198   7.490
 2109POPC   NC330227  25.998  14.395   9.585
 2109POPC   PO430228  26.481  13.978   9.383
 2109POPC   GL130229  26.318  14.368   9.157
 2109POPC   GL230230  25.982  14.564   9.101
 2109POPC   C1A30231  26.333  14.527   8.723
 2109POPC   D2A30232  26.498  14.373   8.328
 2109POPC   C3A30233  26.227  14.322   7.982
 2109POPC   C4A30234  26.008  14.662   7.767
 2109POPC   C1B30235  25.672  14.491   8.772
 2109POPC   C2B30236  25.553  14.181   8.485
 2109POPC   C3B30237  25.567  14.074   8.072
 2109POPC   C4B30238  25.828  14.096   7.771
 2110POPC   NC330239  21.576   9.989   9.376
 2110POPC   PO430240  21.213   9.425   9.500
 2110POPC   GL130241  21.275   9.625   9.137
 2110POPC   GL230242  21.105   9.955   9.164
 2110POPC   C1A30243  21.522   9.667   8.754
 2110POPC   D2A30244  21.775   9.553   8.393
 2110POPC   C3A30245  21.533   9.649   8.041
 2110POPC   C4A30246  21.610   9.704   7.644
 2110POPC   C1B30247  21.023   9.792   8.741
 2110POPC   C2B30248  21.137   9.777   8.332
 2110POPC   C3B30249  21.113   9.940   7.914
 2110POPC   C4B30250  21.155   9.839   7.486
 2111POPC   NC330251  11.951  13.905   9.559
 2111POPC   PO430252  12.270  13.324   9.530
 2111POPC   GL130253  12.283  13.543   9.165
 2111POPC   GL230254  11.952  13.619   9.124
 2111POPC   C1A30255  12.288  13.417   8.728
 2111POPC   D2A30256  12.318  13.597   8.322
 2111POPC   C3A30257  12.095  13.376   7.989
 2111POPC   C4A30258  12.267  13.330   7.567
 2111POPC   C1B30259  12.002  13.844   8.742
 2111POPC   C2B30260  11.822  13.760   8.360
 2111POPC   C3B30261  11.963  13.858   7.983
 2111POPC   C4B30262  11.938  13.707   7.592
 2112POPC   NC330263  11.908  25.437   9.131
 2112POPC   PO430264  12.131  25.085   9.690
 2112POPC   GL130265  12.126  24.963   9.224
 2112POPC   GL230266  12.325  25.175   8.953
 2112POPC   C1A30267  11.990  24.867   8.791
 2112POPC   D2A30268  12.268  25.053   8.458
 2112POPC   C3A30269  12.158  25.014   8.026
 2112POPC   C4A30270  11.973  25.363   7.846
 2112POPC   C1B30271  12.393  25.537   8.669
 2112POPC   C2B30272  12.216  25.599   8.254
 2112POPC   C3B30273  12.186  25.840   7.883
 2112POPC   C4B30274  12.159  25.678   7.472
 2113POPC   NC330275  41.253  37.641   9.465
 2113POPC   PO430276  40.628  37.911   9.504
 2113POPC   GL130277  40.572  37.734   9.118
 2113POPC   GL230278  40.801  37.486   9.161
 2113POPC   C1A30279  40.599  37.627   8.681
 2113POPC   D2A30280  40.674  37.300   8.387
 2113POPC   C3A30281  40.643  37.465   7.979
 2113POPC   C4A30282  40.344  37.778   7.857
 2113POPC   C1B30283  41.088  37.632   8.849
 2113POPC   C2B30284  41.120  37.736   8.424
 2113POPC   C3B30285  41.308  37.771   8.040
 2113POPC   C4B30286  41.061  37.586   7.697
 2114POPC   NC330287  39.252   8.627   9.548
 2114POPC   PO430288  39.481   9.225   9.531
 2114POPC   GL130289  39.493   9.012   9.181
 2114POPC   GL230290  39.171   9.134   9.067
 2114POPC   C1A30291  39.545   9.034   8.739
 2114POPC   D2A30292  39.220   8.882   8.456
 2114POPC   C3A30293  39.297   8.675   8.059
 2114POPC   C4A30294  39.478   8.770   7.659
 2114POPC   C1B30295  39.066   9.308   8.681
 2114POPC   C2B30296  39.392   9.356   8.346
 2114POPC   C3B30297  39.288   9.170   7.971
 2114POPC   C4B30298  39.197   9.194   7.532
 2115POPC   NC330299  18.750  43.970   9.314
 2115POPC   PO430300  18.517  44.700   9.497
 2115POPC   GL130301  18.333  44.453   9.135
 2115POPC   GL230302  17.966  44.273   9.148
 2115POPC   C1A30303  18.289  44.748   8.798
 2115POPC   D2A30304  18.484  44.854   8.430
 2115POPC   C3A30305  18.480  44.501   8.165
 2115POPC   C4A30306  18.343  44.624   7.769
 2115POPC   C1B30307  17.870  44.452   8.760
 2115POPC   C2B30308  18.005  44.372   8.350
 2115POPC   C3B30309  17.884  44.359   7.917
 2115POPC   C4B30310  18.084  44.262   7.523
 2116POPC   NC330311  34.905  28.364   9.592
 2116POPC   PO430312  35.439  28.709   9.739
 2116POPC   GL130313  35.262  28.685   9.250
 2116POPC   GL230314  34.980  28.737   8.978
 2116POPC   C1A30315  35.435  28.663   8.788
 2116POPC   D2A30316  35.525  28.311   8.495
 2116POPC   C3A30317  35.515  28.340   8.031
 2116POPC   C4A30318  35.828  28.271   7.692
 2116POPC   C1B30319  35.018  28.361   8.684
 2116POPC   C2B30320  35.079  28.172   8.283
 2116POPC   C3B30321  35.007  28.295   7.867
 2116POPC   C4B30322  34.989  28.505   7.450
 2117POPC   NC330323   7.925  11.455   9.427
 2117POPC   PO430324   7.297  11.694   9.630
 2117POPC   GL130325   7.309  11.613   9.201
 2117POPC   GL230326   7.370  11.267   9.237
 2117POPC   C1A30327   7.424  11.606   8.759
 2117POPC   D2A30328   7.626  11.359   8.407
 2117POPC   C3A30329   7.511  11.565   8.026
 2117POPC   C4A30330   7.285  11.443   7.649
 2117POPC   C1B30331   7.523  11.103   8.854
 2117POPC   C2B30332   7.391  10.850   8.511
 2117POPC   C3B30333   7.406  10.972   8.107
 2117POPC   C4B30334   7.665  11.124   7.818
 2118POPC   NC330335  27.331   0.141   9.265
 2118POPC   PO430336  27.841   0.343   9.686
 2118POPC   GL130337  27.758   0.519   9.257
 2118POPC   GL230338  28.025   0.760   9.180
 2118POPC   C1A30339  27.585   0.737   8.908
 2118POPC   D2A30340  27.708   0.736   8.495
 2118POPC   C3A30341  27.518   0.459   8.180
 2118POPC   C4A30342  27.698   0.361   7.774
 2118POPC   C1B30343  28.180   0.865   8.728
 2118POPC   C2B30344  28.173   0.905   8.275
 2118POPC   C3B30345  28.109   0.620   7.919
 2118POPC   C4B30346  28.018   0.634   7.419
 2119POPC   NC330347  14.111  39.588   9.320
 2119POPC   PO430348  14.298  40.116   9.681
 2119POPC   GL130349  14.511  39.989   9.293
 2119POPC   GL230350  14.233  40.003   9.069
 2119POPC   C1A30351  14.686  39.981   8.852
 2119POPC   D2A30352  14.466  39.948   8.440
 2119POPC   C3A30353  14.440  39.836   7.985
 2119POPC   C4A30354  14.345  40.222   7.762
 2119POPC   C1B30355  13.988  39.894   8.723
 2119POPC   C2B30356  14.004  39.790   8.322
 2119POPC   C3B30357  13.960  40.013   7.996
 2119POPC   C4B30358  13.986  39.903   7.585
 2120POPC   NC330359  34.063   9.425   9.634
 2120POPC   PO430360  33.811   9.954   9.471
 2120POPC   GL130361  33.835   9.554   9.203
 2120POPC   GL230362  34.070   9.236   9.174
 2120POPC   C1A30363  33.757   9.529   8.800
 2120POPC   D2A30364  33.670   9.718   8.420
 2120POPC   C3A30365  33.591   9.462   8.092
 2120POPC   C4A30366  33.715   9.698   7.753
 2120POPC   C1B30367  34.217   9.316   8.782
 2120POPC   C2B30368  34.012   9.327   8.399
 2120POPC   C3B30369  34.106   9.487   8.007
 2120POPC   C4B30370  34.037   9.258   7.620
 2121POPC   NC330371   5.130  42.706   9.434
 2121POPC   PO430372   4.963  42.091   9.533
 2121POPC   GL130373   5.272  42.220   9.230
 2121POPC   GL230374   5.006  42.365   9.085
 2121POPC   C1A30375   5.403  42.385   8.785
 2121POPC   D2A30376   5.227  42.605   8.411
 2121POPC   C3A30377   5.255  42.404   7.992
 2121POPC   C4A30378   5.151  42.432   7.569
 2121POPC   C1B30379   4.904  42.126   8.706
 2121POPC   C2B30380   4.842  42.240   8.258
 2121POPC   C3B30381   4.786  42.124   7.809
 2121POPC   C4B30382   4.639  41.969   7.375
 2122POPC   NC330383  37.307  11.128   9.541
 2122POPC   PO430384  36.646  11.305   9.511
 2122POPC   GL130385  36.836  11.038   9.133
 2122POPC   GL230386  37.186  10.926   9.088
 2122POPC   C1A30387  36.962  11.091   8.673
 2122POPC   D2A30388  37.316  11.158   8.406
 2122POPC   C3A30389  37.156  11.090   8.019
 2122POPC   C4A30390  36.806  11.327   7.835
 2122POPC   C1B30391  37.314  11.382   8.919
 2122POPC   C2B30392  37.444  11.630   8.502
 2122POPC   C3B30393  37.210  11.606   8.087
 2122POPC   C4B30394  37.030  11.755   7.678
 2123POPC   NC330395   0.091  39.138   9.657
 2123POPC   PO430396  44.410  39.325   9.602
 2123POPC   GL130397  44.683  39.120   9.297
 2123POPC   GL230398  44.890  39.373   9.178
 2123POPC   C1A30399  44.760  38.986   8.853
 2123POPC   D2A30400  44.756  39.200   8.450
 2123POPC   C3A30401  44.515  39.218   8.083
 2123POPC   C4A30402  44.702  39.005   7.768
 2123POPC   C1B30403   0.058  39.436   8.789
 2123POPC   C2B30404   0.030  39.628   8.399
 2123POPC   C3B30405  44.992  39.429   7.999
 2123POPC   C4B30406  44.911  39.514   7.587
 2124POPC   NC330407  26.177  25.576   9.581
 2124POPC   PO430408  25.729  26.021   9.634
 2124POPC   GL130409  26.023  25.990   9.293
 2124POPC   GL230410  25.833  25.728   9.185
 2124POPC   C1A30411  26.035  26.104   8.848
 2124POPC   D2A30412  26.222  26.151   8.435
 2124POPC   C3A30413  26.008  26.122   8.036
 2124POPC   C4A30414  26.127  25.980   7.612
 2124POPC   C1B30415  25.838  25.620   8.748
 2124POPC   C2B30416  25.987  25.642   8.290
 2124POPC   C3B30417  25.828  25.637   7.843
 2124POPC   C4B30418  25.687  25.711   7.379
 2125POPC   NC330419   6.940  16.256   9.490
 2125POPC   PO430420   6.240  16.128   9.504
 2125POPC   GL130421   6.559  16.092   9.177
 2125POPC   GL230422   6.544  15.752   9.260
 2125POPC   C1A30423   6.813  16.126   8.770
 2125POPC   D2A30424   6.987  16.117   8.334
 2125POPC   C3A30425   6.799  16.195   7.905
 2125POPC   C4A30426   6.621  16.038   7.506
 2125POPC   C1B30427   6.624  15.641   8.876
 2125POPC   C2B30428   6.761  15.671   8.481
 2125POPC   C3B30429   6.714  15.712   8.067
 2125POPC   C4B30430   6.563  15.562   7.670
 2126POPC   NC330431  27.244  38.678   9.661
 2126POPC   PO430432  27.462  38.125   9.467
 2126POPC   GL130433  27.517  38.477   9.186
 2126POPC   GL230434  27.189  38.643   9.073
 2126POPC   C1A30435  27.776  38.528   8.804
 2126POPC   D2A30436  27.757  38.250   8.433
 2126POPC   C3A30437  27.605  38.328   7.991
 2126POPC   C4A30438  27.786  38.582   7.641
 2126POPC   C1B30439  27.293  38.525   8.647
 2126POPC   C2B30440  27.577  38.737   8.349
 2126POPC   C3B30441  27.443  38.811   7.936
 2126POPC   C4B30442  27.363  38.823   7.485
 2127POPC   NC330443  30.718  34.852   9.551
 2127POPC   PO430444  30.963  35.475   9.456
 2127POPC   GL130445  30.668  35.252   9.215
 2127POPC   GL230446  30.938  35.048   9.120
 2127POPC   C1A30447  30.496  35.260   8.791
 2127POPC   D2A30448  30.584  35.484   8.400
 2127POPC   C3A30449  30.503  35.292   8.036
 2127POPC   C4A30450  30.206  35.023   7.820
 2127POPC   C1B30451  30.993  35.291   8.738
 2127POPC   C2B30452  30.967  35.142   8.285
 2127POPC   C3B30453  30.963  35.193   7.816
 2127POPC   C4B30454  30.987  35.439   7.427
 2128POPC   NC330455  10.908   1.887   9.918
 2128POPC   PO430456  10.597   1.708   9.342
 2128POPC   GL130457  10.719   1.880   8.996
 2128POPC   GL230458  10.833   2.184   9.086
 2128POPC   C1A30459  10.439   1.947   8.664
 2128POPC   D2A30460  10.159   1.742   8.372
 2128POPC   C3A30461  10.448   1.749   8.051
 2128POPC   C4A30462  10.412   1.930   7.674
 2128POPC   C1B30463  10.951   2.259   8.688
 2128POPC   C2B30464  10.819   2.069   8.317
 2128POPC   C3B30465  10.587   2.281   8.029
 2128POPC   C4B30466  10.728   2.345   7.637
 2129POPC   NC330467  17.556  19.557   9.508
 2129POPC   PO430468  17.287  18.891   9.465
 2129POPC   GL130469  17.514  18.994   9.074
 2129POPC   GL230470  17.647  19.347   9.033
 2129POPC   C1A30471  17.370  19.055   8.676
 2129POPC   D2A30472  17.386  19.298   8.311
 2129POPC   C3A30473  17.181  19.104   7.998
 2129POPC   C4A30474  17.136  18.869   7.681
 2129POPC   C1B30475  17.862  19.196   8.632
 2129POPC   C2B30476  17.695  18.902   8.320
 2129POPC   C3B30477  17.631  18.889   7.909
 2129POPC   C4B30478  17.564  19.082   7.516
 2130POPC   NC330479  32.177  37.777   9.442
 2130POPC   PO430480  32.709  37.279   9.544
 2130POPC   GL130481  32.694  37.518   9.128
 2130POPC   GL230482  32.477  37.855   9.045
 2130POPC   C1A30483  32.688  37.594   8.670
 2130POPC   D2A30484  32.409  37.836   8.429
 2130POPC   C3A30485  32.250  37.602   8.053
 2130POPC   C4A30486  32.473  37.611   7.660
 2130POPC   C1B30487  32.071  37.749   8.798
 2130POPC   C2B30488  31.886  37.833   8.377
 2130POPC   C3B30489  31.744  37.652   7.994
 2130POPC   C4B30490  31.963  37.696   7.627
 2131POPC   NC330491  24.131  13.054   9.732
 2131POPC   PO430492  24.644  12.687   9.553
 2131POPC   GL130493  24.394  12.735   9.174
 2131POPC   GL230494  24.245  13.071   9.149
 2131POPC   C1A30495  24.519  12.887   8.738
 2131POPC   D2A30496  24.740  12.781   8.362
 2131POPC   C3A30497  24.510  12.782   8.002
 2131POPC   C4A30498  24.662  13.131   7.837
 2131POPC   C1B30499  24.057  13.072   8.707
 2131POPC   C2B30500  24.026  12.915   8.265
 2131POPC   C3B30501  24.058  13.126   7.873
 2131POPC   C4B30502  24.279  12.929   7.576
 2132POPC   NC330503  16.631  42.004   9.571
 2132POPC   PO430504  16.893  42.616   9.439
 2132POPC   GL130505  16.834  42.297   9.152
 2132POPC   GL230506  16.491  42.182   9.128
 2132POPC   C1A30507  16.722  42.490   8.748
 2132POPC   D2A30508  16.908  42.726   8.399
 2132POPC   C3A30509  17.002  42.561   7.993
 2132POPC   C4A30510  16.695  42.604   7.656
 2132POPC   C1B30511  16.649  41.985   8.771
 2132POPC   C2B30512  16.469  42.147   8.433
 2132POPC   C3B30513  16.580  42.305   8.090
 2132POPC   C4B30514  16.798  42.114   7.756
 2133POPC   NC330515  43.355  16.573   9.391
 2133POPC   PO430516  42.832  16.963   9.523
 2133POPC   GL130517  43.044  17.027   9.165
 2133POPC   GL230518  43.315  17.256   9.120
 2133POPC   C1A30519  42.912  16.823   8.818
 2133POPC   D2A30520  42.758  16.813   8.415
 2133POPC   C3A30521  42.944  16.560   8.098
 2133POPC   C4A30522  42.811  16.611   7.661
 2133POPC   C1B30523  43.409  16.962   8.812
 2133POPC   C2B30524  43.277  16.826   8.449
 2133POPC   C3B30525  43.399  16.788   8.073
 2133POPC   C4B30526  43.318  16.683   7.676
 2134POPC   NC330527  41.375  29.412   9.395
 2134POPC   PO430528  41.382  28.745   9.536
 2134POPC   GL130529  41.338  28.902   9.103
 2134POPC   GL230530  41.565  29.210   8.974
 2134POPC   C1A30531  41.242  28.986   8.675
 2134POPC   D2A30532  41.491  29.237   8.414
 2134POPC   C3A30533  41.458  29.076   7.998
 2134POPC   C4A30534  41.682  29.014   7.570
 2134POPC   C1B30535  41.225  29.513   8.766
 2134POPC   C2B30536  41.131  29.755   8.370
 2134POPC   C3B30537  41.345  29.562   8.046
 2134POPC   C4B30538  41.356  29.397   7.623
 2135POPC   NC330539  12.234   0.045   9.410
 2135POPC   PO430540  12.256   0.750   9.425
 2135POPC   GL130541  12.149   0.544   9.063
 2135POPC   GL230542  11.874   0.355   9.080
 2135POPC   C1A30543  12.117   0.644   8.629
 2135POPC   D2A30544  12.211   0.988   8.344
 2135POPC   C3A30545  12.255   0.747   7.937
 2135POPC   C4A30546  12.391   0.315   7.856
 2135POPC   C1B30547  12.007   0.128   8.734
 2135POPC   C2B30548  12.132   0.192   8.311
 2135POPC   C3B30549  11.882   0.327   7.967
 2135POPC   C4B30550  11.581   0.559   7.793
 2136POPC   NC330551  25.117   9.322   9.379
 2136POPC   PO430552  25.549   8.892   9.657
 2136POPC   GL130553  25.600   8.824   9.204
 2136POPC   GL230554  25.374   9.036   9.076
 2136POPC   C1A30555  25.524   8.708   8.740
 2136POPC   D2A30556  25.504   8.880   8.322
 2136POPC   C3A30557  25.181   9.155   8.148
 2136POPC   C4A30558  25.059   8.951   7.780
 2136POPC   C1B30559  25.202   9.150   8.691
 2136POPC   C2B30560  25.520   9.344   8.492
 2136POPC   C3B30561  25.690   9.320   8.104
 2136POPC   C4B30562  25.474   9.242   7.733
 2137POPC   NC330563  17.632   7.434   9.563
 2137POPC   PO430564  17.293   7.068   9.212
 2137POPC   GL130565  17.621   7.301   9.047
 2137POPC   GL230566  17.551   7.669   9.088
 2137POPC   C1A30567  17.652   7.432   8.634
 2137POPC   D2A30568  17.448   7.524   8.278
 2137POPC   C3A30569  17.656   7.538   7.931
 2137POPC   C4A30570  17.805   7.264   7.653
 2137POPC   C1B30571  17.212   7.713   8.747
 2137POPC   C2B30572  17.058   7.853   8.318
 2137POPC   C3B30573  17.142   7.686   7.865
 2137POPC   C4B30574  17.391   7.529   7.475
 2138POPC   NC330575   0.389  23.924   9.472
 2138POPC   PO430576   0.884  23.542   9.702
 2138POPC   GL130577   0.687  23.620   9.207
 2138POPC   GL230578   0.310  23.661   9.063
 2138POPC   C1A30579   0.658  23.695   8.722
 2138POPC   D2A30580   0.352  23.608   8.390
 2138POPC   C3A30581   0.409  23.601   7.937
 2138POPC   C4A30582   0.555  23.921   7.710
 2138POPC   C1B30583   0.071  23.897   8.749
 2138POPC   C2B30584   0.066  24.079   8.314
 2138POPC   C3B30585   0.019  23.957   7.890
 2138POPC   C4B30586   0.085  23.752   7.532
 2139POPC   NC330587  26.376  26.964   9.311
 2139POPC   PO430588  27.049  27.100   9.377
 2139POPC   GL130589  26.934  26.784   9.067
 2139POPC   GL230590  26.708  26.516   9.160
 2139POPC   C1A30591  27.046  26.489   8.735
 2139POPC   D2A30592  27.294  26.515   8.369
 2139POPC   C3A30593  27.011  26.669   8.087
 2139POPC   C4A30594  26.850  26.577   7.711
 2139POPC   C1B30595  26.488  26.514   8.753
 2139POPC   C2B30596  26.535  26.526   8.294
 2139POPC   C3B30597  26.337  26.544   7.888
 2139POPC   C4B30598  26.435  26.813   7.533
 2140POPC   NC330599   3.245  12.095   9.466
 2140POPC   PO430600   3.911  11.773   9.481
 2140POPC   GL130601   3.688  11.806   9.116
 2140POPC   GL230602   3.572  12.166   9.056
 2140POPC   C1A30603   3.753  11.715   8.668
 2140POPC   D2A30604   3.542  11.878   8.338
 2140POPC   C3A30605   3.589  11.920   7.941
 2140POPC   C4A30606   3.607  12.261   7.734
 2140POPC   C1B30607   3.273  11.857   8.834
 2140POPC   C2B30608   3.084  11.764   8.463
 2140POPC   C3B30609   3.091  11.956   8.077
 2140POPC   C4B30610   3.146  12.063   7.652
 2141POPC   NC330611  42.571  32.212   9.328
 2141POPC   PO430612  43.222  32.329   9.415
 2141POPC   GL130613  43.017  32.193   9.081
 2141POPC   GL230614  42.875  32.514   9.059
 2141POPC   C1A30615  42.930  32.207   8.642
 2141POPC   D2A30616  43.258  32.230   8.382
 2141POPC   C3A30617  43.254  32.295   7.965
 2141POPC   C4A30618  43.025  32.111   7.655
 2141POPC   C1B30619  42.740  32.698   8.699
 2141POPC   C2B30620  42.727  32.543   8.274
 2141POPC   C3B30621  42.806  32.551   7.828
 2141POPC   C4B30622  42.753  32.454   7.357
 2142POPC   NC330623  18.657  36.785   9.428
 2142POPC   PO430624  19.268  37.064   9.561
 2142POPC   GL130625  19.105  36.991   9.165
 2142POPC   GL230626  19.047  36.633   9.146
 2142POPC   C1A30627  19.146  36.929   8.723
 2142POPC   D2A30628  19.185  37.193   8.410
 2142POPC   C3A30629  18.975  37.109   8.067
 2142POPC   C4A30630  19.175  37.262   7.729
 2142POPC   C1B30631  18.721  36.659   8.798
 2142POPC   C2B30632  18.818  36.656   8.368
 2142POPC   C3B30633  18.646  36.721   7.973
 2142POPC   C4B30634  18.807  36.925   7.579
 2143POPC   NC330635   1.669  15.313   9.783
 2143POPC   PO430636   2.294  15.032   9.561
 2143POPC   GL130637   2.122  15.227   9.165
 2143POPC   GL230638   2.413  15.415   9.071
 2143POPC   C1A30639   1.875  15.133   8.736
 2143POPC   D2A30640   1.605  15.233   8.346
 2143POPC   C3A30641   1.712  15.050   7.971
 2143POPC   C4A30642   1.993  14.986   7.670
 2143POPC   C1B30643   2.385  15.076   8.758
 2143POPC   C2B30644   2.236  14.954   8.354
 2143POPC   C3B30645   2.360  15.150   7.972
 2143POPC   C4B30646   2.376  15.340   7.551
 2144POPC   NC330647  41.582   4.820   9.904
 2144POPC   PO430648  41.114   4.828   9.400
 2144POPC   GL130649  41.549   4.899   9.204
 2144POPC   GL230650  41.670   5.257   9.171
 2144POPC   C1A30651  41.597   4.943   8.752
 2144POPC   D2A30652  41.243   4.959   8.455
 2144POPC   C3A30653  41.352   4.953   8.025
 2144POPC   C4A30654  41.187   5.061   7.619
 2144POPC   C1B30655  41.530   5.467   8.803
 2144POPC   C2B30656  41.344   5.490   8.405
 2144POPC   C3B30657  41.427   5.467   7.988
 2144POPC   C4B30658  41.804   5.364   7.815
 2145POPC   NC330659  20.891  30.491   9.587
 2145POPC   PO430660  20.404  30.050   9.615
 2145POPC   GL130661  20.368  29.972   9.179
 2145POPC   GL230662  20.289  29.666   9.051
 2145POPC   C1A30663  20.433  30.032   8.743
 2145POPC   D2A30664  20.720  30.098   8.400
 2145POPC   C3A30665  20.557  30.113   7.992
 2145POPC   C4A30666  20.659  29.816   7.713
 2145POPC   C1B30667  20.431  29.518   8.633
 2145POPC   C2B30668  20.502  29.630   8.209
 2145POPC   C3B30669  20.226  29.587   7.869
 2145POPC   C4B30670  20.306  29.569   7.397
 2146POPC   NC330671  23.473  16.391   9.680
 2146POPC   PO430672  23.653  16.958   9.504
 2146POPC   GL130673  23.521  16.723   9.162
 2146POPC   GL230674  23.474  16.356   9.163
 2146POPC   C1A30675  23.580  16.848   8.741
 2146POPC   D2A30676  23.684  16.654   8.343
 2146POPC   C3A30677  23.826  16.864   7.984
 2146POPC   C4A30678  23.573  17.097   7.704
 2146POPC   C1B30679  23.741  16.352   8.765
 2146POPC   C2B30680  23.934  16.198   8.363
 2146POPC   C3B30681  23.867  16.317   7.933
 2146POPC   C4B30682  23.633  16.517   7.628
 2147POPC   NC330683  13.570  16.549   9.502
 2147POPC   PO430684  13.500  17.155   9.221
 2147POPC   GL130685  13.692  16.765   9.055
 2147POPC   GL230686  13.997  16.716   9.251
 2147POPC   C1A30687  13.684  16.623   8.616
 2147POPC   D2A30688  13.602  16.937   8.273
 2147POPC   C3A30689  13.458  16.810   7.878
 2147POPC   C4A30690  13.261  16.405   7.769
 2147POPC   C1B30691  14.185  16.578   8.857
 2147POPC   C2B30692  14.137  16.477   8.427
 2147POPC   C3B30693  13.980  16.643   8.060
 2147POPC   C4B30694  13.921  17.038   7.867
 2148POPC   NC330695   1.335  41.175   9.403
 2148POPC   PO430696   1.069  40.605   9.465
 2148POPC   GL130697   1.045  40.843   9.097
 2148POPC   GL230698   0.875  41.157   9.145
 2148POPC   C1A30699   1.356  40.985   8.789
 2148POPC   D2A30700   1.432  41.040   8.372
 2148POPC   C3A30701   1.485  40.690   8.148
 2148POPC   C4A30702   1.413  40.622   7.726
 2148POPC   C1B30703   0.936  41.299   8.737
 2148POPC   C2B30704   0.921  41.117   8.341
 2148POPC   C3B30705   1.058  40.918   7.993
 2148POPC   C4B30706   0.882  40.643   7.703
 2149POPC   NC330707  35.023  17.004   9.318
 2149POPC   PO430708  35.724  16.939   9.428
 2149POPC   GL130709  35.584  16.839   9.047
 2149POPC   GL230710  35.302  16.714   9.021
 2149POPC   C1A30711  35.637  16.760   8.633
 2149POPC   D2A30712  35.373  16.823   8.294
 2149POPC   C3A30713  35.483  16.668   7.901
 2149POPC   C4A30714  35.508  16.260   7.782
 2149POPC   C1B30715  35.045  16.738   8.687
 2149POPC   C2B30716  34.854  16.785   8.288
 2149POPC   C3B30717  35.040  16.944   7.905
 2149POPC   C4B30718  34.960  16.905   7.439
 2150POPC   NC330719  21.986   1.595   9.450
 2150POPC   PO430720  22.255   1.070   9.470
 2150POPC   GL130721  22.097   1.237   9.093
 2150POPC   GL230722  22.357   1.483   9.043
 2150POPC   C1A30723  22.164   1.112   8.653
 2150POPC   D2A30724  22.532   1.186   8.291
 2150POPC   C3A30725  22.335   1.141   7.879
 2150POPC   C4A30726  21.977   0.931   7.688
 2150POPC   C1B30727  22.378   1.567   8.595
 2150POPC   C2B30728  22.082   1.439   8.270
 2150POPC   C3B30729  21.894   1.399   7.887
 2150POPC   C4B30730  22.118   1.457   7.529
 2151POPC   NC330731  38.409  30.111   9.608
 2151POPC   PO430732  38.322  29.499   9.375
 2151POPC   GL130733  38.430  29.875   9.101
 2151POPC   GL230734  38.201  30.142   9.093
 2151POPC   C1A30735  38.487  30.099   8.663
 2151POPC   D2A30736  38.524  30.067   8.182
 2151POPC   C3A30737  38.626  29.692   7.953
 2151POPC   C4A30738  38.742  29.784   7.536
 2151POPC   C1B30739  37.987  30.288   8.739
 2151POPC   C2B30740  38.110  30.300   8.344
 2151POPC   C3B30741  38.134  30.334   7.933
 2151POPC   C4B30742  38.333  30.052   7.698
 2152POPC   NC330743  42.067  25.175   9.368
 2152POPC   PO430744  41.419  25.489   9.469
 2152POPC   GL130745  41.579  25.321   9.150
 2152POPC   GL230746  41.867  25.570   9.156
 2152POPC   C1A30747  41.393  25.253   8.730
 2152POPC   D2A30748  41.585  24.991   8.427
 2152POPC   C3A30749  41.475  25.124   8.005
 2152POPC   C4A30750  41.612  24.851   7.692
 2152POPC   C1B30751  41.903  25.338   8.765
 2152POPC   C2B30752  41.804  25.457   8.381
 2152POPC   C3B30753  41.946  25.305   8.000
 2152POPC   C4B30754  41.852  25.332   7.571
 2153POPC   NC330755   1.119  13.672   9.751
 2153POPC   PO430756   1.444  13.336   9.331
 2153POPC   GL130757   1.166  13.564   9.089
 2153POPC   GL230758   1.454  13.604   8.854
 2153POPC   C1A30759   1.017  13.752   8.718
 2153POPC   D2A30760   1.314  13.785   8.365
 2153POPC   C3A30761   1.125  13.748   7.967
 2153POPC   C4A30762   0.948  13.535   7.626
 2153POPC   C1B30763   1.752  13.860   8.641
 2153POPC   C2B30764   1.810  14.071   8.248
 2153POPC   C3B30765   1.502  14.082   7.916
 2153POPC   C4B30766   1.470  13.899   7.499
 2154POPC   NC330767  20.424  42.310   9.475
 2154POPC   PO430768  20.896  42.739   9.151
 2154POPC   GL130769  20.618  42.525   9.028
 2154POPC   GL230770  20.643  42.190   9.049
 2154POPC   C1A30771  20.772  42.397   8.604
 2154POPC   D2A30772  20.891  42.542   8.203
 2154POPC   C3A30773  20.539  42.721   7.957
 2154POPC   C4A30774  20.537  42.771   7.472
 2154POPC   C1B30775  20.480  41.993   8.714
 2154POPC   C2B30776  20.709  41.948   8.316
 2154POPC   C3B30777  20.609  41.943   7.899
 2154POPC   C4B30778  20.574  42.303   7.649
 2155POPC   NC330779  16.369  40.524   9.562
 2155POPC   PO430780  15.726  40.811   9.620
 2155POPC   GL130781  15.707  40.895   9.206
 2155POPC   GL230782  16.055  40.768   9.201
 2155POPC   C1A30783  15.760  40.751   8.762
 2155POPC   D2A30784  15.887  40.430   8.456
 2155POPC   C3A30785  15.716  40.536   8.037
 2155POPC   C4A30786  15.579  40.454   7.591
 2155POPC   C1B30787  16.241  40.602   8.827
 2155POPC   C2B30788  16.189  40.843   8.442
 2155POPC   C3B30789  16.164  40.842   7.992
 2155POPC   C4B30790  15.807  41.076   7.830
 2156POPC   NC330791  27.367  27.401   9.532
 2156POPC   PO430792  27.803  27.881   9.383
 2156POPC   GL130793  27.599  27.648   9.115
 2156POPC   GL230794  27.241  27.673   9.135
 2156POPC   C1A30795  27.658  27.645   8.689
 2156POPC   D2A30796  27.721  27.306   8.418
 2156POPC   C3A30797  27.697  27.418   7.977
 2156POPC   C4A30798  27.671  27.207   7.577
 2156POPC   C1B30799  27.220  27.398   8.802
 2156POPC   C2B30800  27.160  27.528   8.412
 2156POPC   C3B30801  27.060  27.385   8.028
 2156POPC   C4B30802  27.280  27.519   7.676
 2157POPC   NC330803   8.615  43.665   9.432
 2157POPC   PO430804   8.466  43.011   9.601
 2157POPC   GL130805   8.311  43.245   9.207
 2157POPC   GL230806   8.261  42.908   9.112
 2157POPC   C1A30807   8.107  43.235   8.773
 2157POPC   D2A30808   8.265  43.037   8.394
 2157POPC   C3A30809   8.190  43.261   8.029
 2157POPC   C4A30810   7.854  43.517   7.869
 2157POPC   C1B30811   8.379  42.670   8.743
 2157POPC   C2B30812   8.245  42.543   8.317
 2157POPC   C3B30813   8.365  42.751   7.943
 2157POPC   C4B30814   8.455  42.635   7.496
 2158POPC   NC330815  37.493  30.372   9.470
 2158POPC   PO430816  37.788  30.989   9.482
 2158POPC   GL130817  37.588  30.778   9.164
 2158POPC   GL230818  37.910  30.609   9.119
 2158POPC   C1A30819  37.552  30.657   8.731
 2158POPC   D2A30820  37.841  30.711   8.400
 2158POPC   C3A30821  37.666  30.630   7.978
 2158POPC   C4A30822  37.776  30.460   7.592
 2158POPC   C1B30823  37.888  31.032   8.832
 2158POPC   C2B30824  37.644  31.161   8.488
 2158POPC   C3B30825  37.763  31.112   8.082
 2158POPC   C4B30826  37.881  31.128   7.661
 2159POPC   NC330827  37.909  32.137   9.650
 2159POPC   PO430828  37.640  32.656   9.518
 2159POPC   GL130829  37.592  32.378   9.142
 2159POPC   GL230830  37.718  32.043   9.162
 2159POPC   C1A30831  37.445  32.456   8.730
 2159POPC   D2A30832  37.241  32.441   8.326
 2159POPC   C3A30833  37.554  32.385   8.091
 2159POPC   C4A30834  37.718  32.427   7.726
 2159POPC   C1B30835  37.503  31.927   8.783
 2159POPC   C2B30836  37.699  31.832   8.375
 2159POPC   C3B30837  37.661  31.919   7.937
 2159POPC   C4B30838  37.333  32.059   7.711
 2160POPC   NC330839  21.730   0.096   9.543
 2160POPC   PO430840  21.348   0.649   9.466
 2160POPC   GL130841  21.582   0.439   9.192
 2160POPC   GL230842  21.340   0.142   9.202
 2160POPC   C1A30843  21.768   0.508   8.800
 2160POPC   D2A30844  21.557   0.445   8.433
 2160POPC   C3A30845  21.515   0.731   8.093
 2160POPC   C4A30846  21.408   0.586   7.694
 2160POPC   C1B30847  21.571   0.034   8.807
 2160POPC   C2B30848  21.667  44.955   8.345
 2160POPC   C3B30849  21.414   0.173   8.016
 2160POPC   C4B30850  21.038   0.245   7.765
 2161POPC   NC330851   2.380  43.533   9.303
 2161POPC   PO430852   2.860  43.020   9.437
 2161POPC   GL130853   2.799  42.982   9.037
 2161POPC   GL230854   2.714  43.317   8.988
 2161POPC   C1A30855   2.915  42.750   8.672
 2161POPC   D2A30856   3.145  42.808   8.270
 2161POPC   C3A30857   2.887  42.790   7.884
 2161POPC   C4A30858   2.481  43.012   7.828
 2161POPC   C1B30859   2.894  43.247   8.599
 2161POPC   C2B30860   2.750  43.203   8.216
 2161POPC   C3B30861   2.753  43.482   7.869
 2161POPC   C4B30862   2.834  43.667   7.466
 2162POPC   NC330863  43.564   2.843   9.856
 2162POPC   PO430864  42.942   2.700   9.544
 2162POPC   GL130865  43.249   2.809   9.225
 2162POPC   GL230866  43.317   3.094   9.088
 2162POPC   C1A30867  43.431   2.611   8.856
 2162POPC   D2A30868  43.269   2.607   8.431
 2162POPC   C3A30869  43.448   2.514   8.053
 2162POPC   C4A30870  43.206   2.659   7.718
 2162POPC   C1B30871  42.994   2.883   8.790
 2162POPC   C2B30872  42.810   2.838   8.373
 2162POPC   C3B30873  42.781   2.882   7.944
 2162POPC   C4B30874  42.818   2.959   7.473
 2163POPC   NC330875  22.341  19.890   9.595
 2163POPC   PO430876  21.715  19.588   9.393
 2163POPC   GL130877  22.119  19.728   9.144
 2163POPC   GL230878  22.227  20.090   9.133
 2163POPC   C1A30879  22.304  19.812   8.724
 2163POPC   D2A30880  22.316  20.024   8.326
 2163POPC   C3A30881  22.202  19.725   8.002
 2163POPC   C4A30882  22.481  19.590   7.663
 2163POPC   C1B30883  21.882  20.112   8.783
 2163POPC   C2B30884  21.810  19.964   8.335
 2163POPC   C3B30885  21.795  20.135   7.908
 2163POPC   C4B30886  22.180  20.093   7.660
 2164POPC   NC330887  19.959  24.630   9.479
 2164POPC   PO430888  19.554  24.048   9.464
 2164POPC   GL130889  19.722  24.304   9.157
 2164POPC   GL230890  20.080  24.196   9.119
 2164POPC   C1A30891  19.843  24.525   8.769
 2164POPC   D2A30892  19.653  24.777   8.440
 2164POPC   C3A30893  19.660  24.629   8.011
 2164POPC   C4A30894  19.852  24.786   7.633
 2164POPC   C1B30895  20.246  24.098   8.698
 2164POPC   C2B30896  20.104  24.358   8.341
 2164POPC   C3B30897  20.140  24.446   7.882
 2164POPC   C4B30898  20.175  24.417   7.422
 2165POPC   NC330899  37.289  10.058   9.533
 2165POPC   PO430900  36.920   9.357   9.487
 2165POPC   GL130901  37.041   9.581   9.136
 2165POPC   GL230902  37.246   9.850   9.083
 2165POPC   C1A30903  36.838   9.770   8.767
 2165POPC   D2A30904  36.640   9.706   8.365
 2165POPC   C3A30905  36.854   9.566   7.984
 2165POPC   C4A30906  36.598   9.358   7.692
 2165POPC   C1B30907  37.258  10.098   8.731
 2165POPC   C2B30908  36.956  10.192   8.423
 2165POPC   C3B30909  36.793  10.072   8.029
 2165POPC   C4B30910  36.661   9.930   7.638
 2166POPC   NC330911  20.134  33.869   9.437
 2166POPC   PO430912  19.696  33.453   9.686
 2166POPC   GL130913  19.669  33.692   9.275
 2166POPC   GL230914  19.401  33.919   9.230
 2166POPC   C1A30915  19.824  33.762   8.855
 2166POPC   D2A30916  19.931  33.933   8.467
 2166POPC   C3A30917  19.954  33.797   8.080
 2166POPC   C4A30918  20.041  33.998   7.739
 2166POPC   C1B30919  19.331  33.861   8.791
 2166POPC   C2B30920  19.502  33.680   8.441
 2166POPC   C3B30921  19.436  33.829   8.061
 2166POPC   C4B30922  19.587  33.753   7.690
 2167POPC   NC330923  43.474  28.702   9.233
 2167POPC   PO430924  43.958  28.287   9.410
 2167POPC   GL130925  43.881  28.286   9.073
 2167POPC   GL230926  43.956  28.622   9.025
 2167POPC   C1A30927  44.130  28.268   8.730
 2167POPC   D2A30928  44.095  28.488   8.333
 2167POPC   C3A30929  44.062  28.226   7.998
 2167POPC   C4A30930  43.864  28.082   7.629
 2167POPC   C1B30931  43.683  28.537   8.655
 2167POPC   C2B30932  43.591  28.687   8.259
 2167POPC   C3B30933  43.653  28.543   7.854
 2167POPC   C4B30934  43.397  28.582   7.516
 2168POPC   NC330935  35.971  44.339   9.561
 2168POPC   PO430936  36.590  44.430   9.793
 2168POPC   GL130937  36.389  44.416   9.259
 2168POPC   GL230938  35.986  44.503   9.093
 2168POPC   C1A30939  36.345  44.437   8.744
 2168POPC   D2A30940  36.394  44.490   8.256
 2168POPC   C3A30941  36.164  44.638   7.858
 2168POPC   C4A30942  36.257  44.606   7.378
 2168POPC   C1B30943  36.075  44.857   8.801
 2168POPC   C2B30944  36.417  44.939   8.480
 2168POPC   C3B30945  36.611  44.914   8.037
 2168POPC   C4B30946  36.435   0.026   7.621
 2169POPC   NC330947  15.948  19.520   9.496
 2169POPC   PO430948  16.128  20.136   9.658
 2169POPC   GL130949  16.122  20.150   9.214
 2169POPC   GL230950  16.329  19.883   9.132
 2169POPC   C1A30951  16.030  20.131   8.774
 2169POPC   D2A30952  15.989  19.831   8.429
 2169POPC   C3A30953  15.964  20.005   8.049
 2169POPC   C4A30954  16.252  19.996   7.718
 2169POPC   C1B30955  16.100  19.587   8.862
 2169POPC   C2B30956  16.196  19.331   8.492
 2169POPC   C3B30957  16.122  19.454   8.036
 2169POPC   C4B30958  16.248  19.480   7.604
 2170POPC   NC330959  29.220  24.308   9.734
 2170POPC   PO430960  29.212  24.898   9.732
 2170POPC   GL130961  28.982  24.680   9.348
 2170POPC   GL230962  28.888  25.003   9.180
 2170POPC   C1A30963  29.033  24.434   8.906
 2170POPC   D2A30964  29.336  24.258   8.573
 2170POPC   C3A30965  29.274  24.323   8.117
 2170POPC   C4A30966  29.135  24.205   7.693
 2170POPC   C1B30967  28.892  24.898   8.750
 2170POPC   C2B30968  28.988  24.653   8.405
 2170POPC   C3B30969  29.057  24.750   7.961
 2170POPC   C4B30970  29.076  24.649   7.477
 2171POPC   NC330971  40.640   3.191   9.375
 2171POPC   PO430972  40.799   3.880   9.446
 2171POPC   GL130973  40.657   3.654   9.121
 2171POPC   GL230974  40.986   3.721   9.001
 2171POPC   C1A30975  40.664   3.459   8.709
 2171POPC   D2A30976  40.621   3.710   8.336
 2171POPC   C3A30977  40.667   3.637   7.892
 2171POPC   C4A30978  40.839   3.292   7.616
 2171POPC   C1B30979  41.242   3.989   8.804
 2171POPC   C2B30980  41.059   4.160   8.456
 2171POPC   C3B30981  41.019   3.956   8.079
 2171POPC   C4B30982  41.159   3.646   7.781
 2172POPC   NC330983  40.166  19.608   9.577
 2172POPC   PO430984  39.761  20.125   9.649
 2172POPC   GL130985  40.084  19.975   9.238
 2172POPC   GL230986  39.933  19.640   9.114
 2172POPC   C1A30987  40.268  19.841   8.769
 2172POPC   D2A30988  40.073  19.823   8.316
 2172POPC   C3A30989  40.357  19.781   7.914
 2172POPC   C4A30990  40.226  19.837   7.461
 2172POPC   C1B30991  39.877  19.477   8.673
 2172POPC   C2B30992  39.749  19.443   8.223
 2172POPC   C3B30993  39.873  19.658   7.844
 2172POPC   C4B30994  39.749  19.675   7.412
 2173POPC   NC330995  22.264  37.464   9.619
 2173POPC   PO430996  22.126  36.830   9.584
 2173POPC   GL130997  22.019  37.115   9.235
 2173POPC   GL230998  21.827  36.845   9.131
 2173POPC   C1A30999  22.175  37.245   8.799
 2173POPC   D2A31000  22.351  36.968   8.487
 2173POPC   C3A31001  22.234  36.851   8.067
 2173POPC   C4A31002  22.401  36.810   7.608
 2173POPC   C1B31003  21.963  36.643   8.761
 2173POPC   C2B31004  21.923  36.413   8.390
 2173POPC   C3B31005  21.815  36.572   8.028
 2173POPC   C4B31006  21.887  36.782   7.695
 2174POPC   NC331007  23.990  10.466   9.708
 2174POPC   PO431008  24.545  10.650   9.450
 2174POPC   GL131009  24.437  10.685   9.083
 2174POPC   GL231010  24.135  10.544   9.046
 2174POPC   C1A31011  24.359  10.841   8.699
 2174POPC   D2A31012  24.556  10.643   8.370
 2174POPC   C3A31013  24.414  10.625   7.997
 2174POPC   C4A31014  24.644  10.430   7.681
 2174POPC   C1B31015  24.347  10.317   8.706
 2174POPC   C2B31016  24.172  10.198   8.306
 2174POPC   C3B31017  24.165  10.195   7.870
 2174POPC   C4B31018  24.165  10.505   7.531
 2175POPC   NC331019  23.470  43.969   9.472
 2175POPC   PO431020  24.034  43.607   9.351
 2175POPC   GL131021  23.809  43.965   9.108
 2175POPC   GL231022  23.600  43.739   9.029
 2175POPC   C1A31023  23.651  44.114   8.712
 2175POPC   D2A31024  23.715  43.909   8.317
 2175POPC   C3A31025  23.579  44.240   8.007
 2175POPC   C4A31026  23.797  44.361   7.648
 2175POPC   C1B31027  24.006  43.745   8.714
 2175POPC   C2B31028  24.171  43.621   8.328
 2175POPC   C3B31029  23.995  43.635   7.950
 2175POPC   C4B31030  23.636  43.766   7.814
 2176POPC   NC331031  29.788  19.746   9.539
 2176POPC   PO431032  29.521  20.314   9.379
 2176POPC   GL131033  29.749  19.996   9.105
 2176POPC   GL231034  30.116  19.909   9.189
 2176POPC   C1A31035  29.902  19.834   8.726
 2176POPC   D2A31036  30.230  19.752   8.445
 2176POPC   C3A31037  30.011  19.655   8.076
 2176POPC   C4A31038  29.938  19.806   7.666
 2176POPC   C1B31039  30.253  20.176   8.858
 2176POPC   C2B31040  30.328  20.274   8.429
 2176POPC   C3B31041  30.324  20.062   8.027
 2176POPC   C4B31042  30.298  20.203   7.620
 2177POPC   NC331043  43.628  42.858   9.476
 2177POPC   PO431044  44.251  42.941   9.469
 2177POPC   GL131045  44.085  42.790   9.100
 2177POPC   GL231046  43.735  42.688   9.029
 2177POPC   C1A31047  44.072  42.955   8.696
 2177POPC   D2A31048  44.183  42.949   8.273
 2177POPC   C3A31049  43.959  43.266   8.042
 2177POPC   C4A31050  44.102  43.310   7.638
 2177POPC   C1B31051  43.557  42.882   8.733
 2177POPC   C2B31052  43.298  42.780   8.431
 2177POPC   C3B31053  43.438  42.779   8.016
 2177POPC   C4B31054  43.836  42.827   7.824
 2178POPC   NC331055  41.972   6.980   9.480
 2178POPC   PO431056  41.697   6.374   9.569
 2178POPC   GL131057  41.665   6.364   9.157
 2178POPC   GL231058  41.390   6.558   9.119
 2178POPC   C1A31059  41.864   6.250   8.783
 2178POPC   D2A31060  41.884   6.317   8.344
 2178POPC   C3A31061  41.839   6.586   7.970
 2178POPC   C4A31062  41.423   6.457   7.837
 2178POPC   C1B31063  41.478   6.581   8.692
 2178POPC   C2B31064  41.598   6.825   8.352
 2178POPC   C3B31065  41.456   6.965   7.955
 2178POPC   C4B31066  41.720   7.062   7.642
 2179POPC   NC331067  11.203  20.109   9.505
 2179POPC   PO431068  11.506  19.630   9.553
 2179POPC   GL131069  11.327  19.789   9.138
 2179POPC   GL231070  10.996  19.958   9.036
 2179POPC   C1A31071  11.454  19.886   8.714
 2179POPC   D2A31072  11.746  20.094   8.427
 2179POPC   C3A31073  11.640  20.038   7.983
 2179POPC   C4A31074  11.345  19.894   7.698
 2179POPC   C1B31075  10.879  19.695   8.663
 2179POPC   C2B31076  10.890  19.688   8.195
 2179POPC   C3B31077  10.825  19.789   7.768
 2179POPC   C4B31078  10.627  19.762   7.362
 2180POPC   NC331079  44.933  23.090   9.484
 2180POPC   PO431080  44.358  23.448   9.518
 2180POPC   GL131081  44.522  23.183   9.153
 2180POPC   GL231082  44.899  23.147   8.994
 2180POPC   C1A31083  44.508  22.922   8.776
 2180POPC   D2A31084  44.696  22.987   8.378
 2180POPC   C3A31085  44.564  22.752   8.013
 2180POPC   C4A31086  44.646  23.036   7.686
 2180POPC   C1B31087  44.986  22.711   8.797
 2180POPC   C2B31088  44.935  22.549   8.351
 2180POPC   C3B31089   0.050  22.734   7.894
 2180POPC   C4B31090  44.971  22.780   7.410
 2181POPC   NC331091  12.564  19.789   9.480
 2181POPC   PO431092  13.213  19.668   9.434
 2181POPC   GL131093  12.979  19.834   9.120
 2181POPC   GL231094  12.719  19.574   9.068
 2181POPC   C1A31095  12.782  19.967   8.742
 2181POPC   D2A31096  12.616  19.730   8.391
 2181POPC   C3A31097  12.853  19.895   8.069
 2181POPC   C4A31098  12.786  20.092   7.707
 2181POPC   C1B31099  12.837  19.370   8.719
 2181POPC   C2B31100  12.875  19.267   8.305
 2181POPC   C3B31101  12.706  19.421   7.945
 2181POPC   C4B31102  12.785  19.590   7.550
 2182POPC   NC331103  32.775  26.179   9.566
 2182POPC   PO431104  33.077  25.570   9.369
 2182POPC   GL131105  32.901  25.918   9.117
 2182POPC   GL231106  33.116  26.239   9.121
 2182POPC   C1A31107  32.887  26.092   8.678
 2182POPC   D2A31108  33.213  26.254   8.355
 2182POPC   C3A31109  32.965  26.211   7.988
 2182POPC   C4A31110  32.726  25.857   7.861
 2182POPC   C1B31111  33.329  25.906   8.813
 2182POPC   C2B31112  33.229  25.736   8.382
 2182POPC   C3B31113  33.239  25.787   7.926
 2182POPC   C4B31114  33.361  25.694   7.494
 2183POPC   NC331115  39.327  20.132   9.486
 2183POPC   PO431116  39.474  19.448   9.352
 2183POPC   GL131117  39.415  19.834   9.073
 2183POPC   GL231118  39.646  20.187   9.122
 2183POPC   C1A31119  39.112  19.893   8.736
 2183POPC   D2A31120  38.828  19.927   8.372
 2183POPC   C3A31121  39.053  19.973   7.961
 2183POPC   C4A31122  39.161  19.929   7.526
 2183POPC   C1B31123  39.793  20.013   8.792
 2183POPC   C2B31124  39.584  19.870   8.498
 2183POPC   C3B31125  39.575  19.964   8.101
 2183POPC   C4B31126  39.651  20.118   7.710
 2184POPC   NC331127  33.840  24.743   9.832
 2184POPC   PO431128  34.124  24.477   9.304
 2184POPC   GL131129  33.821  24.482   9.049
 2184POPC   GL231130  33.926  24.802   8.945
 2184POPC   C1A31131  33.858  24.328   8.652
 2184POPC   D2A31132  33.754  24.384   8.241
 2184POPC   C3A31133  34.051  24.552   7.974
 2184POPC   C4A31134  33.943  24.188   7.737
 2184POPC   C1B31135  33.569  24.873   8.701
 2184POPC   C2B31136  33.711  24.906   8.305
 2184POPC   C3B31137  33.572  24.801   7.940
 2184POPC   C4B31138  33.816  24.813   7.595
 2185POPC   NC331139  34.320  29.242   9.519
 2185POPC   PO431140  34.751  28.781   9.423
 2185POPC   GL131141  34.621  29.087   9.127
 2185POPC   GL231142  34.278  28.986   9.031
 2185POPC   C1A31143  34.542  29.448   8.858
 2185POPC   D2A31144  34.381  29.506   8.430
 2185POPC   C3A31145  34.537  29.225   8.094
 2185POPC   C4A31146  34.424  29.186   7.665
 2185POPC   C1B31147  34.467  29.019   8.616
 2185POPC   C2B31148  34.847  28.842   8.479
 2185POPC   C3B31149  35.012  28.736   8.118
 2185POPC   C4B31150  34.773  28.824   7.781
 2186POPC   NC331151  29.823  23.650   9.501
 2186POPC   PO431152  29.830  24.219   9.161
 2186POPC   GL131153  29.831  23.971   8.866
 2186POPC   GL231154  30.032  23.747   9.052
 2186POPC   C1A31155  30.129  23.879   8.570
 2186POPC   D2A31156  30.344  23.948   8.214
 2186POPC   C3A31157  30.079  23.678   7.965
 2186POPC   C4A31158  29.885  23.621   7.561
 2186POPC   C1B31159  29.891  23.454   8.796
 2186POPC   C2B31160  29.825  23.419   8.381
 2186POPC   C3B31161  29.956  23.191   8.049
 2186POPC   C4B31162  29.779  23.116   7.695
 2187POPC   NC331163   8.823   3.092   9.535
 2187POPC   PO431164   9.093   3.753   9.503
 2187POPC   GL131165   9.037   3.464   9.204
 2187POPC   GL231166   9.306   3.595   9.040
 2187POPC   C1A31167   8.844   3.343   8.840
 2187POPC   D2A31168   8.713   3.293   8.415
 2187POPC   C3A31169   8.824   3.381   8.035
 2187POPC   C4A31170   8.734   3.733   7.791
 2187POPC   C1B31171   9.170   3.713   8.653
 2187POPC   C2B31172   9.070   3.777   8.245
 2187POPC   C3B31173   9.244   3.604   7.897
 2187POPC   C4B31174   9.581   3.605   7.696
 2188POPC   NC331175  19.646  36.721   9.563
 2188POPC   PO431176  20.263  36.973   9.511
 2188POPC   GL131177  20.059  37.083   9.132
 2188POPC   GL231178  19.699  37.068   9.194
 2188POPC   C1A31179  19.911  36.848   8.762
 2188POPC   D2A31180  19.819  36.728   8.336
 2188POPC   C3A31181  20.010  36.985   8.043
 2188POPC   C4A31182  20.123  36.848   7.697
 2188POPC   C1B31183  19.553  37.217   8.815
 2188POPC   C2B31184  19.695  37.229   8.395
 2188POPC   C3B31185  19.509  37.040   8.041
 2188POPC   C4B31186  19.654  37.137   7.664
 2189POPC   NC331187  12.181  31.565  10.014
 2189POPC   PO431188  12.052  31.130   9.515
 2189POPC   GL131189  12.047  31.314   9.098
 2189POPC   GL231190  12.053  31.691   9.068
 2189POPC   C1A31191  12.196  31.388   8.671
 2189POPC   D2A31192  12.345  31.316   8.274
 2189POPC   C3A31193  12.157  31.403   7.902
 2189POPC   C4A31194  11.811  31.122   7.796
 2189POPC   C1B31195  11.978  31.862   8.650
 2189POPC   C2B31196  12.112  31.782   8.248
 2189POPC   C3B31197  12.012  31.933   7.844
 2189POPC   C4B31198  11.999  32.142   7.428
 2190POPC   NC331199  41.906  10.079   9.423
 2190POPC   PO431200  41.452  10.511   9.742
 2190POPC   GL131201  41.527  10.453   9.301
 2190POPC   GL231202  41.826  10.509   9.121
 2190POPC   C1A31203  41.395  10.444   8.838
 2190POPC   D2A31204  41.583  10.489   8.426
 2190POPC   C3A31205  41.553  10.518   7.983
 2190POPC   C4A31206  41.790  10.309   7.692
 2190POPC   C1B31207  41.788  10.807   8.769
 2190POPC   C2B31208  41.935  10.863   8.321
 2190POPC   C3B31209  42.036  10.707   7.887
 2190POPC   C4B31210  42.133  10.908   7.461
 2191POPC   NC331211  31.720  25.120   9.481
 2191POPC   PO431212  31.193  25.546   9.539
 2191POPC   GL131213  31.421  25.333   9.126
 2191POPC   GL231214  31.297  24.982   9.173
 2191POPC   C1A31215  31.577  25.263   8.664
 2191POPC   D2A31216  31.781  25.549   8.320
 2191POPC   C3A31217  31.587  25.684   7.944
 2191POPC   C4A31218  31.238  25.509   7.795
 2191POPC   C1B31219  31.035  24.980   8.801
 2191POPC   C2B31220  31.251  24.963   8.419
 2191POPC   C3B31221  31.519  25.136   8.096
 2191POPC   C4B31222  31.319  25.000   7.732
 2192POPC   NC331223  29.036  23.588   9.330
 2192POPC   PO431224  29.479  23.971   9.577
 2192POPC   GL131225  29.344  23.973   9.139
 2192POPC   GL231226  29.494  23.656   9.088
 2192POPC   C1A31227  28.987  23.937   8.796
 2192POPC   D2A31228  28.866  24.096   8.382
 2192POPC   C3A31229  29.085  23.850   8.053
 2192POPC   C4A31230  28.987  23.717   7.635
 2192POPC   C1B31231  29.416  23.684   8.640
 2192POPC   C2B31232  29.320  23.422   8.259
 2192POPC   C3B31233  29.461  23.536   7.838
 2192POPC   C4B31234  29.418  23.783   7.405
 2193POPC   NC331235  32.138  35.564   9.616
 2193POPC   PO431236  32.786  35.604   9.281
 2193POPC   GL131237  32.543  35.361   9.047
 2193POPC   GL231238  32.278  35.303   9.204
 2193POPC   C1A31239  32.328  35.236   8.690
 2193POPC   D2A31240  32.302  35.005   8.326
 2193POPC   C3A31241  32.347  35.263   7.962
 2193POPC   C4A31242  32.390  35.651   7.805
 2193POPC   C1B31243  32.033  35.560   8.953
 2193POPC   C2B31244  31.931  35.600   8.553
 2193POPC   C3B31245  31.969  35.602   8.131
 2193POPC   C4B31246  31.880  35.351   7.754
 2194POPC   NC331247  28.864   4.103   9.658
 2194POPC   PO431248  29.014   3.403   9.591
 2194POPC   GL131249  29.048   3.614   9.199
 2194POPC   GL231250  28.862   3.912   9.183
 2194POPC   C1A31251  29.151   3.502   8.776
 2194POPC   D2A31252  29.188   3.700   8.352
 2194POPC   C3A31253  29.288   3.445   7.984
 2194POPC   C4A31254  29.182   3.547   7.579
 2194POPC   C1B31255  28.751   3.803   8.786
 2194POPC   C2B31256  28.717   3.547   8.450
 2194POPC   C3B31257  28.809   3.631   8.015
 2194POPC   C4B31258  28.653   3.587   7.598
 2195POPC   NC331259  11.288  18.627   9.451
 2195POPC   PO431260  11.341  17.960   9.560
 2195POPC   GL131261  11.199  18.144   9.147
 2195POPC   GL231262  10.996  18.444   9.053
 2195POPC   C1A31263  11.151  18.088   8.694
 2195POPC   D2A31264  11.368  18.291   8.350
 2195POPC   C3A31265  11.090  18.492   8.063
 2195POPC   C4A31266  11.042  18.267   7.702
 2195POPC   C1B31267  11.442  18.485   8.848
 2195POPC   C2B31268  11.754  18.577   8.551
 2195POPC   C3B31269  11.706  18.637   8.132
 2195POPC   C4B31270  11.492  18.504   7.748
 2196POPC   NC331271  38.007  23.835   9.406
 2196POPC   PO431272  38.729  23.947   9.518
 2196POPC   GL131273  38.495  23.790   9.170
 2196POPC   GL231274  38.235  23.939   8.956
 2196POPC   C1A31275  38.593  23.630   8.768
 2196POPC   D2A31276  38.525  23.770   8.369
 2196POPC   C3A31277  38.720  23.589   8.030
 2196POPC   C4A31278  38.595  23.489   7.621
 2196POPC   C1B31279  38.094  23.596   8.669
 2196POPC   C2B31280  38.104  23.480   8.242
 2196POPC   C3B31281  38.220  23.744   7.904
 2196POPC   C4B31282  38.216  23.777   7.419
 2197POPC   NC331283   9.919  14.682   9.368
 2197POPC   PO431284   9.281  14.468   9.328
 2197POPC   GL131285   9.622  14.274   9.117
 2197POPC   GL231286   9.972  14.185   9.195
 2197POPC   C1A31287   9.839  14.425   8.745
 2197POPC   D2A31288  10.013  14.697   8.406
 2197POPC   C3A31289   9.950  14.493   8.034
 2197POPC   C4A31290   9.678  14.527   7.700
 2197POPC   C1B31291  10.125  13.990   8.837
 2197POPC   C2B31292  10.084  14.109   8.415
 2197POPC   C3B31293  10.061  13.992   8.037
 2197POPC   C4B31294  10.131  14.170   7.635
 2198POPC   NC331295   2.832  19.696   9.523
 2198POPC   PO431296   2.726  19.064   9.488
 2198POPC   GL131297   2.793  19.285   9.121
 2198POPC   GL231298   2.501  19.469   9.170
 2198POPC   C1A31299   2.910  19.069   8.731
 2198POPC   D2A31300   3.087  19.177   8.320
 2198POPC   C3A31301   2.895  18.864   8.065
 2198POPC   C4A31302   2.784  18.864   7.666
 2198POPC   C1B31303   2.490  19.388   8.717
 2198POPC   C2B31304   2.573  19.159   8.337
 2198POPC   C3B31305   2.676  19.318   7.916
 2198POPC   C4B31306   2.390  19.260   7.584
 2199POPC   NC331307  43.487  38.609   9.608
 2199POPC   PO431308  44.053  38.401   9.457
 2199POPC   GL131309  43.720  38.529   9.164
 2199POPC   GL231310  43.556  38.869   9.165
 2199POPC   C1A31311  43.721  38.345   8.770
 2199POPC   D2A31312  44.068  38.410   8.491
 2199POPC   C3A31313  43.910  38.344   8.098
 2199POPC   C4A31314  43.960  38.515   7.736
 2199POPC   C1B31315  43.745  38.849   8.749
 2199POPC   C2B31316  43.604  38.679   8.365
 2199POPC   C3B31317  43.670  38.843   7.970
 2199POPC   C4B31318  43.560  38.803   7.523
 2200POPC   NC331319  20.586  43.587   9.415
 2200POPC   PO431320  20.656  44.253   9.622
 2200POPC   GL131321  20.726  44.061   9.208
 2200POPC   GL231322  21.009  43.835   9.232
 2200POPC   C1A31323  20.581  44.117   8.762
 2200POPC   D2A31324  20.795  44.045   8.366
 2200POPC   C3A31325  20.594  44.055   7.978
 2200POPC   C4A31326  20.725  44.005   7.553
 2200POPC   C1B31327  20.896  43.740   8.793
 2200POPC   C2B31328  20.936  43.525   8.380
 2200POPC   C3B31329  20.835  43.606   7.964
 2200POPC   C4B31330  20.468  43.582   7.720
 2201POPC   NC331331  11.775  44.284   9.387
 2201POPC   PO431332  11.694   0.038   9.436
 2201POPC   GL131333  11.899  44.788   9.104
 2201POPC   GL231334  12.190  44.585   9.154
 2201POPC   C1A31335  11.962  44.543   8.706
 2201POPC   D2A31336  11.737  44.446   8.317
 2201POPC   C3A31337  11.967  44.580   7.932
 2201POPC   C4A31338  12.069  44.948   7.666
 2201POPC   C1B31339  12.486  44.470   8.818
 2201POPC   C2B31340  12.395  44.354   8.386
 2201POPC   C3B31341  12.473  44.538   8.004
 2201POPC   C4B31342  12.462  44.637   7.584
 2202POPC   NC331343  19.775  32.953   9.617
 2202POPC   PO431344  20.459  33.065   9.489
 2202POPC   GL131345  20.097  33.094   9.205
 2202POPC   GL231346  19.896  32.796   9.124
 2202POPC   C1A31347  19.966  33.286   8.816
 2202POPC   D2A31348  20.077  33.403   8.381
 2202POPC   C3A31349  19.794  33.322   8.008
 2202POPC   C4A31350  19.575  32.945   7.803
 2202POPC   C1B31351  20.080  32.818   8.718
 2202POPC   C2B31352  19.897  32.892   8.291
 2202POPC   C3B31353  20.104  32.953   7.867
 2202POPC   C4B31354  19.967  32.896   7.433
 2203POPC   NC331355  44.957  20.831   9.603
 2203POPC   PO431356   0.484  20.360   9.457
 2203POPC   GL131357   0.415  20.584   9.085
 2203POPC   GL231358   0.092  20.725   9.121
 2203POPC   C1A31359   0.625  20.661   8.657
 2203POPC   D2A31360   0.786  20.419   8.281
 2203POPC   C3A31361   0.587  20.519   7.900
 2203POPC   C4A31362   0.512  20.894   7.773
 2203POPC   C1B31363   0.108  20.627   8.680
 2203POPC   C2B31364   0.236  20.687   8.253
 2203POPC   C3B31365   0.073  20.588   7.846
 2203POPC   C4B31366   0.284  20.551   7.455
 2204POPC   NC331367  43.848  31.780  10.072
 2204POPC   PO431368  43.525  31.392   9.588
 2204POPC   GL131369  43.614  31.583   9.161
 2204POPC   GL231370  43.858  31.345   9.065
 2204POPC   C1A31371  43.782  31.723   8.723
 2204POPC   D2A31372  44.102  31.724   8.380
 2204POPC   C3A31373  44.076  31.887   7.947
 2204POPC   C4A31374  43.984  31.727   7.562
 2204POPC   C1B31375  43.988  31.260   8.651
 2204POPC   C2B31376  43.758  31.319   8.295
 2204POPC   C3B31377  43.673  31.565   7.959
 2204POPC   C4B31378  43.535  31.467   7.529
 2205POPC   NC331379  14.396   3.725   9.443
 2205POPC   PO431380  14.612   3.082   9.503
 2205POPC   GL131381  14.487   3.312   9.133
 2205POPC   GL231382  14.097   3.464   9.138
 2205POPC   C1A31383  14.554   3.561   8.736
 2205POPC   D2A31384  14.194   3.712   8.498
 2205POPC   C3A31385  14.233   3.799   8.058
 2205POPC   C4A31386  14.566   3.702   7.798
 2205POPC   C1B31387  14.145   3.254   8.772
 2205POPC   C2B31388  14.382   3.121   8.412
 2205POPC   C3B31389  14.331   3.229   7.979
 2205POPC   C4B31390  14.277   3.350   7.548
 2206POPC   NC331391  34.804  24.591   9.616
 2206POPC   PO431392  34.269  24.859   9.708
 2206POPC   GL131393  34.550  24.683   9.208
 2206POPC   GL231394  34.654  24.317   9.199
 2206POPC   C1A31395  34.660  24.592   8.736
 2206POPC   D2A31396  34.485  24.592   8.291
 2206POPC   C3A31397  34.618  24.573   7.829
 2206POPC   C4A31398  34.636  24.771   7.385
 2206POPC   C1B31399  34.487  24.110   8.830
 2206POPC   C2B31400  34.271  24.115   8.428
 2206POPC   C3B31401  34.375  24.150   8.022
 2206POPC   C4B31402  34.431  24.117   7.624
 2207POPC   NC331403   9.025  21.113   9.588
 2207POPC   PO431404   9.065  21.823   9.589
 2207POPC   GL131405   8.941  21.545   9.187
 2207POPC   GL231406   8.975  21.166   9.105
 2207POPC   C1A31407   8.929  21.448   8.704
 2207POPC   D2A31408   9.056  21.520   8.294
 2207POPC   C3A31409   8.971  21.230   7.964
 2207POPC   C4A31410   9.051  21.481   7.663
 2207POPC   C1B31411   9.247  20.988   8.817
 2207POPC   C2B31412   9.235  21.034   8.379
 2207POPC   C3B31413   9.289  20.828   7.966
 2207POPC   C4B31414   9.349  20.858   7.524
 2208POPC   NC331415  15.395   7.270   9.440
 2208POPC   PO431416  14.908   7.772   9.504
 2208POPC   GL131417  15.014   7.518   9.167
 2208POPC   GL231418  15.324   7.633   9.066
 2208POPC   C1A31419  15.088   7.256   8.804
 2208POPC   D2A31420  15.312   7.187   8.426
 2208POPC   C3A31421  15.114   7.263   8.028
 2208POPC   C4A31422  14.931   7.107   7.655
 2208POPC   C1B31423  15.548   7.621   8.677
 2208POPC   C2B31424  15.767   7.732   8.294
 2208POPC   C3B31425  15.578   7.815   7.905
 2208POPC   C4B31426  15.370   7.496   7.632
 2209POPC   NC331427  13.608   7.492   9.733
 2209POPC   PO431428  14.006   7.514   9.158
 2209POPC   GL131429  13.678   7.571   8.924
 2209POPC   GL231430  13.351   7.526   9.067
 2209POPC   C1A31431  13.725   7.369   8.560
 2209POPC   D2A31432  14.042   7.615   8.372
 2209POPC   C3A31433  13.833   7.597   7.998
 2209POPC   C4A31434  13.867   7.261   7.656
 2209POPC   C1B31435  13.284   7.638   8.627
 2209POPC   C2B31436  13.321   7.423   8.224
 2209POPC   C3B31437  13.396   7.379   7.797
 2209POPC   C4B31438  13.503   7.540   7.364
 2210POPC   NC331439  37.483  23.731   9.664
 2210POPC   PO431440  37.962  23.374   9.274
 2210POPC   GL131441  37.695  23.632   9.016
 2210POPC   GL231442  37.348  23.744   9.034
 2210POPC   C1A31443  37.476  23.429   8.645
 2210POPC   D2A31444  37.375  23.526   8.232
 2210POPC   C3A31445  37.718  23.756   8.075
 2210POPC   C4A31446  37.803  23.914   7.671
 2210POPC   C1B31447  37.120  23.792   8.642
 2210POPC   C2B31448  37.154  24.000   8.245
 2210POPC   C3B31449  37.328  23.965   7.853
 2210POPC   C4B31450  37.371  23.529   7.705
 2211POPC   NC331451  39.504   1.875   9.325
 2211POPC   PO431452  39.753   2.486   9.444
 2211POPC   GL131453  39.388   2.340   9.202
 2211POPC   GL231454  39.064   2.156   9.219
 2211POPC   C1A31455  39.251   2.441   8.812
 2211POPC   D2A31456  39.375   2.259   8.459
 2211POPC   C3A31457  39.192   2.215   8.105
 2211POPC   C4A31458  39.118   2.255   7.674
 2211POPC   C1B31459  39.155   1.925   8.797
 2211POPC   C2B31460  39.272   1.762   8.363
 2211POPC   C3B31461  39.298   1.788   7.868
 2211POPC   C4B31462  39.136   1.822   7.397
 2212POPC   NC331463  26.901  10.990   9.623
 2212POPC   PO431464  26.479  10.484   9.738
 2212POPC   GL131465  26.606  10.568   9.231
 2212POPC   GL231466  26.822  10.794   9.161
 2212POPC   C1A31467  26.895  10.451   8.803
 2212POPC   D2A31468  27.093  10.543   8.375
 2212POPC   C3A31469  26.889  10.485   7.988
 2212POPC   C4A31470  26.582  10.429   7.681
 2212POPC   C1B31471  26.530  10.784   8.786
 2212POPC   C2B31472  26.541  10.699   8.338
 2212POPC   C3B31473  26.551  10.875   7.927
 2212POPC   C4B31474  26.919  10.851   7.617
 2213POPC   NC331475   6.052   9.974   9.546
 2213POPC   PO431476   6.236   9.399   9.275
 2213POPC   GL131477   6.028   9.709   9.075
 2213POPC   GL231478   5.740   9.649   9.236
 2213POPC   C1A31479   6.015   9.745   8.648
 2213POPC   D2A31480   6.343   9.733   8.359
 2213POPC   C3A31481   6.087   9.818   8.005
 2213POPC   C4A31482   5.952   9.592   7.657
 2213POPC   C1B31483   5.602   9.494   8.843
 2213POPC   C2B31484   5.616   9.438   8.428
 2213POPC   C3B31485   5.609   9.626   8.044
 2213POPC   C4B31486   5.513   9.813   7.649
 2214POPC   NC331487  17.846  40.941   9.515
 2214POPC   PO431488  17.143  40.968   9.321
 2214POPC   GL131489  17.520  40.893   9.117
 2214POPC   GL231490  17.500  40.541   9.083
 2214POPC   C1A31491  17.639  40.859   8.689
 2214POPC   D2A31492  17.403  40.864   8.312
 2214POPC   C3A31493  17.634  40.886   7.935
 2214POPC   C4A31494  17.698  41.256   7.730
 2214POPC   C1B31495  17.341  40.435   8.652
 2214POPC   C2B31496  17.523  40.370   8.213
 2214POPC   C3B31497  17.571  40.399   7.746
 2214POPC   C4B31498  17.398  40.514   7.260
 2215POPC   NC331499  16.600  42.974   9.400
 2215POPC   PO431500  16.919  43.552   9.365
 2215POPC   GL131501  16.819  43.309   9.049
 2215POPC   GL231502  16.447  43.308   9.038
 2215POPC   C1A31503  16.737  43.140   8.668
 2215POPC   D2A31504  16.415  43.235   8.434
 2215POPC   C3A31505  16.658  43.286   8.072
 2215POPC   C4A31506  16.920  43.032   7.843
 2215POPC   C1B31507  16.311  42.894   8.822
 2215POPC   C2B31508  16.374  42.682   8.426
 2215POPC   C3B31509  16.418  42.825   8.029
 2215POPC   C4B31510  16.417  43.087   7.671
 2216POPC   NC331511  11.823  18.043   9.615
 2216POPC   PO431512  12.484  18.369   9.425
 2216POPC   GL131513  12.148  18.347   9.167
 2216POPC   GL231514  12.050  17.994   9.174
 2216POPC   C1A31515  12.224  18.418   8.742
 2216POPC   D2A31516  12.355  18.632   8.379
 2216POPC   C3A31517  12.206  18.435   8.045
 2216POPC   C4A31518  11.986  18.539   7.718
 2216POPC   C1B31519  11.813  18.107   8.831
 2216POPC   C2B31520  11.931  18.138   8.413
 2216POPC   C3B31521  11.783  18.148   8.048
 2216POPC   C4B31522  11.999  18.004   7.721
 2217POPC   NC331523  27.063  13.340  10.085
 2217POPC   PO431524  26.697  13.016   9.617
 2217POPC   GL131525  26.768  12.896   9.209
 2217POPC   GL231526  27.082  12.926   9.171
 2217POPC   C1A31527  26.629  12.673   8.839
 2217POPC   D2A31528  26.714  12.835   8.445
 2217POPC   C3A31529  26.591  12.622   8.085
 2217POPC   C4A31530  26.853  12.627   7.758
 2217POPC   C1B31531  26.976  13.161   8.807
 2217POPC   C2B31532  27.145  13.133   8.405
 2217POPC   C3B31533  26.943  13.045   8.031
 2217POPC   C4B31534  26.933  13.123   7.589
 2218POPC   NC331535   3.338  38.748   9.457
 2218POPC   PO431536   3.471  38.184   9.312
 2218POPC   GL131537   3.580  38.474   9.042
 2218POPC   GL231538   3.275  38.620   8.968
 2218POPC   C1A31539   3.583  38.428   8.610
 2218POPC   D2A31540   3.781  38.762   8.404
 2218POPC   C3A31541   3.868  38.636   7.983
 2218POPC   C4A31542   3.587  38.460   7.668
 2218POPC   C1B31543   3.289  38.835   8.567
 2218POPC   C2B31544   3.356  38.592   8.178
 2218POPC   C3B31545   3.141  38.336   7.885
 2218POPC   C4B31546   3.158  38.733   7.697
 2219POPC   NC331547  34.907  38.698   9.528
 2219POPC   PO431548  35.541  38.622   9.533
 2219POPC   GL131549  35.314  38.651   9.177
 2219POPC   GL231550  35.508  38.383   9.034
 2219POPC   C1A31551  35.139  38.625   8.755
 2219POPC   D2A31552  35.352  38.488   8.399
 2219POPC   C3A31553  35.220  38.670   8.030
 2219POPC   C4A31554  35.150  38.495   7.633
 2219POPC   C1B31555  35.263  38.109   8.805
 2219POPC   C2B31556  35.149  38.005   8.401
 2219POPC   C3B31557  35.219  38.149   8.012
 2219POPC   C4B31558  35.597  38.322   7.862
 2220POPC   NC331559  12.722  14.105   9.507
 2220POPC   PO431560  12.896  14.712   9.512
 2220POPC   GL131561  12.747  14.484   9.166
 2220POPC   GL231562  12.969  14.190   9.088
 2220POPC   C1A31563  12.672  14.673   8.806
 2220POPC   D2A31564  12.906  14.632   8.481
 2220POPC   C3A31565  12.649  14.592   8.162
 2220POPC   C4A31566  12.617  14.648   7.755
 2220POPC   C1B31567  12.820  14.183   8.694
 2220POPC   C2B31568  12.593  14.081   8.339
 2220POPC   C3B31569  12.798  14.129   7.977
 2220POPC   C4B31570  12.894  13.879   7.655
 2221POPC   NC331571  34.358  28.558   9.347
 2221POPC   PO431572  34.598  28.054   9.733
 2221POPC   GL131573  34.502  28.091   9.274
 2221POPC   GL231574  34.709  28.305   9.083
 2221POPC   C1A31575  34.255  28.113   8.861
 2221POPC   D2A31576  34.403  28.090   8.449
 2221POPC   C3A31577  34.616  28.399   8.186
 2221POPC   C4A31578  34.541  28.389   7.738
 2221POPC   C1B31579  34.520  28.521   8.717
 2221POPC   C2B31580  34.221  28.628   8.382
 2221POPC   C3B31581  34.296  28.775   7.954
 2221POPC   C4B31582  34.328  28.724   7.448
 2222POPC   NC331583  23.621  20.928   9.802
 2222POPC   PO431584  23.601  20.408   9.272
 2222POPC   GL131585  23.807  20.504   8.980
 2222POPC   GL231586  23.773  20.813   8.994
 2222POPC   C1A31587  23.787  20.349   8.597
 2222POPC   D2A31588  23.536  20.151   8.324
 2222POPC   C3A31589  23.700  20.240   7.928
 2222POPC   C4A31590  23.946  20.576   7.760
 2222POPC   C1B31591  23.715  20.851   8.587
 2222POPC   C2B31592  23.400  20.722   8.381
 2222POPC   C3B31593  23.342  20.565   8.043
 2222POPC   C4B31594  23.454  20.698   7.700
 2223POPC   NC331595  29.132  10.412   9.530
 2223POPC   PO431596  29.211  10.910   9.272
 2223POPC   GL131597  29.132  10.513   9.016
 2223POPC   GL231598  28.899  10.220   9.104
 2223POPC   C1A31599  29.088  10.325   8.591
 2223POPC   D2A31600  28.881  10.190   8.205
 2223POPC   C3A31601  29.053  10.399   7.827
 2223POPC   C4A31602  29.244  10.545   7.416
 2223POPC   C1B31603  29.281  10.010   8.947
 2223POPC   C2B31604  29.484   9.985   8.521
 2223POPC   C3B31605  29.355  10.003   8.065
 2223POPC   C4B31606  29.388  10.087   7.587
 2224POPC   NC331607  37.437   2.989   9.887
 2224POPC   PO431608  37.938   2.896   9.761
 2224POPC   GL131609  38.084   2.865   9.314
 2224POPC   GL231610  38.043   2.508   9.202
 2224POPC   C1A31611  37.986   2.907   8.859
 2224POPC   D2A31612  37.954   2.766   8.408
 2224POPC   C3A31613  37.758   2.968   8.067
 2224POPC   C4A31614  37.949   2.970   7.685
 2224POPC   C1B31615  38.008   2.393   8.747
 2224POPC   C2B31616  37.940   2.257   8.284
 2224POPC   C3B31617  37.903   2.499   7.880
 2224POPC   C4B31618  37.864   2.553   7.405
 2225POPC   NC331619   0.699  37.500   9.462
 2225POPC   PO431620   0.228  37.953   9.515
 2225POPC   GL131621   0.286  37.653   9.158
 2225POPC   GL231622   0.632  37.726   9.034
 2225POPC   C1A31623   0.382  37.431   8.734
 2225POPC   D2A31624   0.393  37.701   8.371
 2225POPC   C3A31625   0.303  37.572   7.945
 2225POPC   C4A31626   0.601  37.796   7.702
 2225POPC   C1B31627   0.922  37.496   8.804
 2225POPC   C2B31628   0.882  37.294   8.437
 2225POPC   C3B31629   0.758  37.348   8.028
 2225POPC   C4B31630   1.019  37.510   7.728
 2226POPC   NC331631  27.318  43.195   9.629
 2226POPC   PO431632  27.921  43.001   9.550
 2226POPC   GL131633  27.789  42.960   9.148
 2226POPC   GL231634  27.440  42.940   9.187
 2226POPC   C1A31635  27.883  43.033   8.716
 2226POPC   D2A31636  27.699  42.947   8.306
 2226POPC   C3A31637  27.818  43.082   7.901
 2226POPC   C4A31638  27.494  42.954   7.643
 2226POPC   C1B31639  27.467  43.287   8.900
 2226POPC   C2B31640  27.432  43.363   8.485
 2226POPC   C3B31641  27.304  43.212   8.067
 2226POPC   C4B31642  27.242  43.403   7.662
 2227POPC   NC331643  37.205   6.291   9.538
 2227POPC   PO431644  36.665   5.894   9.588
 2227POPC   GL131645  36.813   5.861   9.159
 2227POPC   GL231646  37.168   5.943   9.153
 2227POPC   C1A31647  36.919   5.898   8.712
 2227POPC   D2A31648  36.774   5.926   8.289
 2227POPC   C3A31649  36.864   5.543   8.070
 2227POPC   C4A31650  36.816   5.479   7.629
 2227POPC   C1B31651  37.295   6.264   8.839
 2227POPC   C2B31652  37.335   6.361   8.387
 2227POPC   C3B31653  37.312   6.159   7.973
 2227POPC   C4B31654  36.958   5.957   7.801
 2228POPC   NC331655  42.718  35.156   9.426
 2228POPC   PO431656  43.241  35.630   9.499
 2228POPC   GL131657  43.046  35.448   9.162
 2228POPC   GL231658  42.776  35.652   9.082
 2228POPC   C1A31659  43.055  35.166   8.781
 2228POPC   D2A31660  43.306  35.209   8.410
 2228POPC   C3A31661  43.103  35.194   8.006
 2228POPC   C4A31662  43.289  35.188   7.615
 2228POPC   C1B31663  42.979  35.643   8.710
 2228POPC   C2B31664  42.811  35.419   8.375
 2228POPC   C3B31665  42.736  35.599   7.974
 2228POPC   C4B31666  43.111  35.657   7.751
 2229POPC   NC331667  39.628  29.941   9.504
 2229POPC   PO431668  40.226  29.649   9.446
 2229POPC   GL131669  40.076  29.888   9.085
 2229POPC   GL231670  39.802  30.097   9.071
 2229POPC   C1A31671  40.053  29.977   8.646
 2229POPC   D2A31672  40.131  29.916   8.236
 2229POPC   C3A31673  39.883  29.644   8.024
 2229POPC   C4A31674  40.027  29.693   7.605
 2229POPC   C1B31675  39.613  30.315   8.764
 2229POPC   C2B31676  39.450  30.214   8.384
 2229POPC   C3B31677  39.545  30.229   7.989
 2229POPC   C4B31678  39.912  30.132   7.811
 2230POPC   NC331679  29.730  35.418   9.371
 2230POPC   PO431680  30.293  35.084   9.580
 2230POPC   GL131681  30.150  35.119   9.178
 2230POPC   GL231682  30.193  35.478   9.116
 2230POPC   C1A31683  30.014  35.099   8.763
 2230POPC   D2A31684  30.073  35.195   8.339
 2230POPC   C3A31685  29.719  35.362   8.152
 2230POPC   C4A31686  29.618  35.312   7.747
 2230POPC   C1B31687  30.027  35.603   8.709
 2230POPC   C2B31688  30.110  35.703   8.294
 2230POPC   C3B31689  30.092  35.549   7.877
 2230POPC   C4B31690  30.094  35.855   7.587
 2231POPC   NC331691  15.359   3.976   9.542
 2231POPC   PO431692  15.642   4.601   9.723
 2231POPC   GL131693  15.372   4.551   9.294
 2231POPC   GL231694  15.203   4.258   9.175
 2231POPC   C1A31695  15.241   4.613   8.845
 2231POPC   D2A31696  14.949   4.522   8.525
 2231POPC   C3A31697  15.081   4.599   8.103
 2231POPC   C4A31698  15.062   4.210   7.947
 2231POPC   C1B31699  15.475   4.167   8.838
 2231POPC   C2B31700  15.385   4.274   8.413
 2231POPC   C3B31701  15.542   4.121   8.035
 2231POPC   C4B31702  15.422   3.951   7.667
 2232POPC   NC331703  39.791  39.614   9.545
 2232POPC   PO431704  40.155  40.154   9.547
 2232POPC   GL131705  39.959  39.973   9.211
 2232POPC   GL231706  39.660  39.820   9.097
 2232POPC   C1A31707  40.072  39.835   8.797
 2232POPC   D2A31708  39.954  40.025   8.428
 2232POPC   C3A31709  40.068  40.018   8.032
 2232POPC   C4A31710  39.861  39.976   7.653
 2232POPC   C1B31711  39.726  40.223   8.845
 2232POPC   C2B31712  39.533  40.296   8.447
 2232POPC   C3B31713  39.533  40.115   8.034
 2232POPC   C4B31714  39.438  40.286   7.618
 2233POPC   NC331715  35.206   8.363   9.465
 2233POPC   PO431716  35.816   8.127   9.430
 2233POPC   GL131717  35.557   7.933   9.103
 2233POPC   GL231718  35.161   7.934   9.188
 2233POPC   C1A31719  35.636   8.079   8.672
 2233POPC   D2A31720  35.638   8.450   8.356
 2233POPC   C3A31721  35.669   8.354   7.933
 2233POPC   C4A31722  35.439   8.503   7.614
 2233POPC   C1B31723  35.092   8.079   8.759
 2233POPC   C2B31724  35.267   8.042   8.321
 2233POPC   C3B31725  35.153   8.237   7.961
 2233POPC   C4B31726  35.002   8.200   7.557
 2234POPC   NC331727  42.985  24.910   9.073
 2234POPC   PO431728  42.926  25.376   9.562
 2234POPC   GL131729  43.263  25.310   9.239
 2234POPC   GL231730  42.976  25.439   9.059
 2234POPC   C1A31731  43.494  25.166   8.834
 2234POPC   D2A31732  43.315  25.004   8.454
 2234POPC   C3A31733  43.140  25.304   8.157
 2234POPC   C4A31734  43.219  25.349   7.725
 2234POPC   C1B31735  43.035  25.479   8.650
 2234POPC   C2B31736  42.722  25.538   8.351
 2234POPC   C3B31737  42.774  25.621   7.939
 2234POPC   C4B31738  42.685  25.372   7.576
 2235POPC   NC331739  30.091  33.099   9.558
 2235POPC   PO431740  29.416  32.819   9.558
 2235POPC   GL131741  29.740  32.873   9.262
 2235POPC   GL231742  29.889  32.588   9.090
 2235POPC   C1A31743  29.919  33.143   8.912
 2235POPC   D2A31744  29.896  33.286   8.472
 2235POPC   C3A31745  29.909  33.069   8.077
 2235POPC   C4A31746  29.921  32.747   7.756
 2235POPC   C1B31747  29.561  32.805   8.804
 2235POPC   C2B31748  29.438  32.934   8.426
 2235POPC   C3B31749  29.488  32.791   8.038
 2235POPC   C4B31750  29.359  32.867   7.654
 2236POPC   NC331751   7.677   3.703   9.457
 2236POPC   PO431752   7.610   4.394   9.512
 2236POPC   GL131753   7.767   4.425   9.118
 2236POPC   GL231754   7.779   4.054   9.044
 2236POPC   C1A31755   7.699   4.559   8.699
 2236POPC   D2A31756   7.679   4.317   8.305
 2236POPC   C3A31757   7.605   4.516   7.903
 2236POPC   C4A31758   7.329   4.448   7.522
 2236POPC   C1B31759   7.437   4.133   8.777
 2236POPC   C2B31760   7.248   4.043   8.383
 2236POPC   C3B31761   7.271   4.124   7.945
 2236POPC   C4B31762   7.627   4.034   7.723
 2237POPC   NC331763  18.352  40.350   9.317
 2237POPC   PO431764  18.138  39.817   9.645
 2237POPC   GL131765  18.324  39.849   9.181
 2237POPC   GL231766  18.212  40.108   8.913
 2237POPC   C1A31767  18.433  39.739   8.695
 2237POPC   D2A31768  18.270  40.049   8.372
 2237POPC   C3A31769  18.338  39.908   7.983
 2237POPC   C4A31770  18.115  39.691   7.742
 2237POPC   C1B31771  18.605  40.236   8.692
 2237POPC   C2B31772  18.606  40.558   8.394
 2237POPC   C3B31773  18.522  40.388   7.996
 2237POPC   C4B31774  18.558  40.242   7.570
 2238POPC   NC331775   3.322  13.846   9.451
 2238POPC   PO431776   3.851  13.407   9.509
 2238POPC   GL131777   3.556  13.490   9.173
 2238POPC   GL231778   3.675  13.836   9.075
 2238POPC   C1A31779   3.459  13.496   8.761
 2238POPC   D2A31780   3.810  13.659   8.557
 2238POPC   C3A31781   3.798  13.544   8.117
 2238POPC   C4A31782   3.834  13.649   7.672
 2238POPC   C1B31783   3.369  13.996   8.780
 2238POPC   C2B31784   3.370  13.845   8.349
 2238POPC   C3B31785   3.160  13.724   7.957
 2238POPC   C4B31786   3.323  13.814   7.514
 2239POPC   NC331787  42.514  25.066   9.703
 2239POPC   PO431788  42.186  24.775   9.185
 2239POPC   GL131789  42.516  25.068   9.139
 2239POPC   GL231790  42.450  25.418   9.122
 2239POPC   C1A31791  42.573  25.196   8.699
 2239POPC   D2A31792  42.279  25.219   8.392
 2239POPC   C3A31793  42.457  25.194   8.002
 2239POPC   C4A31794  42.224  24.992   7.687
 2239POPC   C1B31795  42.300  25.639   8.689
 2239POPC   C2B31796  42.247  25.701   8.214
 2239POPC   C3B31797  42.261  25.615   7.746
 2239POPC   C4B31798  42.261  25.501   7.279
 2240POPC   NC331799  28.118  41.560   9.597
 2240POPC   PO431800  28.624  41.188   9.382
 2240POPC   GL131801  28.296  41.385   9.142
 2240POPC   GL231802  28.325  41.731   9.135
 2240POPC   C1A31803  28.293  41.355   8.696
 2240POPC   D2A31804  28.529  41.320   8.320
 2240POPC   C3A31805  28.359  41.185   7.939
 2240POPC   C4A31806  28.450  41.343   7.541
 2240POPC   C1B31807  28.236  41.851   8.725
 2240POPC   C2B31808  28.169  41.679   8.301
 2240POPC   C3B31809  28.436  41.703   7.948
 2240POPC   C4B31810  28.514  42.023   7.664
 2241POPC   NC331811  20.011  41.617   9.307
 2241POPC   PO431812  19.764  41.130   9.639
 2241POPC   GL131813  19.679  41.266   9.140
 2241POPC   GL231814  19.940  41.294   8.893
 2241POPC   C1A31815  19.571  41.578   8.749
 2241POPC   D2A31816  19.640  41.503   8.293
 2241POPC   C3A31817  19.631  41.700   7.869
 2241POPC   C4A31818  19.907  41.481   7.539
 2241POPC   C1B31819  20.131  41.611   8.663
 2241POPC   C2B31820  20.184  41.839   8.318
 2241POPC   C3B31821  20.132  41.733   7.938
 2241POPC   C4B31822  20.194  41.948   7.572
 2242POPC   NC331823  42.753  32.985   9.627
 2242POPC   PO431824  43.336  33.106   9.396
 2242POPC   GL131825  43.219  32.889   9.064
 2242POPC   GL231826  43.041  33.095   8.850
 2242POPC   C1A31827  43.247  32.639   8.709
 2242POPC   D2A31828  43.086  32.904   8.377
 2242POPC   C3A31829  43.284  32.776   8.076
 2242POPC   C4A31830  43.257  32.712   7.673
 2242POPC   C1B31831  42.630  33.200   8.718
 2242POPC   C2B31832  42.381  33.173   8.367
 2242POPC   C3B31833  42.541  33.244   7.981
 2242POPC   C4B31834  42.910  33.050   7.837
 2243POPC   NC331835   1.063   9.190   9.691
 2243POPC   PO431836   1.477   8.691   9.512
 2243POPC   GL131837   1.064   8.845   9.286
 2243POPC   GL231838   1.037   9.233   9.193
 2243POPC   C1A31839   0.889   8.886   8.866
 2243POPC   D2A31840   1.210   8.993   8.543
 2243POPC   C3A31841   1.170   8.847   8.108
 2243POPC   C4A31842   0.848   8.943   7.826
 2243POPC   C1B31843   0.939   9.397   8.780
 2243POPC   C2B31844   1.117   9.495   8.418
 2243POPC   C3B31845   1.364   9.309   8.155
 2243POPC   C4B31846   1.332   9.176   7.724
 2244POPC   NC331847   0.629  25.523   9.574
 2244POPC   PO431848   1.240  25.731   9.557
 2244POPC   GL131849   0.933  25.566   9.182
 2244POPC   GL231850   0.870  25.176   9.191
 2244POPC   C1A31851   0.717  25.418   8.787
 2244POPC   D2A31852   0.976  25.325   8.449
 2244POPC   C3A31853   0.913  25.354   8.029
 2244POPC   C4A31854   0.991  25.119   7.698
 2244POPC   C1B31855   1.079  24.968   8.785
 2244POPC   C2B31856   1.309  24.957   8.329
 2244POPC   C3B31857   1.459  25.116   7.899
 2244POPC   C4B31858   1.768  25.281   7.580
 2245POPC   NC331859  24.946  14.530   9.527
 2245POPC   PO431860  25.583  14.499   9.425
 2245POPC   GL131861  25.292  14.533   9.152
 2245POPC   GL231862  25.141  14.204   9.164
 2245POPC   C1A31863  25.203  14.679   8.785
 2245POPC   D2A31864  25.106  14.609   8.391
 2245POPC   C3A31865  25.428  14.558   8.090
 2245POPC   C4A31866  25.545  14.495   7.633
 2245POPC   C1B31867  25.048  14.196   8.719
 2245POPC   C2B31868  25.079  14.124   8.258
 2245POPC   C3B31869  25.010  14.249   7.817
 2245POPC   C4B31870  24.871  14.051   7.394
 2246POPC   NC331871   8.622  44.656   9.565
 2246POPC   PO431872   9.294  44.787   9.687
 2246POPC   GL131873   9.156  44.695   9.222
 2246POPC   GL231874   9.340  44.361   9.154
 2246POPC   C1A31875   8.939  44.906   8.824
 2246POPC   D2A31876   8.857   0.097   8.392
 2246POPC   C3A31877   8.914  44.861   7.989
 2246POPC   C4A31878   8.812  44.395   7.862
 2246POPC   C1B31879   9.062  44.394   8.792
 2246POPC   C2B31880   8.927  44.483   8.365
 2246POPC   C3B31881   9.269  44.490   8.042
 2246POPC   C4B31882   9.333  44.666   7.663
 2247POPC   NC331883  44.321  32.286   9.530
 2247POPC   PO431884  44.893  32.015   9.441
 2247POPC   GL131885  44.524  32.035   9.120
 2247POPC   GL231886  44.339  32.343   9.018
 2247POPC   C1A31887  44.441  32.011   8.659
 2247POPC   D2A31888  44.679  32.218   8.326
 2247POPC   C3A31889  44.724  32.033   7.922
 2247POPC   C4A31890  44.753  32.279   7.544
 2247POPC   C1B31891  44.275  32.508   8.615
 2247POPC   C2B31892  44.175  32.256   8.280
 2247POPC   C3B31893  44.336  32.346   7.886
 2247POPC   C4B31894  44.549  32.714   7.698
 2248POPC   NC331895   0.634  40.463   9.444
 2248POPC   PO431896   0.544  41.100   9.535
 2248POPC   GL131897   0.444  40.842   9.165
 2248POPC   GL231898   0.205  40.500   9.176
 2248POPC   C1A31899   0.647  40.865   8.771
 2248POPC   D2A31900   0.432  41.012   8.405
 2248POPC   C3A31901   0.553  40.965   7.978
 2248POPC   C4A31902   0.388  40.809   7.597
 2248POPC   C1B31903   0.462  40.380   8.806
 2248POPC   C2B31904   0.618  40.534   8.398
 2248POPC   C3B31905   0.515  40.458   8.006
 2248POPC   C4B31906   0.247  40.324   7.735
 2249POPC   NC331907  16.579  35.909   9.391
 2249POPC   PO431908  16.042  36.319   9.472
 2249POPC   GL131909  15.927  36.232   9.055
 2249POPC   GL231910  16.157  35.960   9.002
 2249POPC   C1A31911  15.958  36.249   8.617
 2249POPC   D2A31912  16.163  36.116   8.278
 2249POPC   C3A31913  15.881  36.158   7.975
 2249POPC   C4A31914  15.912  36.321   7.612
 2249POPC   C1B31915  15.795  35.810   8.749
 2249POPC   C2B31916  15.644  35.905   8.348
 2249POPC   C3B31917  15.671  35.715   7.927
 2249POPC   C4B31918  15.681  35.874   7.520
 2250POPC   NC331919  43.271   0.420   9.320
 2250POPC   PO431920  42.856   0.832   9.511
 2250POPC   GL131921  42.799   0.637   9.119
 2250POPC   GL231922  42.739   0.305   9.102
 2250POPC   C1A31923  43.058   0.640   8.737
 2250POPC   D2A31924  43.266   0.752   8.378
 2250POPC   C3A31925  43.003   0.851   8.026
 2250POPC   C4A31926  42.778   0.645   7.734
 2250POPC   C1B31927  42.624   0.388   8.676
 2250POPC   C2B31928  42.788   0.451   8.275
 2250POPC   C3B31929  43.061   0.284   7.962
 2250POPC   C4B31930  43.373  44.971   7.882
 2251POPC   NC331931  17.116  26.891   9.642
 2251POPC   PO431932  17.810  26.888   9.571
 2251POPC   GL131933  17.509  26.765   9.292
 2251POPC   GL231934  17.367  27.066   9.225
 2251POPC   C1A31935  17.526  26.750   8.835
 2251POPC   D2A31936  17.239  26.832   8.469
 2251POPC   C3A31937  17.365  26.714   8.086
 2251POPC   C4A31938  17.694  26.848   7.837
 2251POPC   C1B31939  17.326  27.205   8.797
 2251POPC   C2B31940  17.250  27.332   8.323
 2251POPC   C3B31941  17.326  27.242   7.863
 2251POPC   C4B31942  17.165  27.346   7.412
 2252POPC   NC331943  37.394   6.983   9.460
 2252POPC   PO431944  36.847   6.602   9.530
 2252POPC   GL131945  37.097   6.688   9.173
 2252POPC   GL231946  37.001   7.042   9.111
 2252POPC   C1A31947  36.976   6.670   8.752
 2252POPC   D2A31948  36.802   6.377   8.520
 2252POPC   C3A31949  36.878   6.439   8.093
 2252POPC   C4A31950  36.641   6.359   7.750
 2252POPC   C1B31951  37.345   7.008   8.794
 2252POPC   C2B31952  37.413   6.879   8.358
 2252POPC   C3B31953  37.192   6.903   7.966
 2252POPC   C4B31954  36.977   6.713   7.615
 2253POPC   NC331955  41.889  36.883   9.606
 2253POPC   PO431956  42.564  36.818   9.416
 2253POPC   GL131957  42.367  36.879   9.046
 2253POPC   GL231958  42.275  37.181   9.127
 2253POPC   C1A31959  42.477  36.928   8.646
 2253POPC   D2A31960  42.592  37.018   8.229
 2253POPC   C3A31961  42.686  36.676   7.960
 2253POPC   C4A31962  42.770  36.761   7.495
 2253POPC   C1B31963  42.059  37.208   8.747
 2253POPC   C2B31964  42.111  37.211   8.333
 2253POPC   C3B31965  42.040  37.122   7.935
 2253POPC   C4B31966  42.381  36.993   7.715
 2254POPC   NC331967  27.886  25.173   9.457
 2254POPC   PO431968  28.566  25.381   9.416
 2254POPC   GL131969  28.259  25.287   9.095
 2254POPC   GL231970  27.932  25.491   9.054
 2254POPC   C1A31971  28.372  25.025   8.749
 2254POPC   D2A31972  28.527  25.198   8.379
 2254POPC   C3A31973  28.436  25.109   7.968
 2254POPC   C4A31974  28.378  25.539   7.846
 2254POPC   C1B31975  27.860  25.115   8.791
 2254POPC   C2B31976  28.005  25.040   8.387
 2254POPC   C3B31977  27.984  25.328   8.074
 2254POPC   C4B31978  27.987  25.149   7.675
 2255POPC   NC331979  16.376  43.741   9.432
 2255POPC   PO431980  16.830  44.263   9.498
 2255POPC   GL131981  16.650  44.085   9.130
 2255POPC   GL231982  16.953  43.916   8.991
 2255POPC   C1A31983  16.529  43.744   8.802
 2255POPC   D2A31984  16.766  43.634   8.432
 2255POPC   C3A31985  16.571  43.791   8.050
 2255POPC   C4A31986  16.400  43.588   7.731
 2255POPC   C1B31987  17.176  43.569   8.746
 2255POPC   C2B31988  17.310  43.676   8.342
 2255POPC   C3B31989  17.072  43.861   7.992
 2255POPC   C4B31990  16.782  44.240   7.876
 2256POPC   NC331991  36.733  10.709   9.529
 2256POPC   PO431992  36.854  10.008   9.398
 2256POPC   GL131993  36.855  10.380   9.148
 2256POPC   GL231994  36.536  10.587   9.088
 2256POPC   C1A31995  36.958  10.581   8.776
 2256POPC   D2A31996  37.149  10.690   8.395
 2256POPC   C3A31997  36.980  10.543   8.031
 2256POPC   C4A31998  36.879  10.404   7.638
 2256POPC   C1B31999  36.508  10.847   8.740
 2256POPC   C2B32000  36.619  10.756   8.316
 2256POPC   C3B32001  36.622  10.854   7.861
 2256POPC   C4B32002  36.585  11.031   7.453
 2257POPC   NC332003  22.934  29.804   9.529
 2257POPC   PO432004  23.355  30.304   9.257
 2257POPC   GL132005  23.072  29.933   9.062
 2257POPC   GL232006  22.705  29.697   9.111
 2257POPC   C1A32007  23.152  29.844   8.656
 2257POPC   D2A32008  23.361  29.685   8.316
 2257POPC   C3A32009  23.137  29.861   7.973
 2257POPC   C4A32010  22.859  30.092   7.742
 2257POPC   C1B32011  22.970  29.431   8.874
 2257POPC   C2B32012  22.887  29.466   8.443
 2257POPC   C3B32013  22.868  29.420   8.012
 2257POPC   C4B32014  22.836  29.616   7.573
 2258POPC   NC332015  40.435  21.374   9.428
 2258POPC   PO432016  39.922  21.692   9.744
 2258POPC   GL132017  40.002  21.653   9.256
 2258POPC   GL232018  40.118  21.379   9.053
 2258POPC   C1A32019  39.883  21.703   8.783
 2258POPC   D2A32020  40.028  21.667   8.368
 2258POPC   C3A32021  39.783  21.492   8.069
 2258POPC   C4A32022  39.877  21.547   7.645
 2258POPC   C1B32023  39.955  21.136   8.756
 2258POPC   C2B32024  39.846  21.068   8.358
 2258POPC   C3B32025  40.056  21.061   7.988
 2258POPC   C4B32026  40.036  21.052   7.609
 2259POPC   NC332027  14.853  16.446   9.449
 2259POPC   PO432028  15.393  16.256   9.362
 2259POPC   GL132029  15.178  16.635   9.095
 2259POPC   GL232030  15.047  17.016   9.148
 2259POPC   C1A32031  15.233  16.847   8.686
 2259POPC   D2A32032  15.398  17.070   8.318
 2259POPC   C3A32033  15.400  16.777   7.969
 2259POPC   C4A32034  15.545  16.372   7.754
 2259POPC   C1B32035  14.860  17.182   8.754
 2259POPC   C2B32036  14.884  16.990   8.323
 2259POPC   C3B32037  14.896  16.906   7.873
 2259POPC   C4B32038  14.957  17.199   7.519
 2260POPC   NC332039  13.791   7.863   9.370
 2260POPC   PO432040  13.505   8.505   9.243
 2260POPC   GL132041  13.751   8.253   9.017
 2260POPC   GL232042  13.476   8.030   8.996
 2260POPC   C1A32043  13.883   8.358   8.601
 2260POPC   D2A32044  13.841   8.103   8.245
 2260POPC   C3A32045  13.617   8.347   7.958
 2260POPC   C4A32046  13.767   8.662   7.722
 2260POPC   C1B32047  13.409   8.142   8.567
 2260POPC   C2B32048  13.373   7.920   8.176
 2260POPC   C3B32049  13.525   7.896   7.731
 2260POPC   C4B32050  13.959   7.742   7.529
 2261POPC   NC332051  19.904  35.494   9.463
 2261POPC   PO432052  20.261  34.903   9.570
 2261POPC   GL132053  20.150  35.114   9.185
 2261POPC   GL232054  19.810  35.140   9.096
 2261POPC   C1A32055  20.150  35.287   8.748
 2261POPC   D2A32056  19.893  35.258   8.371
 2261POPC   C3A32057  20.067  35.362   7.962
 2261POPC   C4A32058  20.085  35.118   7.558
 2261POPC   C1B32059  19.641  35.452   8.796
 2261POPC   C2B32060  19.416  35.577   8.420
 2261POPC   C3B32061  19.523  35.449   8.020
 2261POPC   C4B32062  19.724  35.568   7.649
 2262POPC   NC332063  44.369  44.369   9.411
 2262POPC   PO432064   0.018  44.579   9.446
 2262POPC   GL132065  44.728  44.569   9.107
 2262POPC   GL232066  44.556  44.862   9.069
 2262POPC   C1A32067  44.523  44.580   8.677
 2262POPC   D2A32068  44.326  44.833   8.384
 2262POPC   C3A32069  44.459  44.638   7.994
 2262POPC   C4A32070  44.835  44.457   7.825
 2262POPC   C1B32071  44.758   0.037   8.702
 2262POPC   C2B32072  44.778   0.061   8.267
 2262POPC   C3B32073  44.875  44.996   7.830
 2262POPC   C4B32074  44.759  44.799   7.451
 2263POPC   NC332075  12.128  35.608   9.510
 2263POPC   PO432076  12.180  34.972   9.435
 2263POPC   GL132077  12.145  35.285   9.115
 2263POPC   GL232078  11.870  35.533   9.050
 2263POPC   C1A32079  12.099  35.236   8.696
 2263POPC   D2A32080  12.347  35.201   8.355
 2263POPC   C3A32081  12.235  35.086   7.986
 2263POPC   C4A32082  12.212  35.261   7.633
 2263POPC   C1B32083  11.700  35.532   8.612
 2263POPC   C2B32084  11.937  35.485   8.224
 2263POPC   C3B32085  11.846  35.566   7.793
 2263POPC   C4B32086  11.651  35.455   7.404
 2264POPC   NC332087   0.678  39.508   9.420
 2264POPC   PO432088   0.486  38.913   9.627
 2264POPC   GL132089   0.288  38.843   9.217
 2264POPC   GL232090   0.360  39.194   9.177
 2264POPC   C1A32091   0.264  38.963   8.752
 2264POPC   D2A32092   0.272  39.175   8.347
 2264POPC   C3A32093   0.185  38.950   7.936
 2264POPC   C4A32094   0.093  39.024   7.447
 2264POPC   C1B32095   0.557  39.388   8.802
 2264POPC   C2B32096   0.552  39.644   8.446
 2264POPC   C3B32097   0.510  39.529   8.039
 2264POPC   C4B32098   0.409  39.338   7.674
 2265POPC   NC332099  44.434  13.802   9.528
 2265POPC   PO432100   0.096  13.942   9.382
 2265POPC   GL132101  44.772  13.667   9.157
 2265POPC   GL232102  44.713  13.341   9.292
 2265POPC   C1A32103  44.531  13.701   8.783
 2265POPC   D2A32104  44.416  13.853   8.400
 2265POPC   C3A32105  44.589  13.690   8.015
 2265POPC   C4A32106  44.619  13.809   7.601
 2265POPC   C1B32107  44.752  13.255   8.841
 2265POPC   C2B32108  44.681  13.392   8.398
 2265POPC   C3B32109  44.519  13.186   7.988
 2265POPC   C4B32110  44.616  13.288   7.555
 2266POPC   NC332111  25.131  10.095   9.534
 2266POPC   PO432112  25.538   9.552   9.347
 2266POPC   GL132113  25.363   9.569   8.932
 2266POPC   GL232114  25.000   9.608   8.942
 2266POPC   C1A32115  25.212   9.742   8.503
 2266POPC   D2A32116  24.925   9.744   8.184
 2266POPC   C3A32117  25.181   9.636   7.887
 2266POPC   C4A32118  25.566   9.746   7.806
 2266POPC   C1B32119  25.204  10.055   8.895
 2266POPC   C2B32120  25.473  10.213   8.552
 2266POPC   C3B32121  25.382  10.107   8.119
 2266POPC   C4B32122  25.046  10.120   7.815
 2267POPC   NC332123  13.979  22.476   9.528
 2267POPC   PO432124  13.551  22.978   9.716
 2267POPC   GL132125  13.745  22.944   9.315
 2267POPC   GL232126  13.423  22.970   9.149
 2267POPC   C1A32127  13.825  22.741   8.915
 2267POPC   D2A32128  13.532  22.872   8.615
 2267POPC   C3A32129  13.545  22.786   8.213
 2267POPC   C4A32130  13.613  22.710   7.806
 2267POPC   C1B32131  13.408  23.334   8.876
 2267POPC   C2B32132  13.520  23.366   8.420
 2267POPC   C3B32133  13.408  23.269   7.980
 2267POPC   C4B32134  13.377  23.118   7.571
 2268POPC   NC332135  44.882  11.044   9.401
 2268POPC   PO432136  44.598  10.488   9.671
 2268POPC   GL132137  44.546  10.449   9.220
 2268POPC   GL232138  44.844  10.583   9.106
 2268POPC   C1A32139  44.448  10.556   8.766
 2268POPC   D2A32140  44.718  10.546   8.364
 2268POPC   C3A32141  44.505  10.390   8.017
 2268POPC   C4A32142  44.450  10.544   7.623
 2268POPC   C1B32143  44.839  10.884   8.740
 2268POPC   C2B32144   0.024  10.972   8.329
 2268POPC   C3B32145   0.087  10.865   7.874
 2268POPC   C4B32146  44.855  10.842   7.472
 2269POPC   NC332147  18.373  38.585   9.395
 2269POPC   PO432148  17.868  38.322   9.761
 2269POPC   GL132149  17.924  38.447   9.224
 2269POPC   GL232150  18.174  38.205   9.066
 2269POPC   C1A32151  18.094  38.632   8.765
 2269POPC   D2A32152  18.326  38.621   8.343
 2269POPC   C3A32153  18.066  38.696   7.956
 2269POPC   C4A32154  18.053  38.453   7.611
 2269POPC   C1B32155  18.501  38.276   8.737
 2269POPC   C2B32156  18.738  38.322   8.311
 2269POPC   C3B32157  18.511  38.407   7.881
 2269POPC   C4B32158  18.500  38.297   7.404
 2270POPC   NC332159  18.358  34.729   9.599
 2270POPC   PO432160  18.833  34.191   9.811
 2270POPC   GL132161  18.519  34.309   9.379
 2270POPC   GL232162  18.656  34.378   9.037
 2270POPC   C1A32163  18.173  34.518   9.028
 2270POPC   D2A32164  17.973  34.642   8.613
 2270POPC   C3A32165  18.156  34.720   8.180
 2270POPC   C4A32166  18.034  34.480   7.816
 2270POPC   C1B32167  18.493  34.687   8.699
 2270POPC   C2B32168  18.465  34.397   8.404
 2270POPC   C3B32169  18.520  34.385   7.994
 2270POPC   C4B32170  18.760  34.164   7.755
 2271POPC   NC332171  33.776  27.366   9.510
 2271POPC   PO432172  33.340  27.859   9.660
 2271POPC   GL132173  33.549  27.838   9.237
 2271POPC   GL232174  33.730  27.535   9.043
 2271POPC   C1A32175  33.715  27.986   8.841
 2271POPC   D2A32176  33.720  27.697   8.471
 2271POPC   C3A32177  33.684  27.906   8.056
 2271POPC   C4A32178  33.952  27.897   7.720
 2271POPC   C1B32179  33.900  27.262   8.728
 2271POPC   C2B32180  33.944  27.250   8.292
 2271POPC   C3B32181  33.808  27.434   7.903
 2271POPC   C4B32182  34.017  27.396   7.501
 2272POPC   NC332183   0.928   2.997   9.954
 2272POPC   PO432184   0.386   2.660   9.687
 2272POPC   GL132185   0.350   2.749   9.225
 2272POPC   GL232186   0.658   2.925   9.128
 2272POPC   C1A32187   0.297   2.683   8.750
 2272POPC   D2A32188   0.101   2.684   8.301
 2272POPC   C3A32189   0.335   2.650   7.897
 2272POPC   C4A32190   0.528   2.721   7.489
 2272POPC   C1B32191   0.580   3.110   8.697
 2272POPC   C2B32192   0.503   2.996   8.264
 2272POPC   C3B32193   0.479   3.139   7.812
 2272POPC   C4B32194   0.838   3.120   7.493
 2273POPC   NC332195  37.506  34.739   9.466
 2273POPC   PO432196  37.923  34.233   9.408
 2273POPC   GL132197  37.849  34.454   9.053
 2273POPC   GL232198  37.948  34.768   9.141
 2273POPC   C1A32199  37.522  34.583   8.760
 2273POPC   D2A32200  37.291  34.572   8.364
 2273POPC   C3A32201  37.572  34.615   8.024
 2273POPC   C4A32202  37.546  34.497   7.616
 2273POPC   C1B32203  38.041  34.849   8.712
 2273POPC   C2B32204  37.869  34.937   8.312
 2273POPC   C3B32205  38.027  34.907   7.899
 2273POPC   C4B32206  37.935  34.772   7.473
 2274POPC   NC332207  10.323  10.441  10.051
 2274POPC   PO432208  10.547  10.238   9.422
 2274POPC   GL132209  10.296  10.441   9.132
 2274POPC   GL232210  10.606  10.579   9.070
 2274POPC   C1A32211  10.259  10.827   8.836
 2274POPC   D2A32212  10.139  10.828   8.400
 2274POPC   C3A32213  10.407  10.581   8.108
 2274POPC   C4A32214  10.301  10.471   7.701
 2274POPC   C1B32215  10.800  10.766   8.856
 2274POPC   C2B32216  10.667  10.812   8.479
 2274POPC   C3B32217  10.839  10.868   8.091
 2274POPC   C4B32218  10.747  10.684   7.699
 2275POPC   NC332219   7.991   9.659   9.614
 2275POPC   PO432220   8.369  10.176   9.479
 2275POPC   GL132221   8.171   9.933   9.192
 2275POPC   GL232222   7.828  10.029   9.269
 2275POPC   C1A32223   8.032   9.629   8.867
 2275POPC   D2A32224   7.943   9.423   8.449
 2275POPC   C3A32225   8.147   9.600   8.082
 2275POPC   C4A32226   7.991   9.725   7.678
 2275POPC   C1B32227   7.877  10.151   8.848
 2275POPC   C2B32228   7.934   9.949   8.479
 2275POPC   C3B32229   7.969  10.080   8.105
 2275POPC   C4B32230   8.028  10.256   7.757
 2276POPC   NC332231  28.498  28.485   9.380
 2276POPC   PO432232  28.226  27.980   9.730
 2276POPC   GL132233  28.184  28.145   9.224
 2276POPC   GL232234  28.021  28.467   9.172
 2276POPC   C1A32235  28.362  28.233   8.756
 2276POPC   D2A32236  28.643  28.424   8.414
 2276POPC   C3A32237  28.601  28.334   7.949
 2276POPC   C4A32238  28.453  28.490   7.539
 2276POPC   C1B32239  28.139  28.698   8.811
 2276POPC   C2B32240  28.139  28.556   8.397
 2276POPC   C3B32241  28.170  28.626   7.969
 2276POPC   C4B32242  27.994  28.757   7.599
 2277POPC   NC332243   9.668  11.876   9.612
 2277POPC   PO432244   9.715  12.495   9.641
 2277POPC   GL132245   9.682  12.200   9.222
 2277POPC   GL232246   9.402  12.274   8.980
 2277POPC   C1A32247   9.856  12.130   8.813
 2277POPC   D2A32248   9.660  12.142   8.418
 2277POPC   C3A32249   9.926  12.225   8.087
 2277POPC   C4A32250   9.830  12.310   7.702
 2277POPC   C1B32251   9.439  11.838   8.797
 2277POPC   C2B32252   9.363  11.709   8.365
 2277POPC   C3B32253   9.550  11.896   7.952
 2277POPC   C4B32254   9.338  12.205   7.695
 2278POPC   NC332255   2.140  40.260   9.318
 2278POPC   PO432256   2.674  39.907   9.583
 2278POPC   GL132257   2.641  40.081   9.172
 2278POPC   GL232258   2.386  39.903   9.076
 2278POPC   C1A32259   2.902  40.158   8.796
 2278POPC   D2A32260   3.076  39.971   8.393
 2278POPC   C3A32261   2.813  40.024   8.010
 2278POPC   C4A32262   2.824  40.272   7.684
 2278POPC   C1B32263   2.431  39.917   8.653
 2278POPC   C2B32264   2.339  40.001   8.243
 2278POPC   C3B32265   2.324  39.675   7.928
 2278POPC   C4B32266   2.397  39.719   7.461
 2279POPC   NC332267  41.457  10.024   9.761
 2279POPC   PO432268  41.727   9.729   9.184
 2279POPC   GL132269  41.602  10.033   9.008
 2279POPC   GL232270  41.293  10.009   9.237
 2279POPC   C1A32271  41.790  10.066   8.610
 2279POPC   D2A32272  41.889   9.666   8.398
 2279POPC   C3A32273  41.741   9.563   7.977
 2279POPC   C4A32274  41.434   9.452   7.687
 2279POPC   C1B32275  41.162   9.840   8.835
 2279POPC   C2B32276  41.315   9.973   8.461
 2279POPC   C3B32277  41.591  10.027   8.130
 2279POPC   C4B32278  41.348  10.024   7.787
 2280POPC   NC332279  21.255  28.111   9.438
 2280POPC   PO432280  21.579  28.644   9.689
 2280POPC   GL132281  21.542  28.544   9.248
 2280POPC   GL232282  21.221  28.530   9.117
 2280POPC   C1A32283  21.667  28.679   8.810
 2280POPC   D2A32284  21.676  28.848   8.377
 2280POPC   C3A32285  21.476  28.579   8.068
 2280POPC   C4A32286  21.536  28.320   7.709
 2280POPC   C1B32287  21.134  28.177   8.796
 2280POPC   C2B32288  21.108  28.260   8.368
 2280POPC   C3B32289  21.104  28.097   7.952
 2280POPC   C4B32290  21.100  28.137   7.494
 2281POPC   NC332291  32.883  28.061   9.521
 2281POPC   PO432292  33.116  28.716   9.403
 2281POPC   GL132293  32.884  28.537   9.080
 2281POPC   GL232294  32.949  28.177   9.041
 2281POPC   C1A32295  32.959  28.533   8.649
 2281POPC   D2A32296  33.072  28.415   8.237
 2281POPC   C3A32297  32.913  28.741   7.963
 2281POPC   C4A32298  32.661  28.682   7.603
 2281POPC   C1B32299  32.882  27.971   8.673
 2281POPC   C2B32300  32.641  27.976   8.320
 2281POPC   C3B32301  32.737  28.154   7.909
 2281POPC   C4B32302  33.077  28.331   7.713
 2282POPC   NC332303   3.623  15.451   9.581
 2282POPC   PO432304   3.515  16.126   9.586
 2282POPC   GL132305   3.556  15.939   9.183
 2282POPC   GL232306   3.771  16.155   9.022
 2282POPC   C1A32307   3.406  15.787   8.763
 2282POPC   D2A32308   3.548  15.611   8.366
 2282POPC   C3A32309   3.299  15.821   8.044
 2282POPC   C4A32310   3.204  15.901   7.631
 2282POPC   C1B32311   3.925  15.900   8.707
 2282POPC   C2B32312   4.074  15.859   8.304
 2282POPC   C3B32313   3.810  15.861   7.976
 2282POPC   C4B32314   3.726  15.953   7.531
 2283POPC   NC332315  21.512  39.356   9.501
 2283POPC   PO432316  21.152  38.766   9.473
 2283POPC   GL132317  21.259  39.047   9.141
 2283POPC   GL232318  21.596  38.989   9.136
 2283POPC   C1A32319  21.435  39.325   8.795
 2283POPC   D2A32320  21.358  39.465   8.378
 2283POPC   C3A32321  21.444  39.265   7.990
 2283POPC   C4A32322  21.160  39.001   7.789
 2283POPC   C1B32323  21.788  38.945   8.780
 2283POPC   C2B32324  21.711  39.046   8.390
 2283POPC   C3B32325  21.870  38.943   8.015
 2283POPC   C4B32326  21.958  39.318   7.790
 2284POPC   NC332327  36.952  22.523   9.885
 2284POPC   PO432328  37.036  23.023   9.484
 2284POPC   GL132329  37.091  22.954   9.077
 2284POPC   GL232330  36.762  22.858   9.072
 2284POPC   C1A32331  37.137  22.814   8.676
 2284POPC   D2A32332  37.207  23.041   8.308
 2284POPC   C3A32333  36.972  22.927   7.957
 2284POPC   C4A32334  37.065  22.546   7.739
 2284POPC   C1B32335  36.601  22.733   8.734
 2284POPC   C2B32336  36.746  22.684   8.360
 2284POPC   C3B32337  36.613  22.547   7.993
 2284POPC   C4B32338  36.535  22.794   7.659
 2285POPC   NC332339  33.048  27.491   9.735
 2285POPC   PO432340  33.432  27.018   9.547
 2285POPC   GL132341  33.279  27.404   9.261
 2285POPC   GL232342  32.957  27.628   9.233
 2285POPC   C1A32343  33.284  27.663   8.818
 2285POPC   D2A32344  33.344  28.044   8.483
 2285POPC   C3A32345  33.181  27.917   8.075
 2285POPC   C4A32346  33.278  27.475   7.915
 2285POPC   C1B32347  32.768  27.499   8.812
 2285POPC   C2B32348  32.920  27.530   8.375
 2285POPC   C3B32349  32.769  27.645   7.957
 2285POPC   C4B32350  32.896  27.456   7.570
 2286POPC   NC332351  13.503   0.569   9.529
 2286POPC   PO432352  14.076   0.281   9.482
 2286POPC   GL132353  13.861   0.536   9.117
 2286POPC   GL232354  13.475   0.683   9.056
 2286POPC   C1A32355  13.704   0.369   8.718
 2286POPC   D2A32356  13.494   0.288   8.330
 2286POPC   C3A32357  13.666   0.223   7.916
 2286POPC   C4A32358  13.726   0.507   7.579
 2286POPC   C1B32359  13.630   0.911   8.751
 2286POPC   C2B32360  13.679   0.782   8.348
 2286POPC   C3B32361  13.509   0.725   7.981
 2286POPC   C4B32362  13.239   0.722   7.648
 2287POPC   NC332363  34.957  21.558   9.349
 2287POPC   PO432364  34.642  21.065   9.470
 2287POPC   GL132365  34.712  21.159   9.086
 2287POPC   GL232366  34.969  20.919   9.049
 2287POPC   C1A32367  34.493  21.311   8.731
 2287POPC   D2A32368  34.361  21.653   8.476
 2287POPC   C3A32369  34.289  21.468   8.078
 2287POPC   C4A32370  34.589  21.355   7.779
 2287POPC   C1B32371  34.730  20.862   8.671
 2287POPC   C2B32372  34.684  21.033   8.243
 2287POPC   C3B32373  34.811  20.888   7.829
 2287POPC   C4B32374  34.630  21.005   7.399
 2288POPC   NC332375  42.477   9.750   9.664
 2288POPC   PO432376  41.815   9.728   9.728
 2288POPC   GL132377  42.147   9.549   9.347
 2288POPC   GL232378  42.293   9.832   9.187
 2288POPC   C1A32379  42.223   9.499   8.828
 2288POPC   D2A32380  42.242   9.276   8.442
 2288POPC   C3A32381  42.253   9.483   8.031
 2288POPC   C4A32382  42.149   9.571   7.570
 2288POPC   C1B32383  42.261  10.006   8.775
 2288POPC   C2B32384  42.321   9.920   8.341
 2288POPC   C3B32385  42.075   9.952   7.957
 2288POPC   C4B32386  42.245  10.072   7.573
 2289POPC   NC332387  42.079  40.063   9.247
 2289POPC   PO432388  42.750  40.220   9.505
 2289POPC   GL132389  42.573  40.164   9.119
 2289POPC   GL232390  42.578  39.802   9.167
 2289POPC   C1A32391  42.465  40.341   8.724
 2289POPC   D2A32392  42.652  40.393   8.326
 2289POPC   C3A32393  42.554  40.129   8.007
 2289POPC   C4A32394  42.156  40.022   7.940
 2289POPC   C1B32395  42.511  39.648   8.763
 2289POPC   C2B32396  42.440  39.778   8.348
 2289POPC   C3B32397  42.415  39.595   7.936
 2289POPC   C4B32398  42.358  39.711   7.501
 2290POPC   NC332399   8.306   7.007   9.472
 2290POPC   PO432400   8.098   6.346   9.531
 2290POPC   GL132401   8.310   6.550   9.199
 2290POPC   GL232402   8.138   6.815   9.057
 2290POPC   C1A32403   8.424   6.442   8.787
 2290POPC   D2A32404   8.249   6.260   8.396
 2290POPC   C3A32405   8.154   6.438   8.006
 2290POPC   C4A32406   8.331   6.519   7.619
 2290POPC   C1B32407   8.429   6.939   8.791
 2290POPC   C2B32408   8.491   6.744   8.385
 2290POPC   C3B32409   8.366   6.905   7.976
 2290POPC   C4B32410   8.004   6.918   7.744
 2291POPC   NC332411  44.780  16.274   9.630
 2291POPC   PO432412  44.291  15.775   9.540
 2291POPC   GL132413  44.641  15.905   9.280
 2291POPC   GL232414  44.469  15.766   9.024
 2291POPC   C1A32415  44.899  16.001   8.854
 2291POPC   D2A32416   0.129  15.896   8.478
 2291POPC   C3A32417  44.902  16.027   8.135
 2291POPC   C4A32418  44.834  15.980   7.703
 2291POPC   C1B32419  44.457  16.209   8.889
 2291POPC   C2B32420  44.528  16.298   8.424
 2291POPC   C3B32421  44.420  16.141   7.970
 2291POPC   C4B32422  44.356  15.904   7.555
 2292POPC   NC332423  39.287  16.905  10.086
 2292POPC   PO432424  38.854  17.149   9.587
 2292POPC   GL132425  39.177  16.987   9.252
 2292POPC   GL232426  39.133  16.644   9.135
 2292POPC   C1A32427  39.451  16.922   8.849
 2292POPC   D2A32428  39.546  16.604   8.495
 2292POPC   C3A32429  39.420  16.699   8.044
 2292POPC   C4A32430  39.013  16.723   7.813
 2292POPC   C1B32431  39.073  16.597   8.669
 2292POPC   C2B32432  39.128  16.351   8.285
 2292POPC   C3B32433  39.230  16.263   7.830
 2292POPC   C4B32434  39.087  16.400   7.398
 2293POPC   NC332435  33.611  19.601   9.711
 2293POPC   PO432436  34.109  19.871   9.570
 2293POPC   GL132437  33.902  19.989   9.209
 2293POPC   GL232438  33.742  19.668   9.205
 2293POPC   C1A32439  33.912  20.133   8.769
 2293POPC   D2A32440  33.671  20.072   8.370
 2293POPC   C3A32441  33.906  19.969   7.966
 2293POPC   C4A32442  33.806  19.840   7.534
 2293POPC   C1B32443  33.571  19.733   8.783
 2293POPC   C2B32444  33.517  19.556   8.408
 2293POPC   C3B32445  33.449  19.740   8.039
 2293POPC   C4B32446  33.401  19.525   7.696
 2294POPC   NC332447  28.670   8.884   9.568
 2294POPC   PO432448  28.229   8.594   9.193
 2294POPC   GL132449  28.300   9.027   9.173
 2294POPC   GL232450  28.634   9.055   9.059
 2294POPC   C1A32451  28.180   9.148   8.774
 2294POPC   D2A32452  28.120   8.896   8.393
 2294POPC   C3A32453  28.285   9.104   8.042
 2294POPC   C4A32454  28.374   8.978   7.612
 2294POPC   C1B32455  28.582   8.831   8.648
 2294POPC   C2B32456  28.650   8.793   8.192
 2294POPC   C3B32457  28.783   9.110   7.883
 2294POPC   C4B32458  28.883   9.432   7.600
 2295POPC   NC332459  12.149  40.567   9.690
 2295POPC   PO432460  11.913  41.182   9.779
 2295POPC   GL132461  12.150  40.988   9.354
 2295POPC   GL232462  11.994  40.689   9.221
 2295POPC   C1A32463  12.331  40.869   8.895
 2295POPC   D2A32464  12.120  40.966   8.448
 2295POPC   C3A32465  12.178  40.918   7.957
 2295POPC   C4A32466  12.333  40.630   7.606
 2295POPC   C1B32467  11.827  40.744   8.801
 2295POPC   C2B32468  11.802  40.583   8.353
 2295POPC   C3B32469  11.680  40.756   7.934
 2295POPC   C4B32470  11.536  41.135   7.712
 2296POPC   NC332471  15.735   0.750   9.076
 2296POPC   PO432472  15.337   0.341   9.461
 2296POPC   GL132473  15.264   0.471   9.050
 2296POPC   GL232474  14.910   0.551   9.014
 2296POPC   C1A32475  15.175   0.336   8.617
 2296POPC   D2A32476  14.926   0.466   8.233
 2296POPC   C3A32477  15.025   0.190   7.903
 2296POPC   C4A32478  15.286   0.208   7.526
 2296POPC   C1B32479  14.957   0.789   8.636
 2296POPC   C2B32480  15.357   0.751   8.371
 2296POPC   C3B32481  15.344   0.606   7.962
 2296POPC   C4B32482  15.010   0.628   7.641
 2297POPC   NC332483  12.610   1.920   9.304
 2297POPC   PO432484  13.004   1.396   9.575
 2297POPC   GL132485  12.912   1.276   9.169
 2297POPC   GL232486  12.564   1.333   9.155
 2297POPC   C1A32487  13.079   1.103   8.803
 2297POPC   D2A32488  13.280   1.101   8.404
 2297POPC   C3A32489  13.083   1.064   7.998
 2297POPC   C4A32490  12.824   1.008   7.597
 2297POPC   C1B32491  12.575   1.253   8.725
 2297POPC   C2B32492  12.740   1.006   8.398
 2297POPC   C3B32493  12.579   1.142   8.016
 2297POPC   C4B32494  12.616   1.476   7.724
 2298POPC   NC332495  33.398  40.981   9.495
 2298POPC   PO432496  34.052  40.659   9.523
 2298POPC   GL132497  33.826  40.865   9.213
 2298POPC   GL232498  33.599  40.621   9.170
 2298POPC   C1A32499  33.648  40.982   8.793
 2298POPC   D2A32500  33.668  40.759   8.371
 2298POPC   C3A32501  33.678  40.942   7.968
 2298POPC   C4A32502  33.967  41.013   7.669
 2298POPC   C1B32503  33.685  40.458   8.771
 2298POPC   C2B32504  33.858  40.302   8.342
 2298POPC   C3B32505  33.866  40.468   7.909
 2298POPC   C4B32506  33.840  40.577   7.459
 2299POPC   NC332507  25.508  37.970   9.462
 2299POPC   PO432508  25.267  37.320   9.386
 2299POPC   GL132509  25.402  37.630   9.079
 2299POPC   GL232510  25.108  37.871   9.092
 2299POPC   C1A32511  25.545  37.510   8.657
 2299POPC   D2A32512  25.322  37.505   8.257
 2299POPC   C3A32513  25.532  37.674   7.897
 2299POPC   C4A32514  25.435  37.675   7.459
 2299POPC   C1B32515  25.140  37.852   8.634
 2299POPC   C2B32516  25.076  38.055   8.212
 2299POPC   C3B32517  25.046  37.838   7.806
 2299POPC   C4B32518  24.956  37.873   7.364
 2300POPC   NC332519   6.034  29.059   9.432
 2300POPC   PO432520   6.674  28.934   9.661
 2300POPC   GL132521   6.786  29.037   9.250
 2300POPC   GL232522   6.470  29.089   9.141
 2300POPC   C1A32523   6.862  29.160   8.813
 2300POPC   D2A32524   6.692  29.085   8.437
 2300POPC   C3A32525   6.976  29.012   8.126
 2300POPC   C4A32526   6.903  29.099   7.706
 2300POPC   C1B32527   6.408  29.374   8.797
 2300POPC   C2B32528   6.435  29.558   8.402
 2300POPC   C3B32529   6.576  29.370   8.022
 2300POPC   C4B32530   6.500  29.398   7.586
 2301POPC   NC332531  27.228  11.865   9.980
 2301POPC   PO432532  26.782  11.436   9.691
 2301POPC   GL132533  26.675  11.494   9.214
 2301POPC   GL232534  26.456  11.201   9.134
 2301POPC   C1A32535  26.658  11.635   8.750
 2301POPC   D2A32536  26.817  11.499   8.318
 2301POPC   C3A32537  27.016  11.758   7.961
 2301POPC   C4A32538  26.885  11.762   7.510
 2301POPC   C1B32539  26.837  11.184   8.864
 2301POPC   C2B32540  26.923  11.000   8.503
 2301POPC   C3B32541  27.008  11.042   8.086
 2301POPC   C4B32542  26.800  11.323   7.805
 2302POPC   NC332543  38.001  25.969   9.288
 2302POPC   PO432544  37.360  25.788   9.408
 2302POPC   GL132545  37.558  25.803   9.044
 2302POPC   GL232546  37.619  26.167   9.029
 2302POPC   C1A32547  37.639  25.844   8.627
 2302POPC   D2A32548  37.701  26.135   8.307
 2302POPC   C3A32549  37.923  26.001   7.970
 2302POPC   C4A32550  37.582  25.901   7.734
 2302POPC   C1B32551  37.985  26.228   8.716
 2302POPC   C2B32552  38.207  26.286   8.325
 2302POPC   C3B32553  38.155  26.538   7.991
 2302POPC   C4B32554  37.916  26.585   7.605
 2303POPC   NC332555  38.846  31.279   9.775
 2303POPC   PO432556  38.276  31.427   9.505
 2303POPC   GL132557  38.585  31.265   9.178
 2303POPC   GL232558  38.422  31.487   8.958
 2303POPC   C1A32559  38.662  31.101   8.718
 2303POPC   D2A32560  38.570  31.372   8.310
 2303POPC   C3A32561  38.607  31.144   7.883
 2303POPC   C4A32562  38.658  31.146   7.393
 2303POPC   C1B32563  38.338  31.868   8.726
 2303POPC   C2B32564  38.319  31.889   8.283
 2303POPC   C3B32565  38.505  31.710   7.925
 2303POPC   C4B32566  38.332  31.479   7.606
 2304POPC   NC332567  13.769  27.722   9.543
 2304POPC   PO432568  13.426  27.218   9.601
 2304POPC   GL132569  13.542  27.340   9.165
 2304POPC   GL232570  13.840  27.525   9.076
 2304POPC   C1A32571  13.453  27.481   8.719
 2304POPC   D2A32572  13.193  27.421   8.310
 2304POPC   C3A32573  13.470  27.482   7.922
 2304POPC   C4A32574  13.839  27.785   7.842
 2304POPC   C1B32575  13.937  27.324   8.679
 2304POPC   C2B32576  13.889  27.420   8.211
 2304POPC   C3B32577  13.964  27.294   7.757
 2304POPC   C4B32578  14.164  27.479   7.324
 2305POPC   NC332579  21.569  32.716   9.415
 2305POPC   PO432580  21.221  33.235   9.737
 2305POPC   GL132581  21.373  33.158   9.274
 2305POPC   GL232582  21.725  33.230   9.198
 2305POPC   C1A32583  21.325  32.953   8.864
 2305POPC   D2A32584  21.045  33.038   8.544
 2305POPC   C3A32585  21.134  33.075   8.104
 2305POPC   C4A32586  21.261  33.180   7.694
 2305POPC   C1B32587  21.703  33.244   8.731
 2305POPC   C2B32588  21.563  32.907   8.401
 2305POPC   C3B32589  21.670  33.026   7.981
 2305POPC   C4B32590  21.567  33.483   7.962
 2306POPC   NC332591  17.462   1.986   9.547
 2306POPC   PO432592  16.975   1.633   9.349
 2306POPC   GL132593  17.246   1.851   9.072
 2306POPC   GL232594  17.656   1.854   9.073
 2306POPC   C1A32595  17.346   1.720   8.663
 2306POPC   D2A32596  17.743   1.763   8.434
 2306POPC   C3A32597  17.630   1.816   7.996
 2306POPC   C4A32598  17.217   1.859   7.848
 2306POPC   C1B32599  17.521   2.186   8.795
 2306POPC   C2B32600  17.414   2.463   8.466
 2306POPC   C3B32601  17.475   2.328   8.039
 2306POPC   C4B32602  17.926   2.233   7.960
 2307POPC   NC332603  39.907  42.754   9.509
 2307POPC   PO432604  40.195  43.418   9.501
 2307POPC   GL132605  40.127  43.147   9.182
 2307POPC   GL232606  39.768  43.168   9.209
 2307POPC   C1A32607  40.174  43.246   8.743
 2307POPC   D2A32608  40.455  43.067   8.412
 2307POPC   C3A32609  40.301  42.974   7.999
 2307POPC   C4A32610  40.278  43.286   7.679
 2307POPC   C1B32611  39.811  42.875   8.855
 2307POPC   C2B32612  39.624  42.826   8.466
 2307POPC   C3B32613  39.751  42.737   8.045
 2307POPC   C4B32614  39.841  43.059   7.762
 2308POPC   NC332615  41.773   2.221   9.546
 2308POPC   PO432616  41.204   2.077   9.285
 2308POPC   GL132617  41.514   1.872   9.081
 2308POPC   GL232618  41.838   2.041   9.064
 2308POPC   C1A32619  41.516   1.890   8.649
 2308POPC   D2A32620  41.273   2.118   8.385
 2308POPC   C3A32621  41.502   2.076   8.021
 2308POPC   C4A32622  41.419   1.992   7.607
 2308POPC   C1B32623  41.971   1.693   8.792
 2308POPC   C2B32624  41.849   1.573   8.376
 2308POPC   C3B32625  41.949   1.796   8.008
 2308POPC   C4B32626  41.934   2.017   7.655
 2309POPC   NC332627  39.768   0.311   9.521
 2309POPC   PO432628  40.067   0.912   9.456
 2309POPC   GL132629  39.983   0.565   9.138
 2309POPC   GL232630  39.661   0.509   9.050
 2309POPC   C1A32631  40.164   0.459   8.745
 2309POPC   D2A32632  40.183   0.710   8.379
 2309POPC   C3A32633  39.909   0.494   8.118
 2309POPC   C4A32634  39.988   0.307   7.730
 2309POPC   C1B32635  39.644   0.504   8.599
 2309POPC   C2B32636  39.405   0.463   8.204
 2309POPC   C3B32637  39.525   0.531   7.768
 2309POPC   C4B32638  39.731   0.556   7.375
 2310POPC   NC332639  37.917  22.762   9.773
 2310POPC   PO432640  37.616  23.290   9.673
 2310POPC   GL132641  37.578  22.923   9.285
 2310POPC   GL232642  37.618  23.124   9.021
 2310POPC   C1A32643  37.654  22.707   8.794
 2310POPC   D2A32644  37.652  22.577   8.337
 2310POPC   C3A32645  37.510  22.787   7.932
 2310POPC   C4A32646  37.305  23.021   7.590
 2310POPC   C1B32647  37.907  23.120   8.657
 2310POPC   C2B32648  37.720  23.113   8.282
 2310POPC   C3B32649  37.760  23.270   7.889
 2310POPC   C4B32650  38.135  23.298   7.679
 2311POPC   NC332651  37.910  24.653   9.562
 2311POPC   PO432652  37.593  24.048   9.353
 2311POPC   GL132653  37.509  24.258   9.025
 2311POPC   GL232654  37.828  24.354   9.002
 2311POPC   C1A32655  37.352  24.267   8.632
 2311POPC   D2A32656  37.603  24.229   8.253
 2311POPC   C3A32657  37.554  24.469   7.886
 2311POPC   C4A32658  37.923  24.694   7.719
 2311POPC   C1B32659  37.809  24.020   8.687
 2311POPC   C2B32660  38.081  24.023   8.341
 2311POPC   C3B32661  38.037  24.257   7.965
 2311POPC   C4B32662  38.171  24.279   7.537
 2312POPC   NC332663  32.419  44.076   9.419
 2312POPC   PO432664  32.036  43.606   9.204
 2312POPC   GL132665  32.337  43.719   8.954
 2312POPC   GL232666  32.627  43.790   9.037
 2312POPC   C1A32667  32.418  43.669   8.550
 2312POPC   D2A32668  32.110  43.912   8.477
 2312POPC   C3A32669  32.079  43.985   8.099
 2312POPC   C4A32670  32.139  43.807   7.761
 2312POPC   C1B32671  32.557  44.129   8.688
 2312POPC   C2B32672  32.552  44.096   8.245
 2312POPC   C3B32673  32.584  44.032   7.815
 2312POPC   C4B32674  32.284  44.188   7.455
 2313POPC   NC332675  25.378  25.707   9.543
 2313POPC   PO432676  25.095  26.364   9.572
 2313POPC   GL132677  25.300  26.153   9.270
 2313POPC   GL232678  25.058  25.914   9.217
 2313POPC   C1A32679  25.489  26.002   8.883
 2313POPC   D2A32680  25.691  26.035   8.465
 2313POPC   C3A32681  25.480  26.107   8.077
 2313POPC   C4A32682  25.637  26.125   7.675
 2313POPC   C1B32683  24.978  26.152   8.849
 2313POPC   C2B32684  25.189  26.246   8.494
 2313POPC   C3B32685  24.966  26.231   8.103
 2313POPC   C4B32686  24.867  26.120   7.700
 2314POPC   NC332687  35.768  20.734   9.541
 2314POPC   PO432688  36.374  20.568   9.422
 2314POPC   GL132689  36.230  20.558   9.027
 2314POPC   GL232690  35.896  20.558   9.041
 2314POPC   C1A32691  36.150  20.366   8.608
 2314POPC   D2A32692  36.382  20.316   8.200
 2314POPC   C3A32693  36.312  20.554   7.861
 2314POPC   C4A32694  35.999  20.486   7.555
 2314POPC   C1B32695  35.995  20.861   8.707
 2314POPC   C2B32696  36.057  20.768   8.299
 2314POPC   C3B32697  35.900  20.859   7.872
 2314POPC   C4B32698  36.019  20.968   7.406
 2315POPC   NC332699  20.789  19.534   9.999
 2315POPC   PO432700  20.426  19.966   9.600
 2315POPC   GL132701  20.683  19.836   9.245
 2315POPC   GL232702  20.616  20.093   9.108
 2315POPC   C1A32703  20.819  19.577   8.883
 2315POPC   D2A32704  20.878  19.824   8.510
 2315POPC   C3A32705  20.982  19.754   8.073
 2315POPC   C4A32706  20.723  19.871   7.709
 2315POPC   C1B32707  20.335  20.278   8.837
 2315POPC   C2B32708  20.329  20.276   8.415
 2315POPC   C3B32709  20.208  20.202   7.999
 2315POPC   C4B32710  20.253  20.094   7.569
 2316POPC   NC332711  43.574  43.823   9.675
 2316POPC   PO432712  43.711  43.399   9.209
 2316POPC   GL132713  43.878  43.825   9.197
 2316POPC   GL232714  43.715  44.132   9.279
 2316POPC   C1A32715  44.109  43.957   8.841
 2316POPC   D2A32716  44.159  43.643   8.486
 2316POPC   C3A32717  44.097  43.767   8.045
 2316POPC   C4A32718  43.804  43.696   7.685
 2316POPC   C1B32719  43.624  44.219   8.855
 2316POPC   C2B32720  43.801  44.061   8.451
 2316POPC   C3B32721  43.624  43.984   8.059
 2316POPC   C4B32722  43.440  44.052   7.673
 2317POPC   NC332723   4.971  13.481   9.589
 2317POPC   PO432724   5.068  14.117   9.466
 2317POPC   GL132725   5.140  13.788   9.147
 2317POPC   GL232726   5.035  13.418   9.101
 2317POPC   C1A32727   5.166  13.742   8.697
 2317POPC   D2A32728   5.353  13.524   8.362
 2317POPC   C3A32729   5.467  13.678   7.955
 2317POPC   C4A32730   5.481  13.716   7.503
 2317POPC   C1B32731   4.751  13.329   8.779
 2317POPC   C2B32732   4.766  13.423   8.349
 2317POPC   C3B32733   5.019  13.404   8.003
 2317POPC   C4B32734   5.003  13.686   7.696
 2318POPC   NC332735  39.662   6.294   9.504
 2318POPC   PO432736  39.369   6.841   9.289
 2318POPC   GL132737  39.297   6.604   8.944
 2318POPC   GL232738  39.104   6.352   9.036
 2318POPC   C1A32739  39.121   6.683   8.540
 2318POPC   D2A32740  39.131   6.966   8.158
 2318POPC   C3A32741  39.432   6.757   7.850
 2318POPC   C4A32742  39.685   6.348   7.873
 2318POPC   C1B32743  38.789   6.330   8.701
 2318POPC   C2B32744  38.867   6.179   8.324
 2318POPC   C3B32745  39.029   6.471   8.077
 2318POPC   C4B32746  39.013   6.512   7.683
 2319POPC   NC332747  17.054   6.622   9.639
 2319POPC   PO432748  16.544   6.978   9.511
 2319POPC   GL132749  16.828   6.815   9.166
 2319POPC   GL232750  16.833   6.449   9.130
 2319POPC   C1A32751  16.832   6.837   8.689
 2319POPC   D2A32752  17.035   6.790   8.245
 2319POPC   C3A32753  16.755   6.932   7.894
 2319POPC   C4A32754  16.313   6.909   7.691
 2319POPC   C1B32755  16.750   6.331   8.682
 2319POPC   C2B32756  16.662   6.436   8.266
 2319POPC   C3B32757  16.810   6.427   7.847
 2319POPC   C4B32758  16.869   6.251   7.437
 2320POPC   NC332759  12.298  18.827   9.420
 2320POPC   PO432760  11.660  18.907   9.512
 2320POPC   GL132761  11.869  18.876   9.128
 2320POPC   GL232762  12.050  19.188   9.132
 2320POPC   C1A32763  12.081  18.910   8.728
 2320POPC   D2A32764  11.905  19.058   8.374
 2320POPC   C3A32765  12.096  18.939   8.017
 2320POPC   C4A32766  11.775  19.030   7.744
 2320POPC   C1B32767  12.328  19.335   8.827
 2320POPC   C2B32768  12.383  19.242   8.417
 2320POPC   C3B32769  12.209  19.418   8.068
 2320POPC   C4B32770  12.275  19.285   7.659
 2321POPC   NC332771  36.929  12.983   9.735
 2321POPC   PO432772  37.202  12.493   9.703
 2321POPC   GL132773  36.911  12.638   9.312
 2321POPC   GL232774  36.803  12.989   9.214
 2321POPC   C1A32775  36.754  12.587   8.862
 2321POPC   D2A32776  36.855  12.798   8.444
 2321POPC   C3A32777  36.718  12.723   7.996
 2321POPC   C4A32778  36.870  12.793   7.536
 2321POPC   C1B32779  36.551  13.056   8.795
 2321POPC   C2B32780  36.451  13.092   8.334
 2321POPC   C3B32781  36.269  12.983   7.936
 2321POPC   C4B32782  36.403  12.992   7.523
 2322POPC   NC332783  12.697   5.616   9.524
 2322POPC   PO432784  13.067   6.204   9.437
 2322POPC   GL132785  13.008   5.845   9.180
 2322POPC   GL232786  13.301   5.670   9.138
 2322POPC   C1A32787  12.717   5.672   8.873
 2322POPC   D2A32788  12.642   5.854   8.507
 2322POPC   C3A32789  12.595   5.764   8.118
 2322POPC   C4A32790  12.459   5.969   7.751
 2322POPC   C1B32791  13.193   5.848   8.697
 2322POPC   C2B32792  13.111   5.740   8.242
 2322POPC   C3B32793  12.969   5.791   7.795
 2322POPC   C4B32794  13.121   6.101   7.536
 2323POPC   NC332795  20.002  20.145   9.543
 2323POPC   PO432796  19.586  19.676   9.482
 2323POPC   GL132797  19.824  19.852   9.155
 2323POPC   GL232798  20.169  19.833   9.154
 2323POPC   C1A32799  19.899  20.034   8.762
 2323POPC   D2A32800  19.688  19.930   8.421
 2323POPC   C3A32801  19.747  19.829   7.995
 2323POPC   C4A32802  19.420  20.047   7.763
 2323POPC   C1B32803  20.364  19.772   8.741
 2323POPC   C2B32804  20.181  19.784   8.330
 2323POPC   C3B32805  20.268  19.691   7.892
 2323POPC   C4B32806  19.971  19.663   7.558
 2324POPC   NC332807  44.256  12.913   9.589
 2324POPC   PO432808  44.917  12.993   9.603
 2324POPC   GL132809  44.699  12.771   9.270
 2324POPC   GL232810  44.423  12.942   9.093
 2324POPC   C1A32811  44.818  12.753   8.824
 2324POPC   D2A32812  44.658  12.905   8.455
 2324POPC   C3A32813  44.826  12.793   8.071
 2324POPC   C4A32814  44.963  12.723   7.696
 2324POPC   C1B32815  44.321  12.626   8.742
 2324POPC   C2B32816  44.273  12.621   8.272
 2324POPC   C3B32817  44.394  12.624   7.826
 2324POPC   C4B32818  44.187  12.499   7.424
 2325POPC   NC332819  37.634  42.074   9.402
 2325POPC   PO432820  37.276  41.528   9.539
 2325POPC   GL132821  37.441  41.692   9.130
 2325POPC   GL232822  37.756  41.636   9.102
 2325POPC   C1A32823  37.478  41.757   8.659
 2325POPC   D2A32824  37.600  41.518   8.291
 2325POPC   C3A32825  37.297  41.634   7.986
 2325POPC   C4A32826  37.248  41.840   7.600
 2325POPC   C1B32827  37.931  41.913   8.824
 2325POPC   C2B32828  38.021  41.865   8.429
 2325POPC   C3B32829  38.082  41.597   8.107
 2325POPC   C4B32830  37.773  41.605   7.786
 2326POPC   NC332831   0.467   4.741   9.699
 2326POPC   PO432832  44.963   4.628   9.307
 2326POPC   GL132833   0.348   4.463   9.272
 2326POPC   GL232834   0.225   4.127   9.264
 2326POPC   C1A32835   0.449   4.387   8.845
 2326POPC   D2A32836   0.154   4.504   8.518
 2326POPC   C3A32837   0.290   4.399   8.108
 2326POPC   C4A32838   0.391   4.500   7.690
 2326POPC   C1B32839   0.076   3.997   8.834
 2326POPC   C2B32840   0.086   3.626   8.519
 2326POPC   C3B32841   0.110   3.672   8.062
 2326POPC   C4B32842   0.003   4.056   7.843
 2327POPC   NC332843   5.854   7.971   9.358
 2327POPC   PO432844   6.289   8.350   9.206
 2327POPC   GL132845   5.886   8.350   8.989
 2327POPC   GL232846   5.564   8.368   9.204
 2327POPC   C1A32847   5.872   8.342   8.524
 2327POPC   D2A32848   5.920   8.125   8.141
 2327POPC   C3A32849   5.998   8.235   7.719
 2327POPC   C4A32850   6.004   8.012   7.289
 2327POPC   C1B32851   5.424   8.446   8.776
 2327POPC   C2B32852   5.411   8.250   8.325
 2327POPC   C3B32853   5.509   8.355   7.860
 2327POPC   C4B32854   5.683   8.455   7.394
 2328POPC   NC332855  42.076  43.986   9.695
 2328POPC   PO432856  42.383  44.591   9.464
 2328POPC   GL132857  42.497  44.655   9.106
 2328POPC   GL232858  42.304  44.563   8.892
 2328POPC   C1A32859  42.775  44.450   8.839
 2328POPC   D2A32860  42.854  44.409   8.434
 2328POPC   C3A32861  42.584  44.343   8.100
 2328POPC   C4A32862  42.538  44.553   7.728
 2328POPC   C1B32863  42.315  44.343   8.562
 2328POPC   C2B32864  42.085  44.344   8.211
 2328POPC   C3B32865  42.192  44.720   8.050
 2328POPC   C4B32866  42.178  44.933   7.659
 2329POPC   NC332867  21.536  20.024   9.464
 2329POPC   PO432868  20.995  19.644   9.596
 2329POPC   GL132869  21.191  19.773   9.177
 2329POPC   GL232870  21.128  20.113   9.103
 2329POPC   C1A32871  21.340  19.743   8.734
 2329POPC   D2A32872  21.533  19.536   8.350
 2329POPC   C3A32873  21.496  19.726   7.944
 2329POPC   C4A32874  21.787  19.729   7.584
 2329POPC   C1B32875  21.318  20.256   8.724
 2329POPC   C2B32876  21.315  20.076   8.306
 2329POPC   C3B32877  21.221  20.171   7.883
 2329POPC   C4B32878  21.366  19.997   7.482
 2330POPC   NC332879   5.637  35.615   9.806
 2330POPC   PO432880   5.914  35.100   9.529
 2330POPC   GL132881   6.042  35.193   9.090
 2330POPC   GL232882   5.697  35.221   9.041
 2330POPC   C1A32883   6.005  35.405   8.663
 2330POPC   D2A32884   5.778  35.558   8.255
 2330POPC   C3A32885   6.052  35.612   7.867
 2330POPC   C4A32886   6.033  35.657   7.379
 2330POPC   C1B32887   5.535  35.226   8.626
 2330POPC   C2B32888   5.819  35.042   8.344
 2330POPC   C3B32889   5.881  35.146   7.950
 2330POPC   C4B32890   5.740  34.973   7.608
 2331POPC   NC332891  15.302  23.900   9.552
 2331POPC   PO432892  14.985  23.303   9.467
 2331POPC   GL132893  15.242  23.548   9.189
 2331POPC   GL232894  15.114  23.888   9.083
 2331POPC   C1A32895  15.434  23.613   8.803
 2331POPC   D2A32896  15.227  23.472   8.429
 2331POPC   C3A32897  15.427  23.556   8.075
 2331POPC   C4A32898  15.367  23.803   7.753
 2331POPC   C1B32899  15.200  24.078   8.685
 2331POPC   C2B32900  15.136  23.988   8.246
 2331POPC   C3B32901  14.934  23.668   8.009
 2331POPC   C4B32902  14.607  23.455   7.825
 2332POPC   NC332903   4.297  36.289   9.472
 2332POPC   PO432904   4.835  35.741   9.426
 2332POPC   GL132905   4.466  35.887   9.207
 2332POPC   GL232906   4.578  36.202   9.027
 2332POPC   C1A32907   4.198  35.894   8.830
 2332POPC   D2A32908   4.422  36.055   8.461
 2332POPC   C3A32909   4.336  35.889   8.055
 2332POPC   C4A32910   4.456  35.794   7.634
 2332POPC   C1B32911   4.222  36.388   8.800
 2332POPC   C2B32912   4.113  36.496   8.391
 2332POPC   C3B32913   4.367  36.423   8.010
 2332POPC   C4B32914   4.214  36.248   7.615
 2333POPC   NC332915  38.790  23.441   9.435
 2333POPC   PO432916  39.385  23.647   9.680
 2333POPC   GL132917  39.366  23.759   9.211
 2333POPC   GL232918  39.030  23.793   9.137
 2333POPC   C1A32919  39.579  23.525   8.855
 2333POPC   D2A32920  39.644  23.403   8.412
 2333POPC   C3A32921  39.372  23.606   8.064
 2333POPC   C4A32922  39.408  23.481   7.628
 2333POPC   C1B32923  39.106  23.722   8.713
 2333POPC   C2B32924  39.164  23.981   8.376
 2333POPC   C3B32925  39.007  24.043   7.994
 2333POPC   C4B32926  39.016  23.787   7.647
 2334POPC   NC332927  38.139  27.487   9.545
 2334POPC   PO432928  38.793  27.739   9.464
 2334POPC   GL132929  38.608  27.641   9.085
 2334POPC   GL232930  38.279  27.715   9.111
 2334POPC   C1A32931  38.750  27.470   8.685
 2334POPC   D2A32932  38.694  27.206   8.302
 2334POPC   C3A32933  38.591  27.478   7.957
 2334POPC   C4A32934  38.974  27.738   7.831
 2334POPC   C1B32935  38.140  27.521   8.745
 2334POPC   C2B32936  38.238  27.462   8.343
 2334POPC   C3B32937  38.071  27.531   7.946
 2334POPC   C4B32938  38.201  27.665   7.570
 2335POPC   NC332939   9.443  21.992   9.817
 2335POPC   PO432940   9.409  22.472   9.331
 2335POPC   GL132941   9.248  22.328   8.965
 2335POPC   GL232942   8.963  22.087   9.034
 2335POPC   C1A32943   9.093  22.311   8.578
 2335POPC   D2A32944   8.899  22.000   8.369
 2335POPC   C3A32945   8.735  22.126   8.013
 2335POPC   C4A32946   9.034  22.192   7.723
 2335POPC   C1B32947   8.612  21.815   8.883
 2335POPC   C2B32948   8.526  21.692   8.470
 2335POPC   C3B32949   8.630  21.638   8.007
 2335POPC   C4B32950   8.715  21.843   7.564
 2336POPC   NC332951  30.660  26.647   9.520
 2336POPC   PO432952  31.026  27.228   9.335
 2336POPC   GL132953  30.725  26.986   9.151
 2336POPC   GL232954  30.946  26.773   8.972
 2336POPC   C1A32955  30.504  26.933   8.765
 2336POPC   D2A32956  30.487  26.701   8.369
 2336POPC   C3A32957  30.683  26.873   7.963
 2336POPC   C4A32958  31.014  26.955   7.628
 2336POPC   C1B32959  30.980  26.425   8.664
 2336POPC   C2B32960  30.917  26.420   8.225
 2336POPC   C3B32961  30.955  26.465   7.781
 2336POPC   C4B32962  30.992  26.537   7.314
 2337POPC   NC332963   0.907  23.093   9.710
 2337POPC   PO432964   0.281  22.771   9.496
 2337POPC   GL132965   0.382  23.161   9.240
 2337POPC   GL232966   0.731  23.114   9.223
 2337POPC   C1A32967   0.344  23.255   8.780
 2337POPC   D2A32968   0.245  22.976   8.439
 2337POPC   C3A32969   0.179  23.177   8.065
 2337POPC   C4A32970   0.095  23.246   7.625
 2337POPC   C1B32971   0.613  22.848   8.888
 2337POPC   C2B32972   0.762  22.873   8.478
 2337POPC   C3B32973   0.658  22.825   8.044
 2337POPC   C4B32974   0.575  23.091   7.733
 2338POPC   NC332975   8.729  18.778   9.524
 2338POPC   PO432976   9.105  19.356   9.446
 2338POPC   GL132977   8.886  19.335   9.100
 2338POPC   GL232978   8.823  19.001   9.089
 2338POPC   C1A32979   8.815  19.519   8.730
 2338POPC   D2A32980   8.832  19.304   8.370
 2338POPC   C3A32981   9.015  19.330   8.010
 2338POPC   C4A32982   8.905  19.132   7.676
 2338POPC   C1B32983   8.928  18.786   8.729
 2338POPC   C2B32984   8.780  18.793   8.353
 2338POPC   C3B32985   8.979  18.745   7.981
 2338POPC   C4B32986   9.154  18.711   7.558
 2339POPC   NC332987  33.904  15.599   9.654
 2339POPC   PO432988  34.168  15.089   9.468
 2339POPC   GL132989  34.028  15.401   9.146
 2339POPC   GL232990  33.782  15.155   9.073
 2339POPC   C1A32991  33.703  15.597   8.834
 2339POPC   D2A32992  33.465  15.432   8.432
 2339POPC   C3A32993  33.655  15.388   7.993
 2339POPC   C4A32994  34.070  15.528   7.818
 2339POPC   C1B32995  33.912  15.185   8.641
 2339POPC   C2B32996  34.105  15.284   8.271
 2339POPC   C3B32997  33.998  15.008   7.922
 2339POPC   C4B32998  33.573  14.881   7.724
 2340POPC   NC332999  27.640  34.976   9.554
 2340POPC   PO433000  27.432  35.659   9.570
 2340POPC   GL133001  27.701  35.457   9.266
 2340POPC   GL233002  27.453  35.239   9.163
 2340POPC   C1A33003  27.816  35.376   8.825
 2340POPC   D2A33004  27.892  35.579   8.433
 2340POPC   C3A33005  27.907  35.438   8.028
 2340POPC   C4A33006  27.740  35.686   7.710
 2340POPC   C1B33007  27.226  35.575   8.926
 2340POPC   C2B33008  27.406  35.595   8.560
 2340POPC   C3B33009  27.431  35.614   8.143
 2340POPC   C4B33010  27.276  35.495   7.775
 2341POPC   NC333011  28.234  19.247   9.491
 2341POPC   PO433012  28.698  18.908   9.371
 2341POPC   GL133013  28.564  18.989   9.028
 2341POPC   GL233014  28.762  18.720   8.884
 2341POPC   C1A33015  28.312  19.186   8.708
 2341POPC   D2A33016  28.063  19.398   8.412
 2341POPC   C3A33017  28.221  19.399   8.016
 2341POPC   C4A33018  28.066  19.375   7.614
 2341POPC   C1B33019  28.786  19.072   8.599
 2341POPC   C2B33020  28.660  19.172   8.176
 2341POPC   C3B33021  28.588  19.002   7.788
 2341POPC   C4B33022  28.229  18.740   7.798
 2342POPC   NC333023   1.216  11.029   9.422
 2342POPC   PO433024   0.722  11.351   9.341
 2342POPC   GL133025   0.763  11.240   8.984
 2342POPC   GL233026   0.818  10.907   9.107
 2342POPC   C1A33027   1.110  11.165   8.728
 2342POPC   D2A33028   1.427  11.361   8.468
 2342POPC   C3A33029   1.424  11.142   8.093
 2342POPC   C4A33030   1.323  11.238   7.682
 2342POPC   C1B33031   0.764  10.774   8.734
 2342POPC   C2B33032   0.986  10.861   8.320
 2342POPC   C3B33033   0.981  10.884   7.879
 2342POPC   C4B33034   0.805  11.139   7.581
 2343POPC   NC333035  32.372  36.957   9.509
 2343POPC   PO433036  31.863  36.639   9.424
 2343POPC   GL133037  32.058  36.862   9.108
 2343POPC   GL233038  32.325  36.597   9.107
 2343POPC   C1A33039  32.124  37.232   8.835
 2343POPC   D2A33040  32.365  37.282   8.435
 2343POPC   C3A33041  32.190  37.079   8.073
 2343POPC   C4A33042  32.294  37.129   7.635
 2343POPC   C1B33043  32.108  36.550   8.714
 2343POPC   C2B33044  31.998  36.623   8.309
 2343POPC   C3B33045  32.238  36.559   7.980
 2343POPC   C4B33046  32.365  36.628   7.588
 2344POPC   NC333047  14.212   6.078   9.518
 2344POPC   PO433048  14.897   6.039   9.565
 2344POPC   GL133049  14.667   5.936   9.195
 2344POPC   GL233050  14.305   5.863   9.082
 2344POPC   C1A33051  14.713   5.710   8.807
 2344POPC   D2A33052  14.841   5.867   8.419
 2344POPC   C3A33053  14.598   5.887   8.091
 2344POPC   C4A33054  14.384   5.661   7.761
 2344POPC   C1B33055  14.125   6.132   8.769
 2344POPC   C2B33056  14.251   6.251   8.366
 2344POPC   C3B33057  14.137   6.065   8.002
 2344POPC   C4B33058  13.887   5.941   7.727
 2345POPC   NC333059  44.709   0.003   9.508
 2345POPC   PO433060  44.384   0.624   9.507
 2345POPC   GL133061  44.444   0.348   9.185
 2345POPC   GL233062  44.789   0.377   9.121
 2345POPC   C1A33063  44.271   0.174   8.801
 2345POPC   D2A33064  44.319   0.353   8.381
 2345POPC   C3A33065  44.371   0.141   7.969
 2345POPC   C4A33066  44.492   0.241   7.530
 2345POPC   C1B33067  44.643   0.529   8.741
 2345POPC   C2B33068  44.733   0.638   8.338
 2345POPC   C3B33069  44.734   0.510   7.926
 2345POPC   C4B33070  44.766   0.679   7.516
 2346POPC   NC333071  39.036   4.799   9.677
 2346POPC   PO433072  39.574   5.111   9.464
 2346POPC   GL133073  39.367   4.957   9.096
 2346POPC   GL233074  39.078   4.759   9.172
 2346POPC   C1A33075  39.413   4.947   8.652
 2346POPC   D2A33076  39.276   5.111   8.270
 2346POPC   C3A33077  39.262   4.907   7.863
 2346POPC   C4A33078  39.212   5.005   7.415
 2346POPC   C1B33079  38.917   5.016   8.823
 2346POPC   C2B33080  38.797   5.208   8.438
 2346POPC   C3B33081  38.913   5.359   8.014
 2346POPC   C4B33082  38.768   5.263   7.606
 2347POPC   NC333083  31.893  42.038   9.482
 2347POPC   PO433084  32.167  42.707   9.460
 2347POPC   GL133085  32.291  42.509   9.110
 2347POPC   GL233086  32.389  42.170   9.200
 2347POPC   C1A33087  32.467  42.396   8.735
 2347POPC   D2A33088  32.256  42.237   8.400
 2347POPC   C3A33089  32.378  42.374   8.006
 2347POPC   C4A33090  31.966  42.428   7.873
 2347POPC   C1B33091  32.192  41.940   8.835
 2347POPC   C2B33092  32.164  41.733   8.418
 2347POPC   C3B33093  32.215  41.884   8.006
 2347POPC   C4B33094  32.218  42.051   7.598
 2348POPC   NC333095  14.162  12.710   9.526
 2348POPC   PO433096  14.709  13.067   9.591
 2348POPC   GL133097  14.704  12.852   9.178
 2348POPC   GL233098  14.471  12.563   9.131
 2348POPC   C1A33099  14.615  12.883   8.713
 2348POPC   D2A33100  14.305  13.020   8.397
 2348POPC   C3A33101  14.467  12.998   7.974
 2348POPC   C4A33102  14.265  13.158   7.639
 2348POPC   C1B33103  14.139  12.689   8.806
 2348POPC   C2B33104  14.039  12.522   8.394
 2348POPC   C3B33105  14.053  12.669   7.947
 2348POPC   C4B33106  14.022  12.744   7.492
 2349POPC   NC333107   7.043  18.680   9.547
 2349POPC   PO433108   7.297  18.064   9.489
 2349POPC   GL133109   7.317  18.174   9.064
 2349POPC   GL233110   7.078  18.462   9.070
 2349POPC   C1A33111   7.533  18.066   8.651
 2349POPC   D2A33112   7.672  18.410   8.358
 2349POPC   C3A33113   7.588  18.430   7.940
 2349POPC   C4A33114   7.212  18.489   7.766
 2349POPC   C1B33115   7.171  18.431   8.614
 2349POPC   C2B33116   7.171  18.182   8.224
 2349POPC   C3B33117   6.895  18.112   7.857
 2349POPC   C4B33118   6.853  18.213   7.419
 2350POPC   NC333119  35.490  35.278   9.661
 2350POPC   PO433120  34.963  35.669   9.333
 2350POPC   GL133121  35.240  35.348   9.184
 2350POPC   GL233122  35.504  35.103   9.191
 2350POPC   C1A33123  35.414  35.469   8.778
 2350POPC   D2A33124  35.331  35.694   8.375
 2350POPC   C3A33125  35.540  35.655   7.963
 2350POPC   C4A33126  35.649  35.765   7.523
 2350POPC   C1B33127  35.396  34.952   8.792
 2350POPC   C2B33128  35.230  35.123   8.429
 2350POPC   C3B33129  35.319  35.090   8.040
 2350POPC   C4B33130  35.452  35.251   7.663
 2351POPC   NC333131  19.326  30.443   9.480
 2351POPC   PO433132  19.916  30.667   9.551
 2351POPC   GL133133  19.842  30.759   9.127
 2351POPC   GL233134  19.666  30.464   9.017
 2351POPC   C1A33135  19.782  30.804   8.670
 2351POPC   D2A33136  19.960  30.709   8.306
 2351POPC   C3A33137  19.679  30.631   7.983
 2351POPC   C4A33138  19.458  30.899   7.684
 2351POPC   C1B33139  20.120  30.461   8.796
 2351POPC   C2B33140  20.253  30.309   8.359
 2351POPC   C3B33141  20.223  30.520   7.924
 2351POPC   C4B33142  19.940  30.447   7.568
 2352POPC   NC333143   8.713  24.733   9.688
 2352POPC   PO433144   9.106  25.343   9.486
 2352POPC   GL133145   8.865  25.160   9.219
 2352POPC   GL233146   9.065  24.847   9.303
 2352POPC   C1A33147   8.738  25.254   8.789
 2352POPC   D2A33148   8.814  25.557   8.474
 2352POPC   C3A33149   8.868  25.365   8.065
 2352POPC   C4A33150   8.783  25.104   7.661
 2352POPC   C1B33151   9.153  24.949   8.858
 2352POPC   C2B33152   8.991  24.919   8.430
 2352POPC   C3B33153   9.092  24.919   8.013
 2352POPC   C4B33154   9.262  25.191   7.639
 2353POPC   NC333155   9.058  29.675   9.493
 2353POPC   PO433156   8.807  29.091   9.351
 2353POPC   GL133157   8.988  29.330   9.102
 2353POPC   GL233158   9.307  29.418   9.097
 2353POPC   C1A33159   9.001  29.176   8.705
 2353POPC   D2A33160   8.933  29.367   8.355
 2353POPC   C3A33161   9.029  29.150   8.032
 2353POPC   C4A33162   8.798  29.290   7.741
 2353POPC   C1B33163   9.499  29.267   8.684
 2353POPC   C2B33164   9.444  29.418   8.258
 2353POPC   C3B33165   9.414  29.410   7.803
 2353POPC   C4B33166   9.426  29.344   7.347
 2354POPC   NC333167  12.334  20.412   9.403
 2354POPC   PO433168  12.431  20.954   9.666
 2354POPC   GL133169  12.229  21.011   9.265
 2354POPC   GL233170  11.875  20.996   9.355
 2354POPC   C1A33171  12.234  20.839   8.841
 2354POPC   D2A33172  12.133  20.519   8.523
 2354POPC   C3A33173  12.264  20.558   8.096
 2354POPC   C4A33174  12.254  20.295   7.743
 2354POPC   C1B33175  11.762  20.676   9.028
 2354POPC   C2B33176  11.617  20.604   8.585
 2354POPC   C3B33177  11.741  20.539   8.152
 2354POPC   C4B33178  11.760  20.906   7.943
 2355POPC   NC333179  24.191  37.605   9.627
 2355POPC   PO433180  23.521  37.786   9.553
 2355POPC   GL133181  23.775  37.717   9.233
 2355POPC   GL233182  24.018  37.930   9.227
 2355POPC   C1A33183  23.689  37.761   8.833
 2355POPC   D2A33184  23.608  37.687   8.446
 2355POPC   C3A33185  23.768  37.716   8.064
 2355POPC   C4A33186  23.479  37.613   7.755
 2355POPC   C1B33187  24.067  38.096   8.822
 2355POPC   C2B33188  24.090  37.940   8.405
 2355POPC   C3B33189  24.139  38.076   7.976
 2355POPC   C4B33190  24.049  38.098   7.540
 2356POPC   NC333191  23.519  10.924   9.372
 2356POPC   PO433192  23.529  10.307   9.660
 2356POPC   GL133193  23.686  10.454   9.276
 2356POPC   GL233194  23.773  10.182   9.153
 2356POPC   C1A33195  23.684  10.593   8.821
 2356POPC   D2A33196  23.980  10.605   8.501
 2356POPC   C3A33197  23.904  10.605   8.079
 2356POPC   C4A33198  23.616  10.860   7.847
 2356POPC   C1B33199  23.820  10.095   8.748
 2356POPC   C2B33200  23.623  10.245   8.397
 2356POPC   C3B33201  23.416  10.440   8.055
 2356POPC   C4B33202  23.687  10.317   7.711
 2357POPC   NC333203  23.875  39.584   9.905
 2357POPC   PO433204  24.003  40.203   9.618
 2357POPC   GL133205  23.768  40.162   9.239
 2357POPC   GL233206  23.589  39.838   9.288
 2357POPC   C1A33207  23.697  40.185   8.777
 2357POPC   D2A33208  23.879  40.001   8.381
 2357POPC   C3A33209  23.803  40.005   7.924
 2357POPC   C4A33210  23.852  39.581   7.755
 2357POPC   C1B33211  23.375  39.784   8.868
 2357POPC   C2B33212  23.297  40.039   8.456
 2357POPC   C3B33213  23.310  39.881   8.027
 2357POPC   C4B33214  23.413  39.920   7.601
 2358POPC   NC333215  37.508   0.116   9.431
 2358POPC   PO433216  37.745   0.654   9.642
 2358POPC   GL133217  37.682   0.535   9.199
 2358POPC   GL233218  37.962   0.500   9.014
 2358POPC   C1A33219  37.589   0.309   8.774
 2358POPC   D2A33220  37.810   0.243   8.395
 2358POPC   C3A33221  37.574   0.310   8.053
 2358POPC   C4A33222  37.734   0.283   7.674
 2358POPC   C1B33223  38.078   0.747   8.686
 2358POPC   C2B33224  38.205   0.620   8.321
 2358POPC   C3B33225  38.104   0.469   7.973
 2358POPC   C4B33226  37.896   0.772   7.777
 2359POPC   NC333227  44.421  35.328   9.565
 2359POPC   PO433228   0.080  35.493   9.493
 2359POPC   GL133229  44.787  35.341   9.175
 2359POPC   GL233230  44.452  35.485   9.075
 2359POPC   C1A33231  44.828  35.262   8.734
 2359POPC   D2A33232   0.001  35.430   8.342
 2359POPC   C3A33233  44.726  35.423   7.985
 2359POPC   C4A33234  44.479  35.104   7.854
 2359POPC   C1B33235  44.433  35.574   8.624
 2359POPC   C2B33236  44.123  35.690   8.327
 2359POPC   C3B33237  44.159  35.860   7.927
 2359POPC   C4B33238  44.328  35.798   7.515
 2360POPC   NC333239   2.594   7.117   9.802
 2360POPC   PO433240   2.976   7.567   9.486
 2360POPC   GL133241   2.979   7.532   9.035
 2360POPC   GL233242   2.692   7.746   9.085
 2360POPC   C1A33243   2.925   7.528   8.604
 2360POPC   D2A33244   3.093   7.415   8.216
 2360POPC   C3A33245   2.919   7.654   7.910
 2360POPC   C4A33246   2.622   7.413   7.710
 2360POPC   C1B33247   2.443   7.610   8.714
 2360POPC   C2B33248   2.549   7.706   8.261
 2360POPC   C3B33249   2.396   7.872   7.822
 2360POPC   C4B33250   2.520   7.758   7.346
 2361POPC   NC333251   2.276  18.870   9.424
 2361POPC   PO433252   1.834  19.373   9.538
 2361POPC   GL133253   1.897  19.329   9.102
 2361POPC   GL233254   2.166  19.107   8.996
 2361POPC   C1A33255   1.758  19.104   8.705
 2361POPC   D2A33256   1.961  18.836   8.382
 2361POPC   C3A33257   1.792  18.889   7.959
 2361POPC   C4A33258   1.753  19.134   7.547
 2361POPC   C1B33259   2.426  18.823   8.729
 2361POPC   C2B33260   2.467  18.642   8.298
 2361POPC   C3B33261   2.327  18.870   7.927
 2361POPC   C4B33262   2.078  18.728   7.563
 2362POPC   NC333263  34.074  29.971   9.774
 2362POPC   PO433264  33.565  30.260   9.517
 2362POPC   GL133265  33.487  30.048   9.110
 2362POPC   GL233266  33.194  30.249   9.049
 2362POPC   C1A33267  33.707  29.857   8.746
 2362POPC   D2A33268  33.698  29.977   8.310
 2362POPC   C3A33269  33.875  29.861   7.942
 2362POPC   C4A33270  33.904  30.198   7.652
 2362POPC   C1B33271  33.335  30.184   8.619
 2362POPC   C2B33272  33.234  30.090   8.186
 2362POPC   C3B33273  33.431  30.090   7.812
 2362POPC   C4B33274  33.357  30.318   7.444
 2363POPC   NC333275  20.405  37.419   9.430
 2363POPC   PO433276  20.752  37.932   9.747
 2363POPC   GL133277  20.838  37.959   9.295
 2363POPC   GL233278  20.520  38.053   9.247
 2363POPC   C1A33279  20.792  37.711   8.889
 2363POPC   D2A33280  20.994  37.610   8.491
 2363POPC   C3A33281  20.767  37.645   8.126
 2363POPC   C4A33282  20.874  37.505   7.739
 2363POPC   C1B33283  20.571  38.158   8.827
 2363POPC   C2B33284  20.392  38.114   8.428
 2363POPC   C3B33285  20.501  38.067   8.025
 2363POPC   C4B33286  20.349  37.713   7.788
 2364POPC   NC333287  31.597  39.396   9.559
 2364POPC   PO433288  31.360  38.821   9.295
 2364POPC   GL133289  31.497  39.164   9.101
 2364POPC   GL233290  31.228  39.400   9.184
 2364POPC   C1A33291  31.793  39.050   8.774
 2364POPC   D2A33292  31.708  38.814   8.382
 2364POPC   C3A33293  31.556  39.113   8.044
 2364POPC   C4A33294  31.253  39.165   7.701
 2364POPC   C1B33295  31.377  39.544   8.774
 2364POPC   C2B33296  31.295  39.495   8.335
 2364POPC   C3B33297  31.138  39.612   7.934
 2364POPC   C4B33298  31.481  39.609   7.629
 2365POPC   NC333299  32.748   8.528   9.414
 2365POPC   PO433300  32.877   9.168   9.739
 2365POPC   GL133301  32.893   8.998   9.306
 2365POPC   GL233302  33.185   8.759   9.267
 2365POPC   C1A33303  32.807   9.055   8.838
 2365POPC   D2A33304  33.174   9.136   8.550
 2365POPC   C3A33305  33.083   9.115   8.091
 2365POPC   C4A33306  32.668   9.055   7.861
 2365POPC   C1B33307  33.098   8.656   8.839
 2365POPC   C2B33308  32.856   8.740   8.439
 2365POPC   C3B33309  32.898   8.635   8.021
 2365POPC   C4B33310  33.089   8.834   7.645
 2366POPC   NC333311   8.627  12.225   9.544
 2366POPC   PO433312   9.277  12.002   9.403
 2366POPC   GL133313   8.979  12.010   9.074
 2366POPC   GL233314   8.896  12.355   9.068
 2366POPC   C1A33315   9.047  12.102   8.616
 2366POPC   D2A33316   9.164  12.137   8.186
 2366POPC   C3A33317   8.967  11.880   7.876
 2366POPC   C4A33318   8.786  11.983   7.461
 2366POPC   C1B33319   8.620  12.361   8.666
 2366POPC   C2B33320   8.664  12.241   8.227
 2366POPC   C3B33321   8.832  12.363   7.815
 2366POPC   C4B33322   8.693  12.509   7.382
 2367POPC   NC333323  21.277  19.329   9.415
 2367POPC   PO433324  21.546  18.768   9.529
 2367POPC   GL133325  21.531  18.953   9.150
 2367POPC   GL233326  21.160  18.889   9.153
 2367POPC   C1A33327  21.492  19.251   8.780
 2367POPC   D2A33328  21.095  19.329   8.497
 2367POPC   C3A33329  21.195  19.291   8.042
 2367POPC   C4A33330  21.558  19.253   7.751
 2367POPC   C1B33331  21.290  18.805   8.740
 2367POPC   C2B33332  21.259  18.860   8.320
 2367POPC   C3B33333  21.355  18.816   7.903
 2367POPC   C4B33334  20.999  18.957   7.688
 2368POPC   NC333335  32.588  15.469   9.609
 2368POPC   PO433336  32.086  15.740   9.698
 2368POPC   GL133337  32.244  15.631   9.235
 2368POPC   GL233338  32.588  15.554   9.105
 2368POPC   C1A33339  32.228  15.451   8.769
 2368POPC   D2A33340  32.289  15.162   8.411
 2368POPC   C3A33341  32.230  15.218   7.967
 2368POPC   C4A33342  32.242  14.994   7.546
 2368POPC   C1B33343  32.746  15.718   8.734
 2368POPC   C2B33344  32.966  15.603   8.364
 2368POPC   C3B33345  33.032  15.250   8.084
 2368POPC   C4B33346  32.703  15.029   7.819
 2369POPC   NC333347  44.980  27.125   9.864
 2369POPC   PO433348  44.481  27.477   9.520
 2369POPC   GL133349  44.464  27.431   9.102
 2369POPC   GL233350  44.329  27.131   9.145
 2369POPC   C1A33351  44.707  27.337   8.732
 2369POPC   D2A33352  44.665  27.614   8.367
 2369POPC   C3A33353  44.883  27.621   7.970
 2369POPC   C4A33354  44.812  27.793   7.519
 2369POPC   C1B33355  44.150  27.165   8.748
 2369POPC   C2B33356  44.394  27.180   8.367
 2369POPC   C3B33357  44.405  27.375   7.979
 2369POPC   C4B33358  44.261  27.165   7.628
 2370POPC   NC333359  24.026  14.008   9.436
 2370POPC   PO433360  24.173  14.639   9.265
 2370POPC   GL133361  23.707  14.576   9.122
 2370POPC   GL233362  23.431  14.829   9.202
 2370POPC   C1A33363  23.611  14.303   8.778
 2370POPC   D2A33364  23.878  14.290   8.410
 2370POPC   C3A33365  23.765  14.347   7.988
 2370POPC   C4A33366  23.912  14.132   7.616
 2370POPC   C1B33367  23.294  14.713   8.795
 2370POPC   C2B33368  23.468  14.638   8.390
 2370POPC   C3B33369  23.394  14.712   7.979
 2370POPC   C4B33370  23.612  14.596   7.570
 2371POPC   NC333371  43.472  20.494   9.251
 2371POPC   PO433372  43.807  20.955   9.650
 2371POPC   GL133373  43.906  20.805   9.208
 2371POPC   GL233374  43.699  20.830   8.893
 2371POPC   C1A33375  44.159  20.642   8.836
 2371POPC   D2A33376  43.963  20.592   8.410
 2371POPC   C3A33377  43.935  20.920   8.102
 2371POPC   C4A33378  44.102  20.935   7.703
 2371POPC   C1B33379  43.502  20.492   8.622
 2371POPC   C2B33380  43.514  20.419   8.185
 2371POPC   C3B33381  43.789  20.477   7.867
 2371POPC   C4B33382  43.652  20.364   7.485
 2372POPC   NC333383  41.937  26.176   9.337
 2372POPC   PO433384  42.195  25.582   9.559
 2372POPC   GL133385  42.279  25.880   9.143
 2372POPC   GL233386  42.510  26.121   9.206
 2372POPC   C1A33387  42.240  26.147   8.731
 2372POPC   D2A33388  42.183  26.317   8.282
 2372POPC   C3A33389  42.029  26.044   7.910
 2372POPC   C4A33390  42.142  26.044   7.463
 2372POPC   C1B33391  42.713  25.897   8.836
 2372POPC   C2B33392  42.609  26.028   8.394
 2372POPC   C3B33393  42.538  26.089   7.950
 2372POPC   C4B33394  42.632  25.903   7.541
 2373POPC   NC333395  28.133  20.136   9.576
 2373POPC   PO433396  28.554  19.585   9.569
 2373POPC   GL133397  28.255  19.720   9.282
 2373POPC   GL233398  28.507  19.943   9.137
 2373POPC   C1A33399  28.159  19.634   8.874
 2373POPC   D2A33400  28.304  19.864   8.533
 2373POPC   C3A33401  28.061  19.865   8.155
 2373POPC   C4A33402  28.218  19.864   7.736
 2373POPC   C1B33403  28.654  19.531   8.914
 2373POPC   C2B33404  28.745  19.560   8.481
 2373POPC   C3B33405  28.587  19.736   8.125
 2373POPC   C4B33406  28.625  19.541   7.745
 2374POPC   NC333407   6.006  27.974   9.535
 2374POPC   PO433408   5.823  28.591   9.502
 2374POPC   GL133409   6.097  28.384   9.218
 2374POPC   GL233410   5.819  28.194   9.095
 2374POPC   C1A33411   6.148  28.424   8.765
 2374POPC   D2A33412   5.913  28.657   8.439
 2374POPC   C3A33413   6.031  28.659   7.999
 2374POPC   C4A33414   5.955  28.327   7.723
 2374POPC   C1B33415   5.650  28.278   8.657
 2374POPC   C2B33416   5.683  28.309   8.170
 2374POPC   C3B33417   5.532  28.591   7.825
 2374POPC   C4B33418   5.613  28.510   7.363
 2375POPC   NC333419  15.419  23.116   9.457
 2375POPC   PO433420  15.119  22.546   9.447
 2375POPC   GL133421  15.276  22.748   9.106
 2375POPC   GL233422  15.093  23.058   9.037
 2375POPC   C1A33423  15.149  22.680   8.670
 2375POPC   D2A33424  14.960  22.751   8.260
 2375POPC   C3A33425  15.052  23.119   7.999
 2375POPC   C4A33426  15.190  22.827   7.694
 2375POPC   C1B33427  15.427  23.101   8.750
 2375POPC   C2B33428  15.454  22.991   8.318
 2375POPC   C3B33429  15.586  23.104   7.920
 2375POPC   C4B33430  15.370  23.281   7.561
 2376POPC   NC333431   6.848   5.377   9.626
 2376POPC   PO433432   6.787   4.761   9.636
 2376POPC   GL133433   6.922   5.012   9.239
 2376POPC   GL233434   6.735   5.334   9.130
 2376POPC   C1A33435   6.970   5.102   8.748
 2376POPC   D2A33436   7.108   5.143   8.307
 2376POPC   C3A33437   6.739   5.061   8.005
 2376POPC   C4A33438   6.424   4.917   7.667
 2376POPC   C1B33439   6.554   5.426   8.695
 2376POPC   C2B33440   6.615   5.556   8.256
 2376POPC   C3B33441   6.476   5.526   7.814
 2376POPC   C4B33442   6.266   5.354   7.421
 2377POPC   NC333443  33.985  31.564   9.865
 2377POPC   PO433444  33.422  31.221   9.706
 2377POPC   GL133445  33.749  31.403   9.410
 2377POPC   GL233446  33.674  31.710   9.331
 2377POPC   C1A33447  33.978  31.444   8.979
 2377POPC   D2A33448  34.101  31.191   8.570
 2377POPC   C3A33449  34.097  31.280   8.114
 2377POPC   C4A33450  34.032  31.592   7.789
 2377POPC   C1B33451  33.505  31.592   8.922
 2377POPC   C2B33452  33.690  31.537   8.504
 2377POPC   C3B33453  33.569  31.562   8.058
 2377POPC   C4B33454  33.234  31.377   7.796
 2378POPC   NC333455   9.259  12.470   9.501
 2378POPC   PO433456   9.955  12.924   9.438
 2378POPC   GL133457   9.773  12.968   9.038
 2378POPC   GL233458   9.679  12.676   9.086
 2378POPC   C1A33459   9.436  12.855   8.696
 2378POPC   D2A33460   9.200  12.588   8.430
 2378POPC   C3A33461   9.443  12.538   8.059
 2378POPC   C4A33462   9.604  12.803   7.770
 2378POPC   C1B33463   9.919  12.622   8.694
 2378POPC   C2B33464   9.865  12.712   8.286
 2378POPC   C3B33465  10.081  12.688   7.919
 2378POPC   C4B33466  10.119  12.742   7.497
 2379POPC   NC333467  27.358  19.610   9.489
 2379POPC   PO433468  27.674  20.134   9.525
 2379POPC   GL133469  27.473  19.984   9.156
 2379POPC   GL233470  27.739  19.780   9.111
 2379POPC   C1A33471  27.349  19.844   8.745
 2379POPC   D2A33472  27.543  19.883   8.367
 2379POPC   C3A33473  27.645  19.551   8.119
 2379POPC   C4A33474  27.732  19.751   7.751
 2379POPC   C1B33475  27.847  20.001   8.758
 2379POPC   C2B33476  27.919  20.273   8.431
 2379POPC   C3B33477  27.711  20.248   8.056
 2379POPC   C4B33478  27.865  20.249   7.691
 2380POPC   NC333479  37.556  38.060   9.697
 2380POPC   PO433480  37.274  37.635   9.307
 2380POPC   GL133481  37.621  37.526   9.061
 2380POPC   GL233482  37.934  37.494   9.225
 2380POPC   C1A33483  37.732  37.386   8.670
 2380POPC   D2A33484  37.739  37.188   8.288
 2380POPC   C3A33485  37.843  37.528   8.078
 2380POPC   C4A33486  37.612  37.657   7.777
 2380POPC   C1B33487  38.108  37.761   8.890
 2380POPC   C2B33488  38.072  37.811   8.459
 2380POPC   C3B33489  38.124  37.960   8.047
 2380POPC   C4B33490  38.095  37.748   7.653
 2381POPC   NC333491   5.483  14.274   9.371
 2381POPC   PO433492   4.900  14.750   9.468
 2381POPC   GL133493   5.034  14.493   9.135
 2381POPC   GL233494   5.351  14.565   8.965
 2381POPC   C1A33495   4.925  14.293   8.771
 2381POPC   D2A33496   4.800  14.418   8.388
 2381POPC   C3A33497   5.058  14.500   8.039
 2381POPC   C4A33498   4.756  14.213   7.865
 2381POPC   C1B33499   5.421  14.199   8.659
 2381POPC   C2B33500   5.229  14.047   8.237
 2381POPC   C3B33501   5.271  14.123   7.749
 2381POPC   C4B33502   5.354  14.173   7.268
 2382POPC   NC333503  31.256  17.623   9.872
 2382POPC   PO433504  31.779  17.458   9.548
 2382POPC   GL133505  31.519  17.603   9.189
 2382POPC   GL233506  31.166  17.667   9.293
 2382POPC   C1A33507  31.626  17.535   8.754
 2382POPC   D2A33508  31.385  17.491   8.378
 2382POPC   C3A33509  31.599  17.641   8.033
 2382POPC   C4A33510  31.885  17.547   7.731
 2382POPC   C1B33511  31.115  17.694   8.798
 2382POPC   C2B33512  31.092  17.905   8.346
 2382POPC   C3B33513  31.118  17.673   7.934
 2382POPC   C4B33514  31.342  17.384   7.649
 2383POPC   NC333515  24.434  40.778   9.559
 2383POPC   PO433516  23.938  41.108   9.198
 2383POPC   GL133517  24.348  40.939   9.033
 2383POPC   GL233518  24.642  40.687   9.083
 2383POPC   C1A33519  24.486  40.793   8.608
 2383POPC   D2A33520  24.801  40.963   8.308
 2383POPC   C3A33521  24.569  40.937   7.937
 2383POPC   C4A33522  24.167  41.122   7.887
 2383POPC   C1B33523  24.949  40.651   8.717
 2383POPC   C2B33524  24.793  40.468   8.297
 2383POPC   C3B33525  24.688  40.416   7.881
 2383POPC   C4B33526  24.550  40.646   7.506
 2384POPC   NC333527  13.100  37.083   9.523
 2384POPC   PO433528  12.490  36.704   9.441
 2384POPC   GL133529  12.825  36.790   9.180
 2384POPC   GL233530  12.800  37.152   9.114
 2384POPC   C1A33531  12.778  36.684   8.757
 2384POPC   D2A33532  12.912  36.712   8.334
 2384POPC   C3A33533  12.646  36.680   7.995
 2384POPC   C4A33534  12.621  37.029   7.706
 2384POPC   C1B33535  13.137  37.019   8.818
 2384POPC   C2B33536  13.194  37.122   8.397
 2384POPC   C3B33537  12.964  37.268   8.046
 2384POPC   C4B33538  13.083  37.238   7.646
 2385POPC   NC333539  13.187  19.241   9.616
 2385POPC   PO433540  12.442  19.283   9.488
 2385POPC   GL133541  12.652  19.068   9.140
 2385POPC   GL233542  13.012  19.083   9.118
 2385POPC   C1A33543  12.647  18.874   8.736
 2385POPC   D2A33544  12.858  18.748   8.345
 2385POPC   C3A33545  12.617  18.920   7.984
 2385POPC   C4A33546  12.724  19.075   7.557
 2385POPC   C1B33547  13.175  18.968   8.682
 2385POPC   C2B33548  13.340  19.058   8.253
 2385POPC   C3B33549  13.116  19.079   7.871
 2385POPC   C4B33550  13.192  19.260   7.439
 2386POPC   NC333551  42.673  10.727   9.573
 2386POPC   PO433552  42.337  10.181   9.561
 2386POPC   GL133553  42.319  10.354   9.146
 2386POPC   GL233554  42.492  10.657   9.110
 2386POPC   C1A33555  42.178  10.492   8.705
 2386POPC   D2A33556  42.061  10.359   8.282
 2386POPC   C3A33557  42.408  10.329   7.994
 2386POPC   C4A33558  42.448  10.548   7.607
 2386POPC   C1B33559  42.604  10.784   8.697
 2386POPC   C2B33560  42.448  10.740   8.287
 2386POPC   C3B33561  42.501  10.946   7.909
 2386POPC   C4B33562  42.661  11.020   7.496
 2387POPC   NC333563  18.553  23.079   9.516
 2387POPC   PO433564  17.945  22.900   9.628
 2387POPC   GL133565  18.202  23.008   9.163
 2387POPC   GL233566  18.400  22.725   8.991
 2387POPC   C1A33567  18.490  23.199   8.819
 2387POPC   D2A33568  18.425  23.250   8.362
 2387POPC   C3A33569  18.532  22.888   8.100
 2387POPC   C4A33570  18.347  22.776   7.698
 2387POPC   C1B33571  18.128  22.812   8.674
 2387POPC   C2B33572  18.031  22.885   8.241
 2387POPC   C3B33573  17.961  22.563   7.947
 2387POPC   C4B33574  18.110  22.298   7.638
 2388POPC   NC333575  38.050  42.970   9.479
 2388POPC   PO433576  37.372  43.174   9.477
 2388POPC   GL133577  37.639  42.998   9.181
 2388POPC   GL233578  37.917  43.248   9.068
 2388POPC   C1A33579  37.679  42.895   8.764
 2388POPC   D2A33580  37.661  43.110   8.398
 2388POPC   C3A33581  37.837  42.851   8.108
 2388POPC   C4A33582  37.494  42.883   7.829
 2388POPC   C1B33583  37.569  43.434   8.805
 2388POPC   C2B33584  37.362  43.557   8.423
 2388POPC   C3B33585  37.515  43.426   8.014
 2388POPC   C4B33586  37.483  43.412   7.592
 2389POPC   NC333587  11.050  24.205   9.637
 2389POPC   PO433588  11.572  23.761   9.653
 2389POPC   GL133589  11.248  23.833   9.325
 2389POPC   GL233590  11.050  23.546   9.266
 2389POPC   C1A33591  11.278  23.958   8.890
 2389POPC   D2A33592  11.411  23.756   8.489
 2389POPC   C3A33593  11.418  23.841   8.060
 2389POPC   C4A33594  11.116  23.926   7.739
 2389POPC   C1B33595  11.310  23.452   8.887
 2389POPC   C2B33596  11.295  23.250   8.482
 2389POPC   C3B33597  11.211  23.344   8.053
 2389POPC   C4B33598  10.962  23.443   7.691
 2390POPC   NC333599   0.089  20.074   9.526
 2390POPC   PO433600   0.526  19.627   9.743
 2390POPC   GL133601   0.331  19.681   9.295
 2390POPC   GL233602   0.418  19.969   9.148
 2390POPC   C1A33603   0.271  19.598   8.830
 2390POPC   D2A33604   0.157  19.637   8.376
 2390POPC   C3A33605   0.450  19.688   8.004
 2390POPC   C4A33606   0.769  20.029   7.897
 2390POPC   C1B33607   0.592  20.154   8.808
 2390POPC   C2B33608   0.545  19.990   8.421
 2390POPC   C3B33609   0.297  20.172   8.136
 2390POPC   C4B33610   0.302  20.127   7.721
 2391POPC   NC333611   7.692  44.862   9.418
 2391POPC   PO433612   8.204  44.543   9.726
 2391POPC   GL133613   8.174  44.733   9.269
 2391POPC   GL233614   7.955  44.507   9.091
 2391POPC   C1A33615   8.074  44.881   8.794
 2391POPC   D2A33616   8.301  44.814   8.401
 2391POPC   C3A33617   8.102  44.801   7.998
 2391POPC   C4A33618   8.487  44.761   7.746
 2391POPC   C1B33619   8.110  44.394   8.664
 2391POPC   C2B33620   8.001  44.319   8.218
 2391POPC   C3B33621   8.226  44.324   7.813
 2391POPC   C4B33622   8.095  44.384   7.363
 2392POPC   NC333623  30.245  16.377   9.627
 2392POPC   PO433624  29.758  16.003   9.750
 2392POPC   GL133625  29.796  16.080   9.273
 2392POPC   GL233626  30.122  16.223   9.147
 2392POPC   C1A33627  29.776  16.106   8.782
 2392POPC   D2A33628  29.548  16.016   8.367
 2392POPC   C3A33629  29.698  16.073   7.936
 2392POPC   C4A33630  29.683  15.668   7.666
 2392POPC   C1B33631  30.275  16.092   8.721
 2392POPC   C2B33632  30.059  15.979   8.329
 2392POPC   C3B33633  30.210  16.036   7.901
 2392POPC   C4B33634  30.475  15.994   7.512
 2393POPC   NC333635   4.941   9.990   9.492
 2393POPC   PO433636   5.054  10.654   9.443
 2393POPC   GL133637   4.926  10.436   9.051
 2393POPC   GL233638   4.918  10.092   8.880
 2393POPC   C1A33639   5.000  10.491   8.591
 2393POPC   D2A33640   5.385  10.541   8.339
 2393POPC   C3A33641   5.256  10.648   7.906
 2393POPC   C4A33642   4.797  10.608   7.753
 2393POPC   C1B33643   5.367  10.130   8.771
 2393POPC   C2B33644   5.607  10.017   8.397
 2393POPC   C3B33645   5.466  10.161   8.004
 2393POPC   C4B33646   5.122  10.180   7.728
 2394POPC   NC333647  22.666  12.872   9.471
 2394POPC   PO433648  23.352  13.023   9.385
 2394POPC   GL133649  23.051  12.923   9.128
 2394POPC   GL233650  22.884  13.256   9.181
 2394POPC   C1A33651  22.848  12.631   8.816
 2394POPC   D2A33652  22.920  12.534   8.365
 2394POPC   C3A33653  22.891  12.822   8.014
 2394POPC   C4A33654  22.908  12.715   7.575
 2394POPC   C1B33655  22.791  13.125   8.754
 2394POPC   C2B33656  22.565  12.896   8.423
 2394POPC   C3B33657  22.389  12.913   7.987
 2394POPC   C4B33658  22.416  13.283   7.728
 2395POPC   NC333659  26.363  17.698   9.338
 2395POPC   PO433660  25.842  17.293   9.462
 2395POPC   GL133661  26.031  17.273   9.086
 2395POPC   GL233662  26.370  17.179   9.109
 2395POPC   C1A33663  25.861  17.279   8.697
 2395POPC   D2A33664  25.913  17.586   8.386
 2395POPC   C3A33665  25.883  17.302   8.058
 2395POPC   C4A33666  25.753  17.320   7.650
 2395POPC   C1B33667  26.359  17.463   8.710
 2395POPC   C2B33668  26.425  17.676   8.282
 2395POPC   C3B33669  26.227  17.668   7.860
 2395POPC   C4B33670  26.285  17.357   7.537
 2396POPC   NC333671  36.878   7.840   9.443
 2396POPC   PO433672  36.477   8.444   9.654
 2396POPC   GL133673  36.835   8.318   9.313
 2396POPC   GL233674  36.655   8.070   9.051
 2396POPC   C1A33675  37.044   8.458   8.904
 2396POPC   D2A33676  37.234   8.351   8.510
 2396POPC   C3A33677  37.030   8.283   8.106
 2396POPC   C4A33678  37.053   8.563   7.723
 2396POPC   C1B33679  36.984   7.957   8.738
 2396POPC   C2B33680  37.062   7.812   8.322
 2396POPC   C3B33681  36.837   7.803   7.929
 2396POPC   C4B33682  36.752   8.139   7.696
 2397POPC   NC333683  14.263  26.003   9.818
 2397POPC   PO433684  14.916  26.064   9.582
 2397POPC   GL133685  14.622  25.890   9.316
 2397POPC   GL233686  14.284  26.053   9.298
 2397POPC   C1A33687  14.594  25.880   8.893
 2397POPC   D2A33688  14.688  25.695   8.513
 2397POPC   C3A33689  14.548  25.945   8.183
 2397POPC   C4A33690  14.702  26.048   7.782
 2397POPC   C1B33691  14.066  25.920   8.920
 2397POPC   C2B33692  13.997  26.049   8.490
 2397POPC   C3B33693  14.000  25.929   8.062
 2397POPC   C4B33694  14.261  25.792   7.771
 2398POPC   NC333695  12.149  11.033   9.514
 2398POPC   PO433696  11.773  11.636   9.434
 2398POPC   GL133697  11.919  11.311   9.122
 2398POPC   GL233698  11.825  10.951   9.108
 2398POPC   C1A33699  12.100  11.396   8.724
 2398POPC   D2A33700  12.110  11.263   8.322
 2398POPC   C3A33701  12.111  11.600   8.051
 2398POPC   C4A33702  12.302  11.583   7.694
 2398POPC   C1B33703  11.695  11.072   8.670
 2398POPC   C2B33704  11.680  11.045   8.204
 2398POPC   C3B33705  11.935  11.114   7.833
 2398POPC   C4B33706  11.816  11.127   7.324
 2399POPC   NC333707  36.102  41.641   9.823
 2399POPC   PO433708  35.452  41.448   9.542
 2399POPC   GL133709  35.562  41.253   9.104
 2399POPC   GL233710  35.827  41.405   8.907
 2399POPC   C1A33711  35.395  41.234   8.649
 2399POPC   D2A33712  34.982  41.230   8.418
 2399POPC   C3A33713  34.945  41.456   8.022
 2399POPC   C4A33714  35.191  41.415   7.655
 2399POPC   C1B33715  35.510  41.730   8.775
 2399POPC   C2B33716  35.263  41.686   8.394
 2399POPC   C3B33717  35.459  41.406   8.099
 2399POPC   C4B33718  35.708  41.622   7.771
 2400POPC   NC333719  16.541  37.523   9.613
 2400POPC   PO433720  16.900  38.082   9.694
 2400POPC   GL133721  16.746  37.862   9.251
 2400POPC   GL233722  16.687  37.484   9.145
 2400POPC   C1A33723  16.670  37.828   8.763
 2400POPC   D2A33724  16.929  37.820   8.362
 2400POPC   C3A33725  16.691  37.825   8.002
 2400POPC   C4A33726  16.765  38.069   7.629
 2400POPC   C1B33727  16.726  37.239   8.783
 2400POPC   C2B33728  16.723  37.362   8.350
 2400POPC   C3B33729  16.812  37.327   7.936
 2400POPC   C4B33730  16.568  37.183   7.640
 2401POPC   NC333731  13.927  20.039   9.456
 2401POPC   PO433732  14.553  19.694   9.588
 2401POPC   GL133733  14.636  19.811   9.138
 2401POPC   GL233734  14.746  20.174   9.095
 2401POPC   C1A33735  14.362  19.733   8.792
 2401POPC   D2A33736  14.259  19.985   8.411
 2401POPC   C3A33737  14.284  19.751   8.026
 2401POPC   C4A33738  13.995  19.651   7.702
 2401POPC   C1B33739  14.659  20.133   8.672
 2401POPC   C2B33740  14.717  19.739   8.406
 2401POPC   C3B33741  14.869  19.721   8.004
 2401POPC   C4B33742  14.685  19.962   7.695
 2402POPC   NC333743   1.607  43.717   9.473
 2402POPC   PO433744   2.286  43.971   9.394
 2402POPC   GL133745   1.889  43.923   9.098
 2402POPC   GL233746   1.688  43.604   8.978
 2402POPC   C1A33747   1.722  44.009   8.671
 2402POPC   D2A33748   1.938  43.897   8.276
 2402POPC   C3A33749   1.864  44.043   7.875
 2402POPC   C4A33750   1.620  43.680   7.783
 2402POPC   C1B33751   2.060  43.589   8.695
 2402POPC   C2B33752   2.374  43.624   8.344
 2402POPC   C3B33753   2.293  43.695   7.905
 2402POPC   C4B33754   2.382  43.417   7.518
 2403POPC   NC333755  43.005  39.758   9.471
 2403POPC   PO433756  43.444  40.137   9.184
 2403POPC   GL133757  43.052  40.006   9.023
 2403POPC   GL233758  43.152  39.721   8.860
 2403POPC   C1A33759  42.836  40.001   8.592
 2403POPC   D2A33760  43.043  40.039   8.160
 2403POPC   C3A33761  42.876  39.801   7.791
 2403POPC   C4A33762  42.866  39.754   7.328
 2403POPC   C1B33763  43.318  40.122   8.581
 2403POPC   C2B33764  43.572  40.322   8.301
 2403POPC   C3B33765  43.620  40.171   7.943
 2403POPC   C4B33766  43.294  40.063   7.675
 2404POPC   NC333767  24.734  29.554   9.360
 2404POPC   PO433768  24.828  28.855   9.430
 2404POPC   GL133769  24.586  29.093   9.124
 2404POPC   GL233770  24.280  29.267   9.263
 2404POPC   C1A33771  24.550  29.033   8.679
 2404POPC   D2A33772  24.750  29.135   8.291
 2404POPC   C3A33773  24.562  28.910   7.967
 2404POPC   C4A33774  24.632  28.864   7.547
 2404POPC   C1B33775  24.107  29.219   8.855
 2404POPC   C2B33776  24.225  29.351   8.434
 2404POPC   C3B33777  24.141  29.211   8.026
 2404POPC   C4B33778  24.285  29.250   7.601
 2405POPC   NC333779  34.161  25.913   9.462
 2405POPC   PO433780  34.707  26.294   9.462
 2405POPC   GL133781  34.584  26.128   9.088
 2405POPC   GL233782  34.610  25.817   9.212
 2405POPC   C1A33783  34.833  25.940   8.743
 2405POPC   D2A33784  35.006  25.724   8.378
 2405POPC   C3A33785  34.692  25.814   8.078
 2405POPC   C4A33786  34.767  26.124   7.784
 2405POPC   C1B33787  34.336  25.726   8.831
 2405POPC   C2B33788  34.269  25.558   8.399
 2405POPC   C3B33789  34.270  25.516   7.948
 2405POPC   C4B33790  34.290  25.836   7.635
 2406POPC   NC333791  32.394  39.435   9.470
 2406POPC   PO433792  31.921  39.012   9.595
 2406POPC   GL133793  31.978  39.274   9.232
 2406POPC   GL233794  32.258  39.099   9.101
 2406POPC   C1A33795  32.020  39.501   8.852
 2406POPC   D2A33796  31.791  39.568   8.438
 2406POPC   C3A33797  32.001  39.631   8.038
 2406POPC   C4A33798  31.970  39.296   7.770
 2406POPC   C1B33799  32.478  39.252   8.744
 2406POPC   C2B33800  32.583  39.421   8.324
 2406POPC   C3B33801  32.517  39.279   7.883
 2406POPC   C4B33802  32.704  38.901   7.684
 2407POPC   NC333803  11.426  30.083   9.353
 2407POPC   PO433804  10.844  29.759   9.479
 2407POPC   GL133805  11.097  29.740   9.116
 2407POPC   GL233806  11.014  30.118   9.065
 2407POPC   C1A33807  11.331  29.672   8.708
 2407POPC   D2A33808  11.402  29.916   8.312
 2407POPC   C3A33809  11.478  29.770   7.879
 2407POPC   C4A33810  11.351  29.830   7.434
 2407POPC   C1B33811  11.135  30.259   8.643
 2407POPC   C2B33812  11.213  30.399   8.211
 2407POPC   C3B33813  11.172  30.185   7.808
 2407POPC   C4B33814  11.069  30.295   7.372
 2408POPC   NC333815  33.476  30.750   9.584
 2408POPC   PO433816  34.103  30.585   9.341
 2408POPC   GL133817  33.718  30.592   9.134
 2408POPC   GL233818  33.738  30.945   9.195
 2408POPC   C1A33819  33.762  30.426   8.729
 2408POPC   D2A33820  33.942  30.419   8.361
 2408POPC   C3A33821  33.680  30.470   8.045
 2408POPC   C4A33822  33.671  30.667   7.644
 2408POPC   C1B33823  33.654  31.084   8.809
 2408POPC   C2B33824  33.681  30.881   8.423
 2408POPC   C3B33825  33.492  30.974   8.044
 2408POPC   C4B33826  33.715  31.168   7.749
 2409POPC   NC333827  11.062  35.205   9.544
 2409POPC   PO433828  11.660  35.689   9.496
 2409POPC   GL133829  11.393  35.464   9.243
 2409POPC   GL233830  11.544  35.148   9.271
 2409POPC   C1A33831  11.229  35.536   8.852
 2409POPC   D2A33832  11.230  35.301   8.484
 2409POPC   C3A33833  11.423  35.467   8.133
 2409POPC   C4A33834  11.215  35.602   7.784
 2409POPC   C1B33835  11.565  35.104   8.838
 2409POPC   C2B33836  11.725  35.036   8.405
 2409POPC   C3B33837  11.727  35.082   7.956
 2409POPC   C4B33838  11.379  35.115   7.704
 2410POPC   NC333839  16.540   1.761   9.416
 2410POPC   PO433840  17.034   2.186   9.539
 2410POPC   GL133841  16.821   2.146   9.154
 2410POPC   GL233842  16.469   2.174   9.126
 2410POPC   C1A33843  16.955   2.149   8.731
 2410POPC   D2A33844  17.140   2.057   8.331
 2410POPC   C3A33845  16.942   2.250   7.993
 2410POPC   C4A33846  16.739   2.047   7.663
 2410POPC   C1B33847  16.414   1.993   8.724
 2410POPC   C2B33848  16.568   2.160   8.344
 2410POPC   C3B33849  16.382   2.282   7.943
 2410POPC   C4B33850  16.221   1.914   7.717
 2411POPC   NC333851  12.122  42.851   9.531
 2411POPC   PO433852  11.863  43.446   9.556
 2411POPC   GL133853  11.947  43.187   9.188
 2411POPC   GL233854  11.796  43.390   9.031
 2411POPC   C1A33855  11.974  43.060   8.701
 2411POPC   D2A33856  12.240  42.922   8.353
 2411POPC   C3A33857  12.132  42.894   7.931
 2411POPC   C4A33858  12.084  43.032   7.481
 2411POPC   C1B33859  12.237  43.475   8.869
 2411POPC   C2B33860  12.394  43.414   8.450
 2411POPC   C3B33861  12.168  43.375   8.099
 2411POPC   C4B33862  12.162  43.527   7.712
 2412POPC   NC333863  23.782  17.482   9.527
 2412POPC   PO433864  23.137  17.399   9.709
 2412POPC   GL133865  23.313  17.545   9.325
 2412POPC   GL233866  23.447  17.262   9.146
 2412POPC   C1A33867  23.474  17.720   8.905
 2412POPC   D2A33868  23.749  17.711   8.506
 2412POPC   C3A33869  23.606  17.750   8.054
 2412POPC   C4A33870  23.772  17.594   7.630
 2412POPC   C1B33871  23.815  17.292   8.892
 2412POPC   C2B33872  23.857  17.192   8.477
 2412POPC   C3B33873  23.936  17.363   8.092
 2412POPC   C4B33874  24.121  17.243   7.740
 2413POPC   NC333875   0.209  13.333   9.514
 2413POPC   PO433876   0.793  13.543   9.472
 2413POPC   GL133877   0.604  13.453   9.075
 2413POPC   GL233878   0.258  13.552   9.064
 2413POPC   C1A33879   0.540  13.605   8.649
 2413POPC   D2A33880   0.715  13.669   8.269
 2413POPC   C3A33881   0.564  13.400   7.982
 2413POPC   C4A33882   0.422  13.487   7.607
 2413POPC   C1B33883   0.039  13.647   8.673
 2413POPC   C2B33884   0.185  13.670   8.233
 2413POPC   C3B33885   0.068  13.781   7.814
 2413POPC   C4B33886  44.990  13.570   7.364
 2414POPC   NC333887  44.199  34.633   9.531
 2414POPC   PO433888  43.673  34.239   9.779
 2414POPC   GL133889  43.667  34.450   9.353
 2414POPC   GL233890  43.940  34.368   9.171
 2414POPC   C1A33891  43.681  34.761   8.975
 2414POPC   D2A33892  43.788  34.709   8.526
 2414POPC   C3A33893  43.501  34.772   8.195
 2414POPC   C4A33894  43.667  34.998   7.861
 2414POPC   C1B33895  43.669  34.282   8.812
 2414POPC   C2B33896  43.713  34.221   8.369
 2414POPC   C3B33897  43.570  34.301   7.995
 2414POPC   C4B33898  43.773  34.508   7.722
 2415POPC   NC333899  42.159  41.794   9.442
 2415POPC   PO433900  42.354  41.130   9.623
 2415POPC   GL133901  42.439  41.196   9.165
 2415POPC   GL233902  42.490  41.573   9.100
 2415POPC   C1A33903  42.335  41.303   8.722
 2415POPC   D2A33904  42.567  41.549   8.418
 2415POPC   C3A33905  42.480  41.541   7.977
 2415POPC   C4A33906  42.483  41.872   7.682
 2415POPC   C1B33907  42.255  41.821   8.777
 2415POPC   C2B33908  42.123  41.813   8.343
 2415POPC   C3B33909  42.005  41.846   7.930
 2415POPC   C4B33910  42.003  41.557   7.607
 2416POPC   NC333911  16.516  38.312   9.439
 2416POPC   PO433912  17.119  38.687   9.526
 2416POPC   GL133913  16.753  38.818   9.208
 2416POPC   GL233914  16.376  38.724   9.118
 2416POPC   C1A33915  16.746  38.734   8.749
 2416POPC   D2A33916  16.842  38.311   8.517
 2416POPC   C3A33917  16.799  38.357   8.078
 2416POPC   C4A33918  16.783  38.694   7.767
 2416POPC   C1B33919  16.430  38.331   8.801
 2416POPC   C2B33920  16.408  38.100   8.358
 2416POPC   C3B33921  16.333  38.184   7.887
 2416POPC   C4B33922  16.314  38.129   7.413
 2417POPC   NC333923  14.338   2.718   9.662
 2417POPC   PO433924  13.797   2.505   9.369
 2417POPC   GL133925  14.077   2.757   9.159
 2417POPC   GL233926  14.450   2.717   9.174
 2417POPC   C1A33927  14.181   2.757   8.737
 2417POPC   D2A33928  14.420   2.587   8.449
 2417POPC   C3A33929  14.310   2.696   8.048
 2417POPC   C4A33930  14.201   2.842   7.637
 2417POPC   C1B33931  14.728   2.621   8.855
 2417POPC   C2B33932  14.837   2.861   8.503
 2417POPC   C3B33933  14.831   2.681   8.105
 2417POPC   C4B33934  14.702   2.817   7.714
 2418POPC   NC333935  43.092  21.252   9.604
 2418POPC   PO433936  43.323  21.819   9.514
 2418POPC   GL133937  43.148  21.531   9.164
 2418POPC   GL233938  42.854  21.274   9.146
 2418POPC   C1A33939  43.054  21.478   8.709
 2418POPC   D2A33940  43.103  21.260   8.273
 2418POPC   C3A33941  43.127  21.561   7.912
 2418POPC   C4A33942  43.312  21.575   7.499
 2418POPC   C1B33943  42.578  21.291   8.769
 2418POPC   C2B33944  42.596  21.144   8.337
 2418POPC   C3B33945  42.705  21.287   7.903
 2418POPC   C4B33946  42.817  21.398   7.461
 2419POPC   NC333947  29.918  27.786   9.518
 2419POPC   PO433948  30.239  27.195   9.513
 2419POPC   GL133949  29.912  27.387   9.171
 2419POPC   GL233950  30.021  27.737   9.031
 2419POPC   C1A33951  29.560  27.578   8.866
 2419POPC   D2A33952  29.429  27.822   8.465
 2419POPC   C3A33953  29.680  27.725   8.066
 2419POPC   C4A33954  29.747  27.710   7.607
 2419POPC   C1B33955  30.256  27.930   8.698
 2419POPC   C2B33956  30.169  27.758   8.271
 2419POPC   C3B33957  30.205  27.724   7.813
 2419POPC   C4B33958  30.560  27.747   7.536
 2420POPC   NC333959  26.719  43.766   9.959
 2420POPC   PO433960  26.660  44.043   9.344
 2420POPC   GL133961  26.851  44.186   8.985
 2420POPC   GL233962  27.153  44.075   9.142
 2420POPC   C1A33963  26.655  44.085   8.612
 2420POPC   D2A33964  26.701  43.767   8.336
 2420POPC   C3A33965  26.631  43.912   7.971
 2420POPC   C4A33966  26.550  43.670   7.622
 2420POPC   C1B33967  27.018  43.738   8.815
 2420POPC   C2B33968  27.184  43.811   8.436
 2420POPC   C3B33969  27.214  43.770   8.020
 2420POPC   C4B33970  27.031  43.856   7.635
 2421POPC   NC333971  30.018   0.877   9.387
 2421POPC   PO433972  29.730   1.394   9.393
 2421POPC   GL133973  30.042   1.315   9.066
 2421POPC   GL233974  30.291   1.015   9.007
 2421POPC   C1A33975  29.934   1.511   8.693
 2421POPC   D2A33976  30.007   1.400   8.291
 2421POPC   C3A33977  29.891   1.596   7.948
 2421POPC   C4A33978  29.788   1.394   7.607
 2421POPC   C1B33979  30.135   1.019   8.629
 2421POPC   C2B33980  30.251   0.968   8.245
 2421POPC   C3B33981  30.015   0.886   7.898
 2421POPC   C4B33982  30.258   0.848   7.549
 2422POPC   NC333983   6.995  27.842   9.475
 2422POPC   PO433984   7.389  27.337   9.542
 2422POPC   GL133985   7.591  27.545   9.220
 2422POPC   GL233986   7.660  27.241   9.069
 2422POPC   C1A33987   7.512  27.654   8.781
 2422POPC   D2A33988   7.596  27.480   8.356
 2422POPC   C3A33989   7.408  27.600   7.918
 2422POPC   C4A33990   7.197  27.693   7.498
 2422POPC   C1B33991   7.729  27.019   8.698
 2422POPC   C2B33992   7.943  27.110   8.329
 2422POPC   C3B33993   7.815  27.169   7.908
 2422POPC   C4B33994   7.480  27.221   7.584
 2423POPC   NC333995   1.415  40.251   9.475
 2423POPC   PO433996   0.869  39.840   9.696
 2423POPC   GL133997   1.060  39.901   9.256
 2423POPC   GL233998   0.993  40.225   9.132
 2423POPC   C1A33999   1.246  39.880   8.777
 2423POPC   D2A34000   1.167  39.785   8.276
 2423POPC   C3A34001   1.413  39.762   7.868
 2423POPC   C4A34002   1.311  39.494   7.506
 2423POPC   C1B34003   1.268  40.443   8.840
 2423POPC   C2B34004   1.106  40.647   8.493
 2423POPC   C3B34005   1.041  40.415   8.129
 2423POPC   C4B34006   1.158  40.183   7.786
 2424POPC   NC334007  22.754  34.047   9.463
 2424POPC   PO434008  22.720  33.449   9.784
 2424POPC   GL134009  22.776  33.592   9.280
 2424POPC   GL234010  22.954  33.811   9.050
 2424POPC   C1A34011  22.642  33.460   8.836
 2424POPC   D2A34012  22.502  33.482   8.401
 2424POPC   C3A34013  22.839  33.650   8.140
 2424POPC   C4A34014  22.939  33.709   7.710
 2424POPC   C1B34015  22.979  34.071   8.697
 2424POPC   C2B34016  22.841  34.156   8.269
 2424POPC   C3B34017  23.025  34.183   7.849
 2424POPC   C4B34018  23.115  34.076   7.377
 2425POPC   NC334019   9.467  18.193   9.768
 2425POPC   PO434020  10.033  18.492   9.508
 2425POPC   GL134021   9.796  18.212   9.280
 2425POPC   GL234022   9.507  18.394   9.225
 2425POPC   C1A34023   9.813  18.033   8.870
 2425POPC   D2A34024   9.574  18.078   8.468
 2425POPC   C3A34025   9.818  18.164   8.070
 2425POPC   C4A34026   9.912  18.047   7.637
 2425POPC   C1B34027   9.394  18.575   8.807
 2425POPC   C2B34028   9.223  18.483   8.364
 2425POPC   C3B34029   9.365  18.392   7.916
 2425POPC   C4B34030   9.490  18.295   7.473
 2426POPC   NC334031  19.318   7.747   9.342
 2426POPC   PO434032  18.831   8.194   9.476
 2426POPC   GL134033  19.027   8.175   9.130
 2426POPC   GL234034  19.302   8.426   9.111
 2426POPC   C1A34035  18.939   8.002   8.744
 2426POPC   D2A34036  19.081   7.809   8.352
 2426POPC   C3A34037  18.911   7.978   7.959
 2426POPC   C4A34038  18.862   8.460   7.870
 2426POPC   C1B34039  19.013   8.516   8.752
 2426POPC   C2B34040  19.021   8.324   8.339
 2426POPC   C3B34041  19.334   8.231   8.003
 2426POPC   C4B34042  19.425   8.610   7.836
 2427POPC   NC334043  33.610  33.955   9.620
 2427POPC   PO434044  33.923  33.382   9.550
 2427POPC   GL134045  33.751  33.535   9.170
 2427POPC   GL234046  33.826  33.901   9.139
 2427POPC   C1A34047  33.665  33.615   8.732
 2427POPC   D2A34048  33.632  33.799   8.327
 2427POPC   C3A34049  33.729  33.574   7.929
 2427POPC   C4A34050  33.647  33.798   7.512
 2427POPC   C1B34051  34.126  33.933   8.784
 2427POPC   C2B34052  34.134  34.074   8.337
 2427POPC   C3B34053  33.901  34.035   7.955
 2427POPC   C4B34054  33.914  34.240   7.581
 2428POPC   NC334055  37.416  12.120   9.603
 2428POPC   PO434056  37.616  11.541   9.566
 2428POPC   GL134057  37.752  11.637   9.159
 2428POPC   GL234058  37.686  11.984   9.137
 2428POPC   C1A34059  37.896  11.691   8.744
 2428POPC   D2A34060  38.010  11.844   8.348
 2428POPC   C3A34061  37.669  11.845   8.055
 2428POPC   C4A34062  37.401  12.083   7.763
 2428POPC   C1B34063  37.862  12.198   8.759
 2428POPC   C2B34064  37.782  12.301   8.309
 2428POPC   C3B34065  37.874  12.307   7.855
 2428POPC   C4B34066  38.100  12.323   7.430
 2429POPC   NC334067   8.110  12.320   9.345
 2429POPC   PO434068   8.158  11.744   9.714
 2429POPC   GL134069   8.337  11.833   9.229
 2429POPC   GL234070   8.462  12.096   9.073
 2429POPC   C1A34071   8.411  11.732   8.739
 2429POPC   D2A34072   8.156  11.553   8.383
 2429POPC   C3A34073   8.180  11.760   7.966
 2429POPC   C4A34074   8.375  11.708   7.560
 2429POPC   C1B34075   8.143  12.181   8.725
 2429POPC   C2B34076   8.160  12.137   8.306
 2429POPC   C3B34077   8.247  12.297   7.908
 2429POPC   C4B34078   8.160  12.517   7.554
 2430POPC   NC334079  38.889  17.630   9.524
 2430POPC   PO434080  39.576  17.759   9.385
 2430POPC   GL134081  39.224  17.622   9.114
 2430POPC   GL234082  38.923  17.393   9.088
 2430POPC   C1A34083  39.258  17.485   8.682
 2430POPC   D2A34084  39.072  17.566   8.284
 2430POPC   C3A34085  39.303  17.646   7.906
 2430POPC   C4A34086  39.609  17.754   7.611
 2430POPC   C1B34087  38.959  17.082   8.779
 2430POPC   C2B34088  39.231  17.029   8.403
 2430POPC   C3B34089  39.193  17.158   7.994
 2430POPC   C4B34090  38.842  17.350   7.815
 2431POPC   NC334091  19.106  29.557   9.449
 2431POPC   PO434092  19.236  28.922   9.501
 2431POPC   GL134093  19.205  29.116   9.116
 2431POPC   GL234094  18.897  28.978   9.066
 2431POPC   C1A34095  19.273  28.975   8.680
 2431POPC   D2A34096  19.146  28.940   8.255
 2431POPC   C3A34097  18.916  29.244   7.978
 2431POPC   C4A34098  19.060  28.937   7.691
 2431POPC   C1B34099  18.869  29.278   8.712
 2431POPC   C2B34100  18.660  29.069   8.381
 2431POPC   C3B34101  18.679  28.774   8.025
 2431POPC   C4B34102  18.528  29.015   7.679
 2432POPC   NC334103  42.206  17.970   9.495
 2432POPC   PO434104  42.444  18.651   9.550
 2432POPC   GL134105  42.443  18.345   9.213
 2432POPC   GL234106  42.665  18.049   9.207
 2432POPC   C1A34107  42.336  18.243   8.785
 2432POPC   D2A34108  42.335  18.533   8.419
 2432POPC   C3A34109  42.368  18.323   8.022
 2432POPC   C4A34110  42.303  18.005   7.684
 2432POPC   C1B34111  42.803  17.994   8.779
 2432POPC   C2B34112  42.658  18.104   8.367
 2432POPC   C3B34113  42.820  17.946   7.958
 2432POPC   C4B34114  42.838  17.878   7.466
 2433POPC   NC334115  18.930  28.575   9.505
 2433POPC   PO434116  19.268  27.963   9.482
 2433POPC   GL134117  19.241  28.101   9.076
 2433POPC   GL234118  18.924  28.242   9.127
 2433POPC   C1A34119  19.391  28.210   8.650
 2433POPC   D2A34120  19.551  28.498   8.309
 2433POPC   C3A34121  19.299  28.522   7.965
 2433POPC   C4A34122  19.390  28.089   7.789
 2433POPC   C1B34123  19.022  28.529   8.810
 2433POPC   C2B34124  18.984  28.426   8.376
 2433POPC   C3B34125  18.933  28.185   8.004
 2433POPC   C4B34126  18.888  28.455   7.655
 2434POPC   NC334127   9.231   6.374   9.483
 2434POPC   PO434128   8.873   5.715   9.495
 2434POPC   GL134129   8.788   5.814   9.087
 2434POPC   GL234130   8.941   6.137   9.115
 2434POPC   C1A34131   9.006   5.836   8.701
 2434POPC   D2A34132   9.279   5.824   8.390
 2434POPC   C3A34133   8.967   5.737   8.119
 2434POPC   C4A34134   8.920   5.849   7.735
 2434POPC   C1B34135   8.902   6.336   8.731
 2434POPC   C2B34136   8.816   6.187   8.336
 2434POPC   C3B34137   9.115   6.224   8.019
 2434POPC   C4B34138   9.035   6.369   7.618
 2435POPC   NC334139  44.333   3.475   9.757
 2435POPC   PO434140  44.913   3.760   9.800
 2435POPC   GL134141  44.651   3.654   9.346
 2435POPC   GL234142  44.556   3.328   9.248
 2435POPC   C1A34143  44.626   3.736   8.848
 2435POPC   D2A34144  44.721   3.979   8.433
 2435POPC   C3A34145  44.590   3.771   8.047
 2435POPC   C4A34146  44.752   3.481   7.740
 2435POPC   C1B34147  44.544   3.220   8.798
 2435POPC   C2B34148  44.545   3.348   8.352
 2435POPC   C3B34149  44.417   3.164   7.931
 2435POPC   C4B34150  44.357   3.234   7.462
 2436POPC   NC334151  16.100  23.299   9.514
 2436POPC   PO434152  15.777  22.695   9.512
 2436POPC   GL134153  15.790  22.894   9.156
 2436POPC   GL234154  16.139  22.922   9.169
 2436POPC   C1A34155  15.846  22.814   8.736
 2436POPC   D2A34156  15.969  22.956   8.348
 2436POPC   C3A34157  15.959  22.735   7.967
 2436POPC   C4A34158  15.681  22.746   7.592
 2436POPC   C1B34159  16.309  23.025   8.796
 2436POPC   C2B34160  16.281  23.330   8.486
 2436POPC   C3B34161  16.331  23.162   8.065
 2436POPC   C4B34162  16.132  23.153   7.698
 2437POPC   NC334163   4.880  17.703   9.458
 2437POPC   PO434164   5.327  17.265   9.612
 2437POPC   GL134165   5.242  17.440   9.171
 2437POPC   GL234166   5.309  17.836   9.155
 2437POPC   C1A34167   4.907  17.461   8.796
 2437POPC   D2A34168   4.801  17.288   8.373
 2437POPC   C3A34169   5.015  17.374   7.974
 2437POPC   C4A34170   4.748  17.411   7.633
 2437POPC   C1B34171   5.352  17.683   8.730
 2437POPC   C2B34172   5.132  17.715   8.365
 2437POPC   C3B34173   5.424  17.726   8.072
 2437POPC   C4B34174   5.528  17.886   7.712
 2438POPC   NC334175  17.818  23.751   9.463
 2438POPC   PO434176  17.251  23.350   9.413
 2438POPC   GL134177  17.460  23.587   9.117
 2438POPC   GL234178  17.731  23.412   8.982
 2438POPC   C1A34179  17.604  23.941   8.857
 2438POPC   D2A34180  17.548  24.032   8.421
 2438POPC   C3A34181  17.411  23.741   8.096
 2438POPC   C4A34182  17.519  23.853   7.669
 2438POPC   C1B34183  17.598  23.528   8.565
 2438POPC   C2B34184  17.753  23.343   8.193
 2438POPC   C3B34185  17.900  23.539   7.835
 2438POPC   C4B34186  17.826  23.546   7.372
 2439POPC   NC334187  12.235  11.679   9.304
 2439POPC   PO434188  12.238  12.326   9.566
 2439POPC   GL134189  12.310  12.182   9.202
 2439POPC   GL234190  12.599  12.343   9.107
 2439POPC   C1A34191  12.029  12.092   8.859
 2439POPC   D2A34192  12.153  11.882   8.508
 2439POPC   C3A34193  12.056  12.121   8.164
 2439POPC   C4A34194  11.808  12.002   7.839
 2439POPC   C1B34195  12.512  12.221   8.721
 2439POPC   C2B34196  12.603  12.076   8.344
 2439POPC   C3B34197  12.499  11.961   7.946
 2439POPC   C4B34198  12.282  12.304   7.715
 2440POPC   NC334199   0.208  35.944   9.538
 2440POPC   PO434200   0.732  36.434   9.540
 2440POPC   GL134201   0.416  36.268   9.213
 2440POPC   GL234202   0.221  36.561   9.091
 2440POPC   C1A34203   0.256  36.140   8.788
 2440POPC   D2A34204   0.425  35.985   8.391
 2440POPC   C3A34205   0.197  36.044   8.029
 2440POPC   C4A34206   0.001  36.319   7.748
 2440POPC   C1B34207   0.592  36.540   8.827
 2440POPC   C2B34208   0.609  36.457   8.418
 2440POPC   C3B34209   0.402  36.529   8.063
 2440POPC   C4B34210   0.507  36.404   7.699
 2441POPC   NC334211  26.724   4.637   9.316
 2441POPC   PO434212  26.911   5.271   9.531
 2441POPC   GL134213  26.868   5.143   9.165
 2441POPC   GL234214  27.109   4.948   9.190
 2441POPC   C1A34215  27.035   5.354   8.819
 2441POPC   D2A34216  27.214   5.273   8.422
 2441POPC   C3A34217  26.859   5.397   8.149
 2441POPC   C4A34218  26.723   5.217   7.749
 2441POPC   C1B34219  27.134   4.834   8.766
 2441POPC   C2B34220  26.963   4.831   8.353
 2441POPC   C3B34221  27.137   4.985   7.967
 2441POPC   C4B34222  27.241   4.702   7.648
 2442POPC   NC334223  19.221  11.038   9.867
 2442POPC   PO434224  19.430  11.513   9.455
 2442POPC   GL134225  19.359  11.412   9.038
 2442POPC   GL234226  19.640  11.582   8.931
 2442POPC   C1A34227  19.199  11.195   8.660
 2442POPC   D2A34228  18.833  11.098   8.382
 2442POPC   C3A34229  18.873  11.136   7.918
 2442POPC   C4A34230  18.998  11.381   7.534
 2442POPC   C1B34231  19.334  11.739   8.641
 2442POPC   C2B34232  19.088  11.549   8.303
 2442POPC   C3B34233  19.316  11.387   7.952
 2442POPC   C4B34234  19.501  11.546   7.576
 2443POPC   NC334235  38.499   7.632   9.473
 2443POPC   PO434236  38.710   7.003   9.425
 2443POPC   GL134237  38.445   7.170   9.091
 2443POPC   GL234238  38.264   7.515   9.040
 2443POPC   C1A34239  38.258   7.117   8.721
 2443POPC   D2A34240  38.305   7.374   8.390
 2443POPC   C3A34241  38.269   7.252   7.960
 2443POPC   C4A34242  38.624   7.384   7.746
 2443POPC   C1B34243  38.429   7.751   8.737
 2443POPC   C2B34244  38.356   7.886   8.339
 2443POPC   C3B34245  38.328   7.807   7.919
 2443POPC   C4B34246  37.987   7.674   7.748
 2444POPC   NC334247  35.189  39.732   9.808
 2444POPC   PO434248  35.095  39.875   9.203
 2444POPC   GL134249  35.503  40.056   9.110
 2444POPC   GL234250  35.830  40.237   9.201
 2444POPC   C1A34251  35.435  40.328   8.777
 2444POPC   D2A34252  35.237  40.200   8.408
 2444POPC   C3A34253  35.371  40.429   8.071
 2444POPC   C4A34254  35.234  40.198   7.731
 2444POPC   C1B34255  35.913  40.193   8.813
 2444POPC   C2B34256  35.810  40.398   8.430
 2444POPC   C3B34257  35.970  40.422   8.017
 2444POPC   C4B34258  35.718  40.356   7.632
 2445POPC   NC334259  37.966   6.164   9.410
 2445POPC   PO434260  37.428   5.790   9.571
 2445POPC   GL134261  37.647   5.672   9.189
 2445POPC   GL234262  37.361   5.475   9.088
 2445POPC   C1A34263  37.856   5.867   8.788
 2445POPC   D2A34264  37.710   6.007   8.335
 2445POPC   C3A34265  37.869   5.791   7.904
 2445POPC   C4A34266  38.001   5.679   7.448
 2445POPC   C1B34267  37.398   5.662   8.719
 2445POPC   C2B34268  37.259   5.760   8.346
 2445POPC   C3B34269  37.395   5.640   7.990
 2445POPC   C4B34270  37.351   5.718   7.575
 2446POPC   NC334271   7.504   0.570   9.439
 2446POPC   PO434272   6.946   0.834   9.350
 2446POPC   GL134273   7.142   0.398   9.116
 2446POPC   GL234274   7.416   0.549   8.928
 2446POPC   C1A34275   7.299   0.096   8.711
 2446POPC   D2A34276   7.491   0.083   8.226
 2446POPC   C3A34277   7.264   0.219   7.854
 2446POPC   C4A34278   7.150   0.581   7.570
 2446POPC   C1B34279   7.668   0.421   8.569
 2446POPC   C2B34280   7.981   0.199   8.346
 2446POPC   C3B34281   7.996   0.306   7.908
 2446POPC   C4B34282   7.677   0.499   7.589
 2447POPC   NC334283  26.917   9.191   9.487
 2447POPC   PO434284  26.456   8.704   9.470
 2447POPC   GL134285  26.698   8.863   9.127
 2447POPC   GL234286  26.670   9.203   9.056
 2447POPC   C1A34287  26.825   8.849   8.693
 2447POPC   D2A34288  27.033   8.821   8.303
 2447POPC   C3A34289  26.850   8.900   7.911
 2447POPC   C4A34290  26.891   8.824   7.470
 2447POPC   C1B34291  27.046   9.307   8.812
 2447POPC   C2B34292  27.281   9.229   8.422
 2447POPC   C3B34293  27.319   9.354   8.024
 2447POPC   C4B34294  27.203   9.204   7.647
 2448POPC   NC334295  26.430   5.245   9.513
 2448POPC   PO434296  26.234   5.814   9.493
 2448POPC   GL134297  26.428   5.854   9.066
 2448POPC   GL234298  26.603   5.564   9.100
 2448POPC   C1A34299  26.368   6.027   8.645
 2448POPC   D2A34300  26.002   5.958   8.382
 2448POPC   C3A34301  25.941   6.017   7.947
 2448POPC   C4A34302  26.025   6.258   7.576
 2448POPC   C1B34303  26.561   5.539   8.608
 2448POPC   C2B34304  26.416   5.707   8.170
 2448POPC   C3B34305  26.246   5.663   7.738
 2448POPC   C4B34306  26.270   5.514   7.302
 2449POPC   NC334307  10.463   0.002   9.587
 2449POPC   PO434308  10.560  44.314   9.522
 2449POPC   GL134309  10.497  44.613   9.196
 2449POPC   GL234310  10.238  44.519   8.925
 2449POPC   C1A34311  10.595  44.879   8.852
 2449POPC   D2A34312  10.240  44.919   8.555
 2449POPC   C3A34313  10.243  44.640   8.199
 2449POPC   C4A34314  10.476  44.742   7.812
 2449POPC   C1B34315  10.536  44.458   8.591
 2449POPC   C2B34316  10.730  44.711   8.275
 2449POPC   C3B34317  10.963  44.743   7.929
 2449POPC   C4B34318  10.843  44.517   7.522
 2450POPC   NC334319  18.883  37.344   9.738
 2450POPC   PO434320  19.212  37.830   9.492
 2450POPC   GL134321  19.013  37.524   9.199
 2450POPC   GL234322  18.704  37.321   9.270
 2450POPC   C1A34323  19.114  37.548   8.763
 2450POPC   D2A34324  18.942  37.820   8.416
 2450POPC   C3A34325  19.001  37.672   7.995
 2450POPC   C4A34326  19.109  37.723   7.520
 2450POPC   C1B34327  18.722  37.198   8.847
 2450POPC   C2B34328  18.711  37.378   8.453
 2450POPC   C3B34329  18.572  37.430   8.056
 2450POPC   C4B34330  18.717  37.428   7.620
 2451POPC   NC334331  32.635  25.434   9.227
 2451POPC   PO434332  33.199  25.017   9.534
 2451POPC   GL134333  32.965  25.034   9.209
 2451POPC   GL234334  32.655  24.861   9.280
 2451POPC   C1A34335  33.072  25.096   8.813
 2451POPC   D2A34336  32.882  25.430   8.588
 2451POPC   C3A34337  32.884  25.421   8.132
 2451POPC   C4A34338  32.975  25.397   7.677
 2451POPC   C1B34339  32.677  24.793   8.826
 2451POPC   C2B34340  32.895  24.885   8.399
 2451POPC   C3B34341  33.043  24.939   7.981
 2451POPC   C4B34342  32.774  24.915   7.627
 2452POPC   NC334343  23.763  38.223   9.538
 2452POPC   PO434344  23.513  38.787   9.380
 2452POPC   GL134345  23.750  38.522   9.116
 2452POPC   GL234346  23.601  38.201   9.061
 2452POPC   C1A34347  23.791  38.519   8.686
 2452POPC   D2A34348  23.746  38.745   8.306
 2452POPC   C3A34349  23.913  38.555   7.948
 2452POPC   C4A34350  23.790  38.578   7.544
 2452POPC   C1B34351  23.420  38.162   8.646
 2452POPC   C2B34352  23.646  38.205   8.230
 2452POPC   C3B34353  23.588  38.135   7.756
 2452POPC   C4B34354  23.571  38.221   7.276
 2453POPC   NC334355   9.723  44.916   9.842
 2453POPC   PO434356   9.485   0.473   9.509
 2453POPC   GL134357   9.833   0.400   9.230
 2453POPC   GL234358   9.622   0.335   8.985
 2453POPC   C1A34359   9.967   0.655   8.874
 2453POPC   D2A34360   9.825   0.750   8.456
 2453POPC   C3A34361  10.110   0.717   8.103
 2453POPC   C4A34362   9.956   0.490   7.734
 2453POPC   C1B34363   9.791   0.233   8.612
 2453POPC   C2B34364   9.866   0.245   8.193
 2453POPC   C3B34365  10.066   0.005   7.904
 2453POPC   C4B34366  10.085   0.044   7.449
 2454POPC   NC334367  26.075  39.806   9.509
 2454POPC   PO434368  26.107  40.449   9.614
 2454POPC   GL134369  25.905  40.212   9.256
 2454POPC   GL234370  26.199  40.206   9.153
 2454POPC   C1A34371  25.897  39.932   8.869
 2454POPC   D2A34372  25.964  39.799   8.458
 2454POPC   C3A34373  25.763  39.960   8.112
 2454POPC   C4A34374  25.902  39.885   7.708
 2454POPC   C1B34375  26.374  40.064   8.789
 2454POPC   C2B34376  26.467  39.896   8.412
 2454POPC   C3B34377  26.305  39.959   8.041
 2454POPC   C4B34378  26.520  39.790   7.732
 2455POPC   NC334379  34.256  37.905   9.425
 2455POPC   PO434380  33.549  37.822   9.560
 2455POPC   GL134381  33.762  37.711   9.156
 2455POPC   GL234382  34.033  37.851   8.982
 2455POPC   C1A34383  33.606  37.774   8.716
 2455POPC   D2A34384  33.440  38.055   8.404
 2455POPC   C3A34385  33.671  38.094   8.035
 2455POPC   C4A34386  33.638  37.959   7.617
 2455POPC   C1B34387  34.057  37.487   8.724
 2455POPC   C2B34388  33.797  37.433   8.367
 2455POPC   C3B34389  33.760  37.602   7.982
 2455POPC   C4B34390  34.087  37.854   7.807
 2456POPC   NC334391  24.412  17.796   9.463
 2456POPC   PO434392  24.757  18.501   9.544
 2456POPC   GL134393  24.490  18.303   9.280
 2456POPC   GL234394  24.729  18.069   9.166
 2456POPC   C1A34395  24.282  18.318   8.883
 2456POPC   D2A34396  24.123  18.191   8.484
 2456POPC   C3A34397  24.399  18.162   8.151
 2456POPC   C4A34398  24.354  18.343   7.754
 2456POPC   C1B34399  24.804  18.372   8.878
 2456POPC   C2B34400  24.660  18.454   8.502
 2456POPC   C3B34401  24.797  18.485   8.104
 2456POPC   C4B34402  24.857  18.447   7.688
 2457POPC   NC334403  30.888  43.326   9.528
 2457POPC   PO434404  30.350  42.957   9.449
 2457POPC   GL134405  30.544  43.165   9.149
 2457POPC   GL234406  30.870  43.050   9.090
 2457POPC   C1A34407  30.628  43.252   8.685
 2457POPC   D2A34408  30.937  43.221   8.378
 2457POPC   C3A34409  30.817  42.996   8.073
 2457POPC   C4A34410  30.637  43.253   7.758
 2457POPC   C1B34411  30.857  42.793   8.690
 2457POPC   C2B34412  31.074  42.579   8.352
 2457POPC   C3B34413  31.003  42.500   7.926
 2457POPC   C4B34414  30.937  42.815   7.619
 2458POPC   NC334415  27.774  24.941   9.966
 2458POPC   PO434416  27.593  25.497   9.610
 2458POPC   GL134417  27.454  25.316   9.205
 2458POPC   GL234418  27.555  24.944   9.168
 2458POPC   C1A34419  27.410  25.538   8.799
 2458POPC   D2A34420  27.645  25.686   8.444
 2458POPC   C3A34421  27.497  25.542   8.039
 2458POPC   C4A34422  27.770  25.621   7.698
 2458POPC   C1B34423  27.350  25.031   8.788
 2458POPC   C2B34424  27.488  25.184   8.407
 2458POPC   C3B34425  27.600  25.031   8.018
 2458POPC   C4B34426  27.442  25.199   7.659
 2459POPC   NC334427  27.412  18.968   9.291
 2459POPC   PO434428  27.804  19.436   9.481
 2459POPC   GL134429  27.774  19.265   9.091
 2459POPC   GL234430  27.410  19.404   9.023
 2459POPC   C1A34431  27.858  18.964   8.753
 2459POPC   D2A34432  28.012  18.873   8.320
 2459POPC   C3A34433  27.849  19.078   7.972
 2459POPC   C4A34434  27.830  18.931   7.537
 2459POPC   C1B34435  27.619  19.437   8.649
 2459POPC   C2B34436  27.533  19.123   8.390
 2459POPC   C3B34437  27.348  19.064   8.034
 2459POPC   C4B34438  27.487  19.309   7.695
 2460POPC   NC334439  34.099   7.115   9.941
 2460POPC   PO434440  33.586   6.898   9.552
 2460POPC   GL134441  33.791   6.730   9.146
 2460POPC   GL234442  34.025   6.948   8.956
 2460POPC   C1A34443  33.826   6.550   8.723
 2460POPC   D2A34444  33.789   6.752   8.319
 2460POPC   C3A34445  33.931   6.525   7.989
 2460POPC   C4A34446  33.666   6.373   7.657
 2460POPC   C1B34447  34.107   7.060   8.573
 2460POPC   C2B34448  33.966   7.256   8.214
 2460POPC   C3B34449  33.830   7.040   7.856
 2460POPC   C4B34450  33.988   6.774   7.566
 2461POPC   NC334451  18.356  41.853   9.534
 2461POPC   PO434452  18.261  41.179   9.444
 2461POPC   GL134453  18.339  41.498   9.106
 2461POPC   GL234454  18.597  41.785   9.094
 2461POPC   C1A34455  18.184  41.540   8.666
 2461POPC   D2A34456  18.273  41.348   8.254
 2461POPC   C3A34457  18.143  41.552   7.870
 2461POPC   C4A34458  18.165  41.960   7.648
 2461POPC   C1B34459  18.546  41.937   8.686
 2461POPC   C2B34460  18.395  41.863   8.252
 2461POPC   C3B34461  18.606  41.817   7.851
 2461POPC   C4B34462  18.623  41.933   7.390
 2462POPC   NC334463  24.811  11.867   9.459
 2462POPC   PO434464  24.932  11.178   9.533
 2462POPC   GL134465  25.102  11.328   9.125
 2462POPC   GL234466  25.428  11.524   9.113
 2462POPC   C1A34467  25.248  11.133   8.727
 2462POPC   D2A34468  25.530  11.059   8.379
 2462POPC   C3A34469  25.307  11.059   8.001
 2462POPC   C4A34470  24.980  11.179   7.688
 2462POPC   C1B34471  25.299  11.639   8.734
 2462POPC   C2B34472  25.259  11.494   8.330
 2462POPC   C3B34473  25.204  11.552   7.909
 2462POPC   C4B34474  25.099  11.607   7.437
 2463POPC   NC334475  15.147  25.687   9.475
 2463POPC   PO434476  15.022  25.059   9.681
 2463POPC   GL134477  15.162  25.215   9.243
 2463POPC   GL234478  14.912  25.457   9.065
 2463POPC   C1A34479  15.346  25.367   8.824
 2463POPC   D2A34480  15.097  25.403   8.441
 2463POPC   C3A34481  15.330  25.368   8.072
 2463POPC   C4A34482  15.378  25.180   7.696
 2463POPC   C1B34483  14.957  25.053   8.791
 2463POPC   C2B34484  14.894  24.960   8.336
 2463POPC   C3B34485  14.924  25.039   7.896
 2463POPC   C4B34486  15.078  24.699   7.635
 2464POPC   NC334487  13.792  40.106   9.691
 2464POPC   PO434488  13.697  39.473   9.488
 2464POPC   GL134489  13.661  39.715   9.116
 2464POPC   GL234490  13.730  40.076   9.163
 2464POPC   C1A34491  13.468  39.862   8.742
 2464POPC   D2A34492  13.562  40.038   8.349
 2464POPC   C3A34493  13.540  39.758   7.967
 2464POPC   C4A34494  13.484  39.972   7.581
 2464POPC   C1B34495  13.725  40.329   8.764
 2464POPC   C2B34496  13.911  40.400   8.351
 2464POPC   C3B34497  13.618  40.389   7.976
 2464POPC   C4B34498  13.875  40.383   7.638
 2465POPC   NC334499  28.000   3.780   9.495
 2465POPC   PO434500  28.187   4.464   9.370
 2465POPC   GL134501  28.219   4.437   8.978
 2465POPC   GL234502  28.392   4.129   8.910
 2465POPC   C1A34503  28.373   4.631   8.656
 2465POPC   D2A34504  28.292   4.402   8.334
 2465POPC   C3A34505  28.501   4.480   8.018
 2465POPC   C4A34506  28.316   4.468   7.659
 2465POPC   C1B34507  28.717   4.275   8.603
 2465POPC   C2B34508  28.831   4.121   8.196
 2465POPC   C3B34509  28.606   4.043   7.791
 2465POPC   C4B34510  28.823   3.998   7.337
 2466POPC   NC334511  38.313   2.565   9.660
 2466POPC   PO434512  38.554   3.162   9.425
 2466POPC   GL134513  38.550   2.926   9.083
 2466POPC   GL234514  38.535   2.605   9.183
 2466POPC   C1A34515  38.438   2.725   8.699
 2466POPC   D2A34516  38.377   2.485   8.359
 2466POPC   C3A34517  38.376   2.738   7.960
 2466POPC   C4A34518  38.787   2.919   7.753
 2466POPC   C1B34519  38.763   2.364   8.871
 2466POPC   C2B34520  38.840   2.158   8.464
 2466POPC   C3B34521  38.731   2.357   8.044
 2466POPC   C4B34522  38.633   2.442   7.638
 2467POPC   NC334523   1.352  16.286   9.170
 2467POPC   PO434524   1.028  16.486   9.725
 2467POPC   GL134525   0.958  16.604   9.229
 2467POPC   GL234526   1.285  16.759   9.030
 2467POPC   C1A34527   0.859  16.733   8.780
 2467POPC   D2A34528   1.190  16.855   8.469
 2467POPC   C3A34529   1.157  16.546   8.128
 2467POPC   C4A34530   0.797  16.401   7.832
 2467POPC   C1B34531   1.636  16.928   8.826
 2467POPC   C2B34532   1.716  16.948   8.371
 2467POPC   C3B34533   1.450  16.949   8.005
 2467POPC   C4B34534   1.283  16.714   7.661
 2468POPC   NC334535  13.593   4.228   9.499
 2468POPC   PO434536  14.139   4.296   9.135
 2468POPC   GL134537  13.690   4.181   8.995
 2468POPC   GL234538  13.406   4.430   9.072
 2468POPC   C1A34539  13.570   4.132   8.565
 2468POPC   D2A34540  13.855   4.415   8.379
 2468POPC   C3A34541  14.063   4.313   8.021
 2468POPC   C4A34542  14.024   4.324   7.615
 2468POPC   C1B34543  13.107   4.271   8.784
 2468POPC   C2B34544  13.064   4.157   8.373
 2468POPC   C3B34545  13.410   4.344   8.114
 2468POPC   C4B34546  13.537   4.428   7.704
 2469POPC   NC334547  20.399  41.244   9.653
 2469POPC   PO434548  20.497  41.854   9.392
 2469POPC   GL134549  20.671  41.646   9.048
 2469POPC   GL234550  20.440  41.401   9.038
 2469POPC   C1A34551  20.649  41.542   8.606
 2469POPC   D2A34552  20.513  41.459   8.200
 2469POPC   C3A34553  20.832  41.325   7.925
 2469POPC   C4A34554  20.947  41.642   7.652
 2469POPC   C1B34555  20.352  41.150   8.652
 2469POPC   C2B34556  20.071  41.218   8.290
 2469POPC   C3B34557  20.217  41.206   7.860
 2469POPC   C4B34558  20.453  41.502   7.619
 2470POPC   NC334559  15.418   2.370   9.467
 2470POPC   PO434560  16.132   2.346   9.476
 2470POPC   GL134561  15.941   2.108   9.158
 2470POPC   GL234562  16.117   1.796   9.120
 2470POPC   C1A34563  15.844   2.129   8.733
 2470POPC   D2A34564  16.035   2.218   8.335
 2470POPC   C3A34565  15.803   2.094   7.973
 2470POPC   C4A34566  15.863   2.231   7.527
 2470POPC   C1B34567  15.965   1.640   8.742
 2470POPC   C2B34568  15.781   1.711   8.362
 2470POPC   C3B34569  15.859   1.543   7.972
 2470POPC   C4B34570  15.717   1.739   7.625
 2471POPC   NC334571  13.469   5.130   9.912
 2471POPC   PO434572  13.979   4.815   9.539
 2471POPC   GL134573  13.677   4.910   9.208
 2471POPC   GL234574  13.305   4.899   9.305
 2471POPC   C1A34575  13.585   5.285   8.947
 2471POPC   D2A34576  13.484   5.433   8.522
 2471POPC   C3A34577  13.730   5.228   8.228
 2471POPC   C4A34578  13.732   5.272   7.776
 2471POPC   C1B34579  13.299   4.865   8.834
 2471POPC   C2B34580  13.481   4.788   8.421
 2471POPC   C3B34581  13.477   4.865   7.974
 2471POPC   C4B34582  13.445   4.917   7.510
 2472POPC   NC334583  31.476  10.558  10.204
 2472POPC   PO434584  31.346  10.609   9.746
 2472POPC   GL134585  31.506  10.713   9.278
 2472POPC   GL234586  31.784  10.501   9.113
 2472POPC   C1A34587  31.490  10.760   8.793
 2472POPC   D2A34588  31.358  10.563   8.397
 2472POPC   C3A34589  31.484  10.631   7.954
 2472POPC   C4A34590  31.354  10.400   7.574
 2472POPC   C1B34591  31.673  10.276   8.697
 2472POPC   C2B34592  31.791  10.305   8.242
 2472POPC   C3B34593  31.785  10.185   7.781
 2472POPC   C4B34594  31.766  10.211   7.298
 2473POPC   NC334595  34.639  43.572   9.412
 2473POPC   PO434596  34.218  43.997   9.533
 2473POPC   GL134597  34.403  43.893   9.119
 2473POPC   GL234598  34.293  43.550   9.045
 2473POPC   C1A34599  34.697  43.718   8.788
 2473POPC   D2A34600  34.724  43.692   8.383
 2473POPC   C3A34601  34.517  44.013   8.104
 2473POPC   C4A34602  34.636  44.164   7.697
 2473POPC   C1B34603  34.329  43.231   8.727
 2473POPC   C2B34604  34.468  43.240   8.313
 2473POPC   C3B34605  34.466  43.529   7.991
 2473POPC   C4B34606  34.438  43.667   7.610
 2474POPC   NC334607  25.572  26.460   9.627
 2474POPC   PO434608  26.234  26.521   9.410
 2474POPC   GL134609  26.031  26.568   9.055
 2474POPC   GL234610  25.730  26.387   9.145
 2474POPC   C1A34611  26.052  26.837   8.688
 2474POPC   D2A34612  26.228  26.936   8.280
 2474POPC   C3A34613  26.055  26.996   7.877
 2474POPC   C4A34614  26.295  27.284   7.625
 2474POPC   C1B34615  25.639  26.481   8.719
 2474POPC   C2B34616  25.841  26.523   8.337
 2474POPC   C3B34617  25.776  26.567   7.929
 2474POPC   C4B34618  25.927  26.524   7.549
 2475POPC   NC334619  35.776   9.311   9.628
 2475POPC   PO434620  35.131   9.551   9.422
 2475POPC   GL134621  35.218   9.465   9.051
 2475POPC   GL234622  35.456   9.243   9.197
 2475POPC   C1A34623  35.211   9.750   8.698
 2475POPC   D2A34624  34.892   9.969   8.429
 2475POPC   C3A34625  34.997  10.076   8.015
 2475POPC   C4A34626  35.288   9.849   7.816
 2475POPC   C1B34627  35.580   9.236   8.788
 2475POPC   C2B34628  35.599   9.484   8.443
 2475POPC   C3B34629  35.474   9.314   8.061
 2475POPC   C4B34630  35.587   9.484   7.677
 2476POPC   NC334631  21.913  18.016   9.580
 2476POPC   PO434632  22.250  18.638   9.481
 2476POPC   GL134633  22.194  18.427   9.143
 2476POPC   GL234634  21.842  18.519   9.146
 2476POPC   C1A34635  22.307  18.579   8.706
 2476POPC   D2A34636  22.070  18.553   8.339
 2476POPC   C3A34637  22.323  18.516   7.999
 2476POPC   C4A34638  22.150  18.388   7.622
 2476POPC   C1B34639  21.927  18.252   8.769
 2476POPC   C2B34640  21.918  18.060   8.373
 2476POPC   C3B34641  21.993  18.052   7.955
 2476POPC   C4B34642  21.853  17.972   7.525
 2477POPC   NC334643  34.708  35.895   9.632
 2477POPC   PO434644  34.338  36.434   9.498
 2477POPC   GL134645  34.508  36.129   9.186
 2477POPC   GL234646  34.849  36.168   9.208
 2477POPC   C1A34647  34.667  35.863   8.803
 2477POPC   D2A34648  34.913  35.983   8.421
 2477POPC   C3A34649  34.689  35.881   8.070
 2477POPC   C4A34650  34.499  35.704   7.714
 2477POPC   C1B34651  34.823  36.334   8.795
 2477POPC   C2B34652  34.600  36.388   8.421
 2477POPC   C3B34653  34.399  36.305   8.043
 2477POPC   C4B34654  34.604  36.211   7.675
 2478POPC   NC334655  15.497  22.308   9.534
 2478POPC   PO434656  14.879  21.867   9.429
 2478POPC   GL134657  15.050  22.042   9.075
 2478POPC   GL234658  15.406  22.033   9.115
 2478POPC   C1A34659  15.207  22.148   8.652
 2478POPC   D2A34660  15.441  22.028   8.293
 2478POPC   C3A34661  15.226  21.987   7.892
 2478POPC   C4A34662  14.930  22.336   7.817
 2478POPC   C1B34663  15.570  22.399   8.882
 2478POPC   C2B34664  15.575  22.508   8.436
 2478POPC   C3B34665  15.449  22.495   8.000
 2478POPC   C4B34666  15.389  22.346   7.561
 2479POPC   NC334667  10.002  21.257   9.432
 2479POPC   PO434668  10.556  21.685   9.538
 2479POPC   GL134669  10.391  21.513   9.182
 2479POPC   GL234670  10.505  21.182   9.287
 2479POPC   C1A34671  10.288  21.396   8.756
 2479POPC   D2A34672  10.519  21.543   8.405
 2479POPC   C3A34673  10.459  21.450   7.995
 2479POPC   C4A34674  10.618  21.691   7.669
 2479POPC   C1B34675  10.452  20.928   8.930
 2479POPC   C2B34676  10.581  21.009   8.507
 2479POPC   C3B34677  10.841  21.142   8.169
 2479POPC   C4B34678  10.882  21.240   7.739
 2480POPC   NC334679  14.523  40.519   9.570
 2480POPC   PO434680  14.158  41.058   9.379
 2480POPC   GL134681  14.464  40.819   9.146
 2480POPC   GL234682  14.405  40.478   9.087
 2480POPC   C1A34683  14.515  40.876   8.705
 2480POPC   D2A34684  14.424  41.224   8.433
 2480POPC   C3A34685  14.426  41.110   8.025
 2480POPC   C4A34686  14.420  41.346   7.653
 2480POPC   C1B34687  14.301  40.364   8.690
 2480POPC   C2B34688  14.484  40.497   8.296
 2480POPC   C3B34689  14.588  40.644   7.883
 2480POPC   C4B34690  14.280  40.771   7.603
 2481POPC   NC334691  14.712   8.209   9.564
 2481POPC   PO434692  14.081   8.247   9.804
 2481POPC   GL134693  14.235   8.105   9.297
 2481POPC   GL234694  14.529   7.888   9.152
 2481POPC   C1A34695  14.184   8.020   8.798
 2481POPC   D2A34696  14.340   8.213   8.362
 2481POPC   C3A34697  14.225   8.096   7.909
 2481POPC   C4A34698  14.316   8.383   7.597
 2481POPC   C1B34699  14.658   8.211   8.785
 2481POPC   C2B34700  14.866   8.166   8.358
 2481POPC   C3B34701  14.783   8.231   7.910
 2481POPC   C4B34702  14.652   8.008   7.541
 2482POPC   NC334703  11.940   1.090   9.400
 2482POPC   PO434704  12.235   1.653   9.394
 2482POPC   GL134705  12.074   1.439   9.017
 2482POPC   GL234706  12.131   1.062   8.935
 2482POPC   C1A34707  12.160   1.564   8.601
 2482POPC   D2A34708  12.294   1.566   8.185
 2482POPC   C3A34709  12.105   1.280   7.893
 2482POPC   C4A34710  12.257   1.263   7.443
 2482POPC   C1B34711  11.702   0.826   8.844
 2482POPC   C2B34712  11.519   0.811   8.424
 2482POPC   C3B34713  11.788   0.907   8.070
 2482POPC   C4B34714  11.912   0.918   7.591
 2483POPC   NC334715   1.453   8.218   9.471
 2483POPC   PO434716   0.824   8.117   9.515
 2483POPC   GL134717   1.029   8.317   9.206
 2483POPC   GL234718   1.151   7.993   9.091
 2483POPC   C1A34719   1.215   8.422   8.822
 2483POPC   D2A34720   1.120   8.148   8.478
 2483POPC   C3A34721   1.347   8.362   8.164
 2483POPC   C4A34722   1.264   8.464   7.734
 2483POPC   C1B34723   1.511   7.979   8.794
 2483POPC   C2B34724   1.535   7.882   8.344
 2483POPC   C3B34725   1.355   7.917   7.927
 2483POPC   C4B34726   0.938   8.013   7.750
 2484POPC   NC334727  44.043  17.191   9.437
 2484POPC   PO434728  43.467  17.521   9.519
 2484POPC   GL134729  43.762  17.512   9.166
 2484POPC   GL234730  44.085  17.700   9.242
 2484POPC   C1A34731  43.748  17.333   8.756
 2484POPC   D2A34732  43.441  17.316   8.423
 2484POPC   C3A34733  43.603  17.246   8.023
 2484POPC   C4A34734  43.723  17.478   7.689
 2484POPC   C1B34735  44.278  17.476   8.881
 2484POPC   C2B34736  44.138  17.532   8.490
 2484POPC   C3B34737  44.038  17.499   8.102
 2484POPC   C4B34738  44.210  17.631   7.731
 2485POPC   NC334739  41.389  36.831   9.284
 2485POPC   PO434740  41.889  37.319   9.462
 2485POPC   GL134741  41.694  37.193   9.083
 2485POPC   GL234742  41.859  36.881   9.080
 2485POPC   C1A34743  41.545  36.942   8.680
 2485POPC   D2A34744  41.331  36.842   8.278
 2485POPC   C3A34745  41.514  37.008   7.877
 2485POPC   C4A34746  41.394  36.711   7.519
 2485POPC   C1B34747  41.993  36.705   8.703
 2485POPC   C2B34748  41.837  36.771   8.283
 2485POPC   C3B34749  41.639  36.529   7.972
 2485POPC   C4B34750  41.803  36.310   7.649
 2486POPC   NC334751  26.632   0.493   9.480
 2486POPC   PO434752  27.299   0.517   9.530
 2486POPC   GL134753  26.985   0.464   9.112
 2486POPC   GL234754  27.246   0.362   8.836
 2486POPC   C1A34755  26.796   0.268   8.690
 2486POPC   D2A34756  26.992   0.458   8.293
 2486POPC   C3A34757  26.756   0.571   7.920
 2486POPC   C4A34758  26.689   0.231   7.617
 2486POPC   C1B34759  27.085   0.741   8.711
 2486POPC   C2B34760  27.222   0.935   8.363
 2486POPC   C3B34761  27.230   0.833   7.967
 2486POPC   C4B34762  27.182   0.519   7.654
 2487POPC   NC334763  32.899  32.533   9.535
 2487POPC   PO434764  33.249  33.093   9.620
 2487POPC   GL134765  33.084  32.978   9.201
 2487POPC   GL234766  32.845  32.713   9.078
 2487POPC   C1A34767  33.178  33.082   8.765
 2487POPC   D2A34768  33.237  33.418   8.442
 2487POPC   C3A34769  33.298  33.206   8.038
 2487POPC   C4A34770  33.356  32.836   7.776
 2487POPC   C1B34771  32.676  32.936   8.734
 2487POPC   C2B34772  32.817  33.115   8.358
 2487POPC   C3B34773  32.876  32.926   7.956
 2487POPC   C4B34774  32.930  32.704   7.553
 2488POPC   NC334775   8.356  13.987   9.669
 2488POPC   PO434776   8.339  14.705   9.507
 2488POPC   GL134777   8.145  14.400   9.246
 2488POPC   GL234778   8.456  14.224   9.215
 2488POPC   C1A34779   7.955  14.326   8.829
 2488POPC   D2A34780   7.853  14.493   8.426
 2488POPC   C3A34781   7.922  14.273   8.054
 2488POPC   C4A34782   8.023  14.514   7.709
 2488POPC   C1B34783   8.457  14.405   8.817
 2488POPC   C2B34784   8.320  14.261   8.420
 2488POPC   C3B34785   8.429  14.395   8.002
 2488POPC   C4B34786   8.554  14.097   7.683
 2489POPC   NC334787  25.953  18.581   9.568
 2489POPC   PO434788  26.399  18.121   9.539
 2489POPC   GL134789  26.124  18.226   9.188
 2489POPC   GL234790  25.759  18.301   9.185
 2489POPC   C1A34791  26.099  18.022   8.777
 2489POPC   D2A34792  25.990  18.245   8.408
 2489POPC   C3A34793  26.194  18.215   8.002
 2489POPC   C4A34794  26.333  18.580   7.781
 2489POPC   C1B34795  25.604  18.160   8.770
 2489POPC   C2B34796  25.529  17.982   8.395
 2489POPC   C3B34797  25.656  18.181   8.022
 2489POPC   C4B34798  25.845  18.309   7.602
 2490POPC   NC334799   7.653  21.756   9.384
 2490POPC   PO434800   7.134  22.187   9.554
 2490POPC   GL134801   7.343  22.284   9.103
 2490POPC   GL234802   7.704  22.194   9.114
 2490POPC   C1A34803   7.256  22.248   8.667
 2490POPC   D2A34804   7.265  21.966   8.321
 2490POPC   C3A34805   7.263  22.195   7.924
 2490POPC   C4A34806   7.121  22.002   7.508
 2490POPC   C1B34807   7.667  21.959   8.730
 2490POPC   C2B34808   7.806  21.806   8.363
 2490POPC   C3B34809   7.651  21.842   7.986
 2490POPC   C4B34810   7.664  22.121   7.641
 2491POPC   NC334811  28.696  39.263   9.310
 2491POPC   PO434812  29.333  39.504   9.516
 2491POPC   GL134813  29.226  39.368   9.160
 2491POPC   GL234814  29.004  39.592   9.098
 2491POPC   C1A34815  29.296  39.279   8.751
 2491POPC   D2A34816  29.010  39.135   8.490
 2491POPC   C3A34817  29.052  39.058   8.075
 2491POPC   C4A34818  28.852  39.018   7.706
 2491POPC   C1B34819  28.851  39.577   8.699
 2491POPC   C2B34820  29.055  39.602   8.275
 2491POPC   C3B34821  28.966  39.527   7.843
 2491POPC   C4B34822  28.953  39.423   7.409
 2492POPC   NC334823  10.868  17.830   9.820
 2492POPC   PO434824  10.438  17.595   9.330
 2492POPC   GL134825  10.485  17.362   8.993
 2492POPC   GL234826  10.746  17.161   9.084
 2492POPC   C1A34827  10.488  17.526   8.591
 2492POPC   D2A34828  10.184  17.551   8.276
 2492POPC   C3A34829  10.413  17.459   7.898
 2492POPC   C4A34830  10.345  17.765   7.578
 2492POPC   C1B34831  10.967  17.435   8.758
 2492POPC   C2B34832  10.928  17.733   8.365
 2492POPC   C3B34833  10.872  17.756   7.878
 2492POPC   C4B34834  10.762  17.459   7.509
 2493POPC   NC334835  35.991  37.571   9.344
 2493POPC   PO434836  36.408  38.107   9.471
 2493POPC   GL134837  36.336  38.006   9.048
 2493POPC   GL234838  36.374  37.678   9.008
 2493POPC   C1A34839  36.340  38.026   8.556
 2493POPC   D2A34840  36.092  37.884   8.228
 2493POPC   C3A34841  36.157  37.909   7.800
 2493POPC   C4A34842  36.350  37.588   7.574
 2493POPC   C1B34843  36.034  37.640   8.715
 2493POPC   C2B34844  35.902  37.431   8.371
 2493POPC   C3B34845  35.945  37.394   7.951
 2493POPC   C4B34846  35.703  37.079   7.731
 2494POPC   NC334847  36.715  28.438   9.519
 2494POPC   PO434848  37.366  28.172   9.603
 2494POPC   GL134849  37.150  28.355   9.276
 2494POPC   GL234850  37.190  28.047   9.122
 2494POPC   C1A34851  37.034  28.475   8.852
 2494POPC   D2A34852  37.191  28.524   8.430
 2494POPC   C3A34853  37.039  28.414   8.033
 2494POPC   C4A34854  36.731  28.494   7.747
 2494POPC   C1B34855  37.030  27.971   8.723
 2494POPC   C2B34856  36.753  28.159   8.410
 2494POPC   C3B34857  36.697  28.000   7.975
 2494POPC   C4B34858  37.023  28.032   7.656
 2495POPC   NC334859  44.032  27.182   9.596
 2495POPC   PO434860  43.786  27.818   9.862
 2495POPC   GL134861  43.801  27.802   9.371
 2495POPC   GL234862  43.531  27.701   9.215
 2495POPC   C1A34863  43.949  27.777   8.915
 2495POPC   D2A34864  44.087  27.589   8.510
 2495POPC   C3A34865  44.008  27.720   8.108
 2495POPC   C4A34866  44.048  27.618   7.685
 2495POPC   C1B34867  43.495  27.536   8.781
 2495POPC   C2B34868  43.635  27.402   8.356
 2495POPC   C3B34869  43.578  27.571   7.919
 2495POPC   C4B34870  43.585  27.657   7.454
 2496POPC   NC334871  29.635  22.021   9.314
 2496POPC   PO434872  29.761  22.560   9.453
 2496POPC   GL134873  30.111  22.213   9.191
 2496POPC   GL234874  30.075  21.848   9.051
 2496POPC   C1A34875  30.269  22.161   8.715
 2496POPC   D2A34876  30.065  22.418   8.407
 2496POPC   C3A34877  29.853  22.222   8.092
 2496POPC   C4A34878  29.936  22.058   7.688
 2496POPC   C1B34879  29.772  22.097   8.715
 2496POPC   C2B34880  29.486  22.027   8.386
 2496POPC   C3B34881  29.628  21.765   8.022
 2496POPC   C4B34882  29.608  21.698   7.561
 2497POPC   NC334883  10.368  15.188   9.556
 2497POPC   PO434884  10.975  15.046   9.641
 2497POPC   GL134885  10.738  15.233   9.212
 2497POPC   GL234886  10.542  14.986   9.105
 2497POPC   C1A34887  10.357  15.396   8.900
 2497POPC   D2A34888  10.003  15.290   8.564
 2497POPC   C3A34889  10.112  15.275   8.128
 2497POPC   C4A34890  10.317  15.320   7.720
 2497POPC   C1B34891  10.353  14.933   8.717
 2497POPC   C2B34892  10.521  15.235   8.429
 2497POPC   C3B34893  10.705  15.235   8.037
 2497POPC   C4B34894  10.852  15.199   7.623
 2498POPC   NC334895  13.301  14.916   9.590
 2498POPC   PO434896  12.880  15.515   9.563
 2498POPC   GL134897  13.001  15.366   9.202
 2498POPC   GL234898  12.656  15.240   9.160
 2498POPC   C1A34899  13.015  15.065   8.848
 2498POPC   D2A34900  13.283  14.969   8.504
 2498POPC   C3A34901  13.052  14.988   8.137
 2498POPC   C4A34902  13.077  15.190   7.777
 2498POPC   C1B34903  12.434  15.148   8.805
 2498POPC   C2B34904  12.681  15.210   8.451
 2498POPC   C3B34905  12.652  15.321   8.040
 2498POPC   C4B34906  12.363  15.040   7.949
 2499POPC   NC334907  29.123  34.433   9.692
 2499POPC   PO434908  29.062  33.693   9.624
 2499POPC   GL134909  28.950  33.651   9.207
 2499POPC   GL234910  29.033  33.989   9.200
 2499POPC   C1A34911  28.854  33.728   8.764
 2499POPC   D2A34912  28.993  33.433   8.433
 2499POPC   C3A34913  29.037  33.633   8.015
 2499POPC   C4A34914  29.270  33.728   7.623
 2499POPC   C1B34915  29.325  33.947   8.854
 2499POPC   C2B34916  29.290  33.857   8.436
 2499POPC   C3B34917  29.427  33.989   8.035
 2499POPC   C4B34918  29.185  34.214   7.715
 2500POPC   NC334919  17.633  26.295   9.495
 2500POPC   PO434920  17.353  25.671   9.466
 2500POPC   GL134921  17.418  26.013   9.106
 2500POPC   GL234922  17.712  26.278   8.989
 2500POPC   C1A34923  17.586  25.856   8.713
 2500POPC   D2A34924  17.464  25.656   8.343
 2500POPC   C3A34925  17.564  25.763   7.951
 2500POPC   C4A34926  17.789  25.933   7.632
 2500POPC   C1B34927  17.446  26.324   8.584
 2500POPC   C2B34928  17.416  26.204   8.141
 2500POPC   C3B34929  17.407  26.326   7.695
 2500POPC   C4B34930  17.468  26.508   7.261
 2501POPC   NC334931  35.904  15.583   9.642
 2501POPC   PO434932  35.753  14.961   9.462
 2501POPC   GL134933  35.957  15.289   9.189
 2501POPC   GL234934  36.189  15.574   9.211
 2501POPC   C1A34935  36.150  15.227   8.789
 2501POPC   D2A34936  35.890  14.982   8.514
 2501POPC   C3A34937  35.876  15.016   8.073
 2501POPC   C4A34938  35.653  14.793   7.713
 2501POPC   C1B34939  36.141  15.739   8.773
 2501POPC   C2B34940  36.245  15.571   8.332
 2501POPC   C3B34941  36.401  15.321   7.940
 2501POPC   C4B34942  36.488  15.405   7.460
 2502POPC   NC334943  30.457  35.671   9.542
 2502POPC   PO434944  30.864  36.238   9.714
 2502POPC   GL134945  30.810  36.112   9.280
 2502POPC   GL234946  30.740  35.779   9.129
 2502POPC   C1A34947  30.704  36.230   8.863
 2502POPC   D2A34948  30.867  36.469   8.548
 2502POPC   C3A34949  31.023  36.175   8.228
 2502POPC   C4A34950  30.837  36.156   7.814
 2502POPC   C1B34951  30.489  35.789   8.787
 2502POPC   C2B34952  30.503  36.027   8.384
 2502POPC   C3B34953  30.509  35.819   7.970
 2502POPC   C4B34954  30.597  35.795   7.507
 2503POPC   NC334955  37.747  26.888   9.589
 2503POPC   PO434956  38.165  26.381   9.365
 2503POPC   GL134957  37.858  26.623   9.127
 2503POPC   GL234958  37.765  26.981   9.100
 2503POPC   C1A34959  37.623  26.610   8.758
 2503POPC   D2A34960  37.834  26.630   8.395
 2503POPC   C3A34961  37.676  26.781   8.040
 2503POPC   C4A34962  37.448  26.818   7.661
 2503POPC   C1B34963  37.882  27.071   8.689
 2503POPC   C2B34964  37.770  27.245   8.282
 2503POPC   C3B34965  37.641  27.250   7.849
 2503POPC   C4B34966  37.897  27.091   7.492
 2504POPC   NC334967  20.129  38.199   9.546
 2504POPC   PO434968  19.617  38.672   9.467
 2504POPC   GL134969  19.941  38.612   9.118
 2504POPC   GL234970  20.098  38.292   9.060
 2504POPC   C1A34971  19.796  38.488   8.681
 2504POPC   D2A34972  19.602  38.550   8.242
 2504POPC   C3A34973  19.810  38.463   7.877
 2504POPC   C4A34974  19.805  38.456   7.453
 2504POPC   C1B34975  20.010  37.994   8.766
 2504POPC   C2B34976  19.805  38.065   8.382
 2504POPC   C3B34977  19.997  38.026   8.027
 2504POPC   C4B34978  19.854  37.983   7.653
 2505POPC   NC334979  37.127  14.757   9.368
 2505POPC   PO434980  37.423  14.370   9.745
 2505POPC   GL134981  37.547  14.290   9.276
 2505POPC   GL234982  37.521  14.599   9.079
 2505POPC   C1A34983  37.479  14.202   8.766
 2505POPC   D2A34984  37.284  14.181   8.301
 2505POPC   C3A34985  37.557  14.182   7.881
 2505POPC   C4A34986  37.912  14.368   7.611
 2505POPC   C1B34987  37.550  14.707   8.628
 2505POPC   C2B34988  37.630  14.551   8.225
 2505POPC   C3B34989  37.568  14.695   7.800
 2505POPC   C4B34990  37.710  14.790   7.390
 2506POPC   NC334991  24.643  35.917   9.532
 2506POPC   PO434992  24.578  36.599   9.454
 2506POPC   GL134993  24.655  36.291   9.168
 2506POPC   GL234994  24.333  36.130   9.152
 2506POPC   C1A34995  24.699  36.216   8.743
 2506POPC   D2A34996  24.628  36.243   8.319
 2506POPC   C3A34997  24.293  36.443   8.145
 2506POPC   C4A34998  24.259  36.119   7.875
 2506POPC   C1B34999  24.294  35.877   8.776
 2506POPC   C2B35000  24.151  35.918   8.342
 2506POPC   C3B35001  23.997  35.712   7.947
 2506POPC   C4B35002  24.375  35.613   7.702
 2507POPC   NC335003  43.698   7.160   9.571
 2507POPC   PO435004  43.522   7.806   9.600
 2507POPC   GL135005  43.834   7.636   9.322
 2507POPC   GL235006  43.578   7.467   9.168
 2507POPC   C1A35007  44.035   7.495   8.905
 2507POPC   D2A35008  44.049   7.263   8.505
 2507POPC   C3A35009  44.113   7.473   8.079
 2507POPC   C4A35010  44.019   7.615   7.640
 2507POPC   C1B35011  43.562   7.339   8.753
 2507POPC   C2B35012  43.624   7.547   8.385
 2507POPC   C3B35013  43.607   7.444   7.988
 2507POPC   C4B35014  43.418   7.350   7.624
 2508POPC   NC335015  28.982  32.593   9.420
 2508POPC   PO435016  29.354  32.043   9.485
 2508POPC   GL135017  29.227  32.144   9.080
 2508POPC   GL235018  29.379  32.478   9.142
 2508POPC   C1A35019  29.170  32.007   8.622
 2508POPC   D2A35020  29.092  31.841   8.179
 2508POPC   C3A35021  29.151  32.116   7.794
 2508POPC   C4A35022  29.044  32.442   7.464
 2508POPC   C1B35023  29.150  32.515   8.744
 2508POPC   C2B35024  29.219  32.430   8.315
 2508POPC   C3B35025  29.025  32.579   7.956
 2508POPC   C4B35026  28.823  32.850   7.687
 2509POPC   NC335027  43.745   3.852   9.358
 2509POPC   PO435028  44.234   3.921   9.805
 2509POPC   GL135029  44.088   3.500   9.338
 2509POPC   GL235030  43.755   3.408   9.138
 2509POPC   C1A35031  44.136   3.515   8.840
 2509POPC   D2A35032  44.243   3.757   8.468
 2509POPC   C3A35033  44.126   3.548   8.091
 2509POPC   C4A35034  43.994   3.540   7.663
 2509POPC   C1B35035  43.627   3.566   8.754
 2509POPC   C2B35036  43.734   3.451   8.393
 2509POPC   C3B35037  43.588   3.500   8.000
 2509POPC   C4B35038  43.474   3.448   7.575
 2510POPC   NC335039  32.940  35.901   9.613
 2510POPC   PO435040  32.627  36.562   9.521
 2510POPC   GL135041  32.967  36.345   9.284
 2510POPC   GL235042  33.138  36.614   9.102
 2510POPC   C1A35043  33.136  36.107   8.889
 2510POPC   D2A35044  33.360  35.966   8.468
 2510POPC   C3A35045  33.243  36.050   8.004
 2510POPC   C4A35046  33.204  36.154   7.521
 2510POPC   C1B35047  32.755  36.483   8.843
 2510POPC   C2B35048  32.519  36.267   8.505
 2510POPC   C3B35049  32.692  36.347   8.074
 2510POPC   C4B35050  32.844  36.477   7.659
 2511POPC   NC335051  10.768  37.273   9.498
 2511POPC   PO435052  10.448  36.777   9.643
 2511POPC   GL135053  10.626  36.768   9.224
 2511POPC   GL235054  10.371  36.533   9.119
 2511POPC   C1A35055  10.775  36.918   8.804
 2511POPC   D2A35056  10.951  37.061   8.373
 2511POPC   C3A35057  10.834  36.926   7.928
 2511POPC   C4A35058  10.600  37.035   7.542
 2511POPC   C1B35059  10.709  36.394   8.840
 2511POPC   C2B35060  10.808  36.525   8.417
 2511POPC   C3B35061  10.756  36.425   7.998
 2511POPC   C4B35062  10.433  36.576   7.723
 2512POPC   NC335063   9.843   9.188   9.574
 2512POPC   PO435064   9.573   8.602   9.494
 2512POPC   GL135065   9.615   8.940   9.171
 2512POPC   GL235066   9.447   9.267   9.217
 2512POPC   C1A35067   9.846   9.162   8.825
 2512POPC   D2A35068  10.055   9.100   8.418
 2512POPC   C3A35069   9.804   8.922   8.088
 2512POPC   C4A35070   9.663   8.846   7.657
 2512POPC   C1B35071   9.344   9.293   8.774
 2512POPC   C2B35072   9.531   9.299   8.356
 2512POPC   C3B35073   9.371   9.162   7.934
 2512POPC   C4B35074   9.426   9.294   7.509
 2513POPC   NC335075  29.070  20.208   9.410
 2513POPC   PO435076  29.357  19.571   9.535
 2513POPC   GL135077  29.356  19.675   9.133
 2513POPC   GL235078  29.029  19.799   9.109
 2513POPC   C1A35079  29.385  19.890   8.721
 2513POPC   D2A35080  29.609  19.939   8.306
 2513POPC   C3A35081  29.471  19.767   7.895
 2513POPC   C4A35082  29.384  19.860   7.431
 2513POPC   C1B35083  28.861  19.977   8.725
 2513POPC   C2B35084  29.060  19.956   8.302
 2513POPC   C3B35085  28.977  19.922   7.868
 2513POPC   C4B35086  28.633  20.139   7.697
 2514POPC   NC335087  34.934  31.686   9.575
 2514POPC   PO435088  34.394  31.345   9.832
 2514POPC   GL135089  34.449  31.458   9.354
 2514POPC   GL235090  34.687  31.704   9.132
 2514POPC   C1A35091  34.445  31.278   8.923
 2514POPC   D2A35092  34.632  31.415   8.531
 2514POPC   C3A35093  34.650  31.205   8.135
 2514POPC   C4A35094  34.519  31.341   7.717
 2514POPC   C1B35095  34.362  31.752   8.818
 2514POPC   C2B35096  34.188  31.693   8.445
 2514POPC   C3B35097  34.445  31.675   8.111
 2514POPC   C4B35098  34.469  31.850   7.729
 2515POPC   NC335099  39.482  26.821   9.731
 2515POPC   PO435100  39.137  27.268   9.396
 2515POPC   GL135101  38.958  27.101   9.060
 2515POPC   GL235102  39.010  26.754   9.159
 2515POPC   C1A35103  38.919  26.917   8.683
 2515POPC   D2A35104  39.138  26.740   8.353
 2515POPC   C3A35105  39.101  26.997   7.985
 2515POPC   C4A35106  38.907  27.244   7.668
 2515POPC   C1B35107  39.303  26.562   8.842
 2515POPC   C2B35108  39.512  26.373   8.492
 2515POPC   C3B35109  39.323  26.327   8.105
 2515POPC   C4B35110  39.274  26.578   7.772
 2516POPC   NC335111  34.254   8.011   9.526
 2516POPC   PO435112  34.833   8.130   9.609
 2516POPC   GL135113  34.679   8.168   9.167
 2516POPC   GL235114  34.363   8.346   9.153
 2516POPC   C1A35115  34.568   8.032   8.724
 2516POPC   D2A35116  34.760   8.174   8.327
 2516POPC   C3A35117  34.621   8.298   7.923
 2516POPC   C4A35118  34.583   8.511   7.499
 2516POPC   C1B35119  34.159   8.336   8.749
 2516POPC   C2B35120  34.161   8.106   8.363
 2516POPC   C3B35121  34.274   7.919   7.975
 2516POPC   C4B35122  34.061   8.015   7.612
 2517POPC   NC335123  35.024  41.265   9.600
 2517POPC   PO435124  34.431  41.550   9.432
 2517POPC   GL135125  34.445  41.499   9.039
 2517POPC   GL235126  34.450  41.155   9.086
 2517POPC   C1A35127  34.522  41.703   8.639
 2517POPC   D2A35128  34.707  41.885   8.263
 2517POPC   C3A35129  34.488  41.722   7.908
 2517POPC   C4A35130  34.571  41.543   7.505
 2517POPC   C1B35131  34.516  41.180   8.636
 2517POPC   C2B35132  34.485  41.278   8.184
 2517POPC   C3B35133  34.655  41.087   7.793
 2517POPC   C4B35134  34.864  41.168   7.366
 2518POPC   NC335135  16.018  12.520   9.567
 2518POPC   PO435136  15.741  11.905   9.703
 2518POPC   GL135137  15.873  11.868   9.234
 2518POPC   GL235138  16.124  12.114   9.239
 2518POPC   C1A35139  16.119  11.744   8.823
 2518POPC   D2A35140  16.297  11.790   8.381
 2518POPC   C3A35141  16.007  11.850   8.040
 2518POPC   C4A35142  15.671  11.969   7.767
 2518POPC   C1B35143  16.036  12.252   8.805
 2518POPC   C2B35144  16.155  12.275   8.342
 2518POPC   C3B35145  16.006  12.348   7.902
 2518POPC   C4B35146  15.903  12.320   7.461
 2519POPC   NC335147  35.063  44.844   9.445
 2519POPC   PO435148  35.538  44.427   9.451
 2519POPC   GL135149  35.437  44.357   9.054
 2519POPC   GL235150  35.095  44.384   9.165
 2519POPC   C1A35151  35.649  44.425   8.673
 2519POPC   D2A35152  35.905  44.610   8.345
 2519POPC   C3A35153  35.695  44.757   7.952
 2519POPC   C4A35154  35.754  44.617   7.500
 2519POPC   C1B35155  35.045  44.600   8.802
 2519POPC   C2B35156  35.217  44.565   8.420
 2519POPC   C3B35157  35.466  44.351   8.146
 2519POPC   C4B35158  35.313  44.512   7.721
 2520POPC   NC335159  39.470  24.993   9.533
 2520POPC   PO435160  40.179  24.944   9.421
 2520POPC   GL135161  39.846  25.186   9.177
 2520POPC   GL235162  39.526  25.063   9.033
 2520POPC   C1A35163  39.929  25.412   8.800
 2520POPC   D2A35164  40.077  25.156   8.480
 2520POPC   C3A35165  40.205  25.302   8.113
 2520POPC   C4A35166  40.213  25.108   7.721
 2520POPC   C1B35167  39.559  25.121   8.595
 2520POPC   C2B35168  39.696  25.473   8.320
 2520POPC   C3B35169  39.762  25.422   7.874
 2520POPC   C4B35170  39.701  25.025   7.666
 2521POPC   NC335171  34.711  27.671   9.469
 2521POPC   PO435172  34.041  27.794   9.386
 2521POPC   GL135173  34.349  27.665   9.069
 2521POPC   GL235174  34.578  27.433   8.986
 2521POPC   C1A35175  34.708  27.863   8.779
 2521POPC   D2A35176  34.887  27.698   8.392
 2521POPC   C3A35177  34.695  27.902   8.072
 2521POPC   C4A35178  34.436  27.917   7.776
 2521POPC   C1B35179  34.325  27.562   8.584
 2521POPC   C2B35180  34.158  27.718   8.194
 2521POPC   C3B35181  34.315  27.457   7.907
 2521POPC   C4B35182  34.711  27.459   7.817
 2522POPC   NC335183  13.747  23.418   9.626
 2522POPC   PO435184  13.346  23.931   9.494
 2522POPC   GL135185  13.718  23.779   9.212
 2522POPC   GL235186  13.871  23.430   9.147
 2522POPC   C1A35187  13.759  23.743   8.759
 2522POPC   D2A35188  13.571  23.926   8.405
 2522POPC   C3A35189  13.649  23.713   8.062
 2522POPC   C4A35190  13.653  23.915   7.710
 2522POPC   C1B35191  13.890  23.216   8.774
 2522POPC   C2B35192  14.023  23.262   8.366
 2522POPC   C3B35193  13.897  23.172   7.950
 2522POPC   C4B35194  13.778  23.433   7.620
 2523POPC   NC335195  39.990  30.954   9.494
 2523POPC   PO435196  39.609  30.436   9.433
 2523POPC   GL135197  40.020  30.544   9.175
 2523POPC   GL235198  40.150  30.875   9.029
 2523POPC   C1A35199  40.110  30.476   8.740
 2523POPC   D2A35200  39.943  30.393   8.337
 2523POPC   C3A35201  40.278  30.409   8.040
 2523POPC   C4A35202  40.309  30.375   7.598
 2523POPC   C1B35203  40.397  31.141   8.767
 2523POPC   C2B35204  40.389  31.161   8.333
 2523POPC   C3B35205  40.036  30.887   8.208
 2523POPC   C4B35206  39.854  30.652   7.851
 2524POPC   NC335207  40.918  20.925   9.736
 2524POPC   PO435208  40.583  20.393   9.553
 2524POPC   GL135209  40.851  20.646   9.271
 2524POPC   GL235210  40.693  20.958   9.275
 2524POPC   C1A35211  40.949  20.849   8.848
 2524POPC   D2A35212  40.738  20.933   8.447
 2524POPC   C3A35213  40.876  20.756   8.070
 2524POPC   C4A35214  41.025  20.731   7.690
 2524POPC   C1B35215  40.456  21.005   8.875
 2524POPC   C2B35216  40.248  20.764   8.535
 2524POPC   C3B35217  40.357  20.666   8.107
 2524POPC   C4B35218  40.504  20.821   7.699
 2525POPC   NC335219  34.399  13.271   9.518
 2525POPC   PO435220  34.341  12.580   9.616
 2525POPC   GL135221  34.558  12.756   9.224
 2525POPC   GL235222  34.440  13.069   9.002
 2525POPC   C1A35223  34.556  12.638   8.783
 2525POPC   D2A35224  34.320  12.832   8.443
 2525POPC   C3A35225  34.554  12.886   8.106
 2525POPC   C4A35226  34.786  12.598   7.813
 2525POPC   C1B35227  34.737  13.091   8.627
 2525POPC   C2B35228  34.985  13.116   8.243
 2525POPC   C3B35229  34.909  13.091   7.771
 2525POPC   C4B35230  34.802  13.100   7.307
 2526POPC   NC335231  14.289  10.264   9.428
 2526POPC   PO435232  14.912  10.279   9.644
 2526POPC   GL135233  14.679  10.465   9.203
 2526POPC   GL235234  14.515  10.821   9.103
 2526POPC   C1A35235  14.469  10.441   8.788
 2526POPC   D2A35236  14.179  10.454   8.451
 2526POPC   C3A35237  14.333  10.575   8.122
 2526POPC   C4A35238  14.486  10.350   7.843
 2526POPC   C1B35239  14.139  10.837   8.792
 2526POPC   C2B35240  13.909  10.896   8.385
 2526POPC   C3B35241  14.048  10.959   7.971
 2526POPC   C4B35242  14.288  10.797   7.609
 2527POPC   NC335243  43.109  31.128   9.667
 2527POPC   PO435244  42.841  31.766   9.531
 2527POPC   GL135245  43.077  31.476   9.240
 2527POPC   GL235246  43.299  31.170   9.187
 2527POPC   C1A35247  42.983  31.466   8.808
 2527POPC   D2A35248  42.878  31.721   8.463
 2527POPC   C3A35249  42.807  31.544   8.063
 2527POPC   C4A35250  43.009  31.597   7.630
 2527POPC   C1B35251  43.449  31.278   8.776
 2527POPC   C2B35252  43.276  31.144   8.398
 2527POPC   C3B35253  43.238  31.265   7.976
 2527POPC   C4B35254  43.220  31.075   7.576
 2528POPC   NC335255  23.113  26.856   9.519
 2528POPC   PO435256  22.669  26.335   9.649
 2528POPC   GL135257  22.698  26.699   9.295
 2528POPC   GL235258  22.557  27.040   9.264
 2528POPC   C1A35259  22.932  26.726   8.880
 2528POPC   D2A35260  22.716  26.529   8.549
 2528POPC   C3A35261  22.791  26.645   8.128
 2528POPC   C4A35262  23.063  26.672   7.774
 2528POPC   C1B35263  22.733  27.190   8.859
 2528POPC   C2B35264  22.911  27.261   8.435
 2528POPC   C3B35265  22.931  27.121   8.001
 2528POPC   C4B35266  22.606  26.944   7.727
 2529POPC   NC335267  15.695  39.863   9.736
 2529POPC   PO435268  16.327  40.068   9.524
 2529POPC   GL135269  16.099  40.004   9.152
 2529POPC   GL235270  15.721  39.907   9.224
 2529POPC   C1A35271  16.211  40.087   8.729
 2529POPC   D2A35272  16.311  39.896   8.333
 2529POPC   C3A35273  16.084  40.159   8.065
 2529POPC   C4A35274  16.081  40.411   7.694
 2529POPC   C1B35275  15.696  39.707   8.814
 2529POPC   C2B35276  15.796  39.831   8.375
 2529POPC   C3B35277  15.697  39.884   7.914
 2529POPC   C4B35278  15.895  39.885   7.523
 2530POPC   NC335279  34.872  35.147   9.649
 2530POPC   PO435280  34.221  35.230   9.839
 2530POPC   GL135281  34.402  35.242   9.363
 2530POPC   GL235282  34.703  35.092   9.187
 2530POPC   C1A35283  34.407  35.404   8.892
 2530POPC   D2A35284  34.243  35.447   8.441
 2530POPC   C3A35285  34.486  35.323   8.070
 2530POPC   C4A35286  34.428  35.213   7.624
 2530POPC   C1B35287  34.915  35.194   8.823
 2530POPC   C2B35288  34.829  35.467   8.475
 2530POPC   C3B35289  34.990  35.475   8.063
 2530POPC   C4B35290  34.938  35.216   7.727
 2531POPC   NC335291  35.815  38.270   9.439
 2531POPC   PO435292  36.281  38.815   9.513
 2531POPC   GL135293  36.131  38.573   9.176
 2531POPC   GL235294  35.847  38.754   9.118
 2531POPC   C1A35295  35.967  38.272   8.810
 2531POPC   D2A35296  35.824  38.298   8.365
 2531POPC   C3A35297  36.079  38.401   8.024
 2531POPC   C4A35298  36.199  38.754   7.738
 2531POPC   C1B35299  35.739  38.704   8.692
 2531POPC   C2B35300  35.826  38.800   8.273
 2531POPC   C3B35301  35.690  38.819   7.855
 2531POPC   C4B35302  35.785  38.811   7.416
 2532POPC   NC335303  27.449  41.837   9.275
 2532POPC   PO435304  27.688  41.368   9.667
 2532POPC   GL135305  27.775  41.449   9.158
 2532POPC   GL235306  27.464  41.530   8.882
 2532POPC   C1A35307  27.815  41.222   8.731
 2532POPC   D2A35308  27.992  41.200   8.301
 2532POPC   C3A35309  27.816  41.447   7.940
 2532POPC   C4A35310  27.382  41.349   7.781
 2532POPC   C1B35311  27.764  41.727   8.646
 2532POPC   C2B35312  27.665  41.871   8.248
 2532POPC   C3B35313  27.441  41.849   7.876
 2532POPC   C4B35314  27.617  42.032   7.534
 2533POPC   NC335315  34.897  37.702   9.446
 2533POPC   PO435316  34.276  37.432   9.500
 2533POPC   GL135317  34.418  37.512   9.107
 2533POPC   GL235318  34.731  37.371   9.072
 2533POPC   C1A35319  34.495  37.789   8.771
 2533POPC   D2A35320  34.676  37.844   8.366
 2533POPC   C3A35321  34.547  37.686   7.975
 2533POPC   C4A35322  34.715  37.803   7.590
 2533POPC   C1B35323  34.644  37.310   8.614
 2533POPC   C2B35324  34.300  37.252   8.300
 2533POPC   C3B35325  34.185  37.345   7.866
 2533POPC   C4B35326  34.313  37.549   7.435
 2534POPC   NC335327  42.620   2.513   9.840
 2534POPC   PO435328  42.048   2.785   9.526
 2534POPC   GL135329  42.265   2.747   9.161
 2534POPC   GL235330  42.008   2.898   8.944
 2534POPC   C1A35331  42.475   2.717   8.750
 2534POPC   D2A35332  42.323   2.551   8.368
 2534POPC   C3A35333  42.298   2.897   8.098
 2534POPC   C4A35334  42.360   2.954   7.669
 2534POPC   C1B35335  42.060   2.427   8.823
 2534POPC   C2B35336  41.947   2.147   8.484
 2534POPC   C3B35337  41.966   2.312   8.066
 2534POPC   C4B35338  42.161   2.485   7.695
 2535POPC   NC335339  11.860   7.870   9.643
 2535POPC   PO435340  12.518   8.027   9.522
 2535POPC   GL135341  12.132   8.057   9.233
 2535POPC   GL235342  11.794   7.874   9.136
 2535POPC   C1A35343  12.041   8.195   8.833
 2535POPC   D2A35344  11.866   8.252   8.457
 2535POPC   C3A35345  12.071   8.310   8.066
 2535POPC   C4A35346  11.837   8.326   7.693
 2535POPC   C1B35347  11.786   7.748   8.690
 2535POPC   C2B35348  11.850   7.683   8.257
 2535POPC   C3B35349  11.868   7.857   7.859
 2535POPC   C4B35350  12.217   8.037   7.632
 2536POPC   NC335351  15.070  43.586   9.980
 2536POPC   PO435352  15.052  44.133   9.559
 2536POPC   GL135353  15.012  43.911   9.190
 2536POPC   GL235354  14.939  43.545   9.163
 2536POPC   C1A35355  14.968  44.018   8.772
 2536POPC   D2A35356  15.160  43.961   8.380
 2536POPC   C3A35357  15.201  44.286   8.083
 2536POPC   C4A35358  15.157  44.299   7.621
 2536POPC   C1B35359  14.990  43.513   8.673
 2536POPC   C2B35360  14.899  43.560   8.207
 2536POPC   C3B35361  15.119  43.798   7.868
 2536POPC   C4B35362  15.041  43.831   7.424
 2537POPC   NC335363  24.380  43.410   9.579
 2537POPC   PO435364  24.502  42.734   9.489
 2537POPC   GL135365  24.526  43.061   9.224
 2537POPC   GL235366  24.204  43.156   9.149
 2537POPC   C1A35367  24.712  43.070   8.838
 2537POPC   D2A35368  24.827  43.337   8.526
 2537POPC   C3A35369  24.890  43.070   8.178
 2537POPC   C4A35370  24.706  43.111   7.819
 2537POPC   C1B35371  24.254  43.288   8.742
 2537POPC   C2B35372  24.385  43.147   8.331
 2537POPC   C3B35373  24.156  43.120   7.955
 2537POPC   C4B35374  24.123  43.058   7.493
 2538POPC   NC335375  22.313  29.498   9.476
 2538POPC   PO435376  22.103  28.814   9.405
 2538POPC   GL135377  22.100  29.149   9.117
 2538POPC   GL235378  22.456  29.145   9.143
 2538POPC   C1A35379  22.076  29.042   8.681
 2538POPC   D2A35380  22.191  28.749   8.375
 2538POPC   C3A35381  21.999  28.726   7.972
 2538POPC   C4A35382  22.140  28.926   7.603
 2538POPC   C1B35383  22.482  29.351   8.775
 2538POPC   C2B35384  22.355  29.442   8.374
 2538POPC   C3B35385  22.324  29.151   8.052
 2538POPC   C4B35386  22.555  29.180   7.702
 2539POPC   NC335387  17.113  18.410   9.603
 2539POPC   PO435388  17.755  18.313   9.512
 2539POPC   GL135389  17.455  18.468   9.178
 2539POPC   GL235390  17.474  18.150   8.996
 2539POPC   C1A35391  17.449  18.555   8.708
 2539POPC   D2A35392  17.300  18.185   8.440
 2539POPC   C3A35393  17.365  18.124   7.980
 2539POPC   C4A35394  17.452  18.467   7.666
 2539POPC   C1B35395  17.789  18.191   8.623
 2539POPC   C2B35396  17.734  18.411   8.229
 2539POPC   C3B35397  17.849  18.216   7.843
 2539POPC   C4B35398  17.678  17.828   7.658
 2540POPC   NC335399  10.190  17.964   9.516
 2540POPC   PO435400  10.814  18.185   9.500
 2540POPC   GL135401  10.572  18.095   9.161
 2540POPC   GL235402  10.289  18.268   9.118
 2540POPC   C1A35403  10.618  18.016   8.733
 2540POPC   D2A35404  10.764  18.270   8.394
 2540POPC   C3A35405  10.580  18.267   7.988
 2540POPC   C4A35406  10.679  18.601   7.739
 2540POPC   C1B35407  10.082  18.502   8.811
 2540POPC   C2B35408  10.188  18.469   8.375
 2540POPC   C3B35409  10.131  18.589   7.958
 2540POPC   C4B35410  10.220  18.440   7.588
 2541POPC   NC335411  40.252  42.200   9.437
 2541POPC   PO435412  39.687  42.350   9.645
 2541POPC   GL135413  39.779  42.394   9.168
 2541POPC   GL235414  40.108  42.530   9.062
 2541POPC   C1A35415  39.821  42.378   8.691
 2541POPC   D2A35416  40.131  42.636   8.470
 2541POPC   C3A35417  40.178  42.478   8.070
 2541POPC   C4A35418  39.901  42.194   7.843
 2541POPC   C1B35419  40.295  42.226   8.766
 2541POPC   C2B35420  40.467  42.180   8.373
 2541POPC   C3B35421  40.395  42.046   7.962
 2541POPC   C4B35422  40.358  42.245   7.557
 2542POPC   NC335423   7.777   5.214   9.292
 2542POPC   PO435424   8.248   4.946   9.629
 2542POPC   GL135425   8.126   4.810   9.232
 2542POPC   GL235426   8.466   4.943   9.157
 2542POPC   C1A35427   8.129   4.826   8.792
 2542POPC   D2A35428   8.427   4.983   8.502
 2542POPC   C3A35429   8.242   5.007   8.085
 2542POPC   C4A35430   8.512   5.010   7.749
 2542POPC   C1B35431   8.492   5.324   8.909
 2542POPC   C2B35432   8.683   5.462   8.562
 2542POPC   C3B35433   8.645   5.325   8.155
 2542POPC   C4B35434   8.542   5.509   7.787
 2543POPC   NC335435   0.370  15.036   9.587
 2543POPC   PO435436   0.651  15.577   9.544
 2543POPC   GL135437   0.534  15.319   9.206
 2543POPC   GL235438   0.712  14.971   9.215
 2543POPC   C1A35439   0.369  15.270   8.831
 2543POPC   D2A35440   0.306  15.415   8.437
 2543POPC   C3A35441   0.160  15.084   8.159
 2543POPC   C4A35442   0.304  15.125   7.732
 2543POPC   C1B35443   0.805  15.034   8.810
 2543POPC   C2B35444   0.599  15.005   8.430
 2543POPC   C3B35445   0.678  15.252   8.059
 2543POPC   C4B35446   0.835  15.152   7.637
 2544POPC   NC335447  27.780  24.351   9.345
 2544POPC   PO435448  27.414  24.723   9.789
 2544POPC   GL135449  27.300  24.544   9.320
 2544POPC   GL235450  27.324  24.181   9.230
 2544POPC   C1A35451  27.402  24.532   8.852
 2544POPC   D2A35452  27.631  24.707   8.500
 2544POPC   C3A35453  27.601  24.542   8.099
 2544POPC   C4A35454  27.321  24.661   7.807
 2544POPC   C1B35455  27.324  24.018   8.818
 2544POPC   C2B35456  27.452  24.190   8.443
 2544POPC   C3B35457  27.237  24.182   8.071
 2544POPC   C4B35458  27.316  24.181   7.631
 2545POPC   NC335459  28.525  44.019   9.438
 2545POPC   PO435460  29.052  44.227   9.810
 2545POPC   GL135461  29.001  44.176   9.304
 2545POPC   GL235462  28.989  43.849   9.189
 2545POPC   C1A35463  28.998  44.166   8.793
 2545POPC   D2A35464  29.067  43.885   8.414
 2545POPC   C3A35465  29.085  43.912   7.965
 2545POPC   C4A35466  29.440  43.819   7.741
 2545POPC   C1B35467  28.895  43.583   8.795
 2545POPC   C2B35468  28.895  43.387   8.371
 2545POPC   C3B35469  29.191  43.395   7.992
 2545POPC   C4B35470  29.069  43.527   7.545
 2546POPC   NC335471   1.400  12.191   9.521
 2546POPC   PO435472   0.979  11.770   9.691
 2546POPC   GL135473   0.896  11.995   9.305
 2546POPC   GL235474   0.765  11.776   9.090
 2546POPC   C1A35475   1.072  12.191   8.911
 2546POPC   D2A35476   0.994  12.470   8.551
 2546POPC   C3A35477   1.172  12.379   8.142
 2546POPC   C4A35478   1.108  12.139   7.757
 2546POPC   C1B35479   1.024  11.689   8.753
 2546POPC   C2B35480   1.205  11.875   8.364
 2546POPC   C3B35481   1.323  11.675   7.975
 2546POPC   C4B35482   1.359  11.725   7.534
 2547POPC   NC335483   9.560  10.966   9.674
 2547POPC   PO435484   9.992  10.489   9.715
 2547POPC   GL135485   9.846  10.661   9.278
 2547POPC   GL235486   9.606  10.939   9.158
 2547POPC   C1A35487   9.830  10.564   8.819
 2547POPC   D2A35488   9.815  10.271   8.489
 2547POPC   C3A35489   9.899  10.465   8.087
 2547POPC   C4A35490   9.806  10.519   7.658
 2547POPC   C1B35491   9.404  10.831   8.752
 2547POPC   C2B35492   9.557  10.714   8.364
 2547POPC   C3B35493   9.490  10.809   7.914
 2547POPC   C4B35494   9.732  11.000   7.526
 2548POPC   NC335495  15.334  24.710   9.518
 2548POPC   PO435496  14.874  24.123   9.482
 2548POPC   GL135497  14.965  24.481   9.246
 2548POPC   GL235498  15.259  24.374   9.114
 2548POPC   C1A35499  14.890  24.542   8.806
 2548POPC   D2A35500  15.138  24.517   8.430
 2548POPC   C3A35501  14.937  24.480   8.073
 2548POPC   C4A35502  15.036  24.198   7.772
 2548POPC   C1B35503  15.376  24.719   8.826
 2548POPC   C2B35504  15.415  24.977   8.472
 2548POPC   C3B35505  15.355  24.829   8.068
 2548POPC   C4B35506  15.567  24.714   7.685
 2549POPC   NC335507  26.851  39.465   9.931
 2549POPC   PO435508  27.026  39.004   9.404
 2549POPC   GL135509  26.868  39.079   9.025
 2549POPC   GL235510  26.882  39.407   9.110
 2549POPC   C1A35511  26.603  39.197   8.638
 2549POPC   D2A35512  26.429  39.104   8.199
 2549POPC   C3A35513  26.687  39.158   7.841
 2549POPC   C4A35514  27.140  39.188   7.776
 2549POPC   C1B35515  27.090  39.379   8.694
 2549POPC   C2B35516  26.973  39.283   8.281
 2549POPC   C3B35517  26.939  39.597   7.998
 2549POPC   C4B35518  27.323  39.667   7.795
 2550POPC   NC335519   6.879  20.275   9.363
 2550POPC   PO435520   6.868  20.915   9.404
 2550POPC   GL135521   6.586  20.706   9.080
 2550POPC   GL235522   6.524  20.330   9.016
 2550POPC   C1A35523   6.602  20.610   8.630
 2550POPC   D2A35524   6.860  20.571   8.284
 2550POPC   C3A35525   6.544  20.555   7.925
 2550POPC   C4A35526   6.686  20.717   7.526
 2550POPC   C1B35527   6.891  20.199   8.722
 2550POPC   C2B35528   7.025  20.093   8.301
 2550POPC   C3B35529   6.956  20.265   7.876
 2550POPC   C4B35530   6.731  20.189   7.493
 2551POPC   NC335531  27.244   2.852   9.552
 2551POPC   PO435532  27.840   2.979   9.830
 2551POPC   GL135533  27.712   2.749   9.404
 2551POPC   GL235534  27.694   3.024   9.231
 2551POPC   C1A35535  27.560   2.590   8.966
 2551POPC   D2A35536  27.758   2.390   8.588
 2551POPC   C3A35537  27.719   2.566   8.158
 2551POPC   C4A35538  27.518   2.576   7.751
 2551POPC   C1B35539  27.692   3.101   8.803
 2551POPC   C2B35540  27.538   3.000   8.405
 2551POPC   C3B35541  27.520   3.019   7.989
 2551POPC   C4B35542  27.731   3.044   7.593
 2552POPC   NC335543  18.504  33.882   9.765
 2552POPC   PO435544  18.408  33.294   9.690
 2552POPC   GL135545  18.474  33.515   9.269
 2552POPC   GL235546  18.424  33.840   9.255
 2552POPC   C1A35547  18.523  33.591   8.813
 2552POPC   D2A35548  18.580  33.437   8.392
 2552POPC   C3A35549  18.337  33.400   8.013
 2552POPC   C4A35550  18.037  33.400   7.652
 2552POPC   C1B35551  18.318  34.053   8.881
 2552POPC   C2B35552  18.297  33.917   8.472
 2552POPC   C3B35553  18.551  33.893   8.138
 2552POPC   C4B35554  18.430  33.796   7.714
 2553POPC   NC335555  11.981  15.555   9.696
 2553POPC   PO435556  12.327  16.020   9.774
 2553POPC   GL135557  12.156  15.835   9.307
 2553POPC   GL235558  12.295  15.605   9.083
 2553POPC   C1A35559  11.923  15.945   8.881
 2553POPC   D2A35560  11.788  15.804   8.445
 2553POPC   C3A35561  11.891  15.966   8.008
 2553POPC   C4A35562  11.947  15.850   7.533
 2553POPC   C1B35563  12.420  15.979   8.771
 2553POPC   C2B35564  12.240  16.082   8.397
 2553POPC   C3B35565  12.180  16.391   8.095
 2553POPC   C4B35566  12.247  16.231   7.712
 2554POPC   NC335567  40.604  31.403   9.368
 2554POPC   PO435568  39.900  31.418   9.421
 2554POPC   GL135569  40.147  31.406   9.113
 2554POPC   GL235570  39.860  31.289   8.933
 2554POPC   C1A35571  40.180  31.694   8.768
 2554POPC   D2A35572  39.897  31.784   8.410
 2554POPC   C3A35573  40.045  31.541   8.064
 2554POPC   C4A35574  40.164  31.538   7.626
 2554POPC   C1B35575  39.918  31.288   8.531
 2554POPC   C2B35576  39.638  31.252   8.207
 2554POPC   C3B35577  39.842  31.159   7.811
 2554POPC   C4B35578  40.293  31.053   7.805
 2555POPC   NC335579   9.614  25.895   9.535
 2555POPC   PO435580  10.175  26.275   9.604
 2555POPC   GL135581   9.947  26.341   9.241
 2555POPC   GL235582   9.910  26.000   9.149
 2555POPC   C1A35583   9.804  26.383   8.812
 2555POPC   D2A35584   9.714  26.130   8.455
 2555POPC   C3A35585   9.710  26.281   8.024
 2555POPC   C4A35586   9.594  26.127   7.627
 2555POPC   C1B35587   9.672  25.779   8.833
 2555POPC   C2B35588   9.750  25.601   8.425
 2555POPC   C3B35589   9.692  25.767   8.025
 2555POPC   C4B35590   9.934  25.748   7.668
 2556POPC   NC335591  25.592  36.231   9.585
 2556POPC   PO435592  25.096  35.838   9.549
 2556POPC   GL135593  25.314  35.993   9.219
 2556POPC   GL235594  25.577  35.763   9.307
 2556POPC   C1A35595  25.193  36.117   8.816
 2556POPC   D2A35596  25.141  36.328   8.398
 2556POPC   C3A35597  25.007  36.147   7.985
 2556POPC   C4A35598  25.224  35.999   7.619
 2556POPC   C1B35599  25.540  35.710   8.858
 2556POPC   C2B35600  25.431  35.879   8.451
 2556POPC   C3B35601  25.506  36.044   8.071
 2556POPC   C4B35602  25.703  35.875   7.733
 2557POPC   NC335603  34.299  18.598   9.545
 2557POPC   PO435604  34.699  19.065   9.530
 2557POPC   GL135605  34.797  19.040   9.113
 2557POPC   GL235606  34.757  19.379   9.096
 2557POPC   C1A35607  34.836  18.962   8.666
 2557POPC   D2A35608  34.541  18.778   8.386
 2557POPC   C3A35609  34.395  18.993   8.017
 2557POPC   C4A35610  34.718  18.850   7.747
 2557POPC   C1B35611  34.456  19.312   8.839
 2557POPC   C2B35612  34.399  19.298   8.448
 2557POPC   C3B35613  34.709  19.376   8.154
 2557POPC   C4B35614  34.703  19.381   7.722
 2558POPC   NC335615  16.849  19.056   9.500
 2558POPC   PO435616  16.240  19.175   9.406
 2558POPC   GL135617  16.511  19.110   9.106
 2558POPC   GL235618  16.462  18.779   9.162
 2558POPC   C1A35619  16.910  19.155   8.868
 2558POPC   D2A35620  16.916  19.117   8.434
 2558POPC   C3A35621  16.576  19.241   8.164
 2558POPC   C4A35622  16.664  19.200   7.738
 2558POPC   C1B35623  16.624  18.747   8.770
 2558POPC   C2B35624  16.519  18.782   8.383
 2558POPC   C3B35625  16.763  18.789   8.035
 2558POPC   C4B35626  16.647  18.714   7.642
 2559POPC   NC335627  33.864  36.430   9.596
 2559POPC   PO435628  33.509  35.846   9.556
 2559POPC   GL135629  33.587  36.184   9.213
 2559POPC   GL235630  33.970  36.298   9.127
 2559POPC   C1A35631  33.621  36.307   8.768
 2559POPC   D2A35632  33.943  36.316   8.442
 2559POPC   C3A35633  33.751  36.244   8.051
 2559POPC   C4A35634  33.454  36.499   7.796
 2559POPC   C1B35635  34.162  36.039   8.826
 2559POPC   C2B35636  34.331  35.955   8.437
 2559POPC   C3B35637  34.163  35.844   8.066
 2559POPC   C4B35638  34.098  36.076   7.693
 2560POPC   NC335639   2.101  10.762   9.405
 2560POPC   PO435640   1.819  10.087   9.557
 2560POPC   GL135641   1.847  10.374   9.189
 2560POPC   GL235642   2.185  10.460   8.978
 2560POPC   C1A35643   1.753  10.630   8.823
 2560POPC   D2A35644   2.067  10.628   8.497
 2560POPC   C3A35645   1.915  10.861   8.138
 2560POPC   C4A35646   1.966  10.757   7.724
 2560POPC   C1B35647   2.431  10.141   8.716
 2560POPC   C2B35648   2.452  10.171   8.287
 2560POPC   C3B35649   2.169  10.388   8.056
 2560POPC   C4B35650   2.147  10.303   7.639
 2561POPC   NC335651  44.950   0.748   9.463
 2561POPC   PO435652  44.876   1.465   9.467
 2561POPC   GL135653  44.560   1.235   9.224
 2561POPC   GL235654  44.624   0.890   9.094
 2561POPC   C1A35655  44.487   1.297   8.791
 2561POPC   D2A35656  44.646   1.277   8.371
 2561POPC   C3A35657  44.433   0.975   8.121
 2561POPC   C4A35658  44.366   0.992   7.696
 2561POPC   C1B35659  44.913   0.952   8.708
 2561POPC   C2B35660   0.127   0.956   8.299
 2561POPC   C3B35661  44.890   1.018   7.928
 2561POPC   C4B35662  44.859   1.184   7.511
 2562POPC   NC335663  22.106  21.729   9.419
 2562POPC   PO435664  21.939  22.285   9.703
 2562POPC   GL135665  22.194  22.187   9.240
 2562POPC   GL235666  22.028  22.005   8.997
 2562POPC   C1A35667  22.412  22.333   8.868
 2562POPC   D2A35668  22.200  22.197   8.506
 2562POPC   C3A35669  22.089  22.419   8.136
 2562POPC   C4A35670  22.354  22.225   7.838
 2562POPC   C1B35671  21.905  21.776   8.631
 2562POPC   C2B35672  21.824  21.960   8.223
 2562POPC   C3B35673  21.943  21.911   7.785
 2562POPC   C4B35674  21.863  21.792   7.326
 2563POPC   NC335675  11.159  13.863   9.558
 2563POPC   PO435676  11.126  13.221   9.500
 2563POPC   GL135677  11.448  13.423   9.200
 2563POPC   GL235678  11.469  13.797   9.164
 2563POPC   C1A35679  11.595  13.502   8.764
 2563POPC   D2A35680  11.389  13.497   8.363
 2563POPC   C3A35681  11.579  13.489   7.959
 2563POPC   C4A35682  11.265  13.357   7.643
 2563POPC   C1B35683  11.507  13.998   8.777
 2563POPC   C2B35684  11.460  14.147   8.405
 2563POPC   C3B35685  11.372  13.945   8.042
 2563POPC   C4B35686  11.479  13.919   7.636
 2564POPC   NC335687  38.859  21.336   9.623
 2564POPC   PO435688  38.371  21.799   9.500
 2564POPC   GL135689  38.518  21.572   9.113
 2564POPC   GL235690  38.681  21.246   9.164
 2564POPC   C1A35691  38.365  21.399   8.709
 2564POPC   D2A35692  38.341  21.571   8.270
 2564POPC   C3A35693  38.205  21.372   7.876
 2564POPC   C4A35694  37.942  21.592   7.579
 2564POPC   C1B35695  38.783  21.063   8.788
 2564POPC   C2B35696  38.573  20.998   8.421
 2564POPC   C3B35697  38.656  21.168   8.040
 2564POPC   C4B35698  38.573  21.057   7.611
 2565POPC   NC335699   9.290  33.572   9.536
 2565POPC   PO435700   8.912  34.122   9.487
 2565POPC   GL135701   8.841  33.891   9.091
 2565POPC   GL235702   9.062  33.594   9.089
 2565POPC   C1A35703   8.803  34.073   8.655
 2565POPC   D2A35704   8.598  34.140   8.225
 2565POPC   C3A35705   8.822  33.853   7.930
 2565POPC   C4A35706   9.272  33.867   7.776
 2565POPC   C1B35707   9.146  33.683   8.663
 2565POPC   C2B35708   9.193  33.680   8.219
 2565POPC   C3B35709   9.136  33.375   7.817
 2565POPC   C4B35710   9.146  33.204   7.356
 2566POPC   NC335711  29.993  37.212   9.511
 2566POPC   PO435712  30.156  36.610   9.494
 2566POPC   GL135713  29.891  36.760   9.133
 2566POPC   GL235714  29.798  37.110   9.038
 2566POPC   C1A35715  29.835  36.625   8.701
 2566POPC   D2A35716  29.818  36.701   8.263
 2566POPC   C3A35717  30.164  36.754   7.990
 2566POPC   C4A35718  30.129  36.800   7.539
 2566POPC   C1B35719  30.019  37.124   8.643
 2566POPC   C2B35720  30.235  37.201   8.241
 2566POPC   C3B35721  30.172  37.224   7.788
 2566POPC   C4B35722  30.378  37.204   7.342
 2567POPC   NC335723  29.541  17.576   9.494
 2567POPC   PO435724  30.181  17.699   9.555
 2567POPC   GL135725  29.987  17.502   9.233
 2567POPC   GL235726  29.880  17.193   9.370
 2567POPC   C1A35727  29.849  17.673   8.823
 2567POPC   D2A35728  29.724  17.514   8.394
 2567POPC   C3A35729  29.908  17.760   8.053
 2567POPC   C4A35730  29.785  17.763   7.603
 2567POPC   C1B35731  29.689  17.181   8.944
 2567POPC   C2B35732  29.882  17.053   8.563
 2567POPC   C3B35733  29.837  17.046   8.134
 2567POPC   C4B35734  29.936  17.298   7.782
 2568POPC   NC335735   5.135  16.906   9.822
 2568POPC   PO435736   5.828  16.869   9.737
 2568POPC   GL135737   5.488  16.950   9.263
 2568POPC   GL235738   5.121  16.837   9.303
 2568POPC   C1A35739   5.249  16.869   8.813
 2568POPC   D2A35740   5.336  16.722   8.380
 2568POPC   C3A35741   5.099  16.868   8.060
 2568POPC   C4A35742   5.311  16.906   7.664
 2568POPC   C1B35743   4.848  16.596   8.938
 2568POPC   C2B35744   4.901  16.469   8.485
 2568POPC   C3B35745   4.873  16.402   8.042
 2568POPC   C4B35746   4.517  16.478   7.818
 2569POPC   NC335747   3.552  14.782   9.417
 2569POPC   PO435748   3.944  15.148   9.748
 2569POPC   GL135749   3.782  15.162   9.213
 2569POPC   GL235750   3.521  15.410   9.071
 2569POPC   C1A35751   3.802  15.126   8.760
 2569POPC   D2A35752   3.676  14.905   8.382
 2569POPC   C3A35753   3.636  15.169   8.039
 2569POPC   C4A35754   3.559  15.494   7.731
 2569POPC   C1B35755   3.287  15.228   8.679
 2569POPC   C2B35756   3.178  14.835   8.414
 2569POPC   C3B35757   3.288  14.739   8.015
 2569POPC   C4B35758   3.229  15.054   7.728
 2570POPC   NC335759  42.889  18.493   9.644
 2570POPC   PO435760  43.576  18.515   9.543
 2570POPC   GL135761  43.253  18.334   9.279
 2570POPC   GL235762  42.948  18.496   9.151
 2570POPC   C1A35763  43.262  18.197   8.867
 2570POPC   D2A35764  43.120  18.252   8.463
 2570POPC   C3A35765  43.337  18.130   8.082
 2570POPC   C4A35766  43.206  18.189   7.647
 2570POPC   C1B35767  42.760  18.509   8.767
 2570POPC   C2B35768  42.826  18.689   8.373
 2570POPC   C3B35769  42.911  18.443   8.033
 2570POPC   C4B35770  42.705  18.327   7.647
 2571POPC   NC335771  42.201  42.540   9.543
 2571POPC   PO435772  42.610  41.920   9.454
 2571POPC   GL135773  42.435  42.198   9.205
 2571POPC   GL235774  42.090  42.195   9.106
 2571POPC   C1A35775  42.494  42.293   8.804
 2571POPC   D2A35776  42.252  42.285   8.470
 2571POPC   C3A35777  42.460  42.420   8.148
 2571POPC   C4A35778  42.705  42.351   7.808
 2571POPC   C1B35779  41.970  42.524   8.824
 2571POPC   C2B35780  41.908  42.662   8.399
 2571POPC   C3B35781  41.931  42.374   8.051
 2571POPC   C4B35782  42.199  42.293   7.703
 2572POPC   NC335783  30.918  18.145   9.425
 2572POPC   PO435784  31.561  18.429   9.450
 2572POPC   GL135785  31.460  18.319   9.067
 2572POPC   GL235786  31.265  18.097   9.053
 2572POPC   C1A35787  31.252  18.470   8.673
 2572POPC   D2A35788  31.494  18.726   8.401
 2572POPC   C3A35789  31.383  18.654   7.987
 2572POPC   C4A35790  31.525  18.525   7.598
 2572POPC   C1B35791  31.495  18.017   8.667
 2572POPC   C2B35792  31.511  18.219   8.270
 2572POPC   C3B35793  31.366  18.118   7.862
 2572POPC   C4B35794  31.531  17.847   7.527
 2573POPC   NC335795  32.752  17.024   9.437
 2573POPC   PO435796  33.364  16.671   9.477
 2573POPC   GL135797  33.023  16.652   9.208
 2573POPC   GL235798  33.142  17.005   9.100
 2573POPC   C1A35799  32.827  16.741   8.808
 2573POPC   D2A35800  32.943  17.062   8.485
 2573POPC   C3A35801  33.008  16.887   8.036
 2573POPC   C4A35802  32.789  16.551   7.805
 2573POPC   C1B35803  33.324  16.674   8.799
 2573POPC   C2B35804  33.375  16.349   8.536
 2573POPC   C3B35805  33.547  16.354   8.131
 2573POPC   C4B35806  33.307  16.503   7.780
 2574POPC   NC335807  16.817  23.467   9.438
 2574POPC   PO435808  16.391  23.894   9.443
 2574POPC   GL135809  16.657  23.817   9.093
 2574POPC   GL235810  17.008  23.902   9.189
 2574POPC   C1A35811  16.526  23.777   8.654
 2574POPC   D2A35812  16.212  23.813   8.313
 2574POPC   C3A35813  16.331  23.677   7.899
 2574POPC   C4A35814  16.556  23.883   7.578
 2574POPC   C1B35815  17.107  23.746   8.785
 2574POPC   C2B35816  16.961  23.658   8.389
 2574POPC   C3B35817  16.867  23.873   8.012
 2574POPC   C4B35818  17.038  23.670   7.662
 2575POPC   NC335819  35.288  31.018   9.482
 2575POPC   PO435820  34.765  30.478   9.499
 2575POPC   GL135821  35.101  30.578   9.144
 2575POPC   GL235822  35.423  30.797   9.051
 2575POPC   C1A35823  35.079  30.747   8.685
 2575POPC   D2A35824  34.951  30.790   8.252
 2575POPC   C3A35825  35.223  31.059   8.003
 2575POPC   C4A35826  35.276  30.947   7.547
 2575POPC   C1B35827  35.587  30.616   8.685
 2575POPC   C2B35828  35.452  30.648   8.266
 2575POPC   C3B35829  35.252  30.574   7.873
 2575POPC   C4B35830  35.463  30.472   7.484
 2576POPC   NC335831  35.777  39.897   9.540
 2576POPC   PO435832  36.283  40.287   9.489
 2576POPC   GL135833  36.309  40.052   9.126
 2576POPC   GL235834  36.132  39.751   9.181
 2576POPC   C1A35835  36.324  39.841   8.723
 2576POPC   D2A35836  36.139  40.019   8.391
 2576POPC   C3A35837  36.247  39.915   8.059
 2576POPC   C4A35838  36.180  40.055   7.709
 2576POPC   C1B35839  35.836  39.694   8.851
 2576POPC   C2B35840  35.646  39.887   8.489
 2576POPC   C3B35841  35.675  40.012   8.061
 2576POPC   C4B35842  35.727  39.821   7.660
 2577POPC   NC335843  41.969   4.568   9.342
 2577POPC   PO435844  41.482   4.080   9.527
 2577POPC   GL135845  41.420   4.393   9.216
 2577POPC   GL235846  41.673   4.291   9.052
 2577POPC   C1A35847  41.309   4.517   8.785
 2577POPC   D2A35848  41.472   4.468   8.397
 2577POPC   C3A35849  41.216   4.454   8.048
 2577POPC   C4A35850  41.586   4.480   7.812
 2577POPC   C1B35851  41.729   4.100   8.700
 2577POPC   C2B35852  41.534   3.916   8.371
 2577POPC   C3B35853  41.521   3.997   7.978
 2577POPC   C4B35854  41.270   4.119   7.664
 2578POPC   NC335855  31.507  19.592   9.564
 2578POPC   PO435856  31.707  20.140   9.601
 2578POPC   GL135857  31.654  19.932   9.210
 2578POPC   GL235858  31.301  19.965   9.112
 2578POPC   C1A35859  31.670  19.621   8.863
 2578POPC   D2A35860  31.538  19.667   8.434
 2578POPC   C3A35861  31.675  19.599   8.011
 2578POPC   C4A35862  31.638  19.948   7.722
 2578POPC   C1B35863  31.154  20.167   8.701
 2578POPC   C2B35864  31.193  20.096   8.257
 2578POPC   C3B35865  31.240  20.268   7.831
 2578POPC   C4B35866  31.218  20.060   7.450
 2579POPC   NC335867   3.383  28.691   9.493
 2579POPC   PO435868   3.968  28.354   9.520
 2579POPC   GL135869   3.681  28.425   9.155
 2579POPC   GL235870   3.362  28.242   9.176
 2579POPC   C1A35871   3.644  28.314   8.705
 2579POPC   D2A35872   3.678  28.515   8.298
 2579POPC   C3A35873   3.807  28.297   7.927
 2579POPC   C4A35874   3.955  28.509   7.571
 2579POPC   C1B35875   3.180  28.476   8.816
 2579POPC   C2B35876   3.186  28.393   8.371
 2579POPC   C3B35877   3.301  28.461   7.928
 2579POPC   C4B35878   3.441  28.706   7.538
 2580POPC   NC335879   9.265  11.480   9.359
 2580POPC   PO435880   8.748  11.780   9.499
 2580POPC   GL135881   8.770  11.540   9.113
 2580POPC   GL235882   8.984  11.220   9.023
 2580POPC   C1A35883   8.926  11.597   8.688
 2580POPC   D2A35884   8.941  11.422   8.279
 2580POPC   C3A35885   8.657  11.483   7.948
 2580POPC   C4A35886   8.831  11.468   7.504
 2580POPC   C1B35887   8.963  11.032   8.613
 2580POPC   C2B35888   9.059  10.798   8.242
 2580POPC   C3B35889   9.068  11.103   7.892
 2580POPC   C4B35890   9.280  11.481   7.888
 2581POPC   NC335891  42.220  24.406   9.473
 2581POPC   PO435892  42.840  24.820   9.492
 2581POPC   GL135893  42.653  24.505   9.155
 2581POPC   GL235894  42.310  24.307   9.005
 2581POPC   C1A35895  42.578  24.580   8.703
 2581POPC   D2A35896  42.340  24.350   8.430
 2581POPC   C3A35897  42.304  24.575   8.054
 2581POPC   C4A35898  42.557  24.560   7.699
 2581POPC   C1B35899  42.566  24.040   8.793
 2581POPC   C2B35900  42.673  23.935   8.369
 2581POPC   C3B35901  42.671  24.115   7.957
 2581POPC   C4B35902  42.858  24.132   7.538
 2582POPC   NC335903  19.309  10.195   9.539
 2582POPC   PO435904  18.860  10.715   9.652
 2582POPC   GL135905  18.943  10.494   9.225
 2582POPC   GL235906  19.293  10.453   9.099
 2582POPC   C1A35907  18.972  10.693   8.775
 2582POPC   D2A35908  18.952  10.613   8.327
 2582POPC   C3A35909  19.236  10.784   7.992
 2582POPC   C4A35910  19.022  10.755   7.580
 2582POPC   C1B35911  19.175  10.225   8.710
 2582POPC   C2B35912  19.183  10.183   8.263
 2582POPC   C3B35913  19.025  10.340   7.893
 2582POPC   C4B35914  19.319  10.325   7.565
 2583POPC   NC335915  38.735   4.143   9.596
 2583POPC   PO435916  39.365   4.478   9.615
 2583POPC   GL135917  39.353   4.323   9.199
 2583POPC   GL235918  39.100   4.133   9.235
 2583POPC   C1A35919  39.368   4.455   8.763
 2583POPC   D2A35920  39.560   4.441   8.333
 2583POPC   C3A35921  39.444   4.394   7.873
 2583POPC   C4A35922  39.565   4.592   7.454
 2583POPC   C1B35923  38.952   4.028   8.855
 2583POPC   C2B35924  39.080   4.156   8.460
 2583POPC   C3B35925  39.162   3.992   8.080
 2583POPC   C4B35926  38.926   4.012   7.703
 2584POPC   NC335927  40.281   7.801   9.362
 2584POPC   PO435928  39.698   7.634   9.493
 2584POPC   GL135929  39.992   7.336   9.278
 2584POPC   GL235930  40.164   7.500   8.998
 2584POPC   C1A35931  39.972   7.072   8.886
 2584POPC   D2A35932  40.099   7.282   8.480
 2584POPC   C3A35933  40.186   7.096   8.071
 2584POPC   C4A35934  39.847   7.079   7.782
 2584POPC   C1B35935  40.373   7.677   8.676
 2584POPC   C2B35936  40.173   7.812   8.358
 2584POPC   C3B35937  39.988   7.581   8.070
 2584POPC   C4B35938  40.186   7.490   7.733
 2585POPC   NC335939  41.950   5.475   9.539
 2585POPC   PO435940  42.424   5.800   9.332
 2585POPC   GL135941  42.232   5.940   8.980
 2585POPC   GL235942  41.954   5.710   9.044
 2585POPC   C1A35943  42.316   6.070   8.556
 2585POPC   D2A35944  42.278   6.101   8.119
 2585POPC   C3A35945  42.621   5.995   7.819
 2585POPC   C4A35946  42.504   5.848   7.406
 2585POPC   C1B35947  41.957   5.718   8.627
 2585POPC   C2B35948  42.228   5.614   8.259
 2585POPC   C3B35949  42.178   5.706   7.812
 2585POPC   C4B35950  42.048   5.579   7.408
 2586POPC   NC335951  42.690   2.408   9.278
 2586POPC   PO435952  42.198   2.015   9.464
 2586POPC   GL135953  42.368   1.962   9.099
 2586POPC   GL235954  42.400   1.607   9.056
 2586POPC   C1A35955  42.445   2.072   8.702
 2586POPC   D2A35956  42.363   1.873   8.327
 2586POPC   C3A35957  42.436   2.159   8.007
 2586POPC   C4A35958  42.435   2.047   7.591
 2586POPC   C1B35959  42.706   1.614   8.740
 2586POPC   C2B35960  42.879   1.830   8.375
 2586POPC   C3B35961  42.798   1.821   7.946
 2586POPC   C4B35962  42.937   2.062   7.617
 2587POPC   NC335963  25.813  16.863   9.319
 2587POPC   PO435964  26.342  16.479   9.445
 2587POPC   GL135965  26.163  16.599   9.078
 2587POPC   GL235966  25.820  16.430   9.075
 2587POPC   C1A35967  26.184  16.842   8.713
 2587POPC   D2A35968  26.059  16.781   8.300
 2587POPC   C3A35969  26.256  16.594   7.953
 2587POPC   C4A35970  26.105  16.944   7.758
 2587POPC   C1B35971  25.689  16.712   8.715
 2587POPC   C2B35972  25.599  16.967   8.357
 2587POPC   C3B35973  25.668  16.777   7.965
 2587POPC   C4B35974  25.689  16.794   7.518
 2588POPC   NC335975  39.473   3.913   9.521
 2588POPC   PO435976  39.484   3.248   9.502
 2588POPC   GL135977  39.333   3.352   9.140
 2588POPC   GL235978  39.295   3.682   9.118
 2588POPC   C1A35979  39.077   3.359   8.822
 2588POPC   D2A35980  39.149   3.650   8.528
 2588POPC   C3A35981  39.043   3.484   8.174
 2588POPC   C4A35982  39.122   3.516   7.776
 2588POPC   C1B35983  39.465   3.963   8.842
 2588POPC   C2B35984  39.560   3.932   8.438
 2588POPC   C3B35985  39.552   3.639   8.138
 2588POPC   C4B35986  39.509   3.821   7.758
 2589POPC   NC335987  14.813  41.326   9.441
 2589POPC   PO435988  15.429  41.675   9.552
 2589POPC   GL135989  15.371  41.339   9.275
 2589POPC   GL235990  15.116  41.493   9.083
 2589POPC   C1A35991  15.426  41.158   8.861
 2589POPC   D2A35992  15.426  41.352   8.466
 2589POPC   C3A35993  15.232  41.307   8.060
 2589POPC   C4A35994  15.412  41.425   7.652
 2589POPC   C1B35995  15.173  41.757   8.758
 2589POPC   C2B35996  15.036  41.696   8.352
 2589POPC   C3B35997  15.216  41.848   7.969
 2589POPC   C4B35998  15.583  41.933   7.734
 2590POPC   NC335999  31.835  40.137   9.697
 2590POPC   PO436000  31.295  39.789   9.538
 2590POPC   GL136001  31.582  39.764   9.191
 2590POPC   GL236002  31.373  40.017   9.052
 2590POPC   C1A36003  31.773  39.934   8.783
 2590POPC   D2A36004  31.553  40.135   8.484
 2590POPC   C3A36005  31.524  39.909   8.110
 2590POPC   C4A36006  31.596  40.088   7.736
 2590POPC   C1B36007  31.124  40.325   8.837
 2590POPC   C2B36008  30.921  40.404   8.461
 2590POPC   C3B36009  31.095  40.268   8.084
 2590POPC   C4B36010  31.096  40.070   7.693
 2591POPC   NC336011  23.646  41.262   9.523
 2591POPC   PO436012  23.536  41.910   9.555
 2591POPC   GL136013  23.729  41.680   9.208
 2591POPC   GL236014  23.490  41.445   9.082
 2591POPC   C1A36015  23.918  41.670   8.785
 2591POPC   D2A36016  23.973  41.509   8.355
 2591POPC   C3A36017  23.859  41.767   7.997
 2591POPC   C4A36018  23.931  41.540   7.609
 2591POPC   C1B36019  23.551  41.342   8.655
 2591POPC   C2B36020  23.457  41.375   8.258
 2591POPC   C3B36021  23.480  41.422   7.845
 2591POPC   C4B36022  23.400  41.470   7.438
 2592POPC   NC336023  41.815  22.153   9.190
 2592POPC   PO436024  42.388  22.171   9.561
 2592POPC   GL136025  42.516  22.095   9.140
 2592POPC   GL236026  42.698  21.777   9.067
 2592POPC   C1A36027  42.368  22.345   8.791
 2592POPC   D2A36028  42.547  22.556   8.446
 2592POPC   C3A36029  42.308  22.555   8.076
 2592POPC   C4A36030  42.471  22.278   7.821
 2592POPC   C1B36031  42.485  21.824   8.649
 2592POPC   C2B36032  42.306  22.049   8.268
 2592POPC   C3B36033  42.043  21.928   7.876
 2592POPC   C4B36034  41.955  21.733   7.457
 2593POPC   NC336035  39.635  21.952   9.491
 2593POPC   PO436036  39.106  22.357   9.666
 2593POPC   GL136037  39.193  22.104   9.260
 2593POPC   GL236038  38.919  21.874   9.205
 2593POPC   C1A36039  39.414  21.914   8.868
 2593POPC   D2A36040  39.566  21.959   8.433
 2593POPC   C3A36041  39.271  21.938   8.066
 2593POPC   C4A36042  39.345  22.144   7.678
 2593POPC   C1B36043  38.928  22.030   8.811
 2593POPC   C2B36044  38.883  22.022   8.404
 2593POPC   C3B36045  38.833  22.183   7.982
 2593POPC   C4B36046  38.871  21.972   7.630
 2594POPC   NC336047  42.744  27.669   9.782
 2594POPC   PO436048  42.193  27.619   9.366
 2594POPC   GL136049  42.525  27.409   9.142
 2594POPC   GL236050  42.612  27.664   8.923
 2594POPC   C1A36051  42.460  27.226   8.723
 2594POPC   D2A36052  42.116  27.290   8.431
 2594POPC   C3A36053  42.298  27.451   8.083
 2594POPC   C4A36054  42.470  27.177   7.795
 2594POPC   C1B36055  42.289  27.812   8.689
 2594POPC   C2B36056  42.350  28.055   8.324
 2594POPC   C3B36057  42.384  27.942   7.899
 2594POPC   C4B36058  42.392  27.823   7.474
 2595POPC   NC336059   2.299  41.000   9.541
 2595POPC   PO436060   1.847  40.469   9.607
 2595POPC   GL136061   1.739  40.541   9.158
 2595POPC   GL236062   2.050  40.738   9.130
 2595POPC   C1A36063   1.758  40.643   8.695
 2595POPC   D2A36064   1.925  40.891   8.352
 2595POPC   C3A36065   1.937  40.667   7.947
 2595POPC   C4A36066   2.048  40.513   7.528
 2595POPC   C1B36067   2.220  40.895   8.763
 2595POPC   C2B36068   2.420  41.086   8.456
 2595POPC   C3B36069   2.438  40.956   8.072
 2595POPC   C4B36070   2.227  40.977   7.680
 2596POPC   NC336071  18.244   1.693   9.431
 2596POPC   PO436072  17.877   2.296   9.428
 2596POPC   GL136073  18.115   2.134   9.082
 2596POPC   GL236074  18.370   1.875   8.982
 2596POPC   C1A36075  18.071   2.145   8.651
 2596POPC   D2A36076  18.389   2.295   8.390
 2596POPC   C3A36077  18.534   2.051   8.092
 2596POPC   C4A36078  18.374   2.171   7.738
 2596POPC   C1B36079  18.233   1.606   8.676
 2596POPC   C2B36080  18.444   1.536   8.287
 2596POPC   C3B36081  18.371   1.616   7.868
 2596POPC   C4B36082  18.029   1.791   7.660
 2597POPC   NC336083  31.309  41.687   9.504
 2597POPC   PO436084  31.345  41.042   9.278
 2597POPC   GL136085  31.480  41.389   9.126
 2597POPC   GL236086  31.169  41.520   9.038
 2597POPC   C1A36087  31.552  41.412   8.722
 2597POPC   D2A36088  31.535  41.205   8.369
 2597POPC   C3A36089  31.362  41.485   8.088
 2597POPC   C4A36090  31.425  41.332   7.709
 2597POPC   C1B36091  31.083  41.799   8.691
 2597POPC   C2B36092  31.168  42.045   8.303
 2597POPC   C3B36093  31.204  42.024   7.826
 2597POPC   C4B36094  31.029  41.939   7.386
 2598POPC   NC336095   4.157  42.876   9.589
 2598POPC   PO436096   4.609  43.300   9.612
 2598POPC   GL136097   4.432  43.121   9.227
 2598POPC   GL236098   4.580  42.781   9.220
 2598POPC   C1A36099   4.118  43.242   8.889
 2598POPC   D2A36100   3.878  43.207   8.490
 2598POPC   C3A36101   4.118  43.327   8.147
 2598POPC   C4A36102   4.117  43.266   7.704
 2598POPC   C1B36103   4.324  42.785   8.810
 2598POPC   C2B36104   4.169  42.821   8.379
 2598POPC   C3B36105   4.342  42.896   7.988
 2598POPC   C4B36106   4.559  43.027   7.616
 2599POPC   NC336107   6.131  18.997   9.806
 2599POPC   PO436108   6.724  19.230   9.494
 2599POPC   GL136109   6.789  18.926   9.157
 2599POPC   GL236110   6.919  19.151   8.911
 2599POPC   C1A36111   6.562  18.813   8.767
 2599POPC   D2A36112   6.579  18.666   8.383
 2599POPC   C3A36113   6.370  18.883   8.031
 2599POPC   C4A36114   6.459  19.027   7.636
 2599POPC   C1B36115   7.016  18.937   8.561
 2599POPC   C2B36116   6.775  19.121   8.236
 2599POPC   C3B36117   6.924  19.240   7.866
 2599POPC   C4B36118   7.212  18.994   7.689
 2600POPC   NC336119  13.704  17.530   9.455
 2600POPC   PO436120  14.402  17.576   9.555
 2600POPC   GL136121  14.487  17.777   9.158
 2600POPC   GL236122  14.165  17.706   9.094
 2600POPC   C1A36123  14.583  17.621   8.756
 2600POPC   D2A36124  14.563  17.378   8.392
 2600POPC   C3A36125  14.659  17.522   8.010
 2600POPC   C4A36126  14.525  17.519   7.569
 2600POPC   C1B36127  14.113  17.516   8.674
 2600POPC   C2B36128  14.074  17.326   8.279
 2600POPC   C3B36129  14.106  17.528   7.898
 2600POPC   C4B36130  13.785  17.699   7.648
 2601POPC   NC336131  42.867  13.907   9.517
 2601POPC   PO436132  43.287  13.717   9.787
 2601POPC   GL136133  43.309  13.709   9.283
 2601POPC   GL236134  43.636  13.771   9.086
 2601POPC   C1A36135  43.192  13.678   8.800
 2601POPC   D2A36136  43.202  13.583   8.319
 2601POPC   C3A36137  43.016  13.744   7.895
 2601POPC   C4A36138  42.944  13.575   7.450
 2601POPC   C1B36139  43.551  14.023   8.689
 2601POPC   C2B36140  43.335  14.085   8.264
 2601POPC   C3B36141  43.436  14.023   7.822
 2601POPC   C4B36142  43.443  13.722   7.477
 2602POPC   NC336143  44.251  27.954   9.551
 2602POPC   PO436144  44.648  28.462   9.569
 2602POPC   GL136145  44.450  28.275   9.189
 2602POPC   GL236146  44.629  27.937   9.184
 2602POPC   C1A36147  44.649  28.287   8.781
 2602POPC   D2A36148  44.825  28.109   8.411
 2602POPC   C3A36149  44.605  28.347   8.123
 2602POPC   C4A36150  44.749  28.285   7.751
 2602POPC   C1B36151  44.441  27.832   8.787
 2602POPC   C2B36152  44.337  28.000   8.373
 2602POPC   C3B36153  44.459  27.893   7.950
 2602POPC   C4B36154  44.357  28.014   7.551
 2603POPC   NC336155  16.549  20.282   9.537
 2603POPC   PO436156  17.129  19.865   9.598
 2603POPC   GL136157  16.837  19.941   9.272
 2603POPC   GL236158  16.732  19.577   9.249
 2603POPC   C1A36159  16.871  19.983   8.821
 2603POPC   D2A36160  16.481  19.988   8.580
 2603POPC   C3A36161  16.544  19.933   8.142
 2603POPC   C4A36162  16.742  20.174   7.802
 2603POPC   C1B36163  16.601  19.545   8.820
 2603POPC   C2B36164  16.828  19.615   8.452
 2603POPC   C3B36165  16.951  19.541   8.050
 2603POPC   C4B36166  16.703  19.693   7.706
 2604POPC   NC336167  20.337  12.385   9.503
 2604POPC   PO436168  20.375  11.766   9.455
 2604POPC   GL136169  20.564  11.920   9.080
 2604POPC   GL236170  20.476  12.273   9.010
 2604POPC   C1A36171  20.438  11.948   8.635
 2604POPC   D2A36172  20.222  12.086   8.264
 2604POPC   C3A36173  20.408  11.859   7.911
 2604POPC   C4A36174  20.805  11.675   8.001
 2604POPC   C1B36175  20.509  12.441   8.554
 2604POPC   C2B36176  20.660  12.281   8.113
 2604POPC   C3B36177  20.710  12.196   7.644
 2604POPC   C4B36178  20.579  12.333   7.203
 2605POPC   NC336179  23.126  17.008   9.461
 2605POPC   PO436180  22.574  16.599   9.500
 2605POPC   GL136181  22.991  16.591   9.182
 2605POPC   GL236182  23.090  16.922   8.964
 2605POPC   C1A36183  23.197  16.500   8.745
 2605POPC   D2A36184  23.194  16.788   8.397
 2605POPC   C3A36185  23.315  16.693   7.986
 2605POPC   C4A36186  23.148  16.659   7.577
 2605POPC   C1B36187  22.846  17.084   8.613
 2605POPC   C2B36188  22.940  17.250   8.236
 2605POPC   C3B36189  22.931  17.058   7.840
 2605POPC   C4B36190  22.740  16.918   7.456
 2606POPC   NC336191  43.623  22.187   9.423
 2606POPC   PO436192  44.280  22.636   9.414
 2606POPC   GL136193  44.124  22.314   9.058
 2606POPC   GL236194  44.322  21.962   9.008
 2606POPC   C1A36195  43.842  22.182   8.737
 2606POPC   D2A36196  43.501  22.226   8.429
 2606POPC   C3A36197  43.614  22.425   8.017
 2606POPC   C4A36198  44.017  22.423   7.722
 2606POPC   C1B36199  44.063  21.694   8.745
 2606POPC   C2B36200  43.865  21.800   8.390
 2606POPC   C3B36201  43.966  22.072   8.106
 2606POPC   C4B36202  44.184  21.954   7.754
 2607POPC   NC336203   6.355  14.075   9.818
 2607POPC   PO436204   6.768  14.560   9.530
 2607POPC   GL136205   6.902  14.213   9.256
 2607POPC   GL236206   6.724  14.363   9.044
 2607POPC   C1A36207   7.017  14.090   8.782
 2607POPC   D2A36208   6.903  14.067   8.333
 2607POPC   C3A36209   6.678  14.404   8.136
 2607POPC   C4A36210   6.749  14.589   7.761
 2607POPC   C1B36211   6.561  14.397   8.638
 2607POPC   C2B36212   6.468  14.789   8.393
 2607POPC   C3B36213   6.324  14.769   7.971
 2607POPC   C4B36214   6.245  14.432   7.701
 2608POPC   NC336215   8.498  20.548   9.417
 2608POPC   PO436216   7.739  20.428   9.463
 2608POPC   GL136217   8.039  20.582   9.199
 2608POPC   GL236218   8.042  20.918   9.343
 2608POPC   C1A36219   8.306  20.634   8.813
 2608POPC   D2A36220   8.317  20.855   8.437
 2608POPC   C3A36221   8.348  20.623   8.100
 2608POPC   C4A36222   8.365  20.404   7.744
 2608POPC   C1B36223   7.998  21.040   8.914
 2608POPC   C2B36224   7.854  21.031   8.504
 2608POPC   C3B36225   7.836  20.846   8.113
 2608POPC   C4B36226   8.005  20.759   7.735
 2609POPC   NC336227   7.173   6.740   9.250
 2609POPC   PO436228   6.544   6.709   9.526
 2609POPC   GL136229   6.488   6.725   9.097
 2609POPC   GL236230   6.330   7.054   9.110
 2609POPC   C1A36231   6.607   6.556   8.663
 2609POPC   D2A36232   6.708   6.652   8.200
 2609POPC   C3A36233   6.869   6.425   7.853
 2609POPC   C4A36234   6.665   6.300   7.416
 2609POPC   C1B36235   6.188   6.893   8.720
 2609POPC   C2B36236   6.061   7.006   8.322
 2609POPC   C3B36237   6.220   6.937   7.933
 2609POPC   C4B36238   6.486   6.682   7.693
 2610POPC   NC336239  29.655   7.809   9.578
 2610POPC   PO436240  29.185   8.371   9.505
 2610POPC   GL136241  29.156   8.248   9.134
 2610POPC   GL236242  29.454   8.124   9.109
 2610POPC   C1A36243  28.964   8.067   8.791
 2610POPC   D2A36244  28.905   7.740   8.493
 2610POPC   C3A36245  28.960   7.953   8.082
 2610POPC   C4A36246  28.792   8.126   7.700
 2610POPC   C1B36247  29.434   8.358   8.691
 2610POPC   C2B36248  29.471   8.591   8.274
 2610POPC   C3B36249  29.467   8.631   7.822
 2610POPC   C4B36250  29.278   8.308   7.597
 2611POPC   NC336251  22.440  14.033   9.485
 2611POPC   PO436252  22.678  14.679   9.534
 2611POPC   GL136253  22.913  14.631   9.157
 2611POPC   GL236254  23.172  14.367   9.140
 2611POPC   C1A36255  22.787  14.688   8.745
 2611POPC   D2A36256  22.983  14.829   8.369
 2611POPC   C3A36257  22.877  14.599   7.980
 2611POPC   C4A36258  22.696  14.523   7.576
 2611POPC   C1B36259  22.913  14.184   8.777
 2611POPC   C2B36260  22.860  13.974   8.333
 2611POPC   C3B36261  22.846  14.085   7.875
 2611POPC   C4B36262  23.268  14.255   7.753
 2612POPC   NC336263  11.543  37.837   9.463
 2612POPC   PO436264  12.084  37.567   9.387
 2612POPC   GL136265  12.076  37.801   9.045
 2612POPC   GL236266  11.836  38.028   9.002
 2612POPC   C1A36267  12.146  37.511   8.695
 2612POPC   D2A36268  12.445  37.435   8.353
 2612POPC   C3A36269  12.265  37.549   7.949
 2612POPC   C4A36270  12.280  37.613   7.506
 2612POPC   C1B36271  12.072  38.006   8.570
 2612POPC   C2B36272  12.174  38.055   8.099
 2612POPC   C3B36273  11.921  37.940   7.745
 2612POPC   C4B36274  11.809  37.708   7.388
 2613POPC   NC336275   1.126  44.475   9.315
 2613POPC   PO436276   1.718  44.604   9.345
 2613POPC   GL136277   1.439  44.767   9.006
 2613POPC   GL236278   1.080  44.901   9.023
 2613POPC   C1A36279   1.213  44.569   8.656
 2613POPC   D2A36280   0.912  44.672   8.359
 2613POPC   C3A36281   1.129  44.542   8.010
 2613POPC   C4A36282   1.431  44.327   7.773
 2613POPC   C1B36283   1.141   0.076   8.600
 2613POPC   C2B36284   1.366  44.961   8.202
 2613POPC   C3B36285   1.424  44.859   7.742
 2613POPC   C4B36286   1.684   0.058   7.409
 2614POPC   NC336287  23.047  10.179   9.831
 2614POPC   PO436288  22.657  10.713   9.527
 2614POPC   GL136289  22.875  10.521   9.169
 2614POPC   GL236290  23.181  10.365   9.249
 2614POPC   C1A36291  22.812  10.498   8.738
 2614POPC   D2A36292  23.061  10.625   8.400
 2614POPC   C3A36293  22.876  10.666   8.000
 2614POPC   C4A36294  23.108  10.972   7.870
 2614POPC   C1B36295  23.279  10.279   8.798
 2614POPC   C2B36296  23.124  10.134   8.368
 2614POPC   C3B36297  22.980  10.178   7.947
 2614POPC   C4B36298  23.195  10.104   7.598
 2615POPC   NC336299  21.690  30.863   9.451
 2615POPC   PO436300  21.326  30.421   9.732
 2615POPC   GL136301  21.251  30.558   9.253
 2615POPC   GL236302  21.493  30.723   9.001
 2615POPC   C1A36303  21.110  30.461   8.820
 2615POPC   D2A36304  21.425  30.591   8.497
 2615POPC   C3A36305  21.445  30.491   8.071
 2615POPC   C4A36306  21.299  30.602   7.676
 2615POPC   C1B36307  21.637  31.029   8.655
 2615POPC   C2B36308  21.529  31.010   8.220
 2615POPC   C3B36309  21.173  31.005   7.952
 2615POPC   C4B36310  21.150  31.076   7.510
 2616POPC   NC336311  20.352  25.937   9.509
 2616POPC   PO436312  21.052  25.692   9.589
 2616POPC   GL136313  20.785  25.732   9.206
 2616POPC   GL236314  20.444  25.585   9.169
 2616POPC   C1A36315  20.640  25.929   8.781
 2616POPC   D2A36316  20.718  26.167   8.367
 2616POPC   C3A36317  20.635  26.083   7.902
 2616POPC   C4A36318  20.867  26.350   7.612
 2616POPC   C1B36319  20.253  25.542   8.780
 2616POPC   C2B36320  20.205  25.774   8.394
 2616POPC   C3B36321  20.290  25.690   7.954
 2616POPC   C4B36322  20.263  25.867   7.515
 2617POPC   NC336323  27.861  35.909   9.498
 2617POPC   PO436324  28.571  35.933   9.463
 2617POPC   GL136325  28.301  36.080   9.116
 2617POPC   GL236326  28.032  35.833   9.012
 2617POPC   C1A36327  28.404  36.399   8.768
 2617POPC   D2A36328  28.257  36.460   8.345
 2617POPC   C3A36329  28.458  36.303   7.953
 2617POPC   C4A36330  28.373  36.392   7.532
 2617POPC   C1B36331  28.142  35.986   8.598
 2617POPC   C2B36332  28.084  35.987   8.154
 2617POPC   C3B36333  28.259  35.811   7.811
 2617POPC   C4B36334  28.317  35.914   7.381
 2618POPC   NC336335  32.185  36.259   9.475
 2618POPC   PO436336  32.535  35.745   9.763
 2618POPC   GL136337  32.345  35.840   9.254
 2618POPC   GL236338  32.545  36.082   9.092
 2618POPC   C1A36339  32.070  36.059   8.868
 2618POPC   D2A36340  31.966  36.104   8.417
 2618POPC   C3A36341  32.266  36.037   8.116
 2618POPC   C4A36342  32.359  36.147   7.709
 2618POPC   C1B36343  32.452  35.761   8.740
 2618POPC   C2B36344  32.456  35.596   8.349
 2618POPC   C3B36345  32.760  35.816   8.158
 2618POPC   C4B36346  32.806  35.954   7.770
 2619POPC   NC336347  10.141  44.249   9.335
 2619POPC   PO436348  10.570  43.778   9.655
 2619POPC   GL136349  10.431  43.815   9.198
 2619POPC   GL236350  10.574  44.105   9.049
 2619POPC   C1A36351  10.240  43.595   8.778
 2619POPC   D2A36352  10.169  43.760   8.349
 2619POPC   C3A36353  10.432  43.742   8.031
 2619POPC   C4A36354  10.463  43.648   7.606
 2619POPC   C1B36355  10.554  43.955   8.621
 2619POPC   C2B36356  10.731  44.122   8.233
 2619POPC   C3B36357  10.587  44.191   7.810
 2619POPC   C4B36358  10.470  44.096   7.382
 2620POPC   NC336359   6.399  30.124   9.562
 2620POPC   PO436360   6.301  29.461   9.442
 2620POPC   GL136361   6.572  29.698   9.167
 2620POPC   GL236362   6.572  30.060   9.110
 2620POPC   C1A36363   6.756  29.762   8.763
 2620POPC   D2A36364   6.868  30.027   8.436
 2620POPC   C3A36365   6.740  29.853   8.075
 2620POPC   C4A36366   6.912  29.937   7.679
 2620POPC   C1B36367   6.445  30.343   8.785
 2620POPC   C2B36368   6.438  30.296   8.342
 2620POPC   C3B36369   6.503  30.254   7.917
 2620POPC   C4B36370   6.427  29.920   7.627
 2621POPC   NC336371  22.424  39.681   9.252
 2621POPC   PO436372  21.849  39.689   9.601
 2621POPC   GL136373  21.967  40.014   9.266
 2621POPC   GL236374  22.055  39.871   8.983
 2621POPC   C1A36375  21.939  40.327   8.861
 2621POPC   D2A36376  21.707  40.303   8.484
 2621POPC   C3A36377  21.880  40.378   8.068
 2621POPC   C4A36378  22.005  40.172   7.703
 2621POPC   C1B36379  22.168  39.932   8.577
 2621POPC   C2B36380  22.215  39.945   8.126
 2621POPC   C3B36381  22.427  39.838   7.745
 2621POPC   C4B36382  22.599  39.848   7.291
 2622POPC   NC336383  28.213  44.977   9.670
 2622POPC   PO436384  28.568   0.500   9.577
 2622POPC   GL136385  28.466   0.512   9.179
 2622POPC   GL236386  28.224   0.269   9.220
 2622POPC   C1A36387  28.583   0.476   8.769
 2622POPC   D2A36388  28.447   0.448   8.359
 2622POPC   C3A36389  28.627   0.519   7.955
 2622POPC   C4A36390  28.502   0.705   7.576
 2622POPC   C1B36391  28.040   0.396   8.814
 2622POPC   C2B36392  27.974   0.306   8.365
 2622POPC   C3B36393  28.205   0.138   8.027
 2622POPC   C4B36394  28.167   0.195   7.634
 2623POPC   NC336395  35.935  19.277   9.228
 2623POPC   PO436396  36.568  19.041   9.253
 2623POPC   GL136397  36.280  18.890   9.012
 2623POPC   GL236398  36.008  18.737   9.136
 2623POPC   C1A36399  36.173  19.078   8.638
 2623POPC   D2A36400  36.290  19.462   8.425
 2623POPC   C3A36401  36.549  19.344   8.097
 2623POPC   C4A36402  36.293  19.023   7.859
 2623POPC   C1B36403  35.851  18.658   8.716
 2623POPC   C2B36404  35.928  18.815   8.262
 2623POPC   C3B36405  35.741  18.901   7.839
 2623POPC   C4B36406  35.735  18.913   7.347
 2624POPC   NC336407  27.673  34.102   9.654
 2624POPC   PO436408  27.256  33.738   9.382
 2624POPC   GL136409  27.691  33.785   9.239
 2624POPC   GL236410  27.651  34.059   9.085
 2624POPC   C1A36411  27.771  33.600   8.844
 2624POPC   D2A36412  27.490  33.544   8.483
 2624POPC   C3A36413  27.583  33.807   8.143
 2624POPC   C4A36414  27.686  33.625   7.785
 2624POPC   C1B36415  27.345  33.953   8.760
 2624POPC   C2B36416  27.119  33.922   8.368
 2624POPC   C3B36417  27.176  34.096   7.968
 2624POPC   C4B36418  27.292  33.882   7.608
 2625POPC   NC336419   0.305  36.596   9.587
 2625POPC   PO436420   0.209  37.286   9.527
 2625POPC   GL136421   0.299  37.088   9.148
 2625POPC   GL236422   0.603  36.912   9.267
 2625POPC   C1A36423   0.255  36.922   8.715
 2625POPC   D2A36424   0.517  36.959   8.354
 2625POPC   C3A36425   0.356  37.036   7.955
 2625POPC   C4A36426   0.184  36.797   7.633
 2625POPC   C1B36427   0.751  37.011   8.850
 2625POPC   C2B36428   0.996  36.785   8.501
 2625POPC   C3B36429   0.916  36.672   8.052
 2625POPC   C4B36430   0.867  36.934   7.685
 2626POPC   NC336431  38.926  36.809   9.576
 2626POPC   PO436432  39.380  37.224   9.247
 2626POPC   GL136433  39.113  36.926   9.109
 2626POPC   GL236434  39.250  36.608   9.206
 2626POPC   C1A36435  38.925  36.682   8.783
 2626POPC   D2A36436  39.105  36.580   8.367
 2626POPC   C3A36437  39.224  36.973   8.175
 2626POPC   C4A36438  39.301  37.163   7.763
 2626POPC   C1B36439  39.467  36.672   8.807
 2626POPC   C2B36440  39.608  36.452   8.471
 2626POPC   C3B36441  39.594  36.597   8.075
 2626POPC   C4B36442  39.249  36.663   7.782
 2627POPC   NC336443  22.493   2.227   9.267
 2627POPC   PO436444  21.963   2.046   9.423
 2627POPC   GL136445  22.121   1.955   9.041
 2627POPC   GL236446  22.033   2.310   8.974
 2627POPC   C1A36447  22.280   2.050   8.627
 2627POPC   D2A36448  22.040   1.956   8.257
 2627POPC   C3A36449  22.248   1.796   7.912
 2627POPC   C4A36450  22.471   2.140   7.746
 2627POPC   C1B36451  21.754   2.084   8.702
 2627POPC   C2B36452  21.527   2.167   8.322
 2627POPC   C3B36453  21.750   2.332   8.009
 2627POPC   C4B36454  21.954   2.141   7.672
 2628POPC   NC336455  28.371  22.753   9.514
 2628POPC   PO436456  28.701  23.344   9.530
 2628POPC   GL136457  28.481  23.278   9.144
 2628POPC   GL236458  28.498  22.939   9.055
 2628POPC   C1A36459  28.133  23.210   8.844
 2628POPC   D2A36460  27.982  23.045   8.468
 2628POPC   C3A36461  28.203  23.287   8.159
 2628POPC   C4A36462  28.175  23.342   7.719
 2628POPC   C1B36463  28.341  22.715   8.681
 2628POPC   C2B36464  28.331  22.775   8.211
 2628POPC   C3B36465  28.548  22.717   7.821
 2628POPC   C4B36466  28.621  22.645   7.385
 2629POPC   NC336467  11.743  21.783   9.553
 2629POPC   PO436468  12.371  21.725   9.216
 2629POPC   GL136469  11.973  21.482   9.200
 2629POPC   GL236470  11.687  21.691   9.063
 2629POPC   C1A36471  11.829  21.169   8.872
 2629POPC   D2A36472  11.956  21.021   8.436
 2629POPC   C3A36473  11.886  21.364   8.120
 2629POPC   C4A36474  12.031  21.273   7.698
 2629POPC   C1B36475  11.962  21.660   8.696
 2629POPC   C2B36476  12.188  21.886   8.358
 2629POPC   C3B36477  12.220  21.750   7.920
 2629POPC   C4B36478  11.881  21.761   7.649
 2630POPC   NC336479  17.935  20.479   9.428
 2630POPC   PO436480  18.351  21.006   9.493
 2630POPC   GL136481  18.239  20.875   9.099
 2630POPC   GL236482  18.473  20.610   9.084
 2630POPC   C1A36483  18.378  20.857   8.657
 2630POPC   D2A36484  18.430  20.531   8.362
 2630POPC   C3A36485  18.419  20.774   7.996
 2630POPC   C4A36486  18.231  20.714   7.607
 2630POPC   C1B36487  18.148  20.451   8.808
 2630POPC   C2B36488  17.926  20.459   8.459
 2630POPC   C3B36489  17.996  20.488   8.055
 2630POPC   C4B36490  17.783  20.442   7.729
 2631POPC   NC336491  14.600  43.757   9.545
 2631POPC   PO436492  14.145  44.284   9.485
 2631POPC   GL136493  14.205  44.090   9.088
 2631POPC   GL236494  14.515  43.886   9.034
 2631POPC   C1A36495  14.110  43.823   8.728
 2631POPC   D2A36496  14.455  43.663   8.463
 2631POPC   C3A36497  14.422  43.760   8.011
 2631POPC   C4A36498  14.116  43.905   7.723
 2631POPC   C1B36499  14.507  44.204   8.677
 2631POPC   C2B36500  14.675  44.127   8.275
 2631POPC   C3B36501  14.734  44.141   7.839
 2631POPC   C4B36502  14.547  43.972   7.441
 2632POPC   NC336503  24.348  10.217   9.359
 2632POPC   PO436504  24.846   9.698   9.415
 2632POPC   GL136505  24.545   9.816   9.099
 2632POPC   GL236506  24.687  10.072   9.023
 2632POPC   C1A36507  24.261   9.825   8.734
 2632POPC   D2A36508  24.410   9.767   8.290
 2632POPC   C3A36509  24.547   9.433   8.046
 2632POPC   C4A36510  24.808   9.368   7.709
 2632POPC   C1B36511  24.763   9.956   8.641
 2632POPC   C2B36512  24.953  10.227   8.390
 2632POPC   C3B36513  24.651  10.193   8.120
 2632POPC   C4B36514  24.567   9.896   7.802
 2633POPC   NC336515  17.050  40.511   9.349
 2633POPC   PO436516  16.553  40.937   9.546
 2633POPC   GL136517  16.560  40.836   9.166
 2633POPC   GL236518  16.823  40.765   8.989
 2633POPC   C1A36519  16.454  41.060   8.834
 2633POPC   D2A36520  16.589  41.168   8.484
 2633POPC   C3A36521  16.642  40.864   8.207
 2633POPC   C4A36522  16.714  40.870   7.813
 2633POPC   C1B36523  16.959  40.785   8.597
 2633POPC   C2B36524  17.002  40.497   8.250
 2633POPC   C3B36525  17.175  40.668   7.894
 2633POPC   C4B36526  17.197  41.106   7.786
 2634POPC   NC336527  10.195   4.162   9.568
 2634POPC   PO436528   9.598   4.492   9.636
 2634POPC   GL136529   9.752   4.225   9.301
 2634POPC   GL236530   9.571   3.929   9.320
 2634POPC   C1A36531   9.956   4.089   8.906
 2634POPC   D2A36532  10.038   4.080   8.445
 2634POPC   C3A36533   9.814   4.412   8.200
 2634POPC   C4A36534   9.725   4.483   7.757
 2634POPC   C1B36535   9.437   4.086   8.905
 2634POPC   C2B36536   9.524   4.060   8.458
 2634POPC   C3B36537   9.461   4.063   8.016
 2634POPC   C4B36538   9.072   4.107   7.812
 2635POPC   NC336539  24.118  33.145   9.551
 2635POPC   PO436540  24.744  33.102   9.360
 2635POPC   GL136541  24.395  33.009   9.116
 2635POPC   GL236542  24.170  33.273   9.065
 2635POPC   C1A36543  24.326  32.873   8.700
 2635POPC   D2A36544  24.452  33.084   8.299
 2635POPC   C3A36545  24.386  32.881   7.948
 2635POPC   C4A36546  24.504  33.039   7.556
 2635POPC   C1B36547  24.295  33.416   8.670
 2635POPC   C2B36548  24.154  33.523   8.263
 2635POPC   C3B36549  24.203  33.345   7.828
 2635POPC   C4B36550  24.302  33.466   7.355
 2636POPC   NC336551  40.092  41.173   9.462
 2636POPC   PO436552  40.227  41.738   9.456
 2636POPC   GL136553  40.174  41.558   9.085
 2636POPC   GL236554  40.420  41.297   9.053
 2636POPC   C1A36555  40.003  41.780   8.714
 2636POPC   D2A36556  39.988  42.025   8.325
 2636POPC   C3A36557  40.018  41.709   7.969
 2636POPC   C4A36558  39.789  41.413   7.748
 2636POPC   C1B36559  40.215  41.268   8.663
 2636POPC   C2B36560  40.005  41.271   8.281
 2636POPC   C3B36561  39.826  40.972   8.021
 2636POPC   C4B36562  39.949  40.955   7.602
 2637POPC   NC336563  17.549  27.278   9.657
 2637POPC   PO436564  17.625  27.865   9.466
 2637POPC   GL136565  17.408  27.598   9.200
 2637POPC   GL236566  17.718  27.420   9.147
 2637POPC   C1A36567  17.485  27.674   8.769
 2637POPC   D2A36568  17.715  27.572   8.415
 2637POPC   C3A36569  17.561  27.698   8.024
 2637POPC   C4A36570  17.611  27.565   7.578
 2637POPC   C1B36571  17.833  27.183   8.763
 2637POPC   C2B36572  17.698  27.052   8.348
 2637POPC   C3B36573  17.856  27.296   7.992
 2637POPC   C4B36574  18.014  27.244   7.586
 2638POPC   NC336575  38.261   6.881   9.469
 2638POPC   PO436576  37.620   6.527   9.449
 2638POPC   GL136577  37.649   6.711   9.075
 2638POPC   GL236578  38.004   6.657   9.096
 2638POPC   C1A36579  37.818   6.879   8.683
 2638POPC   D2A36580  37.924   7.036   8.284
 2638POPC   C3A36581  37.731   6.836   7.918
 2638POPC   C4A36582  37.464   6.570   7.662
 2638POPC   C1B36583  37.904   6.377   8.752
 2638POPC   C2B36584  37.866   6.499   8.333
 2638POPC   C3B36585  37.802   6.326   7.954
 2638POPC   C4B36586  37.956   6.494   7.605
 2639POPC   NC336587  18.034  37.873   9.736
 2639POPC   PO436588  18.404  37.291   9.763
 2639POPC   GL136589  18.248  37.557   9.379
 2639POPC   GL236590  18.508  37.816   9.285
 2639POPC   C1A36591  18.166  37.599   8.913
 2639POPC   D2A36592  18.196  37.413   8.470
 2639POPC   C3A36593  18.096  37.653   8.103
 2639POPC   C4A36594  18.227  37.496   7.698
 2639POPC   C1B36595  18.646  37.735   8.856
 2639POPC   C2B36596  18.438  37.847   8.473
 2639POPC   C3B36597  18.516  37.933   8.065
 2639POPC   C4B36598  18.694  37.946   7.695
 2640POPC   NC336599  41.664   8.514   9.404
 2640POPC   PO436600  41.098   8.196   9.266
 2640POPC   GL136601  41.511   8.115   9.133
 2640POPC   GL236602  41.464   8.432   8.943
 2640POPC   C1A36603  41.643   7.967   8.748
 2640POPC   D2A36604  41.356   8.151   8.449
 2640POPC   C3A36605  41.454   7.986   8.056
 2640POPC   C4A36606  41.430   8.089   7.625
 2640POPC   C1B36607  41.756   8.456   8.626
 2640POPC   C2B36608  41.871   8.176   8.308
 2640POPC   C3B36609  41.878   8.209   7.890
 2640POPC   C4B36610  41.676   8.537   7.677
 2641POPC   NC336611  40.245   5.562   9.511
 2641POPC   PO436612  40.840   5.891   9.447
 2641POPC   GL136613  40.619   5.693   9.127
 2641POPC   GL236614  40.372   5.857   9.115
 2641POPC   C1A36615  40.623   5.643   8.662
 2641POPC   D2A36616  40.940   5.807   8.367
 2641POPC   C3A36617  40.825   5.728   7.924
 2641POPC   C4A36618  41.086   5.557   7.627
 2641POPC   C1B36619  40.586   6.121   8.821
 2641POPC   C2B36620  40.551   6.122   8.378
 2641POPC   C3B36621  40.797   6.221   7.993
 2641POPC   C4B36622  40.622   6.096   7.577
 2642POPC   NC336623  25.406  11.289   9.546
 2642POPC   PO436624  26.079  11.247   9.506
 2642POPC   GL136625  25.916  11.074   9.152
 2642POPC   GL236626  25.563  11.024   9.103
 2642POPC   C1A36627  26.107  11.041   8.773
 2642POPC   D2A36628  26.433  11.223   8.522
 2642POPC   C3A36629  26.365  11.350   8.085
 2642POPC   C4A36630  26.155  11.151   7.730
 2642POPC   C1B36631  25.718  11.342   8.762
 2642POPC   C2B36632  25.944  11.335   8.371
 2642POPC   C3B36633  25.728  11.379   7.978
 2642POPC   C4B36634  25.580  11.533   7.579
 2643POPC   NC336635  29.907  26.788   9.586
 2643POPC   PO436636  30.387  26.290   9.431
 2643POPC   GL136637  30.228  26.675   9.155
 2643POPC   GL236638  29.822  26.794   9.101
 2643POPC   C1A36639  30.081  26.653   8.710
 2643POPC   D2A36640  30.027  26.423   8.353
 2643POPC   C3A36641  30.088  26.710   8.026
 2643POPC   C4A36642  30.292  26.779   7.641
 2643POPC   C1B36643  29.690  27.061   8.749
 2643POPC   C2B36644  29.628  27.233   8.319
 2643POPC   C3B36645  29.744  27.062   7.919
 2643POPC   C4B36646  29.804  26.721   7.574
 2644POPC   NC336647  26.607  31.218   9.450
 2644POPC   PO436648  27.093  31.597   9.520
 2644POPC   GL136649  26.934  31.494   9.134
 2644POPC   GL236650  27.067  31.276   8.912
 2644POPC   C1A36651  26.698  31.626   8.787
 2644POPC   D2A36652  26.540  31.558   8.378
 2644POPC   C3A36653  26.817  31.364   8.079
 2644POPC   C4A36654  27.089  31.486   7.736
 2644POPC   C1B36655  26.676  31.102   8.683
 2644POPC   C2B36656  26.409  31.048   8.297
 2644POPC   C3B36657  26.395  31.093   7.822
 2644POPC   C4B36658  26.452  30.989   7.365
 2645POPC   NC336659  20.619  20.412   9.551
 2645POPC   PO436660  20.779  21.116   9.667
 2645POPC   GL136661  20.545  20.911   9.282
 2645POPC   GL236662  20.603  20.608   9.107
 2645POPC   C1A36663  20.351  20.902   8.824
 2645POPC   D2A36664  20.564  20.743   8.430
 2645POPC   C3A36665  20.383  20.821   7.996
 2645POPC   C4A36666  20.203  20.664   7.573
 2645POPC   C1B36667  20.836  20.416   8.796
 2645POPC   C2B36668  20.881  20.316   8.413
 2645POPC   C3B36669  20.724  20.207   8.077
 2645POPC   C4B36670  20.615  20.433   7.744
 2646POPC   NC336671  26.253  35.565   9.489
 2646POPC   PO436672  26.053  36.308   9.506
 2646POPC   GL136673  25.839  36.187   9.142
 2646POPC   GL236674  26.021  35.892   9.077
 2646POPC   C1A36675  25.763  36.146   8.726
 2646POPC   D2A36676  25.949  35.827   8.487
 2646POPC   C3A36677  26.018  36.034   8.114
 2646POPC   C4A36678  25.869  36.345   7.804
 2646POPC   C1B36679  26.265  36.165   8.764
 2646POPC   C2B36680  26.553  36.285   8.453
 2646POPC   C3B36681  26.392  36.380   8.078
 2646POPC   C4B36682  26.329  36.496   7.687
 2647POPC   NC336683  21.543  40.033   9.567
 2647POPC   PO436684  21.082  39.606   9.444
 2647POPC   GL136685  21.192  39.971   9.128
 2647POPC   GL236686  21.518  40.125   9.066
 2647POPC   C1A36687  21.212  40.176   8.681
 2647POPC   D2A36688  21.363  39.971   8.298
 2647POPC   C3A36689  21.397  40.166   7.922
 2647POPC   C4A36690  21.159  40.255   7.562
 2647POPC   C1B36691  21.614  39.820   8.731
 2647POPC   C2B36692  21.800  39.703   8.306
 2647POPC   C3B36693  21.670  39.737   7.892
 2647POPC   C4B36694  21.227  39.706   7.740
 2648POPC   NC336695   5.789  21.589   9.598
 2648POPC   PO436696   5.966  20.943   9.482
 2648POPC   GL136697   6.035  21.296   9.211
 2648POPC   GL236698   5.695  21.390   9.155
 2648POPC   C1A36699   6.099  21.399   8.758
 2648POPC   D2A36700   6.186  21.295   8.304
 2648POPC   C3A36701   5.941  21.365   7.915
 2648POPC   C4A36702   5.858  21.600   7.526
 2648POPC   C1B36703   5.622  21.104   8.842
 2648POPC   C2B36704   5.723  21.132   8.420
 2648POPC   C3B36705   5.558  21.017   8.035
 2648POPC   C4B36706   5.675  21.015   7.615
 2649POPC   NC336707   8.438  29.696   9.709
 2649POPC   PO436708   7.906  30.062   9.541
 2649POPC   GL136709   8.273  29.912   9.243
 2649POPC   GL236710   8.615  29.734   9.190
 2649POPC   C1A36711   8.259  29.845   8.798
 2649POPC   D2A36712   7.995  29.677   8.469
 2649POPC   C3A36713   8.038  29.826   8.064
 2649POPC   C4A36714   8.035  29.585   7.705
 2649POPC   C1B36715   8.598  29.472   8.833
 2649POPC   C2B36716   8.428  29.385   8.446
 2649POPC   C3B36717   8.476  29.551   8.063
 2649POPC   C4B36718   8.511  29.793   7.718
 2650POPC   NC336719  40.144  22.839   9.758
 2650POPC   PO436720  39.594  22.607   9.510
 2650POPC   GL136721  39.821  22.892   9.214
 2650POPC   GL236722  40.165  22.814   9.161
 2650POPC   C1A36723  39.942  23.122   8.812
 2650POPC   D2A36724  39.898  22.947   8.398
 2650POPC   C3A36725  40.076  23.074   8.010
 2650POPC   C4A36726  40.265  22.825   7.687
 2650POPC   C1B36727  40.379  22.851   8.772
 2650POPC   C2B36728  40.393  22.856   8.372
 2650POPC   C3B36729  40.222  22.545   8.106
 2650POPC   C4B36730  40.474  22.356   7.753
 2651POPC   NC336731  23.637  35.764   9.478
 2651POPC   PO436732  23.793  35.095   9.399
 2651POPC   GL136733  23.794  35.467   9.119
 2651POPC   GL236734  23.443  35.552   9.054
 2651POPC   C1A36735  23.805  35.661   8.707
 2651POPC   D2A36736  23.808  35.418   8.335
 2651POPC   C3A36737  23.528  35.492   7.998
 2651POPC   C4A36738  23.533  35.467   7.558
 2651POPC   C1B36739  23.557  35.205   8.770
 2651POPC   C2B36740  23.444  35.036   8.389
 2651POPC   C3B36741  23.648  34.980   8.043
 2651POPC   C4B36742  23.749  34.737   7.706
 2652POPC   NC336743  23.143  39.007   9.543
 2652POPC   PO436744  22.575  39.350   9.539
 2652POPC   GL136745  22.642  39.203   9.152
 2652POPC   GL236746  22.876  38.971   9.129
 2652POPC   C1A36747  22.783  39.374   8.763
 2652POPC   D2A36748  23.088  39.549   8.479
 2652POPC   C3A36749  22.866  39.634   8.100
 2652POPC   C4A36750  22.885  39.469   7.694
 2652POPC   C1B36751  22.814  38.857   8.770
 2652POPC   C2B36752  22.995  39.003   8.417
 2652POPC   C3B36753  22.871  39.090   8.036
 2652POPC   C4B36754  22.723  39.006   7.637
 2653POPC   NC336755  44.281  36.318   9.552
 2653POPC   PO436756  44.947  36.343   9.497
 2653POPC   GL136757  44.884  36.151   9.165
 2653POPC   GL236758  44.742  35.850   9.303
 2653POPC   C1A36759  44.510  36.118   8.931
 2653POPC   D2A36760  44.423  36.090   8.502
 2653POPC   C3A36761  44.539  36.401   8.170
 2653POPC   C4A36762  44.487  36.243   7.731
 2653POPC   C1B36763  44.852  35.754   8.861
 2653POPC   C2B36764  44.904  35.914   8.465
 2653POPC   C3B36765  44.692  35.919   8.076
 2653POPC   C4B36766  44.838  35.835   7.665
 2654POPC   NC336767   9.586  43.432   9.491
 2654POPC   PO436768   9.394  42.813   9.751
 2654POPC   GL136769   9.499  42.887   9.309
 2654POPC   GL236770   9.827  42.795   9.114
 2654POPC   C1A36771   9.474  43.070   8.899
 2654POPC   D2A36772   9.621  42.919   8.519
 2654POPC   C3A36773   9.571  43.051   8.113
 2654POPC   C4A36774   9.747  43.028   7.727
 2654POPC   C1B36775   9.992  43.113   8.801
 2654POPC   C2B36776   9.946  43.306   8.388
 2654POPC   C3B36777  10.073  43.388   7.949
 2654POPC   C4B36778  10.025  43.368   7.494
 2655POPC   NC336779  17.222  43.210   9.394
 2655POPC   PO436780  17.719  42.805   9.506
 2655POPC   GL136781  17.816  43.058   9.126
 2655POPC   GL236782  17.539  43.267   9.025
 2655POPC   C1A36783  17.719  42.991   8.656
 2655POPC   D2A36784  17.436  42.704   8.372
 2655POPC   C3A36785  17.432  42.863   7.947
 2655POPC   C4A36786  17.733  43.171   7.789
 2655POPC   C1B36787  17.229  43.042   8.749
 2655POPC   C2B36788  17.137  43.181   8.319
 2655POPC   C3B36789  17.281  43.370   7.936
 2655POPC   C4B36790  17.310  43.212   7.514
 2656POPC   NC336791  25.129  35.397   9.663
 2656POPC   PO436792  25.443  34.847   9.582
 2656POPC   GL136793  25.430  35.201   9.243
 2656POPC   GL236794  25.150  35.483   9.167
 2656POPC   C1A36795  25.365  35.238   8.786
 2656POPC   D2A36796  25.063  35.326   8.476
 2656POPC   C3A36797  25.152  35.133   8.082
 2656POPC   C4A36798  25.401  35.101   7.743
 2656POPC   C1B36799  24.871  35.696   8.862
 2656POPC   C2B36800  24.919  35.826   8.427
 2656POPC   C3B36801  25.166  35.661   8.072
 2656POPC   C4B36802  25.056  35.525   7.690
 2657POPC   NC336803  21.033  44.367   9.904
 2657POPC   PO436804  20.937  44.948   9.503
 2657POPC   GL136805  20.569  44.774   9.244
 2657POPC   GL236806  20.721  44.531   9.005
 2657POPC   C1A36807  20.443  44.857   8.795
 2657POPC   D2A36808  20.678  44.579   8.490
 2657POPC   C3A36809  20.562  44.572   8.061
 2657POPC   C4A36810  20.480  44.455   7.662
 2657POPC   C1B36811  21.070  44.778   8.823
 2657POPC   C2B36812  21.176  44.923   8.443
 2657POPC   C3B36813  20.995  44.843   8.070
 2657POPC   C4B36814  20.870  44.780   7.645
 2658POPC   NC336815  12.875  10.944   9.528
 2658POPC   PO436816  13.157  10.352   9.483
 2658POPC   GL136817  13.108  10.638   9.121
 2658POPC   GL236818  12.755  10.671   9.093
 2658POPC   C1A36819  12.980  10.596   8.653
 2658POPC   D2A36820  12.771  10.640   8.270
 2658POPC   C3A36821  12.935  10.402   7.939
 2658POPC   C4A36822  13.018  10.162   7.560
 2658POPC   C1B36823  12.499  10.407   8.774
 2658POPC   C2B36824  12.521  10.156   8.373
 2658POPC   C3B36825  12.425  10.315   7.990
 2658POPC   C4B36826  12.498  10.758   7.817
 2659POPC   NC336827  21.875  20.965   9.567
 2659POPC   PO436828  22.240  20.330   9.812
 2659POPC   GL136829  22.245  20.550   9.369
 2659POPC   GL236830  22.382  20.878   9.277
 2659POPC   C1A36831  22.196  20.551   8.891
 2659POPC   D2A36832  22.075  20.758   8.478
 2659POPC   C3A36833  22.072  20.526   8.091
 2659POPC   C4A36834  21.992  20.561   7.674
 2659POPC   C1B36835  22.434  21.000   8.808
 2659POPC   C2B36836  22.479  21.056   8.336
 2659POPC   C3B36837  22.411  20.920   7.879
 2659POPC   C4B36838  22.193  20.953   7.449
 2660POPC   NC336839  40.915  35.631   9.631
 2660POPC   PO436840  40.774  36.257   9.383
 2660POPC   GL136841  40.841  35.917   9.090
 2660POPC   GL236842  41.039  36.174   8.932
 2660POPC   C1A36843  40.695  35.825   8.664
 2660POPC   D2A36844  40.461  35.910   8.265
 2660POPC   C3A36845  40.765  35.935   7.924
 2660POPC   C4A36846  40.773  35.905   7.483
 2660POPC   C1B36847  40.666  36.354   8.696
 2660POPC   C2B36848  40.694  36.363   8.237
 2660POPC   C3B36849  40.707  36.438   7.798
 2660POPC   C4B36850  40.983  36.391   7.451
 2661POPC   NC336851  33.041  44.312   9.666
 2661POPC   PO436852  33.683  44.480   9.358
 2661POPC   GL136853  33.829  44.339   8.979
 2661POPC   GL236854  34.158  44.467   8.927
 2661POPC   C1A36855  33.767  44.264   8.535
 2661POPC   D2A36856  33.897  44.450   8.167
 2661POPC   C3A36857  33.792  44.452   7.778
 2661POPC   C4A36858  33.552  44.618   7.494
 2661POPC   C1B36859  33.846  44.746   8.671
 2661POPC   C2B36860  33.695  44.911   8.242
 2661POPC   C3B36861  33.856  44.952   7.802
 2661POPC   C4B36862  34.011   0.298   7.539
 2662POPC   NC336863  23.513  31.639   9.454
 2662POPC   PO436864  24.130  31.693   9.251
 2662POPC   GL136865  23.869  31.400   9.053
 2662POPC   GL236866  24.117  31.156   8.910
 2662POPC   C1A36867  23.617  31.504   8.695
 2662POPC   D2A36868  23.695  31.444   8.253
 2662POPC   C3A36869  23.533  31.718   7.923
 2662POPC   C4A36870  23.415  31.441   7.614
 2662POPC   C1B36871  24.138  31.514   8.595
 2662POPC   C2B36872  24.134  31.706   8.178
 2662POPC   C3B36873  24.001  31.592   7.773
 2662POPC   C4B36874  23.875  31.274   7.432
 2663POPC   NC336875  10.183  24.409   9.565
 2663POPC   PO436876  10.598  24.832   9.350
 2663POPC   GL136877  10.315  24.628   9.102
 2663POPC   GL236878  10.372  24.263   9.131
 2663POPC   C1A36879  10.424  24.509   8.683
 2663POPC   D2A36880  10.684  24.599   8.360
 2663POPC   C3A36881  10.388  24.681   8.056
 2663POPC   C4A36882  10.485  24.655   7.635
 2663POPC   C1B36883  10.395  24.001   8.770
 2663POPC   C2B36884  10.527  24.063   8.328
 2663POPC   C3B36885  10.539  24.206   7.889
 2663POPC   C4B36886  10.362  24.222   7.433
 2664POPC   NC336887   3.758  44.081   9.892
 2664POPC   PO436888   3.404  43.706   9.656
 2664POPC   GL136889   3.537  43.475   9.244
 2664POPC   GL236890   3.219  43.381   9.084
 2664POPC   C1A36891   3.637  43.519   8.787
 2664POPC   D2A36892   3.546  43.712   8.336
 2664POPC   C3A36893   3.710  43.883   7.926
 2664POPC   C4A36894   3.712  43.704   7.484
 2664POPC   C1B36895   3.156  43.659   8.714
 2664POPC   C2B36896   3.038  43.655   8.266
 2664POPC   C3B36897   3.222  43.726   7.836
 2664POPC   C4B36898   3.256  43.952   7.422
 2665POPC   NC336899   8.178   4.484   9.616
 2665POPC   PO436900   8.105   3.858   9.398
 2665POPC   GL136901   8.233   4.224   9.186
 2665POPC   GL236902   8.468   4.104   9.032
 2665POPC   C1A36903   8.116   4.296   8.736
 2665POPC   D2A36904   8.195   4.182   8.332
 2665POPC   C3A36905   8.050   4.250   7.947
 2665POPC   C4A36906   8.124   3.987   7.610
 2665POPC   C1B36907   8.545   4.516   8.889
 2665POPC   C2B36908   8.571   4.486   8.477
 2665POPC   C3B36909   8.535   4.580   8.045
 2665POPC   C4B36910   8.236   4.615   7.680
 2666POPC   NC336911  24.979  10.726   9.638
 2666POPC   PO436912  24.683  10.193   9.663
 2666POPC   GL136913  24.944  10.447   9.225
 2666POPC   GL236914  24.933  10.833   9.156
 2666POPC   C1A36915  25.265  10.570   8.888
 2666POPC   D2A36916  25.233  10.660   8.449
 2666POPC   C3A36917  25.562  10.596   8.169
 2666POPC   C4A36918  25.382  10.511   7.793
 2666POPC   C1B36919  24.849  10.835   8.748
 2666POPC   C2B36920  24.899  11.032   8.340
 2666POPC   C3B36921  24.921  10.743   7.961
 2666POPC   C4B36922  25.043  10.730   7.483
 2667POPC   NC336923  41.512  41.817   9.495
 2667POPC   PO436924  41.968  41.412   9.289
 2667POPC   GL136925  41.785  41.738   9.064
 2667POPC   GL236926  41.393  41.722   9.011
 2667POPC   C1A36927  41.727  41.654   8.645
 2667POPC   D2A36928  41.513  41.653   8.281
 2667POPC   C3A36929  41.647  41.440   7.936
 2667POPC   C4A36930  41.716  41.141   7.602
 2667POPC   C1B36931  41.116  41.654   8.643
 2667POPC   C2B36932  41.043  41.446   8.256
 2667POPC   C3B36933  41.170  41.610   7.884
 2667POPC   C4B36934  41.351  41.470   7.490
 2668POPC   NC336935  17.602   0.998   9.442
 2668POPC   PO436936  17.486   1.508   9.825
 2668POPC   GL136937  17.456   1.458   9.315
 2668POPC   GL236938  17.239   1.185   9.132
 2668POPC   C1A36939  17.627   1.342   8.860
 2668POPC   D2A36940  17.531   1.079   8.467
 2668POPC   C3A36941  17.543   1.317   8.063
 2668POPC   C4A36942  17.869   1.317   7.723
 2668POPC   C1B36943  17.131   0.887   8.750
 2668POPC   C2B36944  17.141   0.738   8.304
 2668POPC   C3B36945  17.322   0.887   7.909
 2668POPC   C4B36946  17.098   1.063   7.542
 2669POPC   NC336947  20.159  23.861   9.559
 2669POPC   PO436948  20.669  23.388   9.583
 2669POPC   GL136949  20.597  23.634   9.235
 2669POPC   GL236950  20.286  23.585   9.123
 2669POPC   C1A36951  20.638  23.739   8.790
 2669POPC   D2A36952  20.763  23.527   8.437
 2669POPC   C3A36953  20.752  23.716   8.094
 2669POPC   C4A36954  20.609  23.741   7.725
 2669POPC   C1B36955  20.122  23.587   8.715
 2669POPC   C2B36956  20.298  23.691   8.339
 2669POPC   C3B36957  20.325  24.000   8.053
 2669POPC   C4B36958  20.152  23.979   7.651
 2670POPC   NC336959  11.377   7.138   9.580
 2670POPC   PO436960  11.000   7.708   9.470
 2670POPC   GL136961  11.338   7.538   9.231
 2670POPC   GL236962  11.146   7.232   9.139
 2670POPC   C1A36963  11.317   7.576   8.792
 2670POPC   D2A36964  11.411   7.442   8.397
 2670POPC   C3A36965  11.034   7.462   8.173
 2670POPC   C4A36966  11.002   7.414   7.758
 2670POPC   C1B36967  11.193   7.076   8.716
 2670POPC   C2B36968  11.227   6.956   8.290
 2670POPC   C3B36969  11.429   6.998   7.907
 2670POPC   C4B36970  11.414   7.207   7.483
 2671POPC   NC336971  41.453  40.175   9.825
 2671POPC   PO436972  41.867  39.698   9.428
 2671POPC   GL136973  41.578  40.081   9.332
 2671POPC   GL236974  41.314  39.895   9.231
 2671POPC   C1A36975  41.508  40.270   8.919
 2671POPC   D2A36976  41.719  40.050   8.564
 2671POPC   C3A36977  41.705  40.226   8.145
 2671POPC   C4A36978  41.711  40.028   7.730
 2671POPC   C1B36979  41.189  39.911   8.789
 2671POPC   C2B36980  41.231  40.125   8.402
 2671POPC   C3B36981  41.263  40.071   7.953
 2671POPC   C4B36982  41.287  39.840   7.526
 2672POPC   NC336983  18.653  20.649   9.558
 2672POPC   PO436984  19.270  20.357   9.443
 2672POPC   GL136985  18.958  20.391   9.115
 2672POPC   GL236986  18.986  20.719   9.182
 2672POPC   C1A36987  19.049  20.477   8.652
 2672POPC   D2A36988  19.347  20.621   8.305
 2672POPC   C3A36989  19.368  20.577   7.826
 2672POPC   C4A36990  19.357  20.390   7.379
 2672POPC   C1B36991  18.837  20.909   8.841
 2672POPC   C2B36992  18.824  20.853   8.381
 2672POPC   C3B36993  18.892  20.556   8.024
 2672POPC   C4B36994  18.948  20.653   7.557
 2673POPC   NC336995   5.527  29.712   9.412
 2673POPC   PO436996   5.934  30.196   9.589
 2673POPC   GL136997   6.077  29.898   9.230
 2673POPC   GL236998   5.931  29.554   9.109
 2673POPC   C1A36999   6.231  29.862   8.805
 2673POPC   D2A37000   6.025  29.960   8.453
 2673POPC   C3A37001   6.185  29.872   8.075
 2673POPC   C4A37002   5.948  29.969   7.734
 2673POPC   C1B37003   5.929  29.463   8.668
 2673POPC   C2B37004   5.865  29.485   8.225
 2673POPC   C3B37005   5.584  29.699   7.967
 2673POPC   C4B37006   5.420  29.694   7.569
 2674POPC   NC337007  25.924  44.070   9.412
 2674POPC   PO437008  26.336  43.606   9.756
 2674POPC   GL137009  26.325  43.501   9.255
 2674POPC   GL237010  26.177  43.777   9.096
 2674POPC   C1A37011  26.473  43.583   8.762
 2674POPC   D2A37012  26.214  43.827   8.408
 2674POPC   C3A37013  26.165  43.675   7.978
 2674POPC   C4A37014  26.125  43.905   7.559
 2674POPC   C1B37015  25.912  43.609   8.752
 2674POPC   C2B37016  25.678  43.761   8.394
 2674POPC   C3B37017  25.767  43.991   8.020
 2674POPC   C4B37018  25.656  43.791   7.631
 2675POPC   NC337019  27.317  24.269   9.744
 2675POPC   PO437020  26.806  24.647   9.436
 2675POPC   GL137021  26.872  24.368   9.085
 2675POPC   GL237022  26.589  24.456   8.943
 2675POPC   C1A37023  26.974  24.361   8.639
 2675POPC   D2A37024  27.138  24.658   8.368
 2675POPC   C3A37025  26.890  24.558   8.025
 2675POPC   C4A37026  26.821  24.203   7.762
 2675POPC   C1B37027  26.398  24.728   8.678
 2675POPC   C2B37028  26.613  24.828   8.367
 2675POPC   C3B37029  26.564  24.940   7.988
 2675POPC   C4B37030  26.570  24.665   7.639
 2676POPC   NC337031  21.784  21.675   9.889
 2676POPC   PO437032  22.241  21.296   9.554
 2676POPC   GL137033  22.312  21.368   9.128
 2676POPC   GL237034  21.958  21.364   9.117
 2676POPC   C1A37035  22.318  21.499   8.694
 2676POPC   D2A37036  22.278  21.727   8.284
 2676POPC   C3A37037  22.286  21.449   7.966
 2676POPC   C4A37038  22.031  21.388   7.647
 2676POPC   C1B37039  21.929  21.135   8.783
 2676POPC   C2B37040  21.992  21.270   8.365
 2676POPC   C3B37041  21.925  21.023   8.008
 2676POPC   C4B37042  21.676  20.980   7.662
 2677POPC   NC337043  33.308  29.792   9.512
 2677POPC   PO437044  32.646  29.867   9.512
 2677POPC   GL137045  32.757  29.941   9.111
 2677POPC   GL237046  33.014  29.731   9.117
 2677POPC   C1A37047  32.897  29.977   8.686
 2677POPC   D2A37048  32.756  29.810   8.342
 2677POPC   C3A37049  32.884  29.791   7.965
 2677POPC   C4A37050  32.938  30.154   7.736
 2677POPC   C1B37051  33.277  29.599   8.839
 2677POPC   C2B37052  33.316  29.663   8.454
 2677POPC   C3B37053  33.444  29.593   8.057
 2677POPC   C4B37054  33.257  29.634   7.693
 2678POPC   NC337055  19.426   7.399   9.923
 2678POPC   PO437056  18.828   7.545   9.551
 2678POPC   GL137057  18.896   7.576   9.096
 2678POPC   GL237058  19.152   7.364   9.037
 2678POPC   C1A37059  18.684   7.572   8.682
 2678POPC   D2A37060  18.607   7.554   8.258
 2678POPC   C3A37061  18.998   7.458   8.009
 2678POPC   C4A37062  19.355   7.692   7.853
 2678POPC   C1B37063  19.160   7.364   8.598
 2678POPC   C2B37064  19.430   7.328   8.240
 2678POPC   C3B37065  19.390   7.160   7.805
 2678POPC   C4B37066  19.196   6.854   7.481
 2679POPC   NC337067  12.205  29.674   9.399
 2679POPC   PO437068  12.070  29.069   9.604
 2679POPC   GL137069  11.935  28.972   9.199
 2679POPC   GL237070  12.252  28.927   9.026
 2679POPC   C1A37071  11.922  29.288   8.876
 2679POPC   D2A37072  11.967  29.263   8.445
 2679POPC   C3A37073  11.701  29.333   8.102
 2679POPC   C4A37074  11.981  29.306   7.759
 2679POPC   C1B37075  11.955  28.809   8.697
 2679POPC   C2B37076  11.846  28.800   8.249
 2679POPC   C3B37077  12.137  28.821   7.869
 2679POPC   C4B37078  12.395  29.004   7.527
 2680POPC   NC337079  38.236  30.949   9.385
 2680POPC   PO437080  38.655  30.504   9.599
 2680POPC   GL137081  38.497  30.557   9.183
 2680POPC   GL237082  38.778  30.791   9.125
 2680POPC   C1A37083  38.282  30.699   8.775
 2680POPC   D2A37084  38.250  30.994   8.428
 2680POPC   C3A37085  38.178  30.838   8.016
 2680POPC   C4A37086  38.287  30.835   7.581
 2680POPC   C1B37087  38.762  30.545   8.752
 2680POPC   C2B37088  38.544  30.570   8.350
 2680POPC   C3B37089  38.613  30.592   7.924
 2680POPC   C4B37090  38.759  30.278   7.705
 2681POPC   NC337091  24.457  11.090   9.455
 2681POPC   PO437092  24.262  11.769   9.443
 2681POPC   GL137093  24.601  11.523   9.142
 2681POPC   GL237094  24.574  11.189   8.991
 2681POPC   C1A37095  24.831  11.492   8.716
 2681POPC   D2A37096  24.751  11.601   8.309
 2681POPC   C3A37097  24.594  11.297   8.027
 2681POPC   C4A37098  24.255  11.445   7.818
 2681POPC   C1B37099  24.354  11.333   8.595
 2681POPC   C2B37100  24.183  11.054   8.249
 2681POPC   C3B37101  24.120  10.972   7.794
 2681POPC   C4B37102  24.535  10.959   7.613
 2682POPC   NC337103  23.392  15.709   9.616
 2682POPC   PO437104  23.848  16.165   9.533
 2682POPC   GL137105  23.852  15.997   9.104
 2682POPC   GL237106  23.548  15.827   9.133
 2682POPC   C1A37107  23.783  15.813   8.664
 2682POPC   D2A37108  23.660  15.783   8.211
 2682POPC   C3A37109  23.712  15.785   7.777
 2682POPC   C4A37110  23.614  16.046   7.416
 2682POPC   C1B37111  23.343  16.021   8.784
 2682POPC   C2B37112  23.405  16.221   8.356
 2682POPC   C3B37113  23.363  16.137   7.895
 2682POPC   C4B37114  23.197  15.824   7.568
 2683POPC   NC337115  36.065  42.605   9.561
 2683POPC   PO437116  35.819  42.054   9.288
 2683POPC   GL137117  36.159  42.287   9.159
 2683POPC   GL237118  36.153  42.619   9.021
 2683POPC   C1A37119  36.410  42.233   8.821
 2683POPC   D2A37120  36.201  42.396   8.479
 2683POPC   C3A37121  36.382  42.292   8.100
 2683POPC   C4A37122  36.190  42.293   7.722
 2683POPC   C1B37123  35.790  42.879   8.839
 2683POPC   C2B37124  35.768  42.764   8.386
 2683POPC   C3B37125  35.917  42.658   7.972
 2683POPC   C4B37126  35.822  42.566   7.535
 2684POPC   NC337127  10.299   3.383   9.370
 2684POPC   PO437128  10.865   3.697   9.396
 2684POPC   GL137129  10.688   3.832   9.029
 2684POPC   GL237130  10.354   3.862   9.151
 2684POPC   C1A37131  10.743   3.766   8.585
 2684POPC   D2A37132  10.938   3.885   8.189
 2684POPC   C3A37133  10.838   3.551   7.926
 2684POPC   C4A37134  10.467   3.279   7.916
 2684POPC   C1B37135  10.245   3.686   8.749
 2684POPC   C2B37136  10.305   3.610   8.316
 2684POPC   C3B37137  10.364   3.787   7.930
 2684POPC   C4B37138  10.631   4.041   7.765
 2685POPC   NC337139  31.616   9.203   9.579
 2685POPC   PO437140  31.536   8.544   9.638
 2685POPC   GL137141  31.700   8.633   9.152
 2685POPC   GL237142  31.497   8.942   9.090
 2685POPC   C1A37143  31.535   8.525   8.679
 2685POPC   D2A37144  31.312   8.663   8.267
 2685POPC   C3A37145  31.415   8.940   7.885
 2685POPC   C4A37146  31.672   8.857   7.517
 2685POPC   C1B37147  31.351   9.005   8.667
 2685POPC   C2B37148  31.180   9.176   8.272
 2685POPC   C3B37149  31.352   9.440   7.920
 2685POPC   C4B37150  31.461   9.326   7.497
 2686POPC   NC337151  11.021   2.441   9.482
 2686POPC   PO437152  11.350   1.917   9.778
 2686POPC   GL137153  11.182   1.938   9.353
 2686POPC   GL237154  11.400   2.209   9.240
 2686POPC   C1A37155  11.237   1.877   8.870
 2686POPC   D2A37156  11.363   2.061   8.431
 2686POPC   C3A37157  11.241   1.881   8.038
 2686POPC   C4A37158  10.900   1.876   7.748
 2686POPC   C1B37159  11.528   2.336   8.828
 2686POPC   C2B37160  11.623   2.513   8.406
 2686POPC   C3B37161  11.517   2.358   7.998
 2686POPC   C4B37162  11.251   2.262   7.659
 2687POPC   NC337163  39.889  10.339   9.623
 2687POPC   PO437164  39.863  10.895   9.633
 2687POPC   GL137165  39.855  10.668   9.194
 2687POPC   GL237166  39.559  10.775   9.016
 2687POPC   C1A37167  39.877  10.410   8.764
 2687POPC   D2A37168  39.921  10.224   8.314
 2687POPC   C3A37169  39.946  10.375   7.873
 2687POPC   C4A37170  40.088  10.684   7.538
 2687POPC   C1B37171  39.750  10.877   8.613
 2687POPC   C2B37172  39.725  10.710   8.191
 2687POPC   C3B37173  39.667  10.882   7.761
 2687POPC   C4B37174  39.722  10.945   7.267
 2688POPC   NC337175  35.577  32.791   9.467
 2688POPC   PO437176  34.962  33.185   9.499
 2688POPC   GL137177  35.218  33.013   9.165
 2688POPC   GL237178  35.030  32.791   9.027
 2688POPC   C1A37179  35.236  33.158   8.718
 2688POPC   D2A37180  34.972  33.098   8.372
 2688POPC   C3A37181  35.148  33.109   7.974
 2688POPC   C4A37182  35.529  33.247   7.792
 2688POPC   C1B37183  35.137  32.658   8.620
 2688POPC   C2B37184  35.002  32.619   8.208
 2688POPC   C3B37185  35.003  32.627   7.804
 2688POPC   C4B37186  35.354  32.752   7.665
 2689POPC   NC337187  34.058  42.863   9.328
 2689POPC   PO437188  33.433  42.942   9.532
 2689POPC   GL137189  33.614  43.100   9.135
 2689POPC   GL237190  33.848  43.359   9.246
 2689POPC   C1A37191  33.801  42.936   8.732
 2689POPC   D2A37192  33.833  42.792   8.273
 2689POPC   C3A37193  33.567  43.052   7.952
 2689POPC   C4A37194  33.499  43.036   7.444
 2689POPC   C1B37195  33.858  43.464   8.804
 2689POPC   C2B37196  33.809  43.302   8.383
 2689POPC   C3B37197  34.038  43.235   8.033
 2689POPC   C4B37198  33.951  43.228   7.620
 2690POPC   NC337199  21.731  34.655   9.265
 2690POPC   PO437200  22.260  34.247   9.394
 2690POPC   GL137201  22.377  34.434   9.038
 2690POPC   GL237202  22.194  34.725   9.013
 2690POPC   C1A37203  22.324  34.436   8.587
 2690POPC   D2A37204  22.081  34.563   8.206
 2690POPC   C3A37205  22.242  34.661   7.811
 2690POPC   C4A37206  22.544  34.359   7.875
 2690POPC   C1B37207  21.936  34.802   8.651
 2690POPC   C2B37208  21.886  35.021   8.269
 2690POPC   C3B37209  21.747  34.866   7.899
 2690POPC   C4B37210  21.814  34.930   7.469
 2691POPC   NC337211  44.735   8.349   9.613
 2691POPC   PO437212  44.639   8.986   9.614
 2691POPC   GL137213  44.599   8.710   9.268
 2691POPC   GL237214  44.959   8.647   9.256
 2691POPC   C1A37215  44.421   8.780   8.858
 2691POPC   D2A37216  44.421   9.063   8.493
 2691POPC   C3A37217  44.534   8.772   8.171
 2691POPC   C4A37218  44.548   8.782   7.740
 2691POPC   C1B37219  44.944   8.964   8.902
 2691POPC   C2B37220  44.957   9.071   8.445
 2691POPC   C3B37221  44.843   9.163   7.997
 2691POPC   C4B37222  44.999   8.988   7.620
 2692POPC   NC337223   4.758  21.614   9.497
 2692POPC   PO437224   5.371  21.378   9.605
 2692POPC   GL137225   5.197  21.257   9.245
 2692POPC   GL237226   4.880  21.084   9.312
 2692POPC   C1A37227   5.280  21.497   8.859
 2692POPC   D2A37228   5.349  21.742   8.490
 2692POPC   C3A37229   5.242  21.560   8.106
 2692POPC   C4A37230   5.403  21.434   7.722
 2692POPC   C1B37231   4.984  21.089   8.831
 2692POPC   C2B37232   5.202  21.125   8.417
 2692POPC   C3B37233   5.044  21.098   7.960
 2692POPC   C4B37234   5.094  21.050   7.527
 2693POPC   NC337235  21.579  14.270   9.415
 2693POPC   PO437236  21.073  14.401   9.226
 2693POPC   GL137237  21.485  14.475   8.962
 2693POPC   GL237238  21.832  14.599   9.097
 2693POPC   C1A37239  21.800  14.268   8.685
 2693POPC   D2A37240  21.901  14.304   8.228
 2693POPC   C3A37241  21.475  14.362   7.980
 2693POPC   C4A37242  21.065  14.351   7.720
 2693POPC   C1B37243  21.817  14.772   8.673
 2693POPC   C2B37244  21.703  14.766   8.244
 2693POPC   C3B37245  21.854  14.655   7.829
 2693POPC   C4B37246  21.751  14.819   7.452
 2694POPC   NC337247  13.732  18.529   9.416
 2694POPC   PO437248  13.923  17.935   9.496
 2694POPC   GL137249  13.647  18.002   9.170
 2694POPC   GL237250  13.360  18.241   9.178
 2694POPC   C1A37251  13.721  18.075   8.755
 2694POPC   D2A37252  13.814  17.838   8.394
 2694POPC   C3A37253  13.936  18.075   8.052
 2694POPC   C4A37254  13.695  18.317   7.780
 2694POPC   C1B37255  13.242  18.248   8.734
 2694POPC   C2B37256  13.413  18.334   8.298
 2694POPC   C3B37257  13.213  18.393   7.879
 2694POPC   C4B37258  13.271  18.379   7.384
 2695POPC   NC337259   2.997  11.187   9.532
 2695POPC   PO437260   2.325  11.178   9.469
 2695POPC   GL137261   2.651  11.346   9.188
 2695POPC   GL237262   2.850  11.080   9.024
 2695POPC   C1A37263   2.815  11.546   8.820
 2695POPC   D2A37264   2.626  11.594   8.383
 2695POPC   C3A37265   2.734  11.319   8.033
 2695POPC   C4A37266   2.702  11.284   7.558
 2695POPC   C1B37267   2.669  11.114   8.585
 2695POPC   C2B37268   2.484  10.884   8.230
 2695POPC   C3B37269   2.324  11.078   7.837
 2695POPC   C4B37270   2.165  11.119   7.384
 2696POPC   NC337271   8.861  36.249   9.469
 2696POPC   PO437272   8.330  35.831   9.410
 2696POPC   GL137273   8.677  35.983   9.070
 2696POPC   GL237274   8.744  36.307   8.969
 2696POPC   C1A37275   9.086  35.928   8.777
 2696POPC   D2A37276   9.404  35.958   8.432
 2696POPC   C3A37277   9.286  36.104   7.999
 2696POPC   C4A37278   9.081  35.964   7.596
 2696POPC   C1B37279   8.766  36.259   8.531
 2696POPC   C2B37280   8.836  36.283   8.107
 2696POPC   C3B37281   8.614  36.094   7.769
 2696POPC   C4B37282   8.358  36.301   7.452
 2697POPC   NC337283  23.942  15.019   9.270
 2697POPC   PO437284  23.397  15.275   9.457
 2697POPC   GL137285  23.585  15.313   9.032
 2697POPC   GL237286  23.927  15.492   9.090
 2697POPC   C1A37287  23.698  15.000   8.681
 2697POPC   D2A37288  23.973  14.806   8.381
 2697POPC   C3A37289  23.882  14.881   7.968
 2697POPC   C4A37290  23.582  15.125   7.744
 2697POPC   C1B37291  24.031  15.378   8.700
 2697POPC   C2B37292  23.845  15.318   8.299
 2697POPC   C3B37293  24.019  15.391   7.912
 2697POPC   C4B37294  24.051  15.487   7.501
 2698POPC   NC337295  39.455  31.332   9.326
 2698POPC   PO437296  38.971  31.722   9.633
 2698POPC   GL137297  39.016  31.544   9.147
 2698POPC   GL237298  39.147  31.207   8.937
 2698POPC   C1A37299  38.890  31.554   8.702
 2698POPC   D2A37300  39.070  31.308   8.356
 2698POPC   C3A37301  38.997  31.483   7.948
 2698POPC   C4A37302  39.138  31.261   7.580
 2698POPC   C1B37303  39.428  31.500   8.667
 2698POPC   C2B37304  39.383  31.722   8.248
 2698POPC   C3B37305  39.495  31.573   7.832
 2698POPC   C4B37306  39.698  31.459   7.433
 2699POPC   NC337307  13.647  42.634   9.628
 2699POPC   PO437308  13.272  42.151   9.537
 2699POPC   GL137309  13.361  42.090   9.142
 2699POPC   GL237310  13.670  42.330   9.129
 2699POPC   C1A37311  13.274  42.242   8.771
 2699POPC   D2A37312  13.559  42.404   8.483
 2699POPC   C3A37313  13.443  42.313   8.098
 2699POPC   C4A37314  13.589  42.474   7.716
 2699POPC   C1B37315  13.863  42.660   8.887
 2699POPC   C2B37316  13.834  42.851   8.503
 2699POPC   C3B37317  13.818  42.698   8.103
 2699POPC   C4B37318  13.990  42.840   7.723
 2700POPC   NC337319  42.037  39.250   9.496
 2700POPC   PO437320  42.769  39.278   9.522
 2700POPC   GL137321  42.455  39.281   9.177
 2700POPC   GL237322  42.153  39.491   9.071
 2700POPC   C1A37323  42.368  39.137   8.776
 2700POPC   D2A37324  42.401  39.277   8.377
 2700POPC   C3A37325  42.145  39.055   8.114
 2700POPC   C4A37326  42.297  39.106   7.737
 2700POPC   C1B37327  41.936  39.475   8.667
 2700POPC   C2B37328  41.954  39.632   8.226
 2700POPC   C3B37329  41.944  39.473   7.809
 2700POPC   C4B37330  41.791  39.031   7.702
 2701POPC   NC337331  12.231  41.943   9.459
 2701POPC   PO437332  11.885  42.452   9.535
 2701POPC   GL137333  12.123  42.410   9.189
 2701POPC   GL237334  11.975  42.690   9.048
 2701POPC   C1A37335  12.145  42.264   8.753
 2701POPC   D2A37336  11.952  42.480   8.387
 2701POPC   C3A37337  12.024  42.338   7.965
 2701POPC   C4A37338  11.798  42.187   7.580
 2701POPC   C1B37339  12.367  42.709   8.798
 2701POPC   C2B37340  12.518  42.479   8.397
 2701POPC   C3B37341  12.541  42.566   7.924
 2701POPC   C4B37342  12.235  42.547   7.555
 2702POPC   NC337343  29.546  42.224   9.308
 2702POPC   PO437344  30.194  42.118   9.470
 2702POPC   GL137345  30.030  42.246   9.094
 2702POPC   GL237346  29.888  42.592   9.165
 2702POPC   C1A37347  30.077  42.064   8.697
 2702POPC   D2A37348  29.882  42.109   8.304
 2702POPC   C3A37349  30.134  42.026   7.916
 2702POPC   C4A37350  30.142  42.224   7.495
 2702POPC   C1B37351  29.819  42.542   8.709
 2702POPC   C2B37352  30.003  42.606   8.298
 2702POPC   C3B37353  29.878  42.483   7.895
 2702POPC   C4B37354  29.635  42.673   7.590
 2703POPC   NC337355  35.721  28.509   9.438
 2703POPC   PO437356  36.330  28.174   9.505
 2703POPC   GL137357  36.337  28.384   9.129
 2703POPC   GL237358  36.231  28.719   9.203
 2703POPC   C1A37359  36.286  28.239   8.703
 2703POPC   D2A37360  36.016  28.282   8.332
 2703POPC   C3A37361  36.299  28.344   7.981
 2703POPC   C4A37362  36.319  28.307   7.534
 2703POPC   C1B37363  35.984  28.654   8.785
 2703POPC   C2B37364  35.775  28.753   8.396
 2703POPC   C3B37365  35.911  28.665   7.992
 2703POPC   C4B37366  36.031  28.721   7.548
 2704POPC   NC337367  27.327   7.027   9.698
 2704POPC   PO437368  27.750   7.514   9.543
 2704POPC   GL137369  27.600   7.382   9.149
 2704POPC   GL237370  27.425   7.059   9.162
 2704POPC   C1A37371  27.739   7.600   8.773
 2704POPC   D2A37372  27.782   7.442   8.371
 2704POPC   C3A37373  27.704   7.651   8.007
 2704POPC   C4A37374  27.358   7.524   7.845
 2704POPC   C1B37375  27.384   7.204   8.691
 2704POPC   C2B37376  27.404   7.132   8.224
 2704POPC   C3B37377  27.634   7.107   7.808
 2704POPC   C4B37378  27.705   7.227   7.347
 2705POPC   NC337379  30.550   4.625   9.644
 2705POPC   PO437380  31.086   4.605   9.367
 2705POPC   GL137381  30.640   4.473   9.166
 2705POPC   GL237382  30.408   4.740   9.168
 2705POPC   C1A37383  30.250   4.360   8.869
 2705POPC   D2A37384  30.275   4.191   8.435
 2705POPC   C3A37385  30.404   4.257   8.003
 2705POPC   C4A37386  30.612   4.552   7.743
 2705POPC   C1B37387  30.601   4.686   8.701
 2705POPC   C2B37388  30.740   4.568   8.260
 2705POPC   C3B37389  31.079   4.582   7.922
 2705POPC   C4B37390  31.063   4.611   7.470
 2706POPC   NC337391  20.291  21.352   9.461
 2706POPC   PO437392  19.656  21.238   9.322
 2706POPC   GL137393  19.948  21.514   9.057
 2706POPC   GL237394  20.312  21.740   9.066
 2706POPC   C1A37395  19.764  21.447   8.639
 2706POPC   D2A37396  19.532  21.561   8.269
 2706POPC   C3A37397  19.564  21.266   7.934
 2706POPC   C4A37398  19.817  21.220   7.579
 2706POPC   C1B37399  20.267  21.616   8.658
 2706POPC   C2B37400  20.171  21.215   8.425
 2706POPC   C3B37401  20.082  21.242   8.022
 2706POPC   C4B37402  20.130  21.593   7.781
 2707POPC   NC337403   2.383  28.386   9.838
 2707POPC   PO437404   2.987  28.557   9.666
 2707POPC   GL137405   2.874  28.512   9.220
 2707POPC   GL237406   2.839  28.158   9.075
 2707POPC   C1A37407   2.660  28.530   8.791
 2707POPC   D2A37408   2.702  28.244   8.420
 2707POPC   C3A37409   2.778  28.362   7.978
 2707POPC   C4A37410   2.534  28.532   7.606
 2707POPC   C1B37411   2.414  28.067   8.820
 2707POPC   C2B37412   2.209  28.139   8.380
 2707POPC   C3B37413   2.304  28.142   7.915
 2707POPC   C4B37414   2.576  28.024   7.540
 2708POPC   NC337415  19.170  36.168   9.383
 2708POPC   PO437416  18.831  35.665   9.275
 2708POPC   GL137417  19.030  35.897   8.969
 2708POPC   GL237418  18.850  36.195   8.962
 2708POPC   C1A37419  18.982  35.979   8.547
 2708POPC   D2A37420  18.757  36.160   8.255
 2708POPC   C3A37421  19.096  36.161   8.018
 2708POPC   C4A37422  19.230  35.801   7.797
 2708POPC   C1B37423  19.185  36.414   8.696
 2708POPC   C2B37424  19.317  36.627   8.298
 2708POPC   C3B37425  19.148  36.651   7.876
 2708POPC   C4B37426  18.804  36.396   7.640
 2709POPC   NC337427  14.882  35.607   9.617
 2709POPC   PO437428  15.525  35.617   9.504
 2709POPC   GL137429  15.397  35.719   9.089
 2709POPC   GL237430  15.104  35.534   9.138
 2709POPC   C1A37431  15.306  35.642   8.631
 2709POPC   D2A37432  15.235  35.655   8.172
 2709POPC   C3A37433  14.887  35.491   7.968
 2709POPC   C4A37434  14.913  35.398   7.565
 2709POPC   C1B37435  14.908  35.357   8.764
 2709POPC   C2B37436  15.061  35.199   8.346
 2709POPC   C3B37437  14.998  35.002   7.913
 2709POPC   C4B37438  15.144  34.955   7.475
 2710POPC   NC337439  36.046  43.342   9.555
 2710POPC   PO437440  36.418  42.848   9.388
 2710POPC   GL137441  36.211  43.121   9.061
 2710POPC   GL237442  36.205  43.504   9.106
 2710POPC   C1A37443  36.212  42.950   8.600
 2710POPC   D2A37444  36.353  42.802   8.217
 2710POPC   C3A37445  36.290  43.035   7.855
 2710POPC   C4A37446  36.057  42.997   7.509
 2710POPC   C1B37447  36.249  43.442   8.664
 2710POPC   C2B37448  36.305  43.384   8.228
 2710POPC   C3B37449  36.284  43.625   7.841
 2710POPC   C4B37450  36.304  43.411   7.444
 2711POPC   NC337451  21.760  41.595   9.495
 2711POPC   PO437452  22.311  41.975   9.591
 2711POPC   GL137453  22.204  41.703   9.218
 2711POPC   GL237454  21.914  41.807   9.079
 2711POPC   C1A37455  22.097  41.438   8.814
 2711POPC   D2A37456  22.184  41.571   8.358
 2711POPC   C3A37457  21.994  41.295   8.014
 2711POPC   C4A37458  22.004  41.198   7.557
 2711POPC   C1B37459  22.172  41.955   8.770
 2711POPC   C2B37460  22.038  42.080   8.409
 2711POPC   C3B37461  22.220  42.115   8.037
 2711POPC   C4B37462  22.045  42.040   7.648
 2712POPC   NC337463  29.172  44.707   9.761
 2712POPC   PO437464  29.541  44.936   9.302
 2712POPC   GL137465  29.270  44.616   9.259
 2712POPC   GL237466  29.473  44.340   9.417
 2712POPC   C1A37467  28.979  44.664   8.897
 2712POPC   D2A37468  28.981  44.981   8.539
 2712POPC   C3A37469  29.225  44.898   8.154
 2712POPC   C4A37470  29.110  44.841   7.732
 2712POPC   C1B37471  29.503  44.322   8.928
 2712POPC   C2B37472  29.301  44.485   8.516
 2712POPC   C3B37473  29.059  44.401   8.134
 2712POPC   C4B37474  29.243  44.338   7.730
 2713POPC   NC337475  21.491  43.477   9.710
 2713POPC   PO437476  21.440  44.166   9.869
 2713POPC   GL137477  21.497  43.904   9.408
 2713POPC   GL237478  21.780  43.939   9.169
 2713POPC   C1A37479  21.390  43.811   8.903
 2713POPC   D2A37480  21.303  43.909   8.463
 2713POPC   C3A37481  21.360  43.660   8.085
 2713POPC   C4A37482  21.206  43.839   7.678
 2713POPC   C1B37483  21.767  44.103   8.719
 2713POPC   C2B37484  21.790  43.952   8.285
 2713POPC   C3B37485  21.591  44.093   7.889
 2713POPC   C4B37486  21.612  44.089   7.411
 2714POPC   NC337487  21.756  11.294   9.425
 2714POPC   PO437488  21.147  11.221   9.526
 2714POPC   GL137489  21.276  11.008   9.176
 2714POPC   GL237490  21.579  10.816   9.299
 2714POPC   C1A37491  21.354  11.305   8.822
 2714POPC   D2A37492  21.111  11.408   8.401
 2714POPC   C3A37493  21.286  11.473   7.944
 2714POPC   C4A37494  21.228  11.484   7.451
 2714POPC   C1B37495  21.642  10.869   8.841
 2714POPC   C2B37496  21.456  11.024   8.431
 2714POPC   C3B37497  21.241  10.967   8.071
 2714POPC   C4B37498  21.401  11.046   7.692
 2715POPC   NC337499  11.105  22.618   9.441
 2715POPC   PO437500  11.355  22.022   9.447
 2715POPC   GL137501  11.337  22.110   9.067
 2715POPC   GL237502  11.336  22.466   9.020
 2715POPC   C1A37503  11.322  21.865   8.703
 2715POPC   D2A37504  11.543  21.647   8.411
 2715POPC   C3A37505  11.516  21.779   8.011
 2715POPC   C4A37506  11.444  22.083   7.681
 2715POPC   C1B37507  11.446  22.343   8.624
 2715POPC   C2B37508  11.341  22.191   8.261
 2715POPC   C3B37509  11.358  22.496   7.975
 2715POPC   C4B37510  11.531  22.613   7.613
 2716POPC   NC337511  33.282   9.436   9.580
 2716POPC   PO437512  32.820   9.836   9.409
 2716POPC   GL137513  33.152   9.727   9.160
 2716POPC   GL237514  32.990   9.441   9.108
 2716POPC   C1A37515  33.261   9.645   8.729
 2716POPC   D2A37516  33.136   9.581   8.309
 2716POPC   C3A37517  33.245   9.845   7.973
 2716POPC   C4A37518  33.018  10.146   7.716
 2716POPC   C1B37519  32.736   9.541   8.729
 2716POPC   C2B37520  32.662   9.358   8.307
 2716POPC   C3B37521  32.828   9.522   7.897
 2716POPC   C4B37522  33.190   9.462   7.639
 2717POPC   NC337523  15.829   5.522   9.988
 2717POPC   PO437524  16.052   5.514   9.358
 2717POPC   GL137525  15.884   5.189   9.150
 2717POPC   GL237526  16.007   4.850   9.215
 2717POPC   C1A37527  15.980   5.085   8.732
 2717POPC   D2A37528  15.838   4.896   8.374
 2717POPC   C3A37529  15.957   5.081   7.997
 2717POPC   C4A37530  15.856   5.354   7.697
 2717POPC   C1B37531  16.284   4.673   8.870
 2717POPC   C2B37532  16.361   4.576   8.444
 2717POPC   C3B37533  16.215   4.617   8.030
 2717POPC   C4B37534  16.210   4.804   7.626
 2718POPC   NC337535  40.063  32.473   9.803
 2718POPC   PO437536  39.847  33.122   9.525
 2718POPC   GL137537  39.933  33.023   9.131
 2718POPC   GL237538  40.241  33.201   9.042
 2718POPC   C1A37539  39.811  33.103   8.718
 2718POPC   D2A37540  39.878  33.366   8.353
 2718POPC   C3A37541  40.013  33.133   7.979
 2718POPC   C4A37542  39.919  32.794   7.705
 2718POPC   C1B37543  40.232  32.814   8.790
 2718POPC   C2B37544  40.074  32.800   8.393
 2718POPC   C3B37545  40.213  32.579   8.055
 2718POPC   C4B37546  40.297  32.395   7.676
 2719POPC   NC337547  36.278   5.630   9.602
 2719POPC   PO437548  36.006   6.150   9.559
 2719POPC   GL137549  36.295   5.982   9.226
 2719POPC   GL237550  36.060   5.841   9.020
 2719POPC   C1A37551  36.452   6.107   8.810
 2719POPC   D2A37552  36.253   5.972   8.421
 2719POPC   C3A37553  36.360   5.988   7.978
 2719POPC   C4A37554  36.511   5.888   7.575
 2719POPC   C1B37555  35.809   6.046   8.682
 2719POPC   C2B37556  35.852   6.253   8.243
 2719POPC   C3B37557  35.849   6.073   7.805
 2719POPC   C4B37558  35.586   6.020   7.421
 2720POPC   NC337559  28.286   1.574   9.855
 2720POPC   PO437560  28.372   2.157   9.628
 2720POPC   GL137561  28.451   2.067   9.191
 2720POPC   GL237562  28.367   2.386   9.146
 2720POPC   C1A37563  28.492   1.832   8.776
 2720POPC   D2A37564  28.328   1.874   8.356
 2720POPC   C3A37565  28.574   1.871   7.977
 2720POPC   C4A37566  28.403   1.945   7.552
 2720POPC   C1B37567  28.241   2.276   8.719
 2720POPC   C2B37568  28.210   2.403   8.283
 2720POPC   C3B37569  28.347   2.331   7.879
 2720POPC   C4B37570  28.305   2.417   7.395
 2721POPC   NC337571  32.321  44.834   9.423
 2721POPC   PO437572  31.868  44.277   9.494
 2721POPC   GL137573  31.999  44.538   9.139
 2721POPC   GL237574  32.380  44.457   9.068
 2721POPC   C1A37575  31.875  44.687   8.718
 2721POPC   D2A37576  32.116  44.408   8.404
 2721POPC   C3A37577  32.256  44.425   7.938
 2721POPC   C4A37578  32.050  44.604   7.571
 2721POPC   C1B37579  32.365  44.782   8.740
 2721POPC   C2B37580  32.165  44.908   8.321
 2721POPC   C3B37581  32.342  44.917   7.892
 2721POPC   C4B37582  32.302   0.061   7.463
 2722POPC   NC337583  39.214  24.073   9.615
 2722POPC   PO437584  39.076  24.759   9.623
 2722POPC   GL137585  39.286  24.614   9.234
 2722POPC   GL237586  39.123  24.308   9.172
 2722POPC   C1A37587  39.359  24.662   8.775
 2722POPC   D2A37588  39.088  24.481   8.429
 2722POPC   C3A37589  38.976  24.571   7.973
 2722POPC   C4A37590  39.128  24.343   7.581
 2722POPC   C1B37591  39.351  24.154   8.839
 2722POPC   C2B37592  39.564  24.315   8.468
 2722POPC   C3B37593  39.437  24.318   8.043
 2722POPC   C4B37594  39.477  23.994   7.692
 2723POPC   NC337595   5.194  39.026  10.054
 2723POPC   PO437596   4.750  39.021   9.602
 2723POPC   GL137597   4.801  38.930   9.157
 2723POPC   GL237598   4.494  38.977   9.022
 2723POPC   C1A37599   4.877  38.923   8.684
 2723POPC   D2A37600   4.759  39.093   8.251
 2723POPC   C3A37601   5.067  39.092   7.871
 2723POPC   C4A37602   5.077  38.950   7.443
 2723POPC   C1B37603   4.560  39.318   8.684
 2723POPC   C2B37604   4.643  39.597   8.310
 2723POPC   C3B37605   4.721  39.466   7.886
 2723POPC   C4B37606   4.945  39.458   7.481
 2724POPC   NC337607  28.301   5.740   9.607
 2724POPC   PO437608  28.560   6.347   9.627
 2724POPC   GL137609  28.558   5.997   9.229
 2724POPC   GL237610  28.187   5.849   9.132
 2724POPC   C1A37611  28.504   5.760   8.777
 2724POPC   D2A37612  28.442   5.912   8.357
 2724POPC   C3A37613  28.578   5.749   7.961
 2724POPC   C4A37614  28.457   6.013   7.615
 2724POPC   C1B37615  27.967   5.757   8.726
 2724POPC   C2B37616  27.984   5.699   8.283
 2724POPC   C3B37617  28.066   5.757   7.850
 2724POPC   C4B37618  28.037   5.783   7.402
 2725POPC   NC337619  39.161  22.827   9.575
 2725POPC   PO437620  38.925  23.186   9.081
 2725POPC   GL137621  39.279  22.903   9.084
 2725POPC   GL237622  39.123  22.586   9.125
 2725POPC   C1A37623  39.501  22.871   8.727
 2725POPC   D2A37624  39.403  22.868   8.290
 2725POPC   C3A37625  38.993  22.985   8.155
 2725POPC   C4A37626  38.994  23.212   7.775
 2725POPC   C1B37627  39.277  22.406   8.736
 2725POPC   C2B37628  39.198  22.401   8.288
 2725POPC   C3B37629  39.185  22.587   7.865
 2725POPC   C4B37630  39.472  22.591   7.466
 2726POPC   NC337631  42.005   7.679   9.501
 2726POPC   PO437632  42.599   7.423   9.611
 2726POPC   GL137633  42.381   7.416   9.187
 2726POPC   GL237634  42.026   7.346   9.126
 2726POPC   C1A37635  42.595   7.452   8.763
 2726POPC   D2A37636  42.704   7.491   8.324
 2726POPC   C3A37637  42.454   7.456   7.968
 2726POPC   C4A37638  42.559   7.228   7.567
 2726POPC   C1B37639  42.121   7.659   8.803
 2726POPC   C2B37640  42.228   7.801   8.371
 2726POPC   C3B37641  41.959   7.718   8.027
 2726POPC   C4B37642  42.034   7.450   7.695
 2727POPC   NC337643  14.674  10.685   9.661
 2727POPC   PO437644  14.500  11.422   9.514
 2727POPC   GL137645  14.458  11.364   9.099
 2727POPC   GL237646  14.152  11.269   9.045
 2727POPC   C1A37647  14.547  11.227   8.686
 2727POPC   D2A37648  14.401  11.047   8.324
 2727POPC   C3A37649  14.413  11.310   7.943
 2727POPC   C4A37650  14.727  11.604   7.756
 2727POPC   C1B37651  13.960  11.322   8.677
 2727POPC   C2B37652  13.974  11.407   8.251
 2727POPC   C3B37653  13.879  11.443   7.832
 2727POPC   C4B37654  14.206  11.740   7.743
 2728POPC   NC337655  18.754  25.244   9.676
 2728POPC   PO437656  18.026  25.134   9.506
 2728POPC   GL137657  18.045  24.979   9.091
 2728POPC   GL237658  18.421  25.055   9.052
 2728POPC   C1A37659  18.049  25.113   8.668
 2728POPC   D2A37660  18.248  25.422   8.427
 2728POPC   C3A37661  18.262  25.235   8.034
 2728POPC   C4A37662  18.277  25.400   7.623
 2728POPC   C1B37663  18.557  25.002   8.641
 2728POPC   C2B37664  18.734  25.288   8.314
 2728POPC   C3B37665  18.742  25.397   7.928
 2728POPC   C4B37666  18.629  25.071   7.729
 2729POPC   NC337667  21.532   2.051   9.557
 2729POPC   PO437668  20.941   1.929   9.479
 2729POPC   GL137669  21.247   1.836   9.144
 2729POPC   GL237670  21.628   1.802   9.108
 2729POPC   C1A37671  21.278   1.901   8.700
 2729POPC   D2A37672  21.168   1.719   8.301
 2729POPC   C3A37673  21.123   1.936   7.920
 2729POPC   C4A37674  21.390   2.211   7.682
 2729POPC   C1B37675  21.852   1.579   8.780
 2729POPC   C2B37676  21.657   1.669   8.406
 2729POPC   C3B37677  21.625   1.820   7.967
 2729POPC   C4B37678  21.687   1.725   7.534
 2730POPC   NC337679  23.918  21.856   9.576
 2730POPC   PO437680  23.510  22.387   9.678
 2730POPC   GL137681  23.713  22.375   9.254
 2730POPC   GL237682  23.797  22.040   9.117
 2730POPC   C1A37683  23.830  22.458   8.808
 2730POPC   D2A37684  24.022  22.397   8.404
 2730POPC   C3A37685  23.802  22.376   8.042
 2730POPC   C4A37686  23.811  22.502   7.631
 2730POPC   C1B37687  24.046  22.004   8.740
 2730POPC   C2B37688  23.956  21.884   8.310
 2730POPC   C3B37689  24.123  21.998   7.906
 2730POPC   C4B37690  24.032  22.088   7.460
 2731POPC   NC337691  37.747   5.460   9.668
 2731POPC   PO437692  37.285   5.125   9.434
 2731POPC   GL137693  37.710   5.101   9.184
 2731POPC   GL237694  38.042   4.822   9.116
 2731POPC   C1A37695  37.887   5.353   8.826
 2731POPC   D2A37696  37.820   5.528   8.404
 2731POPC   C3A37697  37.808   5.305   8.023
 2731POPC   C4A37698  37.668   5.317   7.610
 2731POPC   C1B37699  37.906   4.854   8.766
 2731POPC   C2B37700  37.922   5.003   8.416
 2731POPC   C3B37701  38.117   4.896   8.074
 2731POPC   C4B37702  37.909   4.858   7.694
 2732POPC   NC337703  11.896  41.394  10.191
 2732POPC   PO437704  11.836  41.755   9.627
 2732POPC   GL137705  11.988  41.503   9.269
 2732POPC   GL237706  12.217  41.676   9.037
 2732POPC   C1A37707  11.941  41.280   8.864
 2732POPC   D2A37708  12.004  41.469   8.447
 2732POPC   C3A37709  11.893  41.369   8.026
 2732POPC   C4A37710  11.973  41.356   7.572
 2732POPC   C1B37711  12.345  41.814   8.623
 2732POPC   C2B37712  12.074  41.944   8.280
 2732POPC   C3B37713  12.124  41.842   7.826
 2732POPC   C4B37714  12.558  41.918   7.720
 2733POPC   NC337715  43.330   2.420   9.508
 2733POPC   PO437716  42.807   2.142   9.628
 2733POPC   GL137717  42.879   1.979   9.120
 2733POPC   GL237718  43.187   2.173   9.107
 2733POPC   C1A37719  43.180   1.795   8.787
 2733POPC   D2A37720  43.403   2.012   8.452
 2733POPC   C3A37721  43.293   1.951   8.018
 2733POPC   C4A37722  43.422   2.176   7.653
 2733POPC   C1B37723  43.014   2.285   8.730
 2733POPC   C2B37724  42.782   2.328   8.402
 2733POPC   C3B37725  42.917   2.368   8.022
 2733POPC   C4B37726  42.688   2.488   7.654
 2734POPC   NC337727  35.338  17.565   9.672
 2734POPC   PO437728  34.856  17.480   9.180
 2734POPC   GL137729  35.303  17.606   9.147
 2734POPC   GL237730  35.458  17.320   9.210
 2734POPC   C1A37731  35.481  17.682   8.750
 2734POPC   D2A37732  35.247  17.621   8.386
 2734POPC   C3A37733  35.375  17.656   7.975
 2734POPC   C4A37734  35.130  17.403   7.731
 2734POPC   C1B37735  35.371  17.192   8.766
 2734POPC   C2B37736  35.632  17.264   8.405
 2734POPC   C3B37737  35.553  17.182   7.976
 2734POPC   C4B37738  35.440  17.033   7.566
 2735POPC   NC337739   0.895   5.370   9.557
 2735POPC   PO437740   0.330   5.198   9.741
 2735POPC   GL137741   0.356   5.302   9.311
 2735POPC   GL237742   0.508   4.987   9.239
 2735POPC   C1A37743   0.257   5.209   8.864
 2735POPC   D2A37744   0.388   5.142   8.455
 2735POPC   C3A37745   0.173   4.910   8.151
 2735POPC   C4A37746   0.206   4.976   7.722
 2735POPC   C1B37747   0.653   4.864   8.820
 2735POPC   C2B37748   0.623   4.688   8.387
 2735POPC   C3B37749   0.665   4.853   7.956
 2735POPC   C4B37750   0.677   4.874   7.500
 2736POPC   NC337751  36.337  13.651   9.556
 2736POPC   PO437752  35.767  13.288   9.404
 2736POPC   GL137753  36.025  13.575   9.164
 2736POPC   GL237754  36.389  13.575   9.050
 2736POPC   C1A37755  35.979  13.746   8.795
 2736POPC   D2A37756  35.885  13.596   8.429
 2736POPC   C3A37757  35.931  13.939   8.177
 2736POPC   C4A37758  36.007  13.833   7.773
 2736POPC   C1B37759  36.400  13.530   8.592
 2736POPC   C2B37760  36.307  13.555   8.140
 2736POPC   C3B37761  36.327  13.454   7.711
 2736POPC   C4B37762  36.511  13.465   7.305
 2737POPC   NC337763  16.541  10.908   9.595
 2737POPC   PO437764  16.554  11.525   9.563
 2737POPC   GL137765  16.790  11.300   9.236
 2737POPC   GL237766  16.936  10.951   9.278
 2737POPC   C1A37767  16.918  11.258   8.798
 2737POPC   D2A37768  17.144  11.084   8.464
 2737POPC   C3A37769  16.990  11.080   8.056
 2737POPC   C4A37770  16.833  11.341   7.717
 2737POPC   C1B37771  16.632  10.876   8.948
 2737POPC   C2B37772  16.669  10.891   8.489
 2737POPC   C3B37773  16.491  11.015   8.097
 2737POPC   C4B37774  16.663  10.876   7.708
 2738POPC   NC337775   4.403  20.237   9.416
 2738POPC   PO437776   4.457  19.662   9.329
 2738POPC   GL137777   4.196  19.903   9.080
 2738POPC   GL237778   4.008  19.603   9.079
 2738POPC   C1A37779   4.263  20.079   8.657
 2738POPC   D2A37780   4.289  19.931   8.220
 2738POPC   C3A37781   4.657  19.932   7.977
 2738POPC   C4A37782   4.739  20.083   7.583
 2738POPC   C1B37783   4.258  19.586   8.694
 2738POPC   C2B37784   4.530  19.524   8.398
 2738POPC   C3B37785   4.460  19.457   7.981
 2738POPC   C4B37786   4.253  19.748   7.703
 2739POPC   NC337787  14.178  44.833   9.575
 2739POPC   PO437788  13.504  44.632   9.491
 2739POPC   GL137789  13.765  44.604   9.157
 2739POPC   GL237790  13.485  44.692   8.964
 2739POPC   C1A37791  13.913  44.872   8.787
 2739POPC   D2A37792  13.776  44.867   8.364
 2739POPC   C3A37793  14.045  44.909   8.034
 2739POPC   C4A37794  13.916  44.690   7.684
 2739POPC   C1B37795  13.321  44.885   8.605
 2739POPC   C2B37796  13.267  44.858   8.155
 2739POPC   C3B37797  13.380  44.795   7.712
 2739POPC   C4B37798  13.227  44.761   7.260
 2740POPC   NC337799   1.354  26.166   9.524
 2740POPC   PO437800   0.838  26.574   9.428
 2740POPC   GL137801   0.848  26.718   8.988
 2740POPC   GL237802   1.183  26.813   8.920
 2740POPC   C1A37803   0.856  26.945   8.546
 2740POPC   D2A37804   1.158  26.986   8.200
 2740POPC   C3A37805   1.201  26.742   7.838
 2740POPC   C4A37806   0.884  26.571   7.585
 2740POPC   C1B37807   1.354  27.164   8.648
 2740POPC   C2B37808   1.522  27.359   8.244
 2740POPC   C3B37809   1.429  27.218   7.815
 2740POPC   C4B37810   1.555  26.911   7.471
 2741POPC   NC337811  28.100  42.556   9.519
 2741POPC   PO437812  28.496  41.949   9.569
 2741POPC   GL137813  28.429  42.240   9.195
 2741POPC   GL237814  28.128  42.236   9.101
 2741POPC   C1A37815  28.483  42.281   8.721
 2741POPC   D2A37816  28.564  42.464   8.301
 2741POPC   C3A37817  28.335  42.382   7.969
 2741POPC   C4A37818  28.239  42.564   7.605
 2741POPC   C1B37819  27.933  42.266   8.725
 2741POPC   C2B37820  28.067  42.165   8.321
 2741POPC   C3B37821  28.005  42.006   7.868
 2741POPC   C4B37822  28.087  42.134   7.408
 2742POPC   NC337823  17.177  27.874   9.578
 2742POPC   PO437824  17.565  28.488   9.607
 2742POPC   GL137825  17.573  28.351   9.187
 2742POPC   GL237826  17.313  28.119   9.150
 2742POPC   C1A37827  17.362  28.492   8.803
 2742POPC   D2A37828  17.159  28.487   8.413
 2742POPC   C3A37829  17.417  28.557   8.053
 2742POPC   C4A37830  17.644  28.558   7.701
 2742POPC   C1B37831  17.148  28.043   8.755
 2742POPC   C2B37832  17.346  28.000   8.396
 2742POPC   C3B37833  17.224  28.107   8.028
 2742POPC   C4B37834  17.486  28.079   7.696
 2743POPC   NC337835  15.329  15.813   9.476
 2743POPC   PO437836  14.661  15.957   9.517
 2743POPC   GL137837  14.911  15.722   9.175
 2743POPC   GL237838  14.974  16.078   9.107
 2743POPC   C1A37839  15.215  15.793   8.779
 2743POPC   D2A37840  15.359  16.011   8.381
 2743POPC   C3A37841  15.200  15.898   7.972
 2743POPC   C4A37842  15.021  15.751   7.590
 2743POPC   C1B37843  15.084  16.297   8.723
 2743POPC   C2B37844  15.065  16.493   8.311
 2743POPC   C3B37845  15.032  16.398   7.864
 2743POPC   C4B37846  15.155  16.217   7.457
 2744POPC   NC337847   6.992  36.092   9.698
 2744POPC   PO437848   6.353  35.999   9.535
 2744POPC   GL137849   6.588  35.841   9.156
 2744POPC   GL237850   6.935  35.940   9.073
 2744POPC   C1A37851   6.460  35.911   8.729
 2744POPC   D2A37852   6.662  36.132   8.398
 2744POPC   C3A37853   6.450  36.124   8.004
 2744POPC   C4A37854   6.674  36.363   7.668
 2744POPC   C1B37855   6.916  35.701   8.649
 2744POPC   C2B37856   6.702  35.664   8.217
 2744POPC   C3B37857   6.858  35.896   7.831
 2744POPC   C4B37858   6.826  35.937   7.371
 2745POPC   NC337859  35.666  26.956   9.510
 2745POPC   PO437860  36.301  26.667   9.655
 2745POPC   GL137861  36.373  26.616   9.198
 2745POPC   GL237862  36.145  26.900   9.110
 2745POPC   C1A37863  36.266  26.567   8.731
 2745POPC   D2A37864  36.254  26.922   8.425
 2745POPC   C3A37865  36.078  26.956   8.010
 2745POPC   C4A37866  36.197  26.962   7.574
 2745POPC   C1B37867  35.906  27.081   8.765
 2745POPC   C2B37868  35.710  26.998   8.381
 2745POPC   C3B37869  35.458  27.018   8.034
 2745POPC   C4B37870  35.694  27.089   7.698
 2746POPC   NC337871   3.039  36.918   9.681
 2746POPC   PO437872   2.400  37.074   9.857
 2746POPC   GL137873   2.611  37.029   9.383
 2746POPC   GL237874   2.999  37.043   9.220
 2746POPC   C1A37875   2.628  36.797   8.976
 2746POPC   D2A37876   2.607  36.794   8.510
 2746POPC   C3A37877   2.693  36.949   8.103
 2746POPC   C4A37878   2.832  36.888   7.688
 2746POPC   C1B37879   3.127  36.876   8.817
 2746POPC   C2B37880   3.072  37.048   8.446
 2746POPC   C3B37881   3.187  36.998   8.045
 2746POPC   C4B37882   3.249  37.242   7.692
 2747POPC   NC337883  38.195  35.453   9.419
 2747POPC   PO437884  38.828  35.626   9.434
 2747POPC   GL137885  38.638  35.344   9.103
 2747POPC   GL237886  38.305  35.135   9.064
 2747POPC   C1A37887  38.560  35.505   8.691
 2747POPC   D2A37888  38.707  35.755   8.344
 2747POPC   C3A37889  38.619  35.535   7.950
 2747POPC   C4A37890  38.444  35.167   7.711
 2747POPC   C1B37891  38.074  35.363   8.764
 2747POPC   C2B37892  37.980  35.444   8.362
 2747POPC   C3B37893  38.103  35.466   7.939
 2747POPC   C4B37894  37.970  35.283   7.545
 2748POPC   NC337895  37.028  14.270   9.929
 2748POPC   PO437896  36.700  14.673   9.506
 2748POPC   GL137897  36.762  14.323   9.237
 2748POPC   GL237898  37.079  14.303   9.095
 2748POPC   C1A37899  36.673  14.212   8.790
 2748POPC   D2A37900  36.630  14.454   8.393
 2748POPC   C3A37901  36.810  14.292   8.015
 2748POPC   C4A37902  36.615  14.444   7.624
 2748POPC   C1B37903  37.077  14.515   8.675
 2748POPC   C2B37904  37.120  14.667   8.231
 2748POPC   C3B37905  37.068  14.653   7.778
 2748POPC   C4B37906  37.213  14.908   7.449
 2749POPC   NC337907  18.942   5.553   9.644
 2749POPC   PO437908  19.410   5.960   9.760
 2749POPC   GL137909  19.233   5.808   9.296
 2749POPC   GL237910  18.851   5.825   9.191
 2749POPC   C1A37911  19.192   5.812   8.791
 2749POPC   D2A37912  19.023   5.936   8.344
 2749POPC   C3A37913  19.139   5.810   7.882
 2749POPC   C4A37914  18.975   6.032   7.479
 2749POPC   C1B37915  18.636   6.033   8.798
 2749POPC   C2B37916  18.488   6.174   8.351
 2749POPC   C3B37917  18.703   6.092   7.927
 2749POPC   C4B37918  18.661   5.680   7.688
 2750POPC   NC337919  13.414  19.421   9.098
 2750POPC   PO437920  13.315  18.798   9.434
 2750POPC   GL137921  13.449  18.767   9.058
 2750POPC   GL237922  13.773  18.963   9.074
 2750POPC   C1A37923  13.603  18.632   8.682
 2750POPC   D2A37924  13.810  18.894   8.382
 2750POPC   C3A37925  13.774  18.806   7.940
 2750POPC   C4A37926  13.443  18.787   7.614
 2750POPC   C1B37927  14.036  19.287   8.830
 2750POPC   C2B37928  14.052  19.511   8.444
 2750POPC   C3B37929  13.902  19.325   8.097
 2750POPC   C4B37930  13.593  19.258   7.786
 2751POPC   NC337931  29.682  32.412   9.562
 2751POPC   PO437932  30.263  32.295   9.629
 2751POPC   GL137933  30.082  32.119   9.250
 2751POPC   GL237934  29.735  32.069   9.164
 2751POPC   C1A37935  30.075  31.965   8.810
 2751POPC   D2A37936  29.852  31.939   8.428
 2751POPC   C3A37937  30.081  32.185   8.116
 2751POPC   C4A37938  30.251  32.361   7.724
 2751POPC   C1B37939  29.632  32.267   8.767
 2751POPC   C2B37940  29.731  32.470   8.390
 2751POPC   C3B37941  29.606  32.288   7.991
 2751POPC   C4B37942  29.549  32.416   7.593
 2752POPC   NC337943  26.584  18.563   9.479
 2752POPC   PO437944  26.985  18.043   9.712
 2752POPC   GL137945  26.947  18.192   9.257
 2752POPC   GL237946  26.625  18.258   9.072
 2752POPC   C1A37947  27.185  18.324   8.855
 2752POPC   D2A37948  27.094  18.296   8.394
 2752POPC   C3A37949  27.179  18.566   8.025
 2752POPC   C4A37950  27.160  18.349   7.621
 2752POPC   C1B37951  26.334  18.496   8.781
 2752POPC   C2B37952  26.434  18.596   8.327
 2752POPC   C3B37953  26.712  18.360   8.028
 2752POPC   C4B37954  26.661  17.973   7.808
 2753POPC   NC337955  29.503  24.472   9.323
 2753POPC   PO437956  30.068  24.385   9.674
 2753POPC   GL137957  30.178  24.604   9.197
 2753POPC   GL237958  29.904  24.713   9.035
 2753POPC   C1A37959  30.190  24.414   8.711
 2753POPC   D2A37960  29.938  24.437   8.320
 2753POPC   C3A37961  29.966  24.226   7.925
 2753POPC   C4A37962  29.601  24.022   7.815
 2753POPC   C1B37963  29.640  24.672   8.666
 2753POPC   C2B37964  29.468  24.843   8.297
 2753POPC   C3B37965  29.639  24.646   7.945
 2753POPC   C4B37966  29.582  24.485   7.551
 2754POPC   NC337967  26.284  34.083   9.573
 2754POPC   PO437968  26.041  33.519   9.669
 2754POPC   GL137969  26.124  33.682   9.223
 2754POPC   GL237970  25.919  33.980   9.147
 2754POPC   C1A37971  26.039  33.618   8.747
 2754POPC   D2A37972  26.136  33.496   8.300
 2754POPC   C3A37973  26.039  33.679   7.899
 2754POPC   C4A37974  25.898  33.468   7.522
 2754POPC   C1B37975  26.245  34.048   8.888
 2754POPC   C2B37976  26.210  34.060   8.450
 2754POPC   C3B37977  26.341  34.062   8.032
 2754POPC   C4B37978  26.130  34.102   7.621
 2755POPC   NC337979   0.907  42.079   9.405
 2755POPC   PO437980   1.509  42.466   9.492
 2755POPC   GL137981   1.291  42.313   9.123
 2755POPC   GL237982   0.975  42.451   9.048
 2755POPC   C1A37983   1.327  42.031   8.750
 2755POPC   D2A37984   1.189  41.991   8.316
 2755POPC   C3A37985   1.459  42.063   7.975
 2755POPC   C4A37986   1.451  42.284   7.629
 2755POPC   C1B37987   1.049  42.416   8.568
 2755POPC   C2B37988   1.081  42.449   8.101
 2755POPC   C3B37989   1.032  42.551   7.660
 2755POPC   C4B37990   0.773  42.491   7.293
 2756POPC   NC337991  43.003   7.630   9.465
 2756POPC   PO437992  43.335   7.025   9.320
 2756POPC   GL137993  43.134   7.240   9.032
 2756POPC   GL237994  42.845   7.227   9.168
 2756POPC   C1A37995  43.067   7.251   8.601
 2756POPC   D2A37996  43.179   7.226   8.186
 2756POPC   C3A37997  43.038   7.569   7.912
 2756POPC   C4A37998  42.753   7.723   7.596
 2756POPC   C1B37999  42.745   6.938   8.833
 2756POPC   C2B38000  42.614   6.960   8.429
 2756POPC   C3B38001  42.700   7.012   8.020
 2756POPC   C4B38002  43.022   7.068   7.730
 2757POPC   NC338003   5.155   6.828   9.561
 2757POPC   PO438004   4.579   6.956   9.366
 2757POPC   GL138005   4.917   6.690   9.113
 2757POPC   GL238006   5.329   6.627   9.128
 2757POPC   C1A38007   5.091   6.665   8.679
 2757POPC   D2A38008   5.231   6.701   8.250
 2757POPC   C3A38009   4.897   6.558   7.974
 2757POPC   C4A38010   4.855   6.516   7.540
 2757POPC   C1B38011   5.487   6.360   8.770
 2757POPC   C2B38012   5.433   6.232   8.315
 2757POPC   C3B38013   5.359   6.367   7.865
 2757POPC   C4B38014   5.327   6.543   7.382
 2758POPC   NC338015  24.025  20.260   9.397
 2758POPC   PO438016  23.586  19.722   9.543
 2758POPC   GL138017  23.740  19.892   9.175
 2758POPC   GL238018  24.080  19.743   9.243
 2758POPC   C1A38019  23.622  19.850   8.750
 2758POPC   D2A38020  23.658  19.532   8.410
 2758POPC   C3A38021  23.448  19.607   8.018
 2758POPC   C4A38022  23.531  19.853   7.661
 2758POPC   C1B38023  24.094  19.665   8.791
 2758POPC   C2B38024  24.012  19.912   8.415
 2758POPC   C3B38025  23.937  19.753   8.024
 2758POPC   C4B38026  24.189  19.527   7.758
 2759POPC   NC338027  16.103   7.916   9.406
 2759POPC   PO438028  15.603   8.460   9.497
 2759POPC   GL138029  15.785   8.249   9.149
 2759POPC   GL238030  16.146   8.360   9.142
 2759POPC   C1A38031  15.926   8.025   8.769
 2759POPC   D2A38032  16.189   8.031   8.391
 2759POPC   C3A38033  15.914   8.187   8.075
 2759POPC   C4A38034  15.932   8.093   7.652
 2759POPC   C1B38035  16.355   8.401   8.740
 2759POPC   C2B38036  16.346   8.551   8.282
 2759POPC   C3B38037  16.289   8.430   7.830
 2759POPC   C4B38038  16.289   8.273   7.367
 2760POPC   NC338039  26.643   6.023   9.488
 2760POPC   PO438040  27.211   5.712   9.678
 2760POPC   GL138041  27.059   5.779   9.243
 2760POPC   GL238042  27.226   6.066   9.103
 2760POPC   C1A38043  26.886   5.873   8.807
 2760POPC   D2A38044  26.791   5.966   8.383
 2760POPC   C3A38045  26.886   5.890   7.975
 2760POPC   C4A38046  26.735   5.712   7.630
 2760POPC   C1B38047  27.229   6.252   8.698
 2760POPC   C2B38048  27.163   6.295   8.267
 2760POPC   C3B38049  27.247   6.222   7.842
 2760POPC   C4B38050  27.218   5.889   7.571
 2761POPC   NC338051   7.596  31.908   9.245
 2761POPC   PO438052   7.766  32.439   9.486
 2761POPC   GL138053   7.533  32.384   9.054
 2761POPC   GL238054   7.315  32.090   8.882
 2761POPC   C1A38055   7.551  32.445   8.600
 2761POPC   D2A38056   7.584  32.464   8.142
 2761POPC   C3A38057   7.596  32.050   7.979
 2761POPC   C4A38058   7.440  31.903   7.574
 2761POPC   C1B38059   7.078  32.459   8.808
 2761POPC   C2B38060   6.889  32.585   8.446
 2761POPC   C3B38061   6.941  32.373   8.052
 2761POPC   C4B38062   7.270  32.374   7.734
 2762POPC   NC338063  23.408   3.038   9.914
 2762POPC   PO438064  23.788   2.564   9.567
 2762POPC   GL138065  23.828   2.726   9.159
 2762POPC   GL238066  24.104   2.923   9.052
 2762POPC   C1A38067  23.606   2.660   8.786
 2762POPC   D2A38068  23.459   2.445   8.428
 2762POPC   C3A38069  23.760   2.393   8.107
 2762POPC   C4A38070  23.627   2.400   7.724
 2762POPC   C1B38071  24.098   2.720   8.660
 2762POPC   C2B38072  23.906   2.850   8.259
 2762POPC   C3B38073  23.828   2.874   7.760
 2762POPC   C4B38074  23.901   3.042   7.297
 2763POPC   NC338075  31.095   8.590   9.781
 2763POPC   PO438076  31.464   8.177   9.276
 2763POPC   GL138077  31.316   8.114   8.965
 2763POPC   GL238078  31.045   7.965   9.101
 2763POPC   C1A38079  31.490   7.928   8.623
 2763POPC   D2A38080  31.810   7.984   8.353
 2763POPC   C3A38081  31.623   8.216   8.076
 2763POPC   C4A38082  31.592   8.102   7.673
 2763POPC   C1B38083  30.959   7.901   8.680
 2763POPC   C2B38084  31.107   7.887   8.278
 2763POPC   C3B38085  31.124   8.154   7.931
 2763POPC   C4B38086  31.278   8.491   7.774
 2764POPC   NC338087  32.641  42.610   9.480
 2764POPC   PO438088  33.154  42.200   9.661
 2764POPC   GL138089  33.159  42.253   9.223
 2764POPC   GL238090  32.893  42.025   9.167
 2764POPC   C1A38091  33.002  42.419   8.823
 2764POPC   D2A38092  33.120  42.428   8.398
 2764POPC   C3A38093  32.915  42.429   7.978
 2764POPC   C4A38094  33.075  42.288   7.587
 2764POPC   C1B38095  32.749  41.979   8.743
 2764POPC   C2B38096  32.723  42.094   8.297
 2764POPC   C3B38097  32.723  41.972   7.845
 2764POPC   C4B38098  32.791  41.901   7.382
 2765POPC   NC338099  19.255  39.928   9.402
 2765POPC   PO438100  18.800  40.457   9.257
 2765POPC   GL138101  18.983  40.121   9.023
 2765POPC   GL238102  18.800  39.832   9.016
 2765POPC   C1A38103  19.043  39.979   8.605
 2765POPC   D2A38104  18.743  39.849   8.295
 2765POPC   C3A38105  18.845  39.932   7.893
 2765POPC   C4A38106  19.243  40.048   7.854
 2765POPC   C1B38107  18.888  39.508   8.658
 2765POPC   C2B38108  19.252  39.589   8.368
 2765POPC   C3B38109  19.295  39.550   7.942
 2765POPC   C4B38110  19.055  39.543   7.587
 2766POPC   NC338111  41.776  28.527   9.630
 2766POPC   PO438112  41.339  27.993   9.543
 2766POPC   GL138113  41.621  28.104   9.162
 2766POPC   GL238114  41.691  28.464   9.132
 2766POPC   C1A38115  41.770  27.885   8.769
 2766POPC   D2A38116  41.916  27.768   8.319
 2766POPC   C3A38117  41.717  28.062   8.024
 2766POPC   C4A38118  41.382  28.367   8.095
 2766POPC   C1B38119  41.739  28.746   8.784
 2766POPC   C2B38120  41.598  28.738   8.376
 2766POPC   C3B38121  41.824  28.749   7.991
 2766POPC   C4B38122  41.648  28.516   7.696
 2767POPC   NC338123  36.656  26.978   9.652
 2767POPC   PO438124  37.219  26.598   9.606
 2767POPC   GL138125  36.953  26.652   9.211
 2767POPC   GL238126  36.841  27.018   9.181
 2767POPC   C1A38127  37.109  26.731   8.769
 2767POPC   D2A38128  37.373  26.962   8.456
 2767POPC   C3A38129  37.138  26.871   8.067
 2767POPC   C4A38130  37.001  27.103   7.709
 2767POPC   C1B38131  36.628  26.908   8.813
 2767POPC   C2B38132  36.702  26.702   8.392
 2767POPC   C3B38133  36.601  26.837   7.971
 2767POPC   C4B38134  36.831  26.621   7.651
 2768POPC   NC338135  36.951  36.374   9.479
 2768POPC   PO438136  36.623  35.723   9.356
 2768POPC   GL138137  36.866  36.038   9.124
 2768POPC   GL238138  37.178  35.938   8.954
 2768POPC   C1A38139  36.911  36.332   8.781
 2768POPC   D2A38140  36.817  36.250   8.354
 2768POPC   C3A38141  37.064  36.300   8.014
 2768POPC   C4A38142  36.973  36.456   7.643
 2768POPC   C1B38143  36.748  35.848   8.678
 2768POPC   C2B38144  36.433  35.917   8.317
 2768POPC   C3B38145  36.608  36.057   7.900
 2768POPC   C4B38146  36.977  35.862   7.771
 2769POPC   NC338147  26.489  29.855   9.998
 2769POPC   PO438148  26.011  30.007   9.594
 2769POPC   GL138149  26.200  30.000   9.180
 2769POPC   GL238150  25.837  30.053   9.108
 2769POPC   C1A38151  26.148  30.168   8.745
 2769POPC   D2A38152  25.808  30.096   8.505
 2769POPC   C3A38153  25.986  30.045   8.120
 2769POPC   C4A38154  26.179  29.816   7.832
 2769POPC   C1B38155  25.704  29.700   8.847
 2769POPC   C2B38156  25.577  29.633   8.420
 2769POPC   C3B38157  25.650  29.546   7.999
 2769POPC   C4B38158  25.734  29.700   7.582
 2770POPC   NC338159   0.477  27.866   9.413
 2770POPC   PO438160   0.253  27.243   9.491
 2770POPC   GL138161   0.021  27.570   9.221
 2770POPC   GL238162   0.315  27.557   9.049
 2770POPC   C1A38163  44.959  27.777   8.788
 2770POPC   D2A38164   0.176  27.591   8.417
 2770POPC   C3A38165   0.373  27.740   8.029
 2770POPC   C4A38166   0.286  27.551   7.654
 2770POPC   C1B38167   0.495  27.819   8.749
 2770POPC   C2B38168   0.737  27.718   8.383
 2770POPC   C3B38169   0.857  27.393   8.073
 2770POPC   C4B38170   0.636  27.158   7.749
 2771POPC   NC338171  27.477  25.949   9.554
 2771POPC   PO438172  27.660  26.589   9.730
 2771POPC   GL138173  27.709  26.332   9.318
 2771POPC   GL238174  27.889  26.467   9.123
 2771POPC   C1A38175  27.682  25.990   8.934
 2771POPC   D2A38176  27.303  26.035   8.622
 2771POPC   C3A38177  27.355  26.011   8.151
 2771POPC   C4A38178  27.358  25.915   7.685
 2771POPC   C1B38179  27.619  26.450   8.769
 2771POPC   C2B38180  27.744  26.258   8.361
 2771POPC   C3B38181  27.676  26.303   7.889
 2771POPC   C4B38182  27.914  26.300   7.485
 2772POPC   NC338183  19.557  40.755   9.426
 2772POPC   PO438184  20.158  41.086   9.293
 2772POPC   GL138185  19.925  40.815   9.038
 2772POPC   GL238186  19.872  40.500   9.081
 2772POPC   C1A38187  19.950  40.836   8.620
 2772POPC   D2A38188  19.675  40.858   8.273
 2772POPC   C3A38189  19.857  40.836   7.912
 2772POPC   C4A38190  19.932  40.948   7.510
 2772POPC   C1B38191  19.656  40.434   8.690
 2772POPC   C2B38192  19.513  40.340   8.287
 2772POPC   C3B38193  19.453  40.528   7.898
 2772POPC   C4B38194  19.445  40.792   7.536
 2773POPC   NC338195  41.150   1.935   9.725
 2773POPC   PO438196  40.628   2.044   9.312
 2773POPC   GL138197  40.804   2.009   8.953
 2773POPC   GL238198  40.645   1.689   8.897
 2773POPC   C1A38199  40.770   2.117   8.543
 2773POPC   D2A38200  40.427   2.246   8.285
 2773POPC   C3A38201  40.564   2.186   7.883
 2773POPC   C4A38202  40.479   1.796   7.715
 2773POPC   C1B38203  41.047   1.666   8.650
 2773POPC   C2B38204  41.193   1.635   8.237
 2773POPC   C3B38205  41.018   1.927   7.920
 2773POPC   C4B38206  40.903   1.918   7.471
 2774POPC   NC338207  43.543  37.620   9.473
 2774POPC   PO438208  42.871  37.707   9.430
 2774POPC   GL138209  42.989  37.535   9.072
 2774POPC   GL238210  43.296  37.691   9.033
 2774POPC   C1A38211  42.896  37.726   8.691
 2774POPC   D2A38212  43.039  37.951   8.348
 2774POPC   C3A38213  42.818  37.805   8.009
 2774POPC   C4A38214  43.025  37.600   7.677
 2774POPC   C1B38215  43.345  37.476   8.656
 2774POPC   C2B38216  43.529  37.462   8.257
 2774POPC   C3B38217  43.405  37.323   7.884
 2774POPC   C4B38218  43.562  37.499   7.536
 2775POPC   NC338219  16.729  24.842   9.662
 2775POPC   PO438220  16.482  25.450   9.532
 2775POPC   GL138221  16.719  25.372   9.167
 2775POPC   GL238222  16.803  25.019   9.183
 2775POPC   C1A38223  16.635  25.465   8.730
 2775POPC   D2A38224  16.598  25.728   8.401
 2775POPC   C3A38225  16.687  25.476   8.042
 2775POPC   C4A38226  16.770  25.516   7.635
 2775POPC   C1B38227  16.470  25.011   8.852
 2775POPC   C2B38228  16.551  24.875   8.400
 2775POPC   C3B38229  16.464  24.794   7.961
 2775POPC   C4B38230  16.589  25.037   7.597
 2776POPC   NC338231  38.149   5.182   9.417
 2776POPC   PO438232  38.595   4.665   9.631
 2776POPC   GL138233  38.548   4.889   9.223
 2776POPC   GL238234  38.663   5.232   9.215
 2776POPC   C1A38235  38.410   4.985   8.797
 2776POPC   D2A38236  38.481   4.792   8.422
 2776POPC   C3A38237  38.671   4.899   8.042
 2776POPC   C4A38238  38.441   4.890   7.692
 2776POPC   C1B38239  38.452   5.481   8.875
 2776POPC   C2B38240  38.296   5.362   8.474
 2776POPC   C3B38241  38.392   5.346   8.061
 2776POPC   C4B38242  38.178   5.297   7.699
 2777POPC   NC338243  17.931   4.561   9.643
 2777POPC   PO438244  17.281   4.348   9.502
 2777POPC   GL138245  17.307   4.313   9.090
 2777POPC   GL238246  17.263   4.691   9.052
 2777POPC   C1A38247  17.455   4.059   8.711
 2777POPC   D2A38248  17.278   3.944   8.309
 2777POPC   C3A38249  17.513   4.073   7.945
 2777POPC   C4A38250  17.392   4.302   7.576
 2777POPC   C1B38251  17.588   4.554   8.756
 2777POPC   C2B38252  17.617   4.384   8.351
 2777POPC   C3B38253  17.514   4.592   7.983
 2777POPC   C4B38254  17.760   4.699   7.610
 2778POPC   NC338255  15.812  41.284   9.577
 2778POPC   PO438256  16.195  41.868   9.481
 2778POPC   GL138257  16.011  41.596   9.181
 2778POPC   GL238258  16.219  41.264   9.250
 2778POPC   C1A38259  15.703  41.658   8.809
 2778POPC   D2A38260  15.552  41.839   8.384
 2778POPC   C3A38261  15.717  41.567   8.064
 2778POPC   C4A38262  15.995  41.587   7.704
 2778POPC   C1B38263  15.964  41.198   8.884
 2778POPC   C2B38264  15.942  41.307   8.474
 2778POPC   C3B38265  16.213  41.346   8.143
 2778POPC   C4B38266  16.397  41.272   7.757
 2779POPC   NC338267  20.923   0.447   9.455
 2779POPC   PO438268  20.271   0.449   9.259
 2779POPC   GL138269  20.643   0.468   8.994
 2779POPC   GL238270  20.832   0.162   9.043
 2779POPC   C1A38271  20.640   0.273   8.582
 2779POPC   D2A38272  20.261   0.226   8.354
 2779POPC   C3A38273  20.317   0.571   8.098
 2779POPC   C4A38274  20.451   0.540   7.693
 2779POPC   C1B38275  21.132   0.334   8.756
 2779POPC   C2B38276  21.059   0.421   8.312
 2779POPC   C3B38277  20.833   0.639   8.004
 2779POPC   C4B38278  20.925   0.687   7.540
 2780POPC   NC338279  32.390   7.385   9.464
 2780POPC   PO438280  31.923   7.768   9.387
 2780POPC   GL138281  32.133   7.557   9.032
 2780POPC   GL238282  32.072   7.207   9.091
 2780POPC   C1A38283  32.495   7.521   8.701
 2780POPC   D2A38284  32.498   7.284   8.269
 2780POPC   C3A38285  32.332   7.526   7.920
 2780POPC   C4A38286  31.916   7.747   7.846
 2780POPC   C1B38287  32.170   7.160   8.657
 2780POPC   C2B38288  31.998   7.422   8.316
 2780POPC   C3B38289  31.892   7.249   7.907
 2780POPC   C4B38290  32.209   7.073   7.675
 2781POPC   NC338291   4.621  43.757   9.501
 2781POPC   PO438292   5.311  43.795   9.724
 2781POPC   GL138293   5.217  43.599   9.322
 2781POPC   GL238294   5.066  43.908   9.243
 2781POPC   C1A38295   5.068  43.547   8.871
 2781POPC   D2A38296   5.290  43.607   8.448
 2781POPC   C3A38297   5.078  43.680   8.075
 2781POPC   C4A38298   5.047  43.844   7.647
 2781POPC   C1B38299   5.227  44.025   8.818
 2781POPC   C2B38300   5.290  44.117   8.356
 2781POPC   C3B38301   5.411  44.137   7.898
 2781POPC   C4B38302   5.231  44.292   7.484
 2782POPC   NC338303  11.473  28.158   9.494
 2782POPC   PO438304  11.224  28.841   9.587
 2782POPC   GL138305  11.386  28.675   9.173
 2782POPC   GL238306  11.238  28.318   9.074
 2782POPC   C1A38307  11.510  28.562   8.740
 2782POPC   D2A38308  11.276  28.356   8.445
 2782POPC   C3A38309  11.427  28.551   8.088
 2782POPC   C4A38310  11.350  28.530   7.689
 2782POPC   C1B38311  11.573  28.053   8.815
 2782POPC   C2B38312  11.493  27.869   8.400
 2782POPC   C3B38313  11.430  28.053   8.024
 2782POPC   C4B38314  11.587  28.083   7.641
 2783POPC   NC338315  13.586  13.463   5.295
 2783POPC   PO438316  13.823  13.994   5.351
 2783POPC   GL138317  13.619  13.911   5.791
 2783POPC   GL238318  13.683  13.554   5.808
 2783POPC   C1A38319  13.540  13.738   6.268
 2783POPC   D2A38320  13.724  13.600   6.693
 2783POPC   C3A38321  13.683  13.861   7.110
 2783POPC   C4A38322  13.740  14.018   7.551
 2783POPC   C1B38323  13.444  13.269   6.084
 2783POPC   C2B38324  13.540  13.130   6.506
 2783POPC   C3B38325  13.498  13.149   6.934
 2783POPC   C4B38326  13.550  13.400   7.265
 2784POPC   NC338327  14.073  10.331   5.381
 2784POPC   PO438328  14.475   9.767   5.470
 2784POPC   GL138329  14.273   9.865   5.847
 2784POPC   GL238330  14.270  10.198   5.863
 2784POPC   C1A38331  14.011   9.996   6.224
 2784POPC   D2A38332  13.915   9.994   6.638
 2784POPC   C3A38333  13.988   9.580   6.809
 2784POPC   C4A38334  14.132   9.432   7.191
 2784POPC   C1B38335  14.519  10.069   6.249
 2784POPC   C2B38336  14.424   9.818   6.631
 2784POPC   C3B38337  14.465   9.956   7.078
 2784POPC   C4B38338  14.709  10.082   7.482
 2785POPC   NC338339   9.243  25.457   5.400
 2785POPC   PO438340   8.787  25.012   5.658
 2785POPC   GL138341   9.097  25.222   5.853
 2785POPC   GL238342   9.445  25.151   5.827
 2785POPC   C1A38343   9.145  25.424   6.231
 2785POPC   D2A38344   9.235  25.338   6.649
 2785POPC   C3A38345   8.791  25.339   6.829
 2785POPC   C4A38346   8.601  25.364   7.235
 2785POPC   C1B38347   9.417  24.972   6.247
 2785POPC   C2B38348   9.456  24.750   6.629
 2785POPC   C3B38349   9.274  24.740   7.026
 2785POPC   C4B38350   8.964  25.019   7.195
 2786POPC   NC338351  27.115   2.020   5.588
 2786POPC   PO438352  26.510   1.803   5.282
 2786POPC   GL138353  26.597   1.849   5.751
 2786POPC   GL238354  26.621   2.209   5.861
 2786POPC   C1A38355  26.699   1.831   6.227
 2786POPC   D2A38356  27.021   1.789   6.590
 2786POPC   C3A38357  26.925   1.628   7.029
 2786POPC   C4A38358  26.561   1.708   7.289
 2786POPC   C1B38359  26.945   2.304   6.207
 2786POPC   C2B38360  26.869   2.284   6.648
 2786POPC   C3B38361  26.821   2.182   7.100
 2786POPC   C4B38362  27.016   2.440   7.445
 2787POPC   NC338363   3.234   9.852   5.181
 2787POPC   PO438364   2.739  10.214   5.494
 2787POPC   GL138365   2.987   9.928   5.742
 2787POPC   GL238366   2.816   9.626   5.859
 2787POPC   C1A38367   3.086   9.922   6.185
 2787POPC   D2A38368   2.811   9.798   6.552
 2787POPC   C3A38369   2.748  10.021   6.930
 2787POPC   C4A38370   2.915   9.966   7.333
 2787POPC   C1B38371   2.964   9.406   6.239
 2787POPC   C2B38372   2.906   9.301   6.703
 2787POPC   C3B38373   2.792   9.503   7.120
 2787POPC   C4B38374   2.787   9.555   7.604
 2788POPC   NC338375  31.340  21.128   5.460
 2788POPC   PO438376  31.747  21.650   5.462
 2788POPC   GL138377  31.746  21.273   5.777
 2788POPC   GL238378  31.441  21.417   5.930
 2788POPC   C1A38379  31.636  21.051   6.200
 2788POPC   D2A38380  31.419  21.374   6.477
 2788POPC   C3A38381  31.480  21.371   6.917
 2788POPC   C4A38382  31.243  21.119   7.223
 2788POPC   C1B38383  31.832  21.527   6.220
 2788POPC   C2B38384  31.797  21.726   6.627
 2788POPC   C3B38385  31.689  21.830   7.034
 2788POPC   C4B38386  31.474  21.607   7.391
 2789POPC   NC338387  22.153  20.358   5.287
 2789POPC   PO438388  22.087  21.045   5.511
 2789POPC   GL138389  22.043  20.703   5.757
 2789POPC   GL238390  21.784  20.444   5.654
 2789POPC   C1A38391  22.305  20.679   6.140
 2789POPC   D2A38392  22.506  20.696   6.525
 2789POPC   C3A38393  22.238  20.786   6.874
 2789POPC   C4A38394  22.194  20.493   7.195
 2789POPC   C1B38395  21.649  20.619   6.060
 2789POPC   C2B38396  21.862  20.755   6.430
 2789POPC   C3B38397  21.743  20.634   6.830
 2789POPC   C4B38398  21.759  20.745   7.232
 2790POPC   NC338399  12.408   9.503   5.342
 2790POPC   PO438400  12.062  10.154   5.329
 2790POPC   GL138401  12.228   9.885   5.673
 2790POPC   GL238402  12.010   9.656   5.788
 2790POPC   C1A38403  12.339   9.825   6.142
 2790POPC   D2A38404  12.224   9.566   6.513
 2790POPC   C3A38405  12.170   9.734   6.904
 2790POPC   C4A38406  12.397  10.000   7.181
 2790POPC   C1B38407  11.875   9.431   6.140
 2790POPC   C2B38408  11.722   9.480   6.553
 2790POPC   C3B38409  11.820   9.346   6.924
 2790POPC   C4B38410  11.910   9.521   7.290
 2791POPC   NC338411  39.143   2.917   5.393
 2791POPC   PO438412  39.117   2.325   5.470
 2791POPC   GL138413  39.141   2.611   5.815
 2791POPC   GL238414  39.482   2.727   5.793
 2791POPC   C1A38415  39.173   2.696   6.252
 2791POPC   D2A38416  39.117   2.959   6.629
 2791POPC   C3A38417  39.252   2.814   7.025
 2791POPC   C4A38418  39.006   2.655   7.362
 2791POPC   C1B38419  39.651   3.006   6.129
 2791POPC   C2B38420  39.577   3.196   6.539
 2791POPC   C3B38421  39.620   3.202   6.990
 2791POPC   C4B38422  39.617   2.937   7.358
 2792POPC   NC338423  33.478  27.460   5.367
 2792POPC   PO438424  32.941  27.803   5.372
 2792POPC   GL138425  33.009  27.774   5.773
 2792POPC   GL238426  33.130  27.465   5.747
 2792POPC   C1A38427  32.907  27.816   6.193
 2792POPC   D2A38428  32.911  27.734   6.635
 2792POPC   C3A38429  33.132  27.948   6.968
 2792POPC   C4A38430  33.110  27.911   7.430
 2792POPC   C1B38431  33.068  27.274   6.121
 2792POPC   C2B38432  33.078  27.167   6.541
 2792POPC   C3B38433  33.101  27.340   6.935
 2792POPC   C4B38434  33.300  27.290   7.321
 2793POPC   NC338435  23.558  25.866   5.643
 2793POPC   PO438436  24.134  25.839   5.248
 2793POPC   GL138437  24.054  25.812   5.782
 2793POPC   GL238438  23.812  26.111   6.005
 2793POPC   C1A38439  24.020  25.771   6.278
 2793POPC   D2A38440  23.777  26.102   6.516
 2793POPC   C3A38441  23.698  26.087   6.922
 2793POPC   C4A38442  23.577  26.056   7.355
 2793POPC   C1B38443  24.048  26.438   6.279
 2793POPC   C2B38444  24.118  26.413   6.774
 2793POPC   C3B38445  23.887  26.468   7.168
 2793POPC   C4B38446  23.918  26.399   7.571
 2794POPC   NC338447  14.824  14.197   5.441
 2794POPC   PO438448  15.164  14.723   5.493
 2794POPC   GL138449  15.193  14.620   5.930
 2794POPC   GL238450  15.549  14.548   5.867
 2794POPC   C1A38451  15.009  14.348   6.302
 2794POPC   D2A38452  14.920  14.069   6.676
 2794POPC   C3A38453  14.920  14.360   7.007
 2794POPC   C4A38454  14.975  14.494   7.423
 2794POPC   C1B38455  15.517  14.381   6.298
 2794POPC   C2B38456  15.376  14.289   6.737
 2794POPC   C3B38457  15.442  14.468   7.151
 2794POPC   C4B38458  15.637  14.249   7.494
 2795POPC   NC338459   2.234  42.502   5.309
 2795POPC   PO438460   1.699  42.099   5.394
 2795POPC   GL138461   1.897  42.378   5.715
 2795POPC   GL238462   1.661  42.616   5.869
 2795POPC   C1A38463   2.093  42.382   6.133
 2795POPC   D2A38464   2.156  42.456   6.604
 2795POPC   C3A38465   1.921  42.157   6.859
 2795POPC   C4A38466   1.637  42.244   7.158
 2795POPC   C1B38467   1.720  42.727   6.310
 2795POPC   C2B38468   1.604  42.634   6.738
 2795POPC   C3B38469   1.820  42.770   7.066
 2795POPC   C4B38470   2.132  42.496   7.203
 2796POPC   NC338471   3.965  40.304   5.507
 2796POPC   PO438472   3.380  40.081   5.223
 2796POPC   GL138473   3.554  40.029   5.644
 2796POPC   GL238474   3.565  40.369   5.806
 2796POPC   C1A38475   3.603  39.889   6.074
 2796POPC   D2A38476   3.505  40.071   6.473
 2796POPC   C3A38477   3.491  39.831   6.883
 2796POPC   C4A38478   3.561  39.814   7.323
 2796POPC   C1B38479   3.846  40.337   6.178
 2796POPC   C2B38480   3.914  40.270   6.638
 2796POPC   C3B38481   3.600  40.318   6.966
 2796POPC   C4B38482   3.752  40.341   7.391
 2797POPC   NC338483  10.275   3.441   5.458
 2797POPC   PO438484  10.810   3.793   5.244
 2797POPC   GL138485  10.739   3.559   5.673
 2797POPC   GL238486  10.439   3.623   5.893
 2797POPC   C1A38487  10.858   3.614   6.146
 2797POPC   D2A38488  10.580   3.699   6.528
 2797POPC   C3A38489  10.735   3.642   6.980
 2797POPC   C4A38490  10.653   3.561   7.448
 2797POPC   C1B38491  10.124   3.743   6.192
 2797POPC   C2B38492  10.023   4.016   6.541
 2797POPC   C3B38493  10.146   3.941   6.960
 2797POPC   C4B38494  10.291   3.911   7.395
 2798POPC   NC338495   8.244   6.809   5.105
 2798POPC   PO438496   7.975   6.316   5.484
 2798POPC   GL138497   8.000   6.606   5.794
 2798POPC   GL238498   8.278   6.851   5.697
 2798POPC   C1A38499   7.918   6.486   6.202
 2798POPC   D2A38500   8.163   6.350   6.505
 2798POPC   C3A38501   7.970   6.413   6.865
 2798POPC   C4A38502   8.095   6.687   7.179
 2798POPC   C1B38503   8.562   7.040   6.037
 2798POPC   C2B38504   8.511   6.971   6.497
 2798POPC   C3B38505   8.410   7.025   6.952
 2798POPC   C4B38506   8.395   7.013   7.430
 2799POPC   NC338507  27.921  44.332   5.388
 2799POPC   PO438508  28.489  44.595   5.201
 2799POPC   GL138509  28.302  44.576   5.641
 2799POPC   GL238510  28.518  44.369   5.792
 2799POPC   C1A38511  28.291  44.686   6.121
 2799POPC   D2A38512  28.208  44.911   6.525
 2799POPC   C3A38513  28.395  44.730   6.931
 2799POPC   C4A38514  28.321  44.742   7.384
 2799POPC   C1B38515  28.586  44.257   6.225
 2799POPC   C2B38516  28.720  44.419   6.618
 2799POPC   C3B38517  28.792  44.396   7.070
 2799POPC   C4B38518  28.786  44.516   7.531
 2800POPC   NC338519   4.108  34.065   5.249
 2800POPC   PO438520   4.607  33.779   5.416
 2800POPC   GL138521   4.810  33.872   5.837
 2800POPC   GL238522   4.621  34.176   5.931
 2800POPC   C1A38523   4.770  33.855   6.294
 2800POPC   D2A38524   4.523  33.912   6.658
 2800POPC   C3A38525   4.599  33.968   7.092
 2800POPC   C4A38526   4.350  33.823   7.442
 2800POPC   C1B38527   4.427  34.315   6.333
 2800POPC   C2B38528   4.354  34.381   6.769
 2800POPC   C3B38529   4.193  34.320   7.131
 2800POPC   C4B38530   4.017  34.596   7.408
 2801POPC   NC338531  44.537  17.713   5.386
 2801POPC   PO438532  44.863  17.104   5.298
 2801POPC   GL138533  44.843  17.369   5.689
 2801POPC   GL238534  44.514  17.370   5.758
 2801POPC   C1A38535  44.761  17.637   6.102
 2801POPC   D2A38536  44.454  17.694   6.463
 2801POPC   C3A38537  44.581  17.588   6.865
 2801POPC   C4A38538  44.429  17.627   7.282
 2801POPC   C1B38539  44.385  17.304   6.164
 2801POPC   C2B38540  44.516  17.143   6.573
 2801POPC   C3B38541  44.399  17.135   7.009
 2801POPC   C4B38542  44.533  17.142   7.454
 2802POPC   NC338543  26.230  15.080   5.183
 2802POPC   PO438544  26.080  15.722   5.362
 2802POPC   GL138545  26.064  15.286   5.661
 2802POPC   GL238546  26.251  14.918   5.696
 2802POPC   C1A38547  25.966  15.099   6.094
 2802POPC   D2A38548  25.872  14.918   6.528
 2802POPC   C3A38549  26.014  15.087   6.952
 2802POPC   C4A38550  25.874  15.138   7.415
 2802POPC   C1B38551  26.413  14.892   6.140
 2802POPC   C2B38552  26.399  15.020   6.567
 2802POPC   C3B38553  26.460  14.841   6.971
 2802POPC   C4B38554  26.219  14.774   7.325
 2803POPC   NC338555  11.731   8.207   5.330
 2803POPC   PO438556  12.379   8.353   5.346
 2803POPC   GL138557  12.117   8.276   5.694
 2803POPC   GL238558  11.973   7.948   5.707
 2803POPC   C1A38559  12.085   8.435   6.097
 2803POPC   D2A38560  11.766   8.448   6.413
 2803POPC   C3A38561  11.904   8.363   6.836
 2803POPC   C4A38562  12.077   8.506   7.261
 2803POPC   C1B38563  11.836   7.982   6.125
 2803POPC   C2B38564  11.968   7.801   6.492
 2803POPC   C3B38565  11.891   7.801   6.903
 2803POPC   C4B38566  11.837   8.070   7.256
 2804POPC   NC338567  42.657  37.260   5.372
 2804POPC   PO438568  42.066  36.850   5.241
 2804POPC   GL138569  42.272  36.946   5.595
 2804POPC   GL238570  41.988  37.003   5.757
 2804POPC   C1A38571  42.467  36.920   5.978
 2804POPC   D2A38572  42.357  36.830   6.388
 2804POPC   C3A38573  42.449  37.041   6.761
 2804POPC   C4A38574  42.423  36.971   7.192
 2804POPC   C1B38575  41.992  37.165   6.161
 2804POPC   C2B38576  42.036  37.313   6.572
 2804POPC   C3B38577  41.975  37.187   6.989
 2804POPC   C4B38578  42.088  37.271   7.424
 2805POPC   NC338579  37.560  14.561   5.359
 2805POPC   PO438580  37.956  14.194   5.543
 2805POPC   GL138581  37.551  14.292   5.807
 2805POPC   GL238582  37.438  14.648   5.850
 2805POPC   C1A38583  37.419  14.356   6.275
 2805POPC   D2A38584  37.563  14.580   6.674
 2805POPC   C3A38585  37.712  14.371   7.075
 2805POPC   C4A38586  37.682  13.986   7.363
 2805POPC   C1B38587  37.197  14.819   6.215
 2805POPC   C2B38588  37.075  14.722   6.658
 2805POPC   C3B38589  37.203  14.569   7.065
 2805POPC   C4B38590  37.363  14.391   7.449
 2806POPC   NC338591   0.979  44.990   5.418
 2806POPC   PO438592   0.961  44.274   5.405
 2806POPC   GL138593   1.004  44.569   5.732
 2806POPC   GL238594   0.823  44.440   5.986
 2806POPC   C1A38595   1.199  44.801   6.081
 2806POPC   D2A38596   1.138  44.907   6.516
 2806POPC   C3A38597   1.346  44.687   6.833
 2806POPC   C4A38598   1.256  44.646   7.277
 2806POPC   C1B38599   1.070  44.400   6.362
 2806POPC   C2B38600   1.033  44.304   6.788
 2806POPC   C3B38601   1.123  44.158   7.185
 2806POPC   C4B38602   0.966  44.337   7.579
 2807POPC   NC338603  43.867  10.645   5.407
 2807POPC   PO438604  44.420  10.766   5.630
 2807POPC   GL138605  44.090  10.601   5.880
 2807POPC   GL238606  43.742  10.702   5.882
 2807POPC   C1A38607  44.023  10.572   6.311
 2807POPC   D2A38608  43.922  10.327   6.645
 2807POPC   C3A38609  43.930  10.534   7.023
 2807POPC   C4A38610  44.227  10.322   7.219
 2807POPC   C1B38611  43.533  10.761   6.231
 2807POPC   C2B38612  43.648  10.760   6.645
 2807POPC   C3B38613  43.542  10.898   7.017
 2807POPC   C4B38614  43.580  10.953   7.454
 2808POPC   NC338615  20.413  23.341   5.590
 2808POPC   PO438616  20.726  22.765   5.449
 2808POPC   GL138617  20.576  22.893   5.834
 2808POPC   GL238618  20.798  23.156   5.869
 2808POPC   C1A38619  20.427  22.877   6.272
 2808POPC   D2A38620  20.253  22.757   6.671
 2808POPC   C3A38621  20.524  22.849   6.986
 2808POPC   C4A38622  20.488  22.908   7.392
 2808POPC   C1B38623  21.019  23.330   6.180
 2808POPC   C2B38624  20.949  23.426   6.582
 2808POPC   C3B38625  20.894  23.199   6.930
 2808POPC   C4B38626  20.978  22.975   7.280
 2809POPC   NC338627  28.000   1.828   5.373
 2809POPC   PO438628  27.391   1.809   5.259
 2809POPC   GL138629  27.607   1.885   5.716
 2809POPC   GL238630  27.774   2.231   5.721
 2809POPC   C1A38631  27.623   1.768   6.195
 2809POPC   D2A38632  27.525   1.688   6.654
 2809POPC   C3A38633  27.878   1.679   6.948
 2809POPC   C4A38634  28.122   1.574   7.297
 2809POPC   C1B38635  27.488   2.258   6.106
 2809POPC   C2B38636  27.401   2.179   6.545
 2809POPC   C3B38637  27.528   2.103   6.975
 2809POPC   C4B38638  27.470   2.217   7.400
 2810POPC   NC338639  29.914  22.520   5.423
 2810POPC   PO438640  29.725  21.826   5.243
 2810POPC   GL138641  29.896  22.027   5.667
 2810POPC   GL238642  29.544  22.083   5.680
 2810POPC   C1A38643  30.055  22.224   6.118
 2810POPC   D2A38644  30.158  22.093   6.571
 2810POPC   C3A38645  30.048  22.305   6.953
 2810POPC   C4A38646  30.208  22.358   7.371
 2810POPC   C1B38647  29.577  22.047   6.115
 2810POPC   C2B38648  29.669  22.262   6.498
 2810POPC   C3B38649  29.549  22.139   6.905
 2810POPC   C4B38650  29.665  22.267   7.305
 2811POPC   NC338651  18.151  44.586   5.412
 2811POPC   PO438652  18.755  44.852   5.406
 2811POPC   GL138653  18.453  44.783   5.748
 2811POPC   GL238654  18.473  44.408   5.803
 2811POPC   C1A38655  18.219  44.687   6.143
 2811POPC   D2A38656  18.409  44.513   6.512
 2811POPC   C3A38657  18.175  44.691   6.827
 2811POPC   C4A38658  18.260  44.665   7.261
 2811POPC   C1B38659  18.245  44.169   6.137
 2811POPC   C2B38660  17.986  44.234   6.517
 2811POPC   C3B38661  18.216  44.169   6.930
 2811POPC   C4B38662  18.612  44.392   6.987
 2812POPC   NC338663  37.346   8.310   5.451
 2812POPC   PO438664  36.887   7.822   5.299
 2812POPC   GL138665  36.976   7.799   5.729
 2812POPC   GL238666  37.266   7.973   5.812
 2812POPC   C1A38667  36.832   8.028   6.101
 2812POPC   D2A38668  36.754   8.184   6.515
 2812POPC   C3A38669  36.917   8.035   6.908
 2812POPC   C4A38670  36.680   8.258   7.213
 2812POPC   C1B38671  37.321   8.242   6.158
 2812POPC   C2B38672  37.226   8.380   6.550
 2812POPC   C3B38673  37.369   8.336   6.940
 2812POPC   C4B38674  37.171   8.264   7.317
 2813POPC   NC338675  43.038  33.512   5.251
 2813POPC   PO438676  42.757  32.891   5.336
 2813POPC   GL138677  42.950  32.996   5.742
 2813POPC   GL238678  43.184  33.279   5.775
 2813POPC   C1A38679  42.765  32.819   6.137
 2813POPC   D2A38680  42.689  32.868   6.567
 2813POPC   C3A38681  42.854  32.733   6.934
 2813POPC   C4A38682  42.958  32.930   7.326
 2813POPC   C1B38683  43.134  33.159   6.238
 2813POPC   C2B38684  43.082  33.157   6.708
 2813POPC   C3B38685  43.355  33.179   7.058
 2813POPC   C4B38686  43.357  33.192   7.498
 2814POPC   NC338687   3.608  19.305   5.352
 2814POPC   PO438688   4.003  18.843   5.590
 2814POPC   GL138689   3.715  19.111   5.845
 2814POPC   GL238690   3.570  19.455   5.855
 2814POPC   C1A38691   3.450  18.942   6.174
 2814POPC   D2A38692   3.622  18.775   6.566
 2814POPC   C3A38693   3.444  18.907   6.963
 2814POPC   C4A38694   3.153  18.877   7.288
 2814POPC   C1B38695   3.613  19.418   6.301
 2814POPC   C2B38696   3.334  19.242   6.581
 2814POPC   C3B38697   3.105  19.282   6.923
 2814POPC   C4B38698   3.344  19.355   7.280
 2815POPC   NC338699  12.474  10.896   5.684
 2815POPC   PO438700  12.960  10.436   5.467
 2815POPC   GL138701  12.726  10.477   5.850
 2815POPC   GL238702  12.617  10.162   5.859
 2815POPC   C1A38703  12.795  10.737   6.247
 2815POPC   D2A38704  13.057  10.881   6.604
 2815POPC   C3A38705  12.976  10.857   7.067
 2815POPC   C4A38706  12.922  10.660   7.498
 2815POPC   C1B38707  12.421  10.365   6.256
 2815POPC   C2B38708  12.602  10.510   6.679
 2815POPC   C3B38709  12.761  10.359   7.089
 2815POPC   C4B38710  12.541  10.346   7.505
 2816POPC   NC338711  25.521  16.670   5.351
 2816POPC   PO438712  25.024  17.074   5.384
 2816POPC   GL138713  25.005  16.866   5.776
 2816POPC   GL238714  24.684  16.803   5.790
 2816POPC   C1A38715  25.128  16.766   6.209
 2816POPC   D2A38716  25.369  16.568   6.536
 2816POPC   C3A38717  25.195  16.695   6.865
 2816POPC   C4A38718  25.212  16.671   7.268
 2816POPC   C1B38719  24.646  16.907   6.225
 2816POPC   C2B38720  24.853  17.038   6.609
 2816POPC   C3B38721  24.783  16.945   7.038
 2816POPC   C4B38722  24.920  17.095   7.407
 2817POPC   NC338723   1.188  27.521   5.352
 2817POPC   PO438724   0.767  28.045   5.515
 2817POPC   GL138725   1.032  27.774   5.866
 2817POPC   GL238726   0.982  27.423   5.844
 2817POPC   C1A38727   1.166  27.625   6.340
 2817POPC   D2A38728   1.284  27.580   6.812
 2817POPC   C3A38729   1.066  27.699   7.197
 2817POPC   C4A38730   1.073  27.559   7.634
 2817POPC   C1B38731   1.362  27.252   6.050
 2817POPC   C2B38732   1.451  27.203   6.496
 2817POPC   C3B38733   1.524  27.142   6.958
 2817POPC   C4B38734   1.448  27.380   7.313
 2818POPC   NC338735  40.827  39.729   5.448
 2818POPC   PO438736  40.507  39.181   5.538
 2818POPC   GL138737  40.761  39.285   5.921
 2818POPC   GL238738  41.078  39.061   6.022
 2818POPC   C1A38739  40.780  39.249   6.371
 2818POPC   D2A38740  41.027  39.105   6.717
 2818POPC   C3A38741  40.775  39.197   7.087
 2818POPC   C4A38742  40.428  39.472   7.154
 2818POPC   C1B38743  41.254  39.418   6.258
 2818POPC   C2B38744  41.365  39.628   6.644
 2818POPC   C3B38745  41.254  39.462   7.073
 2818POPC   C4B38746  41.053  39.386   7.485
 2819POPC   NC338747   8.332  28.635   5.394
 2819POPC   PO438748   8.032  28.063   5.422
 2819POPC   GL138749   8.132  28.198   5.845
 2819POPC   GL238750   8.394  28.472   5.932
 2819POPC   C1A38751   7.987  28.321   6.257
 2819POPC   D2A38752   8.141  28.617   6.582
 2819POPC   C3A38753   8.149  28.402   6.973
 2819POPC   C4A38754   7.876  28.366   7.325
 2819POPC   C1B38755   8.476  28.271   6.370
 2819POPC   C2B38756   8.404  28.010   6.727
 2819POPC   C3B38757   8.509  28.041   7.135
 2819POPC   C4B38758   8.395  28.339   7.446
 2820POPC   NC338759  10.371   8.288   5.371
 2820POPC   PO438760  10.934   7.975   5.449
 2820POPC   GL138761  10.723   8.240   5.740
 2820POPC   GL238762  10.479   8.017   5.856
 2820POPC   C1A38763  10.745   8.360   6.164
 2820POPC   D2A38764  10.616   8.090   6.522
 2820POPC   C3A38765  10.476   8.330   6.871
 2820POPC   C4A38766  10.410   8.518   7.265
 2820POPC   C1B38767  10.876   7.879   6.093
 2820POPC   C2B38768  10.946   7.637   6.483
 2820POPC   C3B38769  10.898   7.838   6.897
 2820POPC   C4B38770  10.767   8.131   7.249
 2821POPC   NC338771  31.996   7.234   5.201
 2821POPC   PO438772  32.417   7.784   5.235
 2821POPC   GL138773  32.202   7.603   5.648
 2821POPC   GL238774  32.507   7.486   5.756
 2821POPC   C1A38775  32.022   7.457   6.103
 2821POPC   D2A38776  32.001   7.287   6.563
 2821POPC   C3A38777  31.951   7.519   6.980
 2821POPC   C4A38778  32.125   7.516   7.418
 2821POPC   C1B38779  32.518   7.562   6.182
 2821POPC   C2B38780  32.501   7.350   6.584
 2821POPC   C3B38781  32.480   7.464   7.004
 2821POPC   C4B38782  32.591   7.230   7.392
 2822POPC   NC338783  43.859  25.527   5.392
 2822POPC   PO438784  43.987  26.168   5.285
 2822POPC   GL138785  43.765  26.102   5.677
 2822POPC   GL238786  43.535  25.811   5.685
 2822POPC   C1A38787  43.932  26.254   6.087
 2822POPC   D2A38788  44.128  26.011   6.392
 2822POPC   C3A38789  43.994  26.072   6.801
 2822POPC   C4A38790  44.081  25.952   7.192
 2822POPC   C1B38791  43.712  25.756   6.110
 2822POPC   C2B38792  43.600  25.848   6.544
 2822POPC   C3B38793  43.599  25.774   7.005
 2822POPC   C4B38794  43.471  25.409   7.269
 2823POPC   NC338795  26.845  33.054   5.062
 2823POPC   PO438796  26.540  32.730   5.557
 2823POPC   GL138797  26.792  33.028   5.817
 2823POPC   GL238798  27.038  33.325   5.682
 2823POPC   C1A38799  26.761  32.905   6.271
 2823POPC   D2A38800  26.451  32.765   6.600
 2823POPC   C3A38801  26.645  32.735   7.018
 2823POPC   C4A38802  26.626  32.879   7.440
 2823POPC   C1B38803  27.192  33.225   6.104
 2823POPC   C2B38804  27.168  33.103   6.542
 2823POPC   C3B38805  27.239  33.056   6.994
 2823POPC   C4B38806  26.878  33.234   7.178
 2824POPC   NC338807  32.840  24.248   5.475
 2824POPC   PO438808  33.111  23.699   5.111
 2824POPC   GL138809  33.069  23.681   5.636
 2824POPC   GL238810  33.358  23.582   5.815
 2824POPC   C1A38811  33.021  23.831   6.074
 2824POPC   D2A38812  33.211  23.625   6.438
 2824POPC   C3A38813  33.040  23.820   6.809
 2824POPC   C4A38814  32.900  23.618   7.192
 2824POPC   C1B38815  33.445  23.249   6.111
 2824POPC   C2B38816  33.413  23.094   6.537
 2824POPC   C3B38817  33.228  23.307   6.886
 2824POPC   C4B38818  33.403  23.632   7.109
 2825POPC   NC338819  19.255  22.381   5.428
 2825POPC   PO438820  18.609  22.057   5.460
 2825POPC   GL138821  18.901  22.207   5.797
 2825POPC   GL238822  19.287  22.085   5.830
 2825POPC   C1A38823  18.946  22.025   6.205
 2825POPC   D2A38824  19.157  22.081   6.584
 2825POPC   C3A38825  18.964  21.927   6.942
 2825POPC   C4A38826  18.822  22.079   7.334
 2825POPC   C1B38827  19.388  22.365   6.146
 2825POPC   C2B38828  19.580  22.383   6.538
 2825POPC   C3B38829  19.402  22.356   6.950
 2825POPC   C4B38830  19.322  22.068   7.283
 2826POPC   NC338831  13.803   1.278   5.181
 2826POPC   PO438832  13.229   1.523   5.519
 2826POPC   GL138833  13.569   1.376   5.751
 2826POPC   GL238834  13.529   1.069   5.560
 2826POPC   C1A38835  13.693   1.332   6.223
 2826POPC   D2A38836  13.956   1.331   6.620
 2826POPC   C3A38837  13.770   1.402   7.032
 2826POPC   C4A38838  13.428   1.537   7.310
 2826POPC   C1B38839  13.866   0.976   5.892
 2826POPC   C2B38840  13.833   0.851   6.373
 2826POPC   C3B38841  13.868   0.889   6.849
 2826POPC   C4B38842  13.710   0.936   7.282
 2827POPC   NC338843  15.845  21.076   5.564
 2827POPC   PO438844  15.704  21.638   5.367
 2827POPC   GL138845  16.010  21.623   5.726
 2827POPC   GL238846  16.374  21.613   5.869
 2827POPC   C1A38847  15.875  21.549   6.140
 2827POPC   D2A38848  15.717  21.469   6.535
 2827POPC   C3A38849  16.056  21.573   6.794
 2827POPC   C4A38850  16.070  21.546   7.229
 2827POPC   C1B38851  16.291  21.232   6.120
 2827POPC   C2B38852  16.110  21.122   6.517
 2827POPC   C3B38853  15.982  21.090   6.942
 2827POPC   C4B38854  16.290  21.078   7.231
 2828POPC   NC338855  44.356   0.200   5.381
 2828POPC   PO438856  43.763   0.484   5.342
 2828POPC   GL138857  44.002   0.490   5.699
 2828POPC   GL238858  44.093   0.836   5.692
 2828POPC   C1A38859  43.831   0.282   6.089
 2828POPC   D2A38860  43.931   0.103   6.496
 2828POPC   C3A38861  43.639   0.272   6.806
 2828POPC   C4A38862  43.761   0.500   7.182
 2828POPC   C1B38863  43.981   0.798   6.112
 2828POPC   C2B38864  43.965   0.628   6.520
 2828POPC   C3B38865  44.120   0.754   6.935
 2828POPC   C4B38866  44.189   0.642   7.394
 2829POPC   NC338867   3.384   7.364   5.552
 2829POPC   PO438868   4.067   7.526   5.292
 2829POPC   GL138869   3.826   7.593   5.683
 2829POPC   GL238870   3.809   7.272   5.841
 2829POPC   C1A38871   3.601   7.610   6.127
 2829POPC   D2A38872   3.678   7.325   6.479
 2829POPC   C3A38873   3.609   7.528   6.832
 2829POPC   C4A38874   3.652   7.742   7.190
 2829POPC   C1B38875   3.405   7.088   6.110
 2829POPC   C2B38876   3.308   6.910   6.510
 2829POPC   C3B38877   3.301   7.105   6.889
 2829POPC   C4B38878   3.507   7.224   7.244
 2830POPC   NC338879  42.248   1.888   5.461
 2830POPC   PO438880  42.725   2.326   5.159
 2830POPC   GL138881  42.533   2.266   5.660
 2830POPC   GL238882  42.417   1.938   5.930
 2830POPC   C1A38883  42.215   2.372   6.026
 2830POPC   D2A38884  42.258   2.306   6.486
 2830POPC   C3A38885  42.006   2.263   6.863
 2830POPC   C4A38886  42.132   2.235   7.242
 2830POPC   C1B38887  42.154   1.745   6.279
 2830POPC   C2B38888  42.061   1.775   6.739
 2830POPC   C3B38889  42.428   1.926   6.945
 2830POPC   C4B38890  42.692   2.201   7.170
 2831POPC   NC338891  22.304  29.713   5.333
 2831POPC   PO438892  21.711  29.981   5.479
 2831POPC   GL138893  21.974  29.815   5.848
 2831POPC   GL238894  22.368  29.832   5.828
 2831POPC   C1A38895  21.874  29.813   6.323
 2831POPC   D2A38896  22.089  29.948   6.723
 2831POPC   C3A38897  22.034  29.786   7.158
 2831POPC   C4A38898  21.983  29.943   7.604
 2831POPC   C1B38899  22.371  29.998   6.249
 2831POPC   C2B38900  22.535  30.191   6.614
 2831POPC   C3B38901  22.505  30.044   7.015
 2831POPC   C4B38902  22.464  29.901   7.419
 2832POPC   NC338903  14.566  34.043   5.241
 2832POPC   PO438904  14.653  33.599   5.343
 2832POPC   GL138905  14.556  33.727   5.784
 2832POPC   GL238906  14.664  34.065   5.777
 2832POPC   C1A38907  14.323  33.681   6.217
 2832POPC   D2A38908  14.106  33.685   6.650
 2832POPC   C3A38909  14.323  33.740   7.080
 2832POPC   C4A38910  14.519  33.817   7.510
 2832POPC   C1B38911  14.761  33.961   6.230
 2832POPC   C2B38912  14.557  33.946   6.655
 2832POPC   C3B38913  14.628  34.153   7.078
 2832POPC   C4B38914  14.657  34.363   7.499
 2833POPC   NC338915  38.936  36.709   5.177
 2833POPC   PO438916  39.518  36.881   5.395
 2833POPC   GL138917  39.377  37.162   5.722
 2833POPC   GL238918  39.011  37.190   5.802
 2833POPC   C1A38919  39.413  37.025   6.146
 2833POPC   D2A38920  39.355  37.104   6.582
 2833POPC   C3A38921  39.326  36.795   6.899
 2833POPC   C4A38922  39.309  36.891   7.329
 2833POPC   C1B38923  38.904  37.075   6.223
 2833POPC   C2B38924  38.849  37.015   6.653
 2833POPC   C3B38925  39.010  37.195   7.013
 2833POPC   C4B38926  38.883  37.142   7.459
 2834POPC   NC338927  14.286   0.689   5.149
 2834POPC   PO438928  14.705   0.253   5.535
 2834POPC   GL138929  14.325   0.407   5.777
 2834POPC   GL238930  14.104   0.102   5.807
 2834POPC   C1A38931  14.278   0.741   6.136
 2834POPC   D2A38932  14.336   0.948   6.577
 2834POPC   C3A38933  14.330   0.672   6.974
 2834POPC   C4A38934  14.217   0.645   7.434
 2834POPC   C1B38935  14.183   0.234   6.281
 2834POPC   C2B38936  14.319   0.159   6.735
 2834POPC   C3B38937  14.315   0.199   7.193
 2834POPC   C4B38938  14.104   0.148   7.574
 2835POPC   NC338939  12.116  17.137   5.482
 2835POPC   PO438940  11.894  16.421   5.287
 2835POPC   GL138941  12.059  16.651   5.682
 2835POPC   GL238942  12.402  16.817   5.793
 2835POPC   C1A38943  12.041  16.529   6.114
 2835POPC   D2A38944  12.015  16.682   6.526
 2835POPC   C3A38945  11.811  16.503   6.867
 2835POPC   C4A38946  11.753  16.661   7.262
 2835POPC   C1B38947  12.519  16.725   6.242
 2835POPC   C2B38948  12.510  16.799   6.691
 2835POPC   C3B38949  12.273  16.651   7.059
 2835POPC   C4B38950  12.137  16.272   7.226
 2836POPC   NC338951   9.936  18.692   5.619
 2836POPC   PO438952   9.763  19.317   5.288
 2836POPC   GL138953   9.651  19.129   5.656
 2836POPC   GL238954   9.333  18.939   5.552
 2836POPC   C1A38955   9.858  19.110   6.075
 2836POPC   D2A38956  10.027  19.080   6.505
 2836POPC   C3A38957   9.835  19.307   6.841
 2836POPC   C4A38958   9.718  19.172   7.258
 2836POPC   C1B38959   9.379  18.899   6.014
 2836POPC   C2B38960   9.518  19.018   6.441
 2836POPC   C3B38961   9.690  18.825   6.827
 2836POPC   C4B38962   9.429  18.722   7.150
 2837POPC   NC338963  31.208  24.195   5.183
 2837POPC   PO438964  31.773  24.238   5.484
 2837POPC   GL138965  31.538  24.496   5.741
 2837POPC   GL238966  31.221  24.397   5.704
 2837POPC   C1A38967  31.647  24.744   6.067
 2837POPC   D2A38968  31.543  24.782   6.482
 2837POPC   C3A38969  31.411  24.642   6.873
 2837POPC   C4A38970  31.369  24.651   7.342
 2837POPC   C1B38971  31.186  24.545   6.148
 2837POPC   C2B38972  31.094  24.356   6.535
 2837POPC   C3B38973  31.055  24.304   6.940
 2837POPC   C4B38974  30.926  24.407   7.300
 2838POPC   NC338975  35.581  30.894   5.340
 2838POPC   PO438976  35.290  30.321   5.431
 2838POPC   GL138977  35.393  30.645   5.760
 2838POPC   GL238978  35.187  30.972   5.851
 2838POPC   C1A38979  35.242  30.582   6.176
 2838POPC   D2A38980  35.462  30.469   6.543
 2838POPC   C3A38981  35.208  30.562   6.871
 2838POPC   C4A38982  35.415  30.809   7.098
 2838POPC   C1B38983  35.501  31.028   6.223
 2838POPC   C2B38984  35.662  31.030   6.676
 2838POPC   C3B38985  35.773  31.153   7.115
 2838POPC   C4B38986  35.776  30.889   7.500
 2839POPC   NC338987  17.226   6.437   5.382
 2839POPC   PO438988  17.619   7.028   5.362
 2839POPC   GL138989  17.728   6.694   5.723
 2839POPC   GL238990  17.405   6.548   5.845
 2839POPC   C1A38991  17.768   6.518   6.188
 2839POPC   D2A38992  17.567   6.688   6.600
 2839POPC   C3A38993  17.688   6.535   7.059
 2839POPC   C4A38994  17.707   6.589   7.558
 2839POPC   C1B38995  17.261   6.411   6.257
 2839POPC   C2B38996  17.056   6.485   6.659
 2839POPC   C3B38997  17.168   6.581   7.101
 2839POPC   C4B38998  17.371   6.271   7.375
 2840POPC   NC338999  44.373  29.610   5.317
 2840POPC   PO439000  44.815  30.079   5.361
 2840POPC   GL139001  44.693  29.772   5.717
 2840POPC   GL239002  44.354  29.831   5.823
 2840POPC   C1A39003  44.699  29.789   6.191
 2840POPC   D2A39004  44.724  30.097   6.540
 2840POPC   C3A39005  44.909  29.855   6.878
 2840POPC   C4A39006  44.966  29.692   7.304
 2840POPC   C1B39007  44.250  30.020   6.252
 2840POPC   C2B39008  44.231  30.125   6.688
 2840POPC   C3B39009  44.500  30.127   7.018
 2840POPC   C4B39010  44.548  29.954   7.410
 2841POPC   NC339011  25.132  10.183   5.328
 2841POPC   PO439012  25.171   9.497   5.503
 2841POPC   GL139013  25.358   9.554   5.861
 2841POPC   GL239014  25.237   9.902   5.841
 2841POPC   C1A39015  25.180   9.613   6.272
 2841POPC   D2A39016  25.347   9.676   6.647
 2841POPC   C3A39017  25.188   9.509   6.996
 2841POPC   C4A39018  25.328   9.610   7.387
 2841POPC   C1B39019  25.334  10.151   6.218
 2841POPC   C2B39020  25.469  10.167   6.650
 2841POPC   C3B39021  25.325  10.022   7.045
 2841POPC   C4B39022  25.446  10.106   7.474
 2842POPC   NC339023   2.426   7.546   5.332
 2842POPC   PO439024   2.168   7.004   5.511
 2842POPC   GL139025   1.954   7.173   5.833
 2842POPC   GL239026   1.798   7.524   5.778
 2842POPC   C1A39027   2.001   7.164   6.268
 2842POPC   D2A39028   2.189   7.447   6.574
 2842POPC   C3A39029   2.049   7.449   6.998
 2842POPC   C4A39030   2.049   7.101   7.249
 2842POPC   C1B39031   2.181   7.596   6.023
 2842POPC   C2B39032   2.358   7.883   6.361
 2842POPC   C3B39033   2.422   7.892   6.838
 2842POPC   C4B39034   2.089   7.955   7.145
 2843POPC   NC339035  20.990   2.444   5.562
 2843POPC   PO439036  20.383   2.496   5.116
 2843POPC   GL139037  20.488   2.620   5.579
 2843POPC   GL239038  20.492   2.288   5.576
 2843POPC   C1A39039  20.626   2.675   6.093
 2843POPC   D2A39040  20.579   2.834   6.569
 2843POPC   C3A39041  20.695   2.677   7.013
 2843POPC   C4A39042  20.910   2.905   7.362
 2843POPC   C1B39043  20.253   2.357   5.962
 2843POPC   C2B39044  20.221   2.512   6.393
 2843POPC   C3B39045  20.210   2.530   6.854
 2843POPC   C4B39046  20.329   2.373   7.273
 2844POPC   NC339047   5.966  27.731   5.404
 2844POPC   PO439048   5.647  27.303   5.493
 2844POPC   GL139049   5.670  27.617   5.845
 2844POPC   GL239050   5.980  27.778   5.912
 2844POPC   C1A39051   5.710  27.636   6.321
 2844POPC   D2A39052   5.857  27.862   6.689
 2844POPC   C3A39053   5.731  27.662   7.044
 2844POPC   C4A39054   5.679  27.651   7.487
 2844POPC   C1B39055   6.210  27.784   6.309
 2844POPC   C2B39056   6.297  27.637   6.753
 2844POPC   C3B39057   6.250  27.757   7.194
 2844POPC   C4B39058   6.216  27.898   7.635
 2845POPC   NC339059   6.736  35.728   5.411
 2845POPC   PO439060   6.228  36.129   5.547
 2845POPC   GL139061   6.405  36.009   5.940
 2845POPC   GL239062   6.764  35.854   5.928
 2845POPC   C1A39063   6.577  36.070   6.353
 2845POPC   D2A39064   6.582  35.822   6.720
 2845POPC   C3A39065   6.404  36.067   7.069
 2845POPC   C4A39066   6.345  36.023   7.506
 2845POPC   C1B39067   6.979  35.719   6.355
 2845POPC   C2B39068   7.111  35.679   6.834
 2845POPC   C3B39069   7.321  35.923   7.199
 2845POPC   C4B39070   7.304  36.035   7.660
 2846POPC   NC339071  15.522  14.963   5.348
 2846POPC   PO439072  14.982  15.373   5.377
 2846POPC   GL139073  15.074  15.162   5.754
 2846POPC   GL239074  14.991  15.464   5.894
 2846POPC   C1A39075  15.219  15.048   6.193
 2846POPC   D2A39076  15.235  14.746   6.552
 2846POPC   C3A39077  15.103  14.846   6.997
 2846POPC   C4A39078  15.151  15.032   7.445
 2846POPC   C1B39079  15.031  15.519   6.295
 2846POPC   C2B39080  15.152  15.263   6.649
 2846POPC   C3B39081  15.186  15.355   7.058
 2846POPC   C4B39082  14.838  15.402   7.279
 2847POPC   NC339083  16.318  36.659   5.588
 2847POPC   PO439084  16.916  36.645   5.404
 2847POPC   GL139085  16.888  36.928   5.735
 2847POPC   GL239086  16.548  37.058   5.814
 2847POPC   C1A39087  16.872  36.761   6.142
 2847POPC   D2A39088  16.603  36.777   6.482
 2847POPC   C3A39089  16.785  37.067   6.770
 2847POPC   C4A39090  16.923  36.936   7.171
 2847POPC   C1B39091  16.450  37.248   6.208
 2847POPC   C2B39092  16.300  37.158   6.609
 2847POPC   C3B39093  16.238  37.364   6.962
 2847POPC   C4B39094  16.591  37.335   7.169
 2848POPC   NC339095  35.096   9.982   5.004
 2848POPC   PO439096  35.602   9.685   5.375
 2848POPC   GL139097  35.546   9.770   5.832
 2848POPC   GL239098  35.209   9.636   5.855
 2848POPC   C1A39099  35.480   9.639   6.279
 2848POPC   D2A39100  35.300   9.321   6.541
 2848POPC   C3A39101  35.287   9.553   6.898
 2848POPC   C4A39102  35.354   9.730   7.292
 2848POPC   C1B39103  35.163  10.028   6.139
 2848POPC   C2B39104  35.012  10.207   6.568
 2848POPC   C3B39105  35.120  10.075   6.990
 2848POPC   C4B39106  35.023  10.070   7.446
 2849POPC   NC339107   7.565  13.370   5.403
 2849POPC   PO439108   7.070  13.773   5.711
 2849POPC   GL139109   7.239  13.405   5.814
 2849POPC   GL239110   7.569  13.592   5.864
 2849POPC   C1A39111   7.172  13.278   6.236
 2849POPC   D2A39112   7.368  13.494   6.591
 2849POPC   C3A39113   7.177  13.496   6.994
 2849POPC   C4A39114   7.227  13.768   7.330
 2849POPC   C1B39115   7.747  13.766   6.247
 2849POPC   C2B39116   7.719  13.872   6.678
 2849POPC   C3B39117   7.668  13.637   7.031
 2849POPC   C4B39118   7.751  13.656   7.454
 2850POPC   NC339119  26.596  25.989   5.255
 2850POPC   PO439120  26.920  26.578   5.329
 2850POPC   GL139121  26.921  26.224   5.615
 2850POPC   GL239122  27.270  26.158   5.668
 2850POPC   C1A39123  26.791  25.988   6.020
 2850POPC   D2A39124  26.897  25.772   6.434
 2850POPC   C3A39125  26.843  25.922   6.871
 2850POPC   C4A39126  26.944  25.898   7.338
 2850POPC   C1B39127  27.151  26.341   6.083
 2850POPC   C2B39128  27.186  26.212   6.514
 2850POPC   C3B39129  27.126  26.350   6.916
 2850POPC   C4B39130  26.805  26.372   7.206
 2851POPC   NC339131   8.170   2.586   5.520
 2851POPC   PO439132   8.754   2.822   5.307
 2851POPC   GL139133   8.523   2.866   5.772
 2851POPC   GL239134   8.147   2.890   5.908
 2851POPC   C1A39135   8.539   2.829   6.233
 2851POPC   D2A39136   8.510   2.579   6.624
 2851POPC   C3A39137   8.466   2.699   7.059
 2851POPC   C4A39138   8.347   3.087   7.213
 2851POPC   C1B39139   8.061   2.721   6.335
 2851POPC   C2B39140   8.114   2.942   6.734
 2851POPC   C3B39141   7.821   2.936   7.086
 2851POPC   C4B39142   7.754   3.097   7.488
 2852POPC   NC339143  42.508  40.580   5.421
 2852POPC   PO439144  41.995  41.063   5.486
 2852POPC   GL139145  42.248  40.851   5.785
 2852POPC   GL239146  42.491  41.042   5.949
 2852POPC   C1A39147  42.239  40.556   6.120
 2852POPC   D2A39148  42.194  40.327   6.517
 2852POPC   C3A39149  42.371  40.556   6.845
 2852POPC   C4A39150  42.307  40.632   7.272
 2852POPC   C1B39151  42.279  41.106   6.324
 2852POPC   C2B39152  42.319  41.061   6.775
 2852POPC   C3B39153  42.609  41.040   7.144
 2852POPC   C4B39154  42.680  41.058   7.654
 2853POPC   NC339155  23.445  27.510   5.398
 2853POPC   PO439156  24.100  27.758   5.365
 2853POPC   GL139157  23.872  27.533   5.699
 2853POPC   GL239158  23.616  27.769   5.784
 2853POPC   C1A39159  23.711  27.442   6.159
 2853POPC   D2A39160  23.795  27.622   6.594
 2853POPC   C3A39161  23.579  27.425   6.963
 2853POPC   C4A39162  23.658  27.371   7.410
 2853POPC   C1B39163  23.325  27.872   6.071
 2853POPC   C2B39164  23.503  28.021   6.431
 2853POPC   C3B39165  23.424  27.909   6.846
 2853POPC   C4B39166  23.268  27.748   7.218
 2854POPC   NC339167  32.850  44.122   5.507
 2854POPC   PO439168  33.414  43.728   5.409
 2854POPC   GL139169  33.259  43.552   5.799
 2854POPC   GL239170  32.914  43.693   5.809
 2854POPC   C1A39171  33.466  43.466   6.213
 2854POPC   D2A39172  33.390  43.649   6.648
 2854POPC   C3A39173  33.294  43.465   7.057
 2854POPC   C4A39174  33.136  43.731   7.449
 2854POPC   C1B39175  33.113  43.837   6.204
 2854POPC   C2B39176  32.926  43.891   6.592
 2854POPC   C3B39177  33.044  43.952   6.984
 2854POPC   C4B39178  32.797  44.089   7.368
 2855POPC   NC339179  20.335   0.683   5.364
 2855POPC   PO439180  20.431   1.395   5.336
 2855POPC   GL139181  20.392   1.324   5.772
 2855POPC   GL239182  20.672   1.148   5.837
 2855POPC   C1A39183  20.335   1.245   6.221
 2855POPC   D2A39184  20.429   1.040   6.597
 2855POPC   C3A39185  20.307   1.209   6.950
 2855POPC   C4A39186  20.656   1.273   7.160
 2855POPC   C1B39187  20.823   1.409   6.196
 2855POPC   C2B39188  20.974   1.329   6.603
 2855POPC   C3B39189  21.097   1.103   6.964
 2855POPC   C4B39190  21.063   1.150   7.415
 2856POPC   NC339191   4.170  13.664   5.333
 2856POPC   PO439192   4.862  13.619   5.398
 2856POPC   GL139193   4.520  13.527   5.726
 2856POPC   GL239194   4.317  13.812   5.838
 2856POPC   C1A39195   4.430  13.390   6.161
 2856POPC   D2A39196   4.349  13.572   6.584
 2856POPC   C3A39197   4.571  13.415   6.923
 2856POPC   C4A39198   4.697  13.507   7.333
 2856POPC   C1B39199   4.024  13.735   6.214
 2856POPC   C2B39200   3.874  13.402   6.532
 2856POPC   C3B39201   4.037  13.344   6.952
 2856POPC   C4B39202   4.214  13.675   7.206
 2857POPC   NC339203  35.070  36.611   5.377
 2857POPC   PO439204  35.662  36.955   5.387
 2857POPC   GL139205  35.412  36.837   5.742
 2857POPC   GL239206  35.177  37.060   5.882
 2857POPC   C1A39207  35.434  36.786   6.206
 2857POPC   D2A39208  35.681  36.805   6.584
 2857POPC   C3A39209  35.546  36.672   6.985
 2857POPC   C4A39210  35.163  36.673   7.210
 2857POPC   C1B39211  35.156  37.213   6.283
 2857POPC   C2B39212  35.401  37.221   6.603
 2857POPC   C3B39213  35.326  37.138   6.978
 2857POPC   C4B39214  35.366  37.119   7.376
 2858POPC   NC339215   6.345   7.986   5.422
 2858POPC   PO439216   6.664   7.373   5.323
 2858POPC   GL139217   6.590   7.296   5.756
 2858POPC   GL239218   6.391   7.572   5.794
 2858POPC   C1A39219   6.529   7.188   6.195
 2858POPC   D2A39220   6.635   7.467   6.507
 2858POPC   C3A39221   6.739   7.233   6.863
 2858POPC   C4A39222   6.845   7.447   7.221
 2858POPC   C1B39223   6.210   7.591   6.225
 2858POPC   C2B39224   6.201   7.776   6.616
 2858POPC   C3B39225   6.449   7.682   6.941
 2858POPC   C4B39226   6.358   7.646   7.335
 2859POPC   NC339227  23.828  41.402   5.397
 2859POPC   PO439228  23.323  41.840   5.561
 2859POPC   GL139229  23.612  41.630   5.803
 2859POPC   GL239230  23.529  41.271   5.849
 2859POPC   C1A39231  23.937  41.777   6.096
 2859POPC   D2A39232  23.948  41.998   6.493
 2859POPC   C3A39233  23.879  41.738   6.820
 2859POPC   C4A39234  23.729  41.797   7.223
 2859POPC   C1B39235  23.505  41.472   6.264
 2859POPC   C2B39236  23.393  41.730   6.609
 2859POPC   C3B39237  23.441  41.467   6.941
 2859POPC   C4B39238  23.839  41.283   7.119
 2860POPC   NC339239  42.060  24.341   5.424
 2860POPC   PO439240  42.602  24.817   5.544
 2860POPC   GL139241  42.538  24.405   5.702
 2860POPC   GL239242  42.216  24.522   5.883
 2860POPC   C1A39243  42.609  24.305   6.135
 2860POPC   D2A39244  42.343  24.381   6.500
 2860POPC   C3A39245  42.459  24.612   6.857
 2860POPC   C4A39246  42.549  24.407   7.218
 2860POPC   C1B39247  41.998  24.752   6.247
 2860POPC   C2B39248  41.932  24.631   6.707
 2860POPC   C3B39249  42.034  24.424   7.098
 2860POPC   C4B39250  42.069  24.515   7.560
 2861POPC   NC339251  11.471  19.340   5.597
 2861POPC   PO439252  11.184  18.740   5.484
 2861POPC   GL139253  11.418  18.857   5.851
 2861POPC   GL239254  11.157  19.104   5.940
 2861POPC   C1A39255  11.433  18.872   6.321
 2861POPC   D2A39256  11.689  18.985   6.664
 2861POPC   C3A39257  11.518  19.211   7.000
 2861POPC   C4A39258  11.131  19.070   7.180
 2861POPC   C1B39259  11.376  19.385   6.235
 2861POPC   C2B39260  11.206  19.643   6.523
 2861POPC   C3B39261  11.116  19.540   6.916
 2861POPC   C4B39262  11.107  19.700   7.304
 2862POPC   NC339263  22.624  16.133   5.403
 2862POPC   PO439264  22.852  15.639   5.067
 2862POPC   GL139265  22.995  15.800   5.483
 2862POPC   GL239266  22.801  15.560   5.659
 2862POPC   C1A39267  23.042  15.966   5.944
 2862POPC   D2A39268  22.950  15.980   6.441
 2862POPC   C3A39269  23.213  15.996   6.860
 2862POPC   C4A39270  23.184  16.272   7.243
 2862POPC   C1B39271  22.814  15.525   6.121
 2862POPC   C2B39272  22.642  15.525   6.533
 2862POPC   C3B39273  22.714  15.799   6.873
 2862POPC   C4B39274  22.793  15.921   7.285
 2863POPC   NC339275  11.088  44.192   5.565
 2863POPC   PO439276  11.611  43.671   5.476
 2863POPC   GL139277  11.492  43.912   5.786
 2863POPC   GL239278  11.183  43.737   5.777
 2863POPC   C1A39279  11.338  44.060   6.168
 2863POPC   D2A39280  11.339  43.812   6.516
 2863POPC   C3A39281  11.374  44.025   6.847
 2863POPC   C4A39282  11.427  43.902   7.226
 2863POPC   C1B39283  11.164  43.507   6.141
 2863POPC   C2B39284  11.026  43.417   6.571
 2863POPC   C3B39285  11.090  43.590   6.989
 2863POPC   C4B39286  10.984  43.457   7.428
 2864POPC   NC339287  40.675  33.516   5.594
 2864POPC   PO439288  40.713  34.169   5.553
 2864POPC   GL139289  41.012  34.040   5.881
 2864POPC   GL239290  41.083  33.704   5.864
 2864POPC   C1A39291  40.885  33.976   6.330
 2864POPC   D2A39292  40.548  33.911   6.664
 2864POPC   C3A39293  40.681  33.986   7.113
 2864POPC   C4A39294  40.725  33.683   7.472
 2864POPC   C1B39295  40.943  33.465   6.233
 2864POPC   C2B39296  40.934  33.562   6.697
 2864POPC   C3B39297  41.098  33.644   7.118
 2864POPC   C4B39298  41.346  33.432   7.457
 2865POPC   NC339299  19.505  33.808   5.441
 2865POPC   PO439300  20.123  33.659   5.325
 2865POPC   GL139301  20.066  33.959   5.699
 2865POPC   GL239302  19.752  33.877   5.864
 2865POPC   C1A39303  20.064  34.146   6.138
 2865POPC   D2A39304  19.821  34.021   6.510
 2865POPC   C3A39305  19.964  34.178   6.911
 2865POPC   C4A39306  20.132  34.287   7.318
 2865POPC   C1B39307  19.933  33.639   6.147
 2865POPC   C2B39308  20.100  33.543   6.535
 2865POPC   C3B39309  19.923  33.652   6.915
 2865POPC   C4B39310  19.881  33.843   7.291
 2866POPC   NC339311  43.471  29.533   5.428
 2866POPC   PO439312  43.207  30.172   5.297
 2866POPC   GL139313  42.988  30.072   5.733
 2866POPC   GL239314  43.133  29.741   5.758
 2866POPC   C1A39315  42.845  29.825   6.167
 2866POPC   D2A39316  42.910  29.652   6.607
 2866POPC   C3A39317  42.787  29.832   6.997
 2866POPC   C4A39318  42.923  30.073   7.342
 2866POPC   C1B39319  43.339  29.979   6.069
 2866POPC   C2B39320  43.371  30.052   6.484
 2866POPC   C3B39321  43.232  30.076   6.893
 2866POPC   C4B39322  43.364  29.781   7.175
 2867POPC   NC339323  41.736  22.633   5.470
 2867POPC   PO439324  41.943  23.198   5.716
 2867POPC   GL139325  41.675  23.042   5.949
 2867POPC   GL239326  41.402  22.880   5.786
 2867POPC   C1A39327  41.701  23.077   6.375
 2867POPC   D2A39328  41.907  22.966   6.699
 2867POPC   C3A39329  41.696  22.944   7.066
 2867POPC   C4A39330  41.766  22.894   7.495
 2867POPC   C1B39331  41.344  22.763   6.217
 2867POPC   C2B39332  41.311  22.715   6.685
 2867POPC   C3B39333  41.197  22.934   7.097
 2867POPC   C4B39334  41.271  23.222   7.441
 2868POPC   NC339335  44.016  11.820   5.295
 2868POPC   PO439336  43.406  11.995   5.211
 2868POPC   GL139337  43.683  12.125   5.675
 2868POPC   GL239338  44.019  11.926   5.818
 2868POPC   C1A39339  43.818  12.197   6.176
 2868POPC   D2A39340  44.144  12.045   6.519
 2868POPC   C3A39341  44.102  12.211   6.962
 2868POPC   C4A39342  43.781  12.528   7.113
 2868POPC   C1B39343  43.849  11.689   6.216
 2868POPC   C2B39344  43.773  11.706   6.672
 2868POPC   C3B39345  43.931  11.726   7.092
 2868POPC   C4B39346  43.873  11.777   7.526
 2869POPC   NC339347  39.553  18.243   5.413
 2869POPC   PO439348  40.117  18.389   5.400
 2869POPC   GL139349  39.992  18.588   5.847
 2869POPC   GL239350  39.686  18.790   5.853
 2869POPC   C1A39351  40.180  18.697   6.289
 2869POPC   D2A39352  40.248  18.616   6.759
 2869POPC   C3A39353  39.920  18.253   6.900
 2869POPC   C4A39354  39.657  17.956   7.148
 2869POPC   C1B39355  39.656  18.689   6.289
 2869POPC   C2B39356  39.709  18.683   6.731
 2869POPC   C3B39357  39.911  18.691   7.142
 2869POPC   C4B39358  39.824  18.737   7.562
 2870POPC   NC339359  40.132   1.267   5.379
 2870POPC   PO439360  39.766   1.719   5.465
 2870POPC   GL139361  39.812   1.440   5.836
 2870POPC   GL239362  40.038   1.136   5.867
 2870POPC   C1A39363  39.767   1.371   6.274
 2870POPC   D2A39364  39.884   1.603   6.649
 2870POPC   C3A39365  39.754   1.382   7.054
 2870POPC   C4A39366  39.788   1.076   7.421
 2870POPC   C1B39367  40.228   1.112   6.270
 2870POPC   C2B39368  40.046   1.122   6.685
 2870POPC   C3B39369  40.140   0.962   7.071
 2870POPC   C4B39370  40.197   0.709   7.434
 2871POPC   NC339371  43.214  25.361   5.194
 2871POPC   PO439372  43.505  24.838   5.571
 2871POPC   GL139373  43.239  25.079   5.886
 2871POPC   GL239374  43.220  25.392   5.728
 2871POPC   C1A39375  43.425  25.305   6.225
 2871POPC   D2A39376  43.507  25.355   6.644
 2871POPC   C3A39377  43.165  25.236   6.885
 2871POPC   C4A39378  43.042  25.122   7.298
 2871POPC   C1B39379  43.195  25.720   6.060
 2871POPC   C2B39380  43.108  25.637   6.484
 2871POPC   C3B39381  43.107  25.747   6.890
 2871POPC   C4B39382  42.800  25.585   7.142
 2872POPC   NC339383   8.321  34.159   5.431
 2872POPC   PO439384   8.193  33.466   5.434
 2872POPC   GL139385   8.472  33.719   5.724
 2872POPC   GL239386   8.330  34.044   5.916
 2872POPC   C1A39387   8.563  33.666   6.166
 2872POPC   D2A39388   8.280  33.796   6.516
 2872POPC   C3A39389   8.186  33.593   6.928
 2872POPC   C4A39390   8.401  33.810   7.226
 2872POPC   C1B39391   7.942  33.952   6.129
 2872POPC   C2B39392   7.771  34.007   6.545
 2872POPC   C3B39393   8.030  34.067   6.904
 2872POPC   C4B39394   7.938  33.998   7.333
 2873POPC   NC339395  26.983   1.588   5.290
 2873POPC   PO439396  26.958   0.921   5.135
 2873POPC   GL139397  26.893   1.049   5.634
 2873POPC   GL239398  26.644   1.315   5.592
 2873POPC   C1A39399  27.041   0.960   6.137
 2873POPC   D2A39400  26.879   0.883   6.615
 2873POPC   C3A39401  27.073   1.054   7.030
 2873POPC   C4A39402  27.223   1.296   7.426
 2873POPC   C1B39403  26.620   1.223   6.035
 2873POPC   C2B39404  26.638   1.349   6.472
 2873POPC   C3B39405  26.498   1.331   6.903
 2873POPC   C4B39406  26.666   1.219   7.291
 2874POPC   NC339407   1.440  15.307   5.375
 2874POPC   PO439408   1.005  14.835   5.606
 2874POPC   GL139409   1.033  15.287   5.726
 2874POPC   GL239410   1.369  15.452   5.856
 2874POPC   C1A39411   0.939  15.395   6.123
 2874POPC   D2A39412   1.094  15.153   6.471
 2874POPC   C3A39413   1.123  15.335   6.870
 2874POPC   C4A39414   1.172  15.129   7.247
 2874POPC   C1B39415   1.438  15.046   6.079
 2874POPC   C2B39416   1.508  14.833   6.485
 2874POPC   C3B39417   1.463  14.902   6.903
 2874POPC   C4B39418   1.653  14.899   7.299
 2875POPC   NC339419   7.614  19.588   5.400
 2875POPC   PO439420   7.203  19.131   5.125
 2875POPC   GL139421   7.328  19.223   5.643
 2875POPC   GL239422   7.621  19.329   5.869
 2875POPC   C1A39423   7.214  19.090   6.087
 2875POPC   D2A39424   7.096  19.226   6.495
 2875POPC   C3A39425   7.417  19.144   6.796
 2875POPC   C4A39426   7.374  19.071   7.216
 2875POPC   C1B39427   7.592  19.361   6.336
 2875POPC   C2B39428   7.798  19.493   6.721
 2875POPC   C3B39429   7.680  19.479   7.138
 2875POPC   C4B39430   7.743  19.231   7.524
 2876POPC   NC339431  37.046  28.138   5.282
 2876POPC   PO439432  36.390  28.286   5.345
 2876POPC   GL139433  36.728  28.273   5.695
 2876POPC   GL239434  37.059  28.467   5.716
 2876POPC   C1A39435  36.905  28.131   6.099
 2876POPC   D2A39436  36.924  28.284   6.529
 2876POPC   C3A39437  36.882  28.023   6.860
 2876POPC   C4A39438  37.163  27.843   7.178
 2876POPC   C1B39439  37.044  28.620   6.168
 2876POPC   C2B39440  37.111  28.745   6.642
 2876POPC   C3B39441  37.179  28.419   7.007
 2876POPC   C4B39442  37.209  28.478   7.480
 2877POPC   NC339443  32.044  21.162   5.381
 2877POPC   PO439444  32.507  21.571   5.607
 2877POPC   GL139445  32.312  21.235   5.799
 2877POPC   GL239446  32.597  21.060   5.918
 2877POPC   C1A39447  32.138  21.081   6.158
 2877POPC   D2A39448  32.136  21.244   6.563
 2877POPC   C3A39449  31.929  21.109   6.918
 2877POPC   C4A39450  31.932  21.387   7.246
 2877POPC   C1B39451  32.518  21.442   6.210
 2877POPC   C2B39452  32.278  21.728   6.468
 2877POPC   C3B39453  32.236  21.656   6.914
 2877POPC   C4B39454  32.580  21.593   7.277
 2878POPC   NC339455  12.242  12.593   5.239
 2878POPC   PO439456  12.310  13.213   5.279
 2878POPC   GL139457  12.339  12.895   5.652
 2878POPC   GL239458  12.035  12.738   5.840
 2878POPC   C1A39459  12.437  12.916   6.101
 2878POPC   D2A39460  12.137  12.814   6.436
 2878POPC   C3A39461  12.257  12.825   6.869
 2878POPC   C4A39462  12.057  12.982   7.246
 2878POPC   C1B39463  11.780  12.530   6.204
 2878POPC   C2B39464  11.768  12.494   6.674
 2878POPC   C3B39465  11.940  12.495   7.108
 2878POPC   C4B39466  11.855  12.563   7.587
 2879POPC   NC339467   9.606  41.702   5.368
 2879POPC   PO439468   9.286  41.247   5.599
 2879POPC   GL139469   9.513  41.593   5.888
 2879POPC   GL239470   9.703  41.932   5.807
 2879POPC   C1A39471   9.712  41.737   6.320
 2879POPC   D2A39472   9.731  42.010   6.741
 2879POPC   C3A39473   9.681  41.821   7.156
 2879POPC   C4A39474   9.559  41.650   7.582
 2879POPC   C1B39475  10.086  41.993   6.078
 2879POPC   C2B39476  10.189  41.918   6.537
 2879POPC   C3B39477  10.188  41.913   7.022
 2879POPC   C4B39478  10.380  41.925   7.460
 2880POPC   NC339479   5.844  13.125   5.490
 2880POPC   PO439480   5.509  12.607   5.557
 2880POPC   GL139481   5.859  12.712   5.818
 2880POPC   GL239482   5.771  12.962   5.986
 2880POPC   C1A39483   5.898  12.508   6.219
 2880POPC   D2A39484   5.645  12.508   6.580
 2880POPC   C3A39485   5.901  12.468   6.939
 2880POPC   C4A39486   6.084  12.760   7.231
 2880POPC   C1B39487   5.735  13.074   6.410
 2880POPC   C2B39488   5.411  13.018   6.707
 2880POPC   C3B39489   5.411  12.882   7.131
 2880POPC   C4B39490   5.673  13.026   7.471
 2881POPC   NC339491   4.828  15.466   5.403
 2881POPC   PO439492   5.477  15.237   5.584
 2881POPC   GL139493   5.150  15.001   5.840
 2881POPC   GL239494   4.807  15.120   5.812
 2881POPC   C1A39495   5.055  14.913   6.281
 2881POPC   D2A39496   5.001  15.148   6.656
 2881POPC   C3A39497   5.033  15.014   7.060
 2881POPC   C4A39498   5.304  15.334   7.258
 2881POPC   C1B39499   4.839  15.407   6.176
 2881POPC   C2B39500   4.627  15.465   6.568
 2881POPC   C3B39501   4.806  15.526   7.004
 2881POPC   C4B39502   4.837  15.323   7.402
 2882POPC   NC339503  15.839  35.830   5.613
 2882POPC   PO439504  16.170  36.352   5.277
 2882POPC   GL139505  15.994  36.292   5.737
 2882POPC   GL239506  16.084  36.026   6.008
 2882POPC   C1A39507  15.836  36.427   6.172
 2882POPC   D2A39508  15.850  36.191   6.564
 2882POPC   C3A39509  15.754  36.361   6.944
 2882POPC   C4A39510  15.999  36.590   7.210
 2882POPC   C1B39511  16.264  35.957   6.406
 2882POPC   C2B39512  16.159  35.831   6.807
 2882POPC   C3B39513  16.067  36.016   7.214
 2882POPC   C4B39514  16.175  35.870   7.667
 2883POPC   NC339515  24.161  34.218   5.305
 2883POPC   PO439516  24.701  34.528   5.477
 2883POPC   GL139517  24.485  34.600   5.826
 2883POPC   GL239518  24.262  34.886   5.711
 2883POPC   C1A39519  24.714  34.632   6.245
 2883POPC   D2A39520  24.946  34.492   6.641
 2883POPC   C3A39521  24.616  34.376   6.928
 2883POPC   C4A39522  24.410  34.326   7.296
 2883POPC   C1B39523  24.288  34.924   6.160
 2883POPC   C2B39524  24.318  34.927   6.621
 2883POPC   C3B39525  24.297  34.794   7.055
 2883POPC   C4B39526  24.678  34.778   7.333
 2884POPC   NC339527  29.754  33.047   5.193
 2884POPC   PO439528  30.300  33.361   5.505
 2884POPC   GL139529  30.020  33.133   5.740
 2884POPC   GL239530  29.675  33.256   5.660
 2884POPC   C1A39531  30.019  33.140   6.198
 2884POPC   D2A39532  30.042  32.919   6.618
 2884POPC   C3A39533  30.007  33.180   7.045
 2884POPC   C4A39534  29.960  33.234   7.541
 2884POPC   C1B39535  29.577  32.968   5.978
 2884POPC   C2B39536  29.552  33.025   6.427
 2884POPC   C3B39537  29.595  32.922   6.870
 2884POPC   C4B39538  29.734  32.809   7.287
 2885POPC   NC339539  27.219  33.814   5.503
 2885POPC   PO439540  26.632  33.404   5.325
 2885POPC   GL139541  26.568  33.510   5.751
 2885POPC   GL239542  26.732  33.823   5.735
 2885POPC   C1A39543  26.590  33.376   6.200
 2885POPC   D2A39544  26.670  33.260   6.677
 2885POPC   C3A39545  26.516  33.564   7.032
 2885POPC   C4A39546  26.509  33.975   7.280
 2885POPC   C1B39547  26.993  33.701   6.110
 2885POPC   C2B39548  27.308  33.604   6.458
 2885POPC   C3B39549  27.307  33.591   6.929
 2885POPC   C4B39550  26.982  33.735   7.238
 2886POPC   NC339551  11.538  32.643   5.584
 2886POPC   PO439552  11.353  32.086   5.411
 2886POPC   GL139553  11.177  32.298   5.811
 2886POPC   GL239554  10.867  32.528   5.868
 2886POPC   C1A39555  11.327  32.205   6.235
 2886POPC   D2A39556  11.460  32.360   6.632
 2886POPC   C3A39557  11.420  32.068   6.959
 2886POPC   C4A39558  11.089  31.987   7.218
 2886POPC   C1B39559  11.095  32.655   6.233
 2886POPC   C2B39560  10.989  32.585   6.669
 2886POPC   C3B39561  11.154  32.534   7.089
 2886POPC   C4B39562  11.053  32.437   7.525
 2887POPC   NC339563  22.369  36.379   5.423
 2887POPC   PO439564  21.927  36.908   5.227
 2887POPC   GL139565  22.062  36.990   5.658
 2887POPC   GL239566  22.275  36.723   5.800
 2887POPC   C1A39567  22.121  37.134   6.077
 2887POPC   D2A39568  22.034  36.943   6.464
 2887POPC   C3A39569  22.168  37.083   6.851
 2887POPC   C4A39570  22.059  36.963   7.259
 2887POPC   C1B39571  22.465  36.753   6.226
 2887POPC   C2B39572  22.369  36.621   6.665
 2887POPC   C3B39573  22.246  36.518   7.089
 2887POPC   C4B39574  22.560  36.371   7.381
 2888POPC   NC339575  31.754  37.187   5.689
 2888POPC   PO439576  32.023  36.667   5.349
 2888POPC   GL139577  32.207  36.786   5.746
 2888POPC   GL239578  32.272  37.137   5.653
 2888POPC   C1A39579  32.539  36.755   6.072
 2888POPC   D2A39580  32.658  36.900   6.463
 2888POPC   C3A39581  32.398  36.709   6.746
 2888POPC   C4A39582  32.423  36.835   7.147
 2888POPC   C1B39583  32.293  37.220   6.097
 2888POPC   C2B39584  32.114  37.033   6.454
 2888POPC   C3B39585  32.136  37.177   6.872
 2888POPC   C4B39586  32.037  37.352   7.261
 2889POPC   NC339587  21.977  26.498   5.060
 2889POPC   PO439588  22.239  25.911   5.298
 2889POPC   GL139589  22.255  26.134   5.725
 2889POPC   GL239590  22.535  26.342   5.773
 2889POPC   C1A39591  22.094  26.244   6.164
 2889POPC   D2A39592  21.937  25.944   6.502
 2889POPC   C3A39593  21.645  26.088   6.838
 2889POPC   C4A39594  21.753  26.210   7.256
 2889POPC   C1B39595  22.613  26.218   6.215
 2889POPC   C2B39596  22.412  26.190   6.626
 2889POPC   C3B39597  22.178  26.023   6.994
 2889POPC   C4B39598  22.238  26.152   7.442
 2890POPC   NC339599  36.687  37.742   5.389
 2890POPC   PO439600  37.311  37.897   5.392
 2890POPC   GL139601  37.267  37.705   5.777
 2890POPC   GL239602  37.290  38.050   5.908
 2890POPC   C1A39603  37.079  37.447   6.118
 2890POPC   D2A39604  37.034  37.341   6.557
 2890POPC   C3A39605  36.796  37.562   6.863
 2890POPC   C4A39606  36.749  37.477   7.290
 2890POPC   C1B39607  37.172  37.908   6.314
 2890POPC   C2B39608  37.223  37.859   6.754
 2890POPC   C3B39609  37.097  37.893   7.181
 2890POPC   C4B39610  37.279  37.997   7.568
 2891POPC   NC339611  18.396  39.177   5.416
 2891POPC   PO439612  18.580  39.764   5.581
 2891POPC   GL139613  18.309  39.474   5.850
 2891POPC   GL239614  18.173  39.103   5.859
 2891POPC   C1A39615  18.308  39.403   6.273
 2891POPC   D2A39616  18.568  39.486   6.656
 2891POPC   C3A39617  18.337  39.513   7.059
 2891POPC   C4A39618  18.237  39.294   7.465
 2891POPC   C1B39619  18.433  38.928   6.194
 2891POPC   C2B39620  18.302  39.039   6.641
 2891POPC   C3B39621  18.378  38.985   7.070
 2891POPC   C4B39622  18.382  38.785   7.436
 2892POPC   NC339623  20.425  34.193   5.374
 2892POPC   PO439624  20.852  33.736   5.322
 2892POPC   GL139625  20.594  33.813   5.702
 2892POPC   GL239626  20.768  33.529   5.837
 2892POPC   C1A39627  20.448  33.778   6.169
 2892POPC   D2A39628  20.355  34.018   6.561
 2892POPC   C3A39629  20.387  33.869   6.985
 2892POPC   C4A39630  20.406  33.846   7.419
 2892POPC   C1B39631  20.963  33.879   6.055
 2892POPC   C2B39632  20.952  33.889   6.480
 2892POPC   C3B39633  20.847  34.062   6.851
 2892POPC   C4B39634  20.882  33.816   7.193
 2893POPC   NC339635   9.783  30.868   5.441
 2893POPC   PO439636   9.565  30.304   5.103
 2893POPC   GL139637   9.523  30.461   5.609
 2893POPC   GL239638   9.894  30.568   5.828
 2893POPC   C1A39639   9.476  30.572   6.078
 2893POPC   D2A39640   9.692  30.778   6.415
 2893POPC   C3A39641   9.607  30.738   6.859
 2893POPC   C4A39642   9.813  30.633   7.265
 2893POPC   C1B39643   9.970  31.017   6.059
 2893POPC   C2B39644  10.018  31.157   6.531
 2893POPC   C3B39645  10.000  31.042   6.970
 2893POPC   C4B39646  10.275  30.916   7.290
 2894POPC   NC339647  35.390  37.324   5.497
 2894POPC   PO439648  35.066  37.916   5.512
 2894POPC   GL139649  35.046  37.579   5.820
 2894POPC   GL239650  35.365  37.540   5.952
 2894POPC   C1A39651  34.960  37.679   6.256
 2894POPC   D2A39652  35.104  37.888   6.609
 2894POPC   C3A39653  35.355  37.657   6.858
 2894POPC   C4A39654  35.415  37.614   7.261
 2894POPC   C1B39655  35.517  37.636   6.341
 2894POPC   C2B39656  35.781  37.798   6.645
 2894POPC   C3B39657  35.768  37.964   7.077
 2894POPC   C4B39658  35.715  37.943   7.537
 2895POPC   NC339659  30.524  37.641   5.223
 2895POPC   PO439660  29.786  37.614   5.380
 2895POPC   GL139661  30.019  37.511   5.742
 2895POPC   GL239662  29.670  37.365   5.817
 2895POPC   C1A39663  30.161  37.721   6.140
 2895POPC   D2A39664  30.367  37.781   6.542
 2895POPC   C3A39665  30.138  37.722   6.927
 2895POPC   C4A39666  29.736  37.631   7.097
 2895POPC   C1B39667  29.665  37.734   6.068
 2895POPC   C2B39668  29.701  37.871   6.515
 2895POPC   C3B39669  29.426  37.979   6.871
 2895POPC   C4B39670  29.312  37.842   7.297
 2896POPC   NC339671  29.394  28.606   5.378
 2896POPC   PO439672  28.807  28.193   5.334
 2896POPC   GL139673  28.952  28.025   5.744
 2896POPC   GL239674  29.175  28.310   5.786
 2896POPC   C1A39675  29.037  27.927   6.187
 2896POPC   D2A39676  29.087  28.177   6.566
 2896POPC   C3A39677  28.881  28.211   6.955
 2896POPC   C4A39678  29.006  28.034   7.348
 2896POPC   C1B39679  28.964  28.438   6.143
 2896POPC   C2B39680  29.064  28.694   6.489
 2896POPC   C3B39681  29.051  28.699   6.970
 2896POPC   C4B39682  29.414  28.651   7.253
 2897POPC   NC339683  22.990  41.928   5.256
 2897POPC   PO439684  23.064  41.300   5.215
 2897POPC   GL139685  23.050  41.397   5.678
 2897POPC   GL239686  22.852  41.685   5.724
 2897POPC   C1A39687  23.066  41.199   6.112
 2897POPC   D2A39688  23.162  41.206   6.567
 2897POPC   C3A39689  22.975  41.248   7.041
 2897POPC   C4A39690  22.972  41.216   7.548
 2897POPC   C1B39691  23.036  41.699   6.181
 2897POPC   C2B39692  22.898  41.618   6.652
 2897POPC   C3B39693  22.995  41.752   7.081
 2897POPC   C4B39694  22.612  41.738   7.307
 2898POPC   NC339695   1.778  35.926   5.331
 2898POPC   PO439696   2.253  36.330   5.411
 2898POPC   GL139697   2.191  36.258   5.867
 2898POPC   GL239698   2.397  35.970   5.882
 2898POPC   C1A39699   1.958  36.258   6.317
 2898POPC   D2A39700   1.642  36.297   6.698
 2898POPC   C3A39701   1.812  36.206   7.152
 2898POPC   C4A39702   2.172  36.127   7.457
 2898POPC   C1B39703   2.402  36.019   6.361
 2898POPC   C2B39704   2.205  36.090   6.806
 2898POPC   C3B39705   2.072  35.763   7.121
 2898POPC   C4B39706   2.249  35.627   7.516
 2899POPC   NC339707  24.732  13.156   5.661
 2899POPC   PO439708  24.655  13.756   5.391
 2899POPC   GL139709  24.506  13.693   5.814
 2899POPC   GL239710  24.204  13.627   6.005
 2899POPC   C1A39711  24.568  13.938   6.184
 2899POPC   D2A39712  24.354  13.949   6.569
 2899POPC   C3A39713  24.565  13.937   6.945
 2899POPC   C4A39714  24.723  13.615   7.157
 2899POPC   C1B39715  24.568  13.441   6.264
 2899POPC   C2B39716  24.678  13.258   6.640
 2899POPC   C3B39717  24.482  13.178   7.040
 2899POPC   C4B39718  24.379  13.400   7.474
 2900POPC   NC339719   7.310  28.829   5.497
 2900POPC   PO439720   7.464  29.568   5.498
 2900POPC   GL139721   7.409  29.247   5.785
 2900POPC   GL239722   7.669  29.032   5.790
 2900POPC   C1A39723   7.289  29.031   6.165
 2900POPC   D2A39724   7.220  28.759   6.515
 2900POPC   C3A39725   7.282  28.985   6.884
 2900POPC   C4A39726   7.411  29.206   7.233
 2900POPC   C1B39727   7.778  29.317   6.147
 2900POPC   C2B39728   7.618  29.468   6.536
 2900POPC   C3B39729   7.756  29.341   6.913
 2900POPC   C4B39730   7.950  29.271   7.277
 2901POPC   NC339731  40.066  40.353   5.059
 2901POPC   PO439732  39.790  39.879   5.536
 2901POPC   GL139733  39.865  40.070   5.980
 2901POPC   GL239734  40.207  39.952   6.017
 2901POPC   C1A39735  39.771  40.218   6.415
 2901POPC   D2A39736  39.625  39.952   6.788
 2901POPC   C3A39737  39.685  40.125   7.193
 2901POPC   C4A39738  40.111  40.316   7.355
 2901POPC   C1B39739  40.367  39.557   6.244
 2901POPC   C2B39740  40.580  39.619   6.660
 2901POPC   C3B39741  40.473  39.982   6.934
 2901POPC   C4B39742  40.096  39.858   7.142
 2902POPC   NC339743  38.355  32.646   5.367
 2902POPC   PO439744  38.769  32.110   5.589
 2902POPC   GL139745  38.598  32.402   5.872
 2902POPC   GL239746  38.234  32.434   5.820
 2902POPC   C1A39747  38.550  32.280   6.313
 2902POPC   D2A39748  38.319  32.125   6.680
 2902POPC   C3A39749  38.462  32.278   7.071
 2902POPC   C4A39750  38.546  32.088   7.487
 2902POPC   C1B39751  38.053  32.406   6.231
 2902POPC   C2B39752  37.986  32.560   6.632
 2902POPC   C3B39753  38.057  32.609   7.060
 2902POPC   C4B39754  38.141  32.411   7.445
 2903POPC   NC339755  27.356   2.977   5.427
 2903POPC   PO439756  27.849   2.696   5.208
 2903POPC   GL139757  27.737   2.771   5.684
 2903POPC   GL239758  27.373   2.663   5.812
 2903POPC   C1A39759  27.776   2.675   6.118
 2903POPC   D2A39760  27.824   2.511   6.514
 2903POPC   C3A39761  27.656   2.609   6.910
 2903POPC   C4A39762  27.831   2.558   7.322
 2903POPC   C1B39763  27.318   2.875   6.208
 2903POPC   C2B39764  27.257   2.666   6.569
 2903POPC   C3B39765  27.166   2.556   6.975
 2903POPC   C4B39766  27.386   2.767   7.315
 2904POPC   NC339767  30.970  22.621   5.656
 2904POPC   PO439768  30.336  22.344   5.530
 2904POPC   GL139769  30.514  22.143   5.874
 2904POPC   GL239770  30.808  22.268   5.982
 2904POPC   C1A39771  30.538  21.939   6.269
 2904POPC   D2A39772  30.730  21.914   6.677
 2904POPC   C3A39773  30.513  22.034   7.054
 2904POPC   C4A39774  30.729  22.274   7.353
 2904POPC   C1B39775  31.034  22.165   6.325
 2904POPC   C2B39776  31.050  22.362   6.717
 2904POPC   C3B39777  31.052  22.582   7.119
 2904POPC   C4B39778  31.092  22.543   7.596
 2905POPC   NC339779  16.755  23.066   5.353
 2905POPC   PO439780  16.460  23.575   5.574
 2905POPC   GL139781  16.556  23.170   5.836
 2905POPC   GL239782  16.798  22.864   5.846
 2905POPC   C1A39783  16.563  22.982   6.284
 2905POPC   D2A39784  16.794  23.223   6.606
 2905POPC   C3A39785  16.622  23.280   7.013
 2905POPC   C4A39786  16.310  23.087   7.217
 2905POPC   C1B39787  17.076  23.002   6.213
 2905POPC   C2B39788  17.293  23.068   6.626
 2905POPC   C3B39789  17.128  23.182   7.010
 2905POPC   C4B39790  17.029  23.196   7.439
 2906POPC   NC339791  22.199  33.255   5.358
 2906POPC   PO439792  22.536  32.635   5.311
 2906POPC   GL139793  22.555  32.861   5.748
 2906POPC   GL239794  22.238  33.076   5.825
 2906POPC   C1A39795  22.470  32.854   6.221
 2906POPC   D2A39796  22.282  32.707   6.613
 2906POPC   C3A39797  22.371  32.955   6.994
 2906POPC   C4A39798  22.398  33.393   7.066
 2906POPC   C1B39799  22.207  33.324   6.215
 2906POPC   C2B39800  22.029  33.188   6.617
 2906POPC   C3B39801  21.859  32.911   6.932
 2906POPC   C4B39802  21.961  33.082   7.333
 2907POPC   NC339803  17.213  20.000   5.352
 2907POPC   PO439804  17.688  19.584   5.434
 2907POPC   GL139805  17.516  19.800   5.769
 2907POPC   GL239806  17.225  19.553   5.760
 2907POPC   C1A39807  17.625  20.088   6.163
 2907POPC   D2A39808  17.607  19.905   6.576
 2907POPC   C3A39809  17.718  20.088   6.965
 2907POPC   C4A39810  17.550  19.944   7.394
 2907POPC   C1B39811  17.197  19.811   6.147
 2907POPC   C2B39812  17.116  19.980   6.541
 2907POPC   C3B39813  17.240  19.883   6.949
 2907POPC   C4B39814  17.013  19.814   7.296
 2908POPC   NC339815  30.979  19.254   5.283
 2908POPC   PO439816  30.763  18.523   5.265
 2908POPC   GL139817  30.745  18.902   5.625
 2908POPC   GL239818  30.471  18.872   5.862
 2908POPC   C1A39819  30.869  19.050   6.090
 2908POPC   D2A39820  30.620  19.022   6.508
 2908POPC   C3A39821  30.788  18.986   6.951
 2908POPC   C4A39822  31.051  19.254   7.213
 2908POPC   C1B39823  30.396  19.285   6.065
 2908POPC   C2B39824  30.425  19.537   6.456
 2908POPC   C3B39825  30.604  19.479   6.896
 2908POPC   C4B39826  30.555  19.316   7.321
 2909POPC   NC339827  16.816  11.210   5.442
 2909POPC   PO439828  16.351  10.856   5.784
 2909POPC   GL139829  16.617  11.129   5.950
 2909POPC   GL239830  16.562  11.428   5.880
 2909POPC   C1A39831  16.663  11.161   6.345
 2909POPC   D2A39832  16.582  11.386   6.674
 2909POPC   C3A39833  16.688  11.094   6.912
 2909POPC   C4A39834  16.794  11.056   7.272
 2909POPC   C1B39835  16.766  11.638   6.183
 2909POPC   C2B39836  17.063  11.449   6.454
 2909POPC   C3B39837  17.063  11.437   6.870
 2909POPC   C4B39838  17.103  11.469   7.308
 2910POPC   NC339839  36.576  26.281   5.445
 2910POPC   PO439840  37.086  25.867   5.344
 2910POPC   GL139841  36.951  26.089   5.740
 2910POPC   GL239842  37.006  26.478   5.727
 2910POPC   C1A39843  36.800  26.064   6.171
 2910POPC   D2A39844  37.020  26.129   6.553
 2910POPC   C3A39845  36.936  25.829   6.905
 2910POPC   C4A39846  36.818  25.866   7.326
 2910POPC   C1B39847  36.863  26.570   6.158
 2910POPC   C2B39848  36.626  26.474   6.544
 2910POPC   C3B39849  36.701  26.298   6.935
 2910POPC   C4B39850  36.981  26.344   7.253
 2911POPC   NC339851  21.991  38.037   4.987
 2911POPC   PO439852  22.301  38.514   5.353
 2911POPC   GL139853  22.136  38.470   5.794
 2911POPC   GL239854  21.856  38.720   5.754
 2911POPC   C1A39855  22.194  38.313   6.241
 2911POPC   D2A39856  22.353  38.080   6.600
 2911POPC   C3A39857  22.475  38.342   6.945
 2911POPC   C4A39858  22.267  38.520   7.285
 2911POPC   C1B39859  21.730  38.501   6.140
 2911POPC   C2B39860  21.870  38.630   6.563
 2911POPC   C3B39861  21.899  38.404   6.958
 2911POPC   C4B39862  21.882  38.145   7.344
 2912POPC   NC339863  22.635  14.589   5.490
 2912POPC   PO439864  23.125  14.096   5.387
 2912POPC   GL139865  23.003  14.296   5.782
 2912POPC   GL239866  22.668  14.265   5.877
 2912POPC   C1A39867  23.096  14.394   6.230
 2912POPC   D2A39868  23.062  14.679   6.590
 2912POPC   C3A39869  22.919  14.538   6.967
 2912POPC   C4A39870  23.100  14.360   7.296
 2912POPC   C1B39871  22.738  14.017   6.237
 2912POPC   C2B39872  22.868  14.146   6.640
 2912POPC   C3B39873  22.708  14.079   7.062
 2912POPC   C4B39874  22.494  14.092   7.436
 2913POPC   NC339875  32.079  20.459   5.311
 2913POPC   PO439876  32.467  20.959   5.394
 2913POPC   GL139877  32.269  20.688   5.757
 2913POPC   GL239878  32.113  20.321   5.785
 2913POPC   C1A39879  32.211  20.583   6.207
 2913POPC   D2A39880  32.030  20.711   6.596
 2913POPC   C3A39881  32.297  20.720   6.961
 2913POPC   C4A39882  32.181  20.921   7.350
 2913POPC   C1B39883  32.020  20.082   6.144
 2913POPC   C2B39884  32.109  20.200   6.558
 2913POPC   C3B39885  32.085  20.263   6.980
 2913POPC   C4B39886  32.217  20.413   7.386
 2914POPC   NC339887  29.475   9.203   5.401
 2914POPC   PO439888  29.907   8.779   5.196
 2914POPC   GL139889  29.739   8.837   5.646
 2914POPC   GL239890  29.870   9.156   5.745
 2914POPC   C1A39891  29.743   8.778   6.095
 2914POPC   D2A39892  29.914   8.725   6.497
 2914POPC   C3A39893  29.758   8.921   6.856
 2914POPC   C4A39894  29.654   9.016   7.281
 2914POPC   C1B39895  30.093   9.144   6.170
 2914POPC   C2B39896  30.234   9.126   6.603
 2914POPC   C3B39897  30.309   8.958   7.004
 2914POPC   C4B39898  30.189   9.152   7.374
 2915POPC   NC339899  37.203  39.232   5.514
 2915POPC   PO439900  36.643  39.002   5.481
 2915POPC   GL139901  36.785  39.288   5.795
 2915POPC   GL239902  36.983  39.022   5.943
 2915POPC   C1A39903  36.946  39.507   6.178
 2915POPC   D2A39904  36.973  39.304   6.580
 2915POPC   C3A39905  37.217  39.454   6.933
 2915POPC   C4A39906  37.046  39.575   7.333
 2915POPC   C1B39907  37.259  38.921   6.317
 2915POPC   C2B39908  37.201  38.866   6.739
 2915POPC   C3B39909  36.922  39.019   7.034
 2915POPC   C4B39910  37.051  39.067   7.462
 2916POPC   NC339911  28.465   6.207   5.448
 2916POPC   PO439912  28.324   6.833   5.615
 2916POPC   GL139913  28.356   6.480   5.859
 2916POPC   GL239914  28.060   6.289   5.819
 2916POPC   C1A39915  28.591   6.424   6.215
 2916POPC   D2A39916  28.564   6.664   6.581
 2916POPC   C3A39917  28.758   6.432   6.880
 2916POPC   C4A39918  28.685   6.335   7.303
 2916POPC   C1B39919  28.078   6.494   6.280
 2916POPC   C2B39920  28.057   6.433   6.731
 2916POPC   C3B39921  28.317   6.602   7.056
 2916POPC   C4B39922  28.524   6.801   7.401
 2917POPC   NC339923  12.646  13.450   5.068
 2917POPC   PO439924  12.919  14.006   5.235
 2917POPC   GL139925  12.878  13.816   5.668
 2917POPC   GL239926  13.171  13.578   5.673
 2917POPC   C1A39927  12.639  13.905   6.071
 2917POPC   D2A39928  12.754  13.924   6.525
 2917POPC   C3A39929  12.749  13.620   6.870
 2917POPC   C4A39930  12.565  13.660   7.277
 2917POPC   C1B39931  13.032  13.580   6.108
 2917POPC   C2B39932  13.146  13.517   6.521
 2917POPC   C3B39933  13.262  13.629   6.910
 2917POPC   C4B39934  13.084  13.593   7.300
 2918POPC   NC339935  26.082   1.591   5.242
 2918POPC   PO439936  26.224   0.990   5.454
 2918POPC   GL139937  26.158   1.166   5.809
 2918POPC   GL239938  26.189   1.512   5.727
 2918POPC   C1A39939  25.990   1.092   6.208
 2918POPC   D2A39940  25.808   0.904   6.552
 2918POPC   C3A39941  25.963   1.163   6.869
 2918POPC   C4A39942  26.151   1.101   7.228
 2918POPC   C1B39943  26.261   1.555   6.139
 2918POPC   C2B39944  26.145   1.522   6.533
 2918POPC   C3B39945  26.207   1.747   6.882
 2918POPC   C4B39946  26.049   1.621   7.258
 2919POPC   NC339947  16.864  12.196   5.369
 2919POPC   PO439948  16.465  11.611   5.436
 2919POPC   GL139949  16.580  11.930   5.734
 2919POPC   GL239950  16.932  11.850   5.734
 2919POPC   C1A39951  16.421  12.033   6.168
 2919POPC   D2A39952  16.544  11.876   6.570
 2919POPC   C3A39953  16.672  11.818   6.979
 2919POPC   C4A39954  16.445  12.140   7.173
 2919POPC   C1B39955  16.879  12.204   6.043
 2919POPC   C2B39956  16.799  12.327   6.473
 2919POPC   C3B39957  16.878  12.296   6.928
 2919POPC   C4B39958  16.909  12.281   7.391
 2920POPC   NC339959  33.592  38.611   5.388
 2920POPC   PO439960  34.029  38.226   5.203
 2920POPC   GL139961  33.878  38.306   5.694
 2920POPC   GL239962  33.925  38.640   5.745
 2920POPC   C1A39963  33.602  38.464   6.077
 2920POPC   D2A39964  33.610  38.673   6.485
 2920POPC   C3A39965  33.768  38.410   6.845
 2920POPC   C4A39966  33.517  38.281   7.207
 2920POPC   C1B39967  34.014  38.779   6.120
 2920POPC   C2B39968  34.119  38.665   6.509
 2920POPC   C3B39969  34.012  38.891   6.828
 2920POPC   C4B39970  34.102  38.867   7.226
 2921POPC   NC339971  24.192  19.301   5.220
 2921POPC   PO439972  24.712  18.870   5.212
 2921POPC   GL139973  24.475  18.944   5.657
 2921POPC   GL239974  24.626  19.138   5.911
 2921POPC   C1A39975  24.319  18.741   6.085
 2921POPC   D2A39976  24.479  18.718   6.503
 2921POPC   C3A39977  24.341  18.845   6.904
 2921POPC   C4A39978  24.736  18.974   7.068
 2921POPC   C1B39979  24.370  19.211   6.258
 2921POPC   C2B39980  24.532  19.252   6.644
 2921POPC   C3B39981  24.393  19.359   7.018
 2921POPC   C4B39982  24.076  19.327   7.309
 2922POPC   NC339983  27.097   8.769   5.354
 2922POPC   PO439984  26.697   9.299   5.445
 2922POPC   GL139985  26.709   8.997   5.751
 2922POPC   GL239986  27.062   9.022   5.794
 2922POPC   C1A39987  26.772   8.853   6.191
 2922POPC   D2A39988  26.962   9.019   6.584
 2922POPC   C3A39989  26.831   8.805   6.947
 2922POPC   C4A39990  26.471   8.745   7.166
 2922POPC   C1B39991  27.131   9.248   6.148
 2922POPC   C2B39992  27.280   9.421   6.497
 2922POPC   C3B39993  27.149   9.442   6.878
 2922POPC   C4B39994  27.011   9.221   7.191
 2923POPC   NC339995  33.513   7.078   5.517
 2923POPC   PO439996  33.614   6.409   5.404
 2923POPC   GL139997  33.666   6.649   5.835
 2923POPC   GL239998  33.399   6.858   5.969
 2923POPC   C1A39999  33.762   6.515   6.276
 2923POPC   D2A40000  33.708   6.577   6.720
 2923POPC   C3A40001  33.888   6.734   7.057
 2923POPC   C4A40002  34.002   6.364   7.268
 2923POPC   C1B40003  33.774   7.012   6.227
 2923POPC   C2B40004  33.673   7.097   6.643
 2923POPC   C3B40005  33.438   6.988   6.996
 2923POPC   C4B40006  33.520   6.822   7.407
 2924POPC   NC340007   5.588   9.933   5.522
 2924POPC   PO440008   6.232   9.871   5.367
 2924POPC   GL140009   5.974   9.667   5.715
 2924POPC   GL240010   5.799   9.357   5.620
 2924POPC   C1A40011   5.785   9.776   6.124
 2924POPC   D2A40012   5.956   9.754   6.519
 2924POPC   C3A40013   6.007  10.054   6.839
 2924POPC   C4A40014   5.889   9.900   7.241
 2924POPC   C1B40015   5.664   9.259   6.058
 2924POPC   C2B40016   5.523   9.453   6.460
 2924POPC   C3B40017   5.612   9.641   6.873
 2924POPC   C4B40018   5.594   9.471   7.273
 2925POPC   NC340019  43.768  32.086   5.412
 2925POPC   PO440020  44.354  32.510   5.404
 2925POPC   GL140021  43.972  32.454   5.726
 2925POPC   GL240022  43.591  32.329   5.801
 2925POPC   C1A40023  43.951  32.343   6.164
 2925POPC   D2A40024  43.966  32.059   6.537
 2925POPC   C3A40025  44.091  32.172   6.978
 2925POPC   C4A40026  44.241  32.155   7.432
 2925POPC   C1B40027  43.459  32.248   6.189
 2925POPC   C2B40028  43.601  32.402   6.563
 2925POPC   C3B40029  43.570  32.215   6.945
 2925POPC   C4B40030  43.751  32.278   7.362
 2926POPC   NC340031  29.756  39.832   5.291
 2926POPC   PO440032  30.405  40.167   5.366
 2926POPC   GL140033  30.040  40.006   5.684
 2926POPC   GL240034  29.715  39.778   5.783
 2926POPC   C1A40035  29.898  40.116   6.125
 2926POPC   D2A40036  30.200  40.096   6.467
 2926POPC   C3A40037  30.113  39.926   6.898
 2926POPC   C4A40038  30.121  40.048   7.340
 2926POPC   C1B40039  29.750  39.573   6.179
 2926POPC   C2B40040  29.725  39.815   6.551
 2926POPC   C3B40041  29.594  39.828   6.983
 2926POPC   C4B40042  29.802  39.563   7.270
 2927POPC   NC340043  25.826   0.763   5.518
 2927POPC   PO440044  26.236   0.334   5.194
 2927POPC   GL140045  26.168   0.414   5.650
 2927POPC   GL240046  26.403   0.210   5.811
 2927POPC   C1A40047  26.025   0.508   6.099
 2927POPC   D2A40048  25.930   0.395   6.552
 2927POPC   C3A40049  26.058   0.630   6.946
 2927POPC   C4A40050  25.842   0.678   7.351
 2927POPC   C1B40051  26.413   0.218   6.260
 2927POPC   C2B40052  26.443   0.420   6.650
 2927POPC   C3B40053  26.566   0.316   7.074
 2927POPC   C4B40054  26.266   0.395   7.391
 2928POPC   NC340055  37.912   1.206   5.331
 2928POPC   PO440056  37.346   0.779   5.411
 2928POPC   GL140057  37.664   1.012   5.758
 2928POPC   GL240058  37.865   1.362   5.805
 2928POPC   C1A40059  37.817   0.996   6.223
 2928POPC   D2A40060  37.671   1.176   6.627
 2928POPC   C3A40061  37.562   1.049   7.047
 2928POPC   C4A40062  37.130   1.114   7.241
 2928POPC   C1B40063  38.168   1.376   6.160
 2928POPC   C2B40064  38.175   1.188   6.563
 2928POPC   C3B40065  38.011   1.317   6.995
 2928POPC   C4B40066  37.984   1.065   7.373
 2929POPC   NC340067  25.350  25.705   5.465
 2929POPC   PO440068  24.918  26.217   5.379
 2929POPC   GL140069  25.118  26.061   5.755
 2929POPC   GL240070  25.478  26.133   5.735
 2929POPC   C1A40071  25.275  25.868   6.157
 2929POPC   D2A40072  25.274  25.746   6.608
 2929POPC   C3A40073  25.399  25.987   6.991
 2929POPC   C4A40074  25.243  25.955   7.416
 2929POPC   C1B40075  25.363  26.379   6.087
 2929POPC   C2B40076  25.415  26.278   6.520
 2929POPC   C3B40077  25.201  26.475   6.862
 2929POPC   C4B40078  24.978  26.352   7.238
 2930POPC   NC340079  20.769  31.395   5.406
 2930POPC   PO440080  20.154  31.447   5.292
 2930POPC   GL140081  20.341  31.477   5.735
 2930POPC   GL240082  20.405  31.201   5.932
 2930POPC   C1A40083  20.478  31.646   6.192
 2930POPC   D2A40084  20.547  31.880   6.616
 2930POPC   C3A40085  20.673  31.719   7.059
 2930POPC   C4A40086  20.465  31.636   7.501
 2930POPC   C1B40087  20.840  31.290   6.110
 2930POPC   C2B40088  20.870  31.459   6.551
 2930POPC   C3B40089  20.507  31.295   6.818
 2930POPC   C4B40090  20.236  31.121   7.173
 2931POPC   NC340091  10.231  22.402   5.416
 2931POPC   PO440092  10.599  21.884   5.267
 2931POPC   GL140093  10.487  22.051   5.690
 2931POPC   GL240094  10.681  22.362   5.808
 2931POPC   C1A40095  10.246  22.217   6.070
 2931POPC   D2A40096  10.254  22.021   6.476
 2931POPC   C3A40097  10.266  22.217   6.892
 2931POPC   C4A40098  10.571  22.405   7.206
 2931POPC   C1B40099  10.703  22.006   6.165
 2931POPC   C2B40100  10.710  21.791   6.604
 2931POPC   C3B40101  10.621  21.883   7.058
 2931POPC   C4B40102  10.892  22.030   7.402
 2932POPC   NC340103   3.990  36.905   5.417
 2932POPC   PO440104   3.334  36.749   5.292
 2932POPC   GL140105   3.594  36.669   5.663
 2932POPC   GL240106   3.559  37.018   5.750
 2932POPC   C1A40107   3.627  36.717   6.149
 2932POPC   D2A40108   3.544  36.894   6.571
 2932POPC   C3A40109   3.485  36.643   6.931
 2932POPC   C4A40110   3.693  36.596   7.299
 2932POPC   C1B40111   3.344  37.148   6.169
 2932POPC   C2B40112   3.315  37.341   6.573
 2932POPC   C3B40113   3.583  37.334   6.916
 2932POPC   C4B40114   3.404  37.066   7.223
 2933POPC   NC340115  44.896   5.173   5.336
 2933POPC   PO440116  44.228   5.152   5.475
 2933POPC   GL140117  44.610   5.013   5.752
 2933POPC   GL240118  44.913   5.247   5.831
 2933POPC   C1A40119  44.816   4.880   6.181
 2933POPC   D2A40120   0.030   4.899   6.634
 2933POPC   C3A40121  44.822   5.051   6.986
 2933POPC   C4A40122  44.402   5.250   7.023
 2933POPC   C1B40123   0.019   5.482   6.181
 2933POPC   C2B40124  44.870   5.628   6.601
 2933POPC   C3B40125  44.883   5.557   7.040
 2933POPC   C4B40126   0.082   5.308   7.350
 2934POPC   NC340127  29.468  41.410   5.423
 2934POPC   PO440128  29.207  41.969   5.489
 2934POPC   GL140129  29.311  41.748   5.795
 2934POPC   GL240130  29.047  41.543   5.823
 2934POPC   C1A40131  29.238  41.876   6.198
 2934POPC   D2A40132  29.386  41.652   6.543
 2934POPC   C3A40133  29.522  41.854   6.915
 2934POPC   C4A40134  29.315  41.742   7.298
 2934POPC   C1B40135  29.128  41.362   6.198
 2934POPC   C2B40136  28.957  41.371   6.588
 2934POPC   C3B40137  29.010  41.182   6.976
 2934POPC   C4B40138  29.032  41.198   7.440
 2935POPC   NC340139  30.382  34.609   5.510
 2935POPC   PO440140  30.868  34.182   5.447
 2935POPC   GL140141  30.782  34.452   5.827
 2935POPC   GL240142  30.445  34.519   5.994
 2935POPC   C1A40143  30.836  34.370   6.268
 2935POPC   D2A40144  30.607  34.592   6.584
 2935POPC   C3A40145  30.719  34.557   7.009
 2935POPC   C4A40146  30.442  34.411   7.319
 2935POPC   C1B40147  30.411  34.926   6.206
 2935POPC   C2B40148  30.564  35.096   6.608
 2935POPC   C3B40149  30.347  34.906   6.924
 2935POPC   C4B40150  30.246  34.919   7.317
 2936POPC   NC340151  27.204   7.104   5.452
 2936POPC   PO440152  26.799   7.601   5.206
 2936POPC   GL140153  26.881   7.671   5.665
 2936POPC   GL240154  26.929   7.381   5.829
 2936POPC   C1A40155  26.960   7.794   6.143
 2936POPC   D2A40156  26.853   7.940   6.595
 2936POPC   C3A40157  26.895   7.661   6.996
 2936POPC   C4A40158  26.779   7.287   7.236
 2936POPC   C1B40159  27.144   7.278   6.174
 2936POPC   C2B40160  27.077   7.395   6.600
 2936POPC   C3B40161  27.235   7.236   7.018
 2936POPC   C4B40162  27.195   7.173   7.508
 2937POPC   NC340163  15.443  25.638   5.280
 2937POPC   PO440164  14.900  25.938   5.419
 2937POPC   GL140165  15.004  25.931   5.814
 2937POPC   GL240166  15.355  25.897   5.756
 2937POPC   C1A40167  15.060  25.879   6.242
 2937POPC   D2A40168  15.145  26.082   6.626
 2937POPC   C3A40169  14.844  26.042   6.947
 2937POPC   C4A40170  14.981  26.015   7.364
 2937POPC   C1B40171  15.573  25.771   6.143
 2937POPC   C2B40172  15.619  25.855   6.603
 2937POPC   C3B40173  15.383  25.856   7.012
 2937POPC   C4B40174  15.411  25.490   7.304
 2938POPC   NC340175  14.154  26.991   5.170
 2938POPC   PO440176  14.363  26.364   5.481
 2938POPC   GL140177  14.486  26.624   5.848
 2938POPC   GL240178  14.640  26.948   5.726
 2938POPC   C1A40179  14.507  26.570   6.302
 2938POPC   D2A40180  14.252  26.605   6.658
 2938POPC   C3A40181  14.489  26.616   7.039
 2938POPC   C4A40182  14.119  26.555   7.248
 2938POPC   C1B40183  14.409  27.040   6.142
 2938POPC   C2B40184  14.556  27.000   6.586
 2938POPC   C3B40185  14.472  27.114   7.027
 2938POPC   C4B40186  14.688  27.394   7.214
 2939POPC   NC340187   7.839  10.980   5.417
 2939POPC   PO440188   8.452  11.274   5.442
 2939POPC   GL140189   8.157  11.258   5.770
 2939POPC   GL240190   8.140  10.898   5.831
 2939POPC   C1A40191   8.142  11.280   6.229
 2939POPC   D2A40192   8.334  11.551   6.553
 2939POPC   C3A40193   8.298  11.283   6.881
 2939POPC   C4A40194   8.405  11.268   7.292
 2939POPC   C1B40195   7.828  10.895   6.154
 2939POPC   C2B40196   7.981  10.895   6.595
 2939POPC   C3B40197   7.963  10.926   7.040
 2939POPC   C4B40198   8.012  11.017   7.467
 2940POPC   NC340199  24.682  29.653   5.450
 2940POPC   PO440200  25.404  29.795   5.447
 2940POPC   GL140201  25.179  30.022   5.788
 2940POPC   GL240202  24.856  30.181   5.719
 2940POPC   C1A40203  24.954  29.848   6.135
 2940POPC   D2A40204  25.113  29.973   6.520
 2940POPC   C3A40205  25.056  29.779   6.935
 2940POPC   C4A40206  25.398  29.934   7.226
 2940POPC   C1B40207  24.854  30.354   6.157
 2940POPC   C2B40208  24.725  30.286   6.595
 2940POPC   C3B40209  25.038  30.278   6.928
 2940POPC   C4B40210  25.161  30.389   7.306
 2941POPC   NC340211  30.068  36.019   5.385
 2941POPC   PO440212  29.431  36.109   5.664
 2941POPC   GL140213  29.841  36.233   5.851
 2941POPC   GL240214  30.240  36.255   5.799
 2941POPC   C1A40215  29.743  36.152   6.285
 2941POPC   D2A40216  29.419  36.191   6.588
 2941POPC   C3A40217  29.674  36.205   6.937
 2941POPC   C4A40218  29.716  36.237   7.358
 2941POPC   C1B40219  30.263  36.107   6.213
 2941POPC   C2B40220  30.122  36.178   6.648
 2941POPC   C3B40221  30.210  36.088   7.083
 2941POPC   C4B40222  30.208  36.320   7.456
 2942POPC   NC340223  25.966  10.220   5.425
 2942POPC   PO440224  26.044   9.493   5.352
 2942POPC   GL140225  25.946   9.677   5.762
 2942POPC   GL240226  25.737   9.954   5.807
 2942POPC   C1A40227  26.158   9.615   6.185
 2942POPC   D2A40228  26.183   9.392   6.546
 2942POPC   C3A40229  26.289   9.662   6.872
 2942POPC   C4A40230  26.245   9.581   7.280
 2942POPC   C1B40231  25.671   9.769   6.215
 2942POPC   C2B40232  25.840   9.767   6.639
 2942POPC   C3B40233  25.781   9.775   7.096
 2942POPC   C4B40234  25.935   9.924   7.495
 2943POPC   NC340235  26.432  23.880   5.666
 2943POPC   PO440236  25.774  23.704   5.515
 2943POPC   GL140237  25.875  23.660   5.940
 2943POPC   GL240238  26.226  23.609   6.036
 2943POPC   C1A40239  25.944  23.866   6.355
 2943POPC   D2A40240  26.184  23.795   6.712
 2943POPC   C3A40241  25.882  23.757   7.038
 2943POPC   C4A40242  25.578  23.924   7.354
 2943POPC   C1B40243  26.188  23.356   6.389
 2943POPC   C2B40244  26.180  23.303   6.813
 2943POPC   C3B40245  26.336  23.513   7.143
 2943POPC   C4B40246  26.750  23.452   7.242
 2944POPC   NC340247  35.951  32.471   5.483
 2944POPC   PO440248  36.318  32.958   5.771
 2944POPC   GL140249  36.352  32.516   5.865
 2944POPC   GL240250  36.196  32.148   5.811
 2944POPC   C1A40251  36.338  32.314   6.257
 2944POPC   D2A40252  36.144  32.184   6.610
 2944POPC   C3A40253  36.314  32.183   7.005
 2944POPC   C4A40254  36.242  32.482   7.275
 2944POPC   C1B40255  35.877  32.073   6.143
 2944POPC   C2B40256  35.726  31.910   6.565
 2944POPC   C3B40257  35.946  31.822   6.956
 2944POPC   C4B40258  35.779  31.633   7.318
 2945POPC   NC340259  12.913   1.709   5.234
 2945POPC   PO440260  12.775   2.386   5.324
 2945POPC   GL140261  12.999   2.094   5.624
 2945POPC   GL240262  12.835   1.774   5.739
 2945POPC   C1A40263  13.108   2.047   6.066
 2945POPC   D2A40264  12.969   1.983   6.490
 2945POPC   C3A40265  12.975   2.262   6.829
 2945POPC   C4A40266  12.745   2.196   7.231
 2945POPC   C1B40267  12.829   1.595   6.160
 2945POPC   C2B40268  12.782   1.530   6.617
 2945POPC   C3B40269  12.895   1.762   6.987
 2945POPC   C4B40270  12.971   1.738   7.453
 2946POPC   NC340271  35.387  39.687   5.441
 2946POPC   PO440272  35.635  40.261   5.386
 2946POPC   GL140273  35.452  40.085   5.757
 2946POPC   GL240274  35.724  39.863   5.767
 2946POPC   C1A40275  35.207  40.144   6.146
 2946POPC   D2A40276  35.147  40.347   6.544
 2946POPC   C3A40277  35.303  40.159   6.883
 2946POPC   C4A40278  35.443  40.028   7.289
 2946POPC   C1B40279  35.580  39.664   6.119
 2946POPC   C2B40280  35.474  39.815   6.516
 2946POPC   C3B40281  35.448  39.625   6.928
 2946POPC   C4B40282  35.809  39.556   7.209
 2947POPC   NC340283  22.033   8.443   5.291
 2947POPC   PO440284  22.332   8.081   5.212
 2947POPC   GL140285  22.324   8.240   5.709
 2947POPC   GL240286  22.077   8.516   5.838
 2947POPC   C1A40287  22.298   8.263   6.231
 2947POPC   D2A40288  22.084   8.234   6.675
 2947POPC   C3A40289  22.314   8.188   7.095
 2947POPC   C4A40290  22.280   7.924   7.509
 2947POPC   C1B40291  21.933   8.659   6.298
 2947POPC   C2B40292  21.760   8.639   6.744
 2947POPC   C3B40293  21.993   8.653   7.149
 2947POPC   C4B40294  22.050   8.898   7.560
 2948POPC   NC340295  12.081   3.251   5.506
 2948POPC   PO440296  12.504   3.583   5.049
 2948POPC   GL140297  12.479   3.740   5.604
 2948POPC   GL240298  12.172   3.652   5.787
 2948POPC   C1A40299  12.489   3.715   6.166
 2948POPC   D2A40300  12.622   3.765   6.632
 2948POPC   C3A40301  12.383   3.587   7.005
 2948POPC   C4A40302  12.148   3.853   7.255
 2948POPC   C1B40303  12.003   3.411   6.153
 2948POPC   C2B40304  11.807   3.383   6.578
 2948POPC   C3B40305  11.738   3.554   6.972
 2948POPC   C4B40306  11.907   3.434   7.327
 2949POPC   NC340307  38.054  33.210   5.534
 2949POPC   PO440308  38.661  33.058   5.373
 2949POPC   GL140309  38.722  32.918   5.804
 2949POPC   GL240310  38.361  32.929   5.868
 2949POPC   C1A40311  38.705  32.778   6.252
 2949POPC   D2A40312  38.485  32.653   6.657
 2949POPC   C3A40313  38.510  32.846   7.054
 2949POPC   C4A40314  38.757  32.618   7.338
 2949POPC   C1B40315  38.187  32.916   6.300
 2949POPC   C2B40316  38.126  33.034   6.757
 2949POPC   C3B40317  38.120  33.162   7.193
 2949POPC   C4B40318  38.146  33.326   7.621
 2950POPC   NC340319  31.971  26.839   5.227
 2950POPC   PO440320  32.596  26.890   5.491
 2950POPC   GL140321  32.197  26.836   5.695
 2950POPC   GL240322  32.022  26.515   5.691
 2950POPC   C1A40323  32.095  26.994   6.093
 2950POPC   D2A40324  32.230  27.111   6.521
 2950POPC   C3A40325  32.136  26.915   6.908
 2950POPC   C4A40326  32.199  27.061   7.321
 2950POPC   C1B40327  32.235  26.512   6.126
 2950POPC   C2B40328  32.316  26.525   6.596
 2950POPC   C3B40329  32.244  26.424   7.034
 2950POPC   C4B40330  32.532  26.657   7.227
 2951POPC   NC340331  44.292  18.973   5.429
 2951POPC   PO440332  43.689  19.340   5.328
 2951POPC   GL140333  43.888  19.271   5.718
 2951POPC   GL240334  43.832  18.945   5.751
 2951POPC   C1A40335  43.714  19.200   6.164
 2951POPC   D2A40336  43.589  18.957   6.504
 2951POPC   C3A40337  43.614  19.154   6.920
 2951POPC   C4A40338  43.866  18.968   7.255
 2951POPC   C1B40339  44.151  18.957   6.123
 2951POPC   C2B40340  44.262  19.027   6.592
 2951POPC   C3B40341  44.161  19.297   6.980
 2951POPC   C4B40342  44.218  19.323   7.443
 2952POPC   NC340343   5.086  43.991   5.472
 2952POPC   PO440344   4.596  43.619   5.565
 2952POPC   GL140345   4.922  43.699   5.859
 2952POPC   GL240346   5.215  43.559   5.771
 2952POPC   C1A40347   5.200  43.836   6.215
 2952POPC   D2A40348   5.364  43.838   6.652
 2952POPC   C3A40349   5.082  43.647   6.994
 2952POPC   C4A40350   4.716  43.792   7.267
 2952POPC   C1B40351   5.486  43.427   6.108
 2952POPC   C2B40352   5.679  43.431   6.551
 2952POPC   C3B40353   5.613  43.554   6.988
 2952POPC   C4B40354   5.443  43.848   7.303
 2953POPC   NC340355  44.671  27.351   5.432
 2953POPC   PO440356  44.500  26.657   5.371
 2953POPC   GL140357  44.699  26.818   5.775
 2953POPC   GL240358   0.001  26.665   5.882
 2953POPC   C1A40359  44.721  26.954   6.239
 2953POPC   D2A40360  44.510  26.788   6.609
 2953POPC   C3A40361  44.431  26.963   7.009
 2953POPC   C4A40362  44.619  26.853   7.427
 2953POPC   C1B40363   0.154  26.672   6.278
 2953POPC   C2B40364  44.977  26.568   6.642
 2953POPC   C3B40365  44.932  26.772   7.025
 2953POPC   C4B40366   0.002  26.506   7.385
 2954POPC   NC340367  12.650  13.287   5.599
 2954POPC   PO440368  12.701  12.655   5.337
 2954POPC   GL140369  12.867  12.752   5.752
 2954POPC   GL240370  13.035  13.072   5.831
 2954POPC   C1A40371  12.855  12.567   6.165
 2954POPC   D2A40372  12.628  12.704   6.527
 2954POPC   C3A40373  12.765  12.717   6.936
 2954POPC   C4A40374  13.049  12.724   7.238
 2954POPC   C1B40375  12.916  13.090   6.254
 2954POPC   C2B40376  13.071  13.015   6.655
 2954POPC   C3B40377  12.974  13.182   7.042
 2954POPC   C4B40378  12.570  13.120   7.222
 2955POPC   NC340379  33.302  25.021   5.040
 2955POPC   PO440380  32.786  25.490   5.286
 2955POPC   GL140381  32.925  25.383   5.725
 2955POPC   GL240382  32.792  25.075   5.888
 2955POPC   C1A40383  33.075  25.394   6.163
 2955POPC   D2A40384  32.969  25.158   6.521
 2955POPC   C3A40385  33.045  25.357   6.920
 2955POPC   C4A40386  33.078  25.091   7.269
 2955POPC   C1B40387  32.550  25.190   6.213
 2955POPC   C2B40388  32.445  25.063   6.599
 2955POPC   C3B40389  32.651  25.024   6.976
 2955POPC   C4B40390  32.604  25.290   7.300
 2956POPC   NC340391   9.738  18.167   5.194
 2956POPC   PO440392   9.742  17.484   5.335
 2956POPC   GL140393   9.783  17.411   5.775
 2956POPC   GL240394   9.850  17.091   5.861
 2956POPC   C1A40395   9.729  17.629   6.166
 2956POPC   D2A40396   9.731  17.554   6.615
 2956POPC   C3A40397  10.094  17.556   6.879
 2956POPC   C4A40398   9.896  17.671   7.273
 2956POPC   C1B40399   9.740  17.143   6.309
 2956POPC   C2B40400   9.785  17.049   6.735
 2956POPC   C3B40401   9.796  17.174   7.129
 2956POPC   C4B40402   9.530  17.278   7.421
 2957POPC   NC340403  28.114  19.160   5.405
 2957POPC   PO440404  28.506  18.591   5.554
 2957POPC   GL140405  28.264  18.884   5.879
 2957POPC   GL240406  28.267  19.268   5.878
 2957POPC   C1A40407  28.387  19.018   6.319
 2957POPC   D2A40408  28.455  18.793   6.722
 2957POPC   C3A40409  28.075  18.815   6.921
 2957POPC   C4A40410  28.025  19.194   7.132
 2957POPC   C1B40411  28.205  19.521   6.240
 2957POPC   C2B40412  28.370  19.468   6.632
 2957POPC   C3B40413  28.528  19.267   6.965
 2957POPC   C4B40414  28.745  19.258   7.349
 2958POPC   NC340415  13.634  20.349   5.280
 2958POPC   PO440416  14.120  20.609   5.702
 2958POPC   GL140417  13.661  20.557   5.759
 2958POPC   GL240418  13.490  20.874   5.654
 2958POPC   C1A40419  13.522  20.398   6.168
 2958POPC   D2A40420  13.681  20.320   6.594
 2958POPC   C3A40421  13.476  20.437   7.005
 2958POPC   C4A40422  13.838  20.431   7.309
 2958POPC   C1B40423  13.585  20.908   6.124
 2958POPC   C2B40424  13.865  20.851   6.504
 2958POPC   C3B40425  13.784  20.842   6.965
 2958POPC   C4B40426  13.392  20.913   7.197
 2959POPC   NC340427   7.819   8.309   5.332
 2959POPC   PO440428   8.389   7.958   5.240
 2959POPC   GL140429   8.228   8.061   5.726
 2959POPC   GL240430   7.914   8.135   5.809
 2959POPC   C1A40431   8.265   8.329   6.133
 2959POPC   D2A40432   8.261   8.351   6.586
 2959POPC   C3A40433   7.991   8.520   6.906
 2959POPC   C4A40434   8.042   8.354   7.353
 2959POPC   C1B40435   8.013   7.890   6.206
 2959POPC   C2B40436   8.177   7.851   6.627
 2959POPC   C3B40437   7.976   8.015   6.988
 2959POPC   C4B40438   7.639   8.035   7.344
 2960POPC   NC340439  26.570  36.921   5.397
 2960POPC   PO440440  27.281  36.893   5.335
 2960POPC   GL140441  27.015  36.906   5.739
 2960POPC   GL240442  26.698  36.672   5.819
 2960POPC   C1A40443  27.008  36.975   6.217
 2960POPC   D2A40444  26.704  37.028   6.589
 2960POPC   C3A40445  26.821  37.047   7.041
 2960POPC   C4A40446  26.750  37.115   7.511
 2960POPC   C1B40447  26.798  36.509   6.218
 2960POPC   C2B40448  26.959  36.553   6.627
 2960POPC   C3B40449  26.778  36.521   7.025
 2960POPC   C4B40450  26.490  36.736   7.288
 2961POPC   NC340451  37.040  35.561   5.238
 2961POPC   PO440452  36.548  35.215   5.412
 2961POPC   GL140453  36.658  35.446   5.758
 2961POPC   GL240454  37.004  35.395   5.733
 2961POPC   C1A40455  36.749  35.294   6.198
 2961POPC   D2A40456  36.969  35.119   6.532
 2961POPC   C3A40457  36.811  35.090   6.958
 2961POPC   C4A40458  37.073  35.038   7.312
 2961POPC   C1B40459  37.198  35.525   6.134
 2961POPC   C2B40460  37.042  35.633   6.543
 2961POPC   C3B40461  36.989  35.803   6.949
 2961POPC   C4B40462  37.184  35.725   7.343
 2962POPC   NC340463  18.816   3.471   5.538
 2962POPC   PO440464  19.440   3.784   5.389
 2962POPC   GL140465  19.156   3.748   5.779
 2962POPC   GL240466  19.096   3.378   5.930
 2962POPC   C1A40467  18.841   3.758   6.144
 2962POPC   D2A40468  18.784   3.658   6.597
 2962POPC   C3A40469  18.991   3.470   6.943
 2962POPC   C4A40470  19.052   3.726   7.305
 2962POPC   C1B40471  19.302   3.119   6.192
 2962POPC   C2B40472  19.251   3.170   6.602
 2962POPC   C3B40473  19.504   3.150   6.937
 2962POPC   C4B40474  19.351   3.303   7.288
 2963POPC   NC340475   8.631  10.796   5.505
 2963POPC   PO440476   7.969  10.494   5.563
 2963POPC   GL140477   8.130  10.349   5.887
 2963POPC   GL240478   8.437  10.214   5.780
 2963POPC   C1A40479   8.082  10.474   6.287
 2963POPC   D2A40480   7.873  10.370   6.633
 2963POPC   C3A40481   8.163  10.451   6.936
 2963POPC   C4A40482   8.032  10.510   7.331
 2963POPC   C1B40483   8.562  10.515   6.113
 2963POPC   C2B40484   8.524  10.623   6.549
 2963POPC   C3B40485   8.515  10.821   6.938
 2963POPC   C4B40486   8.447  10.757   7.337
 2964POPC   NC340487   4.789  39.081   5.358
 2964POPC   PO440488   5.342  38.916   5.360
 2964POPC   GL140489   5.146  39.165   5.722
 2964POPC   GL240490   4.927  39.473   5.781
 2964POPC   C1A40491   5.011  39.178   6.184
 2964POPC   D2A40492   5.002  39.405   6.596
 2964POPC   C3A40493   5.128  39.255   7.031
 2964POPC   C4A40494   5.440  39.307   7.391
 2964POPC   C1B40495   4.671  39.595   6.176
 2964POPC   C2B40496   4.667  39.792   6.611
 2964POPC   C3B40497   4.943  39.743   6.996
 2964POPC   C4B40498   5.234  39.865   7.343
 2965POPC   NC340499  24.320  42.092   5.252
 2965POPC   PO440500  24.854  42.416   5.181
 2965POPC   GL140501  24.628  42.223   5.623
 2965POPC   GL240502  24.399  42.434   5.795
 2965POPC   C1A40503  24.767  42.182   6.078
 2965POPC   D2A40504  24.825  42.009   6.496
 2965POPC   C3A40505  24.845  42.345   6.787
 2965POPC   C4A40506  24.605  42.433   7.138
 2965POPC   C1B40507  24.285  42.310   6.237
 2965POPC   C2B40508  24.351  42.235   6.696
 2965POPC   C3B40509  24.129  42.124   7.082
 2965POPC   C4B40510  24.095  42.020   7.556
 2966POPC   NC340511  26.424   9.691   5.559
 2966POPC   PO440512  26.999   9.933   5.338
 2966POPC   GL140513  26.847   9.876   5.776
 2966POPC   GL240514  26.831   9.526   5.858
 2966POPC   C1A40515  26.631   9.830   6.224
 2966POPC   D2A40516  26.501  10.093   6.581
 2966POPC   C3A40517  26.727  10.027   6.966
 2966POPC   C4A40518  26.765   9.668   7.164
 2966POPC   C1B40519  26.621   9.334   6.215
 2966POPC   C2B40520  26.687   9.440   6.648
 2966POPC   C3B40521  26.541   9.237   7.026
 2966POPC   C4B40522  26.594   9.233   7.493
 2967POPC   NC340523  23.958   9.556   5.355
 2967POPC   PO440524  23.531   9.976   5.299
 2967POPC   GL140525  23.608   9.840   5.731
 2967POPC   GL240526  23.968   9.814   5.805
 2967POPC   C1A40527  23.635   9.771   6.197
 2967POPC   D2A40528  23.847   9.833   6.621
 2967POPC   C3A40529  23.703   9.725   7.056
 2967POPC   C4A40530  23.894   9.435   7.386
 2967POPC   C1B40531  23.999  10.120   6.163
 2967POPC   C2B40532  24.030  10.294   6.587
 2967POPC   C3B40533  24.010  10.153   7.026
 2967POPC   C4B40534  23.987  10.004   7.429
 2968POPC   NC340535  13.172  18.892   5.488
 2968POPC   PO440536  12.578  19.205   5.316
 2968POPC   GL140537  12.683  19.180   5.745
 2968POPC   GL240538  12.961  19.332   5.679
 2968POPC   C1A40539  12.688  18.893   6.122
 2968POPC   D2A40540  12.528  18.932   6.581
 2968POPC   C3A40541  12.880  19.052   6.876
 2968POPC   C4A40542  13.072  18.819   7.213
 2968POPC   C1B40543  13.044  19.431   6.082
 2968POPC   C2B40544  12.810  19.304   6.412
 2968POPC   C3B40545  12.531  19.425   6.733
 2968POPC   C4B40546  12.799  19.544   7.059
 2969POPC   NC340547  18.396   9.298   5.232
 2969POPC   PO440548  18.463   9.911   5.115
 2969POPC   GL140549  18.402   9.803   5.627
 2969POPC   GL240550  18.333   9.418   5.737
 2969POPC   C1A40551  18.387   9.862   6.120
 2969POPC   D2A40552  18.299   9.938   6.603
 2969POPC   C3A40553  18.447   9.769   6.969
 2969POPC   C4A40554  18.716   9.818   7.269
 2969POPC   C1B40555  18.075   9.451   6.118
 2969POPC   C2B40556  18.197   9.429   6.539
 2969POPC   C3B40557  18.261   9.272   6.971
 2969POPC   C4B40558  18.387   9.391   7.373
 2970POPC   NC340559  37.403   6.749   5.448
 2970POPC   PO440560  37.877   6.310   5.319
 2970POPC   GL140561  37.769   6.463   5.728
 2970POPC   GL240562  37.734   6.855   5.803
 2970POPC   C1A40563  37.928   6.543   6.146
 2970POPC   D2A40564  37.936   6.783   6.526
 2970POPC   C3A40565  37.980   6.483   6.859
 2970POPC   C4A40566  37.703   6.456   7.186
 2970POPC   C1B40567  37.516   6.917   6.211
 2970POPC   C2B40568  37.514   7.095   6.635
 2970POPC   C3B40569  37.582   6.984   7.084
 2970POPC   C4B40570  37.379   7.043   7.501
 2971POPC   NC340571   8.041  23.463   5.446
 2971POPC   PO440572   8.592  23.254   5.340
 2971POPC   GL140573   8.497  23.573   5.724
 2971POPC   GL240574   8.230  23.850   5.742
 2971POPC   C1A40575   8.335  23.680   6.193
 2971POPC   D2A40576   8.167  23.683   6.611
 2971POPC   C3A40577   8.469  23.802   6.939
 2971POPC   C4A40578   8.382  23.708   7.375
 2971POPC   C1B40579   8.122  24.128   6.160
 2971POPC   C2B40580   7.978  24.150   6.615
 2971POPC   C3B40581   7.999  23.953   7.038
 2971POPC   C4B40582   7.885  23.815   7.444
 2972POPC   NC340583  31.274   8.451   5.338
 2972POPC   PO440584  31.697   7.912   5.487
 2972POPC   GL140585  31.557   8.202   5.798
 2972POPC   GL240586  31.815   8.446   5.768
 2972POPC   C1A40587  31.578   8.124   6.264
 2972POPC   D2A40588  31.377   8.207   6.686
 2972POPC   C3A40589  31.447   7.987   7.069
 2972POPC   C4A40590  31.154   7.981   7.439
 2972POPC   C1B40591  31.949   8.475   6.215
 2972POPC   C2B40592  31.907   8.262   6.630
 2972POPC   C3B40593  31.795   8.398   7.032
 2972POPC   C4B40594  31.474   8.422   7.319
 2973POPC   NC340595  31.030  42.860   5.662
 2973POPC   PO440596  31.027  42.190   5.441
 2973POPC   GL140597  30.911  42.344   5.842
 2973POPC   GL240598  30.549  42.400   5.931
 2973POPC   C1A40599  30.856  42.159   6.258
 2973POPC   D2A40600  30.708  42.346   6.635
 2973POPC   C3A40601  30.837  42.166   6.981
 2973POPC   C4A40602  30.498  42.036   7.179
 2973POPC   C1B40603  30.834  42.680   6.250
 2973POPC   C2B40604  31.079  42.699   6.662
 2973POPC   C3B40605  30.866  42.687   7.066
 2973POPC   C4B40606  30.413  42.540   7.123
 2974POPC   NC340607  23.155  36.993   5.483
 2974POPC   PO440608  22.790  36.520   5.553
 2974POPC   GL140609  22.787  36.854   5.832
 2974POPC   GL240610  22.586  37.149   5.697
 2974POPC   C1A40611  23.019  36.894   6.217
 2974POPC   D2A40612  23.278  36.943   6.588
 2974POPC   C3A40613  23.027  37.004   6.940
 2974POPC   C4A40614  22.688  36.790   7.121
 2974POPC   C1B40615  22.625  37.232   6.142
 2974POPC   C2B40616  22.655  37.079   6.579
 2974POPC   C3B40617  22.610  37.294   6.976
 2974POPC   C4B40618  22.307  37.394   7.284
 2975POPC   NC340619  32.133   8.081   5.451
 2975POPC   PO440620  32.756   8.065   5.577
 2975POPC   GL140621  32.506   7.988   5.876
 2975POPC   GL240622  32.322   8.309   5.894
 2975POPC   C1A40623  32.546   8.080   6.309
 2975POPC   D2A40624  32.378   8.403   6.519
 2975POPC   C3A40625  32.505   8.479   6.936
 2975POPC   C4A40626  32.360   8.329   7.310
 2975POPC   C1B40627  32.071   7.978   6.137
 2975POPC   C2B40628  32.169   7.785   6.543
 2975POPC   C3B40629  32.227   7.960   6.966
 2975POPC   C4B40630  31.943   7.990   7.324
 2976POPC   NC340631  18.809  24.306   5.512
 2976POPC   PO440632  19.278  24.852   5.402
 2976POPC   GL140633  19.069  24.643   5.832
 2976POPC   GL240634  18.697  24.545   5.939
 2976POPC   C1A40635  19.016  24.588   6.325
 2976POPC   D2A40636  19.024  24.332   6.734
 2976POPC   C3A40637  19.267  24.507   7.096
 2976POPC   C4A40638  19.370  24.785   7.465
 2976POPC   C1B40639  18.475  24.230   6.235
 2976POPC   C2B40640  18.521  23.999   6.614
 2976POPC   C3B40641  18.576  24.134   7.010
 2976POPC   C4B40642  18.780  24.444   7.184
 2977POPC   NC340643  17.213   9.969   5.137
 2977POPC   PO440644  17.123   9.283   5.406
 2977POPC   GL140645  17.455   9.546   5.677
 2977POPC   GL240646  17.821   9.518   5.670
 2977POPC   C1A40647  17.444   9.647   6.128
 2977POPC   D2A40648  17.358   9.969   6.462
 2977POPC   C3A40649  17.529   9.923   6.846
 2977POPC   C4A40650  17.573   9.751   7.250
 2977POPC   C1B40651  17.856   9.874   5.969
 2977POPC   C2B40652  17.840   9.796   6.446
 2977POPC   C3B40653  17.948   9.673   6.906
 2977POPC   C4B40654  18.072   9.799   7.343
 2978POPC   NC340655   0.329  41.047   5.277
 2978POPC   PO440656   0.350  40.427   5.428
 2978POPC   GL140657   0.633  40.725   5.639
 2978POPC   GL240658   0.461  41.024   5.752
 2978POPC   C1A40659   0.828  40.827   6.058
 2978POPC   D2A40660   0.933  40.709   6.489
 2978POPC   C3A40661   0.697  40.881   6.835
 2978POPC   C4A40662   0.729  40.725   7.226
 2978POPC   C1B40663   0.315  40.752   6.049
 2978POPC   C2B40664   0.356  40.783   6.476
 2978POPC   C3B40665   0.200  40.744   6.923
 2978POPC   C4B40666   0.295  40.445   7.251
 2979POPC   NC340667  22.716  23.210   5.393
 2979POPC   PO440668  23.193  23.694   5.478
 2979POPC   GL140669  22.982  23.477   5.764
 2979POPC   GL240670  22.640  23.602   5.696
 2979POPC   C1A40671  22.904  23.620   6.167
 2979POPC   D2A40672  23.018  23.396   6.507
 2979POPC   C3A40673  23.212  23.524   6.880
 2979POPC   C4A40674  23.063  23.717   7.232
 2979POPC   C1B40675  22.393  23.488   6.041
 2979POPC   C2B40676  22.507  23.492   6.460
 2979POPC   C3B40677  22.730  23.771   6.750
 2979POPC   C4B40678  22.584  23.863   7.159
 2980POPC   NC340679   8.438  18.926   5.462
 2980POPC   PO440680   7.814  19.160   5.425
 2980POPC   GL140681   8.097  19.127   5.796
 2980POPC   GL240682   8.447  19.313   5.818
 2980POPC   C1A40683   7.947  18.925   6.189
 2980POPC   D2A40684   7.991  19.038   6.604
 2980POPC   C3A40685   7.863  18.980   7.035
 2980POPC   C4A40686   8.152  19.256   7.211
 2980POPC   C1B40687   8.452  18.975   6.152
 2980POPC   C2B40688   8.498  18.863   6.611
 2980POPC   C3B40689   8.373  18.805   7.053
 2980POPC   C4B40690   8.592  18.780   7.466
 2981POPC   NC340691  31.258  36.168   5.583
 2981POPC   PO440692  30.577  36.127   5.400
 2981POPC   GL140693  30.771  36.095   5.777
 2981POPC   GL240694  30.582  35.824   5.889
 2981POPC   C1A40695  30.762  36.283   6.186
 2981POPC   D2A40696  30.633  36.099   6.565
 2981POPC   C3A40697  30.613  36.363   6.890
 2981POPC   C4A40698  30.692  36.243   7.303
 2981POPC   C1B40699  30.847  35.751   6.235
 2981POPC   C2B40700  31.053  35.792   6.633
 2981POPC   C3B40701  30.910  35.847   7.040
 2981POPC   C4B40702  31.086  35.936   7.436
 2982POPC   NC340703  14.918  36.234   5.398
 2982POPC   PO440704  15.491  35.906   5.327
 2982POPC   GL140705  15.295  36.004   5.707
 2982POPC   GL240706  15.473  36.289   5.799
 2982POPC   C1A40707  15.032  36.044   6.093
 2982POPC   D2A40708  14.952  36.268   6.518
 2982POPC   C3A40709  14.906  36.042   6.915
 2982POPC   C4A40710  15.007  36.081   7.308
 2982POPC   C1B40711  15.529  36.024   6.187
 2982POPC   C2B40712  15.386  35.989   6.637
 2982POPC   C3B40713  15.435  35.976   7.075
 2982POPC   C4B40714  15.453  36.308   7.401
 2983POPC   NC340715  22.313  28.051   5.310
 2983POPC   PO440716  21.741  28.427   5.344
 2983POPC   GL140717  22.057  28.389   5.690
 2983POPC   GL240718  22.433  28.419   5.670
 2983POPC   C1A40719  21.994  28.296   6.124
 2983POPC   D2A40720  22.186  28.246   6.524
 2983POPC   C3A40721  21.949  28.290   6.911
 2983POPC   C4A40722  22.176  28.167   7.271
 2983POPC   C1B40723  22.450  28.551   6.114
 2983POPC   C2B40724  22.423  28.704   6.546
 2983POPC   C3B40725  22.445  28.468   6.943
 2983POPC   C4B40726  22.712  28.315   7.307
 2984POPC   NC340727   4.574  14.626   5.259
 2984POPC   PO440728   4.159  14.137   5.410
 2984POPC   GL140729   4.389  14.329   5.781
 2984POPC   GL240730   4.523  14.688   5.758
 2984POPC   C1A40731   4.292  14.263   6.236
 2984POPC   D2A40732   4.321  14.062   6.655
 2984POPC   C3A40733   4.207  14.184   7.088
 2984POPC   C4A40734   4.471  14.357   7.424
 2984POPC   C1B40735   4.670  14.607   6.162
 2984POPC   C2B40736   4.680  14.434   6.595
 2984POPC   C3B40737   4.470  14.618   6.970
 2984POPC   C4B40738   4.614  14.849   7.343
 2985POPC   NC340739  27.901  17.731   5.392
 2985POPC   PO440740  28.586  17.600   5.443
 2985POPC   GL140741  28.305  17.417   5.694
 2985POPC   GL240742  28.127  17.706   5.848
 2985POPC   C1A40743  28.488  17.368   6.122
 2985POPC   D2A40744  28.539  17.597   6.542
 2985POPC   C3A40745  28.626  17.330   6.918
 2985POPC   C4A40746  28.552  17.421   7.364
 2985POPC   C1B40747  27.992  17.371   6.105
 2985POPC   C2B40748  28.180  17.232   6.502
 2985POPC   C3B40749  28.117  17.435   6.875
 2985POPC   C4B40750  28.053  17.546   7.281
 2986POPC   NC340751   9.389  10.610   5.487
 2986POPC   PO440752   8.728  10.317   5.348
 2986POPC   GL140753   8.956  10.391   5.725
 2986POPC   GL240754   9.200  10.143   5.777
 2986POPC   C1A40755   9.076  10.551   6.145
 2986POPC   D2A40756   9.077  10.836   6.504
 2986POPC   C3A40757   9.009  10.672   6.905
 2986POPC   C4A40758   8.877  10.488   7.290
 2986POPC   C1B40759   9.333  10.098   6.216
 2986POPC   C2B40760   9.440  10.413   6.534
 2986POPC   C3B40761   9.430  10.373   6.980
 2986POPC   C4B40762   9.210  10.127   7.292
 2987POPC   NC340763  32.671   6.664   5.374
 2987POPC   PO440764  33.038   7.095   5.610
 2987POPC   GL140765  32.857   6.769   5.861
 2987POPC   GL240766  32.550   6.566   5.864
 2987POPC   C1A40767  32.995   6.642   6.239
 2987POPC   D2A40768  33.254   6.701   6.570
 2987POPC   C3A40769  33.034   6.669   6.985
 2987POPC   C4A40770  32.743   6.675   7.339
 2987POPC   C1B40771  32.603   6.333   6.259
 2987POPC   C2B40772  32.891   6.231   6.602
 2987POPC   C3B40773  33.296   6.250   6.817
 2987POPC   C4B40774  33.493   6.376   7.170
 2988POPC   NC340775  37.258  11.464   5.432
 2988POPC   PO440776  37.660  11.028   5.012
 2988POPC   GL140777  37.739  11.185   5.507
 2988POPC   GL240778  37.822  10.923   5.791
 2988POPC   C1A40779  37.696  11.354   5.988
 2988POPC   D2A40780  37.477  11.309   6.425
 2988POPC   C3A40781  37.756  11.252   6.797
 2988POPC   C4A40782  37.724  11.408   7.229
 2988POPC   C1B40783  37.769  10.895   6.257
 2988POPC   C2B40784  37.514  10.820   6.634
 2988POPC   C3B40785  37.413  10.972   7.091
 2988POPC   C4B40786  37.521  11.015   7.553
 2989POPC   NC340787   5.961  31.779   5.175
 2989POPC   PO440788   5.823  32.327   5.319
 2989POPC   GL140789   5.956  32.207   5.742
 2989POPC   GL240790   5.999  32.555   5.842
 2989POPC   C1A40791   5.847  32.069   6.199
 2989POPC   D2A40792   5.830  32.293   6.641
 2989POPC   C3A40793   5.752  32.064   7.065
 2989POPC   C4A40794   5.532  32.121   7.459
 2989POPC   C1B40795   6.106  32.798   6.224
 2989POPC   C2B40796   6.249  32.679   6.637
 2989POPC   C3B40797   6.079  32.519   7.035
 2989POPC   C4B40798   5.726  32.566   7.305
 2990POPC   NC340799  13.760  26.364   5.601
 2990POPC   PO440800  13.646  27.049   5.355
 2990POPC   GL140801  13.872  26.872   5.736
 2990POPC   GL240802  13.576  26.820   5.949
 2990POPC   C1A40803  14.017  26.680   6.172
 2990POPC   D2A40804  13.722  26.762   6.531
 2990POPC   C3A40805  13.718  26.629   6.950
 2990POPC   C4A40806  13.626  26.583   7.387
 2990POPC   C1B40807  13.815  27.140   6.203
 2990POPC   C2B40808  14.082  27.225   6.518
 2990POPC   C3B40809  14.010  27.031   6.876
 2990POPC   C4B40810  13.944  27.033   7.295
 2991POPC   NC340811  29.398  17.819   5.240
 2991POPC   PO440812  29.163  17.140   5.232
 2991POPC   GL140813  29.035  17.379   5.636
 2991POPC   GL240814  29.062  17.751   5.619
 2991POPC   C1A40815  28.951  17.550   6.077
 2991POPC   D2A40816  29.024  17.375   6.475
 2991POPC   C3A40817  29.078  17.602   6.850
 2991POPC   C4A40818  29.062  17.335   7.221
 2991POPC   C1B40819  29.410  17.661   5.927
 2991POPC   C2B40820  29.451  17.722   6.411
 2991POPC   C3B40821  29.643  17.868   6.823
 2991POPC   C4B40822  29.471  17.658   7.182
 2992POPC   NC340823   2.592  13.003   5.115
 2992POPC   PO440824   2.621  13.669   5.179
 2992POPC   GL140825   2.618  13.736   5.626
 2992POPC   GL240826   2.774  14.059   5.727
 2992POPC   C1A40827   2.704  13.676   6.085
 2992POPC   D2A40828   3.036  13.777   6.389
 2992POPC   C3A40829   2.969  13.646   6.822
 2992POPC   C4A40830   3.050  13.360   7.173
 2992POPC   C1B40831   2.702  14.200   6.176
 2992POPC   C2B40832   2.808  14.168   6.629
 2992POPC   C3B40833   2.708  14.112   7.040
 2992POPC   C4B40834   2.844  13.812   7.324
 2993POPC   NC340835  43.891  13.307   5.479
 2993POPC   PO440836  43.510  13.784   5.360
 2993POPC   GL140837  43.791  13.838   5.696
 2993POPC   GL240838  43.754  13.539   5.903
 2993POPC   C1A40839  44.130  13.853   6.029
 2993POPC   D2A40840  44.067  13.521   6.363
 2993POPC   C3A40841  44.120  13.565   6.819
 2993POPC   C4A40842  44.227  13.378   7.217
 2993POPC   C1B40843  43.654  13.841   6.191
 2993POPC   C2B40844  43.784  13.897   6.590
 2993POPC   C3B40845  43.694  13.795   7.003
 2993POPC   C4B40846  43.960  13.800   7.338
 2994POPC   NC340847  16.301  37.171   5.338
 2994POPC   PO440848  15.987  37.770   5.376
 2994POPC   GL140849  16.195  37.534   5.696
 2994POPC   GL240850  16.071  37.248   5.854
 2994POPC   C1A40851  16.168  37.724   6.094
 2994POPC   D2A40852  16.156  37.624   6.517
 2994POPC   C3A40853  16.187  37.870   6.902
 2994POPC   C4A40854  16.023  37.738   7.305
 2994POPC   C1B40855  15.732  37.412   6.100
 2994POPC   C2B40856  15.656  37.639   6.489
 2994POPC   C3B40857  15.768  37.538   6.901
 2994POPC   C4B40858  15.651  37.367   7.311
 2995POPC   NC340859  23.702  32.327   5.378
 2995POPC   PO440860  24.157  31.936   5.634
 2995POPC   GL140861  23.866  32.278   5.862
 2995POPC   GL240862  23.468  32.268   5.828
 2995POPC   C1A40863  23.879  32.427   6.299
 2995POPC   D2A40864  24.146  32.134   6.559
 2995POPC   C3A40865  23.944  32.025   6.931
 2995POPC   C4A40866  23.879  32.308   7.211
 2995POPC   C1B40867  23.517  32.043   6.223
 2995POPC   C2B40868  23.480  32.111   6.679
 2995POPC   C3B40869  23.366  31.982   7.104
 2995POPC   C4B40870  23.204  31.905   7.545
 2996POPC   NC340871   0.734  42.583   5.478
 2996POPC   PO440872   0.763  41.979   5.762
 2996POPC   GL140873   0.356  42.133   5.940
 2996POPC   GL240874   0.328  42.472   5.821
 2996POPC   C1A40875   0.350  42.319   6.350
 2996POPC   D2A40876   0.670  42.390   6.683
 2996POPC   C3A40877   0.567  42.090   7.019
 2996POPC   C4A40878   0.477  42.080   7.442
 2996POPC   C1B40879   0.158  42.766   6.158
 2996POPC   C2B40880   0.216  42.723   6.630
 2996POPC   C3B40881   0.351  42.585   7.023
 2996POPC   C4B40882   0.273  42.576   7.439
 2997POPC   NC340883  40.446  20.298   5.491
 2997POPC   PO440884  41.169  20.450   5.435
 2997POPC   GL140885  40.925  20.601   5.748
 2997POPC   GL240886  41.133  20.886   5.830
 2997POPC   C1A40887  40.763  20.394   6.125
 2997POPC   D2A40888  40.595  20.301   6.525
 2997POPC   C3A40889  40.813  20.477   6.859
 2997POPC   C4A40890  40.665  20.584   7.276
 2997POPC   C1B40891  40.748  20.930   6.113
 2997POPC   C2B40892  40.567  20.858   6.540
 2997POPC   C3B40893  40.770  20.975   6.941
 2997POPC   C4B40894  40.819  21.066   7.351
 2998POPC   NC340895   4.260  17.148   5.435
 2998POPC   PO440896   4.177  17.863   5.493
 2998POPC   GL140897   4.123  17.663   5.868
 2998POPC   GL240898   4.407  17.447   5.857
 2998POPC   C1A40899   4.201  17.707   6.322
 2998POPC   D2A40900   4.003  17.655   6.735
 2998POPC   C3A40901   4.307  17.711   7.064
 2998POPC   C4A40902   4.698  17.505   7.135
 2998POPC   C1B40903   4.310  17.201   6.202
 2998POPC   C2B40904   4.333  17.271   6.637
 2998POPC   C3B40905   4.150  17.236   7.015
 2998POPC   C4B40906   4.433  17.097   7.313
 2999POPC   NC340907   6.591  10.850   5.764
 2999POPC   PO440908   6.980  10.347   5.519
 2999POPC   GL140909   6.782  10.381   5.948
 2999POPC   GL240910   6.769  10.051   6.023
 2999POPC   C1A40911   6.526  10.382   6.359
 2999POPC   D2A40912   6.633  10.649   6.709
 2999POPC   C3A40913   6.553  10.551   7.134
 2999POPC   C4A40914   6.280  10.845   7.390
 2999POPC   C1B40915   6.980  10.166   6.382
 2999POPC   C2B40916   6.848  10.175   6.795
 2999POPC   C3B40917   6.938  10.217   7.194
 2999POPC   C4B40918   6.781  10.226   7.617
 3000POPC   NC340919  16.826   0.451   5.429
 3000POPC   PO440920  16.365  44.926   5.607
 3000POPC   GL140921  16.582   0.225   5.791
 3000POPC   GL240922  16.895   0.133   5.850
 3000POPC   C1A40923  16.638   0.596   6.074
 3000POPC   D2A40924  16.531   0.540   6.523
 3000POPC   C3A40925  16.635   0.812   6.871
 3000POPC   C4A40926  16.732   0.765   7.296
 3000POPC   C1B40927  16.689   0.119   6.256
 3000POPC   C2B40928  16.726   0.057   6.638
 3000POPC   C3B40929  16.639   0.268   7.000
 3000POPC   C4B40930  17.015   0.358   7.202
 3001POPC   NC340931  39.443  27.527   5.321
 3001POPC   PO440932  39.033  27.989   5.266
 3001POPC   GL140933  39.081  27.664   5.664
 3001POPC   GL240934  39.355  27.833   5.836
 3001POPC   C1A40935  39.011  27.597   6.165
 3001POPC   D2A40936  38.835  27.493   6.593
 3001POPC   C3A40937  39.153  27.406   6.914
 3001POPC   C4A40938  39.166  27.590   7.344
 3001POPC   C1B40939  39.510  27.556   6.195
 3001POPC   C2B40940  39.690  27.697   6.597
 3001POPC   C3B40941  39.526  27.732   7.001
 3001POPC   C4B40942  39.676  27.518   7.406
 3002POPC   NC340943  43.538   3.154   5.597
 3002POPC   PO440944  43.831   3.600   5.111
 3002POPC   GL140945  43.841   3.554   5.584
 3002POPC   GL240946  44.180   3.540   5.701
 3002POPC   C1A40947  43.819   3.697   6.030
 3002POPC   D2A40948  43.787   3.916   6.422
 3002POPC   C3A40949  43.701   3.641   6.773
 3002POPC   C4A40950  43.758   3.693   7.225
 3002POPC   C1B40951  44.192   3.345   6.112
 3002POPC   C2B40952  44.058   3.328   6.531
 3002POPC   C3B40953  44.118   3.345   6.968
 3002POPC   C4B40954  44.286   3.679   7.209
 3003POPC   NC340955  26.664   4.014   5.591
 3003POPC   PO440956  27.039   4.603   5.504
 3003POPC   GL140957  26.954   4.386   5.855
 3003POPC   GL240958  26.578   4.369   5.926
 3003POPC   C1A40959  27.101   4.580   6.232
 3003POPC   D2A40960  27.122   4.397   6.634
 3003POPC   C3A40961  26.852   4.599   6.925
 3003POPC   C4A40962  26.487   4.572   7.221
 3003POPC   C1B40963  26.777   4.178   6.293
 3003POPC   C2B40964  26.627   4.191   6.690
 3003POPC   C3B40965  26.570   4.076   7.099
 3003POPC   C4B40966  26.520   4.157   7.514
 3004POPC   NC340967  31.961  18.167   5.534
 3004POPC   PO440968  32.521  18.413   5.191
 3004POPC   GL140969  32.542  18.421   5.682
 3004POPC   GL240970  32.304  18.202   5.901
 3004POPC   C1A40971  32.578  18.532   6.158
 3004POPC   D2A40972  32.433  18.221   6.444
 3004POPC   C3A40973  32.531  18.193   6.870
 3004POPC   C4A40974  32.326  18.158   7.251
 3004POPC   C1B40975  31.943  18.087   6.202
 3004POPC   C2B40976  31.931  18.292   6.583
 3004POPC   C3B40977  32.005  18.424   6.969
 3004POPC   C4B40978  31.812  18.185   7.271
 3005POPC   NC340979   2.567   6.808   5.393
 3005POPC   PO440980   3.034   6.277   5.337
 3005POPC   GL140981   2.850   6.555   5.718
 3005POPC   GL240982   2.956   6.926   5.716
 3005POPC   C1A40983   2.691   6.451   6.155
 3005POPC   D2A40984   2.850   6.572   6.564
 3005POPC   C3A40985   2.718   6.400   6.949
 3005POPC   C4A40986   2.727   6.611   7.365
 3005POPC   C1B40987   2.908   6.928   6.162
 3005POPC   C2B40988   2.822   7.081   6.582
 3005POPC   C3B40989   2.845   6.901   6.960
 3005POPC   C4B40990   3.207   6.627   7.084
 3006POPC   NC340991   8.090   1.897   5.425
 3006POPC   PO440992   8.528   2.355   5.692
 3006POPC   GL140993   8.294   2.401   6.013
 3006POPC   GL240994   8.060   2.205   5.866
 3006POPC   C1A40995   8.221   2.215   6.404
 3006POPC   D2A40996   8.352   1.820   6.583
 3006POPC   C3A40997   8.474   1.756   6.995
 3006POPC   C4A40998   8.342   1.841   7.417
 3006POPC   C1B40999   8.118   1.817   6.091
 3006POPC   C2B41000   7.878   1.706   6.480
 3006POPC   C3B41001   7.922   1.854   6.921
 3006POPC   C4B41002   7.860   1.673   7.336
 3007POPC   NC341003  16.349  40.313   5.570
 3007POPC   PO441004  16.063  39.735   5.368
 3007POPC   GL141005  16.036  39.710   5.813
 3007POPC   GL241006  16.353  39.683   5.848
 3007POPC   C1A41007  16.004  39.570   6.252
 3007POPC   D2A41008  16.159  39.697   6.665
 3007POPC   C3A41009  15.890  39.914   6.951
 3007POPC   C4A41010  15.940  40.276   7.220
 3007POPC   C1B41011  16.221  40.015   6.198
 3007POPC   C2B41012  16.181  40.259   6.598
 3007POPC   C3B41013  16.367  40.153   6.990
 3007POPC   C4B41014  16.316  39.742   7.224
 3008POPC   NC341015  32.400  31.090   5.508
 3008POPC   PO441016  32.110  30.477   5.277
 3008POPC   GL141017  32.173  30.538   5.750
 3008POPC   GL241018  32.372  30.809   5.963
 3008POPC   C1A41019  32.113  30.432   6.201
 3008POPC   D2A41020  32.260  30.696   6.567
 3008POPC   C3A41021  32.057  30.438   6.884
 3008POPC   C4A41022  32.095  30.190   7.202
 3008POPC   C1B41023  31.985  30.924   6.183
 3008POPC   C2B41024  31.765  30.789   6.586
 3008POPC   C3B41025  31.990  30.922   6.949
 3008POPC   C4B41026  32.382  30.713   7.165
 3009POPC   NC341027  37.540  34.138   5.520
 3009POPC   PO441028  37.766  33.494   5.277
 3009POPC   GL141029  37.732  33.533   5.760
 3009POPC   GL241030  38.096  33.556   5.904
 3009POPC   C1A41031  37.517  33.687   6.149
 3009POPC   D2A41032  37.430  33.951   6.500
 3009POPC   C3A41033  37.502  33.836   6.923
 3009POPC   C4A41034  37.381  33.723   7.327
 3009POPC   C1B41035  38.013  33.871   6.197
 3009POPC   C2B41036  37.915  33.816   6.600
 3009POPC   C3B41037  38.000  33.994   6.978
 3009POPC   C4B41038  37.958  33.682   7.272
 3010POPC   NC341039  27.145  12.898   5.372
 3010POPC   PO441040  27.814  12.944   5.205
 3010POPC   GL141041  27.556  12.964   5.680
 3010POPC   GL241042  27.269  12.712   5.832
 3010POPC   C1A41043  27.633  12.842   6.149
 3010POPC   D2A41044  27.425  12.949   6.552
 3010POPC   C3A41045  27.524  13.042   6.993
 3010POPC   C4A41046  27.583  13.048   7.459
 3010POPC   C1B41047  27.100  12.637   6.298
 3010POPC   C2B41048  27.136  12.622   6.806
 3010POPC   C3B41049  27.358  12.625   7.226
 3010POPC   C4B41050  27.331  12.667   7.660
 3011POPC   NC341051  21.589   9.491   5.275
 3011POPC   PO441052  21.017   9.926   5.454
 3011POPC   GL141053  21.251   9.806   5.790
 3011POPC   GL241054  21.388   9.486   5.761
 3011POPC   C1A41055  21.214   9.946   6.208
 3011POPC   D2A41056  21.440  10.045   6.572
 3011POPC   C3A41057  21.219   9.923   6.959
 3011POPC   C4A41058  21.583   9.961   7.206
 3011POPC   C1B41059  21.159   9.433   6.156
 3011POPC   C2B41060  21.222   9.563   6.578
 3011POPC   C3B41061  21.579   9.588   6.859
 3011POPC   C4B41062  21.457   9.402   7.259
 3012POPC   NC341063   2.128  20.125   5.319
 3012POPC   PO441064   1.689  19.647   5.414
 3012POPC   GL141065   1.846  19.814   5.719
 3012POPC   GL241066   1.703  20.115   5.662
 3012POPC   C1A41067   2.033  19.705   6.098
 3012POPC   D2A41068   1.872  19.807   6.478
 3012POPC   C3A41069   2.004  19.617   6.843
 3012POPC   C4A41070   2.144  19.904   7.147
 3012POPC   C1B41071   1.593  20.058   6.096
 3012POPC   C2B41072   1.643  20.266   6.481
 3012POPC   C3B41073   1.749  20.095   6.883
 3012POPC   C4B41074   1.597  20.114   7.287
 3013POPC   NC341075  13.965  21.023   5.558
 3013POPC   PO441076  14.574  21.435   5.515
 3013POPC   GL141077  14.288  21.316   5.871
 3013POPC   GL241078  14.131  21.604   5.833
 3013POPC   C1A41079  14.217  21.258   6.357
 3013POPC   D2A41080  14.515  21.400   6.722
 3013POPC   C3A41081  14.421  21.231   7.149
 3013POPC   C4A41082  14.596  20.952   7.480
 3013POPC   C1B41083  14.375  21.709   6.190
 3013POPC   C2B41084  14.158  21.746   6.577
 3013POPC   C3B41085  14.168  21.668   7.010
 3013POPC   C4B41086  14.252  21.658   7.415
 3014POPC   NC341087  38.043  22.328   5.276
 3014POPC   PO441088  37.562  21.940   5.410
 3014POPC   GL141089  37.731  22.270   5.713
 3014POPC   GL241090  38.106  22.326   5.785
 3014POPC   C1A41091  37.728  22.471   6.138
 3014POPC   D2A41092  37.497  22.519   6.534
 3014POPC   C3A41093  37.577  22.360   6.944
 3014POPC   C4A41094  37.361  22.011   7.097
 3014POPC   C1B41095  37.960  22.009   6.127
 3014POPC   C2B41096  37.802  22.005   6.584
 3014POPC   C3B41097  37.865  21.951   7.045
 3014POPC   C4B41098  37.710  22.056   7.471
 3015POPC   NC341099   7.193   8.380   5.273
 3015POPC   PO441100   7.626   7.898   5.200
 3015POPC   GL141101   7.430   8.119   5.637
 3015POPC   GL241102   7.506   8.452   5.741
 3015POPC   C1A41103   7.518   8.120   6.140
 3015POPC   D2A41104   7.738   8.212   6.542
 3015POPC   C3A41105   7.446   8.092   6.884
 3015POPC   C4A41106   7.229   7.783   7.177
 3015POPC   C1B41107   7.489   8.620   6.194
 3015POPC   C2B41108   7.236   8.486   6.579
 3015POPC   C3B41109   7.179   8.564   7.036
 3015POPC   C4B41110   7.568   8.511   7.223
 3016POPC   NC341111   5.556  20.377   5.239
 3016POPC   PO441112   5.904  20.850   5.573
 3016POPC   GL141113   5.801  20.516   5.863
 3016POPC   GL241114   5.490  20.340   5.773
 3016POPC   C1A41115   5.696  20.612   6.290
 3016POPC   D2A41116   5.867  20.992   6.518
 3016POPC   C3A41117   5.759  20.990   6.911
 3016POPC   C4A41118   5.873  20.720   7.228
 3016POPC   C1B41119   5.616  20.115   6.178
 3016POPC   C2B41120   5.819  20.108   6.575
 3016POPC   C3B41121   5.870  20.237   6.991
 3016POPC   C4B41122   5.547  20.329   7.237
 3017POPC   NC341123  32.477  25.822   5.164
 3017POPC   PO441124  31.864  25.876   5.258
 3017POPC   GL141125  32.214  26.008   5.600
 3017POPC   GL241126  32.478  26.308   5.641
 3017POPC   C1A41127  32.236  26.000   6.066
 3017POPC   D2A41128  32.026  26.139   6.445
 3017POPC   C3A41129  32.250  25.984   6.772
 3017POPC   C4A41130  32.282  25.906   7.171
 3017POPC   C1B41131  32.689  26.267   6.078
 3017POPC   C2B41132  32.670  26.145   6.535
 3017POPC   C3B41133  32.718  26.206   7.011
 3017POPC   C4B41134  32.569  26.204   7.458
 3018POPC   NC341135  43.467  11.526   5.209
 3018POPC   PO441136  44.094  11.353   5.165
 3018POPC   GL141137  44.007  11.128   5.598
 3018POPC   GL241138  43.645  11.138   5.649
 3018POPC   C1A41139  44.027  11.111   6.075
 3018POPC   D2A41140  44.117  11.342   6.474
 3018POPC   C3A41141  43.938  11.222   6.862
 3018POPC   C4A41142  44.073  11.229   7.251
 3018POPC   C1B41143  43.538  11.260   6.093
 3018POPC   C2B41144  43.563  11.246   6.515
 3018POPC   C3B41145  43.440  11.394   6.913
 3018POPC   C4B41146  43.578  11.431   7.309
 3019POPC   NC341147  34.161  19.528   5.343
 3019POPC   PO441148  34.508  20.080   5.481
 3019POPC   GL141149  34.570  19.914   5.867
 3019POPC   GL241150  34.535  19.588   5.820
 3019POPC   C1A41151  34.671  19.964   6.290
 3019POPC   D2A41152  34.721  20.251   6.597
 3019POPC   C3A41153  34.511  20.132   6.953
 3019POPC   C4A41154  34.724  20.008   7.329
 3019POPC   C1B41155  34.438  19.522   6.210
 3019POPC   C2B41156  34.621  19.529   6.579
 3019POPC   C3B41157  34.746  19.686   6.918
 3019POPC   C4B41158  34.536  19.524   7.235
 3020POPC   NC341159  11.780  13.418   5.375
 3020POPC   PO441160  12.459  13.667   5.436
 3020POPC   GL141161  12.180  13.793   5.709
 3020POPC   GL241162  11.929  14.018   5.562
 3020POPC   C1A41163  12.209  13.563   6.085
 3020POPC   D2A41164  12.493  13.487   6.429
 3020POPC   C3A41165  12.250  13.684   6.778
 3020POPC   C4A41166  12.057  13.515   7.138
 3020POPC   C1B41167  11.764  13.955   5.987
 3020POPC   C2B41168  11.860  13.799   6.406
 3020POPC   C3B41169  11.693  13.763   6.823
 3020POPC   C4B41170  11.705  14.036   7.181
 3021POPC   NC341171   9.945  17.066   5.356
 3021POPC   PO441172   9.574  16.503   5.244
 3021POPC   GL141173   9.670  16.682   5.631
 3021POPC   GL241174   9.915  16.546   5.831
 3021POPC   C1A41175   9.474  16.784   6.047
 3021POPC   D2A41176   9.559  16.666   6.487
 3021POPC   C3A41177   9.375  16.732   6.903
 3021POPC   C4A41178   9.596  16.665   7.307
 3021POPC   C1B41179  10.011  16.751   6.194
 3021POPC   C2B41180  10.135  16.682   6.580
 3021POPC   C3B41181   9.934  16.601   6.934
 3021POPC   C4B41182  10.082  16.793   7.302
 3022POPC   NC341183  11.368  34.887   5.164
 3022POPC   PO441184  10.934  34.376   5.355
 3022POPC   GL141185  11.088  34.590   5.746
 3022POPC   GL241186  11.373  34.809   5.686
 3022POPC   C1A41187  11.191  34.574   6.193
 3022POPC   D2A41188  11.364  34.741   6.559
 3022POPC   C3A41189  11.415  34.531   6.926
 3022POPC   C4A41190  11.078  34.578   7.164
 3022POPC   C1B41191  11.583  34.915   6.100
 3022POPC   C2B41192  11.830  34.925   6.494
 3022POPC   C3B41193  11.710  34.974   6.900
 3022POPC   C4B41194  11.400  34.984   7.183
 3023POPC   NC341195  42.522   7.434   5.458
 3023POPC   PO441196  41.911   7.443   5.538
 3023POPC   GL141197  42.202   7.291   5.915
 3023POPC   GL241198  42.596   7.267   5.929
 3023POPC   C1A41199  42.328   7.462   6.341
 3023POPC   D2A41200  42.718   7.461   6.582
 3023POPC   C3A41201  42.683   7.628   7.009
 3023POPC   C4A41202  42.325   7.598   7.314
 3023POPC   C1B41203  42.509   7.001   6.271
 3023POPC   C2B41204  42.351   7.029   6.650
 3023POPC   C3B41205  42.449   7.162   7.047
 3023POPC   C4B41206  42.117   7.124   7.319
 3024POPC   NC341207  38.963  30.621   5.524
 3024POPC   PO441208  39.548  30.383   5.457
 3024POPC   GL141209  39.373  30.584   5.828
 3024POPC   GL241210  39.550  30.355   5.993
 3024POPC   C1A41211  39.072  30.740   6.151
 3024POPC   D2A41212  39.040  30.585   6.560
 3024POPC   C3A41213  39.180  30.917   6.805
 3024POPC   C4A41214  39.084  30.922   7.210
 3024POPC   C1B41215  39.545  30.674   6.340
 3024POPC   C2B41216  39.591  30.606   6.773
 3024POPC   C3B41217  39.360  30.476   7.127
 3024POPC   C4B41218  39.575  30.398   7.509
 3025POPC   NC341219   5.553   8.965   5.273
 3025POPC   PO441220   6.163   9.062   5.273
 3025POPC   GL141221   5.949   8.870   5.686
 3025POPC   GL241222   5.618   8.772   5.746
 3025POPC   C1A41223   6.053   8.920   6.134
 3025POPC   D2A41224   6.092   8.817   6.595
 3025POPC   C3A41225   5.908   9.143   6.906
 3025POPC   C4A41226   5.997   9.163   7.350
 3025POPC   C1B41227   5.473   8.755   6.162
 3025POPC   C2B41228   5.588   8.931   6.547
 3025POPC   C3B41229   5.584   8.771   6.982
 3025POPC   C4B41230   5.535   8.945   7.400
 3026POPC   NC341231  10.139  11.266   5.407
 3026POPC   PO441232  10.823  11.272   5.273
 3026POPC   GL141233  10.615  11.365   5.658
 3026POPC   GL241234  10.603  11.037   5.734
 3026POPC   C1A41235  10.639  11.510   6.111
 3026POPC   D2A41236  10.528  11.810   6.463
 3026POPC   C3A41237  10.647  11.657   6.882
 3026POPC   C4A41238  10.508  11.404   7.254
 3026POPC   C1B41239  10.547  11.000   6.181
 3026POPC   C2B41240  10.555  11.222   6.597
 3026POPC   C3B41241  10.497  10.974   6.988
 3026POPC   C4B41242  10.343  10.915   7.425
 3027POPC   NC341243  24.087  14.928   5.326
 3027POPC   PO441244  23.466  15.007   5.244
 3027POPC   GL141245  23.690  15.204   5.639
 3027POPC   GL241246  24.026  15.133   5.821
 3027POPC   C1A41247  23.593  15.246   6.092
 3027POPC   D2A41248  23.646  15.072   6.502
 3027POPC   C3A41249  23.485  15.221   6.888
 3027POPC   C4A41250  23.509  14.989   7.251
 3027POPC   C1B41251  24.057  15.292   6.265
 3027POPC   C2B41252  24.026  15.406   6.704
 3027POPC   C3B41253  23.978  15.210   7.087
 3027POPC   C4B41254  23.959  14.967   7.456
 3028POPC   NC341255  36.709   5.340   5.385
 3028POPC   PO441256  36.680   4.735   5.470
 3028POPC   GL141257  36.949   4.952   5.803
 3028POPC   GL241258  37.022   5.317   5.847
 3028POPC   C1A41259  36.981   4.972   6.251
 3028POPC   D2A41260  36.872   5.205   6.632
 3028POPC   C3A41261  36.981   4.976   7.014
 3028POPC   C4A41262  36.872   4.981   7.456
 3028POPC   C1B41263  37.242   5.403   6.306
 3028POPC   C2B41264  37.269   5.466   6.798
 3028POPC   C3B41265  37.181   5.361   7.276
 3028POPC   C4B41266  37.201   5.229   7.782
 3029POPC   NC341267  35.495  13.656   5.238
 3029POPC   PO441268  34.751  13.762   5.264
 3029POPC   GL141269  35.084  13.582   5.551
 3029POPC   GL241270  35.284  13.827   5.707
 3029POPC   C1A41271  35.112  13.469   6.034
 3029POPC   D2A41272  35.451  13.513   6.375
 3029POPC   C3A41273  35.381  13.464   6.814
 3029POPC   C4A41274  35.594  13.345   7.166
 3029POPC   C1B41275  35.286  13.945   6.165
 3029POPC   C2B41276  35.299  13.930   6.648
 3029POPC   C3B41277  35.454  13.878   7.105
 3029POPC   C4B41278  35.215  14.012   7.449
 3030POPC   NC341279  33.976   5.299   5.098
 3030POPC   PO441280  33.891   4.791   5.343
 3030POPC   GL141281  33.815   4.734   5.862
 3030POPC   GL241282  33.973   5.002   6.065
 3030POPC   C1A41283  33.585   4.839   6.346
 3030POPC   D2A41284  33.445   5.158   6.700
 3030POPC   C3A41285  33.688   5.198   7.111
 3030POPC   C4A41286  33.729   5.042   7.585
 3030POPC   C1B41287  34.249   5.275   6.336
 3030POPC   C2B41288  34.285   5.388   6.805
 3030POPC   C3B41289  34.216   5.164   7.180
 3030POPC   C4B41290  34.239   4.945   7.598
 3031POPC   NC341291  30.579  20.010   5.423
 3031POPC   PO441292  30.525  19.286   5.321
 3031POPC   GL141293  30.644  19.563   5.678
 3031POPC   GL241294  30.312  19.740   5.777
 3031POPC   C1A41295  30.746  19.794   6.092
 3031POPC   D2A41296  30.899  19.743   6.524
 3031POPC   C3A41297  30.842  19.938   6.930
 3031POPC   C4A41298  30.878  19.716   7.330
 3031POPC   C1B41299  30.288  20.038   6.129
 3031POPC   C2B41300  30.484  20.055   6.551
 3031POPC   C3B41301  30.327  20.143   6.962
 3031POPC   C4B41302  30.392  19.851   7.267
 3032POPC   NC341303   8.533  19.932   5.496
 3032POPC   PO441304   7.881  19.968   5.509
 3032POPC   GL141305   8.039  19.655   5.787
 3032POPC   GL241306   8.317  19.831   5.953
 3032POPC   C1A41307   8.089  19.435   6.208
 3032POPC   D2A41308   8.315  19.444   6.612
 3032POPC   C3A41309   8.204  19.701   6.984
 3032POPC   C4A41310   8.532  19.653   7.322
 3032POPC   C1B41311   8.169  19.919   6.376
 3032POPC   C2B41312   8.221  20.177   6.730
 3032POPC   C3B41313   8.424  20.145   7.119
 3032POPC   C4B41314   8.223  20.012   7.451
 3033POPC   NC341315  21.362  32.042   5.278
 3033POPC   PO441316  21.542  32.665   5.407
 3033POPC   GL141317  21.233  32.414   5.685
 3033POPC   GL241318  21.257  32.050   5.774
 3033POPC   C1A41319  21.014  32.504   6.066
 3033POPC   D2A41320  21.214  32.594   6.471
 3033POPC   C3A41321  21.215  32.522   6.907
 3033POPC   C4A41322  21.559  32.476   7.211
 3033POPC   C1B41323  21.403  32.169   6.183
 3033POPC   C2B41324  21.508  32.158   6.614
 3033POPC   C3B41325  21.594  32.007   6.995
 3033POPC   C4B41326  21.393  32.010   7.358
 3034POPC   NC341327  24.376  11.776   5.484
 3034POPC   PO441328  24.743  11.176   5.500
 3034POPC   GL141329  24.659  11.467   5.806
 3034POPC   GL241330  24.337  11.387   5.837
 3034POPC   C1A41331  24.597  11.399   6.267
 3034POPC   D2A41332  24.324  11.249   6.573
 3034POPC   C3A41333  24.423  11.219   7.003
 3034POPC   C4A41334  24.166  10.961   7.265
 3034POPC   C1B41335  24.112  11.601   6.162
 3034POPC   C2B41336  24.113  11.705   6.581
 3034POPC   C3B41337  23.978  11.465   6.923
 3034POPC   C4B41338  24.107  11.470   7.340
 3035POPC   NC341339  19.343  28.125   5.469
 3035POPC   PO441340  18.843  28.414   5.241
 3035POPC   GL141341  19.005  28.448   5.700
 3035POPC   GL241342  19.232  28.286   5.917
 3035POPC   C1A41343  18.860  28.510   6.129
 3035POPC   D2A41344  19.018  28.340   6.498
 3035POPC   C3A41345  18.908  28.509   6.884
 3035POPC   C4A41346  18.699  28.310   7.200
 3035POPC   C1B41347  19.477  28.405   6.253
 3035POPC   C2B41348  19.431  28.639   6.641
 3035POPC   C3B41349  19.412  28.444   7.022
 3035POPC   C4B41350  19.365  28.592   7.452
 3036POPC   NC341351   2.703  18.844   5.645
 3036POPC   PO441352   3.133  19.274   5.349
 3036POPC   GL141353   3.073  19.280   5.804
 3036POPC   GL241354   2.745  19.434   5.836
 3036POPC   C1A41355   2.956  19.154   6.241
 3036POPC   D2A41356   2.636  19.001   6.534
 3036POPC   C3A41357   2.741  18.918   6.956
 3036POPC   C4A41358   2.478  18.867   7.276
 3036POPC   C1B41359   2.580  19.524   6.259
 3036POPC   C2B41360   2.712  19.510   6.667
 3036POPC   C3B41361   2.587  19.404   7.064
 3036POPC   C4B41362   2.843  19.265   7.383
 3037POPC   NC341363  19.522  20.600   5.481
 3037POPC   PO441364  18.982  20.333   5.174
 3037POPC   GL141365  19.025  20.570   5.632
 3037POPC   GL241366  19.050  20.935   5.638
 3037POPC   C1A41367  19.236  20.743   6.090
 3037POPC   D2A41368  19.248  20.940   6.559
 3037POPC   C3A41369  19.195  20.611   6.919
 3037POPC   C4A41370  18.918  20.269   7.101
 3037POPC   C1B41371  18.938  21.155   6.046
 3037POPC   C2B41372  18.758  21.122   6.479
 3037POPC   C3B41373  18.645  20.978   6.899
 3037POPC   C4B41374  19.026  21.053   7.128
 3038POPC   NC341375  34.075  30.497   5.398
 3038POPC   PO441376  33.565  30.970   5.299
 3038POPC   GL141377  33.725  30.783   5.685
 3038POPC   GL241378  33.566  31.013   5.882
 3038POPC   C1A41379  33.982  30.780   6.100
 3038POPC   D2A41380  34.069  30.937   6.535
 3038POPC   C3A41381  33.941  30.730   6.901
 3038POPC   C4A41382  34.046  30.676   7.315
 3038POPC   C1B41383  33.464  30.674   6.144
 3038POPC   C2B41384  33.535  30.760   6.582
 3038POPC   C3B41385  33.656  31.147   6.814
 3038POPC   C4B41386  33.675  31.122   7.248
 3039POPC   NC341387  38.657   1.315   5.291
 3039POPC   PO441388  38.177   0.801   5.350
 3039POPC   GL141389  38.320   1.127   5.636
 3039POPC   GL241390  38.185   0.956   5.881
 3039POPC   C1A41391  38.625   1.284   5.952
 3039POPC   D2A41392  38.670   1.315   6.404
 3039POPC   C3A41393  38.616   1.193   6.808
 3039POPC   C4A41394  38.492   1.354   7.169
 3039POPC   C1B41395  38.483   0.872   6.208
 3039POPC   C2B41396  38.425   0.726   6.606
 3039POPC   C3B41397  38.244   0.864   6.959
 3039POPC   C4B41398  38.446   0.868   7.296
 3040POPC   NC341399  25.893  10.780   5.583
 3040POPC   PO441400  26.182  11.120   5.139
 3040POPC   GL141401  26.148  11.253   5.575
 3040POPC   GL241402  26.355  11.005   5.708
 3040POPC   C1A41403  25.982  11.258   6.034
 3040POPC   D2A41404  26.031  11.227   6.506
 3040POPC   C3A41405  25.795  11.115   6.914
 3040POPC   C4A41406  25.940  11.343   7.295
 3040POPC   C1B41407  26.389  10.973   6.171
 3040POPC   C2B41408  26.518  11.018   6.615
 3040POPC   C3B41409  26.285  11.105   7.001
 3040POPC   C4B41410  25.977  10.859   7.312
 3041POPC   NC341411   9.520  44.343   5.517
 3041POPC   PO441412   9.863  43.811   5.230
 3041POPC   GL141413   9.953  43.768   5.667
 3041POPC   GL241414   9.953  44.123   5.706
 3041POPC   C1A41415   9.827  43.643   6.092
 3041POPC   D2A41416   9.640  43.791   6.491
 3041POPC   C3A41417   9.719  43.607   6.902
 3041POPC   C4A41418   9.629  43.820   7.319
 3041POPC   C1B41419   9.784  44.181   6.116
 3041POPC   C2B41420   9.862  44.256   6.522
 3041POPC   C3B41421   9.861  44.112   6.915
 3041POPC   C4B41422   9.981  44.207   7.316
 3042POPC   NC341423  39.616  24.845   5.399
 3042POPC   PO441424  40.055  24.280   5.223
 3042POPC   GL141425  39.901  24.394   5.667
 3042POPC   GL241426  39.942  24.751   5.786
 3042POPC   C1A41427  39.924  24.391   6.157
 3042POPC   D2A41428  39.845  24.576   6.583
 3042POPC   C3A41429  40.007  24.400   6.972
 3042POPC   C4A41430  40.360  24.200   7.169
 3042POPC   C1B41431  39.690  24.862   6.155
 3042POPC   C2B41432  39.533  25.003   6.589
 3042POPC   C3B41433  39.695  24.844   7.006
 3042POPC   C4B41434  40.013  24.788   7.342
 3043POPC   NC341435  26.364  20.908   4.833
 3043POPC   PO441436  25.917  21.196   5.302
 3043POPC   GL141437  25.941  21.310   5.783
 3043POPC   GL241438  26.310  21.236   5.879
 3043POPC   C1A41439  26.003  21.647   6.141
 3043POPC   D2A41440  26.147  21.857   6.519
 3043POPC   C3A41441  26.058  21.664   6.906
 3043POPC   C4A41442  26.278  21.445   7.217
 3043POPC   C1B41443  26.070  21.152   6.240
 3043POPC   C2B41444  25.879  21.338   6.550
 3043POPC   C3B41445  25.991  21.130   6.898
 3043POPC   C4B41446  25.942  20.999   7.277
 3044POPC   NC341447  28.641  21.637   5.399
 3044POPC   PO441448  28.577  20.927   5.390
 3044POPC   GL141449  28.454  21.274   5.792
 3044POPC   GL241450  28.194  21.536   5.902
 3044POPC   C1A41451  28.431  21.345   6.300
 3044POPC   D2A41452  28.767  21.345   6.611
 3044POPC   C3A41453  28.606  21.216   6.991
 3044POPC   C4A41454  28.394  21.349   7.333
 3044POPC   C1B41455  28.578  21.752   6.058
 3044POPC   C2B41456  28.741  21.855   6.470
 3044POPC   C3B41457  28.607  21.744   6.886
 3044POPC   C4B41458  28.808  21.661   7.257
 3045POPC   NC341459  25.374  29.052   5.308
 3045POPC   PO441460  24.718  29.205   5.264
 3045POPC   GL141461  24.990  29.261   5.626
 3045POPC   GL241462  24.908  28.996   5.830
 3045POPC   C1A41463  25.147  29.361   6.079
 3045POPC   D2A41464  25.018  29.458   6.524
 3045POPC   C3A41465  25.206  29.294   6.971
 3045POPC   C4A41466  25.331  29.461   7.399
 3045POPC   C1B41467  24.809  28.943   6.239
 3045POPC   C2B41468  24.939  28.977   6.654
 3045POPC   C3B41469  24.865  28.931   7.087
 3045POPC   C4B41470  25.089  29.042   7.465
 3046POPC   NC341471  23.335  39.445   5.352
 3046POPC   PO441472  22.729  39.073   5.379
 3046POPC   GL141473  22.806  39.208   5.825
 3046POPC   GL241474  23.072  39.501   5.815
 3046POPC   C1A41475  22.742  39.000   6.261
 3046POPC   D2A41476  22.563  39.201   6.640
 3046POPC   C3A41477  22.767  39.410   6.993
 3046POPC   C4A41478  23.056  39.169   7.267
 3046POPC   C1B41479  22.988  39.443   6.265
 3046POPC   C2B41480  23.124  39.236   6.643
 3046POPC   C3B41481  23.312  39.493   6.969
 3046POPC   C4B41482  23.088  39.684   7.298
 3047POPC   NC341483  22.525  21.712   5.403
 3047POPC   PO441484  23.108  22.161   5.389
 3047POPC   GL141485  23.032  22.248   5.840
 3047POPC   GL241486  22.695  22.174   5.769
 3047POPC   C1A41487  23.023  22.181   6.323
 3047POPC   D2A41488  22.869  22.040   6.758
 3047POPC   C3A41489  23.065  22.191   7.131
 3047POPC   C4A41490  23.145  22.029   7.559
 3047POPC   C1B41491  22.547  22.252   6.172
 3047POPC   C2B41492  22.419  22.216   6.602
 3047POPC   C3B41493  22.542  22.361   7.032
 3047POPC   C4B41494  22.659  22.162   7.425
 3048POPC   NC341495  13.002  36.690   4.901
 3048POPC   PO441496  12.833  37.136   5.426
 3048POPC   GL141497  12.741  37.023   5.859
 3048POPC   GL241498  13.093  37.029   5.907
 3048POPC   C1A41499  12.797  37.009   6.337
 3048POPC   D2A41500  12.736  37.053   6.786
 3048POPC   C3A41501  12.921  37.132   7.154
 3048POPC   C4A41502  12.715  37.411   7.387
 3048POPC   C1B41503  13.261  36.844   6.238
 3048POPC   C2B41504  13.120  36.710   6.636
 3048POPC   C3B41505  12.996  36.627   7.045
 3048POPC   C4B41506  13.004  36.740   7.487
 3049POPC   NC341507   1.248  22.437   5.484
 3049POPC   PO441508   0.765  21.897   5.506
 3049POPC   GL141509   1.093  21.795   5.867
 3049POPC   GL241510   1.292  22.101   5.925
 3049POPC   C1A41511   1.208  21.800   6.360
 3049POPC   D2A41512   1.257  22.007   6.796
 3049POPC   C3A41513   1.081  21.893   7.198
 3049POPC   C4A41514   1.211  21.670   7.598
 3049POPC   C1B41515   1.440  22.248   6.325
 3049POPC   C2B41516   1.606  22.389   6.708
 3049POPC   C3B41517   1.640  22.386   7.155
 3049POPC   C4B41518   1.296  22.314   7.431
 3050POPC   NC341519  37.603   5.394   5.408
 3050POPC   PO441520  37.919   4.838   5.541
 3050POPC   GL141521  37.812   5.203   5.824
 3050POPC   GL241522  37.474   5.099   5.808
 3050POPC   C1A41523  37.794   5.489   6.200
 3050POPC   D2A41524  37.718   5.336   6.621
 3050POPC   C3A41525  37.951   4.982   6.815
 3050POPC   C4A41526  37.973   5.083   7.255
 3050POPC   C1B41527  37.565   5.013   6.231
 3050POPC   C2B41528  37.357   4.973   6.621
 3050POPC   C3B41529  37.493   5.024   7.029
 3050POPC   C4B41530  37.393   4.925   7.436
 3051POPC   NC341531   5.519  14.760   5.556
 3051POPC   PO441532   4.993  14.425   5.256
 3051POPC   GL141533   4.960  14.393   5.764
 3051POPC   GL241534   5.276  14.492   5.916
 3051POPC   C1A41535   5.003  14.213   6.242
 3051POPC   D2A41536   5.158  14.179   6.709
 3051POPC   C3A41537   4.948  14.437   7.055
 3051POPC   C4A41538   4.972  14.532   7.516
 3051POPC   C1B41539   5.399  14.525   6.351
 3051POPC   C2B41540   5.309  14.690   6.750
 3051POPC   C3B41541   5.392  14.675   7.195
 3051POPC   C4B41542   5.476  14.572   7.614
 3052POPC   NC341543  27.122   4.749   5.077
 3052POPC   PO441544  26.615   5.094   5.400
 3052POPC   GL141545  26.970   5.053   5.739
 3052POPC   GL241546  26.768   4.857   5.947
 3052POPC   C1A41547  27.148   5.114   6.178
 3052POPC   D2A41548  26.927   5.000   6.571
 3052POPC   C3A41549  27.100   5.056   6.985
 3052POPC   C4A41550  26.882   4.894   7.360
 3052POPC   C1B41551  26.610   4.655   6.344
 3052POPC   C2B41552  26.415   4.734   6.719
 3052POPC   C3B41553  26.473   5.029   7.014
 3052POPC   C4B41554  26.357   5.019   7.451
 3053POPC   NC341555  22.843  37.925   5.227
 3053POPC   PO441556  23.201  37.387   5.269
 3053POPC   GL141557  22.979  37.506   5.661
 3053POPC   GL241558  23.078  37.280   5.897
 3053POPC   C1A41559  22.804  37.729   6.058
 3053POPC   D2A41560  22.872  37.941   6.484
 3053POPC   C3A41561  22.722  37.852   6.908
 3053POPC   C4A41562  22.734  37.658   7.307
 3053POPC   C1B41563  23.077  37.397   6.319
 3053POPC   C2B41564  22.983  37.472   6.679
 3053POPC   C3B41565  23.129  37.489   7.051
 3053POPC   C4B41566  23.220  37.305   7.440
 3054POPC   NC341567  13.813  24.455   5.369
 3054POPC   PO441568  13.151  24.276   5.441
 3054POPC   GL141569  13.474  24.479   5.756
 3054POPC   GL241570  13.781  24.222   5.820
 3054POPC   C1A41571  13.723  24.617   6.148
 3054POPC   D2A41572  13.761  24.824   6.614
 3054POPC   C3A41573  13.544  24.721   7.013
 3054POPC   C4A41574  13.830  24.616   7.363
 3054POPC   C1B41575  13.469  24.153   6.147
 3054POPC   C2B41576  13.478  24.390   6.555
 3054POPC   C3B41577  13.735  24.265   6.939
 3054POPC   C4B41578  13.526  24.225   7.338
 3055POPC   NC341579  38.312  31.988   5.561
 3055POPC   PO441580  38.253  31.391   5.228
 3055POPC   GL141581  38.259  31.464   5.672
 3055POPC   GL241582  38.603  31.603   5.772
 3055POPC   C1A41583  38.278  31.256   6.101
 3055POPC   D2A41584  38.314  31.123   6.561
 3055POPC   C3A41585  38.401  31.485   6.860
 3055POPC   C4A41586  38.226  31.808   7.187
 3055POPC   C1B41587  38.851  31.615   6.193
 3055POPC   C2B41588  38.796  31.800   6.624
 3055POPC   C3B41589  38.727  31.832   7.068
 3055POPC   C4B41590  38.780  31.640   7.480
 3056POPC   NC341591  27.095  28.963   5.551
 3056POPC   PO441592  26.518  29.395   5.505
 3056POPC   GL141593  26.854  29.333   5.822
 3056POPC   GL241594  27.048  29.637   5.944
 3056POPC   C1A41595  27.000  29.148   6.228
 3056POPC   D2A41596  26.863  28.865   6.563
 3056POPC   C3A41597  26.970  29.011   6.970
 3056POPC   C4A41598  27.003  28.815   7.386
 3056POPC   C1B41599  26.670  29.575   6.223
 3056POPC   C2B41600  26.721  29.382   6.640
 3056POPC   C3B41601  26.653  29.437   7.066
 3056POPC   C4B41602  26.821  29.277   7.423
 3057POPC   NC341603  20.246  26.216   5.472
 3057POPC   PO441604  19.686  25.764   5.371
 3057POPC   GL141605  19.810  26.052   5.682
 3057POPC   GL241606  19.800  26.396   5.702
 3057POPC   C1A41607  19.749  26.044   6.124
 3057POPC   D2A41608  19.969  26.211   6.471
 3057POPC   C3A41609  19.792  26.108   6.829
 3057POPC   C4A41610  19.987  26.181   7.211
 3057POPC   C1B41611  19.807  26.562   6.107
 3057POPC   C2B41612  19.580  26.549   6.461
 3057POPC   C3B41613  19.618  26.587   6.894
 3057POPC   C4B41614  19.517  26.367   7.236
 3058POPC   NC341615   9.493   8.129   4.920
 3058POPC   PO441616   9.940   8.085   5.422
 3058POPC   GL141617   9.968   8.117   5.863
 3058POPC   GL241618  10.146   8.439   5.849
 3058POPC   C1A41619   9.708   8.141   6.264
 3058POPC   D2A41620   9.540   8.010   6.702
 3058POPC   C3A41621   9.440   8.302   7.070
 3058POPC   C4A41622   9.460   8.381   7.517
 3058POPC   C1B41623  10.230   8.314   6.267
 3058POPC   C2B41624  10.054   8.135   6.636
 3058POPC   C3B41625   9.966   8.236   7.032
 3058POPC   C4B41626  10.208   8.035   7.313
 3059POPC   NC341627  31.947  23.746   5.363
 3059POPC   PO441628  32.633  23.825   5.446
 3059POPC   GL141629  32.577  23.538   5.760
 3059POPC   GL241630  32.216  23.559   5.754
 3059POPC   C1A41631  32.532  23.667   6.173
 3059POPC   D2A41632  32.304  23.711   6.527
 3059POPC   C3A41633  32.516  23.753   6.878
 3059POPC   C4A41634  32.403  23.790   7.271
 3059POPC   C1B41635  32.022  23.800   6.076
 3059POPC   C2B41636  31.827  23.832   6.482
 3059POPC   C3B41637  31.954  23.942   6.911
 3059POPC   C4B41638  31.928  24.004   7.371
 3060POPC   NC341639  27.408  11.026   5.450
 3060POPC   PO441640  28.011  10.833   5.618
 3060POPC   GL141641  27.625  11.042   5.935
 3060POPC   GL241642  27.321  11.285   5.886
 3060POPC   C1A41643  27.375  11.094   6.373
 3060POPC   D2A41644  27.521  10.986   6.819
 3060POPC   C3A41645  27.526  11.255   7.242
 3060POPC   C4A41646  27.365  11.123   7.678
 3060POPC   C1B41647  27.210  11.590   6.232
 3060POPC   C2B41648  27.362  11.678   6.682
 3060POPC   C3B41649  27.267  11.727   7.149
 3060POPC   C4B41650  27.369  11.650   7.584
 3061POPC   NC341651  24.140  22.950   5.396
 3061POPC   PO441652  24.772  22.781   5.378
 3061POPC   GL141653  24.600  22.988   5.751
 3061POPC   GL241654  24.934  22.932   5.870
 3061POPC   C1A41655  24.390  22.882   6.187
 3061POPC   D2A41656  24.475  22.952   6.662
 3061POPC   C3A41657  24.179  23.047   7.049
 3061POPC   C4A41658  24.171  22.919   7.535
 3061POPC   C1B41659  24.998  22.751   6.239
 3061POPC   C2B41660  24.981  22.757   6.671
 3061POPC   C3B41661  24.689  22.603   6.984
 3061POPC   C4B41662  24.606  22.917   7.284
 3062POPC   NC341663   3.936   8.002   5.228
 3062POPC   PO441664   3.303   7.763   5.293
 3062POPC   GL141665   3.488   7.989   5.683
 3062POPC   GL241666   3.814   8.121   5.721
 3062POPC   C1A41667   3.391   8.082   6.127
 3062POPC   D2A41668   3.391   7.906   6.561
 3062POPC   C3A41669   3.404   8.151   6.980
 3062POPC   C4A41670   3.480   8.338   7.422
 3062POPC   C1B41671   3.864   8.295   6.151
 3062POPC   C2B41672   3.741   8.298   6.590
 3062POPC   C3B41673   3.832   8.432   7.011
 3062POPC   C4B41674   3.967   8.227   7.333
 3063POPC   NC341675  29.027   3.248   5.531
 3063POPC   PO441676  28.824   2.632   5.316
 3063POPC   GL141677  29.021   2.759   5.764
 3063POPC   GL241678  29.373   2.910   5.775
 3063POPC   C1A41679  29.084   2.963   6.214
 3063POPC   D2A41680  29.078   3.159   6.647
 3063POPC   C3A41681  29.169   2.877   6.959
 3063POPC   C4A41682  28.913   2.625   7.252
 3063POPC   C1B41683  29.608   2.959   6.204
 3063POPC   C2B41684  29.642   2.733   6.644
 3063POPC   C3B41685  29.674   2.921   7.078
 3063POPC   C4B41686  29.522   2.824   7.526
 3064POPC   NC341687  39.622   4.589   5.530
 3064POPC   PO441688  39.180   4.127   5.361
 3064POPC   GL141689  39.231   4.326   5.765
 3064POPC   GL241690  39.087   4.640   5.794
 3064POPC   C1A41691  39.390   4.464   6.176
 3064POPC   D2A41692  39.265   4.311   6.602
 3064POPC   C3A41693  39.491   4.293   6.994
 3064POPC   C4A41694  39.347   4.120   7.392
 3064POPC   C1B41695  38.897   4.501   6.199
 3064POPC   C2B41696  38.829   4.593   6.651
 3064POPC   C3B41697  38.967   4.420   7.073
 3064POPC   C4B41698  39.074   4.527   7.523
 3065POPC   NC341699  26.124  17.315   5.312
 3065POPC   PO441700  26.064  17.881   5.713
 3065POPC   GL141701  26.147  17.468   5.889
 3065POPC   GL241702  25.877  17.260   5.759
 3065POPC   C1A41703  26.226  17.389   6.355
 3065POPC   D2A41704  26.366  17.723   6.663
 3065POPC   C3A41705  26.214  17.600   7.065
 3065POPC   C4A41706  25.917  17.712   7.373
 3065POPC   C1B41707  25.734  17.364   6.174
 3065POPC   C2B41708  25.710  17.524   6.586
 3065POPC   C3B41709  25.756  17.354   7.007
 3065POPC   C4B41710  26.011  17.063   7.247
 3066POPC   NC341711  34.842  19.723   5.443
 3066POPC   PO441712  35.366  20.081   5.275
 3066POPC   GL141713  35.315  19.915   5.693
 3066POPC   GL241714  35.016  20.121   5.717
 3066POPC   C1A41715  35.092  19.756   6.063
 3066POPC   D2A41716  35.075  19.725   6.499
 3066POPC   C3A41717  35.264  19.577   6.855
 3066POPC   C4A41718  35.472  19.752   7.117
 3066POPC   C1B41719  35.028  20.287   6.122
 3066POPC   C2B41720  35.224  20.217   6.499
 3066POPC   C3B41721  35.101  20.060   6.897
 3066POPC   C4B41722  35.089  20.371   7.139
 3067POPC   NC341723   9.486  28.099   5.500
 3067POPC   PO441724   9.934  28.570   5.457
 3067POPC   GL141725   9.744  28.516   5.836
 3067POPC   GL241726   9.805  28.193   5.903
 3067POPC   C1A41727   9.824  28.553   6.274
 3067POPC   D2A41728   9.725  28.317   6.633
 3067POPC   C3A41729   9.717  28.506   7.027
 3067POPC   C4A41730   9.694  28.268   7.407
 3067POPC   C1B41731   9.431  28.229   6.201
 3067POPC   C2B41732   9.333  27.976   6.574
 3067POPC   C3B41733   9.330  28.137   6.985
 3067POPC   C4B41734   9.004  28.051   7.280
 3068POPC   NC341735  26.374  38.684   5.448
 3068POPC   PO441736  25.859  38.235   5.361
 3068POPC   GL141737  25.857  38.455   5.761
 3068POPC   GL241738  26.211  38.403   5.859
 3068POPC   C1A41739  25.871  38.520   6.218
 3068POPC   D2A41740  26.028  38.405   6.628
 3068POPC   C3A41741  26.089  38.736   6.906
 3068POPC   C4A41742  25.888  38.856   7.304
 3068POPC   C1B41743  26.217  38.120   6.243
 3068POPC   C2B41744  26.336  37.975   6.664
 3068POPC   C3B41745  26.321  38.225   7.042
 3068POPC   C4B41746  25.929  38.345   7.216
 3069POPC   NC341747  12.297  39.678   5.490
 3069POPC   PO441748  12.480  40.327   5.481
 3069POPC   GL141749  12.324  40.057   5.840
 3069POPC   GL241750  11.971  39.916   5.804
 3069POPC   C1A41751  12.466  39.731   6.157
 3069POPC   D2A41752  12.509  39.639   6.606
 3069POPC   C3A41753  12.376  39.961   6.915
 3069POPC   C4A41754  12.359  40.360   7.151
 3069POPC   C1B41755  11.955  39.778   6.228
 3069POPC   C2B41756  11.989  39.718   6.683
 3069POPC   C3B41757  11.844  39.998   7.059
 3069POPC   C4B41758  11.675  39.823   7.502
 3070POPC   NC341759  13.883  39.181   5.297
 3070POPC   PO441760  14.059  38.587   5.646
 3070POPC   GL141761  13.958  38.973   5.857
 3070POPC   GL241762  13.785  39.300   5.810
 3070POPC   C1A41763  13.783  39.063   6.251
 3070POPC   D2A41764  13.638  38.834   6.540
 3070POPC   C3A41765  13.809  39.047   6.816
 3070POPC   C4A41766  13.747  39.176   7.192
 3070POPC   C1B41767  13.391  39.343   6.098
 3070POPC   C2B41768  13.372  39.293   6.537
 3070POPC   C3B41769  13.519  39.502   6.871
 3070POPC   C4B41770  13.695  39.671   7.236
 3071POPC   NC341771  42.436  39.781   5.407
 3071POPC   PO441772  42.031  40.329   5.421
 3071POPC   GL141773  42.206  40.080   5.780
 3071POPC   GL241774  42.016  39.731   5.720
 3071POPC   C1A41775  42.522  40.118   6.162
 3071POPC   D2A41776  42.747  40.230   6.577
 3071POPC   C3A41777  42.621  40.125   7.026
 3071POPC   C4A41778  42.632  40.165   7.491
 3071POPC   C1B41779  42.225  39.699   6.126
 3071POPC   C2B41780  42.294  39.835   6.551
 3071POPC   C3B41781  42.266  39.676   6.965
 3071POPC   C4B41782  42.559  39.400   7.129
 3072POPC   NC341783  24.128  28.177   5.099
 3072POPC   PO441784  23.465  28.081   5.378
 3072POPC   GL141785  23.476  28.273   5.812
 3072POPC   GL241786  23.313  28.528   5.891
 3072POPC   C1A41787  23.720  28.465   6.159
 3072POPC   D2A41788  23.862  28.559   6.552
 3072POPC   C3A41789  23.878  28.152   6.762
 3072POPC   C4A41790  23.748  28.145   7.180
 3072POPC   C1B41791  23.241  28.441   6.342
 3072POPC   C2B41792  23.385  28.419   6.745
 3072POPC   C3B41793  23.594  28.651   7.039
 3072POPC   C4B41794  23.634  28.611   7.444
 3073POPC   NC341795   8.354   6.029   5.550
 3073POPC   PO441796   7.688   5.833   5.516
 3073POPC   GL141797   8.055   5.759   5.866
 3073POPC   GL241798   8.182   6.121   6.002
 3073POPC   C1A41799   8.418   5.750   6.222
 3073POPC   D2A41800   8.455   5.959   6.647
 3073POPC   C3A41801   8.382   5.700   7.007
 3073POPC   C4A41802   8.252   5.709   7.433
 3073POPC   C1B41803   7.953   5.918   6.343
 3073POPC   C2B41804   7.715   5.967   6.681
 3073POPC   C3B41805   7.898   5.891   7.070
 3073POPC   C4B41806   8.165   6.182   7.267
 3074POPC   NC341807  10.792  33.959   5.560
 3074POPC   PO441808  11.502  33.805   5.312
 3074POPC   GL141809  11.389  33.794   5.730
 3074POPC   GL241810  11.243  34.099   5.744
 3074POPC   C1A41811  11.107  33.565   6.043
 3074POPC   D2A41812  11.030  33.529   6.515
 3074POPC   C3A41813  11.399  33.396   6.786
 3074POPC   C4A41814  11.526  33.662   7.147
 3074POPC   C1B41815  11.098  34.073   6.164
 3074POPC   C2B41816  11.251  34.208   6.562
 3074POPC   C3B41817  11.122  34.073   6.978
 3074POPC   C4B41818  11.331  34.170   7.347
 3075POPC   NC341819  33.459   9.951   5.317
 3075POPC   PO441820  33.982   9.541   5.223
 3075POPC   GL141821  33.849   9.589   5.699
 3075POPC   GL241822  34.001   9.383   5.978
 3075POPC   C1A41823  33.796   9.795   6.168
 3075POPC   D2A41824  33.954   9.945   6.618
 3075POPC   C3A41825  33.742   9.908   7.041
 3075POPC   C4A41826  33.851  10.100   7.434
 3075POPC   C1B41827  34.321   9.408   6.310
 3075POPC   C2B41828  34.294   9.319   6.771
 3075POPC   C3B41829  34.031   9.389   7.126
 3075POPC   C4B41830  33.644   9.462   7.322
 3076POPC   NC341831  28.382  43.494   5.449
 3076POPC   PO441832  28.635  42.999   5.119
 3076POPC   GL141833  28.522  43.005   5.623
 3076POPC   GL241834  28.160  42.927   5.726
 3076POPC   C1A41835  28.456  43.095   6.116
 3076POPC   D2A41836  28.266  43.230   6.534
 3076POPC   C3A41837  28.547  43.185   6.916
 3076POPC   C4A41838  28.614  43.330   7.356
 3076POPC   C1B41839  27.958  42.901   6.168
 3076POPC   C2B41840  27.980  42.771   6.614
 3076POPC   C3B41841  28.037  43.032   6.995
 3076POPC   C4B41842  27.978  42.946   7.424
 3077POPC   NC341843  21.802  36.623   4.892
 3077POPC   PO441844  21.302  36.867   5.227
 3077POPC   GL141845  21.173  36.793   5.657
 3077POPC   GL241846  21.529  36.900   5.726
 3077POPC   C1A41847  21.080  36.883   6.097
 3077POPC   D2A41848  21.272  36.960   6.500
 3077POPC   C3A41849  21.022  36.948   6.861
 3077POPC   C4A41850  21.281  37.095   7.173
 3077POPC   C1B41851  21.657  36.848   6.133
 3077POPC   C2B41852  21.639  36.601   6.509
 3077POPC   C3B41853  21.698  36.835   6.878
 3077POPC   C4B41854  21.600  36.741   7.281
 3078POPC   NC341855  42.199   4.242   5.470
 3078POPC   PO441856  42.767   3.849   5.405
 3078POPC   GL141857  42.610   4.108   5.778
 3078POPC   GL241858  42.377   4.389   5.911
 3078POPC   C1A41859  42.708   4.147   6.220
 3078POPC   D2A41860  42.856   4.272   6.621
 3078POPC   C3A41861  42.480   4.366   6.812
 3078POPC   C4A41862  42.396   4.490   7.201
 3078POPC   C1B41863  42.096   4.556   6.227
 3078POPC   C2B41864  42.118   4.692   6.653
 3078POPC   C3B41865  41.928   4.546   7.043
 3078POPC   C4B41866  42.000   4.577   7.490
 3079POPC   NC341867  10.686  34.760   5.451
 3079POPC   PO441868  10.379  34.139   5.369
 3079POPC   GL141869  10.519  34.383   5.730
 3079POPC   GL241870  10.292  34.675   5.790
 3079POPC   C1A41871  10.693  34.626   6.104
 3079POPC   D2A41872  10.825  34.827   6.513
 3079POPC   C3A41873  10.512  34.901   6.863
 3079POPC   C4A41874  10.641  34.830   7.292
 3079POPC   C1B41875  10.198  34.468   6.135
 3079POPC   C2B41876  10.244  34.296   6.526
 3079POPC   C3B41877  10.188  34.216   6.971
 3079POPC   C4B41878  10.228  34.553   7.228
 3080POPC   NC341879  24.255  39.742   5.609
 3080POPC   PO441880  24.609  39.245   5.342
 3080POPC   GL141881  24.709  39.285   5.790
 3080POPC   GL241882  24.405  39.106   5.907
 3080POPC   C1A41883  24.666  39.342   6.272
 3080POPC   D2A41884  24.354  39.201   6.587
 3080POPC   C3A41885  24.474  39.147   7.003
 3080POPC   C4A41886  24.663  39.412   7.272
 3080POPC   C1B41887  24.155  39.422   6.165
 3080POPC   C2B41888  24.042  39.601   6.548
 3080POPC   C3B41889  23.996  39.373   6.943
 3080POPC   C4B41890  24.137  39.399   7.363
 3081POPC   NC341891  15.778  40.921   5.460
 3081POPC   PO441892  16.266  41.410   5.293
 3081POPC   GL141893  16.075  41.306   5.664
 3081POPC   GL241894  16.380  41.151   5.800
 3081POPC   C1A41895  15.809  41.528   5.984
 3081POPC   D2A41896  15.854  41.596   6.440
 3081POPC   C3A41897  15.814  41.503   6.890
 3081POPC   C4A41898  15.698  41.718   7.280
 3081POPC   C1B41899  16.168  41.245   6.197
 3081POPC   C2B41900  16.020  41.118   6.601
 3081POPC   C3B41901  16.183  41.125   6.997
 3081POPC   C4B41902  16.284  41.422   7.271
 3082POPC   NC341903  37.078  24.001   5.513
 3082POPC   PO441904  37.135  23.370   5.604
 3082POPC   GL141905  36.900  23.651   5.849
 3082POPC   GL241906  37.012  23.431   6.116
 3082POPC   C1A41907  36.942  23.961   6.204
 3082POPC   D2A41908  37.013  24.060   6.667
 3082POPC   C3A41909  37.070  23.722   7.002
 3082POPC   C4A41910  37.296  23.368   7.205
 3082POPC   C1B41911  36.601  23.595   6.231
 3082POPC   C2B41912  36.530  23.827   6.583
 3082POPC   C3B41913  36.584  23.599   6.963
 3082POPC   C4B41914  36.517  23.666   7.368
 3083POPC   NC341915  22.164  19.219   5.273
 3083POPC   PO441916  21.883  18.746   5.740
 3083POPC   GL141917  22.122  19.054   5.844
 3083POPC   GL241918  22.389  18.850   5.873
 3083POPC   C1A41919  22.067  19.175   6.287
 3083POPC   D2A41920  21.840  18.920   6.593
 3083POPC   C3A41921  21.587  19.151   6.887
 3083POPC   C4A41922  21.743  19.320   7.274
 3083POPC   C1B41923  22.368  18.760   6.319
 3083POPC   C2B41924  22.369  18.997   6.732
 3083POPC   C3B41925  22.307  19.079   7.208
 3083POPC   C4B41926  22.331  18.865   7.622
 3084POPC   NC341927   4.295  12.345   5.548
 3084POPC   PO441928   4.183  11.668   5.396
 3084POPC   GL141929   4.132  11.838   5.818
 3084POPC   GL241930   4.438  12.004   5.891
 3084POPC   C1A41931   4.183  11.895   6.288
 3084POPC   D2A41932   4.058  12.067   6.637
 3084POPC   C3A41933   4.205  11.981   7.029
 3084POPC   C4A41934   3.954  12.143   7.382
 3084POPC   C1B41935   4.656  12.145   6.273
 3084POPC   C2B41936   4.569  12.177   6.680
 3084POPC   C3B41937   4.526  12.403   7.040
 3084POPC   C4B41938   4.444  12.216   7.419
 3085POPC   NC341939  26.649  22.749   5.259
 3085POPC   PO441940  27.176  23.068   5.357
 3085POPC   GL141941  26.934  22.941   5.720
 3085POPC   GL241942  26.590  22.761   5.773
 3085POPC   C1A41943  26.963  23.018   6.157
 3085POPC   D2A41944  27.127  22.867   6.546
 3085POPC   C3A41945  26.983  23.077   6.936
 3085POPC   C4A41946  26.973  23.031   7.413
 3085POPC   C1B41947  26.435  22.925   6.180
 3085POPC   C2B41948  26.553  23.012   6.609
 3085POPC   C3B41949  26.486  22.998   7.074
 3085POPC   C4B41950  26.485  22.941   7.514
 3086POPC   NC341951  12.930   7.050   5.380
 3086POPC   PO441952  12.717   6.404   5.400
 3086POPC   GL141953  12.949   6.581   5.757
 3086POPC   GL241954  13.260   6.778   5.655
 3086POPC   C1A41955  12.848   6.518   6.228
 3086POPC   D2A41956  12.976   6.484   6.683
 3086POPC   C3A41957  12.668   6.470   7.058
 3086POPC   C4A41958  12.378   6.753   7.342
 3086POPC   C1B41959  13.281   6.789   6.113
 3086POPC   C2B41960  13.184   6.951   6.537
 3086POPC   C3B41961  13.255   6.810   6.958
 3086POPC   C4B41962  13.140   6.554   7.313
 3087POPC   NC341963  10.020  34.490   5.390
 3087POPC   PO441964   9.523  34.877   5.493
 3087POPC   GL141965   9.759  34.660   5.840
 3087POPC   GL241966   9.712  34.300   5.788
 3087POPC   C1A41967   9.781  34.684   6.324
 3087POPC   D2A41968   9.903  34.583   6.775
 3087POPC   C3A41969   9.866  34.895   7.111
 3087POPC   C4A41970   9.436  35.026   7.147
 3087POPC   C1B41971   9.796  34.168   6.220
 3087POPC   C2B41972   9.851  33.988   6.647
 3087POPC   C3B41973   9.693  34.082   7.027
 3087POPC   C4B41974   9.692  34.438   7.244
 3088POPC   NC341975  11.828  29.360   5.347
 3088POPC   PO441976  12.551  29.463   5.485
 3088POPC   GL141977  12.304  29.117   5.742
 3088POPC   GL241978  11.957  29.103   5.765
 3088POPC   C1A41979  12.177  29.086   6.218
 3088POPC   D2A41980  12.012  29.275   6.621
 3088POPC   C3A41981  12.192  29.288   7.024
 3088POPC   C4A41982  11.944  29.479   7.290
 3088POPC   C1B41983  11.753  28.834   6.041
 3088POPC   C2B41984  11.717  28.862   6.495
 3088POPC   C3B41985  11.723  29.028   6.962
 3088POPC   C4B41986  11.913  28.972   7.356
 3089POPC   NC341987   0.259   2.726   5.413
 3089POPC   PO441988   0.365   3.381   5.408
 3089POPC   GL141989   0.259   3.109   5.768
 3089POPC   GL241990   0.597   2.956   5.757
 3089POPC   C1A41991   0.287   2.850   6.198
 3089POPC   D2A41992   0.136   2.724   6.670
 3089POPC   C3A41993   0.399   2.511   7.018
 3089POPC   C4A41994   0.728   2.279   7.290
 3089POPC   C1B41995   0.782   2.990   6.201
 3089POPC   C2B41996   0.627   2.881   6.656
 3089POPC   C3B41997   0.392   3.014   7.076
 3089POPC   C4B41998   0.445   3.411   7.337
 3090POPC   NC341999  15.133  38.939   5.457
 3090POPC   PO442000  15.550  38.400   5.316
 3090POPC   GL142001  15.273  38.510   5.722
 3090POPC   GL242002  14.966  38.701   5.867
 3090POPC   C1A42003  15.203  38.347   6.142
 3090POPC   D2A42004  14.988  38.361   6.533
 3090POPC   C3A42005  15.114  38.663   6.829
 3090POPC   C4A42006  14.986  38.461   7.193
 3090POPC   C1B42007  15.085  38.839   6.293
 3090POPC   C2B42008  15.425  38.992   6.528
 3090POPC   C3B42009  15.451  39.055   6.989
 3090POPC   C4B42010  15.231  38.854   7.351
 3091POPC   NC342011  17.364  27.278   5.368
 3091POPC   PO442012  17.782  26.759   5.252
 3091POPC   GL142013  17.659  26.822   5.707
 3091POPC   GL242014  17.409  27.070   5.853
 3091POPC   C1A42015  17.779  26.902   6.169
 3091POPC   D2A42016  17.783  26.773   6.618
 3091POPC   C3A42017  17.804  27.021   6.999
 3091POPC   C4A42018  17.588  27.070   7.386
 3091POPC   C1B42019  17.239  26.856   6.244
 3091POPC   C2B42020  17.269  26.745   6.702
 3091POPC   C3B42021  17.158  26.915   7.125
 3091POPC   C4B42022  17.213  26.811   7.603
 3092POPC   NC342023  23.322  41.000   5.443
 3092POPC   PO442024  23.808  40.574   5.165
 3092POPC   GL142025  23.694  40.487   5.621
 3092POPC   GL242026  23.382  40.525   5.658
 3092POPC   C1A42027  23.852  40.500   6.069
 3092POPC   D2A42028  23.890  40.857   6.355
 3092POPC   C3A42029  23.819  40.828   6.815
 3092POPC   C4A42030  23.832  40.706   7.259
 3092POPC   C1B42031  23.438  40.796   6.071
 3092POPC   C2B42032  23.408  40.692   6.498
 3092POPC   C3B42033  23.316  40.865   6.881
 3092POPC   C4B42034  23.421  41.027   7.217
 3093POPC   NC342035  44.473  10.270   5.624
 3093POPC   PO442036  44.748  10.756   5.199
 3093POPC   GL142037  44.889  10.667   5.681
 3093POPC   GL242038  44.956  10.322   5.784
 3093POPC   C1A42039  44.905  10.711   6.137
 3093POPC   D2A42040  44.828  10.593   6.573
 3093POPC   C3A42041  44.418  10.573   6.790
 3093POPC   C4A42042  44.389  10.817   7.169
 3093POPC   C1B42043  44.832  10.200   6.195
 3093POPC   C2B42044  44.575  10.138   6.519
 3093POPC   C3B42045  44.657  10.095   6.930
 3093POPC   C4B42046  44.728  10.412   7.202
 3094POPC   NC342047  41.722  37.269   5.391
 3094POPC   PO442048  41.308  37.884   5.409
 3094POPC   GL142049  41.470  37.555   5.762
 3094POPC   GL242050  41.837  37.518   5.807
 3094POPC   C1A42051  41.550  37.456   6.222
 3094POPC   D2A42052  41.535  37.405   6.683
 3094POPC   C3A42053  41.449  37.810   6.883
 3094POPC   C4A42054  41.325  37.743   7.292
 3094POPC   C1B42055  41.841  37.870   6.075
 3094POPC   C2B42056  41.818  37.813   6.511
 3094POPC   C3B42057  41.946  37.918   6.927
 3094POPC   C4B42058  41.808  37.623   7.214
 3095POPC   NC342059  13.210  31.688   4.833
 3095POPC   PO442060  12.808  31.577   5.169
 3095POPC   GL142061  12.832  31.381   5.657
 3095POPC   GL242062  12.512  31.397   5.840
 3095POPC   C1A42063  12.872  31.416   6.180
 3095POPC   D2A42064  12.731  31.545   6.629
 3095POPC   C3A42065  12.861  31.352   7.043
 3095POPC   C4A42066  13.211  31.461   7.329
 3095POPC   C1B42067  12.397  31.660   6.220
 3095POPC   C2B42068  12.256  31.745   6.656
 3095POPC   C3B42069  12.418  31.628   7.073
 3095POPC   C4B42070  12.572  31.441   7.465
 3096POPC   NC342071  44.813  24.349   5.372
 3096POPC   PO442072   0.001  24.921   5.432
 3096POPC   GL142073  44.665  24.703   5.719
 3096POPC   GL242074  44.678  24.345   5.853
 3096POPC   C1A42075  44.539  24.737   6.153
 3096POPC   D2A42076  44.404  24.373   6.362
 3096POPC   C3A42077  44.392  24.415   6.789
 3096POPC   C4A42078  44.314  24.578   7.172
 3096POPC   C1B42079  44.869  24.147   6.204
 3096POPC   C2B42080  44.783  24.114   6.642
 3096POPC   C3B42081  44.832  24.340   7.056
 3096POPC   C4B42082   0.111  24.262   7.426
 3097POPC   NC342083  32.156   9.996   5.397
 3097POPC   PO442084  32.402   9.418   5.219
 3097POPC   GL142085  32.210   9.399   5.683
 3097POPC   GL242086  32.170   9.732   5.819
 3097POPC   C1A42087  32.031   9.402   6.156
 3097POPC   D2A42088  32.225   9.361   6.588
 3097POPC   C3A42089  32.083   9.543   6.979
 3097POPC   C4A42090  31.714   9.701   7.228
 3097POPC   C1B42091  31.990   9.940   6.191
 3097POPC   C2B42092  32.066  10.003   6.638
 3097POPC   C3B42093  32.250  10.017   7.057
 3097POPC   C4B42094  32.143   9.913   7.483
 3098POPC   NC342095  29.348  38.368   5.282
 3098POPC   PO442096  28.792  38.744   5.440
 3098POPC   GL142097  29.112  38.538   5.686
 3098POPC   GL242098  29.436  38.714   5.659
 3098POPC   C1A42099  29.200  38.226   6.004
 3098POPC   D2A42100  29.328  38.265   6.443
 3098POPC   C3A42101  29.020  38.316   6.780
 3098POPC   C4A42102  29.155  38.316   7.196
 3098POPC   C1B42103  29.482  38.673   6.090
 3098POPC   C2B42104  29.576  38.751   6.508
 3098POPC   C3B42105  29.568  38.510   6.893
 3098POPC   C4B42106  29.504  38.649   7.326
 3099POPC   NC342107   5.410  11.471   5.383
 3099POPC   PO442108   5.958  11.121   5.485
 3099POPC   GL142109   5.790  11.414   5.765
 3099POPC   GL242110   5.594  11.153   5.921
 3099POPC   C1A42111   5.770  11.578   6.193
 3099POPC   D2A42112   5.979  11.512   6.597
 3099POPC   C3A42113   5.893  11.252   6.950
 3099POPC   C4A42114   5.856  11.397   7.394
 3099POPC   C1B42115   5.709  11.068   6.368
 3099POPC   C2B42116   5.644  10.821   6.752
 3099POPC   C3B42117   5.706  10.862   7.225
 3099POPC   C4B42118   5.557  11.035   7.630
 3100POPC   NC342119  30.138  29.404   5.482
 3100POPC   PO442120  29.513  29.049   5.437
 3100POPC   GL142121  29.719  29.261   5.780
 3100POPC   GL242122  30.026  29.038   5.830
 3100POPC   C1A42123  29.874  29.369   6.212
 3100POPC   D2A42124  30.212  29.232   6.499
 3100POPC   C3A42125  30.183  29.362   6.922
 3100POPC   C4A42126  29.853  29.524   7.168
 3100POPC   C1B42127  29.851  28.667   6.049
 3100POPC   C2B42128  29.913  28.601   6.499
 3100POPC   C3B42129  30.136  28.809   6.841
 3100POPC   C4B42130  30.017  28.998   7.245
 3101POPC   NC342131  14.955  41.371   5.388
 3101POPC   PO442132  15.627  41.339   5.356
 3101POPC   GL142133  15.362  41.497   5.706
 3101POPC   GL242134  15.326  41.148   5.780
 3101POPC   C1A42135  15.125  41.790   6.047
 3101POPC   D2A42136  15.039  41.947   6.501
 3101POPC   C3A42137  15.275  41.861   6.921
 3101POPC   C4A42138  15.207  41.828   7.382
 3101POPC   C1B42139  15.003  41.289   6.059
 3101POPC   C2B42140  15.061  41.441   6.460
 3101POPC   C3B42141  15.029  41.391   6.885
 3101POPC   C4B42142  15.360  41.375   7.145
 3102POPC   NC342143  28.614  28.677   5.322
 3102POPC   PO442144  27.988  28.331   5.347
 3102POPC   GL142145  28.248  28.528   5.717
 3102POPC   GL242146  28.597  28.406   5.757
 3102POPC   C1A42147  28.455  28.662   6.157
 3102POPC   D2A42148  28.626  28.459   6.543
 3102POPC   C3A42149  28.508  28.623   6.945
 3102POPC   C4A42150  28.126  28.508   7.158
 3102POPC   C1B42151  28.562  28.120   6.120
 3102POPC   C2B42152  28.593  27.950   6.569
 3102POPC   C3B42153  28.393  28.102   6.971
 3102POPC   C4B42154  28.505  27.976   7.409
 3103POPC   NC342155  15.123   5.157   5.157
 3103POPC   PO442156  15.514   5.051   5.696
 3103POPC   GL142157  15.080   5.061   5.798
 3103POPC   GL242158  14.875   4.765   5.810
 3103POPC   C1A42159  14.945   5.135   6.209
 3103POPC   D2A42160  14.982   5.404   6.573
 3103POPC   C3A42161  14.909   5.265   6.967
 3103POPC   C4A42162  15.096   5.360   7.313
 3103POPC   C1B42163  14.914   4.630   6.245
 3103POPC   C2B42164  14.978   4.830   6.651
 3103POPC   C3B42165  15.069   4.768   7.103
 3103POPC   C4B42166  15.128   4.906   7.566
 3104POPC   NC342167  33.852  28.897   5.547
 3104POPC   PO442168  33.618  29.488   5.366
 3104POPC   GL142169  33.810  29.380   5.737
 3104POPC   GL242170  33.510  29.332   5.899
 3104POPC   C1A42171  34.065  29.256   6.107
 3104POPC   D2A42172  34.086  29.079   6.533
 3104POPC   C3A42173  33.999  28.944   6.950
 3104POPC   C4A42174  34.093  29.137   7.300
 3104POPC   C1B42175  33.596  29.129   6.298
 3104POPC   C2B42176  33.615  29.182   6.745
 3104POPC   C3B42177  33.733  29.414   7.119
 3104POPC   C4B42178  33.643  29.344   7.585
 3105POPC   NC342179  44.694  28.324   5.202
 3105POPC   PO442180  44.273  28.470   5.629
 3105POPC   GL142181  44.595  28.518   5.897
 3105POPC   GL242182  44.437  28.847   6.003
 3105POPC   C1A42183  44.807  28.357   6.279
 3105POPC   D2A42184  44.819  28.072   6.575
 3105POPC   C3A42185  44.738  28.316   6.888
 3105POPC   C4A42186  44.701  28.274   7.273
 3105POPC   C1B42187  44.354  28.589   6.361
 3105POPC   C2B42188  44.307  28.565   6.803
 3105POPC   C3B42189  44.324  28.600   7.235
 3105POPC   C4B42190  44.305  28.521   7.679
 3106POPC   NC342191  15.647  27.065   5.460
 3106POPC   PO442192  16.131  26.645   5.557
 3106POPC   GL142193  16.026  26.790   5.898
 3106POPC   GL242194  15.672  26.795   5.876
 3106POPC   C1A42195  16.167  26.972   6.268
 3106POPC   D2A42196  15.879  26.908   6.598
 3106POPC   C3A42197  16.071  26.986   6.971
 3106POPC   C4A42198  16.127  26.608   7.138
 3106POPC   C1B42199  15.435  26.780   6.225
 3106POPC   C2B42200  15.421  26.538   6.593
 3106POPC   C3B42201  15.446  26.772   6.947
 3106POPC   C4B42202  15.677  26.749   7.294
 3107POPC   NC342203  40.493   5.622   5.118
 3107POPC   PO442204  41.156   5.761   5.183
 3107POPC   GL142205  40.845   5.910   5.547
 3107POPC   GL242206  40.590   5.650   5.658
 3107POPC   C1A42207  40.808   5.980   6.009
 3107POPC   D2A42208  40.680   5.922   6.457
 3107POPC   C3A42209  40.936   5.848   6.800
 3107POPC   C4A42210  40.890   5.820   7.237
 3107POPC   C1B42211  40.393   5.693   6.096
 3107POPC   C2B42212  40.313   5.565   6.533
 3107POPC   C3B42213  40.517   5.504   6.965
 3107POPC   C4B42214  40.517   5.561   7.452
 3108POPC   NC342215  38.242   2.915   5.303
 3108POPC   PO442216  38.454   2.380   5.291
 3108POPC   GL142217  38.354   2.594   5.696
 3108POPC   GL242218  38.443   2.947   5.785
 3108POPC   C1A42219  38.411   2.538   6.169
 3108POPC   D2A42220  38.727   2.637   6.535
 3108POPC   C3A42221  38.664   2.778   6.993
 3108POPC   C4A42222  38.353   2.795   7.377
 3108POPC   C1B42223  38.567   3.019   6.219
 3108POPC   C2B42224  38.336   2.971   6.623
 3108POPC   C3B42225  38.356   3.202   7.030
 3108POPC   C4B42226  38.696   3.186   7.315
 3109POPC   NC342227  12.132  35.021   5.484
 3109POPC   PO442228  12.267  35.674   5.326
 3109POPC   GL142229  12.186  35.461   5.762
 3109POPC   GL242230  11.870  35.259   5.861
 3109POPC   C1A42231  12.261  35.300   6.205
 3109POPC   D2A42232  12.084  35.340   6.660
 3109POPC   C3A42233  12.091  35.217   7.121
 3109POPC   C4A42234  11.830  34.986   7.452
 3109POPC   C1B42235  11.880  35.639   6.157
 3109POPC   C2B42236  11.995  35.833   6.562
 3109POPC   C3B42237  11.881  35.683   6.986
 3109POPC   C4B42238  12.141  35.677   7.359
 3110POPC   NC342239  42.829  29.859   5.306
 3110POPC   PO442240  42.305  30.241   5.342
 3110POPC   GL142241  42.471  30.039   5.737
 3110POPC   GL242242  42.603  29.679   5.728
 3110POPC   C1A42243  42.451  30.150   6.190
 3110POPC   D2A42244  42.275  30.307   6.562
 3110POPC   C3A42245  42.384  30.144   6.939
 3110POPC   C4A42246  42.390  30.071   7.379
 3110POPC   C1B42247  42.338  29.669   6.090
 3110POPC   C2B42248  42.410  29.760   6.530
 3110POPC   C3B42249  42.399  29.516   6.886
 3110POPC   C4B42250  42.412  29.549   7.325
 3111POPC   NC342251  41.026  39.030   5.509
 3111POPC   PO442252  40.665  38.473   5.524
 3111POPC   GL142253  40.820  38.474   5.902
 3111POPC   GL242254  40.675  38.774   5.944
 3111POPC   C1A42255  40.928  38.198   6.241
 3111POPC   D2A42256  41.237  38.205   6.583
 3111POPC   C3A42257  41.022  38.114   6.978
 3111POPC   C4A42258  40.989  38.423   7.345
 3111POPC   C1B42259  40.795  38.705   6.379
 3111POPC   C2B42260  40.540  38.582   6.748
 3111POPC   C3B42261  40.604  38.705   7.171
 3111POPC   C4B42262  40.516  38.589   7.602
 3112POPC   NC342263  22.952  18.704   5.530
 3112POPC   PO442264  22.654  18.166   5.514
 3112POPC   GL142265  22.830  18.262   5.890
 3112POPC   GL242266  22.777  18.569   6.017
 3112POPC   C1A42267  22.886  18.083   6.283
 3112POPC   D2A42268  22.695  17.914   6.663
 3112POPC   C3A42269  22.799  18.146   7.033
 3112POPC   C4A42270  23.118  18.126   7.353
 3112POPC   C1B42271  23.131  18.515   6.302
 3112POPC   C2B42272  23.174  18.267   6.675
 3112POPC   C3B42273  23.230  18.483   7.028
 3112POPC   C4B42274  22.994  18.712   7.340
 3113POPC   NC342275  31.123  26.319   5.330
 3113POPC   PO442276  31.139  25.656   5.478
 3113POPC   GL142277  31.237  25.975   5.736
 3113POPC   GL242278  31.600  25.904   5.773
 3113POPC   C1A42279  31.300  26.157   6.146
 3113POPC   D2A42280  31.518  26.089   6.539
 3113POPC   C3A42281  31.283  26.055   6.921
 3113POPC   C4A42282  31.400  26.198   7.311
 3113POPC   C1B42283  31.786  25.748   6.187
 3113POPC   C2B42284  31.824  25.694   6.646
 3113POPC   C3B42285  31.797  25.981   7.023
 3113POPC   C4B42286  31.799  25.838   7.460
 3114POPC   NC342287  30.700   5.479   5.120
 3114POPC   PO442288  30.289   5.913   5.368
 3114POPC   GL142289  30.499   5.887   5.791
 3114POPC   GL242290  30.834   6.036   5.786
 3114POPC   C1A42291  30.718   5.802   6.231
 3114POPC   D2A42292  30.557   5.955   6.669
 3114POPC   C3A42293  30.770   5.779   7.010
 3114POPC   C4A42294  31.017   5.618   7.318
 3114POPC   C1B42295  30.949   6.268   6.164
 3114POPC   C2B42296  31.031   6.085   6.550
 3114POPC   C3B42297  30.974   6.271   6.922
 3114POPC   C4B42298  30.714   6.227   7.270
 3115POPC   NC342299  24.948  15.178   5.460
 3115POPC   PO442300  24.285  15.342   5.418
 3115POPC   GL142301  24.527  15.333   5.792
 3115POPC   GL242302  24.536  14.961   5.749
 3115POPC   C1A42303  24.547  15.337   6.253
 3115POPC   D2A42304  24.382  15.063   6.619
 3115POPC   C3A42305  24.495  15.262   6.992
 3115POPC   C4A42306  24.705  15.478   7.296
 3115POPC   C1B42307  24.830  14.896   6.083
 3115POPC   C2B42308  24.875  15.046   6.500
 3115POPC   C3B42309  24.783  14.853   6.875
 3115POPC   C4B42310  24.876  14.945   7.282
 3116POPC   NC342311  12.214  23.526   5.185
 3116POPC   PO442312  11.798  23.082   5.309
 3116POPC   GL142313  11.994  23.159   5.671
 3116POPC   GL242314  12.007  22.839   5.773
 3116POPC   C1A42315  12.090  23.247   6.119
 3116POPC   D2A42316  11.799  23.360   6.477
 3116POPC   C3A42317  11.972  23.266   6.879
 3116POPC   C4A42318  12.148  22.989   7.180
 3116POPC   C1B42319  11.945  22.586   6.139
 3116POPC   C2B42320  11.960  22.826   6.516
 3116POPC   C3B42321  11.739  22.775   6.872
 3116POPC   C4B42322  11.785  22.524   7.198
 3117POPC   NC342323  14.271  15.807   5.296
 3117POPC   PO442324  14.784  16.214   5.444
 3117POPC   GL142325  14.450  16.018   5.726
 3117POPC   GL242326  14.563  15.663   5.684
 3117POPC   C1A42327  14.239  16.066   6.153
 3117POPC   D2A42328  14.365  16.176   6.615
 3117POPC   C3A42329  14.128  16.121   6.991
 3117POPC   C4A42330  14.245  16.335   7.359
 3117POPC   C1B42331  14.525  15.558   6.097
 3117POPC   C2B42332  14.314  15.666   6.459
 3117POPC   C3B42333  14.349  15.681   6.868
 3117POPC   C4B42334  14.444  15.826   7.249
 3118POPC   NC342335  39.922  36.678   5.341
 3118POPC   PO442336  40.466  36.398   5.336
 3118POPC   GL142337  40.306  36.777   5.663
 3118POPC   GL242338  40.104  37.135   5.684
 3118POPC   C1A42339  40.240  36.862   6.122
 3118POPC   D2A42340  39.862  36.961   6.379
 3118POPC   C3A42341  39.897  36.878   6.818
 3118POPC   C4A42342  39.743  36.660   7.185
 3118POPC   C1B42343  40.234  37.378   6.093
 3118POPC   C2B42344  40.253  37.233   6.543
 3118POPC   C3B42345  40.166  37.285   6.990
 3118POPC   C4B42346  40.132  36.983   7.326
 3119POPC   NC342347  10.818  18.451   5.426
 3119POPC   PO442348  10.138  18.312   5.432
 3119POPC   GL142349  10.416  18.251   5.782
 3119POPC   GL242350  10.719  17.996   5.682
 3119POPC   C1A42351  10.311  18.314   6.276
 3119POPC   D2A42352  10.229  18.603   6.688
 3119POPC   C3A42353  10.431  18.528   7.124
 3119POPC   C4A42354  10.621  18.187   7.440
 3119POPC   C1B42355  10.808  18.169   6.108
 3119POPC   C2B42356  10.694  18.051   6.564
 3119POPC   C3B42357  10.828  18.215   6.977
 3119POPC   C4B42358  10.942  18.568   7.261
 3120POPC   NC342359   2.670  28.578   5.429
 3120POPC   PO442360   3.269  28.921   5.526
 3120POPC   GL142361   3.072  28.647   5.903
 3120POPC   GL242362   2.848  28.404   5.877
 3120POPC   C1A42363   2.890  28.595   6.344
 3120POPC   D2A42364   2.757  28.622   6.752
 3120POPC   C3A42365   2.785  28.387   7.128
 3120POPC   C4A42366   3.009  28.354   7.515
 3120POPC   C1B42367   2.638  28.182   6.214
 3120POPC   C2B42368   2.576  28.156   6.674
 3120POPC   C3B42369   2.359  28.096   7.075
 3120POPC   C4B42370   2.118  28.269   7.436
 3121POPC   NC342371   0.774  13.425   5.401
 3121POPC   PO442372   0.228  13.728   5.146
 3121POPC   GL142373   0.317  13.686   5.603
 3121POPC   GL242374   0.538  13.917   5.761
 3121POPC   C1A42375   0.399  13.402   5.967
 3121POPC   D2A42376   0.485  13.183   6.361
 3121POPC   C3A42377   0.298  13.311   6.757
 3121POPC   C4A42378   0.508  13.377   7.133
 3121POPC   C1B42379   0.614  13.814   6.197
 3121POPC   C2B42380   0.663  13.646   6.605
 3121POPC   C3B42381   0.538  13.867   6.961
 3121POPC   C4B42382   0.674  13.849   7.347
 3122POPC   NC342383  18.899  34.146   5.136
 3122POPC   PO442384  19.115  33.579   5.359
 3122POPC   GL142385  18.968  33.863   5.696
 3122POPC   GL242386  19.242  34.048   5.832
 3122POPC   C1A42387  18.897  33.909   6.170
 3122POPC   D2A42388  19.119  34.031   6.558
 3122POPC   C3A42389  18.944  33.878   6.950
 3122POPC   C4A42390  18.723  33.916   7.312
 3122POPC   C1B42391  19.394  33.770   6.187
 3122POPC   C2B42392  19.571  33.560   6.543
 3122POPC   C3B42393  19.482  33.365   6.934
 3122POPC   C4B42394  19.358  33.657   7.245
 3123POPC   NC342395  36.718  17.821   5.531
 3123POPC   PO442396  37.119  18.479   5.452
 3123POPC   GL142397  36.893  18.243   5.774
 3123POPC   GL242398  37.048  17.935   5.857
 3123POPC   C1A42399  36.733  18.147   6.196
 3123POPC   D2A42400  36.788  18.378   6.573
 3123POPC   C3A42401  36.732  18.161   6.948
 3123POPC   C4A42402  36.871  18.418   7.274
 3123POPC   C1B42403  37.128  17.778   6.204
 3123POPC   C2B42404  37.026  17.919   6.575
 3123POPC   C3B42405  37.097  17.767   6.952
 3123POPC   C4B42406  37.052  17.952   7.312
 3124POPC   NC342407  36.434  29.747   5.349
 3124POPC   PO442408  35.906  30.173   5.177
 3124POPC   GL142409  36.108  30.052   5.621
 3124POPC   GL242410  36.172  29.676   5.757
 3124POPC   C1A42411  36.161  30.080   6.103
 3124POPC   D2A42412  35.939  30.221   6.514
 3124POPC   C3A42413  36.133  30.161   6.932
 3124POPC   C4A42414  35.936  29.944   7.258
 3124POPC   C1B42415  36.128  29.480   6.135
 3124POPC   C2B42416  36.217  29.649   6.500
 3124POPC   C3B42417  36.090  29.617   6.888
 3124POPC   C4B42418  36.362  29.626   7.191
 3125POPC   NC342419   4.054  38.360   5.095
 3125POPC   PO442420   4.347  38.876   5.448
 3125POPC   GL142421   4.351  38.534   5.804
 3125POPC   GL242422   4.002  38.413   5.948
 3125POPC   C1A42423   4.388  38.249   6.204
 3125POPC   D2A42424   4.433  38.291   6.658
 3125POPC   C3A42425   4.312  38.072   7.027
 3125POPC   C4A42426   4.395  38.194   7.441
 3125POPC   C1B42427   4.114  38.719   6.244
 3125POPC   C2B42428   4.115  38.701   6.675
 3125POPC   C3B42429   4.195  38.601   7.104
 3125POPC   C4B42430   3.901  38.734   7.382
 3126POPC   NC342431  27.328   0.927   5.434
 3126POPC   PO442432  27.189   1.552   5.700
 3126POPC   GL142433  27.515   1.349   5.884
 3126POPC   GL242434  27.571   0.983   5.881
 3126POPC   C1A42435  27.492   1.258   6.314
 3126POPC   D2A42436  27.781   1.247   6.623
 3126POPC   C3A42437  27.561   1.280   7.004
 3126POPC   C4A42438  27.763   1.225   7.374
 3126POPC   C1B42439  27.528   0.745   6.260
 3126POPC   C2B42440  27.419   0.861   6.690
 3126POPC   C3B42441  27.586   0.776   7.115
 3126POPC   C4B42442  27.570   0.819   7.577
 3127POPC   NC342443  36.684  42.951   5.324
 3127POPC   PO442444  37.155  43.428   5.444
 3127POPC   GL142445  36.839  43.278   5.724
 3127POPC   GL242446  36.980  42.958   5.751
 3127POPC   C1A42447  36.767  43.149   6.166
 3127POPC   D2A42448  36.811  42.892   6.521
 3127POPC   C3A42449  36.883  43.044   6.916
 3127POPC   C4A42450  37.084  43.178   7.309
 3127POPC   C1B42451  37.262  43.071   6.101
 3127POPC   C2B42452  37.328  43.004   6.547
 3127POPC   C3B42453  37.392  42.959   6.960
 3127POPC   C4B42454  37.562  42.989   7.354
 3128POPC   NC342455  29.882  27.831   5.366
 3128POPC   PO442456  30.054  27.213   5.488
 3128POPC   GL142457  30.017  27.595   5.780
 3128POPC   GL242458  30.325  27.800   5.793
 3128POPC   C1A42459  29.806  27.652   6.166
 3128POPC   D2A42460  29.742  27.357   6.484
 3128POPC   C3A42461  29.767  27.521   6.920
 3128POPC   C4A42462  29.798  27.929   7.134
 3128POPC   C1B42463  30.304  27.610   6.207
 3128POPC   C2B42464  30.139  27.701   6.579
 3128POPC   C3B42465  30.263  27.818   6.960
 3128POPC   C4B42466  30.139  27.600   7.299
 3129POPC   NC342467  39.008  34.178   5.223
 3129POPC   PO442468  39.431  33.695   5.386
 3129POPC   GL142469  39.123  33.845   5.673
 3129POPC   GL242470  39.403  33.880   5.889
 3129POPC   C1A42471  38.978  33.681   6.086
 3129POPC   D2A42472  39.111  33.781   6.503
 3129POPC   C3A42473  38.963  33.552   6.847
 3129POPC   C4A42474  38.947  33.713   7.260
 3129POPC   C1B42475  39.495  34.067   6.287
 3129POPC   C2B42476  39.647  33.887   6.660
 3129POPC   C3B42477  39.372  33.825   7.000
 3129POPC   C4B42478  39.377  33.865   7.465
 3130POPC   NC342479  18.070  23.370   5.214
 3130POPC   PO442480  17.930  22.792   5.447
 3130POPC   GL142481  18.148  22.920   5.777
 3130POPC   GL242482  18.129  23.274   5.729
 3130POPC   C1A42483  18.064  22.790   6.173
 3130POPC   D2A42484  18.035  22.480   6.489
 3130POPC   C3A42485  18.233  22.627   6.852
 3130POPC   C4A42486  18.165  22.848   7.225
 3130POPC   C1B42487  18.159  23.290   6.198
 3130POPC   C2B42488  18.401  23.028   6.523
 3130POPC   C3B42489  18.536  23.098   6.973
 3130POPC   C4B42490  18.307  23.328   7.318
 3131POPC   NC342491  35.184  16.529   5.166
 3131POPC   PO442492  35.513  16.185   5.538
 3131POPC   GL142493  35.268  16.569   5.685
 3131POPC   GL242494  35.490  16.820   5.703
 3131POPC   C1A42495  35.168  16.786   6.112
 3131POPC   D2A42496  35.108  16.632   6.547
 3131POPC   C3A42497  35.188  16.780   6.981
 3131POPC   C4A42498  35.357  16.572   7.365
 3131POPC   C1B42499  35.642  16.592   6.090
 3131POPC   C2B42500  35.637  16.704   6.538
 3131POPC   C3B42501  35.695  16.599   6.969
 3131POPC   C4B42502  35.827  16.783   7.381
 3132POPC   NC342503  42.040  27.682   5.143
 3132POPC   PO442504  42.601  27.299   5.441
 3132POPC   GL142505  42.373  27.492   5.845
 3132POPC   GL242506  42.001  27.406   5.943
 3132POPC   C1A42507  42.275  27.560   6.322
 3132POPC   D2A42508  42.422  27.329   6.657
 3132POPC   C3A42509  42.423  27.535   7.037
 3132POPC   C4A42510  42.202  27.369   7.380
 3132POPC   C1B42511  41.907  27.850   6.085
 3132POPC   C2B42512  41.991  28.005   6.451
 3132POPC   C3B42513  42.012  27.745   6.803
 3132POPC   C4B42514  41.932  27.787   7.231
 3133POPC   NC342515  11.219  27.971   5.582
 3133POPC   PO442516  11.677  28.384   5.363
 3133POPC   GL142517  11.477  28.350   5.805
 3133POPC   GL242518  11.073  28.349   5.893
 3133POPC   C1A42519  11.402  28.118   6.214
 3133POPC   D2A42520  11.346  28.337   6.572
 3133POPC   C3A42521  11.404  28.150   6.946
 3133POPC   C4A42522  11.223  28.218   7.304
 3133POPC   C1B42523  10.877  28.177   6.288
 3133POPC   C2B42524  10.858  28.281   6.747
 3133POPC   C3B42525  10.997  28.581   7.032
 3133POPC   C4B42526  10.906  28.591   7.470
 3134POPC   NC342527  30.232  17.987   5.613
 3134POPC   PO442528  29.994  18.446   5.207
 3134POPC   GL142529  29.781  18.345   5.607
 3134POPC   GL242530  29.605  18.047   5.671
 3134POPC   C1A42531  29.731  18.439   6.075
 3134POPC   D2A42532  29.737  18.614   6.481
 3134POPC   C3A42533  29.748  18.404   6.874
 3134POPC   C4A42534  29.904  18.531   7.264
 3134POPC   C1B42535  29.793  17.947   6.099
 3134POPC   C2B42536  29.972  18.126   6.474
 3134POPC   C3B42537  30.193  18.147   6.871
 3134POPC   C4B42538  30.084  18.062   7.307
 3135POPC   NC342539  23.045  30.349   5.450
 3135POPC   PO442540  22.837  30.989   5.667
 3135POPC   GL142541  22.919  30.598   5.904
 3135POPC   GL242542  22.633  30.348   5.801
 3135POPC   C1A42543  23.185  30.735   6.261
 3135POPC   D2A42544  23.205  31.091   6.585
 3135POPC   C3A42545  23.057  30.911   6.945
 3135POPC   C4A42546  23.078  30.671   7.339
 3135POPC   C1B42547  22.498  30.505   6.203
 3135POPC   C2B42548  22.646  30.687   6.594
 3135POPC   C3B42549  22.762  30.499   6.977
 3135POPC   C4B42550  22.645  30.393   7.385
 3136POPC   NC342551  39.272  36.511   5.577
 3136POPC   PO442552  39.063  35.867   5.458
 3136POPC   GL142553  39.321  36.002   5.840
 3136POPC   GL242554  39.700  35.975   5.839
 3136POPC   C1A42555  39.157  35.937   6.281
 3136POPC   D2A42556  38.863  36.157   6.591
 3136POPC   C3A42557  38.996  36.219   7.004
 3136POPC   C4A42558  39.163  35.850   7.168
 3136POPC   C1B42559  39.665  36.071   6.301
 3136POPC   C2B42560  39.503  36.129   6.740
 3136POPC   C3B42561  39.552  36.169   7.202
 3136POPC   C4B42562  39.626  36.315   7.645
 3137POPC   NC342563  20.821  40.545   5.366
 3137POPC   PO442564  20.565  41.232   5.396
 3137POPC   GL142565  20.730  41.033   5.765
 3137POPC   GL242566  20.480  40.767   5.768
 3137POPC   C1A42567  20.721  40.870   6.225
 3137POPC   D2A42568  20.548  40.977   6.668
 3137POPC   C3A42569  20.733  40.925   7.121
 3137POPC   C4A42570  20.631  40.996   7.599
 3137POPC   C1B42571  20.426  40.432   6.098
 3137POPC   C2B42572  20.618  40.399   6.498
 3137POPC   C3B42573  20.528  40.515   6.911
 3137POPC   C4B42574  20.777  40.438   7.291
 3138POPC   NC342575  42.901  41.539   5.234
 3138POPC   PO442576  43.492  41.446   5.486
 3138POPC   GL142577  43.165  41.510   5.760
 3138POPC   GL242578  42.848  41.367   5.729
 3138POPC   C1A42579  43.137  41.652   6.167
 3138POPC   D2A42580  43.018  41.776   6.541
 3138POPC   C3A42581  43.292  41.681   6.828
 3138POPC   C4A42582  43.206  41.727   7.229
 3138POPC   C1B42583  42.970  41.163   6.131
 3138POPC   C2B42584  43.143  41.228   6.538
 3138POPC   C3B42585  43.130  41.054   6.934
 3138POPC   C4B42586  43.100  41.203   7.336
 3139POPC   NC342587  30.926  17.109   5.448
 3139POPC   PO442588  30.932  17.794   5.278
 3139POPC   GL142589  30.698  17.764   5.711
 3139POPC   GL242590  30.718  17.409   5.852
 3139POPC   C1A42591  30.786  17.799   6.180
 3139POPC   D2A42592  30.962  17.616   6.575
 3139POPC   C3A42593  30.731  17.452   6.910
 3139POPC   C4A42594  30.647  17.726   7.218
 3139POPC   C1B42595  30.508  17.340   6.287
 3139POPC   C2B42596  30.277  17.228   6.694
 3139POPC   C3B42597  30.349  17.180   7.162
 3139POPC   C4B42598  30.421  17.138   7.636
 3140POPC   NC342599   8.610  43.250   5.432
 3140POPC   PO442600   8.057  43.400   5.436
 3140POPC   GL142601   8.238  43.261   5.863
 3140POPC   GL242602   8.550  43.434   5.914
 3140POPC   C1A42603   8.082  43.145   6.314
 3140POPC   D2A42604   7.940  43.236   6.752
 3140POPC   C3A42605   8.089  42.999   7.127
 3140POPC   C4A42606   8.149  43.032   7.578
 3140POPC   C1B42607   8.734  43.539   6.290
 3140POPC   C2B42608   8.418  43.470   6.580
 3140POPC   C3B42609   8.368  43.415   7.012
 3140POPC   C4B42610   8.641  43.494   7.363
 3141POPC   NC342611   8.307  44.653   5.114
 3141POPC   PO442612   8.070  44.261   5.573
 3141POPC   GL142613   7.959  44.541   5.871
 3141POPC   GL242614   8.307  44.671   5.904
 3141POPC   C1A42615   7.955  44.612   6.326
 3141POPC   D2A42616   8.285  44.715   6.619
 3141POPC   C3A42617   8.180  44.768   7.045
 3141POPC   C4A42618   8.136  44.915   7.462
 3141POPC   C1B42619   8.440  44.426   6.210
 3141POPC   C2B42620   8.613  44.329   6.602
 3141POPC   C3B42621   8.425  44.326   6.983
 3141POPC   C4B42622   8.583  44.370   7.405
 3142POPC   NC342623  22.296  12.578   5.400
 3142POPC   PO442624  21.911  12.998   5.512
 3142POPC   GL142625  22.107  12.715   5.871
 3142POPC   GL242626  22.454  12.612   5.885
 3142POPC   C1A42627  22.239  12.740   6.344
 3142POPC   D2A42628  22.189  12.755   6.815
 3142POPC   C3A42629  22.033  13.067   7.140
 3142POPC   C4A42630  22.124  13.483   7.362
 3142POPC   C1B42631  22.700  12.487   6.249
 3142POPC   C2B42632  22.761  12.669   6.664
 3142POPC   C3B42633  22.593  12.707   7.101
 3142POPC   C4B42634  22.414  12.864   7.460
 3143POPC   NC342635  37.490  32.396   5.392
 3143POPC   PO442636  38.097  32.269   5.282
 3143POPC   GL142637  37.830  32.135   5.673
 3143POPC   GL242638  37.701  32.445   5.855
 3143POPC   C1A42639  37.722  32.017   6.123
 3143POPC   D2A42640  37.637  32.211   6.518
 3143POPC   C3A42641  37.848  32.147   6.924
 3143POPC   C4A42642  37.760  32.071   7.360
 3143POPC   C1B42643  37.296  32.335   6.076
 3143POPC   C2B42644  37.152  32.354   6.504
 3143POPC   C3B42645  37.299  32.236   6.927
 3143POPC   C4B42646  37.450  32.478   7.297
 3144POPC   NC342647  28.206   0.855   5.475
 3144POPC   PO442648  28.618   1.223   5.649
 3144POPC   GL142649  28.469   1.198   6.042
 3144POPC   GL242650  28.799   1.296   6.107
 3144POPC   C1A42651  28.157   0.915   6.272
 3144POPC   D2A42652  27.921   0.748   6.632
 3144POPC   C3A42653  28.041   0.994   6.987
 3144POPC   C4A42654  28.276   1.087   7.321
 3144POPC   C1B42655  28.805   0.989   6.380
 3144POPC   C2B42656  28.499   1.060   6.662
 3144POPC   C3B42657  28.555   1.345   6.988
 3144POPC   C4B42658  28.687   1.627   7.294
 3145POPC   NC342659  11.084  11.577   5.505
 3145POPC   PO442660  11.552  11.299   5.113
 3145POPC   GL142661  11.475  11.211   5.622
 3145POPC   GL242662  11.119  11.089   5.681
 3145POPC   C1A42663  11.552  11.277   6.137
 3145POPC   D2A42664  11.527  11.549   6.545
 3145POPC   C3A42665  11.453  11.317   6.966
 3145POPC   C4A42666  11.329  11.337   7.424
 3145POPC   C1B42667  11.035  11.161   6.119
 3145POPC   C2B42668  11.074  11.299   6.554
 3145POPC   C3B42669  10.947  11.242   6.979
 3145POPC   C4B42670  10.879  10.989   7.316
 3146POPC   NC342671  25.485  30.249   5.433
 3146POPC   PO442672  25.052  30.760   5.408
 3146POPC   GL142673  25.021  30.673   5.802
 3146POPC   GL242674  25.343  30.561   5.830
 3146POPC   C1A42675  25.059  30.836   6.212
 3146POPC   D2A42676  25.089  30.634   6.574
 3146POPC   C3A42677  25.371  30.753   6.861
 3146POPC   C4A42678  25.281  30.884   7.244
 3146POPC   C1B42679  25.365  30.385   6.230
 3146POPC   C2B42680  25.521  30.290   6.664
 3146POPC   C3B42681  25.646  30.380   7.105
 3146POPC   C4B42682  25.612  30.598   7.496
 3147POPC   NC342683  33.425  42.259   5.575
 3147POPC   PO442684  33.982  42.294   5.199
 3147POPC   GL142685  33.917  42.230   5.718
 3147POPC   GL242686  33.714  42.491   5.932
 3147POPC   C1A42687  34.041  42.213   6.174
 3147POPC   D2A42688  33.774  42.233   6.549
 3147POPC   C3A42689  33.955  42.476   6.903
 3147POPC   C4A42690  33.952  42.369   7.346
 3147POPC   C1B42691  33.318  42.517   6.164
 3147POPC   C2B42692  33.147  42.632   6.539
 3147POPC   C3B42693  33.338  42.499   6.908
 3147POPC   C4B42694  33.439  42.555   7.315
 3148POPC   NC342695  36.348  20.568   5.393
 3148POPC   PO442696  35.766  20.823   5.084
 3148POPC   GL142697  35.862  20.713   5.589
 3148POPC   GL242698  35.968  20.374   5.738
 3148POPC   C1A42699  35.850  20.734   6.104
 3148POPC   D2A42700  36.026  20.876   6.547
 3148POPC   C3A42701  36.146  20.701   6.974
 3148POPC   C4A42702  36.436  20.649   7.360
 3148POPC   C1B42703  36.089  20.275   6.212
 3148POPC   C2B42704  36.199  20.230   6.682
 3148POPC   C3B42705  36.224  20.229   7.163
 3148POPC   C4B42706  36.402  20.127   7.591
 3149POPC   NC342707   5.404  16.293   5.679
 3149POPC   PO442708   4.899  16.006   5.311
 3149POPC   GL142709   4.964  15.897   5.757
 3149POPC   GL242710   4.637  15.734   5.829
 3149POPC   C1A42711   5.175  15.925   6.188
 3149POPC   D2A42712   5.078  15.690   6.576
 3149POPC   C3A42713   5.286  15.792   6.951
 3149POPC   C4A42714   5.309  16.224   7.082
 3149POPC   C1B42715   4.679  15.933   6.261
 3149POPC   C2B42716   4.620  15.942   6.715
 3149POPC   C3B42717   4.837  16.028   7.082
 3149POPC   C4B42718   4.760  16.148   7.530
 3150POPC   NC342719  16.043  20.226   5.415
 3150POPC   PO442720  16.067  19.549   5.483
 3150POPC   GL142721  15.912  19.826   5.853
 3150POPC   GL242722  16.221  19.984   6.007
 3150POPC   C1A42723  15.709  19.778   6.309
 3150POPC   D2A42724  15.750  19.690   6.805
 3150POPC   C3A42725  16.042  19.754   7.213
 3150POPC   C4A42726  15.813  19.735   7.637
 3150POPC   C1B42727  15.872  20.240   6.181
 3150POPC   C2B42728  15.653  20.213   6.599
 3150POPC   C3B42729  15.975  20.154   6.906
 3150POPC   C4B42730  15.999  20.243   7.339
 3151POPC   NC342731  29.670  44.877   5.500
 3151POPC   PO442732  29.274  44.321   5.426
 3151POPC   GL142733  29.021  44.473   5.730
 3151POPC   GL242734  29.106  44.818   5.655
 3151POPC   C1A42735  29.023  44.536   6.184
 3151POPC   D2A42736  29.367  44.653   6.434
 3151POPC   C3A42737  29.392  44.585   6.867
 3151POPC   C4A42738  29.242  44.548   7.275
 3151POPC   C1B42739  28.734  44.891   5.928
 3151POPC   C2B42740  28.715  44.948   6.396
 3151POPC   C3B42741  28.912  44.846   6.799
 3151POPC   C4B42742  28.843  44.905   7.234
 3152POPC   NC342743  24.045  15.647   5.661
 3152POPC   PO442744  23.520  15.985   5.444
 3152POPC   GL142745  23.590  15.926   5.868
 3152POPC   GL242746  23.462  16.293   5.866
 3152POPC   C1A42747  23.782  15.738   6.290
 3152POPC   D2A42748  23.603  15.675   6.675
 3152POPC   C3A42749  23.776  15.707   7.063
 3152POPC   C4A42750  23.568  15.498   7.375
 3152POPC   C1B42751  23.405  16.147   6.271
 3152POPC   C2B42752  23.644  16.162   6.584
 3152POPC   C3B42753  23.616  16.305   6.969
 3152POPC   C4B42754  23.919  16.415   7.219
 3153POPC   NC342755  17.316  36.394   5.428
 3153POPC   PO442756  17.520  36.893   5.090
 3153POPC   GL142757  17.505  36.837   5.562
 3153POPC   GL242758  17.771  36.704   5.714
 3153POPC   C1A42759  17.371  36.939   5.990
 3153POPC   D2A42760  17.515  36.893   6.422
 3153POPC   C3A42761  17.322  37.026   6.813
 3153POPC   C4A42762  17.486  37.012   7.225
 3153POPC   C1B42763  17.769  36.392   6.046
 3153POPC   C2B42764  17.591  36.370   6.453
 3153POPC   C3B42765  17.691  36.605   6.832
 3153POPC   C4B42766  17.695  36.487   7.250
 3154POPC   NC342767  39.696  20.575   5.305
 3154POPC   PO442768  40.284  20.812   5.465
 3154POPC   GL142769  40.049  20.586   5.783
 3154POPC   GL242770  39.717  20.736   5.924
 3154POPC   C1A42771  40.263  20.550   6.183
 3154POPC   D2A42772  40.079  20.561   6.586
 3154POPC   C3A42773  40.254  20.549   6.973
 3154POPC   C4A42774  40.325  20.941   7.201
 3154POPC   C1B42775  39.774  20.406   6.197
 3154POPC   C2B42776  39.697  20.228   6.614
 3154POPC   C3B42777  39.674  20.541   6.927
 3154POPC   C4B42778  39.836  20.786   7.235
 3155POPC   NC342779  11.367  37.329   5.417
 3155POPC   PO442780  11.450  37.886   5.497
 3155POPC   GL142781  11.525  37.572   5.852
 3155POPC   GL242782  11.172  37.436   5.870
 3155POPC   C1A42783  11.662  37.634   6.309
 3155POPC   D2A42784  11.438  37.785   6.684
 3155POPC   C3A42785  11.395  37.650   7.121
 3155POPC   C4A42786  11.353  37.607   7.600
 3155POPC   C1B42787  11.140  37.577   6.316
 3155POPC   C2B42788  11.002  37.503   6.780
 3155POPC   C3B42789  10.920  37.584   7.238
 3155POPC   C4B42790  11.004  37.955   7.494
 3156POPC   NC342791  32.634  43.314   5.385
 3156POPC   PO442792  33.313  43.127   5.194
 3156POPC   GL142793  33.144  43.039   5.654
 3156POPC   GL242794  32.824  43.176   5.829
 3156POPC   C1A42795  33.157  43.003   6.145
 3156POPC   D2A42796  33.286  43.132   6.556
 3156POPC   C3A42797  33.137  42.979   6.928
 3156POPC   C4A42798  32.998  43.134   7.307
 3156POPC   C1B42799  32.852  43.408   6.261
 3156POPC   C2B42800  32.871  43.397   6.727
 3156POPC   C3B42801  32.787  43.552   7.129
 3156POPC   C4B42802  32.715  43.504   7.612
 3157POPC   NC342803  11.664  20.957   5.407
 3157POPC   PO442804  12.404  20.897   5.428
 3157POPC   GL142805  12.199  20.765   5.857
 3157POPC   GL242806  11.888  20.528   5.800
 3157POPC   C1A42807  12.212  20.815   6.358
 3157POPC   D2A42808  12.064  21.123   6.729
 3157POPC   C3A42809  12.145  21.059   7.211
 3157POPC   C4A42810  12.138  20.774   7.613
 3157POPC   C1B42811  11.736  20.659   6.237
 3157POPC   C2B42812  11.845  20.656   6.685
 3157POPC   C3B42813  11.940  20.605   7.131
 3157POPC   C4B42814  11.784  20.423   7.531
 3158POPC   NC342815  10.647   7.044   5.358
 3158POPC   PO442816  10.348   6.452   5.265
 3158POPC   GL142817  10.398   6.545   5.732
 3158POPC   GL242818  10.707   6.719   5.767
 3158POPC   C1A42819  10.412   6.538   6.224
 3158POPC   D2A42820  10.273   6.380   6.675
 3158POPC   C3A42821  10.483   6.447   7.100
 3158POPC   C4A42822  10.520   6.381   7.584
 3158POPC   C1B42823  10.853   6.835   6.198
 3158POPC   C2B42824  10.666   6.790   6.598
 3158POPC   C3B42825  10.782   6.852   6.999
 3158POPC   C4B42826  10.593   6.850   7.399
 3159POPC   NC342827  38.608  16.432   5.243
 3159POPC   PO442828  38.779  17.034   5.340
 3159POPC   GL142829  39.007  16.740   5.660
 3159POPC   GL242830  39.314  16.864   5.790
 3159POPC   C1A42831  39.074  16.602   6.149
 3159POPC   D2A42832  39.220  16.843   6.547
 3159POPC   C3A42833  39.256  16.761   7.026
 3159POPC   C4A42834  39.442  16.757   7.484
 3159POPC   C1B42835  38.937  17.079   6.049
 3159POPC   C2B42836  38.870  17.230   6.504
 3159POPC   C3B42837  38.963  17.217   6.974
 3159POPC   C4B42838  39.029  17.050   7.417
 3160POPC   NC342839  28.858  20.477   5.383
 3160POPC   PO442840  28.233  20.312   5.328
 3160POPC   GL142841  28.424  20.434   5.720
 3160POPC   GL242842  28.357  20.768   5.815
 3160POPC   C1A42843  28.306  20.411   6.177
 3160POPC   D2A42844  28.536  20.369   6.549
 3160POPC   C3A42845  28.275  20.363   6.905
 3160POPC   C4A42846  28.450  20.360   7.287
 3160POPC   C1B42847  28.152  20.918   6.179
 3160POPC   C2B42848  28.068  20.711   6.575
 3160POPC   C3B42849  28.196  20.878   6.972
 3160POPC   C4B42850  28.012  21.020   7.385
 3161POPC   NC342851  33.071  17.971   5.582
 3161POPC   PO442852  32.772  17.452   5.306
 3161POPC   GL142853  32.962  17.390   5.706
 3161POPC   GL242854  32.756  17.170   5.892
 3161POPC   C1A42855  33.150  17.574   6.081
 3161POPC   D2A42856  33.286  17.575   6.481
 3161POPC   C3A42857  33.231  17.490   6.920
 3161POPC   C4A42858  32.983  17.449   7.273
 3161POPC   C1B42859  32.737  17.395   6.333
 3161POPC   C2B42860  32.725  17.394   6.809
 3161POPC   C3B42861  32.531  17.676   7.151
 3161POPC   C4B42862  32.702  17.944   7.496
 3162POPC   NC342863  36.000  14.186   5.395
 3162POPC   PO442864  36.601  14.098   5.220
 3162POPC   GL142865  36.395  14.314   5.707
 3162POPC   GL242866  36.009  14.465   5.826
 3162POPC   C1A42867  36.357  14.446   6.183
 3162POPC   D2A42868  35.997  14.524   6.457
 3162POPC   C3A42869  36.177  14.619   6.842
 3162POPC   C4A42870  36.313  14.429   7.218
 3162POPC   C1B42871  35.781  14.857   6.051
 3162POPC   C2B42872  35.691  14.939   6.485
 3162POPC   C3B42873  35.674  14.710   6.890
 3162POPC   C4B42874  35.898  14.713   7.274
 3163POPC   NC342875  33.320  29.742   5.606
 3163POPC   PO442876  33.081  30.245   5.205
 3163POPC   GL142877  32.928  30.075   5.638
 3163POPC   GL242878  33.151  30.158   5.926
 3163POPC   C1A42879  32.779  29.816   6.051
 3163POPC   D2A42880  32.891  29.996   6.492
 3163POPC   C3A42881  32.820  29.815   6.922
 3163POPC   C4A42882  33.113  29.903   7.276
 3163POPC   C1B42883  33.263  29.787   6.213
 3163POPC   C2B42884  33.411  29.579   6.512
 3163POPC   C3B42885  33.269  29.552   6.905
 3163POPC   C4B42886  33.242  29.389   7.268
 3164POPC   NC342887  23.357   1.100   5.617
 3164POPC   PO442888  22.669   1.102   5.501
 3164POPC   GL142889  22.868   1.198   5.872
 3164POPC   GL242890  23.098   1.442   5.870
 3164POPC   C1A42891  22.737   1.139   6.291
 3164POPC   D2A42892  22.721   1.355   6.662
 3164POPC   C3A42893  22.665   1.083   6.981
 3164POPC   C4A42894  22.989   1.012   7.260
 3164POPC   C1B42895  23.231   1.283   6.288
 3164POPC   C2B42896  23.247   1.506   6.693
 3164POPC   C3B42897  22.990   1.563   7.082
 3164POPC   C4B42898  23.079   1.443   7.536
 3165POPC   NC342899   8.623   8.297   5.486
 3165POPC   PO442900   9.302   8.199   5.319
 3165POPC   GL142901   9.166   8.186   5.784
 3165POPC   GL242902   8.883   8.410   5.900
 3165POPC   C1A42903   9.192   8.100   6.250
 3165POPC   D2A42904   9.110   8.297   6.668
 3165POPC   C3A42905   9.023   7.991   7.008
 3165POPC   C4A42906   8.898   7.874   7.437
 3165POPC   C1B42907   8.652   8.694   6.163
 3165POPC   C2B42908   8.722   8.621   6.589
 3165POPC   C3B42909   8.645   8.340   6.917
 3165POPC   C4B42910   8.439   8.583   7.162
 3166POPC   NC342911  23.624  11.900   5.532
 3166POPC   PO442912  24.186  12.245   5.500
 3166POPC   GL142913  24.027  12.032   5.841
 3166POPC   GL242914  23.762  12.294   5.882
 3166POPC   C1A42915  24.015  12.111   6.285
 3166POPC   D2A42916  23.810  12.337   6.627
 3166POPC   C3A42917  23.810  11.998   6.862
 3166POPC   C4A42918  23.800  11.867   7.240
 3166POPC   C1B42919  23.508  12.168   6.237
 3166POPC   C2B42920  23.335  12.118   6.653
 3166POPC   C3B42921  23.406  12.220   7.090
 3166POPC   C4B42922  23.401  12.498   7.483
 3167POPC   NC342923   2.763  41.467   5.461
 3167POPC   PO442924   2.863  42.067   5.526
 3167POPC   GL142925   3.041  41.738   5.826
 3167POPC   GL242926   3.014  41.348   5.899
 3167POPC   C1A42927   3.018  41.680   6.289
 3167POPC   D2A42928   2.860  41.411   6.613
 3167POPC   C3A42929   2.906  41.547   7.050
 3167POPC   C4A42930   2.580  41.677   7.355
 3167POPC   C1B42931   2.582  41.461   6.096
 3167POPC   C2B42932   2.327  41.442   6.490
 3167POPC   C3B42933   2.414  41.411   6.933
 3167POPC   C4B42934   2.161  41.232   7.247
 3168POPC   NC342935  41.299  28.544   5.548
 3168POPC   PO442936  41.705  28.023   5.403
 3168POPC   GL142937  41.549  28.144   5.808
 3168POPC   GL242938  41.202  28.165   5.869
 3168POPC   C1A42939  41.543  28.175   6.254
 3168POPC   D2A42940  41.578  28.451   6.573
 3168POPC   C3A42941  41.748  28.198   6.871
 3168POPC   C4A42942  41.684  28.299   7.252
 3168POPC   C1B42943  41.149  28.491   6.204
 3168POPC   C2B42944  41.064  28.308   6.614
 3168POPC   C3B42945  41.196  28.322   7.049
 3168POPC   C4B42946  41.237  28.285   7.524
 3169POPC   NC342947   5.886  12.347   5.470
 3169POPC   PO442948   5.355  11.918   5.457
 3169POPC   GL142949   5.540  12.129   5.803
 3169POPC   GL242950   5.859  11.944   5.815
 3169POPC   C1A42951   5.556  12.090   6.253
 3169POPC   D2A42952   5.464  11.780   6.576
 3169POPC   C3A42953   5.663  11.719   6.986
 3169POPC   C4A42954   5.679  11.932   7.393
 3169POPC   C1B42955   6.074  12.012   6.202
 3169POPC   C2B42956   5.943  12.022   6.621
 3169POPC   C3B42957   6.157  11.938   7.009
 3169POPC   C4B42958   6.147  12.238   7.331
 3170POPC   NC342959  44.478  41.206   5.022
 3170POPC   PO442960  44.414  41.558   5.587
 3170POPC   GL142961  44.695  41.616   5.873
 3170POPC   GL242962  44.840  41.949   5.882
 3170POPC   C1A42963  44.610  41.413   6.229
 3170POPC   D2A42964  44.720  41.465   6.601
 3170POPC   C3A42965  44.476  41.211   6.791
 3170POPC   C4A42966  44.482  41.235   7.200
 3170POPC   C1B42967  44.586  41.927   6.264
 3170POPC   C2B42968  44.660  41.951   6.694
 3170POPC   C3B42969  44.633  41.750   7.089
 3170POPC   C4B42970  44.563  41.948   7.500
 3171POPC   NC342971   9.579  29.892   5.364
 3171POPC   PO442972   8.954  29.924   5.328
 3171POPC   GL142973   9.149  29.830   5.703
 3171POPC   GL242974   9.019  30.111   5.811
 3171POPC   C1A42975   9.026  29.718   6.152
 3171POPC   D2A42976   8.720  29.732   6.498
 3171POPC   C3A42977   8.946  29.658   6.854
 3171POPC   C4A42978   9.255  29.777   7.162
 3171POPC   C1B42979   9.119  30.234   6.218
 3171POPC   C2B42980   9.117  30.044   6.592
 3171POPC   C3B42981   9.073  30.208   6.982
 3171POPC   C4B42982   9.318  30.497   7.195
 3172POPC   NC342983  40.017   3.015   5.436
 3172POPC   PO442984  40.578   2.753   5.579
 3172POPC   GL142985  40.277   2.890   5.910
 3172POPC   GL242986  40.002   2.683   5.897
 3172POPC   C1A42987  40.174   2.741   6.361
 3172POPC   D2A42988  39.987   2.973   6.713
 3172POPC   C3A42989  40.077   2.946   7.158
 3172POPC   C4A42990  40.028   3.068   7.622
 3172POPC   C1B42991  39.701   2.491   6.197
 3172POPC   C2B42992  39.548   2.638   6.591
 3172POPC   C3B42993  39.732   2.610   6.968
 3172POPC   C4B42994  40.034   2.397   7.213
 3173POPC   NC342995  23.176  29.532   5.315
 3173POPC   PO442996  22.709  29.999   5.408
 3173POPC   GL142997  22.954  29.948   5.781
 3173POPC   GL242998  23.076  29.629   5.844
 3173POPC   C1A42999  22.890  30.119   6.197
 3173POPC   D2A43000  23.036  30.337   6.559
 3173POPC   C3A43001  23.002  30.060   6.901
 3173POPC   C4A43002  23.101  30.155   7.302
 3173POPC   C1B43003  22.717  29.618   6.159
 3173POPC   C2B43004  22.719  29.724   6.602
 3173POPC   C3B43005  22.788  29.591   7.026
 3173POPC   C4B43006  23.208  29.569   7.190
 3174POPC   NC343007  25.949  11.771   5.255
 3174POPC   PO443008  26.504  11.992   5.508
 3174POPC   GL143009  26.202  12.200   5.784
 3174POPC   GL243010  25.861  12.131   5.682
 3174POPC   C1A43011  26.025  12.276   6.178
 3174POPC   D2A43012  26.143  12.445   6.562
 3174POPC   C3A43013  25.958  12.247   6.886
 3174POPC   C4A43014  26.075  12.287   7.285
 3174POPC   C1B43015  25.981  11.783   5.986
 3174POPC   C2B43016  26.015  11.752   6.425
 3174POPC   C3B43017  25.928  11.617   6.846
 3174POPC   C4B43018  25.872  11.833   7.240
 3175POPC   NC343019  10.958   1.585   5.111
 3175POPC   PO443020  11.530   1.321   5.173
 3175POPC   GL143021  11.437   1.395   5.628
 3175POPC   GL243022  11.695   1.295   5.860
 3175POPC   C1A43023  11.273   1.419   6.088
 3175POPC   D2A43024  11.410   1.359   6.519
 3175POPC   C3A43025  11.134   1.226   6.847
 3175POPC   C4A43026  11.209   1.099   7.289
 3175POPC   C1B43027  11.510   0.970   6.194
 3175POPC   C2B43028  11.185   0.736   6.455
 3175POPC   C3B43029  11.240   0.722   6.903
 3175POPC   C4B43030  11.603   1.026   6.970
 3176POPC   NC343031  42.611  29.148   5.656
 3176POPC   PO443032  42.048  28.961   5.446
 3176POPC   GL143033  42.166  29.213   5.882
 3176POPC   GL243034  42.095  28.965   6.096
 3176POPC   C1A43035  42.485  29.239   6.308
 3176POPC   D2A43036  42.493  29.025   6.726
 3176POPC   C3A43037  42.708  29.176   7.150
 3176POPC   C4A43038  42.680  29.289   7.687
 3176POPC   C1B43039  41.979  29.318   6.385
 3176POPC   C2B43040  41.951  29.262   6.855
 3176POPC   C3B43041  42.217  29.050   7.145
 3176POPC   C4B43042  42.506  28.636   7.070
 3177POPC   NC343043  13.297  10.147   5.595
 3177POPC   PO443044  12.850   9.712   5.261
 3177POPC   GL143045  12.731   9.660   5.753
 3177POPC   GL243046  13.029   9.855   5.924
 3177POPC   C1A43047  12.783   9.543   6.238
 3177POPC   D2A43048  13.121   9.641   6.546
 3177POPC   C3A43049  13.135   9.473   6.979
 3177POPC   C4A43050  12.837   9.189   7.193
 3177POPC   C1B43051  12.841  10.061   6.295
 3177POPC   C2B43052  12.534   9.982   6.614
 3177POPC   C3B43053  12.779   9.820   6.931
 3177POPC   C4B43054  13.146  10.035   7.082
 3178POPC   NC343055  31.750  35.335   5.354
 3178POPC   PO443056  31.134  35.061   5.349
 3178POPC   GL143057  31.341  35.375   5.681
 3178POPC   GL243058  31.122  35.683   5.768
 3178POPC   C1A43059  31.618  35.228   6.057
 3178POPC   D2A43060  31.490  35.023   6.448
 3178POPC   C3A43061  31.593  35.126   6.901
 3178POPC   C4A43062  31.432  35.206   7.316
 3178POPC   C1B43063  31.327  35.615   6.179
 3178POPC   C2B43064  31.495  35.526   6.588
 3178POPC   C3B43065  31.420  35.637   7.031
 3178POPC   C4B43066  31.791  35.584   7.285
 3179POPC   NC343067  29.217  37.421   5.445
 3179POPC   PO443068  29.019  38.042   5.329
 3179POPC   GL143069  28.915  37.845   5.727
 3179POPC   GL243070  29.187  37.635   5.899
 3179POPC   C1A43071  28.828  37.849   6.185
 3179POPC   D2A43072  29.093  37.766   6.549
 3179POPC   C3A43073  28.911  37.847   6.979
 3179POPC   C4A43074  28.856  37.526   7.332
 3179POPC   C1B43075  29.366  37.380   6.245
 3179POPC   C2B43076  29.500  37.409   6.649
 3179POPC   C3B43077  29.251  37.460   6.983
 3179POPC   C4B43078  29.380  37.309   7.383
 3180POPC   NC343079  36.294  25.416   5.370
 3180POPC   PO443080  35.686  25.552   5.545
 3180POPC   GL143081  35.858  25.343   5.881
 3180POPC   GL243082  36.110  25.118   5.753
 3180POPC   C1A43083  35.861  25.340   6.309
 3180POPC   D2A43084  35.775  25.612   6.645
 3180POPC   C3A43085  36.063  25.513   6.956
 3180POPC   C4A43086  36.158  25.216   7.268
 3180POPC   C1B43087  36.329  25.205   6.156
 3180POPC   C2B43088  36.362  25.305   6.589
 3180POPC   C3B43089  36.455  24.978   6.899
 3180POPC   C4B43090  36.593  24.982   7.301
 3181POPC   NC343091  14.816  39.617   5.032
 3181POPC   PO443092  14.962  40.151   5.499
 3181POPC   GL143093  15.270  39.940   5.769
 3181POPC   GL243094  15.053  39.707   5.868
 3181POPC   C1A43095  15.614  39.931   6.118
 3181POPC   D2A43096  15.678  40.149   6.526
 3181POPC   C3A43097  15.374  40.087   6.851
 3181POPC   C4A43098  15.491  40.054   7.261
 3181POPC   C1B43099  15.092  39.930   6.283
 3181POPC   C2B43100  14.948  39.838   6.721
 3181POPC   C3B43101  15.005  39.858   7.208
 3181POPC   C4B43102  14.901  39.699   7.657
 3182POPC   NC343103  25.255  42.780   5.490
 3182POPC   PO443104  25.299  43.515   5.406
 3182POPC   GL143105  25.334  43.237   5.747
 3182POPC   GL243106  24.996  43.111   5.850
 3182POPC   C1A43107  25.441  43.015   6.133
 3182POPC   D2A43108  25.527  43.038   6.569
 3182POPC   C3A43109  25.327  43.202   6.934
 3182POPC   C4A43110  25.373  42.920   7.268
 3182POPC   C1B43111  24.928  43.108   6.289
 3182POPC   C2B43112  25.012  42.859   6.654
 3182POPC   C3B43113  24.874  42.919   7.073
 3182POPC   C4B43114  24.964  43.231   7.376
 3183POPC   NC343115  16.941   5.234   5.169
 3183POPC   PO443116  16.489   4.774   5.097
 3183POPC   GL143117  16.507   4.914   5.567
 3183POPC   GL243118  16.801   5.116   5.683
 3183POPC   C1A43119  16.478   4.886   6.051
 3183POPC   D2A43120  16.694   4.920   6.486
 3183POPC   C3A43121  16.527   5.131   6.851
 3183POPC   C4A43122  16.534   5.018   7.284
 3183POPC   C1B43123  16.765   5.304   6.139
 3183POPC   C2B43124  16.766   5.498   6.521
 3183POPC   C3B43125  16.869   5.543   6.912
 3183POPC   C4B43126  16.628   5.506   7.261
 3184POPC   NC343127  38.485  40.395   5.330
 3184POPC   PO443128  38.859  39.851   5.163
 3184POPC   GL143129  38.763  39.869   5.642
 3184POPC   GL243130  38.543  40.134   5.754
 3184POPC   C1A43131  38.640  39.789   6.104
 3184POPC   D2A43132  38.342  39.849   6.450
 3184POPC   C3A43133  38.504  39.841   6.884
 3184POPC   C4A43134  38.512  40.059   7.260
 3184POPC   C1B43135  38.416  40.294   6.152
 3184POPC   C2B43136  38.395  40.540   6.520
 3184POPC   C3B43137  38.366  40.435   6.949
 3184POPC   C4B43138  38.213  40.446   7.386
 3185POPC   NC343139  19.518  19.842   5.260
 3185POPC   PO443140  20.126  19.607   5.356
 3185POPC   GL143141  19.904  19.749   5.720
 3185POPC   GL243142  20.096  19.957   5.920
 3185POPC   C1A43143  19.829  19.577   6.154
 3185POPC   D2A43144  19.684  19.744   6.552
 3185POPC   C3A43145  19.882  19.733   6.942
 3185POPC   C4A43146  19.594  19.495   7.173
 3185POPC   C1B43147  19.871  20.119   6.239
 3185POPC   C2B43148  19.935  20.190   6.682
 3185POPC   C3B43149  19.576  20.143   6.956
 3185POPC   C4B43150  19.679  19.989   7.340
 3186POPC   NC343151  22.232  18.607   5.444
 3186POPC   PO443152  21.836  18.129   5.058
 3186POPC   GL143153  21.929  18.205   5.585
 3186POPC   GL243154  22.262  18.308   5.833
 3186POPC   C1A43155  21.850  18.178   6.076
 3186POPC   D2A43156  21.961  18.434   6.465
 3186POPC   C3A43157  22.249  18.251   6.799
 3186POPC   C4A43158  22.262  18.074   7.219
 3186POPC   C1B43159  22.396  18.226   6.261
 3186POPC   C2B43160  22.680  18.442   6.572
 3186POPC   C3B43161  22.629  18.620   6.966
 3186POPC   C4B43162  22.555  18.478   7.361
 3187POPC   NC343163   3.034  38.165   5.292
 3187POPC   PO443164   2.689  38.728   5.405
 3187POPC   GL143165   2.729  38.383   5.692
 3187POPC   GL243166   3.051  38.345   5.807
 3187POPC   C1A43167   2.651  38.378   6.141
 3187POPC   D2A43168   2.722  38.540   6.537
 3187POPC   C3A43169   2.419  38.514   6.854
 3187POPC   C4A43170   2.568  38.389   7.257
 3187POPC   C1B43171   3.153  38.549   6.212
 3187POPC   C2B43172   3.186  38.716   6.651
 3187POPC   C3B43173   3.013  38.509   7.024
 3187POPC   C4B43174   3.192  38.226   7.368
 3188POPC   NC343175  44.123  16.253   5.373
 3188POPC   PO443176  43.499  15.980   5.225
 3188POPC   GL143177  43.766  16.013   5.640
 3188POPC   GL243178  43.847  16.357   5.792
 3188POPC   C1A43179  43.921  15.929   6.089
 3188POPC   D2A43180  43.789  15.893   6.548
 3188POPC   C3A43181  44.003  15.776   6.963
 3188POPC   C4A43182  43.890  15.790   7.426
 3188POPC   C1B43183  44.066  16.388   6.241
 3188POPC   C2B43184  44.188  16.218   6.694
 3188POPC   C3B43185  44.112  16.225   7.194
 3188POPC   C4B43186  43.997  16.317   7.638
 3189POPC   NC343187  34.811  28.619   5.603
 3189POPC   PO443188  34.355  28.149   5.286
 3189POPC   GL143189  34.426  28.273   5.738
 3189POPC   GL243190  34.408  28.554   5.903
 3189POPC   C1A43191  34.365  28.126   6.191
 3189POPC   D2A43192  34.589  28.126   6.603
 3189POPC   C3A43193  34.331  28.021   6.953
 3189POPC   C4A43194  34.245  28.200   7.370
 3189POPC   C1B43195  34.749  28.473   6.237
 3189POPC   C2B43196  35.084  28.463   6.528
 3189POPC   C3B43197  35.025  28.594   6.940
 3189POPC   C4B43198  34.636  28.403   7.110
 3190POPC   NC343199  31.180  20.357   5.333
 3190POPC   PO443200  31.703  20.821   5.368
 3190POPC   GL143201  31.749  20.706   5.803
 3190POPC   GL243202  31.568  20.386   5.751
 3190POPC   C1A43203  31.703  20.494   6.241
 3190POPC   D2A43204  31.635  20.342   6.693
 3190POPC   C3A43205  31.737  20.628   7.061
 3190POPC   C4A43206  31.678  20.952   7.385
 3190POPC   C1B43207  31.230  20.249   6.085
 3190POPC   C2B43208  31.048  20.260   6.547
 3190POPC   C3B43209  31.215  20.298   6.997
 3190POPC   C4B43210  31.272  20.580   7.374
 3191POPC   NC343211  35.962  39.933   5.306
 3191POPC   PO443212  36.488  40.220   5.415
 3191POPC   GL143213  36.175  40.121   5.763
 3191POPC   GL243214  35.895  40.351   5.811
 3191POPC   C1A43215  36.077  39.829   6.141
 3191POPC   D2A43216  35.978  39.633   6.560
 3191POPC   C3A43217  36.224  39.803   6.901
 3191POPC   C4A43218  36.293  39.681   7.318
 3191POPC   C1B43219  35.722  40.186   6.184
 3191POPC   C2B43220  35.935  40.149   6.542
 3191POPC   C3B43221  35.780  40.017   6.895
 3191POPC   C4B43222  35.952  40.059   7.266
 3192POPC   NC343223  39.039  37.464   5.385
 3192POPC   PO443224  39.586  37.772   5.419
 3192POPC   GL143225  39.334  37.686   5.768
 3192POPC   GL243226  39.075  37.893   5.844
 3192POPC   C1A43227  39.235  37.496   6.154
 3192POPC   D2A43228  39.045  37.502   6.549
 3192POPC   C3A43229  39.308  37.606   6.907
 3192POPC   C4A43230  39.279  37.453   7.343
 3192POPC   C1B43231  39.030  37.944   6.274
 3192POPC   C2B43232  39.014  38.014   6.693
 3192POPC   C3B43233  39.060  38.009   7.119
 3192POPC   C4B43234  39.446  37.925   7.336
 3193POPC   NC343235  11.891  37.789   5.577
 3193POPC   PO443236  12.156  38.344   5.302
 3193POPC   GL143237  12.165  38.505   5.762
 3193POPC   GL243238  11.832  38.585   5.890
 3193POPC   C1A43239  12.269  38.629   6.212
 3193POPC   D2A43240  12.211  38.704   6.647
 3193POPC   C3A43241  11.938  38.509   6.917
 3193POPC   C4A43242  11.857  38.457   7.345
 3193POPC   C1B43243  11.955  38.223   6.172
 3193POPC   C2B43244  11.881  38.055   6.601
 3193POPC   C3B43245  11.699  38.064   7.033
 3193POPC   C4B43246  11.493  38.110   7.434
 3194POPC   NC343247  30.418  20.981   5.507
 3194POPC   PO443248  30.733  20.426   5.239
 3194POPC   GL143249  30.741  20.414   5.701
 3194POPC   GL243250  30.416  20.565   5.812
 3194POPC   C1A43251  30.698  20.353   6.172
 3194POPC   D2A43252  30.491  20.560   6.555
 3194POPC   C3A43253  30.723  20.470   6.941
 3194POPC   C4A43254  30.755  20.251   7.334
 3194POPC   C1B43255  30.427  20.908   6.165
 3194POPC   C2B43256  30.389  21.078   6.616
 3194POPC   C3B43257  30.354  20.835   7.000
 3194POPC   C4B43258  30.528  20.700   7.409
 3195POPC   NC343259  17.819   0.523   5.520
 3195POPC   PO443260  17.207   0.101   5.435
 3195POPC   GL143261  17.401   0.273   5.845
 3195POPC   GL243262  17.175   0.579   5.838
 3195POPC   C1A43263  17.619   0.414   6.283
 3195POPC   D2A43264  17.517   0.540   6.743
 3195POPC   C3A43265  17.756   0.522   7.144
 3195POPC   C4A43266  17.713   0.234   7.516
 3195POPC   C1B43267  17.096   0.427   6.275
 3195POPC   C2B43268  17.020   0.541   6.708
 3195POPC   C3B43269  17.195   0.815   7.073
 3195POPC   C4B43270  17.342   0.620   7.473
 3196POPC   NC343271  23.062  32.695   5.376
 3196POPC   PO443272  23.303  33.397   5.383
 3196POPC   GL143273  23.082  33.112   5.750
 3196POPC   GL243274  23.136  32.759   5.867
 3196POPC   C1A43275  22.985  33.051   6.233
 3196POPC   D2A43276  22.718  33.079   6.621
 3196POPC   C3A43277  22.920  33.246   6.997
 3196POPC   C4A43278  22.848  33.287   7.442
 3196POPC   C1B43279  23.295  32.536   6.232
 3196POPC   C2B43280  23.420  32.630   6.644
 3196POPC   C3B43281  23.403  32.487   7.063
 3196POPC   C4B43282  23.225  32.598   7.431
 3197POPC   NC343283  26.916  35.119   5.370
 3197POPC   PO443284  26.647  35.809   5.376
 3197POPC   GL143285  26.659  35.463   5.681
 3197POPC   GL243286  26.910  35.627   5.872
 3197POPC   C1A43287  26.727  35.171   6.064
 3197POPC   D2A43288  26.663  35.238   6.523
 3197POPC   C3A43289  26.922  35.161   6.884
 3197POPC   C4A43290  26.738  35.225   7.270
 3197POPC   C1B43291  26.818  35.665   6.311
 3197POPC   C2B43292  26.898  35.665   6.734
 3197POPC   C3B43293  26.923  35.680   7.173
 3197POPC   C4B43294  26.848  35.752   7.610
 3198POPC   NC343295  29.840   2.227   5.587
 3198POPC   PO443296  30.028   1.657   5.383
 3198POPC   GL143297  29.883   1.707   5.775
 3198POPC   GL243298  29.567   1.810   5.728
 3198POPC   C1A43299  30.000   1.790   6.228
 3198POPC   D2A43300  30.026   1.785   6.701
 3198POPC   C3A43301  30.180   1.967   7.104
 3198POPC   C4A43302  30.026   1.917   7.545
 3198POPC   C1B43303  29.531   1.975   6.154
 3198POPC   C2B43304  29.691   2.167   6.532
 3198POPC   C3B43305  29.672   2.060   6.964
 3198POPC   C4B43306  29.549   1.965   7.388
 3199POPC   NC343307  35.426  44.139   5.536
 3199POPC   PO443308  34.973  43.523   5.459
 3199POPC   GL143309  35.211  43.763   5.801
 3199POPC   GL243310  35.050  44.075   5.891
 3199POPC   C1A43311  35.485  43.696   6.180
 3199POPC   D2A43312  35.657  43.537   6.576
 3199POPC   C3A43313  35.510  43.631   6.964
 3199POPC   C4A43314  35.458  43.807   7.402
 3199POPC   C1B43315  35.231  44.117   6.268
 3199POPC   C2B43316  35.534  44.031   6.609
 3199POPC   C3B43317  35.361  44.104   7.007
 3199POPC   C4B43318  35.112  44.211   7.381
 3200POPC   NC343319   3.966  18.438   5.367
 3200POPC   PO443320   3.428  18.106   5.234
 3200POPC   GL143321   3.547  18.243   5.665
 3200POPC   GL243322   3.837  18.102   5.771
 3200POPC   C1A43323   3.592  18.415   6.121
 3200POPC   D2A43324   3.404  18.317   6.535
 3200POPC   C3A43325   3.559  18.405   6.947
 3200POPC   C4A43326   3.293  18.250   7.281
 3200POPC   C1B43327   3.773  17.941   6.177
 3200POPC   C2B43328   3.877  18.118   6.585
 3200POPC   C3B43329   3.885  18.032   7.046
 3200POPC   C4B43330   4.000  18.374   7.273
 3201POPC   NC343331  25.474  38.381   5.131
 3201POPC   PO443332  25.127  38.813   5.461
 3201POPC   GL143333  25.205  38.439   5.695
 3201POPC   GL243334  24.879  38.241   5.698
 3201POPC   C1A43335  25.381  38.396   6.113
 3201POPC   D2A43336  25.431  38.573   6.499
 3201POPC   C3A43337  25.559  38.437   6.884
 3201POPC   C4A43338  25.403  38.680   7.246
 3201POPC   C1B43339  24.869  38.504   6.093
 3201POPC   C2B43340  24.894  38.375   6.518
 3201POPC   C3B43341  25.045  38.482   6.916
 3201POPC   C4B43342  24.984  38.384   7.332
 3202POPC   NC343343  41.658   4.657   5.357
 3202POPC   PO443344  41.791   4.049   5.331
 3202POPC   GL143345  41.678   4.279   5.711
 3202POPC   GL243346  41.348   4.452   5.701
 3202POPC   C1A43347  41.672   4.239   6.166
 3202POPC   D2A43348  41.761   4.321   6.599
 3202POPC   C3A43349  41.742   4.040   6.961
 3202POPC   C4A43350  41.648   4.218   7.360
 3202POPC   C1B43351  41.185   4.426   6.129
 3202POPC   C2B43352  41.232   4.357   6.569
 3202POPC   C3B43353  41.426   4.515   6.963
 3202POPC   C4B43354  41.305   4.606   7.407
 3203POPC   NC343355  27.753   7.939   5.445
 3203POPC   PO443356  27.619   7.343   5.484
 3203POPC   GL143357  27.606   7.367   5.892
 3203POPC   GL243358  27.380   7.665   5.840
 3203POPC   C1A43359  27.933   7.450   6.220
 3203POPC   D2A43360  28.109   7.434   6.648
 3203POPC   C3A43361  27.931   7.633   7.045
 3203POPC   C4A43362  27.831   7.761   7.502
 3203POPC   C1B43363  27.459   7.657   6.271
 3203POPC   C2B43364  27.584   7.435   6.628
 3203POPC   C3B43365  27.421   7.703   6.931
 3203POPC   C4B43366  27.356   7.631   7.349
 3204POPC   NC343367  44.031  43.445   5.386
 3204POPC   PO443368  43.595  44.117   5.408
 3204POPC   GL143369  43.793  43.977   5.767
 3204POPC   GL243370  43.805  43.629   5.791
 3204POPC   C1A43371  43.975  43.936   6.164
 3204POPC   D2A43372  43.793  44.018   6.495
 3204POPC   C3A43373  43.868  43.883   6.859
 3204POPC   C4A43374  43.699  43.972   7.248
 3204POPC   C1B43375  43.732  43.463   6.175
 3204POPC   C2B43376  43.824  43.409   6.610
 3204POPC   C3B43377  43.603  43.465   7.014
 3204POPC   C4B43378  43.383  43.593   7.409
 3205POPC   NC343379  44.110  20.633   5.378
 3205POPC   PO443380  43.637  21.017   5.537
 3205POPC   GL143381  43.742  20.651   5.774
 3205POPC   GL243382  43.710  20.290   5.616
 3205POPC   C1A43383  43.674  20.643   6.213
 3205POPC   D2A43384  43.530  20.688   6.638
 3205POPC   C3A43385  43.881  20.680   6.913
 3205POPC   C4A43386  43.797  20.813   7.316
 3205POPC   C1B43387  43.761  20.152   6.054
 3205POPC   C2B43388  43.649  20.175   6.517
 3205POPC   C3B43389  43.706  20.181   6.986
 3205POPC   C4B43390  44.070  20.324   7.228
 3206POPC   NC343391  17.833  24.713   5.079
 3206POPC   PO443392  18.448  24.600   5.467
 3206POPC   GL143393  18.198  24.575   5.830
 3206POPC   GL243394  18.222  24.228   5.798
 3206POPC   C1A43395  18.339  24.728   6.258
 3206POPC   D2A43396  18.571  24.570   6.618
 3206POPC   C3A43397  18.366  24.642   6.977
 3206POPC   C4A43398  18.459  24.822   7.333
 3206POPC   C1B43399  17.960  24.287   6.169
 3206POPC   C2B43400  18.100  24.357   6.585
 3206POPC   C3B43401  18.084  24.231   6.987
 3206POPC   C4B43402  18.256  24.350   7.392
 3207POPC   NC343403  18.109   1.181   5.375
 3207POPC   PO443404  18.361   1.789   5.548
 3207POPC   GL143405  18.252   1.423   5.820
 3207POPC   GL243406  18.443   1.127   5.801
 3207POPC   C1A43407  18.219   1.273   6.272
 3207POPC   D2A43408  18.179   1.166   6.725
 3207POPC   C3A43409  18.205   1.482   7.054
 3207POPC   C4A43410  17.807   1.541   7.253
 3207POPC   C1B43411  18.620   0.964   6.180
 3207POPC   C2B43412  18.598   0.858   6.628
 3207POPC   C3B43413  18.537   1.012   7.054
 3207POPC   C4B43414  18.098   1.018   7.256
 3208POPC   NC343415  39.557  44.014   5.495
 3208POPC   PO443416  39.177  43.590   5.553
 3208POPC   GL143417  39.300  43.811   5.900
 3208POPC   GL243418  39.172  44.139   5.805
 3208POPC   C1A43419  39.101  43.943   6.268
 3208POPC   D2A43420  38.998  44.023   6.667
 3208POPC   C3A43421  39.155  43.859   7.052
 3208POPC   C4A43422  38.903  43.895   7.423
 3208POPC   C1B43423  39.449  44.312   6.122
 3208POPC   C2B43424  39.486  44.165   6.565
 3208POPC   C3B43425  39.294  44.337   6.966
 3208POPC   C4B43426  39.294  44.231   7.417
 3209POPC   NC343427  42.497   5.186   5.330
 3209POPC   PO443428  42.099   4.698   5.543
 3209POPC   GL143429  42.424   4.912   5.838
 3209POPC   GL243430  42.496   5.286   5.841
 3209POPC   C1A43431  42.349   5.032   6.289
 3209POPC   D2A43432  42.099   5.236   6.622
 3209POPC   C3A43433  42.127   5.041   7.042
 3209POPC   C4A43434  42.116   5.084   7.493
 3209POPC   C1B43435  42.612   5.471   6.254
 3209POPC   C2B43436  42.568   5.388   6.726
 3209POPC   C3B43437  42.470   5.413   7.163
 3209POPC   C4B43438  42.521   5.354   7.643
 3210POPC   NC343439   4.367  36.314   5.181
 3210POPC   PO443440   4.482  36.991   5.371
 3210POPC   GL143441   4.349  37.024   5.792
 3210POPC   GL243442   4.040  36.895   5.905
 3210POPC   C1A43443   4.444  36.756   6.183
 3210POPC   D2A43444   4.274  36.656   6.564
 3210POPC   C3A43445   4.434  36.728   6.938
 3210POPC   C4A43446   4.533  36.488   7.292
 3210POPC   C1B43447   3.940  37.145   6.233
 3210POPC   C2B43448   3.999  37.099   6.666
 3210POPC   C3B43449   3.950  36.976   7.070
 3210POPC   C4B43450   4.067  37.264   7.362
 3211POPC   NC343451  32.069  34.563   5.442
 3211POPC   PO443452  32.651  34.862   5.593
 3211POPC   GL143453  32.290  34.748   5.867
 3211POPC   GL243454  32.194  34.412   5.916
 3211POPC   C1A43455  32.134  34.752   6.305
 3211POPC   D2A43456  32.197  34.494   6.684
 3211POPC   C3A43457  32.082  34.723   7.058
 3211POPC   C4A43458  31.969  34.995   7.390
 3211POPC   C1B43459  32.533  34.346   6.251
 3211POPC   C2B43460  32.668  34.212   6.700
 3211POPC   C3B43461  32.574  34.516   7.052
 3211POPC   C4B43462  32.394  34.656   7.460
 3212POPC   NC343463  25.760  44.071   5.441
 3212POPC   PO443464  26.163  43.648   5.268
 3212POPC   GL143465  26.302  43.689   5.678
 3212POPC   GL243466  26.450  43.378   5.725
 3212POPC   C1A43467  26.093  43.767   6.084
 3212POPC   D2A43468  25.760  43.969   6.362
 3212POPC   C3A43469  25.840  43.967   6.812
 3212POPC   C4A43470  25.786  44.108   7.231
 3212POPC   C1B43471  26.361  43.290   6.137
 3212POPC   C2B43472  26.241  43.506   6.514
 3212POPC   C3B43473  26.406  43.608   6.914
 3212POPC   C4B43474  26.310  44.012   7.104
 3213POPC   NC343475  12.156   8.744   5.463
 3213POPC   PO443476  11.909   9.391   5.366
 3213POPC   GL143477  11.945   9.135   5.721
 3213POPC   GL243478  12.265   9.186   5.736
 3213POPC   C1A43479  11.966   8.928   6.117
 3213POPC   D2A43480  12.026   9.071   6.516
 3213POPC   C3A43481  12.139   8.829   6.856
 3213POPC   C4A43482  12.069   9.035   7.250
 3213POPC   C1B43483  12.356   9.295   6.111
 3213POPC   C2B43484  12.536   9.147   6.491
 3213POPC   C3B43485  12.404   9.261   6.908
 3213POPC   C4B43486  12.440   9.504   7.282
 3214POPC   NC343487  15.512  37.241   5.476
 3214POPC   PO443488  15.200  36.625   5.275
 3214POPC   GL143489  14.998  36.642   5.704
 3214POPC   GL243490  14.927  36.998   5.724
 3214POPC   C1A43491  15.179  36.574   6.141
 3214POPC   D2A43492  15.440  36.519   6.518
 3214POPC   C3A43493  15.231  36.435   6.910
 3214POPC   C4A43494  15.036  36.594   7.265
 3214POPC   C1B43495  15.170  37.088   6.098
 3214POPC   C2B43496  15.316  37.069   6.541
 3214POPC   C3B43497  15.356  37.216   6.926
 3214POPC   C4B43498  15.186  37.119   7.332
 3215POPC   NC343499  30.226  20.394   5.036
 3215POPC   PO443500  29.937  20.912   5.357
 3215POPC   GL143501  29.919  20.753   5.781
 3215POPC   GL243502  29.934  20.394   5.865
 3215POPC   C1A43503  29.767  20.747   6.220
 3215POPC   D2A43504  29.984  20.760   6.621
 3215POPC   C3A43505  29.825  20.809   7.046
 3215POPC   C4A43506  30.054  20.518   7.313
 3215POPC   C1B43507  29.657  20.216   6.162
 3215POPC   C2B43508  29.595  20.377   6.562
 3215POPC   C3B43509  29.815  20.295   6.918
 3215POPC   C4B43510  29.860  19.949   7.188
 3216POPC   NC343511   1.136   2.897   5.399
 3216POPC   PO443512   0.667   2.521   5.451
 3216POPC   GL143513   0.947   2.586   5.853
 3216POPC   GL243514   1.276   2.775   5.882
 3216POPC   C1A43515   0.946   2.534   6.345
 3216POPC   D2A43516   0.843   2.419   6.788
 3216POPC   C3A43517   0.879   2.748   7.088
 3216POPC   C4A43518   1.263   2.965   7.210
 3216POPC   C1B43519   1.398   2.770   6.332
 3216POPC   C2B43520   1.334   2.552   6.736
 3216POPC   C3B43521   1.290   2.438   7.166
 3216POPC   C4B43522   1.531   2.619   7.496
 3217POPC   NC343523  26.535  26.851   5.307
 3217POPC   PO443524  27.223  26.913   5.140
 3217POPC   GL143525  27.213  26.688   5.712
 3217POPC   GL243526  26.871  26.704   5.835
 3217POPC   C1A43527  27.296  26.842   6.136
 3217POPC   D2A43528  27.132  26.735   6.532
 3217POPC   C3A43529  26.968  26.985   6.874
 3217POPC   C4A43530  26.896  26.867   7.301
 3217POPC   C1B43531  26.715  26.558   6.249
 3217POPC   C2B43532  26.698  26.538   6.702
 3217POPC   C3B43533  26.500  26.769   7.009
 3217POPC   C4B43534  26.503  27.192   7.166
 3218POPC   NC343535  44.950  36.236   5.400
 3218POPC   PO443536  44.388  36.615   5.542
 3218POPC   GL143537  44.550  36.283   5.784
 3218POPC   GL243538  44.841  36.058   5.859
 3218POPC   C1A43539  44.721  36.401   6.197
 3218POPC   D2A43540  44.722  36.642   6.570
 3218POPC   C3A43541  44.712  36.365   6.911
 3218POPC   C4A43542  44.734  36.449   7.334
 3218POPC   C1B43543  44.505  35.937   6.167
 3218POPC   C2B43544  44.506  35.815   6.628
 3218POPC   C3B43545  44.630  35.858   7.069
 3218POPC   C4B43546   0.008  36.023   7.231
 3219POPC   NC343547  18.426  41.111   5.636
 3219POPC   PO443548  18.784  41.700   5.499
 3219POPC   GL143549  18.406  41.599   5.819
 3219POPC   GL243550  18.052  41.439   5.761
 3219POPC   C1A43551  18.406  41.814   6.216
 3219POPC   D2A43552  18.514  41.808   6.663
 3219POPC   C3A43553  18.329  41.498   6.952
 3219POPC   C4A43554  18.279  41.518   7.387
 3219POPC   C1B43555  18.019  41.490   6.226
 3219POPC   C2B43556  17.980  41.711   6.637
 3219POPC   C3B43557  17.699  41.603   6.996
 3219POPC   C4B43558  17.790  41.647   7.443
 3220POPC   NC343559  16.713  28.339   5.395
 3220POPC   PO443560  16.610  27.785   5.692
 3220POPC   GL143561  16.855  28.064   5.927
 3220POPC   GL243562  16.755  28.400   5.929
 3220POPC   C1A43563  16.814  28.035   6.337
 3220POPC   D2A43564  16.655  28.154   6.686
 3220POPC   C3A43565  16.875  28.132   7.053
 3220POPC   C4A43566  16.558  28.269   7.328
 3220POPC   C1B43567  16.912  28.537   6.334
 3220POPC   C2B43568  16.923  28.596   6.781
 3220POPC   C3B43569  16.996  28.616   7.224
 3220POPC   C4B43570  17.186  28.763   7.617
 3221POPC   NC343571  35.329  10.054   5.477
 3221POPC   PO443572  35.166  10.742   5.431
 3221POPC   GL143573  35.212  10.582   5.850
 3221POPC   GL243574  35.475  10.346   5.855
 3221POPC   C1A43575  35.320  10.503   6.302
 3221POPC   D2A43576  35.524  10.549   6.693
 3221POPC   C3A43577  35.324  10.536   7.107
 3221POPC   C4A43578  35.638  10.653   7.432
 3221POPC   C1B43579  35.654  10.123   6.206
 3221POPC   C2B43580  35.506  10.027   6.627
 3221POPC   C3B43581  35.661  10.161   7.043
 3221POPC   C4B43582  35.534  10.163   7.485
 3222POPC   NC343583   0.643  38.348   5.426
 3222POPC   PO443584   0.001  38.332   5.649
 3222POPC   GL143585   0.391  38.505   5.838
 3222POPC   GL243586   0.612  38.226   5.936
 3222POPC   C1A43587   0.628  38.634   6.211
 3222POPC   D2A43588   0.375  38.598   6.563
 3222POPC   C3A43589   0.582  38.594   6.923
 3222POPC   C4A43590   0.294  38.604   7.209
 3222POPC   C1B43591   0.515  38.144   6.368
 3222POPC   C2B43592   0.654  38.069   6.799
 3222POPC   C3B43593   0.616  38.177   7.228
 3222POPC   C4B43594   0.826  38.250   7.608
 3223POPC   NC343595  25.013  10.785   5.484
 3223POPC   PO443596  25.559  10.382   5.245
 3223POPC   GL143597  25.436  10.411   5.707
 3223POPC   GL243598  25.084  10.391   5.797
 3223POPC   C1A43599  25.457  10.637   6.135
 3223POPC   D2A43600  25.605  10.661   6.598
 3223POPC   C3A43601  25.336  10.851   6.943
 3223POPC   C4A43602  25.409  11.099   7.348
 3223POPC   C1B43603  24.919  10.522   6.164
 3223POPC   C2B43604  25.096  10.535   6.558
 3223POPC   C3B43605  24.991  10.436   6.958
 3223POPC   C4B43606  24.973  10.261   7.332
 3224POPC   NC343607  12.670  44.649   5.342
 3224POPC   PO443608  12.936   0.192   5.102
 3224POPC   GL143609  13.049  44.953   5.523
 3224POPC   GL243610  13.127  44.631   5.731
 3224POPC   C1A43611  12.825  44.966   5.953
 3224POPC   D2A43612  12.748  44.732   6.334
 3224POPC   C3A43613  12.857  44.868   6.756
 3224POPC   C4A43614  12.680  44.757   7.143
 3224POPC   C1B43615  13.235  44.352   6.096
 3224POPC   C2B43616  13.163  44.476   6.525
 3224POPC   C3B43617  12.985  44.390   6.919
 3224POPC   C4B43618  13.272  44.197   7.167
 3225POPC   NC343619  20.018   8.477   5.436
 3225POPC   PO443620  19.717   7.880   5.439
 3225POPC   GL143621  19.638   8.089   5.853
 3225POPC   GL243622  19.568   8.419   5.722
 3225POPC   C1A43623  19.909   8.219   6.243
 3225POPC   D2A43624  19.986   8.466   6.654
 3225POPC   C3A43625  20.041   8.261   7.085
 3225POPC   C4A43626  20.159   8.297   7.534
 3225POPC   C1B43627  19.522   8.539   6.142
 3225POPC   C2B43628  19.499   8.294   6.532
 3225POPC   C3B43629  19.580   8.437   6.973
 3225POPC   C4B43630  19.669   8.436   7.420
 3226POPC   NC343631  41.456  26.910   5.274
 3226POPC   PO443632  41.522  26.288   5.188
 3226POPC   GL143633  41.611  26.464   5.651
 3226POPC   GL243634  41.734  26.818   5.691
 3226POPC   C1A43635  41.479  26.650   6.110
 3226POPC   D2A43636  41.416  26.936   6.510
 3226POPC   C3A43637  41.359  26.890   6.989
 3226POPC   C4A43638  41.417  26.621   7.370
 3226POPC   C1B43639  41.924  26.897   6.101
 3226POPC   C2B43640  41.964  27.157   6.475
 3226POPC   C3B43641  42.017  27.179   6.934
 3226POPC   C4B43642  41.795  26.991   7.278
 3227POPC   NC343643  29.653  16.136   5.366
 3227POPC   PO443644  30.224  16.007   5.575
 3227POPC   GL143645  29.853  16.107   5.836
 3227POPC   GL243646  29.632  15.848   5.851
 3227POPC   C1A43647  29.582  16.236   6.209
 3227POPC   D2A43648  29.755  16.257   6.646
 3227POPC   C3A43649  29.684  16.034   7.064
 3227POPC   C4A43650  29.951  16.037   7.455
 3227POPC   C1B43651  29.849  15.811   6.275
 3227POPC   C2B43652  29.921  15.734   6.728
 3227POPC   C3B43653  29.975  15.605   7.187
 3227POPC   C4B43654  30.186  15.584   7.614
 3228POPC   NC343655  23.720  18.439   5.405
 3228POPC   PO443656  24.404  18.497   5.454
 3228POPC   GL143657  24.036  18.463   5.792
 3228POPC   GL243658  23.754  18.195   5.859
 3228POPC   C1A43659  23.756  18.618   6.164
 3228POPC   D2A43660  23.561  18.607   6.617
 3228POPC   C3A43661  23.754  18.575   7.038
 3228POPC   C4A43662  23.933  18.519   7.502
 3228POPC   C1B43663  23.529  18.164   6.287
 3228POPC   C2B43664  23.685  18.109   6.719
 3228POPC   C3B43665  23.597  18.109   7.176
 3228POPC   C4B43666  23.548  18.048   7.624
 3229POPC   NC343667  31.390  17.637   5.331
 3229POPC   PO443668  31.414  16.991   5.448
 3229POPC   GL143669  31.503  17.388   5.752
 3229POPC   GL243670  31.188  17.621   5.785
 3229POPC   C1A43671  31.792  17.579   6.089
 3229POPC   D2A43672  31.939  17.569   6.508
 3229POPC   C3A43673  31.712  17.401   6.881
 3229POPC   C4A43674  31.754  17.271   7.323
 3229POPC   C1B43675  31.300  17.598   6.200
 3229POPC   C2B43676  31.522  17.868   6.498
 3229POPC   C3B43677  31.539  17.860   6.963
 3229POPC   C4B43678  31.239  17.583   7.178
 3230POPC   NC343679  40.813  44.957   5.420
 3230POPC   PO443680  41.237  44.430   5.390
 3230POPC   GL143681  40.957  44.499   5.721
 3230POPC   GL243682  40.685  44.301   5.864
 3230POPC   C1A43683  41.000  44.596   6.151
 3230POPC   D2A43684  40.769  44.733   6.493
 3230POPC   C3A43685  40.914  44.676   6.910
 3230POPC   C4A43686  40.706  44.965   7.208
 3230POPC   C1B43687  40.558  44.195   6.280
 3230POPC   C2B43688  40.515  44.341   6.712
 3230POPC   C3B43689  40.565  44.335   7.149
 3230POPC   C4B43690  40.491  44.211   7.621
 3231POPC   NC343691  28.082  36.787   5.262
 3231POPC   PO443692  28.771  37.077   5.474
 3231POPC   GL143693  28.506  36.865   5.797
 3231POPC   GL243694  28.528  37.192   5.973
 3231POPC   C1A43695  28.273  36.842   6.199
 3231POPC   D2A43696  28.388  37.123   6.504
 3231POPC   C3A43697  28.170  37.018   6.855
 3231POPC   C4A43698  28.310  36.719   7.109
 3231POPC   C1B43699  28.864  37.327   6.197
 3231POPC   C2B43700  28.996  37.194   6.598
 3231POPC   C3B43701  28.732  37.160   6.970
 3231POPC   C4B43702  28.388  37.273   7.243
 3232POPC   NC343703  18.542  43.730   5.335
 3232POPC   PO443704  19.188  44.105   5.256
 3232POPC   GL143705  19.068  44.153   5.677
 3232POPC   GL243706  19.360  44.330   5.736
 3232POPC   C1A43707  18.908  44.211   6.116
 3232POPC   D2A43708  18.685  44.084   6.508
 3232POPC   C3A43709  18.980  44.053   6.862
 3232POPC   C4A43710  19.070  43.718   7.150
 3232POPC   C1B43711  19.455  44.116   6.100
 3232POPC   C2B43712  19.354  44.198   6.526
 3232POPC   C3B43713  19.487  44.157   6.954
 3232POPC   C4B43714  19.418  44.035   7.366
 3233POPC   NC343715  39.385  38.182   5.498
 3233POPC   PO443716  38.975  38.689   5.304
 3233POPC   GL143717  39.001  38.434   5.753
 3233POPC   GL243718  39.298  38.324   5.995
 3233POPC   C1A43719  38.858  38.415   6.203
 3233POPC   D2A43720  38.859  38.499   6.649
 3233POPC   C3A43721  39.215  38.470   6.935
 3233POPC   C4A43722  39.231  38.405   7.378
 3233POPC   C1B43723  39.541  37.968   6.180
 3233POPC   C2B43724  39.662  37.924   6.635
 3233POPC   C3B43725  39.721  38.209   7.019
 3233POPC   C4B43726  39.723  38.330   7.486
 3234POPC   NC343727  10.376  21.059   5.329
 3234POPC   PO443728  10.064  20.507   5.377
 3234POPC   GL143729  10.337  20.652   5.727
 3234POPC   GL243730  10.633  20.870   5.727
 3234POPC   C1A43731  10.579  20.468   6.091
 3234POPC   D2A43732  10.641  20.583   6.529
 3234POPC   C3A43733  10.410  20.409   6.882
 3234POPC   C4A43734  10.508  20.472   7.324
 3234POPC   C1B43735  10.555  20.981   6.154
 3234POPC   C2B43736  10.369  21.032   6.566
 3234POPC   C3B43737  10.554  20.890   6.946
 3234POPC   C4B43738  10.750  20.998   7.314
 3235POPC   NC343739   3.099  15.954   5.645
 3235POPC   PO443740   2.647  15.542   5.357
 3235POPC   GL143741   2.607  15.833   5.759
 3235POPC   GL243742   2.501  16.205   5.739
 3235POPC   C1A43743   2.590  15.988   6.198
 3235POPC   D2A43744   2.326  15.999   6.552
 3235POPC   C3A43745   2.571  16.074   6.845
 3235POPC   C4A43746   2.455  16.014   7.187
 3235POPC   C1B43747   2.779  16.466   6.049
 3235POPC   C2B43748   3.056  16.586   6.426
 3235POPC   C3B43749   2.947  16.419   6.863
 3235POPC   C4B43750   2.963  16.111   7.213
 3236POPC   NC343751   5.864  28.625   5.481
 3236POPC   PO443752   6.262  28.073   5.502
 3236POPC   GL143753   5.995  28.263   5.795
 3236POPC   GL243754   5.687  28.142   5.644
 3236POPC   C1A43755   5.861  28.532   6.148
 3236POPC   D2A43756   6.062  28.637   6.525
 3236POPC   C3A43757   5.933  28.512   6.928
 3236POPC   C4A43758   6.089  28.649   7.334
 3236POPC   C1B43759   5.602  28.094   6.106
 3236POPC   C2B43760   5.629  28.275   6.527
 3236POPC   C3B43761   5.557  28.178   6.974
 3236POPC   C4B43762   5.885  28.096   7.277
 3237POPC   NC343763  16.543   1.629   5.420
 3237POPC   PO443764  16.707   0.926   5.375
 3237POPC   GL143765  16.734   1.229   5.706
 3237POPC   GL243766  16.464   1.114   5.886
 3237POPC   C1A43767  16.961   1.233   6.086
 3237POPC   D2A43768  16.858   0.977   6.439
 3237POPC   C3A43769  16.912   1.235   6.819
 3237POPC   C4A43770  16.797   1.317   7.229
 3237POPC   C1B43771  16.517   1.459   6.184
 3237POPC   C2B43772  16.432   1.312   6.619
 3237POPC   C3B43773  16.388   1.563   6.978
 3237POPC   C4B43774  16.539   1.741   7.331
 3238POPC   NC343775  13.046  26.208   5.438
 3238POPC   PO443776  12.446  26.081   5.351
 3238POPC   GL143777  12.657  26.063   5.760
 3238POPC   GL243778  12.951  25.812   5.788
 3238POPC   C1A43779  12.725  26.031   6.206
 3238POPC   D2A43780  12.504  26.157   6.563
 3238POPC   C3A43781  12.766  26.377   6.837
 3238POPC   C4A43782  12.733  26.212   7.241
 3238POPC   C1B43783  13.219  25.868   6.178
 3238POPC   C2B43784  13.217  26.065   6.580
 3238POPC   C3B43785  12.991  25.933   6.911
 3238POPC   C4B43786  13.088  25.862   7.337
 3239POPC   NC343787   8.373  27.758   5.485
 3239POPC   PO443788   7.789  27.423   5.490
 3239POPC   GL143789   8.009  27.689   5.829
 3239POPC   GL243790   8.337  27.499   5.912
 3239POPC   C1A43791   8.201  27.811   6.266
 3239POPC   D2A43792   8.355  27.524   6.600
 3239POPC   C3A43793   8.095  27.561   6.951
 3239POPC   C4A43794   8.041  27.894   7.223
 3239POPC   C1B43795   8.637  27.319   6.223
 3239POPC   C2B43796   8.666  27.138   6.674
 3239POPC   C3B43797   8.454  27.209   7.067
 3239POPC   C4B43798   8.410  27.558   7.352
 3240POPC   NC343799  32.714  35.350   5.584
 3240POPC   PO443800  32.136  35.037   5.310
 3240POPC   GL143801  32.182  35.363   5.683
 3240POPC   GL243802  32.396  35.232   5.940
 3240POPC   C1A43803  32.049  35.518   6.139
 3240POPC   D2A43804  31.954  35.234   6.517
 3240POPC   C3A43805  32.087  35.287   6.967
 3240POPC   C4A43806  32.252  35.392   7.393
 3240POPC   C1B43807  32.566  35.041   6.291
 3240POPC   C2B43808  32.411  34.976   6.718
 3240POPC   C3B43809  32.536  35.041   7.137
 3240POPC   C4B43810  32.631  35.101   7.568
 3241POPC   NC343811  21.583  21.611   5.451
 3241POPC   PO443812  21.109  21.204   5.374
 3241POPC   GL143813  21.313  21.307   5.767
 3241POPC   GL243814  21.650  21.182   5.717
 3241POPC   C1A43815  21.444  21.614   6.108
 3241POPC   D2A43816  21.719  21.677   6.482
 3241POPC   C3A43817  21.510  21.580   6.893
 3241POPC   C4A43818  21.185  21.606   7.183
 3241POPC   C1B43819  21.632  21.127   6.141
 3241POPC   C2B43820  21.425  21.243   6.494
 3241POPC   C3B43821  21.449  21.056   6.881
 3241POPC   C4B43822  21.358  21.119   7.285
 3242POPC   NC343823  42.427  32.138   5.102
 3242POPC   PO443824  41.868  32.268   5.371
 3242POPC   GL143825  42.263  32.205   5.680
 3242POPC   GL243826  42.614  32.022   5.676
 3242POPC   C1A43827  42.275  32.118   6.152
 3242POPC   D2A43828  42.177  31.953   6.608
 3242POPC   C3A43829  42.036  32.225   6.948
 3242POPC   C4A43830  42.241  32.404   7.323
 3242POPC   C1B43831  42.677  31.822   6.117
 3242POPC   C2B43832  42.663  32.040   6.540
 3242POPC   C3B43833  42.541  32.126   6.962
 3242POPC   C4B43834  42.718  31.936   7.307
 3243POPC   NC343835  12.565  38.513   5.428
 3243POPC   PO443836  13.117  38.262   5.564
 3243POPC   GL143837  12.968  38.532   5.945
 3243POPC   GL243838  12.648  38.682   5.896
 3243POPC   C1A43839  12.753  38.565   6.383
 3243POPC   D2A43840  12.689  38.742   6.804
 3243POPC   C3A43841  13.026  38.545   7.072
 3243POPC   C4A43842  13.052  38.597   7.535
 3243POPC   C1B43843  12.519  38.227   6.052
 3243POPC   C2B43844  12.382  38.134   6.497
 3243POPC   C3B43845  12.425  38.299   6.935
 3243POPC   C4B43846  12.639  38.364   7.352
 3244POPC   NC343847  14.665  40.529   5.530
 3244POPC   PO443848  14.287  41.147   5.434
 3244POPC   GL143849  14.349  40.856   5.775
 3244POPC   GL243850  14.702  40.889   5.921
 3244POPC   C1A43851  14.310  40.692   6.194
 3244POPC   D2A43852  14.515  40.724   6.582
 3244POPC   C3A43853  14.331  40.839   6.963
 3244POPC   C4A43854  14.473  41.143   7.201
 3244POPC   C1B43855  14.818  40.504   6.181
 3244POPC   C2B43856  14.886  40.335   6.593
 3244POPC   C3B43857  14.725  40.464   6.993
 3244POPC   C4B43858  14.732  40.730   7.359
 3245POPC   NC343859  26.554   0.711   5.271
 3245POPC   PO443860  27.123   0.542   5.606
 3245POPC   GL143861  26.795   0.563   5.887
 3245POPC   GL243862  26.514   0.756   5.800
 3245POPC   C1A43863  26.864   0.472   6.304
 3245POPC   D2A43864  26.931   0.343   6.705
 3245POPC   C3A43865  27.144   0.534   6.995
 3245POPC   C4A43866  27.055   0.223   7.263
 3245POPC   C1B43867  26.439   0.776   6.230
 3245POPC   C2B43868  26.341   0.931   6.616
 3245POPC   C3B43869  26.533   0.819   7.012
 3245POPC   C4B43870  26.806   0.679   7.345
 3246POPC   NC343871  24.589  12.501   5.482
 3246POPC   PO443872  24.829  11.857   5.400
 3246POPC   GL143873  24.690  11.984   5.841
 3246POPC   GL243874  24.480  12.278   5.921
 3246POPC   C1A43875  24.517  11.911   6.263
 3246POPC   D2A43876  24.568  11.936   6.705
 3246POPC   C3A43877  24.294  11.850   7.065
 3246POPC   C4A43878  24.278  11.907   7.550
 3246POPC   C1B43879  24.370  12.464   6.327
 3246POPC   C2B43880  24.290  12.346   6.776
 3246POPC   C3B43881  24.551  12.274   7.144
 3246POPC   C4B43882  24.739  12.175   7.545
 3247POPC   NC343883  40.512  30.987   5.030
 3247POPC   PO443884  40.957  31.438   5.362
 3247POPC   GL143885  40.885  31.537   5.808
 3247POPC   GL243886  41.019  31.214   5.827
 3247POPC   C1A43887  41.029  31.654   6.259
 3247POPC   D2A43888  41.204  31.714   6.697
 3247POPC   C3A43889  40.951  31.552   7.050
 3247POPC   C4A43890  40.555  31.707   7.179
 3247POPC   C1B43891  41.118  31.151   6.229
 3247POPC   C2B43892  40.975  31.249   6.618
 3247POPC   C3B43893  41.157  31.087   6.957
 3247POPC   C4B43894  41.001  31.069   7.364
 3248POPC   NC343895  12.784   8.578   5.288
 3248POPC   PO443896  13.225   8.125   5.161
 3248POPC   GL143897  12.962   8.205   5.611
 3248POPC   GL243898  12.645   7.963   5.698
 3248POPC   C1A43899  12.767   8.326   6.069
 3248POPC   D2A43900  12.774   8.152   6.552
 3248POPC   C3A43901  12.962   8.182   7.023
 3248POPC   C4A43902  13.110   7.918   7.403
 3248POPC   C1B43903  12.348   7.988   6.081
 3248POPC   C2B43904  12.271   8.188   6.501
 3248POPC   C3B43905  12.317   8.089   6.945
 3248POPC   C4B43906  12.520   8.226   7.281
 3249POPC   NC343907  38.123  42.610   5.563
 3249POPC   PO443908  38.597  42.150   5.465
 3249POPC   GL143909  38.600  42.335   5.875
 3249POPC   GL243910  38.375  42.565   6.000
 3249POPC   C1A43911  38.566  42.218   6.307
 3249POPC   D2A43912  38.467  42.009   6.645
 3249POPC   C3A43913  38.518  42.190   7.053
 3249POPC   C4A43914  38.637  42.060   7.455
 3249POPC   C1B43915  38.152  42.582   6.374
 3249POPC   C2B43916  38.132  42.421   6.761
 3249POPC   C3B43917  38.320  42.643   7.077
 3249POPC   C4B43918  38.390  42.537   7.518
 3250POPC   NC343919   7.679  32.802   5.264
 3250POPC   PO443920   7.246  33.262   5.504
 3250POPC   GL143921   7.408  33.099   5.907
 3250POPC   GL243922   7.674  32.886   5.826
 3250POPC   C1A43923   7.636  33.076   6.328
 3250POPC   D2A43924   7.898  33.234   6.699
 3250POPC   C3A43925   7.649  33.483   7.031
 3250POPC   C4A43926   7.315  33.172   7.170
 3250POPC   C1B43927   7.627  32.586   6.169
 3250POPC   C2B43928   7.751  32.618   6.619
 3250POPC   C3B43929   7.777  32.601   7.101
 3250POPC   C4B43930   7.483  32.768   7.451
 3251POPC   NC343931   0.980  17.711   5.504
 3251POPC   PO443932   1.416  17.123   5.417
 3251POPC   GL143933   1.308  17.405   5.758
 3251POPC   GL243934   1.626  17.549   5.825
 3251POPC   C1A43935   1.115  17.549   6.166
 3251POPC   D2A43936   0.931  17.516   6.575
 3251POPC   C3A43937   1.179  17.548   6.961
 3251POPC   C4A43938   1.130  17.667   7.408
 3251POPC   C1B43939   1.606  17.315   6.179
 3251POPC   C2B43940   1.601  17.488   6.562
 3251POPC   C3B43941   1.624  17.292   6.963
 3251POPC   C4B43942   1.617  17.586   7.302
 3252POPC   NC343943  11.024  21.665   5.288
 3252POPC   PO443944  11.517  22.267   5.329
 3252POPC   GL143945  11.425  22.077   5.713
 3252POPC   GL243946  11.043  21.987   5.719
 3252POPC   C1A43947  11.682  22.109   6.101
 3252POPC   D2A43948  11.667  21.982   6.537
 3252POPC   C3A43949  11.527  22.236   6.855
 3252POPC   C4A43950  11.316  22.268   7.228
 3252POPC   C1B43951  11.207  21.954   6.154
 3252POPC   C2B43952  11.137  22.085   6.564
 3252POPC   C3B43953  11.135  21.863   6.950
 3252POPC   C4B43954  11.370  21.691   7.283
 3253POPC   NC343955  23.668   2.045   5.513
 3253POPC   PO443956  23.388   1.396   5.263
 3253POPC   GL143957  23.600   1.525   5.765
 3253POPC   GL243958  23.861   1.786   5.894
 3253POPC   C1A43959  23.441   1.727   6.223
 3253POPC   D2A43960  23.664   1.839   6.601
 3253POPC   C3A43961  23.579   1.739   7.041
 3253POPC   C4A43962  23.982   1.625   7.192
 3253POPC   C1B43963  23.748   2.143   6.179
 3253POPC   C2B43964  23.796   2.337   6.580
 3253POPC   C3B43965  23.813   2.198   6.965
 3253POPC   C4B43966  23.543   2.231   7.265
 3254POPC   NC343967  12.291  40.640   5.218
 3254POPC   PO443968  11.788  41.039   5.405
 3254POPC   GL143969  11.968  40.942   5.808
 3254POPC   GL243970  12.295  40.764   5.776
 3254POPC   C1A43971  11.921  40.813   6.266
 3254POPC   D2A43972  11.865  40.961   6.708
 3254POPC   C3A43973  11.930  40.662   7.076
 3254POPC   C4A43974  11.906  40.851   7.482
 3254POPC   C1B43975  12.333  41.072   6.138
 3254POPC   C2B43976  12.354  40.913   6.567
 3254POPC   C3B43977  12.394  40.866   7.033
 3254POPC   C4B43978  12.366  41.097   7.419
 3255POPC   NC343979  34.015  20.283   5.379
 3255POPC   PO443980  33.802  19.657   5.084
 3255POPC   GL143981  33.740  19.892   5.514
 3255POPC   GL243982  34.057  19.858   5.733
 3255POPC   C1A43983  33.583  19.990   5.956
 3255POPC   D2A43984  33.723  19.822   6.365
 3255POPC   C3A43985  33.682  19.850   6.818
 3255POPC   C4A43986  33.581  20.142   7.135
 3255POPC   C1B43987  34.167  19.945   6.185
 3255POPC   C2B43988  34.176  19.783   6.644
 3255POPC   C3B43989  34.123  19.837   7.119
 3255POPC   C4B43990  34.256  20.172   7.431
 3256POPC   NC343991   9.469  15.317   5.654
 3256POPC   PO443992   8.890  15.347   5.353
 3256POPC   GL143993   8.847  15.275   5.795
 3256POPC   GL243994   8.944  15.584   5.862
 3256POPC   C1A43995   8.678  15.335   6.243
 3256POPC   D2A43996   8.622  15.120   6.643
 3256POPC   C3A43997   8.529  15.317   7.027
 3256POPC   C4A43998   8.586  15.034   7.346
 3256POPC   C1B43999   9.177  15.423   6.228
 3256POPC   C2B44000   9.127  15.301   6.653
 3256POPC   C3B44001   9.047  15.306   7.090
 3256POPC   C4B44002   9.294  15.449   7.460
 3257POPC   NC344003  18.811  19.443   5.462
 3257POPC   PO444004  19.223  19.660   4.930
 3257POPC   GL144005  19.057  19.883   5.421
 3257POPC   GL244006  18.773  19.931   5.663
 3257POPC   C1A44007  19.226  19.905   5.914
 3257POPC   D2A44008  19.161  19.676   6.355
 3257POPC   C3A44009  19.246  19.722   6.837
 3257POPC   C4A44010  19.197  19.883   7.265
 3257POPC   C1B44011  18.688  19.748   6.110
 3257POPC   C2B44012  18.543  19.753   6.593
 3257POPC   C3B44013  18.717  19.709   7.055
 3257POPC   C4B44014  18.802  19.666   7.519
 3258POPC   NC344015  19.695   7.421   5.323
 3258POPC   PO444016  20.064   6.943   5.390
 3258POPC   GL144017  19.887   7.243   5.784
 3258POPC   GL244018  19.629   7.536   5.838
 3258POPC   C1A44019  19.732   7.257   6.248
 3258POPC   D2A44020  19.862   7.450   6.644
 3258POPC   C3A44021  19.627   7.423   7.025
 3258POPC   C4A44022  19.648   7.046   7.306
 3258POPC   C1B44023  19.644   7.781   6.283
 3258POPC   C2B44024  19.748   7.925   6.756
 3258POPC   C3B44025  20.013   7.736   7.101
 3258POPC   C4B44026  20.111   7.301   7.261
 3259POPC   NC344027  44.037  44.253   5.397
 3259POPC   PO444028  44.449  44.756   5.342
 3259POPC   GL144029  44.123  44.678   5.695
 3259POPC   GL244030  43.745  44.542   5.689
 3259POPC   C1A44031  43.945  44.752   6.112
 3259POPC   D2A44032  43.877  44.520   6.468
 3259POPC   C3A44033  43.922  44.672   6.851
 3259POPC   C4A44034  43.994  44.484   7.237
 3259POPC   C1B44035  43.593  44.354   6.071
 3259POPC   C2B44036  43.392  44.311   6.465
 3259POPC   C3B44037  43.549  44.297   6.868
 3259POPC   C4B44038  43.503  44.447   7.274
 3260POPC   NC344039  12.312  41.167   5.448
 3260POPC   PO444040  12.150  41.835   5.290
 3260POPC   GL144041  12.148  41.622   5.702
 3260POPC   GL244042  12.461  41.782   5.798
 3260POPC   C1A44043  11.943  41.491   6.120
 3260POPC   D2A44044  11.853  41.747   6.510
 3260POPC   C3A44045  11.907  41.508   6.913
 3260POPC   C4A44046  11.905  41.769   7.281
 3260POPC   C1B44047  12.448  41.584   6.175
 3260POPC   C2B44048  12.286  41.423   6.567
 3260POPC   C3B44049  12.465  41.405   6.988
 3260POPC   C4B44050  12.385  41.609   7.364
 3261POPC   NC344051  22.655  11.028   5.367
 3261POPC   PO444052  23.201  11.531   5.464
 3261POPC   GL144053  23.136  11.417   5.856
 3261POPC   GL244054  23.018  11.108   5.797
 3261POPC   C1A44055  23.175  11.269   6.282
 3261POPC   D2A44056  23.010  11.107   6.669
 3261POPC   C3A44057  23.051  11.302   7.082
 3261POPC   C4A44058  23.265  11.064   7.402
 3261POPC   C1B44059  22.747  11.008   6.162
 3261POPC   C2B44060  22.531  10.917   6.572
 3261POPC   C3B44061  22.583  11.091   6.991
 3261POPC   C4B44062  22.755  10.974   7.433
 3262POPC   NC344063  17.737  40.645   5.278
 3262POPC   PO444064  17.172  41.021   5.460
 3262POPC   GL144065  17.486  40.882   5.751
 3262POPC   GL244066  17.582  40.533   5.759
 3262POPC   C1A44067  17.432  40.788   6.200
 3262POPC   D2A44068  17.391  40.585   6.623
 3262POPC   C3A44069  17.508  40.940   6.904
 3262POPC   C4A44070  17.431  41.001   7.340
 3262POPC   C1B44071  17.841  40.491   6.145
 3262POPC   C2B44072  17.874  40.705   6.559
 3262POPC   C3B44073  17.843  40.601   7.016
 3262POPC   C4B44074  17.832  40.717   7.471
 3263POPC   NC344075  16.175   5.097   5.166
 3263POPC   PO444076  15.556   4.888   5.227
 3263POPC   GL144077  15.989   5.079   5.632
 3263POPC   GL244078  15.855   5.147   6.041
 3263POPC   C1A44079  16.283   5.366   5.934
 3263POPC   D2A44080  16.255   5.412   6.428
 3263POPC   C3A44081  16.002   5.122   6.745
 3263POPC   C4A44082  16.006   5.069   7.230
 3263POPC   C1B44083  15.477   5.051   6.347
 3263POPC   C2B44084  15.378   5.110   6.781
 3263POPC   C3B44085  15.485   5.047   7.203
 3263POPC   C4B44086  15.643   4.911   7.590
 3264POPC   NC344087  13.450  43.339   5.247
 3264POPC   PO444088  13.690  43.944   5.196
 3264POPC   GL144089  13.641  43.972   5.663
 3264POPC   GL244090  13.706  43.631   5.745
 3264POPC   C1A44091  13.707  44.082   6.112
 3264POPC   D2A44092  13.806  43.921   6.550
 3264POPC   C3A44093  13.731  44.099   6.941
 3264POPC   C4A44094  13.688  43.961   7.385
 3264POPC   C1B44095  13.792  43.576   6.178
 3264POPC   C2B44096  13.969  43.451   6.625
 3264POPC   C3B44097  13.784  43.575   7.008
 3264POPC   C4B44098  13.506  43.494   7.353
 3265POPC   NC344099  32.023  36.225   5.661
 3265POPC   PO444100  32.519  35.785   5.502
 3265POPC   GL144101  32.392  35.922   5.881
 3265POPC   GL244102  32.459  36.295   5.897
 3265POPC   C1A44103  32.274  35.968   6.286
 3265POPC   D2A44104  32.421  35.990   6.675
 3265POPC   C3A44105  32.114  35.806   6.893
 3265POPC   C4A44106  32.212  35.881   7.302
 3265POPC   C1B44107  32.146  36.472   6.244
 3265POPC   C2B44108  32.004  36.296   6.639
 3265POPC   C3B44109  32.166  36.339   7.050
 3265POPC   C4B44110  31.981  36.329   7.437
 3266POPC   NC344111  35.941  42.872   5.363
 3266POPC   PO444112  36.396  43.324   5.349
 3266POPC   GL144113  36.275  43.048   5.697
 3266POPC   GL244114  36.350  43.237   5.915
 3266POPC   C1A44115  35.902  43.044   6.024
 3266POPC   D2A44116  36.052  43.335   6.348
 3266POPC   C3A44117  36.037  43.293   6.821
 3266POPC   C4A44118  35.824  43.338   7.228
 3266POPC   C1B44119  36.345  42.903   6.253
 3266POPC   C2B44120  36.338  42.841   6.704
 3266POPC   C3B44121  36.409  43.046   7.101
 3266POPC   C4B44122  36.650  43.000   7.498
 3267POPC   NC344123  41.797  31.812   5.427
 3267POPC   PO444124  41.882  31.084   5.358
 3267POPC   GL144125  41.684  31.371   5.704
 3267POPC   GL244126  41.937  31.591   5.852
 3267POPC   C1A44127  41.494  31.490   6.125
 3267POPC   D2A44128  41.508  31.278   6.544
 3267POPC   C3A44129  41.547  31.403   6.968
 3267POPC   C4A44130  41.413  31.718   7.238
 3267POPC   C1B44131  41.881  31.787   6.233
 3267POPC   C2B44132  41.698  31.790   6.632
 3267POPC   C3B44133  41.905  31.748   7.051
 3267POPC   C4B44134  42.215  31.910   7.337
 3268POPC   NC344135  28.354  16.285   5.144
 3268POPC   PO444136  28.307  15.792   5.582
 3268POPC   GL144137  28.468  16.081   5.753
 3268POPC   GL244138  28.174  16.236   5.907
 3268POPC   C1A44139  28.563  16.058   6.194
 3268POPC   D2A44140  28.243  16.208   6.491
 3268POPC   C3A44141  28.263  16.230   6.939
 3268POPC   C4A44142  28.500  15.937   7.175
 3268POPC   C1B44143  28.091  15.841   6.174
 3268POPC   C2B44144  27.878  15.829   6.563
 3268POPC   C3B44145  27.997  15.791   6.996
 3268POPC   C4B44146  28.002  16.014   7.370
 3269POPC   NC344147   7.156   2.214   5.361
 3269POPC   PO444148   7.821   2.306   5.411
 3269POPC   GL144149   7.576   2.115   5.725
 3269POPC   GL244150   7.650   1.785   5.747
 3269POPC   C1A44151   7.691   2.084   6.180
 3269POPC   D2A44152   7.757   2.231   6.585
 3269POPC   C3A44153   7.517   2.258   6.947
 3269POPC   C4A44154   7.566   2.080   7.349
 3269POPC   C1B44155   7.384   1.696   6.138
 3269POPC   C2B44156   7.386   1.854   6.572
 3269POPC   C3B44157   7.421   1.737   7.001
 3269POPC   C4B44158   7.353   1.569   7.410
 3270POPC   NC344159  27.836  35.650   5.424
 3270POPC   PO444160  27.383  35.135   5.423
 3270POPC   GL144161  27.585  35.351   5.777
 3270POPC   GL244162  27.444  35.686   5.767
 3270POPC   C1A44163  27.841  35.368   6.174
 3270POPC   D2A44164  27.899  35.173   6.586
 3270POPC   C3A44165  27.571  35.199   6.898
 3270POPC   C4A44166  27.632  35.399   7.266
 3270POPC   C1B44167  27.350  35.649   6.193
 3270POPC   C2B44168  27.584  35.643   6.576
 3270POPC   C3B44169  27.383  35.700   6.949
 3270POPC   C4B44170  27.367  35.820   7.384
 3271POPC   NC344171  27.455  27.293   5.289
 3271POPC   PO444172  27.146  27.910   5.131
 3271POPC   GL144173  27.341  27.993   5.617
 3271POPC   GL244174  27.590  27.726   5.692
 3271POPC   C1A44175  27.380  28.081   6.083
 3271POPC   D2A44176  27.546  27.945   6.500
 3271POPC   C3A44177  27.322  27.701   6.820
 3271POPC   C4A44178  27.564  27.601   7.243
 3271POPC   C1B44179  27.454  27.582   6.111
 3271POPC   C2B44180  27.350  27.290   6.445
 3271POPC   C3B44181  27.455  27.223   6.877
 3271POPC   C4B44182  27.241  27.219   7.256
 3272POPC   NC344183  33.846  37.870   5.417
 3272POPC   PO444184  33.676  37.267   5.571
 3272POPC   GL144185  33.906  37.474   5.844
 3272POPC   GL244186  34.001  37.207   6.044
 3272POPC   C1A44187  33.986  37.863   6.050
 3272POPC   D2A44188  33.820  38.117   6.380
 3272POPC   C3A44189  33.843  37.858   6.760
 3272POPC   C4A44190  33.915  37.944   7.190
 3272POPC   C1B44191  34.254  37.386   6.323
 3272POPC   C2B44192  34.282  37.458   6.750
 3272POPC   C3B44193  33.981  37.445   7.064
 3272POPC   C4B44194  33.821  37.501   7.466
 3273POPC   NC344195  19.610  34.799   5.394
 3273POPC   PO444196  20.164  34.494   5.591
 3273POPC   GL144197  19.837  34.583   5.805
 3273POPC   GL244198  19.665  34.336   5.696
 3273POPC   C1A44199  19.879  34.672   6.200
 3273POPC   D2A44200  20.098  34.486   6.518
 3273POPC   C3A44201  19.943  34.694   6.854
 3273POPC   C4A44202  20.187  34.777   7.188
 3273POPC   C1B44203  19.545  34.287   6.150
 3273POPC   C2B44204  19.436  34.458   6.570
 3273POPC   C3B44205  19.513  34.430   7.032
 3273POPC   C4B44206  19.696  34.749   7.305
 3274POPC   NC344207  26.249  37.868   5.404
 3274POPC   PO444208  25.604  37.574   5.456
 3274POPC   GL144209  25.897  37.627   5.753
 3274POPC   GL244210  25.964  37.952   5.844
 3274POPC   C1A44211  25.893  37.535   6.182
 3274POPC   D2A44212  25.687  37.456   6.564
 3274POPC   C3A44213  26.008  37.454   6.892
 3274POPC   C4A44214  26.351  37.711   7.113
 3274POPC   C1B44215  25.719  38.011   6.260
 3274POPC   C2B44216  25.773  37.953   6.736
 3274POPC   C3B44217  25.831  37.844   7.178
 3274POPC   C4B44218  25.835  38.025   7.621
 3275POPC   NC344219  25.160   0.479   5.380
 3275POPC   PO444220  25.714   0.143   5.607
 3275POPC   GL144221  25.512   0.464   5.771
 3275POPC   GL244222  25.236   0.287   5.863
 3275POPC   C1A44223  25.545   0.680   6.149
 3275POPC   D2A44224  25.391   0.515   6.512
 3275POPC   C3A44225  25.549   0.584   6.922
 3275POPC   C4A44226  25.613   0.227   7.224
 3275POPC   C1B44227  25.034   0.646   6.062
 3275POPC   C2B44228  24.903   0.708   6.470
 3275POPC   C3B44229  25.029   0.553   6.866
 3275POPC   C4B44230  25.167   0.509   7.268
 3276POPC   NC344231  23.092   9.856   5.240
 3276POPC   PO444232  22.559   9.910   5.524
 3276POPC   GL144233  22.944   9.921   5.779
 3276POPC   GL244234  23.162  10.173   5.669
 3276POPC   C1A44235  23.126   9.743   6.200
 3276POPC   D2A44236  23.365   9.641   6.614
 3276POPC   C3A44237  23.130   9.676   7.004
 3276POPC   C4A44238  22.685   9.584   7.142
 3276POPC   C1B44239  23.068  10.241   6.163
 3276POPC   C2B44240  23.087  10.073   6.621
 3276POPC   C3B44241  23.011  10.162   7.086
 3276POPC   C4B44242  22.742   9.989   7.439
 3277POPC   NC344243  14.194  17.769   5.562
 3277POPC   PO444244  14.366  17.140   5.480
 3277POPC   GL144245  14.403  17.356   5.860
 3277POPC   GL244246  14.072  17.300   5.880
 3277POPC   C1A44247  14.342  17.615   6.225
 3277POPC   D2A44248  14.520  17.814   6.599
 3277POPC   C3A44249  14.344  17.603   6.966
 3277POPC   C4A44250  14.172  17.798   7.338
 3277POPC   C1B44251  13.870  17.409   6.250
 3277POPC   C2B44252  13.904  17.610   6.644
 3277POPC   C3B44253  13.858  17.474   7.084
 3277POPC   C4B44254  14.087  17.309   7.433
 3278POPC   NC344255  31.723  40.615   5.467
 3278POPC   PO444256  31.039  40.835   5.508
 3278POPC   GL144257  31.326  40.667   5.845
 3278POPC   GL244258  31.669  40.841   5.916
 3278POPC   C1A44259  31.294  40.684   6.308
 3278POPC   D2A44260  31.031  40.688   6.687
 3278POPC   C3A44261  31.183  40.611   7.104
 3278POPC   C4A44262  31.292  40.921   7.395
 3278POPC   C1B44263  31.788  40.605   6.274
 3278POPC   C2B44264  31.626  40.614   6.714
 3278POPC   C3B44265  31.688  40.763   7.115
 3278POPC   C4B44266  31.645  40.447   7.385
 3279POPC   NC344267  22.751  35.395   5.449
 3279POPC   PO444268  23.291  35.035   5.346
 3279POPC   GL144269  23.068  35.114   5.776
 3279POPC   GL244270  22.700  35.062   5.842
 3279POPC   C1A44271  22.996  35.310   6.190
 3279POPC   D2A44272  23.066  35.099   6.576
 3279POPC   C3A44273  22.975  35.313   6.933
 3279POPC   C4A44274  23.091  35.477   7.305
 3279POPC   C1B44275  22.801  34.841   6.211
 3279POPC   C2B44276  22.591  34.844   6.600
 3279POPC   C3B44277  22.740  34.838   6.993
 3279POPC   C4B44278  22.851  35.032   7.361
 3280POPC   NC344279   2.569  13.091   5.701
 3280POPC   PO444280   3.064  12.923   5.198
 3280POPC   GL144281   2.937  12.715   5.663
 3280POPC   GL244282   2.697  12.509   5.738
 3280POPC   C1A44283   2.913  12.776   6.161
 3280POPC   D2A44284   2.790  13.209   6.399
 3280POPC   C3A44285   2.678  13.165   6.847
 3280POPC   C4A44286   2.903  12.863   7.097
 3280POPC   C1B44287   2.542  12.381   6.131
 3280POPC   C2B44288   2.654  12.433   6.548
 3280POPC   C3B44289   2.505  12.624   6.905
 3280POPC   C4B44290   2.566  12.509   7.315
 3281POPC   NC344291  25.833  27.739   5.337
 3281POPC   PO444292  26.348  27.391   5.218
 3281POPC   GL144293  26.167  27.427   5.672
 3281POPC   GL244294  26.063  27.749   5.798
 3281POPC   C1A44295  26.131  27.410   6.154
 3281POPC   D2A44296  26.015  27.571   6.547
 3281POPC   C3A44297  26.277  27.569   6.887
 3281POPC   C4A44298  26.051  27.485   7.233
 3281POPC   C1B44299  25.743  27.775   6.115
 3281POPC   C2B44300  25.735  27.984   6.521
 3281POPC   C3B44301  25.808  27.862   6.939
 3281POPC   C4B44302  26.101  27.988   7.225
 3282POPC   NC344303  14.810  24.374   5.437
 3282POPC   PO444304  14.230  24.633   5.255
 3282POPC   GL144305  14.148  24.652   5.709
 3282POPC   GL244306  14.309  24.343   5.702
 3282POPC   C1A44307  14.410  24.651   6.116
 3282POPC   D2A44308  14.281  24.620   6.557
 3282POPC   C3A44309  14.532  24.717   6.932
 3282POPC   C4A44310  14.324  24.520   7.271
 3282POPC   C1B44311  14.563  24.155   6.031
 3282POPC   C2B44312  14.463  24.044   6.451
 3282POPC   C3B44313  14.497  24.192   6.869
 3282POPC   C4B44314  14.311  24.004   7.205
 3283POPC   NC344315  10.777   4.260   5.320
 3283POPC   PO444316  10.102   3.936   5.434
 3283POPC   GL144317  10.476   4.075   5.686
 3283POPC   GL244318  10.511   4.413   5.772
 3283POPC   C1A44319  10.679   4.087   6.116
 3283POPC   D2A44320  10.713   4.419   6.444
 3283POPC   C3A44321  10.561   4.210   6.824
 3283POPC   C4A44322  10.732   4.115   7.239
 3283POPC   C1B44323  10.256   4.349   6.145
 3283POPC   C2B44324  10.226   4.518   6.558
 3283POPC   C3B44325  10.288   4.635   6.981
 3283POPC   C4B44326   9.950   4.767   7.240
 3284POPC   NC344327  23.903  28.132   5.586
 3284POPC   PO444328  24.535  28.224   5.328
 3284POPC   GL144329  24.513  28.378   5.756
 3284POPC   GL244330  24.183  28.459   5.867
 3284POPC   C1A44331  24.647  28.299   6.196
 3284POPC   D2A44332  24.829  28.013   6.520
 3284POPC   C3A44333  24.649  28.072   6.942
 3284POPC   C4A44334  24.615  28.493   7.168
 3284POPC   C1B44335  24.154  28.232   6.255
 3284POPC   C2B44336  24.339  28.356   6.647
 3284POPC   C3B44337  24.134  28.496   7.021
 3284POPC   C4B44338  24.257  28.152   7.287
 3285POPC   NC344339  13.210  27.193   5.503
 3285POPC   PO444340  13.449  27.857   5.515
 3285POPC   GL144341  13.479  27.661   5.907
 3285POPC   GL244342  13.547  27.333   5.843
 3285POPC   C1A44343  13.572  27.562   6.348
 3285POPC   D2A44344  13.538  27.709   6.737
 3285POPC   C3A44345  13.746  27.456   7.005
 3285POPC   C4A44346  13.659  27.519   7.427
 3285POPC   C1B44347  13.285  27.179   6.209
 3285POPC   C2B44348  13.411  27.187   6.676
 3285POPC   C3B44349  13.479  27.044   7.109
 3285POPC   C4B44350  13.511  27.056   7.571
 3286POPC   NC344351  20.844   0.091   4.988
 3286POPC   PO444352  20.623  44.568   5.426
 3286POPC   GL144353  20.420  44.795   5.759
 3286POPC   GL244354  20.700  44.883   5.974
 3286POPC   C1A44355  20.248  44.804   6.186
 3286POPC   D2A44356  20.422  44.930   6.544
 3286POPC   C3A44357  20.424  44.646   6.856
 3286POPC   C4A44358  20.519  44.769   7.245
 3286POPC   C1B44359  20.717  44.520   6.195
 3286POPC   C2B44360  20.778  44.198   6.490
 3286POPC   C3B44361  20.821  44.303   6.900
 3286POPC   C4B44362  20.848  44.410   7.298
 3287POPC   NC344363  12.945  40.293   5.472
 3287POPC   PO444364  12.754  39.689   5.548
 3287POPC   GL144365  12.953  39.725   5.908
 3287POPC   GL244366  12.825  40.059   5.949
 3287POPC   C1A44367  12.993  39.650   6.336
 3287POPC   D2A44368  12.970  39.739   6.797
 3287POPC   C3A44369  13.189  39.791   7.192
 3287POPC   C4A44370  13.080  39.619   7.620
 3287POPC   C1B44371  13.052  40.212   6.311
 3287POPC   C2B44372  13.100  40.252   6.750
 3287POPC   C3B44373  12.826  40.140   7.087
 3287POPC   C4B44374  12.682  39.774   7.286
 3288POPC   NC344375   8.940   2.420   5.487
 3288POPC   PO444376   9.162   1.750   5.211
 3288POPC   GL144377   8.936   1.897   5.649
 3288POPC   GL244378   8.560   1.828   5.739
 3288POPC   C1A44379   9.094   2.096   6.077
 3288POPC   D2A44380   9.347   2.061   6.471
 3288POPC   C3A44381   9.244   2.212   6.885
 3288POPC   C4A44382   9.169   1.944   7.246
 3288POPC   C1B44383   8.619   1.979   6.190
 3288POPC   C2B44384   8.795   2.156   6.598
 3288POPC   C3B44385   8.738   2.184   7.075
 3288POPC   C4B44386   8.786   2.032   7.557
 3289POPC   NC344387  12.494  14.126   5.413
 3289POPC   PO444388  11.959  14.531   5.388
 3289POPC   GL144389  12.000  14.477   5.847
 3289POPC   GL244390  12.301  14.292   5.860
 3289POPC   C1A44391  11.983  14.312   6.300
 3289POPC   D2A44392  12.001  14.171   6.751
 3289POPC   C3A44393  12.122  14.469   7.054
 3289POPC   C4A44394  12.221  14.582   7.459
 3289POPC   C1B44395  12.408  14.604   6.187
 3289POPC   C2B44396  12.441  14.435   6.613
 3289POPC   C3B44397  12.489  14.106   6.935
 3289POPC   C4B44398  12.207  14.007   7.272
 3290POPC   NC344399  31.904  24.695   5.447
 3290POPC   PO444400  32.636  24.742   5.475
 3290POPC   GL144401  32.436  24.409   5.773
 3290POPC   GL244402  32.065  24.444   5.863
 3290POPC   C1A44403  32.362  24.206   6.210
 3290POPC   D2A44404  32.277  24.415   6.616
 3290POPC   C3A44405  32.339  24.267   7.043
 3290POPC   C4A44406  32.572  24.592   7.275
 3290POPC   C1B44407  31.823  24.282   6.200
 3290POPC   C2B44408  31.767  24.347   6.627
 3290POPC   C3B44409  31.902  24.551   6.997
 3290POPC   C4B44410  32.074  24.513   7.406
 3291POPC   NC344411  37.200  29.089   5.014
 3291POPC   PO444412  37.785  29.006   5.399
 3291POPC   GL144413  37.676  29.133   5.837
 3291POPC   GL244414  37.374  28.903   5.832
 3291POPC   C1A44415  37.699  29.364   6.256
 3291POPC   D2A44416  37.651  29.512   6.694
 3291POPC   C3A44417  37.793  29.300   7.045
 3291POPC   C4A44418  37.832  29.263   7.502
 3291POPC   C1B44419  37.468  28.886   6.273
 3291POPC   C2B44420  37.649  28.986   6.653
 3291POPC   C3B44421  37.500  28.810   7.031
 3291POPC   C4B44422  37.474  28.912   7.443
 3292POPC   NC344423  15.924   4.612   5.405
 3292POPC   PO444424  15.784   4.070   5.708
 3292POPC   GL144425  15.960   4.351   5.974
 3292POPC   GL244426  15.774   4.656   5.895
 3292POPC   C1A44427  16.294   4.432   6.280
 3292POPC   D2A44428  16.287   4.612   6.715
 3292POPC   C3A44429  16.005   4.364   7.012
 3292POPC   C4A44430  16.160   4.061   7.341
 3292POPC   C1B44431  15.883   4.719   6.336
 3292POPC   C2B44432  15.845   4.314   6.519
 3292POPC   C3B44433  15.573   4.115   6.805
 3292POPC   C4B44434  15.650   3.999   7.232
 3293POPC   NC344435  43.644  17.126   5.468
 3293POPC   PO444436  44.172  17.434   5.357
 3293POPC   GL144437  44.028  17.629   5.719
 3293POPC   GL244438  43.706  17.640   5.608
 3293POPC   C1A44439  44.016  17.642   6.176
 3293POPC   D2A44440  44.060  17.380   6.563
 3293POPC   C3A44441  44.041  17.532   6.958
 3293POPC   C4A44442  44.043  17.298   7.337
 3293POPC   C1B44443  43.542  17.522   6.018
 3293POPC   C2B44444  43.579  17.579   6.465
 3293POPC   C3B44445  43.603  17.328   6.805
 3293POPC   C4B44446  43.549  17.333   7.222
 3294POPC   NC344447  26.153   6.076   5.104
 3294POPC   PO444448  25.727   5.682   5.427
 3294POPC   GL144449  26.071   5.817   5.748
 3294POPC   GL244450  26.441   5.717   5.754
 3294POPC   C1A44451  26.117   5.836   6.231
 3294POPC   D2A44452  26.099   6.070   6.651
 3294POPC   C3A44453  25.964   5.871   7.070
 3294POPC   C4A44454  25.804   5.801   7.492
 3294POPC   C1B44455  26.566   6.026   6.090
 3294POPC   C2B44456  26.644   6.037   6.550
 3294POPC   C3B44457  26.463   5.855   6.938
 3294POPC   C4B44458  26.408   6.004   7.359
 3295POPC   NC344459  19.043   4.014   5.328
 3295POPC   PO444460  18.870   4.601   5.482
 3295POPC   GL144461  19.022   4.267   5.778
 3295POPC   GL244462  19.349   4.403   5.819
 3295POPC   C1A44463  19.206   4.087   6.176
 3295POPC   D2A44464  18.893   4.149   6.499
 3295POPC   C3A44465  18.982   4.042   6.893
 3295POPC   C4A44466  19.216   4.210   7.210
 3295POPC   C1B44467  19.105   4.568   6.239
 3295POPC   C2B44468  19.077   4.615   6.724
 3295POPC   C3B44469  18.969   4.843   7.129
 3295POPC   C4B44470  19.156   5.042   7.536
 3296POPC   NC344471  18.029  10.397   5.293
 3296POPC   PO444472  18.459  10.694   5.608
 3296POPC   GL144473  18.321  10.339   5.888
 3296POPC   GL244474  18.019  10.300   5.777
 3296POPC   C1A44475  18.064  10.236   6.280
 3296POPC   D2A44476  17.898  10.270   6.701
 3296POPC   C3A44477  18.237  10.269   7.012
 3296POPC   C4A44478  18.499  10.615   7.177
 3296POPC   C1B44479  17.979  10.679   6.071
 3296POPC   C2B44480  18.195  10.699   6.492
 3296POPC   C3B44481  18.047  10.747   6.920
 3296POPC   C4B44482  17.767  11.005   7.192
 3297POPC   NC344483   3.063  19.730   5.352
 3297POPC   PO444484   2.582  20.108   5.337
 3297POPC   GL144485   2.780  19.957   5.765
 3297POPC   GL244486   3.124  19.794   5.860
 3297POPC   C1A44487   2.690  20.014   6.230
 3297POPC   D2A44488   2.389  19.915   6.599
 3297POPC   C3A44489   2.630  19.979   6.982
 3297POPC   C4A44490   3.044  20.190   7.118
 3297POPC   C1B44491   3.109  19.650   6.304
 3297POPC   C2B44492   3.129  19.799   6.752
 3297POPC   C3B44493   2.988  19.700   7.177
 3297POPC   C4B44494   3.088  19.650   7.607
 3298POPC   NC344495  14.121  14.298   5.164
 3298POPC   PO444496  13.639  14.612   5.572
 3298POPC   GL144497  13.516  14.470   5.924
 3298POPC   GL244498  13.222  14.667   5.962
 3298POPC   C1A44499  13.701  14.214   6.250
 3298POPC   D2A44500  14.026  14.115   6.587
 3298POPC   C3A44501  13.973  14.272   7.017
 3298POPC   C4A44502  13.732  14.554   7.286
 3298POPC   C1B44503  13.339  14.609   6.383
 3298POPC   C2B44504  13.641  14.475   6.666
 3298POPC   C3B44505  13.450  14.301   6.968
 3298POPC   C4B44506  13.121  14.512   7.189
 3299POPC   NC344507  29.327  43.266   5.430
 3299POPC   PO444508  28.751  43.527   5.734
 3299POPC   GL144509  28.973  43.226   5.943
 3299POPC   GL244510  29.020  42.912   5.771
 3299POPC   C1A44511  28.921  43.239   6.388
 3299POPC   D2A44512  28.805  43.583   6.670
 3299POPC   C3A44513  29.000  43.466   7.041
 3299POPC   C4A44514  29.031  43.073   7.192
 3299POPC   C1B44515  28.860  42.765   6.173
 3299POPC   C2B44516  28.950  42.760   6.635
 3299POPC   C3B44517  28.952  42.595   7.055
 3299POPC   C4B44518  29.160  42.627   7.448
 3300POPC   NC344519  14.162   9.381   5.679
 3300POPC   PO444520  14.677   9.095   5.359
 3300POPC   GL144521  14.479   8.941   5.721
 3300POPC   GL244522  14.610   9.225   5.914
 3300POPC   C1A44523  14.345   8.830   6.139
 3300POPC   D2A44524  14.522   8.747   6.544
 3300POPC   C3A44525  14.296   8.953   6.895
 3300POPC   C4A44526  14.475   9.056   7.301
 3300POPC   C1B44527  14.731   9.193   6.356
 3300POPC   C2B44528  14.782   9.106   6.798
 3300POPC   C3B44529  14.875   9.361   7.118
 3300POPC   C4B44530  14.656   9.590   7.419
 3301POPC   NC344531  42.237  23.357   5.395
 3301POPC   PO444532  42.411  24.005   5.355
 3301POPC   GL144533  42.170  23.997   5.769
 3301POPC   GL244534  42.092  23.659   5.840
 3301POPC   C1A44535  42.186  23.991   6.211
 3301POPC   D2A44536  42.307  23.744   6.589
 3301POPC   C3A44537  42.442  23.979   6.927
 3301POPC   C4A44538  42.716  23.767   7.201
 3301POPC   C1B44539  42.002  23.502   6.268
 3301POPC   C2B44540  41.810  23.504   6.641
 3301POPC   C3B44541  42.037  23.369   6.972
 3301POPC   C4B44542  42.236  23.582   7.277
 3302POPC   NC344543  37.356  20.667   5.373
 3302POPC   PO444544  36.774  20.485   5.022
 3302POPC   GL144545  36.855  20.609   5.497
 3302POPC   GL244546  37.005  20.330   5.672
 3302POPC   C1A44547  36.947  20.754   5.974
 3302POPC   D2A44548  36.875  20.884   6.451
 3302POPC   C3A44549  36.699  20.707   6.842
 3302POPC   C4A44550  36.924  20.751   7.210
 3302POPC   C1B44551  36.719  20.290   6.044
 3302POPC   C2B44552  36.759  20.325   6.502
 3302POPC   C3B44553  37.010  20.290   6.899
 3302POPC   C4B44554  36.771  20.266   7.276
 3303POPC   NC344555  15.325  19.798   5.343
 3303POPC   PO444556  14.913  20.316   5.465
 3303POPC   GL144557  15.079  19.980   5.770
 3303POPC   GL244558  15.311  19.681   5.834
 3303POPC   C1A44559  15.269  20.043   6.186
 3303POPC   D2A44560  15.100  20.122   6.586
 3303POPC   C3A44561  15.275  19.949   6.937
 3303POPC   C4A44562  15.579  19.962   7.226
 3303POPC   C1B44563  15.180  19.539   6.239
 3303POPC   C2B44564  15.284  19.516   6.663
 3303POPC   C3B44565  15.370  19.483   7.124
 3303POPC   C4B44566  15.494  19.339   7.526
 3304POPC   NC344567  16.729  41.226   5.416
 3304POPC   PO444568  17.115  41.784   5.531
 3304POPC   GL144569  16.786  41.545   5.838
 3304POPC   GL244570  16.908  41.165   5.876
 3304POPC   C1A44571  16.481  41.665   6.229
 3304POPC   D2A44572  16.330  41.517   6.670
 3304POPC   C3A44573  16.609  41.739   6.968
 3304POPC   C4A44574  16.912  41.746   7.287
 3304POPC   C1B44575  16.684  41.192   6.251
 3304POPC   C2B44576  16.801  41.367   6.637
 3304POPC   C3B44577  16.690  41.230   7.022
 3304POPC   C4B44578  16.867  41.169   7.396
 3305POPC   NC344579   3.469  35.617   5.365
 3305POPC   PO444580   3.126  35.042   5.392
 3305POPC   GL144581   3.369  35.262   5.728
 3305POPC   GL244582   3.672  35.078   5.813
 3305POPC   C1A44583   3.587  35.526   6.083
 3305POPC   D2A44584   3.751  35.524   6.527
 3305POPC   C3A44585   3.490  35.601   6.928
 3305POPC   C4A44586   3.398  35.300   7.291
 3305POPC   C1B44587   3.962  35.165   6.189
 3305POPC   C2B44588   4.146  35.189   6.620
 3305POPC   C3B44589   3.861  35.221   6.948
 3305POPC   C4B44590   3.899  35.077   7.347
 3306POPC   NC344591  35.968   6.820   5.298
 3306POPC   PO444592  36.383   6.411   5.575
 3306POPC   GL144593  36.051   6.565   5.787
 3306POPC   GL244594  36.005   6.925   5.816
 3306POPC   C1A44595  36.211   6.631   6.206
 3306POPC   D2A44596  36.500   6.672   6.555
 3306POPC   C3A44597  36.315   6.525   6.947
 3306POPC   C4A44598  36.031   6.651   7.166
 3306POPC   C1B44599  36.032   7.086   6.249
 3306POPC   C2B44600  36.040   6.891   6.667
 3306POPC   C3B44601  35.920   7.115   7.041
 3306POPC   C4B44602  35.658   6.995   7.377
 3307POPC   NC344603  26.270   2.191   5.440
 3307POPC   PO444604  25.703   1.834   5.327
 3307POPC   GL144605  25.914   1.946   5.743
 3307POPC   GL244606  25.716   2.154   6.011
 3307POPC   C1A44607  26.196   2.056   6.114
 3307POPC   D2A44608  26.015   2.105   6.525
 3307POPC   C3A44609  26.286   2.280   6.856
 3307POPC   C4A44610  26.271   2.111   7.249
 3307POPC   C1B44611  25.759   1.686   6.157
 3307POPC   C2B44612  25.646   1.417   6.506
 3307POPC   C3B44613  25.696   1.609   6.889
 3307POPC   C4B44614  25.819   2.052   7.018
 3308POPC   NC344615   3.287  34.636   5.296
 3308POPC   PO444616   3.692  34.225   5.281
 3308POPC   GL144617   3.643  34.524   5.671
 3308POPC   GL244618   3.326  34.654   5.816
 3308POPC   C1A44619   3.809  34.667   6.094
 3308POPC   D2A44620   4.072  34.688   6.466
 3308POPC   C3A44621   3.918  34.716   6.896
 3308POPC   C4A44622   3.523  34.830   7.095
 3308POPC   C1B44623   3.420  34.367   6.205
 3308POPC   C2B44624   3.653  34.358   6.640
 3308POPC   C3B44625   3.656  34.333   7.134
 3308POPC   C4B44626   3.454  34.285   7.567
 3309POPC   NC344627  24.648  30.490   5.354
 3309POPC   PO444628  24.068  30.600   5.479
 3309POPC   GL144629  24.390  30.604   5.793
 3309POPC   GL244630  24.576  30.892   5.656
 3309POPC   C1A44631  24.375  30.525   6.243
 3309POPC   D2A44632  24.222  30.348   6.627
 3309POPC   C3A44633  24.448  30.574   6.936
 3309POPC   C4A44634  24.842  30.743   7.021
 3309POPC   C1B44635  24.573  30.992   6.095
 3309POPC   C2B44636  24.630  30.895   6.527
 3309POPC   C3B44637  24.478  31.102   6.875
 3309POPC   C4B44638  24.305  30.984   7.250
 3310POPC   NC344639  25.925  31.571   5.386
 3310POPC   PO444640  26.581  31.789   5.377
 3310POPC   GL144641  26.367  31.650   5.759
 3310POPC   GL244642  26.135  31.905   5.743
 3310POPC   C1A44643  26.289  31.302   6.103
 3310POPC   D2A44644  26.093  31.096   6.489
 3310POPC   C3A44645  26.086  31.283   6.917
 3310POPC   C4A44646  26.219  31.464   7.318
 3310POPC   C1B44647  25.884  31.889   6.101
 3310POPC   C2B44648  26.027  31.746   6.500
 3310POPC   C3B44649  26.164  31.799   6.925
 3310POPC   C4B44650  25.886  31.861   7.256
 3311POPC   NC344651  39.390  25.735   5.180
 3311POPC   PO444652  38.760  25.960   5.314
 3311POPC   GL144653  38.880  25.830   5.698
 3311POPC   GL244654  39.047  26.129   5.766
 3311POPC   C1A44655  38.934  25.776   6.147
 3311POPC   D2A44656  39.290  25.836   6.409
 3311POPC   C3A44657  39.137  25.913   6.794
 3311POPC   C4A44658  39.257  25.884   7.212
 3311POPC   C1B44659  39.207  26.275   6.155
 3311POPC   C2B44660  39.120  26.415   6.564
 3311POPC   C3B44661  39.244  26.371   6.981
 3311POPC   C4B44662  39.079  26.343   7.345
 3312POPC   NC344663   8.432  17.166   5.452
 3312POPC   PO444664   7.891  17.612   5.255
 3312POPC   GL144665   8.277  17.594   5.674
 3312POPC   GL244666   8.164  17.289   5.884
 3312POPC   C1A44667   8.505  17.537   6.158
 3312POPC   D2A44668   8.454  17.294   6.583
 3312POPC   C3A44669   8.491  17.472   7.009
 3312POPC   C4A44670   8.134  17.454   7.271
 3312POPC   C1B44671   8.008  17.354   6.326
 3312POPC   C2B44672   8.035  17.551   6.744
 3312POPC   C3B44673   7.843  17.814   7.060
 3312POPC   C4B44674   7.671  17.664   7.420
 3313POPC   NC344675  40.142  26.099   5.409
 3313POPC   PO444676  39.414  26.159   5.428
 3313POPC   GL144677  39.765  26.164   5.797
 3313POPC   GL244678  40.020  25.862   5.853
 3313POPC   C1A44679  39.704  26.134   6.271
 3313POPC   D2A44680  39.613  26.137   6.729
 3313POPC   C3A44681  39.735  25.798   7.051
 3313POPC   C4A44682  39.792  25.816   7.524
 3313POPC   C1B44683  40.199  26.121   6.188
 3313POPC   C2B44684  40.103  26.015   6.630
 3313POPC   C3B44685  40.153  26.128   7.061
 3313POPC   C4B44686  40.142  26.179   7.513
 3314POPC   NC344687  27.742  29.713   5.561
 3314POPC   PO444688  27.150  30.074   5.620
 3314POPC   GL144689  27.454  30.014   5.898
 3314POPC   GL244690  27.673  30.239   5.697
 3314POPC   C1A44691  27.658  29.875   6.292
 3314POPC   D2A44692  27.499  29.743   6.703
 3314POPC   C3A44693  27.655  29.631   7.075
 3314POPC   C4A44694  27.387  29.929   7.249
 3314POPC   C1B44695  27.748  30.355   6.122
 3314POPC   C2B44696  27.957  30.236   6.501
 3314POPC   C3B44697  27.787  30.133   6.899
 3314POPC   C4B44698  27.873  30.055   7.320
 3315POPC   NC344699   8.504  22.713   5.507
 3315POPC   PO444700   7.953  23.027   5.229
 3315POPC   GL144701   8.028  22.874   5.669
 3315POPC   GL244702   8.297  23.114   5.755
 3315POPC   C1A44703   8.196  22.805   6.125
 3315POPC   D2A44704   8.223  23.077   6.495
 3315POPC   C3A44705   8.150  22.929   6.894
 3315POPC   C4A44706   8.126  22.593   7.151
 3315POPC   C1B44707   8.554  23.243   6.136
 3315POPC   C2B44708   8.587  23.416   6.589
 3315POPC   C3B44709   8.479  23.300   7.020
 3315POPC   C4B44710   8.080  23.324   7.220
 3316POPC   NC344711  13.169  28.227   5.430
 3316POPC   PO444712  13.149  28.808   5.589
 3316POPC   GL144713  13.465  28.524   5.848
 3316POPC   GL244714  13.621  28.178   5.875
 3316POPC   C1A44715  13.677  28.473   6.294
 3316POPC   D2A44716  13.690  28.200   6.690
 3316POPC   C3A44717  13.763  28.401   7.090
 3316POPC   C4A44718  14.166  28.430   7.298
 3316POPC   C1B44719  13.430  28.029   6.285
 3316POPC   C2B44720  13.165  28.071   6.655
 3316POPC   C3B44721  13.359  28.063   7.079
 3316POPC   C4B44722  13.612  28.028   7.434
 3317POPC   NC344723  11.717  15.733   5.650
 3317POPC   PO444724  11.271  16.045   5.316
 3317POPC   GL144725  11.296  16.232   5.752
 3317POPC   GL244726  11.634  16.333   5.839
 3317POPC   C1A44727  11.229  16.298   6.226
 3317POPC   D2A44728  11.460  16.181   6.649
 3317POPC   C3A44729  11.198  16.030   6.988
 3317POPC   C4A44730  11.240  16.153   7.418
 3317POPC   C1B44731  11.653  16.028   6.203
 3317POPC   C2B44732  11.750  15.718   6.541
 3317POPC   C3B44733  11.479  15.588   6.857
 3317POPC   C4B44734  11.524  15.627   7.260
 3318POPC   NC344735  40.285  27.789   5.497
 3318POPC   PO444736  39.839  27.411   5.111
 3318POPC   GL144737  39.962  27.339   5.586
 3318POPC   GL244738  39.805  27.607   5.746
 3318POPC   C1A44739  40.142  27.421   6.071
 3318POPC   D2A44740  40.200  27.652   6.481
 3318POPC   C3A44741  40.100  27.436   6.861
 3318POPC   C4A44742  40.154  27.616   7.243
 3318POPC   C1B44743  39.887  27.872   6.128
 3318POPC   C2B44744  39.975  28.128   6.471
 3318POPC   C3B44745  40.071  28.009   6.902
 3318POPC   C4B44746  39.823  27.989   7.288
 3319POPC   NC344747  19.313  42.932   5.393
 3319POPC   PO444748  18.777  43.319   5.329
 3319POPC   GL144749  18.947  43.145   5.703
 3319POPC   GL244750  18.779  42.911   5.863
 3319POPC   C1A44751  19.213  43.175   6.067
 3319POPC   D2A44752  19.178  43.460   6.403
 3319POPC   C3A44753  19.045  43.324   6.809
 3319POPC   C4A44754  19.321  43.223   7.097
 3319POPC   C1B44755  18.948  42.757   6.204
 3319POPC   C2B44756  18.808  42.952   6.552
 3319POPC   C3B44757  18.888  42.815   6.962
 3319POPC   C4B44758  19.275  42.735   7.132
 3320POPC   NC344759  39.244   9.947   5.354
 3320POPC   PO444760  39.456   9.298   5.267
 3320POPC   GL144761  39.447   9.537   5.632
 3320POPC   GL244762  39.103   9.612   5.715
 3320POPC   C1A44763  39.507   9.643   6.070
 3320POPC   D2A44764  39.657   9.563   6.500
 3320POPC   C3A44765  39.407   9.515   6.899
 3320POPC   C4A44766  39.493   9.568   7.334
 3320POPC   C1B44767  39.068   9.409   6.124
 3320POPC   C2B44768  39.068   9.628   6.515
 3320POPC   C3B44769  38.886   9.678   6.931
 3320POPC   C4B44770  38.918   9.594   7.387
 3321POPC   NC344771  24.170  27.215   5.290
 3321POPC   PO444772  24.512  26.638   5.211
 3321POPC   GL144773  24.679  26.625   5.654
 3321POPC   GL244774  24.487  26.877   5.908
 3321POPC   C1A44775  24.743  26.488   6.100
 3321POPC   D2A44776  24.504  26.614   6.485
 3321POPC   C3A44777  24.642  26.581   6.919
 3321POPC   C4A44778  24.389  26.465   7.254
 3321POPC   C1B44779  24.709  27.068   6.316
 3321POPC   C2B44780  24.716  27.081   6.822
 3321POPC   C3B44781  24.598  26.963   7.280
 3321POPC   C4B44782  24.620  27.154   7.713
 3322POPC   NC344783  39.479  28.340   5.537
 3322POPC   PO444784  38.916  28.116   5.762
 3322POPC   GL144785  39.205  28.366   5.969
 3322POPC   GL244786  39.192  28.696   5.785
 3322POPC   C1A44787  39.457  28.120   6.262
 3322POPC   D2A44788  39.213  27.902   6.573
 3322POPC   C3A44789  39.170  28.250   6.852
 3322POPC   C4A44790  39.398  28.247   7.222
 3322POPC   C1B44791  39.029  28.826   6.181
 3322POPC   C2B44792  39.029  28.700   6.612
 3322POPC   C3B44793  39.317  28.753   6.934
 3322POPC   C4B44794  39.475  28.769   7.335
 3323POPC   NC344795   8.831  24.561   5.566
 3323POPC   PO444796   9.525  24.347   5.543
 3323POPC   GL144797   9.284  24.634   5.823
 3323POPC   GL244798   9.132  24.334   5.897
 3323POPC   C1A44799   8.997  24.709   6.209
 3323POPC   D2A44800   8.963  24.911   6.592
 3323POPC   C3A44801   8.676  24.752   6.866
 3323POPC   C4A44802   8.822  24.533   7.203
 3323POPC   C1B44803   8.991  24.204   6.288
 3323POPC   C2B44804   8.951  24.347   6.711
 3323POPC   C3B44805   8.977  24.078   7.073
 3323POPC   C4B44806   9.107  24.183   7.474
 3324POPC   NC344807  16.389  43.159   5.454
 3324POPC   PO444808  16.926  43.501   5.202
 3324POPC   GL144809  16.841  43.332   5.695
 3324POPC   GL244810  16.756  42.936   5.762
 3324POPC   C1A44811  16.641  43.271   6.123
 3324POPC   D2A44812  16.754  43.055   6.520
 3324POPC   C3A44813  16.746  43.249   6.923
 3324POPC   C4A44814  16.811  43.103   7.344
 3324POPC   C1B44815  16.462  42.784   6.139
 3324POPC   C2B44816  16.413  42.651   6.579
 3324POPC   C3B44817  16.658  42.733   6.949
 3324POPC   C4B44818  16.417  42.789   7.280
 3325POPC   NC344819  37.520   0.361   5.481
 3325POPC   PO444820  38.039   0.020   5.347
 3325POPC   GL144821  37.963   0.213   5.733
 3325POPC   GL244822  37.854   0.551   5.797
 3325POPC   C1A44823  37.763   0.114   6.118
 3325POPC   D2A44824  37.510   0.092   6.495
 3325POPC   C3A44825  37.566   0.224   6.924
 3325POPC   C4A44826  37.358   0.207   7.347
 3325POPC   C1B44827  37.571   0.562   6.210
 3325POPC   C2B44828  37.432   0.692   6.641
 3325POPC   C3B44829  37.289   0.633   7.070
 3325POPC   C4B44830  37.670   0.609   7.298
 3326POPC   NC344831  37.352  43.003   5.405
 3326POPC   PO444832  37.953  43.200   5.321
 3326POPC   GL144833  37.736  43.231   5.726
 3326POPC   GL244834  37.704  42.879   5.798
 3326POPC   C1A44835  37.719  43.317   6.202
 3326POPC   D2A44836  37.592  43.438   6.642
 3326POPC   C3A44837  37.820  43.249   7.004
 3326POPC   C4A44838  38.087  43.024   7.291
 3326POPC   C1B44839  37.679  42.786   6.244
 3326POPC   C2B44840  37.828  42.878   6.664
 3326POPC   C3B44841  37.806  42.659   7.076
 3326POPC   C4B44842  37.869  42.635   7.571
 3327POPC   NC344843  33.598  16.468   5.458
 3327POPC   PO444844  33.789  15.753   5.355
 3327POPC   GL144845  33.761  15.857   5.784
 3327POPC   GL244846  33.424  16.018   5.788
 3327POPC   C1A44847  33.974  15.857   6.208
 3327POPC   D2A44848  33.986  16.145   6.569
 3327POPC   C3A44849  33.722  16.172   6.942
 3327POPC   C4A44850  33.939  16.245   7.295
 3327POPC   C1B44851  33.462  15.792   6.205
 3327POPC   C2B44852  33.671  15.727   6.623
 3327POPC   C3B44853  34.012  15.750   6.938
 3327POPC   C4B44854  33.908  15.740   7.382
 3328POPC   NC344855   7.544  10.249   5.591
 3328POPC   PO444856   7.478  10.788   5.210
 3328POPC   GL144857   7.554  10.713   5.754
 3328POPC   GL244858   7.222  10.646   5.869
 3328POPC   C1A44859   7.547  10.459   6.216
 3328POPC   D2A44860   7.460  10.070   6.509
 3328POPC   C3A44861   7.430  10.201   6.952
 3328POPC   C4A44862   7.549  10.608   7.144
 3328POPC   C1B44863   7.042  10.658   6.298
 3328POPC   C2B44864   7.158  10.577   6.725
 3328POPC   C3B44865   7.045  10.755   7.118
 3328POPC   C4B44866   7.268  10.938   7.480
 3329POPC   NC344867  12.066  14.979   5.399
 3329POPC   PO444868  11.518  15.407   5.389
 3329POPC   GL144869  11.850  15.269   5.786
 3329POPC   GL244870  12.156  15.029   5.900
 3329POPC   C1A44871  12.025  15.426   6.199
 3329POPC   D2A44872  12.048  15.132   6.550
 3329POPC   C3A44873  11.922  15.324   6.901
 3329POPC   C4A44874  11.987  15.390   7.321
 3329POPC   C1B44875  12.461  15.149   6.247
 3329POPC   C2B44876  12.537  14.940   6.652
 3329POPC   C3B44877  12.296  14.963   7.032
 3329POPC   C4B44878  12.373  15.075   7.448
 3330POPC   NC344879  19.418  25.312   5.242
 3330POPC   PO444880  18.851  25.512   5.391
 3330POPC   GL144881  19.045  25.236   5.688
 3330POPC   GL244882  19.361  25.422   5.758
 3330POPC   C1A44883  18.819  25.036   6.043
 3330POPC   D2A44884  18.759  25.053   6.482
 3330POPC   C3A44885  18.981  24.843   6.790
 3330POPC   C4A44886  18.965  24.927   7.188
 3330POPC   C1B44887  19.240  25.311   6.194
 3330POPC   C2B44888  19.250  25.257   6.625
 3330POPC   C3B44889  18.948  25.367   6.909
 3330POPC   C4B44890  18.969  25.680   7.272
 3331POPC   NC344891  32.319  28.736   5.352
 3331POPC   PO444892  31.875  28.296   5.346
 3331POPC   GL144893  32.020  28.542   5.720
 3331POPC   GL244894  32.260  28.293   5.750
 3331POPC   C1A44895  32.237  28.623   6.147
 3331POPC   D2A44896  32.396  28.398   6.533
 3331POPC   C3A44897  32.336  28.509   6.948
 3331POPC   C4A44898  32.227  28.717   7.317
 3331POPC   C1B44899  32.500  28.140   6.090
 3331POPC   C2B44900  32.463  27.888   6.436
 3331POPC   C3B44901  32.440  27.955   6.854
 3331POPC   C4B44902  32.168  28.066   7.158
 3332POPC   NC344903   4.967   5.184   5.406
 3332POPC   PO444904   4.845   4.645   5.403
 3332POPC   GL144905   5.037   4.873   5.821
 3332POPC   GL244906   5.378   5.036   5.721
 3332POPC   C1A44907   5.043   4.998   6.317
 3332POPC   D2A44908   5.158   4.966   6.797
 3332POPC   C3A44909   4.989   5.257   7.120
 3332POPC   C4A44910   4.673   5.243   7.474
 3332POPC   C1B44911   5.510   5.145   6.162
 3332POPC   C2B44912   5.421   5.342   6.577
 3332POPC   C3B44913   5.493   5.298   7.040
 3332POPC   C4B44914   5.455   4.903   7.253
 3333POPC   NC344915  43.293  36.448   5.391
 3333POPC   PO444916  43.049  37.033   5.220
 3333POPC   GL144917  43.023  36.861   5.662
 3333POPC   GL244918  43.359  36.798   5.785
 3333POPC   C1A44919  42.948  36.826   6.144
 3333POPC   D2A44920  42.952  37.043   6.572
 3333POPC   C3A44921  42.900  36.827   6.989
 3333POPC   C4A44922  43.217  36.630   7.270
 3333POPC   C1B44923  43.462  36.711   6.225
 3333POPC   C2B44924  43.310  36.689   6.671
 3333POPC   C3B44925  43.359  37.042   6.980
 3333POPC   C4B44926  43.600  37.021   7.354
 3334POPC   NC344927   5.707  22.476   5.620
 3334POPC   PO444928   6.303  22.378   5.642
 3334POPC   GL144929   5.977  22.107   5.853
 3334POPC   GL244930   5.865  21.775   5.891
 3334POPC   C1A44931   5.704  22.089   6.250
 3334POPC   D2A44932   5.674  21.945   6.684
 3334POPC   C3A44933   5.556  22.244   7.038
 3334POPC   C4A44934   5.687  22.561   7.355
 3334POPC   C1B44935   5.978  21.653   6.328
 3334POPC   C2B44936   6.182  21.826   6.704
 3334POPC   C3B44937   5.991  21.989   7.095
 3334POPC   C4B44938   5.825  22.090   7.482
 3335POPC   NC344939  37.792  31.443   5.367
 3335POPC   PO444940  37.368  31.942   5.472
 3335POPC   GL144941  37.570  31.651   5.790
 3335POPC   GL244942  37.470  31.298   5.763
 3335POPC   C1A44943  37.816  31.521   6.188
 3335POPC   D2A44944  37.979  31.711   6.603
 3335POPC   C3A44945  37.781  31.644   7.009
 3335POPC   C4A44946  37.553  31.321   7.232
 3335POPC   C1B44947  37.515  31.111   6.173
 3335POPC   C2B44948  37.571  31.237   6.607
 3335POPC   C3B44949  37.902  31.172   6.876
 3335POPC   C4B44950  38.158  31.223   7.222
 3336POPC   NC344951  34.044  27.978   5.588
 3336POPC   PO444952  33.883  27.295   5.503
 3336POPC   GL144953  33.764  27.597   5.811
 3336POPC   GL244954  33.510  27.844   5.723
 3336POPC   C1A44955  33.884  27.678   6.252
 3336POPC   D2A44956  33.840  27.424   6.632
 3336POPC   C3A44957  34.079  27.552   6.957
 3336POPC   C4A44958  33.959  27.822   7.231
 3336POPC   C1B44959  33.388  27.685   6.135
 3336POPC   C2B44960  33.415  27.718   6.580
 3336POPC   C3B44961  33.540  27.621   7.019
 3336POPC   C4B44962  33.558  27.668   7.505
 3337POPC   NC344963  19.873  29.945   5.314
 3337POPC   PO444964  20.095  29.371   5.613
 3337POPC   GL144965  19.747  29.632   5.775
 3337POPC   GL244966  19.732  30.024   5.786
 3337POPC   C1A44967  19.836  29.726   6.206
 3337POPC   D2A44968  19.816  29.964   6.576
 3337POPC   C3A44969  20.014  29.728   6.869
 3337POPC   C4A44970  19.877  29.788   7.246
 3337POPC   C1B44971  19.730  30.241   6.152
 3337POPC   C2B44972  19.734  30.477   6.531
 3337POPC   C3B44973  19.855  30.383   6.919
 3337POPC   C4B44974  19.620  30.232   7.227
 3338POPC   NC344975  23.724  38.395   5.288
 3338POPC   PO444976  23.720  39.112   5.250
 3338POPC   GL144977  23.649  38.825   5.627
 3338POPC   GL244978  23.892  38.568   5.750
 3338POPC   C1A44979  23.475  38.677   6.040
 3338POPC   D2A44980  23.453  38.769   6.485
 3338POPC   C3A44981  23.632  38.558   6.875
 3338POPC   C4A44982  23.389  38.696   7.241
 3338POPC   C1B44983  23.893  38.434   6.204
 3338POPC   C2B44984  23.762  38.164   6.557
 3338POPC   C3B44985  23.944  38.060   6.955
 3338POPC   C4B44986  24.090  38.416   7.158
 3339POPC   NC344987   1.764   6.794   5.518
 3339POPC   PO444988   2.309   6.367   5.391
 3339POPC   GL144989   2.250   6.574   5.827
 3339POPC   GL244990   2.448   6.846   5.914
 3339POPC   C1A44991   1.972   6.628   6.246
 3339POPC   D2A44992   1.960   6.869   6.693
 3339POPC   C3A44993   1.790   6.698   7.104
 3339POPC   C4A44994   1.730   6.846   7.558
 3339POPC   C1B44995   2.420   6.836   6.354
 3339POPC   C2B44996   2.336   6.543   6.641
 3339POPC   C3B44997   2.310   6.679   7.051
 3339POPC   C4B44998   2.187   6.642   7.448
 3340POPC   NC344999   0.613   4.706   5.323
 3340POPC   PO445000   0.383   4.134   5.170
 3340POPC   GL145001   0.360   4.336   5.577
 3340POPC   GL245002   0.110   4.163   5.745
 3340POPC   C1A45003   0.349   4.554   5.979
 3340POPC   D2A45004   0.256   4.527   6.413
 3340POPC   C3A45005   0.406   4.506   6.861
 3340POPC   C4A45006   0.645   4.431   7.247
 3340POPC   C1B45007   0.260   4.068   6.183
 3340POPC   C2B45008   0.171   4.086   6.662
 3340POPC   C3B45009   0.360   4.020   7.094
 3340POPC   C4B45010   0.486   4.020   7.556
 3341POPC   NC345011   2.291  36.756   5.551
 3341POPC   PO445012   2.027  37.304   5.419
 3341POPC   GL145013   1.985  37.071   5.848
 3341POPC   GL245014   1.918  36.709   5.899
 3341POPC   C1A45015   1.951  37.247   6.260
 3341POPC   D2A45016   1.877  37.133   6.671
 3341POPC   C3A45017   2.077  37.086   7.059
 3341POPC   C4A45018   1.870  37.190   7.445
 3341POPC   C1B45019   2.051  36.751   6.336
 3341POPC   C2B45020   1.996  36.650   6.789
 3341POPC   C3B45021   2.208  36.531   7.160
 3341POPC   C4B45022   2.232  36.588   7.637
 3342POPC   NC345023  19.708  35.538   5.468
 3342POPC   PO445024  20.085  34.984   5.257
 3342POPC   GL145025  19.963  35.087   5.698
 3342POPC   GL245026  19.636  35.057   5.864
 3342POPC   C1A45027  20.003  35.353   6.086
 3342POPC   D2A45028  19.958  35.478   6.533
 3342POPC   C3A45029  20.066  35.236   6.915
 3342POPC   C4A45030  20.047  35.522   7.242
 3342POPC   C1B45031  19.628  35.099   6.323
 3342POPC   C2B45032  19.583  35.163   6.733
 3342POPC   C3B45033  19.628  35.536   6.945
 3342POPC   C4B45034  19.624  35.249   7.267
 3343POPC   NC345035  26.146  16.222   5.349
 3343POPC   PO445036  25.480  16.198   5.339
 3343POPC   GL145037  25.576  16.274   5.748
 3343POPC   GL245038  25.680  15.929   5.826
 3343POPC   C1A45039  25.730  16.387   6.159
 3343POPC   D2A45040  25.878  16.491   6.578
 3343POPC   C3A45041  25.907  16.118   6.860
 3343POPC   C4A45042  26.165  16.035   7.218
 3343POPC   C1B45043  25.795  15.579   6.133
 3343POPC   C2B45044  26.035  15.417   6.522
 3343POPC   C3B45045  26.177  15.579   6.929
 3343POPC   C4B45046  25.821  15.610   7.188
 3344POPC   NC345047   3.722  15.949   5.377
 3344POPC   PO445048   3.264  15.516   5.656
 3344POPC   GL145049   3.630  15.691   5.837
 3344POPC   GL245050   3.548  16.002   5.862
 3344POPC   C1A45051   3.817  15.804   6.257
 3344POPC   D2A45052   4.088  15.926   6.605
 3344POPC   C3A45053   3.828  15.910   6.976
 3344POPC   C4A45054   3.405  15.804   7.153
 3344POPC   C1B45055   3.568  16.259   6.212
 3344POPC   C2B45056   3.733  16.301   6.625
 3344POPC   C3B45057   3.444  16.324   6.975
 3344POPC   C4B45058   3.396  16.317   7.409
 3345POPC   NC345059  27.269  38.399   5.594
 3345POPC   PO445060  27.422  38.127   5.005
 3345POPC   GL145061  27.734  38.242   5.451
 3345POPC   GL245062  27.769  38.014   5.734
 3345POPC   C1A45063  27.799  38.452   5.952
 3345POPC   D2A45064  27.537  38.570   6.320
 3345POPC   C3A45065  27.660  38.634   6.751
 3345POPC   C4A45066  27.690  38.514   7.140
 3345POPC   C1B45067  27.487  38.050   6.149
 3345POPC   C2B45068  27.554  38.145   6.602
 3345POPC   C3B45069  27.441  38.068   7.043
 3345POPC   C4B45070  27.645  38.138   7.455
 3346POPC   NC345071  31.258  10.419   5.514
 3346POPC   PO445072  31.734  10.120   5.472
 3346POPC   GL145073  31.630  10.237   5.905
 3346POPC   GL245074  31.272  10.189   5.986
 3346POPC   C1A45075  31.650  10.311   6.372
 3346POPC   D2A45076  31.810  10.443   6.797
 3346POPC   C3A45077  31.475  10.597   7.102
 3346POPC   C4A45078  31.190  10.855   7.388
 3346POPC   C1B45079  31.142  10.259   6.429
 3346POPC   C2B45080  31.371  10.181   6.808
 3346POPC   C3B45081  31.291  10.036   7.212
 3346POPC   C4B45082  31.411   9.872   7.624
 3347POPC   NC345083  10.699   9.279   5.534
 3347POPC   PO445084  10.750   8.613   5.313
 3347POPC   GL145085  10.572   8.732   5.783
 3347POPC   GL245086  10.278   8.955   5.759
 3347POPC   C1A45087  10.502   8.784   6.292
 3347POPC   D2A45088  10.675   9.040   6.667
 3347POPC   C3A45089  10.675   8.920   7.131
 3347POPC   C4A45090  10.669   8.818   7.600
 3347POPC   C1B45091  10.332   9.235   6.125
 3347POPC   C2B45092  10.149   9.165   6.532
 3347POPC   C3B45093  10.255   9.182   6.947
 3347POPC   C4B45094  10.363   9.232   7.372
 3348POPC   NC345095  43.686  27.337   5.261
 3348POPC   PO445096  44.094  27.754   5.423
 3348POPC   GL145097  43.718  27.683   5.741
 3348POPC   GL245098  43.548  27.357   5.778
 3348POPC   C1A45099  43.744  27.717   6.228
 3348POPC   D2A45100  43.783  27.494   6.664
 3348POPC   C3A45101  44.041  27.727   6.974
 3348POPC   C4A45102  44.123  28.142   7.131
 3348POPC   C1B45103  43.785  27.201   6.174
 3348POPC   C2B45104  44.109  27.116   6.528
 3348POPC   C3B45105  43.936  27.080   6.945
 3348POPC   C4B45106  43.946  27.329   7.268
 3349POPC   NC345107  39.220  23.332   5.365
 3349POPC   PO445108  39.405  22.698   5.323
 3349POPC   GL145109  39.220  22.897   5.674
 3349POPC   GL245110  38.863  22.914   5.682
 3349POPC   C1A45111  39.165  22.869   6.129
 3349POPC   D2A45112  39.307  23.036   6.536
 3349POPC   C3A45113  39.524  22.901   6.931
 3349POPC   C4A45114  39.528  23.082   7.347
 3349POPC   C1B45115  38.694  23.105   6.086
 3349POPC   C2B45116  38.790  23.114   6.515
 3349POPC   C3B45117  38.950  22.989   6.909
 3349POPC   C4B45118  39.073  22.888   7.311
 3350POPC   NC345119  20.939  43.156   5.328
 3350POPC   PO445120  20.259  43.018   5.322
 3350POPC   GL145121  20.565  43.092   5.678
 3350POPC   GL245122  20.831  42.857   5.763
 3350POPC   C1A45123  20.466  43.018   6.135
 3350POPC   D2A45124  20.304  43.036   6.563
 3350POPC   C3A45125  20.607  42.983   6.930
 3350POPC   C4A45126  20.497  43.247   7.275
 3350POPC   C1B45127  20.922  43.236   6.086
 3350POPC   C2B45128  21.094  43.301   6.529
 3350POPC   C3B45129  20.949  43.363   6.970
 3350POPC   C4B45130  20.864  43.553   7.397
 3351POPC   NC345131   3.034  11.580   5.531
 3351POPC   PO445132   2.594  11.089   5.307
 3351POPC   GL145133   2.606  11.327   5.723
 3351POPC   GL245134   2.426  11.643   5.755
 3351POPC   C1A45135   2.798  11.448   6.148
 3351POPC   D2A45136   2.639  11.485   6.590
 3351POPC   C3A45137   2.955  11.380   6.918
 3351POPC   C4A45138   3.057  11.082   7.253
 3351POPC   C1B45139   2.290  11.413   6.146
 3351POPC   C2B45140   2.137  11.548   6.544
 3351POPC   C3B45141   2.201  11.467   6.966
 3351POPC   C4B45142   2.568  11.608   7.176
 3352POPC   NC345143  44.545  18.551   5.084
 3352POPC   PO445144  44.909  17.988   5.340
 3352POPC   GL145145  44.754  18.052   5.790
 3352POPC   GL245146  44.393  17.950   5.899
 3352POPC   C1A45147  44.886  18.363   6.146
 3352POPC   D2A45148  44.907  18.551   6.579
 3352POPC   C3A45149  44.526  18.481   6.854
 3352POPC   C4A45150  44.634  18.467   7.293
 3352POPC   C1B45151  44.440  18.176   6.322
 3352POPC   C2B45152  44.747  18.059   6.661
 3352POPC   C3B45153  44.743  18.010   7.120
 3352POPC   C4B45154  44.863  18.002   7.581
 3353POPC   NC345155  25.765  26.496   5.500
 3353POPC   PO445156  25.785  25.846   5.392
 3353POPC   GL145157  26.008  26.081   5.707
 3353POPC   GL245158  26.333  25.913   5.687
 3353POPC   C1A45159  25.813  26.115   6.130
 3353POPC   D2A45160  25.959  26.159   6.559
 3353POPC   C3A45161  25.992  25.836   6.886
 3353POPC   C4A45162  25.886  26.121   7.201
 3353POPC   C1B45163  26.295  25.916   6.133
 3353POPC   C2B45164  26.516  26.116   6.467
 3353POPC   C3B45165  26.388  26.172   6.863
 3353POPC   C4B45166  26.428  25.901   7.199
 3354POPC   NC345167   8.337  12.484   5.323
 3354POPC   PO445168   7.999  13.137   5.360
 3354POPC   GL145169   8.225  12.856   5.674
 3354POPC   GL245170   8.045  12.568   5.772
 3354POPC   C1A45171   8.398  12.753   6.105
 3354POPC   D2A45172   8.209  13.044   6.377
 3354POPC   C3A45173   8.217  13.051   6.824
 3354POPC   C4A45174   8.328  12.853   7.218
 3354POPC   C1B45175   7.868  12.732   6.130
 3354POPC   C2B45176   7.822  12.776   6.558
 3354POPC   C3B45177   8.078  12.567   6.845
 3354POPC   C4B45178   7.832  12.641   7.180
 3355POPC   NC345179   9.976  16.281   5.396
 3355POPC   PO445180   9.742  15.588   5.360
 3355POPC   GL145181   9.809  15.881   5.715
 3355POPC   GL245182   9.561  16.169   5.701
 3355POPC   C1A45183   9.804  15.810   6.178
 3355POPC   D2A45184   9.585  15.587   6.526
 3355POPC   C3A45185   9.790  15.638   6.933
 3355POPC   C4A45186   9.641  15.764   7.311
 3355POPC   C1B45187   9.630  16.285   6.146
 3355POPC   C2B45188   9.462  16.158   6.561
 3355POPC   C3B45189   9.552  16.205   7.008
 3355POPC   C4B45190   9.936  16.170   7.220
 3356POPC   NC345191  43.597  24.413   5.338
 3356POPC   PO445192  44.189  24.476   5.609
 3356POPC   GL145193  43.786  24.458   5.814
 3356POPC   GL245194  43.568  24.158   5.790
 3356POPC   C1A45195  43.659  24.445   6.232
 3356POPC   D2A45196  43.917  24.335   6.567
 3356POPC   C3A45197  43.896  24.627   6.871
 3356POPC   C4A45198  43.777  24.495   7.265
 3356POPC   C1B45199  43.748  23.960   6.169
 3356POPC   C2B45200  43.632  23.904   6.584
 3356POPC   C3B45201  43.682  24.069   6.979
 3356POPC   C4B45202  44.111  24.126   7.097
 3357POPC   NC345203  41.852   6.997   5.607
 3357POPC   PO445204  41.933   6.399   5.298
 3357POPC   GL145205  41.814   6.476   5.782
 3357POPC   GL245206  41.566   6.660   5.865
 3357POPC   C1A45207  41.662   6.364   6.248
 3357POPC   D2A45208  41.363   6.547   6.566
 3357POPC   C3A45209  41.554   6.538   6.986
 3357POPC   C4A45210  41.422   6.715   7.403
 3357POPC   C1B45211  41.542   6.887   6.224
 3357POPC   C2B45212  41.374   7.067   6.591
 3357POPC   C3B45213  41.245   6.954   6.976
 3357POPC   C4B45214  41.687   7.008   7.101
 3358POPC   NC345215   5.727  44.147   5.306
 3358POPC   PO445216   5.165  44.397   5.299
 3358POPC   GL145217   5.211  44.413   5.760
 3358POPC   GL245218   5.443  44.193   5.898
 3358POPC   C1A45219   5.243  44.580   6.201
 3358POPC   D2A45220   5.419  44.645   6.629
 3358POPC   C3A45221   5.138  44.684   7.018
 3358POPC   C4A45222   4.842  44.615   7.383
 3358POPC   C1B45223   5.704  44.361   6.268
 3358POPC   C2B45224   5.700  44.233   6.698
 3358POPC   C3B45225   5.532  44.339   7.072
 3358POPC   C4B45226   5.629  44.777   7.113
 3359POPC   NC345227  32.540  30.304   5.333
 3359POPC   PO445228  31.990  29.845   5.373
 3359POPC   GL145229  32.086  30.031   5.759
 3359POPC   GL245230  32.430  30.068   5.756
 3359POPC   C1A45231  32.221  29.906   6.171
 3359POPC   D2A45232  32.459  29.733   6.470
 3359POPC   C3A45233  32.300  29.829   6.872
 3359POPC   C4A45234  32.392  29.583   7.202
 3359POPC   C1B45235  32.596  30.289   6.133
 3359POPC   C2B45236  32.450  30.237   6.573
 3359POPC   C3B45237  32.571  30.269   7.005
 3359POPC   C4B45238  32.625  30.028   7.365
 3360POPC   NC345239  13.594  44.371   5.330
 3360POPC   PO445240  13.780   0.032   5.239
 3360POPC   GL145241  13.706  44.796   5.627
 3360POPC   GL245242  13.497   0.044   5.788
 3360POPC   C1A45243  13.718  44.628   6.072
 3360POPC   D2A45244  13.686  44.420   6.493
 3360POPC   C3A45245  13.526  44.580   6.885
 3360POPC   C4A45246  13.678  44.488   7.296
 3360POPC   C1B45247  13.284  44.864   6.179
 3360POPC   C2B45248  13.336  44.962   6.601
 3360POPC   C3B45249  13.474   0.120   6.975
 3360POPC   C4B45250  13.696  44.999   7.332
 3361POPC   NC345251  31.472  37.962   5.217
 3361POPC   PO445252  31.332  37.364   5.541
 3361POPC   GL145253  31.527  37.635   5.811
 3361POPC   GL245254  31.512  37.985   5.723
 3361POPC   C1A45255  31.573  37.506   6.247
 3361POPC   D2A45256  31.644  37.404   6.685
 3361POPC   C3A45257  31.308  37.439   7.013
 3361POPC   C4A45258  31.080  37.795   7.158
 3361POPC   C1B45259  31.402  37.993   6.163
 3361POPC   C2B45260  31.666  37.928   6.526
 3361POPC   C3B45261  31.552  37.888   6.947
 3361POPC   C4B45262  31.801  38.029   7.272
 3362POPC   NC345263  33.164  28.212   5.464
 3362POPC   PO445264  32.799  28.792   5.387
 3362POPC   GL145265  32.709  28.586   5.785
 3362POPC   GL245266  32.940  28.286   5.901
 3362POPC   C1A45267  32.747  28.600   6.233
 3362POPC   D2A45268  32.886  28.248   6.479
 3362POPC   C3A45269  32.824  28.337   6.878
 3362POPC   C4A45270  32.735  28.275   7.292
 3362POPC   C1B45271  33.290  28.183   6.172
 3362POPC   C2B45272  33.417  28.271   6.598
 3362POPC   C3B45273  33.457  28.559   6.924
 3362POPC   C4B45274  33.179  28.536   7.255
 3363POPC   NC345275  25.582  24.103   5.693
 3363POPC   PO445276  25.120  23.628   5.440
 3363POPC   GL145277  25.328  23.677   5.820
 3363POPC   GL245278  25.083  23.904   5.905
 3363POPC   C1A45279  25.473  23.687   6.250
 3363POPC   D2A45280  25.480  23.877   6.673
 3363POPC   C3A45281  25.400  23.582   6.993
 3363POPC   C4A45282  25.229  23.564   7.418
 3363POPC   C1B45283  24.973  23.693   6.308
 3363POPC   C2B45284  24.957  23.765   6.755
 3363POPC   C3B45285  25.127  23.978   7.113
 3363POPC   C4B45286  25.113  24.069   7.551
 3364POPC   NC345287  33.364  29.855   5.110
 3364POPC   PO445288  34.024  30.018   5.249
 3364POPC   GL145289  33.809  29.907   5.653
 3364POPC   GL245290  33.649  30.226   5.741
 3364POPC   C1A45291  33.785  29.729   6.110
 3364POPC   D2A45292  33.923  29.584   6.544
 3364POPC   C3A45293  33.700  29.849   6.886
 3364POPC   C4A45294  33.625  29.846   7.377
 3364POPC   C1B45295  34.033  30.222   6.038
 3364POPC   C2B45296  34.255  30.402   6.430
 3364POPC   C3B45297  34.230  30.308   6.890
 3364POPC   C4B45298  33.808  30.274   7.146
 3365POPC   NC345299  15.897   0.019   5.524
 3365POPC   PO445300  16.445   0.290   5.237
 3365POPC   GL145301  16.146   0.429   5.663
 3365POPC   GL245302  15.929   0.724   5.709
 3365POPC   C1A45303  15.918   0.326   6.084
 3365POPC   D2A45304  15.858   0.489   6.494
 3365POPC   C3A45305  15.532   0.408   6.773
 3365POPC   C4A45306  15.648   0.221   7.156
 3365POPC   C1B45307  16.148   0.774   6.154
 3365POPC   C2B45308  16.161   0.866   6.640
 3365POPC   C3B45309  16.212   0.605   7.053
 3365POPC   C4B45310  16.257   0.715   7.535
 3366POPC   NC345311  29.020  32.467   5.548
 3366POPC   PO445312  29.578  32.020   5.489
 3366POPC   GL145313  29.394  32.200   5.855
 3366POPC   GL245314  29.124  31.970   5.851
 3366POPC   C1A45315  29.121  32.357   6.233
 3366POPC   D2A45316  28.855  32.291   6.610
 3366POPC   C3A45317  28.937  32.508   6.960
 3366POPC   C4A45318  29.366  32.511   7.085
 3366POPC   C1B45319  29.347  31.904   6.269
 3366POPC   C2B45320  29.344  32.126   6.688
 3366POPC   C3B45321  29.060  32.015   7.024
 3366POPC   C4B45322  29.078  31.634   7.282
 3367POPC   NC345323  25.507  36.404   5.336
 3367POPC   PO445324  24.927  36.106   5.422
 3367POPC   GL145325  25.100  35.885   5.782
 3367POPC   GL245326  25.411  36.008   5.663
 3367POPC   C1A45327  25.156  35.953   6.274
 3367POPC   D2A45328  25.041  36.251   6.653
 3367POPC   C3A45329  25.118  36.142   7.075
 3367POPC   C4A45330  25.135  35.714   7.198
 3367POPC   C1B45331  25.574  36.116   6.046
 3367POPC   C2B45332  25.580  36.136   6.508
 3367POPC   C3B45333  25.475  35.905   6.823
 3367POPC   C4B45334  25.588  35.922   7.232
 3368POPC   NC345335  33.823  25.028   5.672
 3368POPC   PO445336  33.327  25.330   5.378
 3368POPC   GL145337  33.432  25.468   5.783
 3368POPC   GL245338  33.366  25.130   5.863
 3368POPC   C1A45339  33.572  25.567   6.218
 3368POPC   D2A45340  33.964  25.488   6.470
 3368POPC   C3A45341  33.927  25.376   6.919
 3368POPC   C4A45342  33.520  25.375   7.130
 3368POPC   C1B45343  33.525  25.052   6.252
 3368POPC   C2B45344  33.476  25.229   6.623
 3368POPC   C3B45345  33.304  24.915   6.852
 3368POPC   C4B45346  33.542  24.864   7.187
 3369POPC   NC345347  41.187  18.772   5.565
 3369POPC   PO445348  40.508  18.962   5.345
 3369POPC   GL145349  40.784  19.087   5.719
 3369POPC   GL245350  40.781  19.441   5.721
 3369POPC   C1A45351  40.905  18.997   6.182
 3369POPC   D2A45352  40.983  18.929   6.655
 3369POPC   C3A45353  40.773  18.754   7.020
 3369POPC   C4A45354  40.792  18.927   7.441
 3369POPC   C1B45355  40.930  19.501   6.122
 3369POPC   C2B45356  40.884  19.426   6.556
 3369POPC   C3B45357  40.972  19.314   6.987
 3369POPC   C4B45358  41.098  19.372   7.436
 3370POPC   NC345359   2.642  35.381   5.014
 3370POPC   PO445360   2.027  35.548   5.251
 3370POPC   GL145361   1.999  35.500   5.735
 3370POPC   GL245362   1.899  35.154   5.895
 3370POPC   C1A45363   2.154  35.493   6.186
 3370POPC   D2A45364   2.078  35.627   6.611
 3370POPC   C3A45365   1.878  35.334   6.917
 3370POPC   C4A45366   1.813  35.359   7.381
 3370POPC   C1B45367   2.128  34.950   6.264
 3370POPC   C2B45368   1.921  34.839   6.713
 3370POPC   C3B45369   1.773  34.886   7.143
 3370POPC   C4B45370   1.891  34.876   7.577
 3371POPC   NC345371  22.387  24.691   5.468
 3371POPC   PO445372  22.422  24.067   5.661
 3371POPC   GL145373  22.053  24.251   5.849
 3371POPC   GL245374  22.011  24.606   5.860
 3371POPC   C1A45375  22.138  24.356   6.295
 3371POPC   D2A45376  22.399  24.157   6.608
 3371POPC   C3A45377  22.246  24.239   7.000
 3371POPC   C4A45378  21.926  24.410   7.257
 3371POPC   C1B45379  22.119  24.872   6.238
 3371POPC   C2B45380  22.320  24.737   6.626
 3371POPC   C3B45381  22.245  24.766   7.082
 3371POPC   C4B45382  22.314  24.592   7.534
 3372POPC   NC345383  40.396   4.065   5.005
 3372POPC   PO445384  40.061   4.424   5.523
 3372POPC   GL145385  40.006   4.187   5.853
 3372POPC   GL245386  39.673   3.994   5.811
 3372POPC   C1A45387  40.148   4.410   6.223
 3372POPC   D2A45388  40.249   4.693   6.562
 3372POPC   C3A45389  40.310   4.474   6.936
 3372POPC   C4A45390  39.964   4.379   7.178
 3372POPC   C1B45391  39.740   4.115   6.262
 3372POPC   C2B45392  39.913   4.204   6.664
 3372POPC   C3B45393  39.867   3.898   7.007
 3372POPC   C4B45394  39.857   3.955   7.436
 3373POPC   NC345395  31.267   4.136   5.497
 3373POPC   PO445396  31.526   3.603   5.800
 3373POPC   GL145397  31.348   4.014   5.981
 3373POPC   GL245398  30.996   4.022   5.931
 3373POPC   C1A45399  31.233   4.355   6.297
 3373POPC   D2A45400  31.240   4.222   6.741
 3373POPC   C3A45401  31.358   4.366   7.149
 3373POPC   C4A45402  31.405   4.264   7.608
 3373POPC   C1B45403  30.922   3.952   6.397
 3373POPC   C2B45404  30.793   4.017   6.840
 3373POPC   C3B45405  30.977   3.944   7.256
 3373POPC   C4B45406  30.902   4.124   7.682
 3374POPC   NC345407  41.444  20.848   5.412
 3374POPC   PO445408  41.792  20.265   5.297
 3374POPC   GL145409  41.570  20.411   5.732
 3374POPC   GL245410  41.685  20.698   5.926
 3374POPC   C1A45411  41.279  20.501   6.119
 3374POPC   D2A45412  41.300  20.354   6.521
 3374POPC   C3A45413  41.386  20.609   6.861
 3374POPC   C4A45414  41.161  20.660   7.216
 3374POPC   C1B45415  41.872  20.481   6.306
 3374POPC   C2B45416  41.885  20.450   6.777
 3374POPC   C3B45417  41.764  20.519   7.210
 3374POPC   C4B45418  41.938  20.327   7.577
 3375POPC   NC345419  44.411  17.011   5.399
 3375POPC   PO445420  44.650  16.379   5.392
 3375POPC   GL145421  44.479  16.584   5.708
 3375POPC   GL245422  44.751  16.835   5.733
 3375POPC   C1A45423  44.644  16.482   6.112
 3375POPC   D2A45424  44.575  16.613   6.518
 3375POPC   C3A45425  44.879  16.628   6.819
 3375POPC   C4A45426  44.671  16.742   7.196
 3375POPC   C1B45427  44.814  17.032   6.126
 3375POPC   C2B45428   0.018  17.058   6.532
 3375POPC   C3B45429  44.946  17.119   6.970
 3375POPC   C4B45430   0.182  16.788   7.209
 3376POPC   NC345431  28.743  31.041   5.536
 3376POPC   PO445432  28.487  30.549   5.157
 3376POPC   GL145433  28.571  30.522   5.651
 3376POPC   GL245434  28.308  30.344   5.875
 3376POPC   C1A45435  28.657  30.710   6.098
 3376POPC   D2A45436  28.622  30.929   6.530
 3376POPC   C3A45437  28.528  30.685   6.944
 3376POPC   C4A45438  28.473  30.852   7.393
 3376POPC   C1B45439  28.160  30.648   6.149
 3376POPC   C2B45440  28.118  30.725   6.582
 3376POPC   C3B45441  28.022  30.769   7.017
 3376POPC   C4B45442  28.087  30.523   7.391
 3377POPC   NC345443  16.773   2.368   5.351
 3377POPC   PO445444  17.014   1.680   5.387
 3377POPC   GL145445  16.856   1.719   5.808
 3377POPC   GL245446  16.788   2.067   5.804
 3377POPC   C1A45447  16.914   1.802   6.235
 3377POPC   D2A45448  16.642   1.783   6.591
 3377POPC   C3A45449  16.905   1.756   6.947
 3377POPC   C4A45450  17.069   1.803   7.349
 3377POPC   C1B45451  16.443   1.993   6.112
 3377POPC   C2B45452  16.352   2.228   6.483
 3377POPC   C3B45453  16.290   2.080   6.892
 3377POPC   C4B45454  16.379   2.227   7.321
 3378POPC   NC345455  26.468  41.907   5.624
 3378POPC   PO445456  26.778  41.594   5.164
 3378POPC   GL145457  26.840  41.510   5.638
 3378POPC   GL245458  26.516  41.355   5.810
 3378POPC   C1A45459  27.110  41.499   6.041
 3378POPC   D2A45460  27.232  41.360   6.483
 3378POPC   C3A45461  27.137  41.524   6.911
 3378POPC   C4A45462  26.808  41.777   7.125
 3378POPC   C1B45463  26.687  41.267   6.236
 3378POPC   C2B45464  26.732  41.351   6.690
 3378POPC   C3B45465  26.732  41.262   7.162
 3378POPC   C4B45466  26.493  41.125   7.584
 3379POPC   NC345467  29.845   3.719   5.199
 3379POPC   PO445468  30.287   3.367   5.591
 3379POPC   GL145469  29.994   3.449   5.896
 3379POPC   GL245470  29.842   3.701   5.714
 3379POPC   C1A45471  29.906   3.439   6.320
 3379POPC   D2A45472  30.098   3.715   6.613
 3379POPC   C3A45473  30.308   3.510   6.951
 3379POPC   C4A45474  30.553   3.625   7.320
 3379POPC   C1B45475  29.683   3.832   6.123
 3379POPC   C2B45476  29.584   3.737   6.609
 3379POPC   C3B45477  29.790   3.697   7.033
 3379POPC   C4B45478  30.056   3.710   7.404
 3380POPC   NC345479   0.722  40.150   5.350
 3380POPC   PO445480   0.342  39.641   5.462
 3380POPC   GL145481   0.560  39.814   5.830
 3380POPC   GL245482   0.563  40.204   5.849
 3380POPC   C1A45483   0.423  39.888   6.285
 3380POPC   D2A45484   0.133  39.967   6.665
 3380POPC   C3A45485   0.306  39.945   7.107
 3380POPC   C4A45486   0.673  39.673   7.318
 3380POPC   C1B45487   0.615  40.372   6.272
 3380POPC   C2B45488   0.504  40.349   6.725
 3380POPC   C3B45489   0.730  40.207   7.090
 3380POPC   C4B45490   0.698  40.174   7.550
 3381POPC   NC345491  24.398  18.035   5.407
 3381POPC   PO445492  24.581  17.432   5.228
 3381POPC   GL145493  24.691  17.339   5.678
 3381POPC   GL245494  24.549  17.647   5.754
 3381POPC   C1A45495  24.739  17.398   6.155
 3381POPC   D2A45496  24.438  17.315   6.509
 3381POPC   C3A45497  24.568  17.393   6.937
 3381POPC   C4A45498  24.897  17.584   7.194
 3381POPC   C1B45499  24.236  17.548   6.100
 3381POPC   C2B45500  24.145  17.759   6.533
 3381POPC   C3B45501  24.425  17.899   6.886
 3381POPC   C4B45502  24.422  17.743   7.320
 3382POPC   NC345503  35.292  27.331   5.528
 3382POPC   PO445504  35.609  27.846   5.303
 3382POPC   GL145505  35.339  27.836   5.694
 3382POPC   GL245506  35.030  27.680   5.776
 3382POPC   C1A45507  35.368  27.735   6.165
 3382POPC   D2A45508  35.593  27.738   6.579
 3382POPC   C3A45509  35.587  27.561   6.976
 3382POPC   C4A45510  35.349  27.704   7.332
 3382POPC   C1B45511  34.982  27.399   6.148
 3382POPC   C2B45512  35.192  27.388   6.544
 3382POPC   C3B45513  35.086  27.472   6.962
 3382POPC   C4B45514  34.907  27.491   7.371
 3383POPC   NC345515  38.272   5.233   5.588
 3383POPC   PO445516  38.906   4.957   5.435
 3383POPC   GL145517  38.723   5.028   5.806
 3383POPC   GL245518  38.879   5.315   5.888
 3383POPC   C1A45519  38.622   4.914   6.228
 3383POPC   D2A45520  38.696   5.113   6.612
 3383POPC   C3A45521  38.460   5.004   6.948
 3383POPC   C4A45522  38.720   4.827   7.281
 3383POPC   C1B45523  38.558   5.400   6.193
 3383POPC   C2B45524  38.214   5.301   6.488
 3383POPC   C3B45525  38.132   5.441   6.931
 3383POPC   C4B45526  38.407   5.392   7.269
 3384POPC   NC345527  31.598  31.213   5.444
 3384POPC   PO445528  31.348  31.851   5.444
 3384POPC   GL145529  31.459  31.571   5.816
 3384POPC   GL245530  31.796  31.650   5.841
 3384POPC   C1A45531  31.366  31.517   6.290
 3384POPC   D2A45532  31.430  31.744   6.687
 3384POPC   C3A45533  31.247  31.546   7.049
 3384POPC   C4A45534  31.110  31.124   7.180
 3384POPC   C1B45535  31.888  31.426   6.224
 3384POPC   C2B45536  31.733  31.303   6.660
 3384POPC   C3B45537  31.720  31.342   7.125
 3384POPC   C4B45538  31.851  31.460   7.560
 3385POPC   NC345539  20.007  38.551   5.444
 3385POPC   PO445540  19.803  37.935   5.458
 3385POPC   GL145541  19.902  38.150   5.818
 3385POPC   GL245542  20.252  38.130   5.889
 3385POPC   C1A45543  19.795  38.303   6.217
 3385POPC   D2A45544  20.050  38.363   6.579
 3385POPC   C3A45545  19.864  38.393   6.956
 3385POPC   C4A45546  19.688  38.034   7.161
 3385POPC   C1B45547  20.263  38.533   6.132
 3385POPC   C2B45548  20.315  38.791   6.518
 3385POPC   C3B45549  20.384  38.620   6.922
 3385POPC   C4B45550  20.262  38.661   7.337
 3386POPC   NC345551  38.932  20.784   5.441
 3386POPC   PO445552  39.369  20.392   5.036
 3386POPC   GL145553  39.281  20.405   5.550
 3386POPC   GL245554  39.555  20.278   5.750
 3386POPC   C1A45555  39.240  20.501   6.058
 3386POPC   D2A45556  39.437  20.697   6.456
 3386POPC   C3A45557  39.207  20.851   6.828
 3386POPC   C4A45558  39.298  20.781   7.269
 3386POPC   C1B45559  39.466  20.025   6.131
 3386POPC   C2B45560  39.219  20.146   6.479
 3386POPC   C3B45561  39.215  20.331   6.874
 3386POPC   C4B45562  39.414  20.309   7.305
 3387POPC   NC345563  27.081  17.606   5.328
 3387POPC   PO445564  26.456  17.573   5.131
 3387POPC   GL145565  26.578  17.605   5.622
 3387POPC   GL245566  26.857  17.820   5.750
 3387POPC   C1A45567  26.668  17.476   6.091
 3387POPC   D2A45568  26.855  17.573   6.538
 3387POPC   C3A45569  26.742  17.457   6.941
 3387POPC   C4A45570  26.471  17.149   7.061
 3387POPC   C1B45571  27.093  17.779   6.152
 3387POPC   C2B45572  27.302  17.856   6.532
 3387POPC   C3B45573  27.152  17.790   6.957
 3387POPC   C4B45574  27.047  17.915   7.402
 3388POPC   NC345575  37.748  34.873   5.395
 3388POPC   PO445576  37.187  34.447   5.463
 3388POPC   GL145577  37.374  34.497   5.872
 3388POPC   GL245578  37.589  34.774   5.866
 3388POPC   C1A45579  37.651  34.257   6.152
 3388POPC   D2A45580  37.823  34.308   6.545
 3388POPC   C3A45581  37.471  34.355   6.799
 3388POPC   C4A45582  37.590  34.303   7.160
 3388POPC   C1B45583  37.830  34.724   6.229
 3388POPC   C2B45584  37.702  34.788   6.645
 3388POPC   C3B45585  37.602  35.132   6.810
 3388POPC   C4B45586  37.946  35.129   7.065
 3389POPC   NC345587  27.207  15.237   5.325
 3389POPC   PO445588  27.779  14.992   5.344
 3389POPC   GL145589  27.640  15.267   5.758
 3389POPC   GL245590  27.257  15.315   5.825
 3389POPC   C1A45591  27.822  15.351   6.216
 3389POPC   D2A45592  27.669  15.366   6.652
 3389POPC   C3A45593  27.893  15.292   7.047
 3389POPC   C4A45594  27.795  15.172   7.466
 3389POPC   C1B45595  27.287  15.384   6.270
 3389POPC   C2B45596  27.141  15.418   6.714
 3389POPC   C3B45597  27.360  15.283   7.098
 3389POPC   C4B45598  27.322  15.301   7.570
 3390POPC   NC345599  39.257  39.884   5.414
 3390POPC   PO445600  39.674  40.412   5.312
 3390POPC   GL145601  39.450  40.261   5.708
 3390POPC   GL245602  39.073  40.294   5.705
 3390POPC   C1A45603  39.372  39.977   6.085
 3390POPC   D2A45604  39.087  39.766   6.366
 3390POPC   C3A45605  39.122  39.816   6.811
 3390POPC   C4A45606  39.109  39.731   7.263
 3390POPC   C1B45607  38.921  40.230   6.128
 3390POPC   C2B45608  38.760  40.153   6.548
 3390POPC   C3B45609  38.891  40.242   6.976
 3390POPC   C4B45610  38.973  40.196   7.434
 3391POPC   NC345611  43.277  21.288   5.368
 3391POPC   PO445612  42.657  21.589   5.607
 3391POPC   GL145613  42.923  21.298   5.812
 3391POPC   GL245614  43.290  21.304   5.868
 3391POPC   C1A45615  42.909  21.281   6.247
 3391POPC   D2A45616  42.726  21.100   6.607
 3391POPC   C3A45617  42.916  21.357   6.957
 3391POPC   C4A45618  42.980  21.781   7.153
 3391POPC   C1B45619  43.574  21.239   6.197
 3391POPC   C2B45620  43.626  21.520   6.549
 3391POPC   C3B45621  43.418  21.533   6.947
 3391POPC   C4B45622  43.368  21.159   7.209
 3392POPC   NC345623  35.216   8.559   5.572
 3392POPC   PO445624  35.210   7.935   5.336
 3392POPC   GL145625  35.425   8.059   5.738
 3392POPC   GL245626  35.790   8.157   5.771
 3392POPC   C1A45627  35.310   8.205   6.147
 3392POPC   D2A45628  35.059   8.115   6.511
 3392POPC   C3A45629  35.180   8.424   6.818
 3392POPC   C4A45630  35.324   8.264   7.180
 3392POPC   C1B45631  35.765   7.958   6.195
 3392POPC   C2B45632  35.603   8.163   6.577
 3392POPC   C3B45633  35.737   8.076   6.985
 3392POPC   C4B45634  35.811   8.281   7.351
 3393POPC   NC345635   1.426  11.637   5.579
 3393POPC   PO445636   1.179  10.964   5.678
 3393POPC   GL145637   1.180  11.298   5.858
 3393POPC   GL245638   0.943  11.474   5.669
 3393POPC   C1A45639   1.335  11.373   6.268
 3393POPC   D2A45640   1.320  10.991   6.506
 3393POPC   C3A45641   1.326  10.992   6.955
 3393POPC   C4A45642   1.187  10.863   7.382
 3393POPC   C1B45643   0.918  11.647   6.106
 3393POPC   C2B45644   0.909  11.523   6.557
 3393POPC   C3B45645   0.903  11.660   6.975
 3393POPC   C4B45646   1.116  11.374   7.239
 3394POPC   NC345647  40.419  44.092   5.491
 3394POPC   PO445648  39.925  43.582   5.405
 3394POPC   GL145649  39.916  43.724   5.815
 3394POPC   GL245650  40.281  43.787   5.874
 3394POPC   C1A45651  39.827  43.949   6.203
 3394POPC   D2A45652  40.128  44.041   6.539
 3394POPC   C3A45653  39.993  44.127   6.961
 3394POPC   C4A45654  39.669  43.937   7.226
 3394POPC   C1B45655  40.208  43.600   6.261
 3394POPC   C2B45656  39.917  43.548   6.594
 3394POPC   C3B45657  40.013  43.601   7.008
 3394POPC   C4B45658  40.367  43.475   7.213
 3395POPC   NC345659   2.271  40.792   5.018
 3395POPC   PO445660   2.817  40.609   5.413
 3395POPC   GL145661   2.687  40.632   5.822
 3395POPC   GL245662   2.659  41.003   5.750
 3395POPC   C1A45663   2.771  40.490   6.222
 3395POPC   D2A45664   2.527  40.628   6.564
 3395POPC   C3A45665   2.739  40.517   6.913
 3395POPC   C4A45666   2.919  40.588   7.289
 3395POPC   C1B45667   2.762  40.994   6.179
 3395POPC   C2B45668   2.966  40.905   6.541
 3395POPC   C3B45669   2.813  41.014   6.954
 3395POPC   C4B45670   2.680  41.167   7.329
 3396POPC   NC345671  10.139  24.863   5.356
 3396POPC   PO445672   9.698  25.342   5.414
 3396POPC   GL145673   9.951  25.219   5.733
 3396POPC   GL245674   9.871  25.524   5.882
 3396POPC   C1A45675   9.910  24.967   6.128
 3396POPC   D2A45676  10.023  25.016   6.579
 3396POPC   C3A45677   9.689  25.168   6.874
 3396POPC   C4A45678   9.347  25.334   7.147
 3396POPC   C1B45679   9.677  25.419   6.247
 3396POPC   C2B45680   9.934  25.541   6.560
 3396POPC   C3B45681   9.924  25.730   6.925
 3396POPC   C4B45682   9.806  25.490   7.268
 3397POPC   NC345683  41.399  20.044   5.373
 3397POPC   PO445684  41.897  19.648   5.660
 3397POPC   GL145685  41.580  19.872   5.795
 3397POPC   GL245686  41.282  19.658   5.739
 3397POPC   C1A45687  41.565  20.088   6.142
 3397POPC   D2A45688  41.782  19.999   6.499
 3397POPC   C3A45689  41.552  20.072   6.850
 3397POPC   C4A45690  41.631  20.043   7.243
 3397POPC   C1B45691  41.436  19.589   6.177
 3397POPC   C2B45692  41.353  19.641   6.608
 3397POPC   C3B45693  41.295  19.685   7.049
 3397POPC   C4B45694  41.573  19.565   7.359
 3398POPC   NC345695   9.627   5.960   5.259
 3398POPC   PO445696  10.245   5.766   5.400
 3398POPC   GL145697   9.882   5.760   5.658
 3398POPC   GL245698   9.794   6.103   5.771
 3398POPC   C1A45699   9.569   5.671   5.980
 3398POPC   D2A45700   9.561   5.683   6.442
 3398POPC   C3A45701   9.382   5.772   6.845
 3398POPC   C4A45702   9.611   5.709   7.249
 3398POPC   C1B45703   9.585   6.153   6.196
 3398POPC   C2B45704   9.714   6.126   6.652
 3398POPC   C3B45705   9.568   6.191   7.089
 3398POPC   C4B45706   9.535   6.325   7.542
 3399POPC   NC345707  37.543  23.170   5.479
 3399POPC   PO445708  38.067  22.790   5.317
 3399POPC   GL145709  37.838  22.803   5.742
 3399POPC   GL245710  37.461  22.718   5.749
 3399POPC   C1A45711  37.769  22.989   6.190
 3399POPC   D2A45712  37.762  23.209   6.625
 3399POPC   C3A45713  37.863  22.965   7.024
 3399POPC   C4A45714  37.786  22.953   7.477
 3399POPC   C1B45715  37.293  22.829   6.180
 3399POPC   C2B45716  37.192  22.924   6.646
 3399POPC   C3B45717  37.353  22.822   7.088
 3399POPC   C4B45718  37.486  22.532   7.440
 3400POPC   NC345719  40.270  10.188   5.333
 3400POPC   PO445720  39.704   9.968   5.406
 3400POPC   GL145721  39.952  10.219   5.767
 3400POPC   GL245722  40.285  10.106   5.886
 3400POPC   C1A45723  40.003  10.427   6.223
 3400POPC   D2A45724  39.877  10.668   6.630
 3400POPC   C3A45725  39.888  10.483   7.051
 3400POPC   C4A45726  39.635  10.453   7.442
 3400POPC   C1B45727  40.399  10.109   6.339
 3400POPC   C2B45728  40.337  10.422   6.694
 3400POPC   C3B45729  40.396  10.520   7.151
 3400POPC   C4B45730  40.525  10.413   7.589
 3401POPC   NC345731  25.524   2.257   5.505
 3401POPC   PO445732  24.976   1.856   5.474
 3401POPC   GL145733  25.036   1.902   5.865
 3401POPC   GL245734  25.386   1.814   5.828
 3401POPC   C1A45735  25.200   2.110   6.246
 3401POPC   D2A45736  25.475   1.941   6.567
 3401POPC   C3A45737  25.322   2.052   6.979
 3401POPC   C4A45738  25.008   2.235   7.190
 3401POPC   C1B45739  25.240   1.607   6.235
 3401POPC   C2B45740  25.106   1.448   6.646
 3401POPC   C3B45741  25.219   1.531   7.077
 3401POPC   C4B45742  25.509   1.742   7.345
 3402POPC   NC345743  30.394   3.006   5.292
 3402POPC   PO445744  30.905   2.710   5.227
 3402POPC   GL145745  30.686   2.725   5.664
 3402POPC   GL245746  30.649   3.057   5.802
 3402POPC   C1A45747  30.452   2.625   6.093
 3402POPC   D2A45748  30.489   2.803   6.550
 3402POPC   C3A45749  30.496   2.553   6.963
 3402POPC   C4A45750  30.783   2.424   7.291
 3402POPC   C1B45751  30.868   2.899   6.187
 3402POPC   C2B45752  30.992   2.846   6.630
 3402POPC   C3B45753  30.849   2.960   7.045
 3402POPC   C4B45754  30.839   3.232   7.414
 3403POPC   NC345755   4.791  20.025   5.440
 3403POPC   PO445756   4.868  19.347   5.384
 3403POPC   GL145757   4.991  19.638   5.714
 3403POPC   GL245758   5.256  19.900   5.595
 3403POPC   C1A45759   4.959  19.588   6.175
 3403POPC   D2A45760   5.121  19.613   6.582
 3403POPC   C3A45761   4.831  19.542   6.900
 3403POPC   C4A45762   4.659  19.642   7.319
 3403POPC   C1B45763   5.140  20.033   6.020
 3403POPC   C2B45764   5.066  20.099   6.462
 3403POPC   C3B45765   5.324  20.053   6.830
 3403POPC   C4B45766   5.044  19.933   7.162
 3404POPC   NC345767  21.473  39.266   5.392
 3404POPC   PO445768  20.993  39.176   5.741
 3404POPC   GL145769  21.344  39.338   5.967
 3404POPC   GL245770  21.702  39.314   5.858
 3404POPC   C1A45771  21.516  39.452   6.359
 3404POPC   D2A45772  21.380  39.597   6.732
 3404POPC   C3A45773  21.562  39.367   7.045
 3404POPC   C4A45774  21.564  39.424   7.485
 3404POPC   C1B45775  21.690  39.005   6.206
 3404POPC   C2B45776  21.546  39.026   6.655
 3404POPC   C3B45777  21.712  38.878   7.055
 3404POPC   C4B45778  21.708  38.936   7.531
 3405POPC   NC345779   5.881  15.446   5.461
 3405POPC   PO445780   5.990  14.802   5.467
 3405POPC   GL145781   5.912  14.973   5.823
 3405POPC   GL245782   6.173  15.198   5.783
 3405POPC   C1A45783   5.796  14.853   6.235
 3405POPC   D2A45784   5.932  14.637   6.616
 3405POPC   C3A45785   5.782  14.881   6.899
 3405POPC   C4A45786   5.728  15.050   7.259
 3405POPC   C1B45787   6.058  15.304   6.188
 3405POPC   C2B45788   6.149  15.115   6.575
 3405POPC   C3B45789   6.248  15.097   6.985
 3405POPC   C4B45790   6.147  15.289   7.392
 3406POPC   NC345791  12.496   0.367   5.189
 3406POPC   PO445792  13.071   0.721   5.389
 3406POPC   GL145793  13.056   0.440   5.673
 3406POPC   GL245794  12.746   0.356   5.654
 3406POPC   C1A45795  13.184   0.339   6.057
 3406POPC   D2A45796  12.946   0.229   6.395
 3406POPC   C3A45797  13.053   0.390   6.785
 3406POPC   C4A45798  12.952   0.197   7.158
 3406POPC   C1B45799  12.752   0.607   6.070
 3406POPC   C2B45800  12.653   0.630   6.542
 3406POPC   C3B45801  12.571   0.543   7.018
 3406POPC   C4B45802  12.414   0.750   7.430
 3407POPC   NC345803  21.086  36.033   5.264
 3407POPC   PO445804  20.778  36.514   5.412
 3407POPC   GL145805  20.739  36.112   5.671
 3407POPC   GL245806  20.956  35.832   5.727
 3407POPC   C1A45807  20.568  35.987   6.083
 3407POPC   D2A45808  20.596  36.193   6.497
 3407POPC   C3A45809  20.403  36.018   6.864
 3407POPC   C4A45810  20.266  35.963   7.284
 3407POPC   C1B45811  21.079  36.017   6.123
 3407POPC   C2B45812  21.013  35.906   6.557
 3407POPC   C3B45813  20.926  36.122   6.930
 3407POPC   C4B45814  20.984  35.938   7.330
 3408POPC   NC345815  27.026  21.913   5.439
 3408POPC   PO445816  26.480  22.353   5.420
 3408POPC   GL145817  26.718  22.233   5.769
 3408POPC   GL245818  27.024  22.437   5.806
 3408POPC   C1A45819  26.907  22.021   6.121
 3408POPC   D2A45820  27.058  22.168   6.509
 3408POPC   C3A45821  26.882  22.111   6.938
 3408POPC   C4A45822  27.076  22.199   7.329
 3408POPC   C1B45823  26.792  22.533   6.213
 3408POPC   C2B45824  26.748  22.543   6.671
 3408POPC   C3B45825  26.822  22.604   7.101
 3408POPC   C4B45826  26.422  22.494   7.264
 3409POPC   NC345827   9.222  20.120   5.483
 3409POPC   PO445828   8.828  19.579   5.524
 3409POPC   GL145829   8.824  19.702   5.930
 3409POPC   GL245830   9.103  19.920   5.968
 3409POPC   C1A45831   8.674  19.753   6.356
 3409POPC   D2A45832   8.668  19.821   6.797
 3409POPC   C3A45833   9.002  19.583   7.002
 3409POPC   C4A45834   9.409  19.633   7.173
 3409POPC   C1B45835   8.721  20.196   6.101
 3409POPC   C2B45836   8.643  20.405   6.509
 3409POPC   C3B45837   8.845  20.314   6.903
 3409POPC   C4B45838   8.910  20.019   7.220
 3410POPC   NC345839  24.953  31.160   5.170
 3410POPC   PO445840  24.241  31.250   5.138
 3410POPC   GL145841  24.268  31.383   5.607
 3410POPC   GL245842  24.605  31.397   5.689
 3410POPC   C1A45843  24.325  31.461   6.095
 3410POPC   D2A45844  24.187  31.346   6.505
 3410POPC   C3A45845  24.288  31.627   6.854
 3410POPC   C4A45846  24.175  31.670   7.287
 3410POPC   C1B45847  24.842  31.432   6.073
 3410POPC   C2B45848  24.716  31.433   6.495
 3410POPC   C3B45849  24.794  31.511   6.914
 3410POPC   C4B45850  24.603  31.416   7.276
 3411POPC   NC345851  35.746  34.126   5.575
 3411POPC   PO445852  36.366  33.833   5.537
 3411POPC   GL145853  36.132  33.825   5.857
 3411POPC   GL245854  36.390  33.677   6.039
 3411POPC   C1A45855  36.029  34.101   6.168
 3411POPC   D2A45856  35.899  33.956   6.518
 3411POPC   C3A45857  36.047  34.144   6.877
 3411POPC   C4A45858  36.023  34.020   7.284
 3411POPC   C1B45859  36.444  33.892   6.397
 3411POPC   C2B45860  36.290  33.693   6.754
 3411POPC   C3B45861  36.410  33.702   7.176
 3411POPC   C4B45862  36.329  33.720   7.608
 3412POPC   NC345863   4.947  10.039   5.478
 3412POPC   PO445864   5.307   9.520   5.515
 3412POPC   GL145865   5.225   9.804   5.859
 3412POPC   GL245866   4.946   9.594   5.959
 3412POPC   C1A45867   5.293   9.907   6.289
 3412POPC   D2A45868   5.045   9.679   6.591
 3412POPC   C3A45869   5.107   9.707   7.013
 3412POPC   C4A45870   5.349  10.005   7.227
 3412POPC   C1B45871   4.777   9.932   6.223
 3412POPC   C2B45872   4.585   9.934   6.656
 3412POPC   C3B45873   4.655  10.022   7.104
 3412POPC   C4B45874   4.649  10.039   7.572
 3413POPC   NC345875  15.897  41.703   5.330
 3413POPC   PO445876  15.657  42.279   5.150
 3413POPC   GL145877  15.691  42.289   5.648
 3413POPC   GL245878  16.043  42.379   5.811
 3413POPC   C1A45879  15.633  42.379   6.113
 3413POPC   D2A45880  15.978  42.427   6.438
 3413POPC   C3A45881  15.939  42.340   6.893
 3413POPC   C4A45882  15.996  42.524   7.292
 3413POPC   C1B45883  16.035  42.010   6.130
 3413POPC   C2B45884  16.159  41.978   6.597
 3413POPC   C3B45885  16.133  41.889   7.066
 3413POPC   C4B45886  16.015  42.054   7.481
 3414POPC   NC345887  42.747  35.666   5.090
 3414POPC   PO445888  43.181  35.415   5.523
 3414POPC   GL145889  42.912  35.232   5.813
 3414POPC   GL245890  42.901  34.883   5.850
 3414POPC   C1A45891  42.903  35.405   6.217
 3414POPC   D2A45892  43.175  35.649   6.517
 3414POPC   C3A45893  43.067  35.732   6.959
 3414POPC   C4A45894  43.372  35.588   7.251
 3414POPC   C1B45895  43.158  34.933   6.196
 3414POPC   C2B45896  43.186  35.132   6.555
 3414POPC   C3B45897  43.065  35.222   6.931
 3414POPC   C4B45898  43.174  34.904   7.222
 3415POPC   NC345899  30.251  30.230   5.447
 3415POPC   PO445900  29.777  29.731   5.476
 3415POPC   GL145901  29.811  29.935   5.862
 3415POPC   GL245902  30.114  30.110   5.948
 3415POPC   C1A45903  29.726  29.874   6.287
 3415POPC   D2A45904  29.876  29.722   6.683
 3415POPC   C3A45905  29.768  30.029   6.989
 3415POPC   C4A45906  29.749  30.307   7.374
 3415POPC   C1B45907  30.222  29.762   6.252
 3415POPC   C2B45908  30.388  29.792   6.691
 3415POPC   C3B45909  30.237  29.875   7.107
 3415POPC   C4B45910  30.271  29.815   7.574
 3416POPC   NC345911  34.381   9.786   5.301
 3416POPC   PO445912  35.031   9.708   5.366
 3416POPC   GL145913  34.722   9.743   5.708
 3416POPC   GL245914  34.348   9.733   5.806
 3416POPC   C1A45915  34.740   9.743   6.143
 3416POPC   D2A45916  34.974   9.706   6.509
 3416POPC   C3A45917  34.791   9.464   6.830
 3416POPC   C4A45918  34.747   9.754   7.162
 3416POPC   C1B45919  34.289   9.934   6.221
 3416POPC   C2B45920  34.452   9.807   6.644
 3416POPC   C3B45921  34.254   9.848   7.068
 3416POPC   C4B45922  34.174   9.717   7.515
 3417POPC   NC345923   9.767  43.387   5.358
 3417POPC   PO445924   9.854  42.728   5.177
 3417POPC   GL145925   9.777  42.952   5.596
 3417POPC   GL245926   9.415  42.985   5.615
 3417POPC   C1A45927   9.997  43.053   6.023
 3417POPC   D2A45928   9.977  42.864   6.458
 3417POPC   C3A45929   9.848  43.007   6.878
 3417POPC   C4A45930   9.994  42.896   7.287
 3417POPC   C1B45931   9.531  43.243   5.976
 3417POPC   C2B45932   9.581  43.271   6.444
 3417POPC   C3B45933   9.386  43.202   6.880
 3417POPC   C4B45934   9.548  43.311   7.302
 3418POPC   NC345935  23.513  40.110   5.315
 3418POPC   PO445936  24.097  40.037   5.294
 3418POPC   GL145937  23.921  40.073   5.785
 3418POPC   GL245938  23.539  40.058   5.842
 3418POPC   C1A45939  23.838  40.018   6.263
 3418POPC   D2A45940  23.764  40.320   6.617
 3418POPC   C3A45941  24.015  40.283   7.012
 3418POPC   C4A45942  23.738  40.184   7.336
 3418POPC   C1B45943  23.373  39.784   6.150
 3418POPC   C2B45944  23.464  39.804   6.584
 3418POPC   C3B45945  23.778  39.839   6.902
 3418POPC   C4B45946  23.694  39.654   7.277
 3419POPC   NC345947   3.475   6.399   5.304
 3419POPC   PO445948   3.677   7.042   5.382
 3419POPC   GL145949   3.660   6.802   5.757
 3419POPC   GL245950   3.359   6.604   5.769
 3419POPC   C1A45951   3.864   6.920   6.194
 3419POPC   D2A45952   4.000   6.959   6.631
 3419POPC   C3A45953   3.737   6.824   6.990
 3419POPC   C4A45954   3.622   6.627   7.397
 3419POPC   C1B45955   3.512   6.556   6.188
 3419POPC   C2B45956   3.593   6.486   6.631
 3419POPC   C3B45957   3.649   6.280   7.026
 3419POPC   C4B45958   3.479   6.141   7.441
 3420POPC   NC345959  16.387  23.995   5.389
 3420POPC   PO445960  15.782  23.651   5.183
 3420POPC   GL145961  15.917  23.679   5.625
 3420POPC   GL245962  16.024  23.355   5.781
 3420POPC   C1A45963  15.953  23.802   6.073
 3420POPC   D2A45964  15.881  23.601   6.487
 3420POPC   C3A45965  15.915  23.877   6.842
 3420POPC   C4A45966  15.751  23.914   7.273
 3420POPC   C1B45967  16.272  23.409   6.187
 3420POPC   C2B45968  16.249  23.241   6.615
 3420POPC   C3B45969  16.026  23.399   6.951
 3420POPC   C4B45970  16.165  23.592   7.350
 3421POPC   NC345971  11.130   8.378   5.478
 3421POPC   PO445972  11.718   8.623   5.566
 3421POPC   GL145973  11.572   8.308   5.822
 3421POPC   GL245974  11.415   7.989   5.701
 3421POPC   C1A45975  11.272   8.318   6.141
 3421POPC   D2A45976  11.121   8.115   6.498
 3421POPC   C3A45977  11.137   8.290   6.902
 3421POPC   C4A45978  11.494   8.446   7.123
 3421POPC   C1B45979  11.370   7.790   6.126
 3421POPC   C2B45980  11.464   7.733   6.585
 3421POPC   C3B45981  11.398   7.856   7.024
 3421POPC   C4B45982  11.141   7.701   7.356
 3422POPC   NC345983   1.467  18.357   5.541
 3422POPC   PO445984   0.858  18.185   5.549
 3422POPC   GL145985   0.988  18.051   5.924
 3422POPC   GL245986   1.304  17.951   5.820
 3422POPC   C1A45987   1.215  18.309   6.220
 3422POPC   D2A45988   1.087  18.554   6.563
 3422POPC   C3A45989   1.120  18.385   6.964
 3422POPC   C4A45990   1.171  18.503   7.397
 3422POPC   C1B45991   1.492  17.873   6.198
 3422POPC   C2B45992   1.311  17.924   6.603
 3422POPC   C3B45993   1.475  17.997   7.015
 3422POPC   C4B45994   1.416  18.068   7.465
 3423POPC   NC345995  17.730   4.710   5.506
 3423POPC   PO445996  17.389   5.186   5.241
 3423POPC   GL145997  17.332   5.016   5.675
 3423POPC   GL245998  17.129   4.692   5.686
 3423POPC   C1A45999  17.557   4.888   6.102
 3423POPC   D2A46000  17.789   4.767   6.496
 3423POPC   C3A46001  17.743   5.028   6.866
 3423POPC   C4A46002  17.557   5.032   7.265
 3423POPC   C1B46003  17.047   4.895   6.076
 3423POPC   C2B46004  17.207   4.835   6.473
 3423POPC   C3B46005  17.229   4.906   6.886
 3423POPC   C4B46006  17.033   5.154   7.216
 3424POPC   NC346007  29.257   6.218   5.283
 3424POPC   PO446008  29.103   6.926   5.129
 3424POPC   GL146009  29.173   6.735   5.562
 3424POPC   GL246010  28.840   6.717   5.775
 3424POPC   C1A46011  29.327   6.684   6.008
 3424POPC   D2A46012  29.464   6.677   6.460
 3424POPC   C3A46013  29.270   6.470   6.803
 3424POPC   C4A46014  29.119   6.604   7.208
 3424POPC   C1B46015  28.807   6.935   6.193
 3424POPC   C2B46016  29.027   6.958   6.600
 3424POPC   C3B46017  28.817   6.971   6.999
 3424POPC   C4B46018  28.710   7.252   7.330
 3425POPC   NC346019   3.895  20.279   5.279
 3425POPC   PO446020   3.506  19.742   5.449
 3425POPC   GL146021   3.592  19.991   5.751
 3425POPC   GL246022   3.905  20.089   5.787
 3425POPC   C1A46023   3.556  19.919   6.185
 3425POPC   D2A46024   3.727  19.851   6.577
 3425POPC   C3A46025   3.584  19.609   6.899
 3425POPC   C4A46026   3.449  19.858   7.256
 3425POPC   C1B46027   4.124  20.116   6.219
 3425POPC   C2B46028   4.143  20.116   6.691
 3425POPC   C3B46029   3.866  20.053   7.048
 3425POPC   C4B46030   3.854  20.018   7.530
 3426POPC   NC346031  27.345  19.370   5.146
 3426POPC   PO446032  27.678  18.935   5.515
 3426POPC   GL146033  27.652  18.769   5.897
 3426POPC   GL246034  27.291  18.635   5.878
 3426POPC   C1A46035  27.880  18.888   6.278
 3426POPC   D2A46036  27.932  19.220   6.585
 3426POPC   C3A46037  27.587  19.335   6.842
 3426POPC   C4A46038  27.489  19.160   7.229
 3426POPC   C1B46039  27.407  18.710   6.331
 3426POPC   C2B46040  27.574  18.796   6.748
 3426POPC   C3B46041  27.533  18.657   7.182
 3426POPC   C4B46042  27.349  18.814   7.599
 3427POPC   NC346043  21.963  10.979   5.528
 3427POPC   PO446044  22.319  11.428   5.237
 3427POPC   GL146045  22.241  11.374   5.688
 3427POPC   GL246046  22.584  11.386   5.751
 3427POPC   C1A46047  22.269  11.234   6.149
 3427POPC   D2A46048  22.085  11.284   6.553
 3427POPC   C3A46049  22.028  11.037   6.885
 3427POPC   C4A46050  22.143  11.300   7.209
 3427POPC   C1B46051  22.727  11.515   6.144
 3427POPC   C2B46052  22.598  11.430   6.554
 3427POPC   C3B46053  22.633  11.610   6.960
 3427POPC   C4B46054  22.584  11.445   7.377
 3428POPC   NC346055  20.291  43.503   5.443
 3428POPC   PO446056  19.683  43.248   5.404
 3428POPC   GL146057  19.800  42.977   5.724
 3428POPC   GL246058  20.081  43.145   5.808
 3428POPC   C1A46059  19.715  43.071   6.187
 3428POPC   D2A46060  19.457  43.052   6.570
 3428POPC   C3A46061  19.719  42.942   6.912
 3428POPC   C4A46062  19.756  43.107   7.328
 3428POPC   C1B46063  20.093  43.421   6.181
 3428POPC   C2B46064  19.899  43.365   6.609
 3428POPC   C3B46065  20.063  43.378   7.031
 3428POPC   C4B46066  20.034  43.529   7.477
 3429POPC   NC346067  18.744  23.776   4.934
 3429POPC   PO446068  19.125  23.865   5.451
 3429POPC   GL146069  18.992  23.763   5.873
 3429POPC   GL246070  18.832  24.036   5.958
 3429POPC   C1A46071  19.056  23.666   6.307
 3429POPC   D2A46072  19.018  23.829   6.702
 3429POPC   C3A46073  19.130  23.538   6.990
 3429POPC   C4A46074  19.065  23.459   7.411
 3429POPC   C1B46075  19.249  24.131   6.161
 3429POPC   C2B46076  19.506  24.114   6.554
 3429POPC   C3B46077  19.404  24.023   6.985
 3429POPC   C4B46078  19.009  23.971   7.232
 3430POPC   NC346079  13.409  18.059   5.403
 3430POPC   PO446080  14.037  18.132   5.336
 3430POPC   GL146081  13.860  18.155   5.730
 3430POPC   GL246082  13.968  18.480   5.770
 3430POPC   C1A46083  13.646  18.240   6.132
 3430POPC   D2A46084  13.598  18.026   6.541
 3430POPC   C3A46085  13.528  18.191   6.948
 3430POPC   C4A46086  13.753  18.111   7.316
 3430POPC   C1B46087  14.068  18.529   6.192
 3430POPC   C2B46088  13.880  18.517   6.607
 3430POPC   C3B46089  13.777  18.638   7.043
 3430POPC   C4B46090  13.922  18.632   7.461
 3431POPC   NC346091  28.190  15.143   5.165
 3431POPC   PO446092  28.807  15.243   5.503
 3431POPC   GL146093  28.486  15.352   5.819
 3431POPC   GL246094  28.153  15.303   5.682
 3431POPC   C1A46095  28.349  15.391   6.249
 3431POPC   D2A46096  28.206  15.457   6.671
 3431POPC   C3A46097  28.478  15.444   7.051
 3431POPC   C4A46098  28.803  15.199   7.285
 3431POPC   C1B46099  28.117  14.988   6.020
 3431POPC   C2B46100  28.067  14.992   6.496
 3431POPC   C3B46101  28.289  14.986   6.901
 3431POPC   C4B46102  28.294  15.059   7.349
 3432POPC   NC346103  26.908  34.451   5.387
 3432POPC   PO446104  26.490  34.936   5.315
 3432POPC   GL146105  26.567  34.727   5.685
 3432POPC   GL246106  26.288  34.851   5.841
 3432POPC   C1A46107  26.880  34.677   6.031
 3432POPC   D2A46108  27.022  34.871   6.427
 3432POPC   C3A46109  26.987  34.635   6.822
 3432POPC   C4A46110  27.014  34.738   7.251
 3432POPC   C1B46111  26.395  34.568   6.165
 3432POPC   C2B46112  26.518  34.753   6.542
 3432POPC   C3B46113  26.484  34.859   6.965
 3432POPC   C4B46114  26.571  34.478   7.174
 3433POPC   NC346115  10.650  33.092   5.492
 3433POPC   PO446116  10.478  32.558   5.516
 3433POPC   GL146117  10.413  32.857   5.892
 3433POPC   GL246118  10.272  33.219   5.811
 3433POPC   C1A46119  10.347  32.963   6.342
 3433POPC   D2A46120  10.221  33.075   6.774
 3433POPC   C3A46121  10.557  32.973   7.056
 3433POPC   C4A46122  10.669  32.643   7.296
 3433POPC   C1B46123  10.557  33.386   6.130
 3433POPC   C2B46124  10.499  33.430   6.539
 3433POPC   C3B46125  10.675  33.447   6.918
 3433POPC   C4B46126  11.042  33.501   7.153
 3434POPC   NC346127   3.001  17.941   5.303
 3434POPC   PO446128   2.572  18.450   5.431
 3434POPC   GL146129   2.668  18.099   5.704
 3434POPC   GL246130   3.042  18.122   5.779
 3434POPC   C1A46131   2.731  18.007   6.152
 3434POPC   D2A46132   2.899  18.198   6.546
 3434POPC   C3A46133   2.835  18.053   6.976
 3434POPC   C4A46134   2.577  18.000   7.382
 3434POPC   C1B46135   3.073  18.454   6.120
 3434POPC   C2B46136   3.091  18.720   6.516
 3434POPC   C3B46137   3.062  18.530   6.915
 3434POPC   C4B46138   2.827  18.477   7.301
 3435POPC   NC346139  14.039  12.701   5.519
 3435POPC   PO446140  13.314  13.099   5.385
 3435POPC   GL146141  13.448  12.800   5.735
 3435POPC   GL246142  13.718  12.583   5.888
 3435POPC   C1A46143  13.337  12.772   6.181
 3435POPC   D2A46144  13.602  12.588   6.506
 3435POPC   C3A46145  13.438  12.633   6.915
 3435POPC   C4A46146  13.547  12.804   7.312
 3435POPC   C1B46147  13.844  12.925   6.149
 3435POPC   C2B46148  14.031  12.881   6.568
 3435POPC   C3B46149  13.952  12.806   6.975
 3435POPC   C4B46150  13.990  13.184   7.204
 3436POPC   NC346151  19.971   1.363   5.440
 3436POPC   PO446152  19.304   1.456   5.544
 3436POPC   GL146153  19.563   1.253   5.914
 3436POPC   GL246154  19.925   1.141   5.917
 3436POPC   C1A46155  19.592   1.022   6.316
 3436POPC   D2A46156  19.468   0.851   6.741
 3436POPC   C3A46157  19.625   1.165   7.031
 3436POPC   C4A46158  19.908   1.521   7.115
 3436POPC   C1B46159  20.069   0.816   6.285
 3436POPC   C2B46160  20.000   0.798   6.761
 3436POPC   C3B46161  20.011   0.911   7.237
 3436POPC   C4B46162  20.107   0.914   7.723
 3437POPC   NC346163  37.297  42.218   5.029
 3437POPC   PO446164  37.739  42.241   5.506
 3437POPC   GL146165  37.562  42.342   5.872
 3437POPC   GL246166  37.885  42.420   5.973
 3437POPC   C1A46167  37.540  42.222   6.291
 3437POPC   D2A46168  37.613  42.425   6.629
 3437POPC   C3A46169  37.656  42.186   6.946
 3437POPC   C4A46170  37.487  42.324   7.320
 3437POPC   C1B46171  38.071  42.097   6.195
 3437POPC   C2B46172  37.966  41.961   6.593
 3437POPC   C3B46173  38.098  41.919   7.010
 3437POPC   C4B46174  38.043  42.249   7.282
 3438POPC   NC346175  22.673  28.868   5.188
 3438POPC   PO446176  23.309  29.068   5.354
 3438POPC   GL146177  23.042  29.127   5.733
 3438POPC   GL246178  22.672  29.104   5.694
 3438POPC   C1A46179  23.036  29.227   6.197
 3438POPC   D2A46180  23.127  29.384   6.618
 3438POPC   C3A46181  23.011  29.125   6.947
 3438POPC   C4A46182  22.916  29.171   7.365
 3438POPC   C1B46183  22.537  29.082   6.145
 3438POPC   C2B46184  22.632  29.203   6.577
 3438POPC   C3B46185  22.519  29.009   6.957
 3438POPC   C4B46186  22.550  28.804   7.320
 3439POPC   NC346187  23.610  19.454   5.601
 3439POPC   PO446188  23.389  18.848   5.399
 3439POPC   GL146189  23.535  18.975   5.807
 3439POPC   GL246190  23.244  18.829   5.930
 3439POPC   C1A46191  23.845  19.129   6.149
 3439POPC   D2A46192  23.994  18.904   6.524
 3439POPC   C3A46193  23.879  19.063   6.937
 3439POPC   C4A46194  23.716  18.959   7.367
 3439POPC   C1B46195  23.387  18.967   6.309
 3439POPC   C2B46196  23.459  19.130   6.678
 3439POPC   C3B46197  23.335  18.975   7.051
 3439POPC   C4B46198  23.254  19.129   7.470
 3440POPC   NC346199  28.643  18.340   5.188
 3440POPC   PO446200  28.071  18.138   5.566
 3440POPC   GL146201  28.196  18.367   5.932
 3440POPC   GL246202  28.515  18.234   6.089
 3440POPC   C1A46203  28.195  18.488   6.380
 3440POPC   D2A46204  28.486  18.286   6.667
 3440POPC   C3A46205  28.331  18.317   7.082
 3440POPC   C4A46206  28.073  18.534   7.347
 3440POPC   C1B46207  28.168  17.974   6.295
 3440POPC   C2B46208  28.142  17.925   6.739
 3440POPC   C3B46209  28.429  17.817   7.047
 3440POPC   C4B46210  28.412  17.913   7.484
 3441POPC   NC346211  32.695  18.823   5.356
 3441POPC   PO446212  32.971  19.373   5.276
 3441POPC   GL146213  32.877  19.176   5.673
 3441POPC   GL246214  33.076  18.842   5.714
 3441POPC   C1A46215  32.782  19.359   6.064
 3441POPC   D2A46216  33.001  19.311   6.433
 3441POPC   C3A46217  32.827  19.339   6.832
 3441POPC   C4A46218  33.029  19.326   7.238
 3441POPC   C1B46219  32.974  18.862   6.158
 3441POPC   C2B46220  32.753  18.887   6.563
 3441POPC   C3B46221  32.935  18.863   6.992
 3441POPC   C4B46222  33.102  18.852   7.434
 3442POPC   NC346223  38.095   7.648   5.457
 3442POPC   PO446224  37.679   7.089   5.295
 3442POPC   GL146225  37.678   7.365   5.679
 3442POPC   GL246226  37.384   7.488   5.847
 3442POPC   C1A46227  37.769   7.373   6.148
 3442POPC   D2A46228  37.900   7.564   6.541
 3442POPC   C3A46229  37.684   7.491   6.916
 3442POPC   C4A46230  37.826   7.674   7.277
 3442POPC   C1B46231  37.222   7.701   6.237
 3442POPC   C2B46232  37.353   7.881   6.650
 3442POPC   C3B46233  37.365   7.832   7.117
 3442POPC   C4B46234  37.409   7.557   7.526
 3443POPC   NC346235  18.762  27.583   5.323
 3443POPC   PO446236  19.436  27.672   5.483
 3443POPC   GL146237  19.095  27.685   5.753
 3443POPC   GL246238  18.888  27.948   5.684
 3443POPC   C1A46239  19.047  27.502   6.149
 3443POPC   D2A46240  19.328  27.505   6.517
 3443POPC   C3A46241  19.103  27.495   6.900
 3443POPC   C4A46242  19.014  27.355   7.307
 3443POPC   C1B46243  18.818  27.986   6.121
 3443POPC   C2B46244  18.888  27.827   6.553
 3443POPC   C3B46245  19.059  28.011   6.939
 3443POPC   C4B46246  19.140  28.141   7.347
 3444POPC   NC346247   7.515   6.298   5.560
 3444POPC   PO446248   7.318   6.949   5.263
 3444POPC   GL146249   7.496   6.793   5.729
 3444POPC   GL246250   7.251   6.554   5.913
 3444POPC   C1A46251   7.571   6.842   6.229
 3444POPC   D2A46252   7.532   6.642   6.693
 3444POPC   C3A46253   7.581   6.769   7.177
 3444POPC   C4A46254   7.536   7.014   7.589
 3444POPC   C1B46255   7.101   6.704   6.314
 3444POPC   C2B46256   7.029   6.796   6.749
 3444POPC   C3B46257   7.144   6.550   7.106
 3444POPC   C4B46258   7.082   6.118   7.232
 3445POPC   NC346259  39.504   6.294   5.380
 3445POPC   PO446260  38.993   6.788   5.125
 3445POPC   GL146261  39.280   6.869   5.553
 3445POPC   GL246262  39.230   6.544   5.728
 3445POPC   C1A46263  39.245   6.924   6.053
 3445POPC   D2A46264  39.420   6.700   6.411
 3445POPC   C3A46265  39.336   6.746   6.868
 3445POPC   C4A46266  39.343   6.730   7.328
 3445POPC   C1B46267  39.186   6.325   6.148
 3445POPC   C2B46268  39.108   6.342   6.617
 3445POPC   C3B46269  39.139   6.297   7.067
 3445POPC   C4B46270  39.380   6.262   7.474
 3446POPC   NC346271  30.317   8.619   5.109
 3446POPC   PO446272  30.873   8.688   5.438
 3446POPC   GL146273  30.950   8.729   5.882
 3446POPC   GL246274  30.606   8.845   5.990
 3446POPC   C1A46275  30.953   8.728   6.341
 3446POPC   D2A46276  30.644   8.782   6.647
 3446POPC   C3A46277  30.812   8.832   7.045
 3446POPC   C4A46278  30.628   8.870   7.465
 3446POPC   C1B46279  30.685   9.171   6.316
 3446POPC   C2B46280  30.724   9.278   6.771
 3446POPC   C3B46281  30.664   9.308   7.215
 3446POPC   C4B46282  30.538   9.420   7.650
 3447POPC   NC346283   7.218  11.609   5.586
 3447POPC   PO446284   7.095  12.262   5.605
 3447POPC   GL146285   7.418  12.016   5.848
 3447POPC   GL246286   7.725  11.873   5.740
 3447POPC   C1A46287   7.418  11.870   6.282
 3447POPC   D2A46288   6.997  11.897   6.518
 3447POPC   C3A46289   7.023  12.195   6.885
 3447POPC   C4A46290   7.371  12.225   7.182
 3447POPC   C1B46291   7.811  12.209   6.112
 3447POPC   C2B46292   7.756  12.243   6.592
 3447POPC   C3B46293   7.866  12.149   7.055
 3447POPC   C4B46294   7.971  12.011   7.510
 3448POPC   NC346295  12.443  20.397   5.428
 3448POPC   PO446296  13.216  20.566   5.345
 3448POPC   GL146297  13.116  20.530   5.792
 3448POPC   GL246298  13.062  20.888   5.926
 3448POPC   C1A46299  13.032  20.406   6.219
 3448POPC   D2A46300  13.210  20.619   6.584
 3448POPC   C3A46301  12.935  20.496   6.928
 3448POPC   C4A46302  12.934  20.410   7.354
 3448POPC   C1B46303  12.673  20.740   6.089
 3448POPC   C2B46304  12.629  20.563   6.503
 3448POPC   C3B46305  12.447  20.769   6.846
 3448POPC   C4B46306  12.489  20.667   7.258
 3449POPC   NC346307  31.183   7.770   5.425
 3449POPC   PO446308  31.272   7.139   5.091
 3449POPC   GL146309  31.427   7.174   5.609
 3449POPC   GL246310  31.809   7.210   5.688
 3449POPC   C1A46311  31.470   7.378   6.088
 3449POPC   D2A46312  31.593   7.588   6.534
 3449POPC   C3A46313  31.437   7.477   6.992
 3449POPC   C4A46314  31.566   7.641   7.426
 3449POPC   C1B46315  31.768   6.971   6.078
 3449POPC   C2B46316  31.557   6.996   6.507
 3449POPC   C3B46317  31.703   7.040   6.946
 3449POPC   C4B46318  31.743   7.175   7.404
 3450POPC   NC346319  43.439  37.180   5.429
 3450POPC   PO446320  42.874  37.673   5.434
 3450POPC   GL146321  43.079  37.391   5.727
 3450POPC   GL246322  43.215  37.692   5.911
 3450POPC   C1A46323  43.240  37.240   6.135
 3450POPC   D2A46324  43.190  37.530   6.465
 3450POPC   C3A46325  43.432  37.546   6.834
 3450POPC   C4A46326  43.217  37.587   7.193
 3450POPC   C1B46327  42.843  37.819   6.159
 3450POPC   C2B46328  42.812  38.014   6.542
 3450POPC   C3B46329  42.892  37.855   6.914
 3450POPC   C4B46330  42.784  37.878   7.332
 3451POPC   NC346331  26.599  14.561   5.442
 3451POPC   PO446332  27.158  14.187   5.612
 3451POPC   GL146333  26.862  14.413   5.881
 3451POPC   GL246334  26.520  14.466   5.917
 3451POPC   C1A46335  26.815  14.609   6.294
 3451POPC   D2A46336  26.687  14.474   6.688
 3451POPC   C3A46337  26.892  14.571   7.087
 3451POPC   C4A46338  27.049  14.409   7.480
 3451POPC   C1B46339  26.448  14.176   6.269
 3451POPC   C2B46340  26.418  14.031   6.703
 3451POPC   C3B46341  26.441  14.317   7.104
 3451POPC   C4B46342  26.483  14.411   7.544
 3452POPC   NC346343  15.396   8.138   5.396
 3452POPC   PO446344  14.746   8.125   5.591
 3452POPC   GL146345  15.065   8.403   5.768
 3452POPC   GL246346  15.209   8.105   5.855
 3452POPC   C1A46347  15.338   8.470   6.178
 3452POPC   D2A46348  15.247   8.303   6.594
 3452POPC   C3A46349  15.304   8.326   7.039
 3452POPC   C4A46350  15.039   8.380   7.404
 3452POPC   C1B46351  15.547   7.953   6.083
 3452POPC   C2B46352  15.660   8.063   6.479
 3452POPC   C3B46353  15.604   7.923   6.907
 3452POPC   C4B46354  15.552   7.906   7.363
 3453POPC   NC346355   9.958  19.669   5.072
 3453POPC   PO446356   9.554  19.796   5.606
 3453POPC   GL146357   9.708  19.575   5.915
 3453POPC   GL246358   9.951  19.810   5.986
 3453POPC   C1A46359   9.712  19.498   6.360
 3453POPC   D2A46360   9.557  19.721   6.684
 3453POPC   C3A46361   9.836  19.797   6.960
 3453POPC   C4A46362   9.896  19.637   7.379
 3453POPC   C1B46363   9.574  19.978   6.229
 3453POPC   C2B46364   9.637  20.238   6.568
 3453POPC   C3B46365   9.890  20.290   6.932
 3453POPC   C4B46366   9.732  20.118   7.324
 3454POPC   NC346367  19.755   5.982   5.148
 3454POPC   PO446368  20.229   5.826   5.550
 3454POPC   GL146369  19.779   5.974   5.694
 3454POPC   GL246370  19.588   5.692   5.840
 3454POPC   C1A46371  19.527   6.103   6.106
 3454POPC   D2A46372  19.695   6.019   6.545
 3454POPC   C3A46373  19.697   6.010   7.014
 3454POPC   C4A46374  20.018   5.871   7.342
 3454POPC   C1B46375  19.507   5.604   6.303
 3454POPC   C2B46376  19.570   5.559   6.774
 3454POPC   C3B46377  19.629   5.557   7.241
 3454POPC   C4B46378  19.507   5.443   7.657
 3455POPC   NC346379   1.402  23.386   5.206
 3455POPC   PO446380   0.994  22.864   5.389
 3455POPC   GL146381   1.070  22.886   5.805
 3455POPC   GL246382   1.349  22.684   5.920
 3455POPC   C1A46383   1.103  23.066   6.215
 3455POPC   D2A46384   1.269  22.880   6.582
 3455POPC   C3A46385   1.207  23.106   6.947
 3455POPC   C4A46386   1.336  23.409   7.269
 3455POPC   C1B46387   1.050  22.543   6.210
 3455POPC   C2B46388   1.036  22.434   6.625
 3455POPC   C3B46389   1.190  22.573   7.006
 3455POPC   C4B46390   1.351  22.826   7.372
 3456POPC   NC346391  42.028  11.814   5.506
 3456POPC   PO446392  42.599  11.978   5.578
 3456POPC   GL146393  42.303  11.951   5.941
 3456POPC   GL246394  41.923  12.032   5.953
 3456POPC   C1A46395  42.413  11.868   6.382
 3456POPC   D2A46396  42.700  11.892   6.758
 3456POPC   C3A46397  42.615  12.199   7.106
 3456POPC   C4A46398  42.481  12.094   7.537
 3456POPC   C1B46399  42.113  12.286   6.284
 3456POPC   C2B46400  42.257  12.233   6.726
 3456POPC   C3B46401  42.103  12.211   7.172
 3456POPC   C4B46402  41.994  12.258   7.623
 3457POPC   NC346403  14.403  20.209   5.516
 3457POPC   PO446404  14.265  19.555   5.454
 3457POPC   GL146405  14.473  19.764   5.808
 3457POPC   GL246406  14.781  19.576   5.850
 3457POPC   C1A46407  14.274  19.737   6.220
 3457POPC   D2A46408  14.082  19.911   6.596
 3457POPC   C3A46409  14.300  19.708   6.901
 3457POPC   C4A46410  14.417  19.831   7.300
 3457POPC   C1B46411  14.780  19.856   6.221
 3457POPC   C2B46412  14.594  19.991   6.597
 3457POPC   C3B46413  14.765  20.022   6.991
 3457POPC   C4B46414  14.928  19.711   7.271
 3458POPC   NC346415  43.700  30.350   5.289
 3458POPC   PO446416  43.907  29.665   5.328
 3458POPC   GL146417  43.848  29.973   5.678
 3458POPC   GL246418  43.700  29.725   5.822
 3458POPC   C1A46419  43.793  30.187   6.130
 3458POPC   D2A46420  43.784  30.358   6.581
 3458POPC   C3A46421  43.741  30.077   6.953
 3458POPC   C4A46422  44.073  29.937   7.202
 3458POPC   C1B46423  43.738  29.664   6.200
 3458POPC   C2B46424  43.864  29.808   6.537
 3458POPC   C3B46425  43.963  29.570   6.868
 3458POPC   C4B46426  43.719  29.385   7.171
 3459POPC   NC346427  42.615   9.680   5.245
 3459POPC   PO446428  43.239   9.592   5.494
 3459POPC   GL146429  43.157   9.667   5.926
 3459POPC   GL246430  43.208   9.986   6.021
 3459POPC   C1A46431  42.931   9.434   6.256
 3459POPC   D2A46432  42.748   9.518   6.656
 3459POPC   C3A46433  43.060   9.582   6.939
 3459POPC   C4A46434  43.251   9.327   7.249
 3459POPC   C1B46435  43.191   9.853   6.452
 3459POPC   C2B46436  43.005  10.114   6.767
 3459POPC   C3B46437  43.068  10.130   7.189
 3459POPC   C4B46438  43.106   9.778   7.438
 3460POPC   NC346439   0.705  21.716   5.054
 3460POPC   PO446440   0.375  21.206   5.324
 3460POPC   GL146441   0.379  21.260   5.776
 3460POPC   GL246442   0.640  21.495   5.802
 3460POPC   C1A46443   0.527  21.095   6.177
 3460POPC   D2A46444   0.724  21.055   6.584
 3460POPC   C3A46445   0.533  21.218   6.927
 3460POPC   C4A46446   0.513  21.192   7.349
 3460POPC   C1B46447   0.458  21.610   6.184
 3460POPC   C2B46448   0.485  21.600   6.598
 3460POPC   C3B46449   0.564  21.738   7.010
 3460POPC   C4B46450   0.267  21.631   7.285
 3461POPC   NC346451  33.831  24.352   5.561
 3461POPC   PO446452  33.510  24.823   5.401
 3461POPC   GL146453  33.559  24.649   5.867
 3461POPC   GL246454  33.946  24.627   5.983
 3461POPC   C1A46455  33.575  24.486   6.296
 3461POPC   D2A46456  33.746  24.737   6.635
 3461POPC   C3A46457  33.886  24.540   7.008
 3461POPC   C4A46458  33.640  24.400   7.382
 3461POPC   C1B46459  34.072  24.284   6.311
 3461POPC   C2B46460  34.111  24.056   6.747
 3461POPC   C3B46461  34.093  24.138   7.222
 3461POPC   C4B46462  34.197  24.520   7.452
 3462POPC   NC346463   8.100  10.091   5.382
 3462POPC   PO446464   8.459   9.576   5.308
 3462POPC   GL146465   8.295   9.704   5.712
 3462POPC   GL246466   7.993   9.862   5.825
 3462POPC   C1A46467   8.383   9.830   6.140
 3462POPC   D2A46468   8.372  10.100   6.508
 3462POPC   C3A46469   8.383   9.840   6.886
 3462POPC   C4A46470   8.114   9.556   7.138
 3462POPC   C1B46471   7.896  10.003   6.226
 3462POPC   C2B46472   7.897   9.808   6.635
 3462POPC   C3B46473   7.917  10.019   7.009
 3462POPC   C4B46474   8.202  10.032   7.340
 3463POPC   NC346475  15.068  23.505   5.585
 3463POPC   PO446476  14.829  22.890   5.346
 3463POPC   GL146477  15.208  22.886   5.687
 3463POPC   GL246478  15.064  23.117   5.922
 3463POPC   C1A46479  15.497  22.880   6.105
 3463POPC   D2A46480  15.508  23.240   6.411
 3463POPC   C3A46481  15.515  23.187   6.876
 3463POPC   C4A46482  15.374  22.880   7.202
 3463POPC   C1B46483  15.028  22.886   6.314
 3463POPC   C2B46484  15.062  22.954   6.762
 3463POPC   C3B46485  14.999  23.234   7.103
 3463POPC   C4B46486  14.826  23.126   7.490
 3464POPC   NC346487  44.956   4.339   5.262
 3464POPC   PO446488  44.264   4.332   5.213
 3464POPC   GL146489  44.415   4.478   5.641
 3464POPC   GL246490  44.608   4.198   5.743
 3464POPC   C1A46491  44.371   4.515   6.143
 3464POPC   D2A46492  44.272   4.267   6.541
 3464POPC   C3A46493  44.445   4.217   6.987
 3464POPC   C4A46494  44.546   4.446   7.388
 3464POPC   C1B46495  44.850   4.379   6.111
 3464POPC   C2B46496  44.759   4.459   6.551
 3464POPC   C3B46497  44.899   4.471   6.979
 3464POPC   C4B46498   0.035   4.289   7.385
 3465POPC   NC346499   5.240  29.403   5.416
 3465POPC   PO446500   4.912  30.014   5.513
 3465POPC   GL146501   5.099  29.826   5.844
 3465POPC   GL246502   4.993  29.473   5.854
 3465POPC   C1A46503   5.342  29.991   6.200
 3465POPC   D2A46504   5.382  29.821   6.622
 3465POPC   C3A46505   5.358  30.119   6.973
 3465POPC   C4A46506   5.252  30.170   7.426
 3465POPC   C1B46507   5.115  29.548   6.279
 3465POPC   C2B46508   4.974  29.530   6.713
 3465POPC   C3B46509   5.099  29.684   7.129
 3465POPC   C4B46510   4.910  29.795   7.533
 3466POPC   NC346511  37.604  27.673   5.427
 3466POPC   PO446512  38.119  28.122   5.599
 3466POPC   GL146513  37.802  27.873   5.877
 3466POPC   GL246514  37.795  27.480   5.857
 3466POPC   C1A46515  37.620  27.803   6.306
 3466POPC   D2A46516  37.511  27.941   6.742
 3466POPC   C3A46517  37.600  27.591   7.003
 3466POPC   C4A46518  37.995  27.453   7.164
 3466POPC   C1B46519  37.393  27.402   6.037
 3466POPC   C2B46520  37.261  27.298   6.461
 3466POPC   C3B46521  37.305  27.147   6.901
 3466POPC   C4B46522  37.437  27.242   7.346
 3467POPC   NC346523  17.197   7.266   5.314
 3467POPC   PO446524  16.638   7.553   5.419
 3467POPC   GL146525  16.892   7.554   5.794
 3467POPC   GL246526  16.866   7.199   5.864
 3467POPC   C1A46527  16.823   7.544   6.265
 3467POPC   D2A46528  16.525   7.703   6.559
 3467POPC   C3A46529  16.641   7.632   6.976
 3467POPC   C4A46530  16.871   7.636   7.400
 3467POPC   C1B46531  17.071   6.916   6.181
 3467POPC   C2B46532  17.119   6.998   6.612
 3467POPC   C3B46533  16.994   7.238   6.988
 3467POPC   C4B46534  16.595   7.207   7.231
 3468POPC   NC346535  21.705  14.381   5.188
 3468POPC   PO446536  22.245  14.486   5.278
 3468POPC   GL146537  22.180  14.443   5.746
 3468POPC   GL246538  22.322  14.732   5.881
 3468POPC   C1A46539  22.300  14.338   6.217
 3468POPC   D2A46540  22.356  14.112   6.619
 3468POPC   C3A46541  22.191  14.200   7.022
 3468POPC   C4A46542  21.982  14.053   7.402
 3468POPC   C1B46543  21.991  14.747   6.200
 3468POPC   C2B46544  22.030  14.558   6.608
 3468POPC   C3B46545  22.418  14.607   6.829
 3468POPC   C4B46546  22.545  14.822   7.185
 3469POPC   NC346547   6.158  21.636   5.489
 3469POPC   PO446548   6.498  21.044   5.419
 3469POPC   GL146549   6.661  21.345   5.815
 3469POPC   GL246550   6.970  21.582   5.813
 3469POPC   C1A46551   6.748  21.450   6.250
 3469POPC   D2A46552   6.769  21.214   6.616
 3469POPC   C3A46553   6.644  21.451   6.950
 3469POPC   C4A46554   6.275  21.580   7.130
 3469POPC   C1B46555   7.207  21.766   6.200
 3469POPC   C2B46556   7.130  21.614   6.605
 3469POPC   C3B46557   7.151  21.336   6.949
 3469POPC   C4B46558   7.006  21.366   7.375
 3470POPC   NC346559  32.837  21.269   5.474
 3470POPC   PO446560  33.127  21.870   5.327
 3470POPC   GL146561  33.187  21.530   5.732
 3470POPC   GL246562  33.088  21.205   5.920
 3470POPC   C1A46563  33.293  21.545   6.200
 3470POPC   D2A46564  33.105  21.589   6.609
 3470POPC   C3A46565  33.042  21.354   6.976
 3470POPC   C4A46566  33.200  21.427   7.383
 3470POPC   C1B46567  32.934  21.173   6.359
 3470POPC   C2B46568  32.633  21.370   6.680
 3470POPC   C3B46569  32.436  21.202   7.000
 3470POPC   C4B46570  32.711  21.094   7.310
 3471POPC   NC346571  34.391  24.279   5.173
 3471POPC   PO446572  34.188  24.808   5.506
 3471POPC   GL146573  34.387  24.444   5.734
 3471POPC   GL246574  34.784  24.354   5.743
 3471POPC   C1A46575  34.541  24.558   6.166
 3471POPC   D2A46576  34.694  24.703   6.588
 3471POPC   C3A46577  34.433  24.590   6.929
 3471POPC   C4A46578  34.580  24.279   7.180
 3471POPC   C1B46579  34.974  24.270   6.176
 3471POPC   C2B46580  35.064  24.312   6.637
 3471POPC   C3B46581  35.000  24.525   7.040
 3471POPC   C4B46582  34.999  24.421   7.491
 3472POPC   NC346583   3.101  10.915   5.227
 3472POPC   PO446584   3.464  11.532   5.332
 3472POPC   GL146585   3.479  11.380   5.786
 3472POPC   GL246586   3.751  11.137   5.925
 3472POPC   C1A46587   3.537  11.479   6.230
 3472POPC   D2A46588   3.604  11.213   6.561
 3472POPC   C3A46589   3.477  11.434   6.898
 3472POPC   C4A46590   3.485  11.364   7.315
 3472POPC   C1B46591   4.034  11.424   6.158
 3472POPC   C2B46592   3.965  11.557   6.598
 3472POPC   C3B46593   3.980  11.428   7.013
 3472POPC   C4B46594   4.023  11.638   7.378
 3473POPC   NC346595  42.897   1.908   5.038
 3473POPC   PO446596  42.661   1.683   5.583
 3473POPC   GL146597  42.951   1.934   5.860
 3473POPC   GL246598  43.009   2.288   5.873
 3473POPC   C1A46599  43.127   1.946   6.299
 3473POPC   D2A46600  43.316   1.656   6.628
 3473POPC   C3A46601  43.543   1.851   6.969
 3473POPC   C4A46602  43.238   1.917   7.256
 3473POPC   C1B46603  42.700   2.245   6.200
 3473POPC   C2B46604  42.746   2.181   6.628
 3473POPC   C3B46605  43.122   2.199   6.853
 3473POPC   C4B46606  43.459   2.359   7.101
 3474POPC   NC346607  13.993  10.983   5.619
 3474POPC   PO446608  13.426  11.261   5.271
 3474POPC   GL146609  13.495  11.297   5.724
 3474POPC   GL246610  13.515  10.954   5.815
 3474POPC   C1A46611  13.722  11.314   6.162
 3474POPC   D2A46612  13.925  11.570   6.508
 3474POPC   C3A46613  13.747  11.465   6.919
 3474POPC   C4A46614  13.666  11.356   7.345
 3474POPC   C1B46615  13.472  10.868   6.256
 3474POPC   C2B46616  13.596  11.026   6.638
 3474POPC   C3B46617  13.578  10.921   7.077
 3474POPC   C4B46618  13.303  10.997   7.455
 3475POPC   NC346619  22.324  38.953   5.209
 3475POPC   PO446620  21.910  39.433   5.395
 3475POPC   GL146621  22.221  39.238   5.716
 3475POPC   GL246622  22.390  38.907   5.729
 3475POPC   C1A46623  22.349  39.326   6.150
 3475POPC   D2A46624  22.058  39.232   6.506
 3475POPC   C3A46625  22.176  39.399   6.912
 3475POPC   C4A46626  22.009  39.242   7.266
 3475POPC   C1B46627  22.202  38.836   6.136
 3475POPC   C2B46628  22.350  38.743   6.521
 3475POPC   C3B46629  22.214  38.862   6.900
 3475POPC   C4B46630  22.496  39.008   7.172
 3476POPC   NC346631  40.151  41.321   5.294
 3476POPC   PO446632  40.853  41.356   5.396
 3476POPC   GL146633  40.934  41.575   5.810
 3476POPC   GL246634  40.578  41.610   5.900
 3476POPC   C1A46635  40.926  41.757   6.264
 3476POPC   D2A46636  40.671  41.563   6.616
 3476POPC   C3A46637  40.879  41.565   7.006
 3476POPC   C4A46638  41.001  41.217   7.213
 3476POPC   C1B46639  40.432  41.855   6.252
 3476POPC   C2B46640  40.461  42.012   6.720
 3476POPC   C3B46641  40.404  41.694   7.085
 3476POPC   C4B46642  40.339  41.718   7.545
 3477POPC   NC346643  24.807  19.287   5.462
 3477POPC   PO446644  25.352  18.886   5.649
 3477POPC   GL146645  25.175  19.019   6.003
 3477POPC   GL246646  25.092  19.349   5.888
 3477POPC   C1A46647  25.121  18.760   6.373
 3477POPC   D2A46648  25.371  18.576   6.704
 3477POPC   C3A46649  25.597  18.925   6.837
 3477POPC   C4A46650  25.345  19.154   7.183
 3477POPC   C1B46651  25.359  19.455   6.221
 3477POPC   C2B46652  25.344  19.317   6.626
 3477POPC   C3B46653  25.000  19.369   6.871
 3477POPC   C4B46654  24.882  19.469   7.268
 3478POPC   NC346655  44.165  24.014   5.610
 3478POPC   PO446656  44.771  23.922   5.531
 3478POPC   GL146657  44.770  23.752   5.890
 3478POPC   GL246658  44.942  23.460   5.768
 3478POPC   C1A46659  44.487  23.803   6.248
 3478POPC   D2A46660  44.261  23.927   6.617
 3478POPC   C3A46661  44.529  23.816   6.979
 3478POPC   C4A46662  44.985  23.845   7.043
 3478POPC   C1B46663  44.788  23.351   6.196
 3478POPC   C2B46664  44.744  23.520   6.604
 3478POPC   C3B46665  44.839  23.354   7.006
 3478POPC   C4B46666  44.681  23.484   7.392
 3479POPC   NC346667   3.926  38.678   5.520
 3479POPC   PO446668   3.477  38.254   5.339
 3479POPC   GL146669   3.551  38.361   5.726
 3479POPC   GL246670   3.412  38.686   5.686
 3479POPC   C1A46671   3.557  38.204   6.161
 3479POPC   D2A46672   3.653  38.437   6.531
 3479POPC   C3A46673   3.542  38.314   6.938
 3479POPC   C4A46674   3.847  38.234   7.265
 3479POPC   C1B46675   3.624  38.736   6.098
 3479POPC   C2B46676   3.624  38.943   6.502
 3479POPC   C3B46677   3.672  38.818   6.910
 3479POPC   C4B46678   3.424  38.699   7.256
 3480POPC   NC346679  21.940  11.697   5.256
 3480POPC   PO446680  21.917  12.344   5.259
 3480POPC   GL146681  22.146  12.177   5.677
 3480POPC   GL246682  22.391  11.885   5.637
 3480POPC   C1A46683  22.244  12.237   6.151
 3480POPC   D2A46684  22.374  12.307   6.598
 3480POPC   C3A46685  22.259  12.291   7.030
 3480POPC   C4A46686  22.037  12.552   7.327
 3480POPC   C1B46687  22.275  11.740   6.062
 3480POPC   C2B46688  22.224  11.790   6.524
 3480POPC   C3B46689  22.145  11.765   6.981
 3480POPC   C4B46690  22.412  11.914   7.331
 3481POPC   NC346691   3.205  40.935   5.344
 3481POPC   PO446692   3.811  40.783   5.581
 3481POPC   GL146693   3.472  40.936   5.847
 3481POPC   GL246694   3.166  40.777   5.852
 3481POPC   C1A46695   3.431  40.944   6.283
 3481POPC   D2A46696   3.627  40.670   6.563
 3481POPC   C3A46697   3.788  40.803   6.972
 3481POPC   C4A46698   3.725  41.098   7.307
 3481POPC   C1B46699   3.283  40.472   6.198
 3481POPC   C2B46700   3.146  40.422   6.596
 3481POPC   C3B46701   3.241  40.695   6.913
 3481POPC   C4B46702   3.417  40.691   7.282
 3482POPC   NC346703   9.404   5.007   5.463
 3482POPC   PO446704  10.109   4.899   5.514
 3482POPC   GL146705   9.829   5.024   5.786
 3482POPC   GL246706   9.632   4.720   5.868
 3482POPC   C1A46707   9.870   5.291   6.125
 3482POPC   D2A46708   9.609   5.185   6.433
 3482POPC   C3A46709   9.685   5.333   6.858
 3482POPC   C4A46710   9.646   5.191   7.286
 3482POPC   C1B46711   9.903   4.779   6.249
 3482POPC   C2B46712   9.878   4.866   6.708
 3482POPC   C3B46713   9.511   4.815   6.952
 3482POPC   C4B46714   9.491   4.539   7.310
 3483POPC   NC346715  22.099  23.982   5.352
 3483POPC   PO446716  22.300  23.338   5.203
 3483POPC   GL146717  22.057  23.437   5.641
 3483POPC   GL246718  21.856  23.764   5.762
 3483POPC   C1A46719  21.884  23.387   6.103
 3483POPC   D2A46720  21.917  23.501   6.540
 3483POPC   C3A46721  22.215  23.684   6.823
 3483POPC   C4A46722  22.213  23.506   7.221
 3483POPC   C1B46723  22.043  23.864   6.206
 3483POPC   C2B46724  21.875  24.024   6.637
 3483POPC   C3B46725  21.871  23.934   7.107
 3483POPC   C4B46726  22.231  24.046   7.478
 3484POPC   NC346727   8.083  14.592   5.636
 3484POPC   PO446728   8.466  14.021   5.359
 3484POPC   GL146729   8.414  14.210   5.771
 3484POPC   GL246730   8.750  14.379   5.803
 3484POPC   C1A46731   8.150  14.114   6.176
 3484POPC   D2A46732   8.097  14.231   6.639
 3484POPC   C3A46733   8.000  14.388   7.068
 3484POPC   C4A46734   8.062  14.088   7.427
 3484POPC   C1B46735   8.605  14.340   6.230
 3484POPC   C2B46736   8.565  14.470   6.649
 3484POPC   C3B46737   8.475  14.248   7.028
 3484POPC   C4B46738   8.402  14.470   7.381
 3485POPC   NC346739  30.259  31.877   5.589
 3485POPC   PO446740  29.742  31.586   5.185
 3485POPC   GL146741  29.851  31.535   5.642
 3485POPC   GL246742  29.660  31.719   5.876
 3485POPC   C1A46743  30.039  31.390   6.081
 3485POPC   D2A46744  29.891  31.176   6.499
 3485POPC   C3A46745  29.909  31.408   6.900
 3485POPC   C4A46746  30.101  31.542   7.319
 3485POPC   C1B46747  29.552  31.439   6.191
 3485POPC   C2B46748  29.376  31.463   6.563
 3485POPC   C3B46749  29.423  31.664   6.908
 3485POPC   C4B46750  29.593  31.559   7.285
 3486POPC   NC346751  12.626   3.138   5.045
 3486POPC   PO446752  12.149   2.780   5.448
 3486POPC   GL146753  12.036   2.902   5.881
 3486POPC   GL246754  12.324   3.060   5.896
 3486POPC   C1A46755  12.005   2.901   6.349
 3486POPC   D2A46756  12.016   2.483   6.617
 3486POPC   C3A46757  11.962   2.554   7.063
 3486POPC   C4A46758  11.838   2.940   7.233
 3486POPC   C1B46759  12.447   3.157   6.229
 3486POPC   C2B46760  12.322   3.325   6.568
 3486POPC   C3B46761  12.223   3.085   6.913
 3486POPC   C4B46762  12.315   3.110   7.330
 3487POPC   NC346763  28.630   4.051   5.635
 3487POPC   PO446764  27.952   4.195   5.464
 3487POPC   GL146765  28.241   4.343   5.764
 3487POPC   GL246766  28.508   4.576   5.586
 3487POPC   C1A46767  28.346   4.215   6.211
 3487POPC   D2A46768  28.224   4.318   6.631
 3487POPC   C3A46769  28.363   4.074   6.953
 3487POPC   C4A46770  28.329   4.049   7.367
 3487POPC   C1B46771  28.545   4.660   6.023
 3487POPC   C2B46772  28.599   4.654   6.453
 3487POPC   C3B46773  28.626   4.532   6.866
 3487POPC   C4B46774  28.560   4.631   7.261
 3488POPC   NC346775  13.411  35.771   5.637
 3488POPC   PO446776  13.951  35.437   5.328
 3488POPC   GL146777  13.712  35.386   5.725
 3488POPC   GL246778  13.425  35.247   5.829
 3488POPC   C1A46779  13.718  35.536   6.156
 3488POPC   D2A46780  13.789  35.401   6.563
 3488POPC   C3A46781  13.634  35.658   6.898
 3488POPC   C4A46782  13.657  35.562   7.331
 3488POPC   C1B46783  13.291  35.256   6.255
 3488POPC   C2B46784  13.304  35.333   6.683
 3488POPC   C3B46785  13.547  35.157   7.043
 3488POPC   C4B46786  13.487  35.093   7.493
 3489POPC   NC346787  14.061  41.556   5.352
 3489POPC   PO446788  14.763  41.860   5.334
 3489POPC   GL146789  14.622  41.809   5.771
 3489POPC   GL246790  14.324  41.580   5.792
 3489POPC   C1A46791  14.628  41.622   6.204
 3489POPC   D2A46792  14.570  41.313   6.538
 3489POPC   C3A46793  14.556  41.581   6.880
 3489POPC   C4A46794  14.707  41.664   7.273
 3489POPC   C1B46795  14.245  41.244   6.106
 3489POPC   C2B46796  14.110  41.095   6.511
 3489POPC   C3B46797  14.090  41.317   6.893
 3489POPC   C4B46798  14.195  41.557   7.240
 3490POPC   NC346799  38.851  24.117   5.469
 3490POPC   PO446800  39.452  24.410   5.379
 3490POPC   GL146801  39.411  24.568   5.804
 3490POPC   GL246802  39.123  24.332   5.848
 3490POPC   C1A46803  39.256  24.627   6.257
 3490POPC   D2A46804  38.979  24.416   6.593
 3490POPC   C3A46805  39.021  24.535   7.055
 3490POPC   C4A46806  39.329  24.745   7.347
 3490POPC   C1B46807  39.479  24.135   6.044
 3490POPC   C2B46808  39.493  24.231   6.464
 3490POPC   C3B46809  39.400  24.260   6.867
 3490POPC   C4B46810  39.589  24.222   7.237
 3491POPC   NC346811   3.061  21.666   5.475
 3491POPC   PO446812   2.844  21.008   5.393
 3491POPC   GL146813   2.858  21.172   5.806
 3491POPC   GL246814   2.522  21.112   5.837
 3491POPC   C1A46815   2.762  21.034   6.266
 3491POPC   D2A46816   2.646  20.950   6.693
 3491POPC   C3A46817   2.908  21.175   6.951
 3491POPC   C4A46818   3.123  21.390   7.264
 3491POPC   C1B46819   2.348  21.336   6.116
 3491POPC   C2B46820   2.402  21.371   6.491
 3491POPC   C3B46821   2.424  21.419   6.863
 3491POPC   C4B46822   2.458  21.274   7.221
 3492POPC   NC346823  26.850   5.481   5.503
 3492POPC   PO446824  26.549   6.092   5.405
 3492POPC   GL146825  26.928   5.945   5.745
 3492POPC   GL246826  26.996   5.603   5.960
 3492POPC   C1A46827  27.071   6.039   6.196
 3492POPC   D2A46828  27.126   6.304   6.566
 3492POPC   C3A46829  27.135   6.084   6.937
 3492POPC   C4A46830  26.909   5.832   7.172
 3492POPC   C1B46831  26.986   5.562   6.423
 3492POPC   C2B46832  26.751   5.442   6.806
 3492POPC   C3B46833  26.756   5.368   7.244
 3492POPC   C4B46834  27.128   5.385   7.456
 3493POPC   NC346835  42.701  27.753   5.465
 3493POPC   PO446836  43.324  27.617   5.289
 3493POPC   GL146837  43.169  27.693   5.683
 3493POPC   GL246838  42.954  27.426   5.821
 3493POPC   C1A46839  43.246  27.758   6.112
 3493POPC   D2A46840  43.333  27.675   6.531
 3493POPC   C3A46841  43.192  27.845   6.919
 3493POPC   C4A46842  43.090  27.713   7.320
 3493POPC   C1B46843  42.766  27.619   6.190
 3493POPC   C2B46844  42.846  27.589   6.631
 3493POPC   C3B46845  42.916  27.341   6.986
 3493POPC   C4B46846  42.738  27.330   7.388
 3494POPC   NC346847  10.851  16.202   5.474
 3494POPC   PO446848  10.291  15.869   5.407
 3494POPC   GL146849  10.446  15.996   5.831
 3494POPC   GL246850  10.795  16.109   5.964
 3494POPC   C1A46851  10.439  15.844   6.271
 3494POPC   D2A46852  10.177  15.676   6.585
 3494POPC   C3A46853  10.286  15.835   7.018
 3494POPC   C4A46854  10.127  15.639   7.376
 3494POPC   C1B46855  10.704  16.289   6.371
 3494POPC   C2B46856  10.712  16.060   6.782
 3494POPC   C3B46857  10.750  16.043   7.247
 3494POPC   C4B46858  10.822  16.197   7.700
 3495POPC   NC346859  19.381  39.329   5.498
 3495POPC   PO446860  18.834  39.165   5.272
 3495POPC   GL146861  18.893  39.295   5.749
 3495POPC   GL246862  19.237  39.371   5.967
 3495POPC   C1A46863  18.811  39.277   6.221
 3495POPC   D2A46864  18.811  38.935   6.561
 3495POPC   C3A46865  18.834  39.134   6.953
 3495POPC   C4A46866  18.868  39.556   7.100
 3495POPC   C1B46867  19.473  39.110   6.241
 3495POPC   C2B46868  19.528  39.123   6.691
 3495POPC   C3B46869  19.314  39.219   7.066
 3495POPC   C4B46870  19.181  39.005   7.434
 3496POPC   NC346871  27.263  32.889   5.506
 3496POPC   PO446872  27.936  32.782   5.507
 3496POPC   GL146873  27.676  32.848   5.836
 3496POPC   GL246874  27.662  33.203   5.861
 3496POPC   C1A46875  27.553  32.889   6.257
 3496POPC   D2A46876  27.460  32.696   6.633
 3496POPC   C3A46877  27.711  32.784   7.012
 3496POPC   C4A46878  27.609  32.932   7.424
 3496POPC   C1B46879  27.740  33.372   6.272
 3496POPC   C2B46880  27.649  33.229   6.689
 3496POPC   C3B46881  27.703  33.311   7.117
 3496POPC   C4B46882  27.388  33.400   7.428
 3497POPC   NC346883  26.427  19.492   5.523
 3497POPC   PO446884  26.664  20.135   5.462
 3497POPC   GL146885  26.674  19.831   5.847
 3497POPC   GL246886  26.868  19.522   5.841
 3497POPC   C1A46887  26.607  19.716   6.334
 3497POPC   D2A46888  26.529  19.673   6.814
 3497POPC   C3A46889  26.618  19.915   7.206
 3497POPC   C4A46890  26.570  20.279   7.517
 3497POPC   C1B46891  27.098  19.597   6.224
 3497POPC   C2B46892  27.040  19.640   6.664
 3497POPC   C3B46893  26.971  19.527   7.090
 3497POPC   C4B46894  27.211  19.657   7.453
 3498POPC   NC346895  44.874  25.363   5.409
 3498POPC   PO446896  44.220  25.371   5.627
 3498POPC   GL146897  44.575  25.432   5.894
 3498POPC   GL246898  44.776  25.145   5.924
 3498POPC   C1A46899  44.500  25.337   6.329
 3498POPC   D2A46900  44.574  25.295   6.756
 3498POPC   C3A46901  44.371  25.545   7.036
 3498POPC   C4A46902  44.452  25.431   7.460
 3498POPC   C1B46903  44.916  25.028   6.367
 3498POPC   C2B46904  44.768  24.789   6.747
 3498POPC   C3B46905  44.710  24.927   7.175
 3498POPC   C4B46906  44.842  25.125   7.551
 3499POPC   NC346907  17.647  23.118   5.621
 3499POPC   PO446908  17.115  22.758   5.455
 3499POPC   GL146909  17.345  22.745   5.865
 3499POPC   GL246910  17.676  22.644   5.857
 3499POPC   C1A46911  17.596  22.981   6.240
 3499POPC   D2A46912  17.885  22.969   6.605
 3499POPC   C3A46913  17.890  23.201   6.978
 3499POPC   C4A46914  17.558  23.100   7.277
 3499POPC   C1B46915  17.566  22.476   6.249
 3499POPC   C2B46916  17.462  22.554   6.671
 3499POPC   C3B46917  17.726  22.678   7.009
 3499POPC   C4B46918  17.764  22.652   7.460
 3500POPC   NC346919  40.812  19.294   5.237
 3500POPC   PO446920  40.563  19.852   5.433
 3500POPC   GL146921  40.760  19.951   5.836
 3500POPC   GL246922  41.103  20.118   5.829
 3500POPC   C1A46923  40.550  19.848   6.236
 3500POPC   D2A46924  40.383  19.549   6.543
 3500POPC   C3A46925  40.602  19.702   6.918
 3500POPC   C4A46926  40.538  20.110   7.112
 3500POPC   C1B46927  41.069  19.971   6.268
 3500POPC   C2B46928  40.987  19.987   6.721
 3500POPC   C3B46929  41.112  20.157   7.127
 3500POPC   C4B46930  40.943  20.266   7.521
 3501POPC   NC346931   8.712  21.948   5.445
 3501POPC   PO446932   8.960  22.594   5.404
 3501POPC   GL146933   8.848  22.368   5.765
 3501POPC   GL246934   9.101  22.100   5.792
 3501POPC   C1A46935   8.961  22.333   6.205
 3501POPC   D2A46936   9.141  22.637   6.470
 3501POPC   C3A46937   8.986  22.490   6.865
 3501POPC   C4A46938   8.961  22.182   7.204
 3501POPC   C1B46939   9.224  21.882   6.198
 3501POPC   C2B46940   9.273  21.966   6.638
 3501POPC   C3B46941   9.226  21.766   7.016
 3501POPC   C4B46942   9.308  21.861   7.434
 3502POPC   NC346943  16.783  25.716   5.140
 3502POPC   PO446944  16.668  26.332   5.325
 3502POPC   GL146945  16.841  26.123   5.728
 3502POPC   GL246946  16.519  26.108   5.934
 3502POPC   C1A46947  16.860  25.865   6.165
 3502POPC   D2A46948  16.630  26.069   6.512
 3502POPC   C3A46949  16.835  25.956   6.897
 3502POPC   C4A46950  16.575  25.848   7.249
 3502POPC   C1B46951  16.830  26.383   6.175
 3502POPC   C2B46952  16.822  26.535   6.597
 3502POPC   C3B46953  16.999  26.428   6.993
 3502POPC   C4B46954  16.963  26.199   7.364
 3503POPC   NC346955  27.902   7.014   5.627
 3503POPC   PO446956  27.359   6.598   5.500
 3503POPC   GL146957  27.453   6.866   5.856
 3503POPC   GL246958  27.719   6.686   5.975
 3503POPC   C1A46959  27.272   6.795   6.282
 3503POPC   D2A46960  27.094   6.874   6.660
 3503POPC   C3A46961  27.104   6.618   6.980
 3503POPC   C4A46962  27.372   6.804   7.238
 3503POPC   C1B46963  27.743   6.970   6.340
 3503POPC   C2B46964  27.630   6.915   6.790
 3503POPC   C3B46965  27.853   6.745   7.171
 3503POPC   C4B46966  27.698   6.613   7.589
 3504POPC   NC346967   0.052   9.454   5.464
 3504POPC   PO446968  44.748   8.838   5.406
 3504POPC   GL146969  44.712   9.027   5.819
 3504POPC   GL246970  44.618   9.357   5.739
 3504POPC   C1A46971  44.544   9.023   6.291
 3504POPC   D2A46972  44.241   9.043   6.669
 3504POPC   C3A46973  44.383   8.871   7.077
 3504POPC   C4A46974  44.763   8.708   7.267
 3504POPC   C1B46975  44.882   9.370   6.118
 3504POPC   C2B46976   0.013   9.272   6.525
 3504POPC   C3B46977  44.808   9.068   6.864
 3504POPC   C4B46978  44.687   9.229   7.270
 3505POPC   NC346979  11.522   6.965   5.204
 3505POPC   PO446980  11.687   7.635   5.415
 3505POPC   GL146981  11.441   7.381   5.731
 3505POPC   GL246982  11.641   7.133   5.898
 3505POPC   C1A46983  11.211   7.298   6.137
 3505POPC   D2A46984  11.355   7.232   6.562
 3505POPC   C3A46985  11.133   7.386   6.917
 3505POPC   C4A46986  10.923   7.241   7.281
 3505POPC   C1B46987  11.731   7.426   6.219
 3505POPC   C2B46988  11.838   7.337   6.649
 3505POPC   C3B46989  11.642   7.374   7.048
 3505POPC   C4B46990  11.657   7.646   7.426
 3506POPC   NC346991  29.621  27.025   5.460
 3506POPC   PO446992  30.060  26.492   5.443
 3506POPC   GL146993  29.931  26.815   5.801
 3506POPC   GL246994  29.804  27.160   5.931
 3506POPC   C1A46995  29.684  26.736   6.180
 3506POPC   D2A46996  29.763  26.857   6.612
 3506POPC   C3A46997  30.128  26.655   6.796
 3506POPC   C4A46998  30.142  26.515   7.219
 3506POPC   C1B46999  30.115  27.061   6.242
 3506POPC   C2B47000  30.186  27.183   6.670
 3506POPC   C3B47001  30.106  27.090   7.102
 3506POPC   C4B47002  29.844  27.215   7.448
 3507POPC   NC347003  34.800  37.574   5.359
 3507POPC   PO447004  34.145  37.489   5.376
 3507POPC   GL147005  34.435  37.539   5.767
 3507POPC   GL247006  34.614  37.862   5.787
 3507POPC   C1A47007  34.685  37.273   6.065
 3507POPC   D2A47008  34.680  37.135   6.505
 3507POPC   C3A47009  34.915  37.408   6.753
 3507POPC   C4A47010  34.911  37.708   7.120
 3507POPC   C1B47011  34.474  37.832   6.217
 3507POPC   C2B47012  34.606  37.837   6.647
 3507POPC   C3B47013  34.423  37.893   7.059
 3507POPC   C4B47014  34.336  38.095   7.453
 3508POPC   NC347015   5.232  30.366   5.547
 3508POPC   PO447016   5.981  30.413   5.481
 3508POPC   GL147017   5.931  30.500   5.898
 3508POPC   GL247018   5.632  30.283   5.875
 3508POPC   C1A47019   5.971  30.839   6.241
 3508POPC   D2A47020   5.913  30.958   6.693
 3508POPC   C3A47021   5.916  31.053   7.133
 3508POPC   C4A47022   5.485  30.968   7.331
 3508POPC   C1B47023   5.659  30.395   6.317
 3508POPC   C2B47024   5.786  30.131   6.634
 3508POPC   C3B47025   6.028  30.175   6.965
 3508POPC   C4B47026   5.770  30.517   7.160
 3509POPC   NC347027   9.649   3.746   5.337
 3509POPC   PO447028   9.994   3.191   5.191
 3509POPC   GL147029   9.798   3.300   5.618
 3509POPC   GL247030  10.039   3.312   5.885
 3509POPC   C1A47031   9.580   3.433   6.039
 3509POPC   D2A47032   9.675   3.618   6.441
 3509POPC   C3A47033   9.625   3.533   6.886
 3509POPC   C4A47034   9.811   3.711   7.272
 3509POPC   C1B47035   9.974   3.220   6.309
 3509POPC   C2B47036  10.119   3.439   6.698
 3509POPC   C3B47037  10.228   3.457   7.150
 3509POPC   C4B47038  10.101   3.482   7.616
 3510POPC   NC347039   6.497   2.454   5.413
 3510POPC   PO447040   6.789   1.980   5.239
 3510POPC   GL147041   6.787   2.088   5.709
 3510POPC   GL247042   7.093   1.973   5.819
 3510POPC   C1A47043   6.757   1.954   6.207
 3510POPC   D2A47044   6.854   1.806   6.675
 3510POPC   C3A47045   6.570   1.874   7.072
 3510POPC   C4A47046   6.368   1.808   7.513
 3510POPC   C1B47047   7.199   2.203   6.188
 3510POPC   C2B47048   7.092   2.259   6.638
 3510POPC   C3B47049   7.051   2.091   7.082
 3510POPC   C4B47050   7.160   2.417   7.356
 3511POPC   NC347051  27.884  37.727   5.299
 3511POPC   PO447052  27.296  37.873   5.540
 3511POPC   GL147053  27.561  37.572   5.845
 3511POPC   GL247054  27.940  37.530   5.774
 3511POPC   C1A47055  27.533  37.494   6.284
 3511POPC   D2A47056  27.517  37.652   6.710
 3511POPC   C3A47057  27.456  37.520   7.136
 3511POPC   C4A47058  27.325  37.776   7.481
 3511POPC   C1B47059  27.986  37.274   6.132
 3511POPC   C2B47060  27.944  37.376   6.568
 3511POPC   C3B47061  27.961  37.475   7.005
 3511POPC   C4B47062  27.897  37.631   7.418
 3512POPC   NC347063  13.888   6.102   5.335
 3512POPC   PO447064  13.217   5.963   5.216
 3512POPC   GL147065  13.438   5.882   5.668
 3512POPC   GL247066  13.761   5.956   5.826
 3512POPC   C1A47067  13.337   5.925   6.129
 3512POPC   D2A47068  13.584   6.003   6.510
 3512POPC   C3A47069  13.471   5.841   6.903
 3512POPC   C4A47070  13.626   5.949   7.288
 3512POPC   C1B47071  13.771   5.662   6.159
 3512POPC   C2B47072  13.845   5.508   6.583
 3512POPC   C3B47073  13.936   5.625   7.015
 3512POPC   C4B47074  13.994   5.540   7.444
 3513POPC   NC347075  28.179  16.939   5.320
 3513POPC   PO447076  27.609  16.524   5.372
 3513POPC   GL147077  27.649  16.669   5.838
 3513POPC   GL247078  27.914  16.943   5.806
 3513POPC   C1A47079  27.353  16.734   6.245
 3513POPC   D2A47080  27.295  16.851   6.692
 3513POPC   C3A47081  27.498  16.712   7.077
 3513POPC   C4A47082  27.450  16.559   7.522
 3513POPC   C1B47083  27.805  16.938   6.267
 3513POPC   C2B47084  27.739  17.106   6.691
 3513POPC   C3B47085  27.729  17.174   7.129
 3513POPC   C4B47086  27.842  16.881   7.450
 3514POPC   NC347087  39.876  32.216   5.591
 3514POPC   PO447088  40.457  31.899   5.550
 3514POPC   GL147089  40.256  32.107   5.907
 3514POPC   GL247090  40.031  32.413   6.042
 3514POPC   C1A47091  40.104  31.995   6.292
 3514POPC   D2A47092  40.221  32.188   6.625
 3514POPC   C3A47093  40.169  31.888   6.909
 3514POPC   C4A47094  40.152  31.963   7.341
 3514POPC   C1B47095  39.652  32.233   6.296
 3514POPC   C2B47096  39.696  32.106   6.724
 3514POPC   C3B47097  39.933  32.323   7.032
 3514POPC   C4B47098  39.854  32.365   7.449
 3515POPC   NC347099  28.600  38.223   5.425
 3515POPC   PO447100  28.085  38.742   5.431
 3515POPC   GL147101  28.275  38.474   5.763
 3515POPC   GL247102  28.623  38.503   5.862
 3515POPC   C1A47103  28.246  38.399   6.225
 3515POPC   D2A47104  28.079  38.368   6.642
 3515POPC   C3A47105  28.156  38.682   6.954
 3515POPC   C4A47106  28.191  38.530   7.350
 3515POPC   C1B47107  28.772  38.351   6.256
 3515POPC   C2B47108  28.570  38.101   6.587
 3515POPC   C3B47109  28.495  38.268   6.989
 3515POPC   C4B47110  28.698  38.426   7.374
 3516POPC   NC347111   1.647  16.687   5.440
 3516POPC   PO447112   2.192  17.050   5.402
 3516POPC   GL147113   1.953  16.904   5.782
 3516POPC   GL247114   2.070  16.573   5.835
 3516POPC   C1A47115   1.810  16.780   6.223
 3516POPC   D2A47116   1.628  16.754   6.647
 3516POPC   C3A47117   1.908  16.765   7.017
 3516POPC   C4A47118   1.795  16.829   7.461
 3516POPC   C1B47119   2.204  16.320   6.155
 3516POPC   C2B47120   2.057  16.447   6.556
 3516POPC   C3B47121   2.078  16.264   6.941
 3516POPC   C4B47122   2.078  16.318   7.394
 3517POPC   NC347123  43.131  27.192   5.406
 3517POPC   PO447124  42.961  26.603   5.186
 3517POPC   GL147125  43.074  26.689   5.653
 3517POPC   GL247126  43.242  26.955   5.848
 3517POPC   C1A47127  43.068  26.560   6.114
 3517POPC   D2A47128  43.198  26.712   6.526
 3517POPC   C3A47129  42.984  26.822   6.896
 3517POPC   C4A47130  43.106  26.580   7.248
 3517POPC   C1B47131  43.269  27.209   6.229
 3517POPC   C2B47132  43.332  27.199   6.676
 3517POPC   C3B47133  43.446  27.305   7.080
 3517POPC   C4B47134  43.195  27.061   7.332
 3518POPC   NC347135  39.070  31.707   5.548
 3518POPC   PO447136  39.137  31.040   5.539
 3518POPC   GL147137  39.400  31.115   5.907
 3518POPC   GL247138  39.486  31.471   5.829
 3518POPC   C1A47139  39.238  31.198   6.327
 3518POPC   D2A47140  38.830  31.245   6.574
 3518POPC   C3A47141  38.928  31.370   6.986
 3518POPC   C4A47142  39.350  31.330   7.093
 3518POPC   C1B47143  39.384  31.715   6.205
 3518POPC   C2B47144  39.286  31.608   6.633
 3518POPC   C3B47145  39.235  31.831   6.995
 3518POPC   C4B47146  39.253  31.720   7.410
 3519POPC   NC347147  20.222  42.519   5.354
 3519POPC   PO447148  20.846  42.427   5.382
 3519POPC   GL147149  20.537  42.351   5.721
 3519POPC   GL247150  20.347  42.648   5.811
 3519POPC   C1A47151  20.591  42.384   6.179
 3519POPC   D2A47152  20.883  42.488   6.507
 3519POPC   C3A47153  20.797  42.284   6.884
 3519POPC   C4A47154  20.864  42.495   7.229
 3519POPC   C1B47155  20.043  42.690   6.109
 3519POPC   C2B47156  19.939  42.650   6.521
 3519POPC   C3B47157  20.280  42.598   6.820
 3519POPC   C4B47158  20.166  42.862   7.163
 3520POPC   NC347159  43.006  20.383   5.386
 3520POPC   PO447160  42.974  20.994   5.170
 3520POPC   GL147161  43.161  20.849   5.651
 3520POPC   GL247162  43.246  20.510   5.812
 3520POPC   C1A47163  43.208  20.879   6.160
 3520POPC   D2A47164  43.251  21.123   6.593
 3520POPC   C3A47165  43.079  20.864   6.924
 3520POPC   C4A47166  43.325  20.618   7.205
 3520POPC   C1B47167  42.898  20.456   6.125
 3520POPC   C2B47168  42.889  20.585   6.545
 3520POPC   C3B47169  43.007  20.350   6.912
 3520POPC   C4B47170  42.819  20.297   7.335
 3521POPC   NC347171  17.220  15.171   5.583
 3521POPC   PO447172  16.828  15.170   5.226
 3521POPC   GL147173  16.725  15.223   5.715
 3521POPC   GL247174  16.409  15.132   5.857
 3521POPC   C1A47175  16.775  15.214   6.220
 3521POPC   D2A47176  16.689  15.000   6.652
 3521POPC   C3A47177  16.875  15.057   7.099
 3521POPC   C4A47178  16.944  15.210   7.537
 3521POPC   C1B47179  16.317  14.949   6.256
 3521POPC   C2B47180  16.174  15.146   6.628
 3521POPC   C3B47181  16.345  15.142   7.030
 3521POPC   C4B47182  16.494  14.962   7.419
 3522POPC   NC347183  28.676  25.386   5.461
 3522POPC   PO447184  29.231  25.024   5.382
 3522POPC   GL147185  28.971  25.095   5.771
 3522POPC   GL247186  29.003  25.476   5.856
 3522POPC   C1A47187  29.051  25.119   6.237
 3522POPC   D2A47188  29.136  25.440   6.576
 3522POPC   C3A47189  29.292  25.268   6.953
 3522POPC   C4A47190  29.198  25.385   7.381
 3522POPC   C1B47191  28.745  25.529   6.235
 3522POPC   C2B47192  28.693  25.713   6.654
 3522POPC   C3B47193  28.790  25.495   7.044
 3522POPC   C4B47194  28.736  25.594   7.496
 3523POPC   NC347195  26.286  20.186   5.146
 3523POPC   PO447196  25.923  19.667   5.396
 3523POPC   GL147197  26.037  19.727   5.775
 3523POPC   GL247198  26.206  20.015   5.676
 3523POPC   C1A47199  26.142  19.603   6.157
 3523POPC   D2A47200  26.107  19.862   6.488
 3523POPC   C3A47201  26.015  19.751   6.870
 3523POPC   C4A47202  25.989  19.656   7.270
 3523POPC   C1B47203  26.331  20.107   6.097
 3523POPC   C2B47204  26.331  20.324   6.470
 3523POPC   C3B47205  26.333  20.161   6.849
 3523POPC   C4B47206  26.160  20.140   7.215
 3524POPC   NC347207  12.030  43.636   5.650
 3524POPC   PO447208  12.007  43.029   5.334
 3524POPC   GL147209  12.127  43.037   5.790
 3524POPC   GL247210  12.475  42.893   5.787
 3524POPC   C1A47211  11.902  42.935   6.205
 3524POPC   D2A47212  11.730  42.810   6.633
 3524POPC   C3A47213  11.871  43.082   7.003
 3524POPC   C4A47214  11.979  43.472   7.215
 3524POPC   C1B47215  12.452  42.924   6.239
 3524POPC   C2B47216  12.244  42.961   6.644
 3524POPC   C3B47217  12.314  42.789   7.050
 3524POPC   C4B47218  12.589  42.848   7.381
 3525POPC   NC347219  33.372  33.060   5.314
 3525POPC   PO447220  32.699  33.067   5.521
 3525POPC   GL147221  33.060  32.841   5.689
 3525POPC   GL247222  32.847  32.669   5.868
 3525POPC   C1A47223  33.232  32.875   6.112
 3525POPC   D2A47224  33.138  32.915   6.547
 3525POPC   C3A47225  33.309  32.679   6.867
 3525POPC   C4A47226  33.299  32.852   7.263
 3525POPC   C1B47227  32.791  32.647   6.269
 3525POPC   C2B47228  32.637  32.780   6.644
 3525POPC   C3B47229  32.807  32.718   7.036
 3525POPC   C4B47230  32.780  33.075   7.209
 3526POPC   NC347231  28.110  30.516   5.439
 3526POPC   PO447232  27.544  30.829   5.337
 3526POPC   GL147233  27.723  30.763   5.743
 3526POPC   GL247234  27.393  30.648   5.858
 3526POPC   C1A47235  27.703  30.855   6.209
 3526POPC   D2A47236  27.604  30.612   6.592
 3526POPC   C3A47237  27.463  30.872   6.935
 3526POPC   C4A47238  27.667  30.997   7.292
 3526POPC   C1B47239  27.211  30.441   6.192
 3526POPC   C2B47240  27.310  30.192   6.531
 3526POPC   C3B47241  27.294  30.337   6.950
 3526POPC   C4B47242  27.587  30.472   7.261
 3527POPC   NC347243  34.443  43.587   5.334
 3527POPC   PO447244  34.246  44.283   5.417
 3527POPC   GL147245  34.556  44.133   5.753
 3527POPC   GL247246  34.659  43.765   5.797
 3527POPC   C1A47247  34.559  44.026   6.203
 3527POPC   D2A47248  34.604  43.762   6.563
 3527POPC   C3A47249  34.593  43.967   6.956
 3527POPC   C4A47250  34.357  44.058   7.303
 3527POPC   C1B47251  34.954  43.671   6.212
 3527POPC   C2B47252  35.101  43.772   6.656
 3527POPC   C3B47253  35.022  43.738   7.115
 3527POPC   C4B47254  34.928  43.778   7.557
 3528POPC   NC347255  33.289  42.669   5.250
 3528POPC   PO447256  32.984  42.190   5.370
 3528POPC   GL147257  32.947  42.515   5.676
 3528POPC   GL247258  32.970  42.199   5.890
 3528POPC   C1A47259  32.801  42.623   6.098
 3528POPC   D2A47260  32.789  42.300   6.411
 3528POPC   C3A47261  32.739  42.481   6.816
 3528POPC   C4A47262  32.920  42.612   7.212
 3528POPC   C1B47263  33.259  41.998   6.172
 3528POPC   C2B47264  33.245  42.120   6.576
 3528POPC   C3B47265  33.025  42.098   6.962
 3528POPC   C4B47266  33.345  42.062   7.217
 3529POPC   NC347267  15.333  44.316   5.457
 3529POPC   PO447268  15.534  43.723   5.541
 3529POPC   GL147269  15.307  43.978   5.882
 3529POPC   GL247270  14.966  44.100   5.764
 3529POPC   C1A47271  15.282  43.930   6.355
 3529POPC   D2A47272  15.141  43.669   6.713
 3529POPC   C3A47273  15.382  43.783   7.053
 3529POPC   C4A47274  15.369  44.229   7.152
 3529POPC   C1B47275  14.802  43.954   6.163
 3529POPC   C2B47276  14.797  44.164   6.579
 3529POPC   C3B47277  14.814  43.977   6.989
 3529POPC   C4B47278  14.673  43.567   7.156
 3530POPC   NC347279  40.565  26.921   5.468
 3530POPC   PO447280  41.154  26.602   5.500
 3530POPC   GL147281  40.952  26.827   5.853
 3530POPC   GL247282  40.577  26.756   5.942
 3530POPC   C1A47283  40.928  26.892   6.300
 3530POPC   D2A47284  40.626  26.875   6.642
 3530POPC   C3A47285  40.854  26.984   7.006
 3530POPC   C4A47286  40.934  26.799   7.416
 3530POPC   C1B47287  40.562  26.478   6.289
 3530POPC   C2B47288  40.494  26.350   6.710
 3530POPC   C3B47289  40.558  26.569   7.079
 3530POPC   C4B47290  40.423  26.950   7.288
 3531POPC   NC347291  15.016  15.810   5.511
 3531POPC   PO447292  15.535  16.135   5.715
 3531POPC   GL147293  15.222  15.973   6.010
 3531POPC   GL247294  14.888  15.988   5.960
 3531POPC   C1A47295  15.209  15.990   6.471
 3531POPC   D2A47296  15.374  15.722   6.780
 3531POPC   C3A47297  15.424  15.829   7.221
 3531POPC   C4A47298  15.585  15.830   7.646
 3531POPC   C1B47299  14.726  15.951   6.349
 3531POPC   C2B47300  14.836  15.696   6.723
 3531POPC   C3B47301  14.933  15.881   7.086
 3531POPC   C4B47302  14.700  16.243   7.106
 3532POPC   NC347303  16.685  36.250   5.282
 3532POPC   PO447304  16.291  35.879   5.570
 3532POPC   GL147305  16.583  36.045   5.845
 3532POPC   GL247306  16.783  35.762   5.776
 3532POPC   C1A47307  16.607  36.302   6.245
 3532POPC   D2A47308  16.460  36.341   6.720
 3532POPC   C3A47309  16.785  36.441   7.052
 3532POPC   C4A47310  16.943  36.291   7.488
 3532POPC   C1B47311  16.912  35.788   6.211
 3532POPC   C2B47312  16.750  35.945   6.600
 3532POPC   C3B47313  16.607  35.938   7.046
 3532POPC   C4B47314  16.673  35.860   7.500
 3533POPC   NC347315  22.933  33.686   5.379
 3533POPC   PO447316  23.260  34.254   5.351
 3533POPC   GL147317  23.120  33.995   5.744
 3533POPC   GL247318  22.745  33.945   5.798
 3533POPC   C1A47319  23.053  33.594   6.026
 3533POPC   D2A47320  22.972  33.511   6.477
 3533POPC   C3A47321  23.253  33.630   6.836
 3533POPC   C4A47322  23.225  33.582   7.277
 3533POPC   C1B47323  22.881  34.019   6.249
 3533POPC   C2B47324  22.817  33.930   6.705
 3533POPC   C3B47325  22.756  33.785   7.138
 3533POPC   C4B47326  22.641  34.048   7.499
 3534POPC   NC347327  28.840   9.059   5.575
 3534POPC   PO447328  28.209   9.062   5.510
 3534POPC   GL147329  28.440   8.896   5.868
 3534POPC   GL247330  28.720   8.645   5.839
 3534POPC   C1A47331  28.300   8.918   6.283
 3534POPC   D2A47332  28.170   9.189   6.593
 3534POPC   C3A47333  28.337   9.146   6.980
 3534POPC   C4A47334  28.458   9.395   7.322
 3534POPC   C1B47335  28.805   8.859   6.220
 3534POPC   C2B47336  28.723   9.034   6.619
 3534POPC   C3B47337  28.833   9.243   6.991
 3534POPC   C4B47338  28.807   9.011   7.337
 3535POPC   NC347339  18.028  38.559   5.413
 3535POPC   PO447340  17.327  38.573   5.447
 3535POPC   GL147341  17.645  38.651   5.780
 3535POPC   GL247342  17.771  38.331   5.830
 3535POPC   C1A47343  17.622  38.702   6.255
 3535POPC   D2A47344  17.363  38.747   6.657
 3535POPC   C3A47345  17.518  38.781   7.098
 3535POPC   C4A47346  17.582  38.531   7.482
 3535POPC   C1B47347  17.828  38.136   6.242
 3535POPC   C2B47348  17.757  38.360   6.647
 3535POPC   C3B47349  17.550  38.276   7.028
 3535POPC   C4B47350  17.644  38.024   7.366
 3536POPC   NC347351  41.936   9.994   5.463
 3536POPC   PO447352  41.297   9.721   5.422
 3536POPC   GL147353  41.531   9.657   5.801
 3536POPC   GL247354  41.836   9.786   5.921
 3536POPC   C1A47355  41.435   9.691   6.251
 3536POPC   D2A47356  41.133   9.594   6.580
 3536POPC   C3A47357  41.329   9.637   6.940
 3536POPC   C4A47358  41.308   9.800   7.333
 3536POPC   C1B47359  41.882   9.995   6.324
 3536POPC   C2B47360  41.917  10.200   6.743
 3536POPC   C3B47361  41.694  10.071   7.138
 3536POPC   C4B47362  41.752   9.844   7.536
 3537POPC   NC347363   9.594   0.510   5.044
 3537POPC   PO447364   9.627   1.121   5.348
 3537POPC   GL147365   9.760   1.247   5.732
 3537POPC   GL247366   9.420   1.270   5.801
 3537POPC   C1A47367   9.716   1.531   6.133
 3537POPC   D2A47368   9.848   1.395   6.565
 3537POPC   C3A47369   9.705   1.516   7.012
 3537POPC   C4A47370   9.800   1.338   7.440
 3537POPC   C1B47371   9.614   1.005   6.164
 3537POPC   C2B47372   9.533   0.930   6.621
 3537POPC   C3B47373   9.451   0.959   7.080
 3537POPC   C4B47374   9.384   0.950   7.513
 3538POPC   NC347375  29.336  35.814   5.325
 3538POPC   PO447376  28.822  35.389   5.331
 3538POPC   GL147377  28.966  35.533   5.730
 3538POPC   GL247378  29.218  35.263   5.809
 3538POPC   C1A47379  28.890  35.412   6.177
 3538POPC   D2A47380  29.085  35.152   6.495
 3538POPC   C3A47381  29.102  35.372   6.868
 3538POPC   C4A47382  28.961  35.281   7.260
 3538POPC   C1B47383  29.480  35.067   6.160
 3538POPC   C2B47384  29.572  34.905   6.599
 3538POPC   C3B47385  29.415  34.992   7.023
 3538POPC   C4B47386  29.474  35.395   7.260
 3539POPC   NC347387   2.224  11.400   5.325
 3539POPC   PO447388   1.616  11.216   5.472
 3539POPC   GL147389   1.916  11.387   5.755
 3539POPC   GL247390   2.134  11.077   5.795
 3539POPC   C1A47391   1.806  11.580   6.147
 3539POPC   D2A47392   1.667  11.764   6.535
 3539POPC   C3A47393   1.639  11.585   6.938
 3539POPC   C4A47394   1.792  11.489   7.326
 3539POPC   C1B47395   1.791  11.061   6.145
 3539POPC   C2B47396   1.747  11.235   6.570
 3539POPC   C3B47397   1.840  11.089   6.981
 3539POPC   C4B47398   1.673  10.962   7.370
 3540POPC   NC347399  25.109  39.282   5.365
 3540POPC   PO447400  25.605  39.657   5.705
 3540POPC   GL147401  25.352  39.249   5.824
 3540POPC   GL247402  25.504  38.882   5.860
 3540POPC   C1A47403  25.075  39.025   6.135
 3540POPC   D2A47404  25.028  38.872   6.581
 3540POPC   C3A47405  25.018  39.111   6.984
 3540POPC   C4A47406  25.105  39.569   7.037
 3540POPC   C1B47407  25.636  38.992   6.306
 3540POPC   C2B47408  25.608  38.956   6.795
 3540POPC   C3B47409  25.509  39.182   7.184
 3540POPC   C4B47410  25.536  39.054   7.622
 3541POPC   NC347411  18.533   5.253   5.173
 3541POPC   PO447412  18.128   4.729   5.263
 3541POPC   GL147413  18.203   4.697   5.724
 3541POPC   GL247414  18.463   4.964   5.782
 3541POPC   C1A47415  18.197   4.743   6.168
 3541POPC   D2A47416  18.269   4.967   6.555
 3541POPC   C3A47417  18.181   4.744   6.929
 3541POPC   C4A47418  18.094   5.008   7.293
 3541POPC   C1B47419  18.482   5.286   6.162
 3541POPC   C2B47420  18.550   5.405   6.629
 3541POPC   C3B47421  18.544   5.124   7.008
 3541POPC   C4B47422  18.669   5.148   7.449
 3542POPC   NC347423  10.386  28.525   5.567
 3542POPC   PO447424  10.765  28.025   5.569
 3542POPC   GL147425  10.499  28.145   5.902
 3542POPC   GL247426  10.229  27.884   5.885
 3542POPC   C1A47427  10.480  28.504   6.223
 3542POPC   D2A47428  10.677  28.723   6.577
 3542POPC   C3A47429  10.491  28.636   6.967
 3542POPC   C4A47430  10.410  28.592   7.388
 3542POPC   C1B47431  10.166  28.096   6.284
 3542POPC   C2B47432  10.260  28.278   6.669
 3542POPC   C3B47433  10.153  28.242   7.106
 3542POPC   C4B47434  10.181  28.175   7.564
 3543POPC   NC347435  24.741   9.355   5.630
 3543POPC   PO447436  24.360   9.729   5.167
 3543POPC   GL147437  24.453   9.849   5.650
 3543POPC   GL247438  24.734  10.017   5.750
 3543POPC   C1A47439  24.400   9.794   6.124
 3543POPC   D2A47440  24.589   9.718   6.542
 3543POPC   C3A47441  24.317   9.749   6.910
 3543POPC   C4A47442  24.359   9.666   7.339
 3543POPC   C1B47443  24.858  10.005   6.176
 3543POPC   C2B47444  24.978  10.032   6.616
 3543POPC   C3B47445  24.818   9.871   7.005
 3543POPC   C4B47446  24.872   9.788   7.434
 3544POPC   NC347447  24.645  31.881   5.497
 3544POPC   PO447448  24.221  32.181   5.133
 3544POPC   GL147449  24.427  32.357   5.619
 3544POPC   GL247450  24.750  32.233   5.834
 3544POPC   C1A47451  24.406  32.440   6.123
 3544POPC   D2A47452  24.746  32.474   6.475
 3544POPC   C3A47453  24.598  32.412   6.912
 3544POPC   C4A47454  24.395  32.111   7.170
 3544POPC   C1B47455  24.662  31.933   6.171
 3544POPC   C2B47456  24.649  31.950   6.612
 3544POPC   C3B47457  24.935  32.013   6.923
 3544POPC   C4B47458  24.836  31.861   7.287
 3545POPC   NC347459  29.534   4.548   5.089
 3545POPC   PO447460  28.895   4.317   5.346
 3545POPC   GL147461  28.971   4.409   5.787
 3545POPC   GL247462  29.310   4.313   5.913
 3545POPC   C1A47463  28.864   4.274   6.224
 3545POPC   D2A47464  29.063   4.439   6.608
 3545POPC   C3A47465  29.084   4.354   7.058
 3545POPC   C4A47466  29.345   4.324   7.416
 3545POPC   C1B47467  29.316   4.088   6.340
 3545POPC   C2B47468  29.140   3.940   6.750
 3545POPC   C3B47469  29.292   3.858   7.164
 3545POPC   C4B47470  29.573   3.866   7.495
 3546POPC   NC347471  41.608  33.151   5.517
 3546POPC   PO447472  41.078  33.410   5.405
 3546POPC   GL147473  41.160  33.202   5.809
 3546POPC   GL247474  41.322  32.880   5.836
 3546POPC   C1A47475  41.396  33.181   6.210
 3546POPC   D2A47476  41.808  33.096   6.424
 3546POPC   C3A47477  41.881  33.221   6.855
 3546POPC   C4A47478  41.657  33.100   7.225
 3546POPC   C1B47479  41.408  32.643   6.213
 3546POPC   C2B47480  41.389  32.833   6.584
 3546POPC   C3B47481  41.257  32.998   6.931
 3546POPC   C4B47482  41.132  32.700   7.208
 3547POPC   NC347483  27.520  22.770   5.326
 3547POPC   PO447484  27.788  23.389   5.455
 3547POPC   GL147485  27.626  23.079   5.716
 3547POPC   GL247486  27.887  22.829   5.669
 3547POPC   C1A47487  27.458  22.836   6.091
 3547POPC   D2A47488  27.658  22.924   6.513
 3547POPC   C3A47489  27.484  22.782   6.915
 3547POPC   C4A47490  27.740  22.827   7.262
 3547POPC   C1B47491  27.912  22.606   6.067
 3547POPC   C2B47492  27.996  22.437   6.470
 3547POPC   C3B47493  27.893  22.458   6.876
 3547POPC   C4B47494  28.114  22.398   7.271
 3548POPC   NC347495  28.250  44.987   5.301
 3548POPC   PO447496  28.553   0.582   5.347
 3548POPC   GL147497  28.591   0.547   5.781
 3548POPC   GL247498  28.835   0.801   5.893
 3548POPC   C1A47499  28.390   0.268   6.104
 3548POPC   D2A47500  28.315   0.435   6.507
 3548POPC   C3A47501  28.469   0.218   6.866
 3548POPC   C4A47502  28.524   0.280   7.297
 3548POPC   C1B47503  28.840   0.483   6.248
 3548POPC   C2B47504  28.775   0.575   6.685
 3548POPC   C3B47505  28.519   0.720   7.029
 3548POPC   C4B47506  28.878   0.661   7.228
 3549POPC   NC347507  14.211  23.798   5.242
 3549POPC   PO447508  14.837  23.881   5.416
 3549POPC   GL147509  14.582  23.715   5.739
 3549POPC   GL247510  14.223  23.839   5.748
 3549POPC   C1A47511  14.684  23.655   6.179
 3549POPC   D2A47512  14.739  23.431   6.576
 3549POPC   C3A47513  14.492  23.613   6.892
 3549POPC   C4A47514  14.539  23.541   7.310
 3549POPC   C1B47515  14.201  23.482   6.009
 3549POPC   C2B47516  14.240  23.534   6.439
 3549POPC   C3B47517  13.978  23.575   6.794
 3549POPC   C4B47518  14.060  23.386   7.180
 3550POPC   NC347519  16.477  27.379   5.542
 3550POPC   PO447520  17.013  27.524   5.203
 3550POPC   GL147521  17.025  27.434   5.720
 3550POPC   GL247522  16.814  27.253   5.907
 3550POPC   C1A47523  17.095  27.642   6.170
 3550POPC   D2A47524  17.170  27.822   6.634
 3550POPC   C3A47525  17.002  27.544   6.945
 3550POPC   C4A47526  16.721  27.273   7.146
 3550POPC   C1B47527  16.543  27.390   6.261
 3550POPC   C2B47528  16.599  27.636   6.626
 3550POPC   C3B47529  16.521  27.767   7.056
 3550POPC   C4B47530  16.759  27.756   7.425
 3551POPC   NC347531  35.275  42.387   5.332
 3551POPC   PO447532  34.708  42.624   5.511
 3551POPC   GL147533  35.125  42.646   5.768
 3551POPC   GL247534  35.336  42.320   5.821
 3551POPC   C1A47535  35.424  42.700   6.140
 3551POPC   D2A47536  35.466  42.486   6.536
 3551POPC   C3A47537  35.317  42.574   6.943
 3551POPC   C4A47538  35.392  42.384   7.378
 3551POPC   C1B47539  35.418  42.099   6.206
 3551POPC   C2B47540  35.350  41.951   6.642
 3551POPC   C3B47541  35.449  41.963   7.102
 3551POPC   C4B47542  35.298  41.909   7.565
 3552POPC   NC347543  23.404  42.289   5.601
 3552POPC   PO447544  24.053  42.486   5.303
 3552POPC   GL147545  23.900  42.384   5.729
 3552POPC   GL247546  23.721  42.671   5.779
 3552POPC   C1A47547  23.759  42.374   6.193
 3552POPC   D2A47548  23.541  42.517   6.590
 3552POPC   C3A47549  23.611  42.217   6.924
 3552POPC   C4A47550  23.695  42.286   7.356
 3552POPC   C1B47551  24.025  42.809   6.122
 3552POPC   C2B47552  24.034  42.658   6.568
 3552POPC   C3B47553  23.884  42.660   7.019
 3552POPC   C4B47554  24.137  42.531   7.387
 3553POPC   NC347555  32.691  35.057   5.165
 3553POPC   PO447556  33.130  35.513   5.383
 3553POPC   GL147557  33.220  35.193   5.678
 3553POPC   GL247558  33.051  35.384   5.970
 3553POPC   C1A47559  33.392  34.989   6.066
 3553POPC   D2A47560  33.232  34.891   6.500
 3553POPC   C3A47561  32.900  35.210   6.663
 3553POPC   C4A47562  33.039  35.428   7.050
 3553POPC   C1B47563  32.667  35.576   6.200
 3553POPC   C2B47564  32.411  35.483   6.560
 3553POPC   C3B47565  32.540  35.547   6.989
 3553POPC   C4B47566  32.710  35.594   7.405
 3554POPC   NC347567  28.741   2.054   5.505
 3554POPC   PO447568  28.364   1.583   5.204
 3554POPC   GL147569  28.431   1.679   5.683
 3554POPC   GL247570  28.115   1.764   5.874
 3554POPC   C1A47571  28.595   1.758   6.126
 3554POPC   D2A47572  28.417   1.593   6.547
 3554POPC   C3A47573  28.380   1.858   6.942
 3554POPC   C4A47574  28.671   2.148   7.158
 3554POPC   C1B47575  28.005   2.111   6.164
 3554POPC   C2B47576  27.923   2.030   6.582
 3554POPC   C3B47577  28.032   2.249   6.944
 3554POPC   C4B47578  27.954   2.049   7.313
 3555POPC   NC347579  34.811  31.052   5.496
 3555POPC   PO447580  34.710  31.766   5.502
 3555POPC   GL147581  34.545  31.505   5.840
 3555POPC   GL247582  34.708  31.218   5.961
 3555POPC   C1A47583  34.630  31.589   6.293
 3555POPC   D2A47584  34.838  31.540   6.682
 3555POPC   C3A47585  34.515  31.713   6.949
 3555POPC   C4A47586  34.271  31.615   7.317
 3555POPC   C1B47587  35.033  31.257   6.274
 3555POPC   C2B47588  35.147  31.053   6.671
 3555POPC   C3B47589  34.928  30.971   7.062
 3555POPC   C4B47590  34.624  31.257   7.204
 3556POPC   NC347591  40.169  23.919   5.480
 3556POPC   PO447592  39.705  23.447   5.293
 3556POPC   GL147593  39.966  23.484   5.716
 3556POPC   GL247594  40.345  23.458   5.731
 3556POPC   C1A47595  39.963  23.703   6.168
 3556POPC   D2A47596  39.943  24.011   6.561
 3556POPC   C3A47597  40.004  23.866   7.008
 3556POPC   C4A47598  39.737  23.710   7.329
 3556POPC   C1B47599  40.269  23.282   6.161
 3556POPC   C2B47600  40.222  23.333   6.628
 3556POPC   C3B47601  40.405  23.529   7.019
 3556POPC   C4B47602  40.251  23.672   7.439
 3557POPC   NC347603  10.358   5.306   5.453
 3557POPC   PO447604  10.575   4.670   5.325
 3557POPC   GL147605  10.621   4.903   5.734
 3557POPC   GL247606  10.799   5.210   5.780
 3557POPC   C1A47607  10.437   4.826   6.160
 3557POPC   D2A47608  10.238   5.131   6.448
 3557POPC   C3A47609  10.236   5.195   6.908
 3557POPC   C4A47610  10.379   5.027   7.306
 3557POPC   C1B47611  10.730   5.227   6.218
 3557POPC   C2B47612  10.700   4.977   6.610
 3557POPC   C3B47613  10.769   5.178   6.996
 3557POPC   C4B47614  10.560   5.526   7.190
 3558POPC   NC347615   3.260  27.706   5.379
 3558POPC   PO447616   2.871  28.168   5.437
 3558POPC   GL147617   3.116  27.968   5.843
 3558POPC   GL247618   3.421  27.731   5.854
 3558POPC   C1A47619   3.307  27.856   6.312
 3558POPC   D2A47620   3.731  27.913   6.497
 3558POPC   C3A47621   3.726  27.911   6.957
 3558POPC   C4A47622   3.448  27.782   7.289
 3558POPC   C1B47623   3.690  27.522   6.164
 3558POPC   C2B47624   3.674  27.410   6.618
 3558POPC   C3B47625   3.711  27.390   7.085
 3558POPC   C4B47626   3.843  27.503   7.522
 3559POPC   NC347627  27.374  43.636   5.073
 3559POPC   PO447628  27.769  43.176   5.464
 3559POPC   GL147629  27.604  43.034   5.798
 3559POPC   GL247630  27.347  42.845   5.644
 3559POPC   C1A47631  27.533  43.248   6.198
 3559POPC   D2A47632  27.729  43.203   6.588
 3559POPC   C3A47633  27.722  43.456   6.934
 3559POPC   C4A47634  27.630  43.295   7.300
 3559POPC   C1B47635  27.262  42.820   6.100
 3559POPC   C2B47636  27.194  42.951   6.526
 3559POPC   C3B47637  27.273  43.209   6.879
 3559POPC   C4B47638  27.150  43.106   7.268
 3560POPC   NC347639  15.027  12.632   5.378
 3560POPC   PO447640  15.543  13.023   5.311
 3560POPC   GL147641  15.305  12.865   5.732
 3560POPC   GL247642  15.145  12.528   5.901
 3560POPC   C1A47643  15.275  12.928   6.194
 3560POPC   D2A47644  15.471  12.789   6.568
 3560POPC   C3A47645  15.376  13.000   6.948
 3560POPC   C4A47646  15.192  12.694   7.180
 3560POPC   C1B47647  15.106  12.438   6.395
 3560POPC   C2B47648  14.905  12.373   6.826
 3560POPC   C3B47649  14.754  12.490   7.276
 3560POPC   C4B47650  14.495  12.594   7.651
 3561POPC   NC347651  28.079   4.586   5.240
 3561POPC   PO447652  28.456   5.114   5.356
 3561POPC   GL147653  28.384   5.100   5.797
 3561POPC   GL247654  28.115   4.835   5.780
 3561POPC   C1A47655  28.624   5.131   6.236
 3561POPC   D2A47656  28.621   5.100   6.699
 3561POPC   C3A47657  28.817   5.362   7.008
 3561POPC   C4A47658  28.538   5.147   7.257
 3561POPC   C1B47659  28.120   4.968   6.215
 3561POPC   C2B47660  28.055   5.131   6.623
 3561POPC   C3B47661  28.171   4.904   6.985
 3561POPC   C4B47662  28.140   4.896   7.433
 3562POPC   NC347663  11.708  16.000   5.150
 3562POPC   PO447664  12.138  15.590   5.519
 3562POPC   GL147665  12.196  15.812   5.878
 3562POPC   GL247666  12.114  16.134   5.760
 3562POPC   C1A47667  12.132  15.975   6.299
 3562POPC   D2A47668  12.099  16.105   6.708
 3562POPC   C3A47669  11.968  15.830   7.012
 3562POPC   C4A47670  11.664  16.104   7.158
 3562POPC   C1B47671  12.477  16.235   6.046
 3562POPC   C2B47672  12.551  16.254   6.527
 3562POPC   C3B47673  12.548  15.990   6.941
 3562POPC   C4B47674  12.431  15.872   7.383
 3563POPC   NC347675   1.704  37.452   5.138
 3563POPC   PO447676   2.129  37.908   5.287
 3563POPC   GL147677   2.041  37.852   5.747
 3563POPC   GL247678   2.086  37.566   5.834
 3563POPC   C1A47679   1.810  37.764   6.199
 3563POPC   D2A47680   1.962  37.649   6.597
 3563POPC   C3A47681   1.772  37.529   7.010
 3563POPC   C4A47682   1.931  37.672   7.421
 3563POPC   C1B47683   2.339  37.551   6.160
 3563POPC   C2B47684   2.455  37.571   6.557
 3563POPC   C3B47685   2.290  37.560   6.976
 3563POPC   C4B47686   2.353  37.390   7.379
 3564POPC   NC347687  33.827   7.718   5.335
 3564POPC   PO447688  33.986   7.005   5.584
 3564POPC   GL147689  33.897   7.403   5.741
 3564POPC   GL247690  33.601   7.362   5.912
 3564POPC   C1A47691  33.971   7.591   6.160
 3564POPC   D2A47692  33.762   7.622   6.556
 3564POPC   C3A47693  33.912   7.448   6.922
 3564POPC   C4A47694  33.851   7.211   7.318
 3564POPC   C1B47695  33.345   7.288   6.266
 3564POPC   C2B47696  33.281   7.448   6.652
 3564POPC   C3B47697  33.413   7.496   7.050
 3564POPC   C4B47698  33.416   7.415   7.489
 3565POPC   NC347699  20.037  20.943   5.515
 3565POPC   PO447700  19.811  20.238   5.496
 3565POPC   GL147701  20.004  20.490   5.833
 3565POPC   GL247702  19.750  20.765   5.905
 3565POPC   C1A47703  20.034  20.593   6.286
 3565POPC   D2A47704  19.623  20.560   6.541
 3565POPC   C3A47705  19.710  20.636   6.956
 3565POPC   C4A47706  19.995  20.378   7.195
 3565POPC   C1B47707  19.692  20.983   6.289
 3565POPC   C2B47708  20.013  20.966   6.658
 3565POPC   C3B47709  20.024  21.010   7.120
 3565POPC   C4B47710  19.580  21.163   7.132
 3566POPC   NC347711  38.258  44.270   5.342
 3566POPC   PO447712  38.723  44.648   5.201
 3566POPC   GL147713  38.559  44.631   5.635
 3566POPC   GL247714  38.485  44.978   5.659
 3566POPC   C1A47715  38.447  44.520   6.101
 3566POPC   D2A47716  38.220  44.605   6.520
 3566POPC   C3A47717  38.354  44.471   6.947
 3566POPC   C4A47718  38.697  44.175   7.058
 3566POPC   C1B47719  38.780  44.945   6.003
 3566POPC   C2B47720  38.865  44.937   6.425
 3566POPC   C3B47721  38.549  44.941   6.756
 3566POPC   C4B47722  38.458  44.935   7.186
 3567POPC   NC347723  23.442  22.522   5.354
 3567POPC   PO447724  23.782  23.048   5.129
 3567POPC   GL147725  23.672  22.982   5.625
 3567POPC   GL247726  23.410  22.753   5.811
 3567POPC   C1A47727  23.802  23.088   6.072
 3567POPC   D2A47728  23.969  23.142   6.516
 3567POPC   C3A47729  23.768  22.841   6.811
 3567POPC   C4A47730  23.938  22.584   7.153
 3567POPC   C1B47731  23.286  23.124   6.052
 3567POPC   C2B47732  23.439  23.134   6.464
 3567POPC   C3B47733  23.206  23.018   6.809
 3567POPC   C4B47734  23.373  22.973   7.184
 3568POPC   NC347735  37.687  44.686   5.321
 3568POPC   PO447736  37.876  44.115   5.535
 3568POPC   GL147737  37.771  44.476   5.783
 3568POPC   GL247738  38.056  44.706   5.768
 3568POPC   C1A47739  37.809  44.616   6.212
 3568POPC   D2A47740  37.629  44.594   6.622
 3568POPC   C3A47741  37.786  44.437   6.989
 3568POPC   C4A47742  37.561  44.770   7.183
 3568POPC   C1B47743  38.254  44.997   6.110
 3568POPC   C2B47744  38.119   0.123   6.523
 3568POPC   C3B47745  38.004  44.906   6.892
 3568POPC   C4B47746  37.974   0.036   7.307
 3569POPC   NC347747  34.311  38.556   4.999
 3569POPC   PO447748  34.839  38.749   5.468
 3569POPC   GL147749  34.700  38.406   5.764
 3569POPC   GL247750  34.375  38.321   5.727
 3569POPC   C1A47751  34.767  38.258   6.195
 3569POPC   D2A47752  34.626  38.496   6.571
 3569POPC   C3A47753  34.905  38.527   6.909
 3569POPC   C4A47754  34.930  38.766   7.280
 3569POPC   C1B47755  34.248  38.301   6.171
 3569POPC   C2B47756  34.235  38.188   6.650
 3569POPC   C3B47757  34.326  38.426   7.037
 3569POPC   C4B47758  34.476  38.584   7.460
 3570POPC   NC347759  38.532  35.845   5.478
 3570POPC   PO447760  38.729  36.503   5.538
 3570POPC   GL147761  38.414  36.248   5.848
 3570POPC   GL247762  38.255  35.906   5.927
 3570POPC   C1A47763  38.300  36.329   6.297
 3570POPC   D2A47764  38.483  36.503   6.689
 3570POPC   C3A47765  38.417  36.280   7.056
 3570POPC   C4A47766  38.652  36.265   7.406
 3570POPC   C1B47767  38.587  35.900   6.242
 3570POPC   C2B47768  38.453  35.852   6.697
 3570POPC   C3B47769  38.656  35.818   7.111
 3570POPC   C4B47770  38.824  35.818   7.558
 3571POPC   NC347771  32.644  31.839   5.346
 3571POPC   PO447772  32.018  31.462   5.417
 3571POPC   GL147773  32.291  31.665   5.698
 3571POPC   GL247774  32.294  31.410   5.870
 3571POPC   C1A47775  32.318  31.791   6.183
 3571POPC   D2A47776  32.511  31.783   6.605
 3571POPC   C3A47777  32.285  31.624   6.952
 3571POPC   C4A47778  32.218  31.727   7.349
 3571POPC   C1B47779  32.420  31.264   6.211
 3571POPC   C2B47780  32.247  31.240   6.576
 3571POPC   C3B47781  32.441  31.146   6.919
 3571POPC   C4B47782  32.197  31.201   7.300
 3572POPC   NC347783  32.211  15.778   5.385
 3572POPC   PO447784  31.760  15.392   5.469
 3572POPC   GL147785  31.963  15.557   5.846
 3572POPC   GL247786  32.325  15.582   5.852
 3572POPC   C1A47787  32.001  15.400   6.286
 3572POPC   D2A47788  32.192  15.079   6.572
 3572POPC   C3A47789  32.179  15.164   7.037
 3572POPC   C4A47790  32.015  15.430   7.381
 3572POPC   C1B47791  32.486  15.526   6.285
 3572POPC   C2B47792  32.408  15.518   6.716
 3572POPC   C3B47793  32.571  15.483   7.096
 3572POPC   C4B47794  32.690  15.083   7.280
 3573POPC   NC347795   3.401   7.361   5.041
 3573POPC   PO447796   2.782   7.244   5.315
 3573POPC   GL147797   2.586   7.295   5.742
 3573POPC   GL247798   2.650   7.644   5.828
 3573POPC   C1A47799   2.539   7.303   6.205
 3573POPC   D2A47800   2.693   7.558   6.559
 3573POPC   C3A47801   2.570   7.378   6.963
 3573POPC   C4A47802   2.551   7.090   7.331
 3573POPC   C1B47803   3.004   7.436   6.066
 3573POPC   C2B47804   3.187   7.436   6.469
 3573POPC   C3B47805   3.096   7.576   6.889
 3573POPC   C4B47806   2.945   7.485   7.299
 3574POPC   NC347807   6.842  13.156   5.431
 3574POPC   PO447808   6.284  12.788   5.478
 3574POPC   GL147809   6.529  12.923   5.807
 3574POPC   GL247810   6.252  13.131   5.843
 3574POPC   C1A47811   6.770  12.827   6.212
 3574POPC   D2A47812   6.793  12.731   6.686
 3574POPC   C3A47813   6.934  13.060   6.992
 3574POPC   C4A47814   7.029  13.151   7.459
 3574POPC   C1B47815   6.220  12.908   6.222
 3574POPC   C2B47816   6.157  12.827   6.647
 3574POPC   C3B47817   6.426  13.019   6.942
 3574POPC   C4B47818   6.570  12.905   7.345
 3575POPC   NC347819  40.537   2.272   5.520
 3575POPC   PO447820  39.847   2.554   5.439
 3575POPC   GL147821  39.885   2.187   5.810
 3575POPC   GL247822  40.155   1.929   5.823
 3575POPC   C1A47823  39.787   1.980   6.229
 3575POPC   D2A47824  39.875   2.197   6.654
 3575POPC   C3A47825  39.968   1.928   7.032
 3575POPC   C4A47826  40.361   1.947   7.257
 3575POPC   C1B47827  40.209   1.641   6.196
 3575POPC   C2B47828  40.391   1.490   6.603
 3575POPC   C3B47829  40.250   1.478   7.061
 3575POPC   C4B47830  40.007   1.623   7.469
 3576POPC   NC347831   8.698   5.101   5.405
 3576POPC   PO447832   9.293   5.462   5.382
 3576POPC   GL147833   9.013   5.332   5.822
 3576POPC   GL247834   8.804   5.003   5.884
 3576POPC   C1A47835   8.899   5.241   6.323
 3576POPC   D2A47836   9.185   5.320   6.669
 3576POPC   C3A47837   9.167   5.225   7.088
 3576POPC   C4A47838   8.899   5.134   7.469
 3576POPC   C1B47839   9.216   4.929   6.083
 3576POPC   C2B47840   9.253   4.829   6.495
 3576POPC   C3B47841   8.970   4.835   6.799
 3576POPC   C4B47842   9.060   4.751   7.208
 3577POPC   NC347843  44.384  37.060   5.418
 3577POPC   PO447844  44.796  36.602   5.175
 3577POPC   GL147845  44.877  36.676   5.696
 3577POPC   GL247846  44.651  36.983   5.824
 3577POPC   C1A47847  44.975  36.843   6.145
 3577POPC   D2A47848  44.799  37.143   6.447
 3577POPC   C3A47849  44.865  37.058   6.862
 3577POPC   C4A47850   0.072  36.777   7.135
 3577POPC   C1B47851  44.387  37.219   6.150
 3577POPC   C2B47852  44.269  37.075   6.572
 3577POPC   C3B47853  44.344  37.182   7.007
 3577POPC   C4B47854  44.608  36.964   7.306
 3578POPC   NC347855   4.959  37.077   5.440
 3578POPC   PO447856   5.380  36.529   5.409
 3578POPC   GL147857   5.197  36.746   5.796
 3578POPC   GL247858   4.840  36.906   5.901
 3578POPC   C1A47859   5.276  36.693   6.277
 3578POPC   D2A47860   5.181  36.824   6.717
 3578POPC   C3A47861   5.400  36.667   7.100
 3578POPC   C4A47862   5.279  36.833   7.534
 3578POPC   C1B47863   4.587  37.235   6.179
 3578POPC   C2B47864   4.515  37.123   6.590
 3578POPC   C3B47865   4.788  37.117   6.923
 3578POPC   C4B47866   4.921  36.794   7.163
 3579POPC   NC347867  13.218  15.661   5.233
 3579POPC   PO447868  13.824  15.764   5.410
 3579POPC   GL147869  13.556  15.816   5.768
 3579POPC   GL247870  13.331  15.540   5.829
 3579POPC   C1A47871  13.683  16.059   6.152
 3579POPC   D2A47872  13.874  16.006   6.561
 3579POPC   C3A47873  13.589  16.068   6.922
 3579POPC   C4A47874  13.354  16.211   7.313
 3579POPC   C1B47875  13.696  15.520   6.148
 3579POPC   C2B47876  13.865  15.469   6.586
 3579POPC   C3B47877  13.861  15.643   7.007
 3579POPC   C4B47878  13.462  15.707   7.245
 3580POPC   NC347879   2.170  14.625   5.427
 3580POPC   PO447880   1.904  15.142   5.295
 3580POPC   GL147881   1.780  14.843   5.709
 3580POPC   GL247882   1.876  14.465   5.789
 3580POPC   C1A47883   1.906  14.788   6.174
 3580POPC   D2A47884   2.122  14.848   6.606
 3580POPC   C3A47885   1.935  14.596   6.975
 3580POPC   C4A47886   1.663  14.238   7.144
 3580POPC   C1B47887   2.089  14.261   6.141
 3580POPC   C2B47888   2.306  14.227   6.509
 3580POPC   C3B47889   2.194  14.081   6.896
 3580POPC   C4B47890   2.251  14.200   7.295
 3581POPC   NC347891  33.812  44.079   5.430
 3581POPC   PO447892  33.246  44.370   5.386
 3581POPC   GL147893  33.562  44.458   5.738
 3581POPC   GL247894  33.920  44.395   5.815
 3581POPC   C1A47895  33.585  44.494   6.209
 3581POPC   D2A47896  33.831  44.467   6.584
 3581POPC   C3A47897  33.684  44.608   6.995
 3581POPC   C4A47898  33.936  44.854   7.279
 3581POPC   C1B47899  34.098  44.261   6.194
 3581POPC   C2B47900  34.244  44.135   6.611
 3581POPC   C3B47901  34.168  44.391   6.982
 3581POPC   C4B47902  33.874  44.252   7.306
 3582POPC   NC347903  30.445   1.482   5.307
 3582POPC   PO447904  30.243   0.882   5.236
 3582POPC   GL147905  30.441   1.016   5.636
 3582POPC   GL247906  30.801   1.120   5.691
 3582POPC   C1A47907  30.499   0.993   6.099
 3582POPC   D2A47908  30.676   0.907   6.508
 3582POPC   C3A47909  30.623   1.168   6.869
 3582POPC   C4A47910  30.590   1.594   7.054
 3582POPC   C1B47911  31.028   1.021   6.132
 3582POPC   C2B47912  31.147   1.079   6.621
 3582POPC   C3B47913  31.094   1.326   7.042
 3582POPC   C4B47914  30.959   1.548   7.432
 3583POPC   NC347915  28.319  10.493   5.541
 3583POPC   PO447916  28.994  10.429   5.440
 3583POPC   GL147917  29.059  10.126   5.779
 3583POPC   GL247918  28.710  10.183   5.825
 3583POPC   C1A47919  29.289  10.073   6.191
 3583POPC   D2A47920  29.326  10.266   6.631
 3583POPC   C3A47921  29.024  10.181   6.969
 3583POPC   C4A47922  28.821  10.236   7.384
 3583POPC   C1B47923  28.855  10.336   6.228
 3583POPC   C2B47924  28.904  10.573   6.625
 3583POPC   C3B47925  28.873  10.670   7.080
 3583POPC   C4B47926  28.769  10.734   7.536
 3584POPC   NC347927  24.725  34.998   5.515
 3584POPC   PO447928  24.217  35.402   5.431
 3584POPC   GL147929  24.447  35.370   5.818
 3584POPC   GL247930  24.761  35.219   5.969
 3584POPC   C1A47931  24.377  35.403   6.255
 3584POPC   D2A47932  24.629  35.366   6.592
 3584POPC   C3A47933  24.393  35.320   6.969
 3584POPC   C4A47934  24.326  35.181   7.397
 3584POPC   C1B47935  24.772  35.672   6.125
 3584POPC   C2B47936  24.722  35.868   6.544
 3584POPC   C3B47937  24.690  35.756   6.957
 3584POPC   C4B47938  24.696  35.512   7.330
 3585POPC   NC347939  16.265  26.201   5.522
 3585POPC   PO447940  15.883  25.712   5.303
 3585POPC   GL147941  15.870  25.942   5.743
 3585POPC   GL247942  15.834  26.297   5.824
 3585POPC   C1A47943  16.063  25.992   6.196
 3585POPC   D2A47944  16.203  25.818   6.623
 3585POPC   C3A47945  16.069  25.929   7.048
 3585POPC   C4A47946  15.732  25.867   7.360
 3585POPC   C1B47947  15.836  26.464   6.254
 3585POPC   C2B47948  15.898  26.292   6.656
 3585POPC   C3B47949  15.707  26.296   7.044
 3585POPC   C4B47950  15.884  26.317   7.483
 3586POPC   NC347951  18.014  19.252   5.446
 3586POPC   PO447952  18.638  18.996   5.384
 3586POPC   GL147953  18.374  18.973   5.711
 3586POPC   GL247954  18.407  19.287   5.819
 3586POPC   C1A47955  18.304  18.910   6.175
 3586POPC   D2A47956  18.161  18.831   6.610
 3586POPC   C3A47957  17.894  19.077   6.846
 3586POPC   C4A47958  18.009  19.056   7.249
 3586POPC   C1B47959  18.285  19.418   6.218
 3586POPC   C2B47960  18.382  19.275   6.629
 3586POPC   C3B47961  18.276  19.430   7.036
 3586POPC   C4B47962  18.304  19.622   7.450
 3587POPC   NC347963  44.717  32.252   5.453
 3587POPC   PO447964  44.215  31.827   5.614
 3587POPC   GL147965  44.390  32.198   5.874
 3587POPC   GL247966  44.706  32.418   5.948
 3587POPC   C1A47967  44.412  32.217   6.330
 3587POPC   D2A47968  44.469  31.951   6.699
 3587POPC   C3A47969  44.605  32.151   7.069
 3587POPC   C4A47970  44.492  32.562   7.218
 3587POPC   C1B47971  44.909  32.315   6.383
 3587POPC   C2B47972  44.990  32.023   6.737
 3587POPC   C3B47973   0.106  32.053   7.169
 3587POPC   C4B47974   0.220  32.422   7.406
 3588POPC   NC347975  14.385  35.243   5.321
 3588POPC   PO447976  14.729  35.786   5.465
 3588POPC   GL147977  14.518  35.478   5.754
 3588POPC   GL247978  14.201  35.435   5.773
 3588POPC   C1A47979  14.427  35.172   6.148
 3588POPC   D2A47980  14.643  35.121   6.574
 3588POPC   C3A47981  14.411  35.131   6.964
 3588POPC   C4A47982  14.045  35.368   7.028
 3588POPC   C1B47983  14.216  35.638   6.160
 3588POPC   C2B47984  14.294  35.523   6.564
 3588POPC   C3B47985  14.602  35.588   6.847
 3588POPC   C4B47986  14.545  35.542   7.253
 3589POPC   NC347987  39.511  19.974   5.347
 3589POPC   PO447988  38.964  19.535   5.354
 3589POPC   GL147989  39.252  19.648   5.689
 3589POPC   GL247990  39.128  19.967   5.770
 3589POPC   C1A47991  39.178  19.591   6.138
 3589POPC   D2A47992  39.009  19.687   6.536
 3589POPC   C3A47993  39.184  19.536   6.893
 3589POPC   C4A47994  39.406  19.869   7.074
 3589POPC   C1B47995  38.844  20.040   6.149
 3589POPC   C2B47996  38.703  20.088   6.590
 3589POPC   C3B47997  38.856  19.951   6.981
 3589POPC   C4B47998  38.893  20.268   7.257
 3590POPC   NC347999  33.324  33.768   5.215
 3590POPC   PO448000  32.694  33.900   5.533
 3590POPC   GL148001  33.009  33.697   5.854
 3590POPC   GL248002  33.122  33.342   5.817
 3590POPC   C1A48003  33.122  33.722   6.332
 3590POPC   D2A48004  33.178  33.877   6.776
 3590POPC   C3A48005  32.816  33.855   7.078
 3590POPC   C4A48006  32.790  33.687   7.513
 3590POPC   C1B48007  32.895  33.267   6.244
 3590POPC   C2B48008  32.891  33.353   6.730
 3590POPC   C3B48009  33.130  33.439   7.157
 3590POPC   C4B48010  33.050  33.229   7.587
 3591POPC   NC348011  22.538  10.347   5.626
 3591POPC   PO448012  21.973   9.761   5.319
 3591POPC   GL148013  21.811   9.851   5.714
 3591POPC   GL248014  22.144   9.970   5.869
 3591POPC   C1A48015  21.689   9.755   6.143
 3591POPC   D2A48016  21.947   9.794   6.515
 3591POPC   C3A48017  22.104   9.558   6.867
 3591POPC   C4A48018  21.944   9.579   7.276
 3591POPC   C1B48019  22.456  10.022   6.251
 3591POPC   C2B48020  22.552   9.856   6.696
 3591POPC   C3B48021  22.336   9.961   7.096
 3591POPC   C4B48022  22.358  10.308   7.347
 3592POPC   NC348023  31.651  43.641   5.611
 3592POPC   PO448024  31.456  42.897   5.474
 3592POPC   GL148025  31.522  42.998   5.853
 3592POPC   GL248026  31.359  43.275   5.810
 3592POPC   C1A48027  31.438  42.799   6.239
 3592POPC   D2A48028  31.407  43.066   6.569
 3592POPC   C3A48029  31.542  42.933   6.959
 3592POPC   C4A48030  31.301  42.861   7.292
 3592POPC   C1B48031  31.528  43.418   6.199
 3592POPC   C2B48032  31.745  43.428   6.594
 3592POPC   C3B48033  31.576  43.507   6.973
 3592POPC   C4B48034  31.456  43.328   7.333
 3593POPC   NC348035  17.868  35.856   5.375
 3593POPC   PO448036  17.099  35.993   5.359
 3593POPC   GL148037  17.260  35.959   5.780
 3593POPC   GL248038  17.615  35.955   5.812
 3593POPC   C1A48039  17.182  36.251   6.138
 3593POPC   D2A48040  17.020  36.392   6.557
 3593POPC   C3A48041  17.138  36.083   6.893
 3593POPC   C4A48042  17.365  36.106   7.261
 3593POPC   C1B48043  17.545  35.836   6.256
 3593POPC   C2B48044  17.624  35.910   6.714
 3593POPC   C3B48045  17.857  36.018   7.098
 3593POPC   C4B48046  17.800  36.085   7.552
 3594POPC   NC348047  24.129  39.301   5.165
 3594POPC   PO448048  23.712  39.698   5.521
 3594POPC   GL148049  23.609  39.347   5.769
 3594POPC   GL248050  23.934  39.269   5.726
 3594POPC   C1A48051  23.445  39.202   6.157
 3594POPC   D2A48052  23.628  39.308   6.546
 3594POPC   C3A48053  23.580  39.062   6.893
 3594POPC   C4A48054  23.650  39.139   7.301
 3594POPC   C1B48055  23.912  38.971   6.062
 3594POPC   C2B48056  23.953  38.889   6.485
 3594POPC   C3B48057  24.072  38.852   6.889
 3594POPC   C4B48058  24.109  38.905   7.318
 3595POPC   NC348059  43.164  39.689   5.511
 3595POPC   PO448060  42.785  40.198   5.467
 3595POPC   GL148061  42.974  40.117   5.848
 3595POPC   GL248062  42.832  39.808   5.894
 3595POPC   C1A48063  43.217  40.172   6.225
 3595POPC   D2A48064  43.464  40.133   6.600
 3595POPC   C3A48065  43.322  40.345   6.919
 3595POPC   C4A48066  43.077  40.253   7.269
 3595POPC   C1B48067  42.706  39.610   6.297
 3595POPC   C2B48068  42.743  39.701   6.735
 3595POPC   C3B48069  43.072  39.901   6.884
 3595POPC   C4B48070  43.358  39.842   7.197
 3596POPC   NC348071  23.313  34.648   5.093
 3596POPC   PO448072  22.652  34.752   5.449
 3596POPC   GL148073  22.568  34.523   5.842
 3596POPC   GL248074  22.882  34.420   5.932
 3596POPC   C1A48075  22.544  34.411   6.302
 3596POPC   D2A48076  22.901  34.428   6.609
 3596POPC   C3A48077  22.758  34.313   7.035
 3596POPC   C4A48078  22.598  34.543   7.398
 3596POPC   C1B48079  23.271  34.376   6.141
 3596POPC   C2B48080  23.417  34.559   6.517
 3596POPC   C3B48081  23.247  34.741   6.888
 3596POPC   C4B48082  23.114  34.580   7.269
 3597POPC   NC348083  36.283  26.961   5.431
 3597POPC   PO448084  36.113  26.341   5.520
 3597POPC   GL148085  36.124  26.688   5.829
 3597POPC   GL248086  35.888  27.015   5.752
 3597POPC   C1A48087  36.393  26.772   6.196
 3597POPC   D2A48088  36.404  27.026   6.603
 3597POPC   C3A48089  36.249  26.842   7.017
 3597POPC   C4A48090  36.431  26.542   7.316
 3597POPC   C1B48091  35.941  26.991   6.207
 3597POPC   C2B48092  35.999  26.692   6.552
 3597POPC   C3B48093  35.760  26.717   6.920
 3597POPC   C4B48094  35.819  27.042   7.217
 3598POPC   NC348095   0.104  19.379   5.554
 3598POPC   PO448096   0.493  18.844   5.289
 3598POPC   GL148097   0.431  18.789   5.760
 3598POPC   GL248098   0.459  19.117   5.885
 3598POPC   C1A48099   0.299  18.725   6.230
 3598POPC   D2A48100   0.280  18.941   6.652
 3598POPC   C3A48101   0.275  18.727   7.050
 3598POPC   C4A48102   0.416  18.896   7.431
 3598POPC   C1B48103   0.472  19.288   6.315
 3598POPC   C2B48104   0.566  19.443   6.755
 3598POPC   C3B48105   0.642  19.326   7.194
 3598POPC   C4B48106   0.600  19.304   7.663
 3599POPC   NC348107  29.465   5.626   5.554
 3599POPC   PO448108  28.879   6.013   5.470
 3599POPC   GL148109  29.000   5.712   5.788
 3599POPC   GL248110  28.735   5.480   5.894
 3599POPC   C1A48111  29.275   5.747   6.180
 3599POPC   D2A48112  29.514   5.603   6.542
 3599POPC   C3A48113  29.275   5.771   6.897
 3599POPC   C4A48114  29.303   6.121   7.193
 3599POPC   C1B48115  28.754   5.836   6.204
 3599POPC   C2B48116  28.930   5.999   6.580
 3599POPC   C3B48117  28.811   5.932   7.002
 3599POPC   C4B48118  29.014   5.735   7.354
 3600POPC   NC348119  15.304   4.655   5.562
 3600POPC   PO448120  14.832   4.234   5.449
 3600POPC   GL148121  14.993   4.262   5.877
 3600POPC   GL248122  15.353   4.259   5.906
 3600POPC   C1A48123  15.041   4.138   6.317
 3600POPC   D2A48124  15.081   4.332   6.749
 3600POPC   C3A48125  15.152   4.148   7.166
 3600POPC   C4A48126  14.927   3.992   7.527
 3600POPC   C1B48127  15.413   4.517   6.274
 3600POPC   C2B48128  15.495   4.631   6.709
 3600POPC   C3B48129  15.513   4.522   7.145
 3600POPC   C4B48130  15.355   4.448   7.582
 3601POPC   NC348131   5.202  36.142   5.218
 3601POPC   PO448132   4.639  35.787   5.641
 3601POPC   GL148133   4.921  35.981   5.931
 3601POPC   GL248134   5.283  36.050   5.882
 3601POPC   C1A48135   4.920  36.421   6.058
 3601POPC   D2A48136   4.790  36.550   6.504
 3601POPC   C3A48137   4.999  36.360   6.882
 3601POPC   C4A48138   5.070  36.334   7.340
 3601POPC   C1B48139   5.152  36.111   6.375
 3601POPC   C2B48140   4.915  35.869   6.704
 3601POPC   C3B48141   4.981  35.628   7.094
 3601POPC   C4B48142   4.961  35.772   7.562
 3602POPC   NC348143  40.558   7.893   5.378
 3602POPC   PO448144  40.887   8.481   5.513
 3602POPC   GL148145  40.818   8.161   5.805
 3602POPC   GL248146  40.451   8.198   5.804
 3602POPC   C1A48147  41.012   8.249   6.219
 3602POPC   D2A48148  40.839   8.400   6.611
 3602POPC   C3A48149  41.180   8.438   6.908
 3602POPC   C4A48150  41.260   8.486   7.345
 3602POPC   C1B48151  40.546   8.073   6.234
 3602POPC   C2B48152  40.702   7.881   6.595
 3602POPC   C3B48153  40.816   8.038   6.975
 3602POPC   C4B48154  40.650   7.833   7.281
 3603POPC   NC348155  42.033  17.686   5.135
 3603POPC   PO448156  42.667  17.517   5.352
 3603POPC   GL148157  42.549  17.442   5.792
 3603POPC   GL248158  42.360  17.733   5.885
 3603POPC   C1A48159  42.426  17.413   6.255
 3603POPC   D2A48160  42.290  17.625   6.629
 3603POPC   C3A48161  42.051  17.340   6.927
 3603POPC   C4A48162  42.213  17.130   7.328
 3603POPC   C1B48163  42.666  17.882   6.265
 3603POPC   C2B48164  42.747  17.890   6.730
 3603POPC   C3B48165  42.539  17.668   7.079
 3603POPC   C4B48166  42.100  17.751   7.232
 3604POPC   NC348167  18.956  32.983   5.301
 3604POPC   PO448168  19.537  33.019   5.259
 3604POPC   GL148169  19.315  33.056   5.689
 3604POPC   GL248170  19.233  33.403   5.810
 3604POPC   C1A48171  19.249  32.846   6.117
 3604POPC   D2A48172  19.227  33.019   6.536
 3604POPC   C3A48173  19.196  32.859   6.953
 3604POPC   C4A48174  19.431  32.998   7.303
 3604POPC   C1B48175  19.050  33.386   6.204
 3604POPC   C2B48176  19.070  33.489   6.647
 3604POPC   C3B48177  18.984  33.357   7.076
 3604POPC   C4B48178  18.761  33.443   7.460
 3605POPC   NC348179  15.405  16.444   5.414
 3605POPC   PO448180  15.030  16.979   5.539
 3605POPC   GL148181  14.966  16.793   5.903
 3605POPC   GL248182  15.074  16.453   5.805
 3605POPC   C1A48183  15.008  16.945   6.332
 3605POPC   D2A48184  14.986  16.899   6.782
 3605POPC   C3A48185  15.236  17.046   7.112
 3605POPC   C4A48186  15.329  16.752   7.465
 3605POPC   C1B48187  14.986  16.407   6.236
 3605POPC   C2B48188  14.875  16.403   6.660
 3605POPC   C3B48189  15.170  16.485   7.024
 3605POPC   C4B48190  15.589  16.351   7.208
 3606POPC   NC348191  26.937  32.004   5.174
 3606POPC   PO448192  27.038  32.655   5.175
 3606POPC   GL148193  26.988  32.550   5.730
 3606POPC   GL248194  26.697  32.463   5.966
 3606POPC   C1A48195  27.141  32.562   6.203
 3606POPC   D2A48196  26.903  32.472   6.616
 3606POPC   C3A48197  26.996  32.289   7.050
 3606POPC   C4A48198  26.857  32.420   7.493
 3606POPC   C1B48199  26.852  32.115   6.237
 3606POPC   C2B48200  26.926  31.878   6.626
 3606POPC   C3B48201  26.784  31.802   7.055
 3606POPC   C4B48202  26.898  31.908   7.507
 3607POPC   NC348203  32.795  23.428   5.289
 3607POPC   PO448204  32.766  22.781   5.306
 3607POPC   GL148205  33.065  22.817   5.665
 3607POPC   GL248206  33.114  23.158   5.703
 3607POPC   C1A48207  33.143  22.817   6.136
 3607POPC   D2A48208  32.928  22.902   6.542
 3607POPC   C3A48209  33.081  22.825   6.955
 3607POPC   C4A48210  32.894  22.656   7.299
 3607POPC   C1B48211  32.910  23.303   6.123
 3607POPC   C2B48212  32.677  23.342   6.558
 3607POPC   C3B48213  32.701  23.179   7.007
 3607POPC   C4B48214  33.009  23.149   7.361
 3608POPC   NC348215  37.966  25.257   5.153
 3608POPC   PO448216  37.401  25.327   5.488
 3608POPC   GL148217  37.737  25.313   5.699
 3608POPC   GL248218  37.899  25.011   5.593
 3608POPC   C1A48219  37.669  25.347   6.150
 3608POPC   D2A48220  37.312  25.226   6.435
 3608POPC   C3A48221  37.339  25.472   6.806
 3608POPC   C4A48222  37.637  25.344   7.106
 3608POPC   C1B48223  38.043  25.021   6.034
 3608POPC   C2B48224  37.927  25.062   6.510
 3608POPC   C3B48225  38.105  25.059   6.955
 3608POPC   C4B48226  37.946  25.103   7.424
 3609POPC   NC348227  24.201   1.035   5.515
 3609POPC   PO448228  24.621   1.416   5.101
 3609POPC   GL148229  24.643   1.259   5.604
 3609POPC   GL248230  24.611   1.500   5.860
 3609POPC   C1A48231  24.474   1.026   6.071
 3609POPC   D2A48232  24.134   1.055   6.413
 3609POPC   C3A48233  24.195   0.988   6.891
 3609POPC   C4A48234  24.352   0.890   7.337
 3609POPC   C1B48235  24.377   1.497   6.276
 3609POPC   C2B48236  24.467   1.595   6.709
 3609POPC   C3B48237  24.730   1.402   7.033
 3609POPC   C4B48238  24.745   1.285   7.492
 3610POPC   NC348239  14.611  16.724   5.507
 3610POPC   PO448240  13.937  16.552   5.502
 3610POPC   GL148241  14.246  16.500   5.835
 3610POPC   GL248242  14.314  16.839   5.897
 3610POPC   C1A48243  14.484  16.517   6.246
 3610POPC   D2A48244  14.515  16.814   6.592
 3610POPC   C3A48245  14.554  16.715   7.032
 3610POPC   C4A48246  14.832  16.633   7.420
 3610POPC   C1B48247  14.148  16.979   6.274
 3610POPC   C2B48248  13.983  17.100   6.672
 3610POPC   C3B48249  13.870  16.961   7.075
 3610POPC   C4B48250  14.062  16.809   7.434
 3611POPC   NC348251  36.074  27.944   5.417
 3611POPC   PO448252  35.920  28.656   5.312
 3611POPC   GL148253  35.930  28.367   5.653
 3611POPC   GL248254  36.220  28.244   5.810
 3611POPC   C1A48255  35.900  28.477   6.104
 3611POPC   D2A48256  35.837  28.613   6.495
 3611POPC   C3A48257  36.140  28.609   6.799
 3611POPC   C4A48258  35.983  28.412   7.150
 3611POPC   C1B48259  36.422  28.315   6.205
 3611POPC   C2B48260  36.434  28.226   6.627
 3611POPC   C3B48261  36.420  28.186   7.044
 3611POPC   C4B48262  36.774  28.282   7.292
 3612POPC   NC348263   4.032  31.310   5.187
 3612POPC   PO448264   4.567  31.397   5.285
 3612POPC   GL148265   4.654  31.342   5.766
 3612POPC   GL248266   4.775  31.649   5.880
 3612POPC   C1A48267   4.622  31.326   6.261
 3612POPC   D2A48268   4.677  31.401   6.747
 3612POPC   C3A48269   4.370  31.419   7.104
 3612POPC   C4A48270   4.302  31.685   7.463
 3612POPC   C1B48271   4.888  31.774   6.313
 3612POPC   C2B48272   4.877  31.947   6.736
 3612POPC   C3B48273   4.723  31.800   7.126
 3612POPC   C4B48274   4.792  31.611   7.502
 3613POPC   NC348275  28.057   3.609   5.450
 3613POPC   PO448276  28.712   3.613   5.471
 3613POPC   GL148277  28.432   3.578   5.818
 3613POPC   GL248278  28.151   3.292   5.854
 3613POPC   C1A48279  28.428   3.557   6.250
 3613POPC   D2A48280  28.127   3.315   6.476
 3613POPC   C3A48281  28.239   3.286   6.899
 3613POPC   C4A48282  28.325   3.561   7.226
 3613POPC   C1B48283  27.971   3.666   6.086
 3613POPC   C2B48284  28.070   3.844   6.485
 3613POPC   C3B48285  27.978   3.740   6.899
 3613POPC   C4B48286  27.818   3.986   7.184
 3614POPC   NC348287  12.289  26.486   5.505
 3614POPC   PO448288  11.881  27.000   5.394
 3614POPC   GL148289  11.779  26.818   5.791
 3614POPC   GL248290  12.011  26.573   5.944
 3614POPC   C1A48291  11.777  26.961   6.204
 3614POPC   D2A48292  11.996  26.839   6.563
 3614POPC   C3A48293  11.859  26.820   6.976
 3614POPC   C4A48294  11.757  26.409   7.139
 3614POPC   C1B48295  12.276  26.940   6.115
 3614POPC   C2B48296  12.379  27.198   6.512
 3614POPC   C3B48297  12.543  27.085   6.927
 3614POPC   C4B48298  12.366  27.063   7.333
 3615POPC   NC348299  27.340  44.343   5.329
 3615POPC   PO448300  27.836  44.793   5.432
 3615POPC   GL148301  27.513  44.678   5.702
 3615POPC   GL248302  27.618  44.402   5.805
 3615POPC   C1A48303  27.338  44.732   6.105
 3615POPC   D2A48304  27.316  44.437   6.421
 3615POPC   C3A48305  27.339  44.563   6.858
 3615POPC   C4A48306  27.351  44.762   7.253
 3615POPC   C1B48307  27.799  44.556   6.190
 3615POPC   C2B48308  27.682  44.815   6.537
 3615POPC   C3B48309  27.823  44.714   6.946
 3615POPC   C4B48310  27.712  44.409   7.261
 3616POPC   NC348311  32.837  38.487   5.408
 3616POPC   PO448312  33.445  38.121   5.524
 3616POPC   GL148313  33.207  38.170   5.895
 3616POPC   GL248314  33.118  38.501   5.851
 3616POPC   C1A48315  33.163  38.365   6.338
 3616POPC   D2A48316  33.242  38.454   6.782
 3616POPC   C3A48317  33.018  38.238   7.123
 3616POPC   C4A48318  33.146  38.044   7.529
 3616POPC   C1B48319  32.732  38.582   6.139
 3616POPC   C2B48320  32.822  38.738   6.593
 3616POPC   C3B48321  32.908  38.733   7.071
 3616POPC   C4B48322  33.020  38.545   7.517
 3617POPC   NC348323  30.389  28.559   5.292
 3617POPC   PO448324  29.756  28.289   5.316
 3617POPC   GL148325  29.905  28.177   5.754
 3617POPC   GL248326  29.595  28.012   5.882
 3617POPC   C1A48327  30.001  28.148   6.212
 3617POPC   D2A48328  29.831  28.107   6.657
 3617POPC   C3A48329  29.862  28.422   7.023
 3617POPC   C4A48330  29.859  28.541   7.462
 3617POPC   C1B48331  29.492  28.323   6.246
 3617POPC   C2B48332  29.467  28.482   6.695
 3617POPC   C3B48333  29.387  28.201   7.028
 3617POPC   C4B48334  29.504  28.187   7.476
 3618POPC   NC348335  34.247  31.867   5.503
 3618POPC   PO448336  34.578  32.481   5.351
 3618POPC   GL148337  34.562  32.353   5.818
 3618POPC   GL248338  34.516  32.000   5.913
 3618POPC   C1A48339  34.412  32.287   6.291
 3618POPC   D2A48340  34.683  32.037   6.567
 3618POPC   C3A48341  34.767  32.202   6.965
 3618POPC   C4A48342  34.510  32.122   7.300
 3618POPC   C1B48343  34.182  31.826   6.189
 3618POPC   C2B48344  34.155  31.963   6.620
 3618POPC   C3B48345  34.081  32.025   7.042
 3618POPC   C4B48346  34.027  32.020   7.486
 3619POPC   NC348347  21.822  25.537   5.371
 3619POPC   PO448348  22.099  25.010   5.586
 3619POPC   GL148349  22.101  25.404   5.836
 3619POPC   GL248350  22.398  25.624   5.713
 3619POPC   C1A48351  21.989  25.454   6.298
 3619POPC   D2A48352  22.139  25.215   6.666
 3619POPC   C3A48353  22.074  25.254   7.123
 3619POPC   C4A48354  22.316  25.112   7.505
 3619POPC   C1B48355  22.340  25.792   6.121
 3619POPC   C2B48356  22.379  25.677   6.558
 3619POPC   C3B48357  22.456  25.565   6.980
 3619POPC   C4B48358  22.275  25.635   7.394
 3620POPC   NC348359   0.488  18.370   5.340
 3620POPC   PO448360   0.637  17.727   5.203
 3620POPC   GL148361   0.400  17.965   5.626
 3620POPC   GL248362   0.486  18.270   5.868
 3620POPC   C1A48363   0.180  17.936   6.066
 3620POPC   D2A48364   0.259  18.181   6.456
 3620POPC   C3A48365   0.172  18.222   6.905
 3620POPC   C4A48366   0.250  17.960   7.253
 3620POPC   C1B48367   0.695  18.367   6.265
 3620POPC   C2B48368   0.589  18.493   6.701
 3620POPC   C3B48369   0.623  18.321   7.148
 3620POPC   C4B48370   0.698  18.511   7.556
 3621POPC   NC348371  28.743   8.078   5.406
 3621POPC   PO448372  29.393   8.035   5.231
 3621POPC   GL148373  29.274   8.002   5.654
 3621POPC   GL248374  29.108   8.331   5.671
 3621POPC   C1A48375  29.361   7.937   6.104
 3621POPC   D2A48376  29.108   8.011   6.449
 3621POPC   C3A48377  29.098   8.077   6.870
 3621POPC   C4A48378  29.347   8.009   7.202
 3621POPC   C1B48379  29.056   8.400   6.112
 3621POPC   C2B48380  28.914   8.487   6.532
 3621POPC   C3B48381  28.883   8.626   6.934
 3621POPC   C4B48382  28.864   8.347   7.258
 3622POPC   NC348383   7.435  17.786   5.273
 3622POPC   PO448384   7.810  17.668   5.786
 3622POPC   GL148385   7.370  17.521   5.811
 3622POPC   GL248386   7.260  17.145   5.736
 3622POPC   C1A48387   7.327  17.642   6.252
 3622POPC   D2A48388   7.605  17.801   6.583
 3622POPC   C3A48389   7.333  17.807   6.941
 3622POPC   C4A48390   7.172  17.808   7.345
 3622POPC   C1B48391   7.477  17.143   6.153
 3622POPC   C2B48392   7.535  17.283   6.572
 3622POPC   C3B48393   7.605  17.358   6.984
 3622POPC   C4B48394   7.455  17.188   7.341
 3623POPC   NC348395  16.316   6.834   5.372
 3623POPC   PO448396  16.015   6.211   5.277
 3623POPC   GL148397  16.076   6.339   5.727
 3623POPC   GL248398  16.037   6.703   5.795
 3623POPC   C1A48399  16.113   6.390   6.196
 3623POPC   D2A48400  16.023   6.662   6.551
 3623POPC   C3A48401  15.893   6.455   6.916
 3623POPC   C4A48402  16.148   6.190   7.136
 3623POPC   C1B48403  16.057   6.982   6.142
 3623POPC   C2B48404  15.747   7.083   6.459
 3623POPC   C3B48405  15.822   7.003   6.903
 3623POPC   C4B48406  15.553   6.775   7.155
 3624POPC   NC348407  18.445  30.417   5.165
 3624POPC   PO448408  18.458  29.782   5.309
 3624POPC   GL148409  18.347  29.784   5.754
 3624POPC   GL248410  18.454  30.137   5.743
 3624POPC   C1A48411  18.124  29.613   6.185
 3624POPC   D2A48412  18.089  29.423   6.653
 3624POPC   C3A48413  18.002  29.659   7.057
 3624POPC   C4A48414  18.064  29.849   7.480
 3624POPC   C1B48415  18.401  30.067   6.193
 3624POPC   C2B48416  18.374  29.843   6.570
 3624POPC   C3B48417  18.507  29.672   6.920
 3624POPC   C4B48418  18.555  29.838   7.309
 3625POPC   NC348419  11.949  22.571   5.319
 3625POPC   PO448420  12.230  21.877   5.331
 3625POPC   GL148421  12.057  22.084   5.711
 3625POPC   GL248422  12.200  22.378   5.721
 3625POPC   C1A48423  12.177  22.074   6.153
 3625POPC   D2A48424  12.256  21.931   6.580
 3625POPC   C3A48425  12.023  22.150   6.892
 3625POPC   C4A48426  11.756  21.994   7.223
 3625POPC   C1B48427  12.447  22.525   6.075
 3625POPC   C2B48428  12.329  22.439   6.499
 3625POPC   C3B48429  12.313  22.588   6.893
 3625POPC   C4B48430  12.269  22.488   7.317
 3626POPC   NC348431   3.974  10.474   5.438
 3626POPC   PO448432   4.660  10.373   5.413
 3626POPC   GL148433   4.620  10.293   5.860
 3626POPC   GL248434   4.393  10.546   5.896
 3626POPC   C1A48435   4.383  10.262   6.304
 3626POPC   D2A48436   3.975  10.312   6.548
 3626POPC   C3A48437   4.019  10.511   6.972
 3626POPC   C4A48438   4.194  10.849   7.133
 3626POPC   C1B48439   4.684  10.699   6.232
 3626POPC   C2B48440   4.591  10.803   6.614
 3626POPC   C3B48441   4.613  10.568   6.960
 3626POPC   C4B48442   4.665  10.822   7.308
 3627POPC   NC348443  30.529  39.653   5.321
 3627POPC   PO448444  30.717  38.913   5.327
 3627POPC   GL148445  30.705  39.034   5.794
 3627POPC   GL248446  30.678  39.412   5.823
 3627POPC   C1A48447  30.862  39.096   6.237
 3627POPC   D2A48448  30.830  39.393   6.572
 3627POPC   C3A48449  30.839  39.152   6.943
 3627POPC   C4A48450  30.779  39.191   7.386
 3627POPC   C1B48451  30.390  39.247   6.168
 3627POPC   C2B48452  30.413  39.107   6.631
 3627POPC   C3B48453  30.369  38.969   7.091
 3627POPC   C4B48454  30.332  38.956   7.563
 3628POPC   NC348455  13.535  38.272   5.388
 3628POPC   PO448456  13.953  38.719   5.163
 3628POPC   GL148457  13.592  38.726   5.579
 3628POPC   GL248458  13.666  38.349   5.854
 3628POPC   C1A48459  13.459  38.749   6.024
 3628POPC   D2A48460  13.321  38.411   6.341
 3628POPC   C3A48461  13.469  38.408   6.789
 3628POPC   C4A48462  13.694  38.645   7.095
 3628POPC   C1B48463  13.841  38.452   6.274
 3628POPC   C2B48464  14.010  38.500   6.703
 3628POPC   C3B48465  14.174  38.511   7.133
 3628POPC   C4B48466  14.042  38.558   7.548
 3629POPC   NC348467   5.711  10.683   5.493
 3629POPC   PO448468   6.292  10.493   5.750
 3629POPC   GL148469   5.959  10.198   5.883
 3629POPC   GL248470   5.597  10.351   5.915
 3629POPC   C1A48471   5.960  10.243   6.335
 3629POPC   D2A48472   6.079  10.665   6.498
 3629POPC   C3A48473   6.103  10.687   6.933
 3629POPC   C4A48474   6.095  10.374   7.268
 3629POPC   C1B48475   5.484  10.411   6.365
 3629POPC   C2B48476   5.527  10.142   6.704
 3629POPC   C3B48477   5.636  10.378   7.057
 3629POPC   C4B48478   5.457  10.464   7.463
 3630POPC   NC348479   4.584  16.221   5.624
 3630POPC   PO448480   4.237  16.694   5.241
 3630POPC   GL148481   4.419  16.725   5.685
 3630POPC   GL248482   4.669  16.999   5.748
 3630POPC   C1A48483   4.376  16.691   6.142
 3630POPC   D2A48484   4.127  16.809   6.513
 3630POPC   C3A48485   4.271  16.744   6.954
 3630POPC   C4A48486   4.305  16.611   7.374
 3630POPC   C1B48487   4.800  16.965   6.208
 3630POPC   C2B48488   4.679  16.870   6.676
 3630POPC   C3B48489   4.873  16.982   7.125
 3630POPC   C4B48490   4.792  16.911   7.630
 3631POPC   NC348491  11.128  44.904   5.566
 3631POPC   PO448492  11.534  44.356   5.536
 3631POPC   GL148493  11.365  44.503   5.879
 3631POPC   GL248494  11.458  44.854   5.985
 3631POPC   C1A48495  11.077  44.537   6.185
 3631POPC   D2A48496  11.151  44.828   6.493
 3631POPC   C3A48497  11.311  44.607   6.835
 3631POPC   C4A48498  11.088  44.343   7.111
 3631POPC   C1B48499  11.596  44.582   6.348
 3631POPC   C2B48500  11.768  44.316   6.689
 3631POPC   C3B48501  11.654  44.375   7.133
 3631POPC   C4B48502  11.738  44.612   7.471
 3632POPC   NC348503  23.846  33.299   5.514
 3632POPC   PO448504  23.506  32.712   5.545
 3632POPC   GL148505  23.593  33.016   5.862
 3632POPC   GL248506  23.504  33.387   5.875
 3632POPC   C1A48507  23.614  32.940   6.269
 3632POPC   D2A48508  23.848  33.077   6.605
 3632POPC   C3A48509  23.824  32.766   6.943
 3632POPC   C4A48510  23.716  32.737   7.415
 3632POPC   C1B48511  23.447  33.413   6.307
 3632POPC   C2B48512  23.312  33.149   6.635
 3632POPC   C3B48513  23.499  33.170   7.009
 3632POPC   C4B48514  23.309  33.073   7.352
 3633POPC   NC348515  14.607  43.098   5.425
 3633POPC   PO448516  13.913  43.312   5.408
 3633POPC   GL148517  14.225  43.293   5.768
 3633POPC   GL248518  14.582  43.154   5.911
 3633POPC   C1A48519  14.251  43.344   6.222
 3633POPC   D2A48520  14.321  43.068   6.585
 3633POPC   C3A48521  14.340  43.203   7.023
 3633POPC   C4A48522  14.259  42.847   7.293
 3633POPC   C1B48523  14.756  42.753   6.121
 3633POPC   C2B48524  14.611  42.620   6.507
 3633POPC   C3B48525  14.725  42.883   6.882
 3633POPC   C4B48526  14.736  42.985   7.333
 3634POPC   NC348527  38.172  33.560   5.004
 3634POPC   PO448528  38.678  33.878   5.347
 3634POPC   GL148529  38.590  33.763   5.756
 3634POPC   GL248530  38.571  33.416   5.727
 3634POPC   C1A48531  38.532  33.920   6.176
 3634POPC   D2A48532  38.596  33.756   6.560
 3634POPC   C3A48533  38.724  34.009   6.910
 3634POPC   C4A48534  38.564  34.065   7.326
 3634POPC   C1B48535  38.537  33.344   6.154
 3634POPC   C2B48536  38.217  33.426   6.440
 3634POPC   C3B48537  38.256  33.537   6.875
 3634POPC   C4B48538  38.467  33.552   7.275
 3635POPC   NC348539  28.006   8.686   5.702
 3635POPC   PO448540  27.572   8.321   5.279
 3635POPC   GL148541  27.619   8.348   5.731
 3635POPC   GL248542  27.332   8.568   5.805
 3635POPC   C1A48543  27.788   8.048   6.098
 3635POPC   D2A48544  27.854   7.868   6.528
 3635POPC   C3A48545  27.734   8.109   6.870
 3635POPC   C4A48546  27.533   8.109   7.264
 3635POPC   C1B48547  27.294   8.169   6.062
 3635POPC   C2B48548  27.342   8.082   6.512
 3635POPC   C3B48549  27.173   8.172   6.922
 3635POPC   C4B48550  27.030   8.017   7.318
 3636POPC   NC348551   7.989  18.007   5.504
 3636POPC   PO448552   8.518  18.464   5.543
 3636POPC   GL148553   8.260  18.503   5.908
 3636POPC   GL248554   8.211  18.142   5.934
 3636POPC   C1A48555   8.252  18.465   6.376
 3636POPC   D2A48556   7.977  18.553   6.749
 3636POPC   C3A48557   8.047  18.422   7.196
 3636POPC   C4A48558   8.238  18.366   7.644
 3636POPC   C1B48559   8.152  17.895   6.293
 3636POPC   C2B48560   8.063  18.060   6.659
 3636POPC   C3B48561   8.325  17.969   6.963
 3636POPC   C4B48562   8.248  17.942   7.365
 3637POPC   NC348563  18.327   2.173   5.300
 3637POPC   PO448564  17.909   1.607   5.246
 3637POPC   GL148565  17.902   1.807   5.737
 3637POPC   GL248566  18.045   2.168   5.732
 3637POPC   C1A48567  18.176   1.812   6.163
 3637POPC   D2A48568  18.276   1.703   6.595
 3637POPC   C3A48569  18.472   1.948   6.962
 3637POPC   C4A48570  18.478   1.824   7.393
 3637POPC   C1B48571  18.145   2.327   6.135
 3637POPC   C2B48572  18.068   2.173   6.558
 3637POPC   C3B48573  17.968   1.965   6.953
 3637POPC   C4B48574  18.072   2.168   7.332
 3638POPC   NC348575  24.514   0.085   5.300
 3638POPC   PO448576  24.248   0.693   5.194
 3638POPC   GL148577  24.438   0.593   5.655
 3638POPC   GL248578  24.753   0.389   5.689
 3638POPC   C1A48579  24.526   0.513   6.129
 3638POPC   D2A48580  24.409   0.659   6.546
 3638POPC   C3A48581  24.350   0.464   6.944
 3638POPC   C4A48582  24.677   0.379   7.224
 3638POPC   C1B48583  24.808   0.104   6.071
 3638POPC   C2B48584  24.966   0.186   6.484
 3638POPC   C3B48585  24.947   0.053   6.921
 3638POPC   C4B48586  25.157  44.995   7.332
 3639POPC   NC348587   0.984  36.788   5.076
 3639POPC   PO448588   1.264  37.405   5.300
 3639POPC   GL148589   1.174  37.052   5.613
 3639POPC   GL248590   1.480  36.993   5.777
 3639POPC   C1A48591   1.072  37.019   6.090
 3639POPC   D2A48592   1.026  37.264   6.466
 3639POPC   C3A48593   0.954  37.049   6.852
 3639POPC   C4A48594   1.096  36.836   7.225
 3639POPC   C1B48595   1.566  36.895   6.223
 3639POPC   C2B48596   1.407  36.948   6.638
 3639POPC   C3B48597   1.529  37.050   7.056
 3639POPC   C4B48598   1.735  36.711   7.274
 3640POPC   NC348599  11.165   3.477   5.173
 3640POPC   PO448600  11.790   3.714   5.423
 3640POPC   GL148601  11.595   3.395   5.749
 3640POPC   GL248602  11.190   3.319   5.797
 3640POPC   C1A48603  11.485   3.335   6.196
 3640POPC   D2A48604  11.200   3.512   6.514
 3640POPC   C3A48605  11.251   3.361   6.898
 3640POPC   C4A48606  11.145   3.500   7.291
 3640POPC   C1B48607  11.004   3.142   6.242
 3640POPC   C2B48608  10.803   3.205   6.670
 3640POPC   C3B48609  10.844   3.096   7.132
 3640POPC   C4B48610  10.933   3.141   7.601
 3641POPC   NC348611  30.420  23.373   5.295
 3641POPC   PO448612  30.838  23.940   5.287
 3641POPC   GL148613  30.601  23.684   5.655
 3641POPC   GL248614  30.428  23.865   5.933
 3641POPC   C1A48615  30.640  23.450   6.090
 3641POPC   D2A48616  30.760  23.386   6.546
 3641POPC   C3A48617  30.563  23.617   6.893
 3641POPC   C4A48618  30.557  23.621   7.352
 3641POPC   C1B48619  30.673  23.961   6.334
 3641POPC   C2B48620  30.974  23.845   6.662
 3641POPC   C3B48621  30.960  23.854   7.116
 3641POPC   C4B48622  30.553  24.097   7.188
 3642POPC   NC348623  13.492  41.995   5.463
 3642POPC   PO448624  13.626  41.319   5.419
 3642POPC   GL148625  13.830  41.393   5.780
 3642POPC   GL248626  13.799  41.748   5.819
 3642POPC   C1A48627  13.735  41.324   6.181
 3642POPC   D2A48628  13.734  41.542   6.544
 3642POPC   C3A48629  13.578  41.368   6.887
 3642POPC   C4A48630  13.701  41.476   7.240
 3642POPC   C1B48631  13.466  41.778   6.161
 3642POPC   C2B48632  13.272  41.825   6.600
 3642POPC   C3B48633  13.403  41.829   7.030
 3642POPC   C4B48634  13.434  41.804   7.492
 3643POPC   NC348635   9.915  20.074   5.449
 3643POPC   PO448636  10.416  19.695   5.108
 3643POPC   GL148637  10.293  19.718   5.584
 3643POPC   GL248638  10.138  19.406   5.694
 3643POPC   C1A48639  10.501  19.834   6.018
 3643POPC   D2A48640  10.505  20.078   6.446
 3643POPC   C3A48641  10.568  19.924   6.876
 3643POPC   C4A48642  10.237  20.034   7.210
 3643POPC   C1B48643  10.238  19.427   6.174
 3643POPC   C2B48644  10.166  19.645   6.583
 3643POPC   C3B48645  10.258  19.545   7.031
 3643POPC   C4B48646  10.331  19.364   7.450
 3644POPC   NC348647  34.618  44.564   5.452
 3644POPC   PO448648  34.895   0.131   5.411
 3644POPC   GL148649  34.601  44.954   5.781
 3644POPC   GL248650  34.435  44.605   5.928
 3644POPC   C1A48651  34.648  44.951   6.240
 3644POPC   D2A48652  34.838  44.770   6.619
 3644POPC   C3A48653  34.544  44.823   6.973
 3644POPC   C4A48654  34.430  44.979   7.401
 3644POPC   C1B48655  34.813  44.465   6.168
 3644POPC   C2B48656  34.842  44.245   6.567
 3644POPC   C3B48657  34.904  44.388   6.959
 3644POPC   C4B48658  34.661  44.459   7.290
 3645POPC   NC348659  31.421  32.945   5.427
 3645POPC   PO448660  31.998  32.589   5.625
 3645POPC   GL148661  31.703  32.918   5.853
 3645POPC   GL248662  31.334  33.143   5.873
 3645POPC   C1A48663  31.594  32.940   6.262
 3645POPC   D2A48664  31.578  32.722   6.630
 3645POPC   C3A48665  31.821  32.986   6.905
 3645POPC   C4A48666  31.897  33.223   7.266
 3645POPC   C1B48667  31.094  33.114   6.245
 3645POPC   C2B48668  31.304  33.156   6.624
 3645POPC   C3B48669  31.301  32.970   6.999
 3645POPC   C4B48670  31.221  33.194   7.330
 3646POPC   NC348671  36.437  29.062   5.480
 3646POPC   PO448672  36.860  28.753   5.115
 3646POPC   GL148673  36.882  28.968   5.667
 3646POPC   GL248674  36.605  29.250   5.891
 3646POPC   C1A48675  37.016  29.117   6.134
 3646POPC   D2A48676  37.201  29.358   6.488
 3646POPC   C3A48677  37.224  29.206   6.915
 3646POPC   C4A48678  37.017  28.863   7.189
 3646POPC   C1B48679  36.566  29.240   6.339
 3646POPC   C2B48680  36.740  29.118   6.765
 3646POPC   C3B48681  36.687  29.237   7.200
 3646POPC   C4B48682  36.723  29.248   7.685
 3647POPC   NC348683  26.237  24.829   5.417
 3647POPC   PO448684  25.947  24.216   5.362
 3647POPC   GL148685  25.950  24.545   5.734
 3647POPC   GL248686  26.308  24.657   5.894
 3647POPC   C1A48687  25.866  24.727   6.164
 3647POPC   D2A48688  26.071  24.753   6.590
 3647POPC   C3A48689  25.837  24.564   6.927
 3647POPC   C4A48690  25.925  24.306   7.320
 3647POPC   C1B48691  26.264  24.377   6.252
 3647POPC   C2B48692  26.295  24.301   6.701
 3647POPC   C3B48693  26.317  24.535   7.071
 3647POPC   C4B48694  26.206  24.836   7.314
 3648POPC   NC348695  18.724   0.569   5.515
 3648POPC   PO448696  19.339   0.564   5.795
 3648POPC   GL148697  18.918   0.490   5.961
 3648POPC   GL248698  18.780   0.186   5.853
 3648POPC   C1A48699  18.708   0.443   6.332
 3648POPC   D2A48700  19.042   0.552   6.605
 3648POPC   C3A48701  19.016   0.691   7.016
 3648POPC   C4A48702  19.324   0.836   7.295
 3648POPC   C1B48703  19.110   0.111   6.222
 3648POPC   C2B48704  19.000   0.040   6.642
 3648POPC   C3B48705  19.058   0.152   7.053
 3648POPC   C4B48706  19.368   0.332   7.265
 3649POPC   NC348707  16.439  37.887   5.411
 3649POPC   PO448708  16.719  37.323   5.416
 3649POPC   GL148709  16.695  37.573   5.819
 3649POPC   GL248710  16.923  37.862   5.814
 3649POPC   C1A48711  16.638  37.718   6.270
 3649POPC   D2A48712  16.620  37.588   6.717
 3649POPC   C3A48713  16.647  37.831   7.133
 3649POPC   C4A48714  16.468  37.667   7.560
 3649POPC   C1B48715  17.126  37.646   6.188
 3649POPC   C2B48716  17.076  37.768   6.629
 3649POPC   C3B48717  17.058  37.477   6.996
 3649POPC   C4B48718  17.012  37.356   7.440
 3650POPC   NC348719  10.601  42.896   5.608
 3650POPC   PO448720  10.224  43.383   5.357
 3650POPC   GL148721  10.410  43.468   5.765
 3650POPC   GL248722  10.785  43.379   5.779
 3650POPC   C1A48723  10.342  43.433   6.217
 3650POPC   D2A48724  10.076  43.372   6.591
 3650POPC   C3A48725  10.270  43.268   7.013
 3650POPC   C4A48726  10.490  43.187   7.415
 3650POPC   C1B48727  10.782  43.169   6.184
 3650POPC   C2B48728  10.606  43.127   6.617
 3650POPC   C3B48729  10.818  43.120   7.030
 3650POPC   C4B48730  10.940  42.948   7.445
 3651POPC   NC348731  36.853  18.994   5.328
 3651POPC   PO448732  36.936  19.661   5.440
 3651POPC   GL148733  36.890  19.296   5.768
 3651POPC   GL248734  37.039  18.923   5.805
 3651POPC   C1A48735  36.802  19.157   6.179
 3651POPC   D2A48736  36.669  19.090   6.590
 3651POPC   C3A48737  36.604  18.777   6.891
 3651POPC   C4A48738  36.783  18.951   7.233
 3651POPC   C1B48739  37.041  18.725   6.252
 3651POPC   C2B48740  37.118  18.846   6.709
 3651POPC   C3B48741  37.251  18.743   7.140
 3651POPC   C4B48742  37.098  18.754   7.580
 3652POPC   NC348743  10.970   0.244   5.072
 3652POPC   PO448744  10.368   0.451   5.309
 3652POPC   GL148745  10.349   0.427   5.777
 3652POPC   GL248746  10.056   0.205   5.866
 3652POPC   C1A48747  10.683   0.476   6.140
 3652POPC   D2A48748  10.820   0.237   6.543
 3652POPC   C3A48749  10.801   0.448   6.948
 3652POPC   C4A48750  10.708   0.542   7.377
 3652POPC   C1B48751  10.279   0.190   6.263
 3652POPC   C2B48752  10.393   0.533   6.569
 3652POPC   C3B48753  10.333   0.734   6.964
 3652POPC   C4B48754  10.207   0.497   7.289
 3653POPC   NC348755  36.903  31.846   5.442
 3653POPC   PO448756  36.563  31.353   5.537
 3653POPC   GL148757  36.651  31.656   5.841
 3653POPC   GL248758  37.020  31.569   5.845
 3653POPC   C1A48759  36.730  31.554   6.261
 3653POPC   D2A48760  37.024  31.384   6.510
 3653POPC   C3A48761  36.824  31.478   6.897
 3653POPC   C4A48762  37.040  31.395   7.272
 3653POPC   C1B48763  37.227  31.813   6.148
 3653POPC   C2B48764  37.451  31.732   6.503
 3653POPC   C3B48765  37.302  31.627   6.882
 3653POPC   C4B48766  37.320  31.833   7.251
 3654POPC   NC348767  44.908   6.945   5.328
 3654POPC   PO448768   0.292   6.597   5.636
 3654POPC   GL148769   0.316   6.595   6.040
 3654POPC   GL248770   0.627   6.747   6.032
 3654POPC   C1A48771   0.371   6.698   6.465
 3654POPC   D2A48772   0.272   7.030   6.737
 3654POPC   C3A48773   0.569   6.925   7.056
 3654POPC   C4A48774   0.373   6.653   7.352
 3654POPC   C1B48775   0.706   6.325   6.251
 3654POPC   C2B48776   0.607   6.268   6.634
 3654POPC   C3B48777   0.626   6.374   7.023
 3654POPC   C4B48778   0.604   6.187   7.442
 3655POPC   NC348779  28.106  20.787   5.366
 3655POPC   PO448780  27.418  20.719   5.388
 3655POPC   GL148781  27.390  20.727   5.813
 3655POPC   GL248782  27.396  20.362   5.832
 3655POPC   C1A48783  27.637  20.843   6.219
 3655POPC   D2A48784  27.719  21.076   6.628
 3655POPC   C3A48785  27.697  20.857   7.010
 3655POPC   C4A48786  27.891  20.529   7.264
 3655POPC   C1B48787  27.279  20.479   6.251
 3655POPC   C2B48788  27.424  20.598   6.656
 3655POPC   C3B48789  27.371  20.460   7.086
 3655POPC   C4B48790  27.388  20.498   7.530
 3656POPC   NC348791  11.590  18.528   5.451
 3656POPC   PO448792  11.104  18.083   5.307
 3656POPC   GL148793  11.294  18.016   5.682
 3656POPC   GL248794  11.256  18.340   5.819
 3656POPC   C1A48795  11.405  17.932   6.107
 3656POPC   D2A48796  11.216  18.117   6.475
 3656POPC   C3A48797  11.277  17.998   6.903
 3656POPC   C4A48798  11.344  18.261   7.275
 3656POPC   C1B48799  11.594  18.427   6.126
 3656POPC   C2B48800  11.639  18.436   6.582
 3656POPC   C3B48801  11.421  18.641   6.942
 3656POPC   C4B48802  11.555  18.805   7.342
 3657POPC   NC348803  12.406  36.132   5.479
 3657POPC   PO448804  11.666  36.107   5.588
 3657POPC   GL148805  12.001  36.300   5.784
 3657POPC   GL248806  12.114  35.967   5.846
 3657POPC   C1A48807  12.098  36.338   6.217
 3657POPC   D2A48808  12.212  36.307   6.631
 3657POPC   C3A48809  12.096  36.140   7.006
 3657POPC   C4A48810  12.150  36.317   7.399
 3657POPC   C1B48811  12.358  35.840   6.182
 3657POPC   C2B48812  12.520  35.913   6.570
 3657POPC   C3B48813  12.441  35.742   6.951
 3657POPC   C4B48814  12.642  35.849   7.340
 3658POPC   NC348815  19.424  30.530   5.334
 3658POPC   PO448816  18.722  30.767   5.284
 3658POPC   GL148817  19.044  30.662   5.655
 3658POPC   GL248818  19.226  30.906   5.899
 3658POPC   C1A48819  19.253  30.398   6.029
 3658POPC   D2A48820  19.299  30.194   6.472
 3658POPC   C3A48821  19.315  30.449   6.859
 3658POPC   C4A48822  19.222  30.699   7.239
 3658POPC   C1B48823  19.278  30.840   6.399
 3658POPC   C2B48824  19.068  30.949   6.810
 3658POPC   C3B48825  18.754  30.907   7.170
 3658POPC   C4B48826  18.613  31.156   7.533
 3659POPC   NC348827  34.220  40.167   5.713
 3659POPC   PO448828  33.740  39.952   5.329
 3659POPC   GL148829  33.802  39.715   5.753
 3659POPC   GL248830  34.115  39.730   5.989
 3659POPC   C1A48831  33.662  39.628   6.182
 3659POPC   D2A48832  33.686  39.922   6.542
 3659POPC   C3A48833  33.805  39.696   6.883
 3659POPC   C4A48834  33.639  39.693   7.298
 3659POPC   C1B48835  34.145  40.048   6.353
 3659POPC   C2B48836  34.099  40.294   6.733
 3659POPC   C3B48837  33.900  40.173   7.098
 3659POPC   C4B48838  34.123  39.806   7.260
 3660POPC   NC348839  21.041  28.004   5.588
 3660POPC   PO448840  20.479  28.389   5.438
 3660POPC   GL148841  20.393  28.373   5.867
 3660POPC   GL248842  20.422  28.024   5.852
 3660POPC   C1A48843  20.623  28.397   6.274
 3660POPC   D2A48844  20.772  28.084   6.582
 3660POPC   C3A48845  21.017  28.240   6.936
 3660POPC   C4A48846  20.861  28.520   7.256
 3660POPC   C1B48847  20.326  28.007   6.295
 3660POPC   C2B48848  20.331  28.257   6.732
 3660POPC   C3B48849  20.355  28.389   7.204
 3660POPC   C4B48850  20.227  28.592   7.655
 3661POPC   NC348851  29.675   4.654   5.651
 3661POPC   PO448852  29.827   4.179   5.215
 3661POPC   GL148853  29.916   4.211   5.715
 3661POPC   GL248854  30.160   4.480   5.717
 3661POPC   C1A48855  29.751   4.332   6.183
 3661POPC   D2A48856  29.834   4.163   6.559
 3661POPC   C3A48857  29.611   4.184   6.932
 3661POPC   C4A48858  29.889   4.186   7.270
 3661POPC   C1B48859  30.184   4.576   6.129
 3661POPC   C2B48860  30.055   4.622   6.554
 3661POPC   C3B48861  30.219   4.519   6.971
 3661POPC   C4B48862  30.220   4.539   7.428
 3662POPC   NC348863   9.730   9.470   5.468
 3662POPC   PO448864   9.629  10.196   5.522
 3662POPC   GL148865   9.667   9.876   5.827
 3662POPC   GL248866   9.999   9.723   5.863
 3662POPC   C1A48867   9.514   9.605   6.141
 3662POPC   D2A48868   9.265   9.679   6.525
 3662POPC   C3A48869   9.454   9.848   6.887
 3662POPC   C4A48870   9.663   9.648   7.204
 3662POPC   C1B48871  10.009   9.606   6.309
 3662POPC   C2B48872   9.976   9.609   6.766
 3662POPC   C3B48873  10.154   9.645   7.139
 3662POPC   C4B48874  10.032   9.602   7.575
 3663POPC   NC348875  12.988  11.428   5.192
 3663POPC   PO448876  12.444  11.076   5.267
 3663POPC   GL148877  12.569  11.397   5.627
 3663POPC   GL248878  12.929  11.289   5.680
 3663POPC   C1A48879  12.591  11.427   6.116
 3663POPC   D2A48880  12.546  11.154   6.516
 3663POPC   C3A48881  12.733  11.294   6.907
 3663POPC   C4A48882  12.595  11.483   7.281
 3663POPC   C1B48883  13.075  11.168   6.081
 3663POPC   C2B48884  13.022  11.360   6.474
 3663POPC   C3B48885  13.243  11.284   6.886
 3663POPC   C4B48886  13.105  11.417   7.267
 3664POPC   NC348887  42.121   6.079   5.576
 3664POPC   PO448888  42.073   5.397   5.337
 3664POPC   GL148889  42.094   5.612   5.775
 3664POPC   GL248890  42.391   5.854   5.938
 3664POPC   C1A48891  42.095   5.547   6.215
 3664POPC   D2A48892  42.310   5.782   6.537
 3664POPC   C3A48893  42.174   5.774   6.951
 3664POPC   C4A48894  42.085   6.133   7.259
 3664POPC   C1B48895  42.143   6.165   6.234
 3664POPC   C2B48896  42.066   6.223   6.697
 3664POPC   C3B48897  42.483   6.170   6.933
 3664POPC   C4B48898  42.680   6.318   7.306
 3665POPC   NC348899  31.055  23.910   5.709
 3665POPC   PO448900  31.479  23.703   5.304
 3665POPC   GL148901  31.624  23.611   5.740
 3665POPC   GL248902  31.565  23.958   5.871
 3665POPC   C1A48903  31.652  23.430   6.183
 3665POPC   D2A48904  31.650  23.361   6.663
 3665POPC   C3A48905  31.293  23.492   6.906
 3665POPC   C4A48906  31.487  23.721   7.200
 3665POPC   C1B48907  31.380  24.002   6.299
 3665POPC   C2B48908  31.439  23.994   6.760
 3665POPC   C3B48909  31.534  24.214   7.124
 3665POPC   C4B48910  31.305  24.097   7.479
 3666POPC   NC348911  23.169  15.362   5.273
 3666POPC   PO448912  22.761  14.970   5.708
 3666POPC   GL148913  23.123  15.188   5.893
 3666POPC   GL248914  23.291  15.511   5.786
 3666POPC   C1A48915  23.143  15.142   6.359
 3666POPC   D2A48916  22.868  15.123   6.769
 3666POPC   C3A48917  23.022  14.995   7.159
 3666POPC   C4A48918  23.139  14.796   7.556
 3666POPC   C1B48919  23.294  15.633   6.240
 3666POPC   C2B48920  23.132  15.546   6.650
 3666POPC   C3B48921  23.094  15.521   7.079
 3666POPC   C4B48922  22.682  15.381   7.223
 3667POPC   NC348923  39.458   1.369   5.466
 3667POPC   PO448924  39.010   0.993   5.218
 3667POPC   GL148925  39.038   1.115   5.686
 3667POPC   GL248926  39.351   0.995   5.783
 3667POPC   C1A48927  39.110   1.229   6.182
 3667POPC   D2A48928  39.128   1.303   6.689
 3667POPC   C3A48929  39.256   1.261   7.152
 3667POPC   C4A48930  39.486   1.473   7.504
 3667POPC   C1B48931  39.470   0.881   6.176
 3667POPC   C2B48932  39.551   1.015   6.581
 3667POPC   C3B48933  39.613   0.870   6.980
 3667POPC   C4B48934  39.294   0.761   7.289
 3668POPC   NC348935  29.859   3.237   5.462
 3668POPC   PO448936  29.686   2.596   5.380
 3668POPC   GL148937  29.850   2.718   5.792
 3668POPC   GL248938  30.157   2.883   5.734
 3668POPC   C1A48939  29.909   2.546   6.223
 3668POPC   D2A48940  30.109   2.465   6.626
 3668POPC   C3A48941  29.954   2.487   7.053
 3668POPC   C4A48942  30.012   2.750   7.420
 3668POPC   C1B48943  30.134   3.014   6.157
 3668POPC   C2B48944  30.039   3.025   6.588
 3668POPC   C3B48945  30.194   2.971   6.985
 3668POPC   C4B48946  30.141   3.225   7.341
 3669POPC   NC348947  36.375  28.693   5.138
 3669POPC   PO448948  36.076  29.316   5.378
 3669POPC   GL148949  36.054  29.102   5.805
 3669POPC   GL248950  36.188  28.770   5.794
 3669POPC   C1A48951  36.121  28.971   6.268
 3669POPC   D2A48952  36.225  29.137   6.695
 3669POPC   C3A48953  36.131  29.026   7.107
 3669POPC   C4A48954  36.279  29.169   7.483
 3669POPC   C1B48955  36.560  28.774   6.053
 3669POPC   C2B48956  36.599  28.715   6.484
 3669POPC   C3B48957  36.666  28.615   6.909
 3669POPC   C4B48958  36.524  28.742   7.336
 3670POPC   NC348959  38.385  21.821   5.481
 3670POPC   PO448960  38.749  21.235   5.392
 3670POPC   GL148961  38.538  21.185   5.785
 3670POPC   GL248962  38.487  21.540   5.913
 3670POPC   C1A48963  38.375  21.095   6.211
 3670POPC   D2A48964  38.313  21.372   6.579
 3670POPC   C3A48965  38.356  21.192   6.985
 3670POPC   C4A48966  38.151  21.154   7.371
 3670POPC   C1B48967  38.731  21.491   6.278
 3670POPC   C2B48968  38.783  21.596   6.688
 3670POPC   C3B48969  38.465  21.691   6.987
 3670POPC   C4B48970  38.451  21.551   7.408
 3671POPC   NC348971  28.747  29.363   5.467
 3671POPC   PO448972  28.263  28.973   5.382
 3671POPC   GL148973  28.441  29.021   5.757
 3671POPC   GL248974  28.117  29.037   5.872
 3671POPC   C1A48975  28.544  29.173   6.190
 3671POPC   D2A48976  28.668  28.993   6.576
 3671POPC   C3A48977  28.578  29.249   6.896
 3671POPC   C4A48978  28.510  29.413   7.253
 3671POPC   C1B48979  28.036  28.953   6.257
 3671POPC   C2B48980  28.179  29.191   6.583
 3671POPC   C3B48981  28.003  29.259   6.956
 3671POPC   C4B48982  28.213  29.000   7.206
 3672POPC   NC348983   4.915   9.238   5.511
 3672POPC   PO448984   5.201   8.658   5.283
 3672POPC   GL148985   5.095   8.801   5.718
 3672POPC   GL248986   4.727   8.756   5.773
 3672POPC   C1A48987   5.158   9.128   6.094
 3672POPC   D2A48988   5.089   9.164   6.544
 3672POPC   C3A48989   5.319   9.212   6.909
 3672POPC   C4A48990   5.099   9.245   7.294
 3672POPC   C1B48991   4.962   8.623   6.173
 3672POPC   C2B48992   5.175   8.634   6.611
 3672POPC   C3B48993   5.084   8.762   7.061
 3672POPC   C4B48994   4.715   8.642   7.301
 3673POPC   NC348995  37.477  18.697   5.654
 3673POPC   PO448996  37.233  19.236   5.399
 3673POPC   GL148997  37.442  19.263   5.808
 3673POPC   GL248998  37.830  19.208   5.831
 3673POPC   C1A48999  37.391  19.117   6.243
 3673POPC   D2A49000  37.581  19.205   6.661
 3673POPC   C3A49001  37.376  19.236   7.057
 3673POPC   C4A49002  37.446  19.129   7.521
 3673POPC   C1B49003  37.895  19.049   6.272
 3673POPC   C2B49004  37.984  18.903   6.709
 3673POPC   C3B49005  37.842  18.979   7.150
 3673POPC   C4B49006  37.995  19.095   7.561
 3674POPC   NC349007   9.304   0.758   5.468
 3674POPC   PO449008   9.711   0.127   5.272
 3674POPC   GL149009   9.680   0.449   5.612
 3674POPC   GL249010   9.908   0.728   5.693
 3674POPC   C1A49011   9.639   0.481   6.099
 3674POPC   D2A49012   9.874   0.419   6.500
 3674POPC   C3A49013   9.826   0.576   6.922
 3674POPC   C4A49014   9.636   0.420   7.324
 3674POPC   C1B49015  10.093   0.722   6.130
 3674POPC   C2B49016  10.058   0.926   6.537
 3674POPC   C3B49017   9.925   1.062   6.945
 3674POPC   C4B49018   9.883   0.862   7.365
 3675POPC   NC349019   3.268   8.267   5.316
 3675POPC   PO449020   2.756   8.578   5.482
 3675POPC   GL149021   3.061   8.415   5.788
 3675POPC   GL249022   2.988   8.051   5.796
 3675POPC   C1A49023   2.967   8.402   6.224
 3675POPC   D2A49024   2.575   8.344   6.421
 3675POPC   C3A49025   2.589   8.425   6.860
 3675POPC   C4A49026   2.508   8.250   7.251
 3675POPC   C1B49027   2.889   7.904   6.235
 3675POPC   C2B49028   2.899   8.029   6.676
 3675POPC   C3B49029   2.935   8.001   7.126
 3675POPC   C4B49030   3.248   7.886   7.450
 3676POPC   NC349031   3.305  10.262   5.528
 3676POPC   PO449032   3.515  10.937   5.483
 3676POPC   GL149033   3.584  10.616   5.797
 3676POPC   GL249034   3.910  10.655   5.905
 3676POPC   C1A49035   3.587  10.304   6.160
 3676POPC   D2A49036   3.388  10.140   6.549
 3676POPC   C3A49037   3.610  10.212   6.898
 3676POPC   C4A49038   3.514  10.522   7.159
 3676POPC   C1B49039   3.792  10.772   6.301
 3676POPC   C2B49040   3.648  10.719   6.701
 3676POPC   C3B49041   3.709  10.982   7.063
 3676POPC   C4B49042   3.912  11.127   7.452
 3677POPC   NC349043  37.934   4.350   5.443
 3677POPC   PO449044  37.518   3.818   5.591
 3677POPC   GL149045  37.706   4.188   5.879
 3677POPC   GL249046  37.603   4.569   5.876
 3677POPC   C1A49047  37.924   4.339   6.280
 3677POPC   D2A49048  38.137   4.158   6.658
 3677POPC   C3A49049  38.047   4.195   7.110
 3677POPC   C4A49050  37.970   3.906   7.444
 3677POPC   C1B49051  37.451   4.532   6.331
 3677POPC   C2B49052  37.670   4.554   6.761
 3677POPC   C3B49053  37.723   4.590   7.235
 3677POPC   C4B49054  37.547   4.515   7.664
 3678POPC   NC349055  11.742   4.189   5.575
 3678POPC   PO449056  11.185   4.513   5.385
 3678POPC   GL149057  11.020   4.359   5.774
 3678POPC   GL249058  11.014   3.987   5.749
 3678POPC   C1A49059  11.147   4.272   6.195
 3678POPC   D2A49060  11.016   4.008   6.539
 3678POPC   C3A49061  11.053   4.311   6.867
 3678POPC   C4A49062  11.269   4.333   7.239
 3678POPC   C1B49063  11.337   3.813   6.078
 3678POPC   C2B49064  11.538   3.875   6.525
 3678POPC   C3B49065  11.340   3.878   6.964
 3678POPC   C4B49066  11.542   3.831   7.389
 3679POPC   NC349067  35.908  23.992   5.646
 3679POPC   PO449068  36.638  23.863   5.416
 3679POPC   GL149069  36.375  23.766   5.799
 3679POPC   GL249070  36.146  23.526   5.815
 3679POPC   C1A49071  36.139  23.806   6.234
 3679POPC   D2A49072  35.866  23.717   6.602
 3679POPC   C3A49073  36.118  23.784   6.987
 3679POPC   C4A49074  36.165  24.039   7.381
 3679POPC   C1B49075  35.776  23.446   6.133
 3679POPC   C2B49076  35.649  23.265   6.531
 3679POPC   C3B49077  35.885  23.309   6.933
 3679POPC   C4B49078  35.818  23.125   7.312
 3680POPC   NC349079   1.386   9.749   5.407
 3680POPC   PO449080   1.284   9.116   5.175
 3680POPC   GL149081   1.408   9.085   5.621
 3680POPC   GL249082   1.643   9.372   5.635
 3680POPC   C1A49083   1.251   8.902   6.081
 3680POPC   D2A49084   1.275   8.810   6.570
 3680POPC   C3A49085   1.071   8.970   6.963
 3680POPC   C4A49086   1.136   8.823   7.398
 3680POPC   C1B49087   1.538   9.315   6.048
 3680POPC   C2B49088   1.498   9.235   6.443
 3680POPC   C3B49089   1.535   9.391   6.843
 3680POPC   C4B49090   1.459   9.184   7.214
 3681POPC   NC349091  22.150  10.165   5.374
 3681POPC   PO449092  22.368  10.776   5.635
 3681POPC   GL149093  22.114  10.494   5.872
 3681POPC   GL249094  22.102  10.758   6.068
 3681POPC   C1A49095  21.978  10.255   6.258
 3681POPC   D2A49096  22.186  10.212   6.670
 3681POPC   C3A49097  22.284  10.587   6.897
 3681POPC   C4A49098  22.284  10.801   7.266
 3681POPC   C1B49099  21.833  10.727   6.362
 3681POPC   C2B49100  21.809  10.530   6.749
 3681POPC   C3B49101  21.880  10.455   7.210
 3681POPC   C4B49102  21.888  10.540   7.693
 3682POPC   NC349103  20.868   8.704   5.347
 3682POPC   PO449104  21.230   9.210   5.332
 3682POPC   GL149105  21.363   8.983   5.659
 3682POPC   GL249106  21.079   9.036   5.846
 3682POPC   C1A49107  21.587   9.078   6.037
 3682POPC   D2A49108  21.636   9.314   6.412
 3682POPC   C3A49109  21.479   9.104   6.780
 3682POPC   C4A49110  21.508   8.872   7.162
 3682POPC   C1B49111  21.170   8.927   6.307
 3682POPC   C2B49112  21.209   8.679   6.699
 3682POPC   C3B49113  21.058   8.634   7.140
 3682POPC   C4B49114  21.187   8.679   7.589
 3683POPC   NC349115  14.313  21.815   5.396
 3683POPC   PO449116  14.055  22.451   5.533
 3683POPC   GL149117  14.194  22.125   5.813
 3683POPC   GL249118  14.557  22.039   5.826
 3683POPC   C1A49119  14.269  22.200   6.242
 3683POPC   D2A49120  14.546  22.070   6.546
 3683POPC   C3A49121  14.274  22.145   6.890
 3683POPC   C4A49122  14.393  22.221   7.305
 3683POPC   C1B49123  14.747  22.380   6.135
 3683POPC   C2B49124  14.858  22.479   6.586
 3683POPC   C3B49125  14.792  22.241   6.965
 3683POPC   C4B49126  14.640  21.827   7.105
 3684POPC   NC349127   8.574  30.134   5.481
 3684POPC   PO449128   8.008  29.803   5.619
 3684POPC   GL149129   8.313  29.792   5.859
 3684POPC   GL249130   8.651  29.708   5.801
 3684POPC   C1A49131   8.262  29.676   6.246
 3684POPC   D2A49132   8.231  29.909   6.579
 3684POPC   C3A49133   8.054  29.734   6.891
 3684POPC   C4A49134   8.177  29.764   7.271
 3684POPC   C1B49135   8.622  30.071   6.133
 3684POPC   C2B49136   8.644  30.247   6.542
 3684POPC   C3B49137   8.581  30.046   6.931
 3684POPC   C4B49138   8.743  29.884   7.278
 3685POPC   NC349139  33.024  44.736   5.249
 3685POPC   PO449140  32.510  44.457   5.502
 3685POPC   GL149141  32.891  44.530   5.808
 3685POPC   GL249142  33.131  44.246   5.911
 3685POPC   C1A49143  33.068  44.655   6.234
 3685POPC   D2A49144  32.949  44.802   6.665
 3685POPC   C3A49145  33.197  44.849   7.075
 3685POPC   C4A49146  33.003   0.108   7.423
 3685POPC   C1B49147  32.783  44.221   6.219
 3685POPC   C2B49148  32.681  44.355   6.645
 3685POPC   C3B49149  32.881  44.441   7.027
 3685POPC   C4B49150  33.287  44.323   7.205
 3686POPC   NC349151  35.855  13.198   5.443
 3686POPC   PO449152  36.213  12.685   5.197
 3686POPC   GL149153  36.122  12.786   5.629
 3686POPC   GL249154  36.115  12.491   5.792
 3686POPC   C1A49155  35.902  12.930   6.035
 3686POPC   D2A49156  35.707  12.925   6.451
 3686POPC   C3A49157  35.819  13.055   6.831
 3686POPC   C4A49158  36.164  13.130   7.101
 3686POPC   C1B49159  36.275  12.605   6.198
 3686POPC   C2B49160  36.313  12.656   6.660
 3686POPC   C3B49161  36.041  12.626   7.007
 3686POPC   C4B49162  36.053  12.624   7.460
 3687POPC   NC349163  26.382  24.263   5.115
 3687POPC   PO449164  26.859  23.942   5.526
 3687POPC   GL149165  26.907  23.554   5.809
 3687POPC   GL249166  26.599  23.314   5.832
 3687POPC   C1A49167  27.139  23.613   6.216
 3687POPC   D2A49168  27.066  23.856   6.590
 3687POPC   C3A49169  27.146  23.693   6.991
 3687POPC   C4A49170  26.991  23.909   7.351
 3687POPC   C1B49171  26.673  23.415   6.279
 3687POPC   C2B49172  26.693  23.505   6.725
 3687POPC   C3B49173  26.665  23.900   6.942
 3687POPC   C4B49174  26.322  24.035   7.150
 3688POPC   NC349175   8.436  15.277   5.425
 3688POPC   PO449176   8.495  14.591   5.424
 3688POPC   GL149177   8.538  14.858   5.802
 3688POPC   GL249178   8.345  15.172   5.917
 3688POPC   C1A49179   8.464  14.826   6.256
 3688POPC   D2A49180   8.138  14.749   6.575
 3688POPC   C3A49181   8.307  14.815   6.967
 3688POPC   C4A49182   8.091  14.855   7.337
 3688POPC   C1B49183   8.038  15.146   6.262
 3688POPC   C2B49184   8.107  15.268   6.703
 3688POPC   C3B49185   8.022  15.311   7.149
 3688POPC   C4B49186   8.265  15.353   7.541
 3689POPC   NC349187  19.513  43.797   5.362
 3689POPC   PO449188  20.211  44.016   5.336
 3689POPC   GL149189  19.976  43.998   5.708
 3689POPC   GL249190  19.887  43.639   5.718
 3689POPC   C1A49191  19.956  43.968   6.163
 3689POPC   D2A49192  19.860  44.139   6.579
 3689POPC   C3A49193  19.924  43.858   6.882
 3689POPC   C4A49194  19.909  44.019   7.260
 3689POPC   C1B49195  19.603  43.568   6.048
 3689POPC   C2B49196  19.592  43.737   6.441
 3689POPC   C3B49197  19.459  43.643   6.820
 3689POPC   C4B49198  19.620  43.601   7.214
 3690POPC   NC349199  25.342  12.231   5.017
 3690POPC   PO449200  25.524  11.800   5.462
 3690POPC   GL149201  25.240  11.985   5.778
 3690POPC   GL249202  25.050  12.348   5.768
 3690POPC   C1A49203  25.471  11.944   6.177
 3690POPC   D2A49204  25.489  11.725   6.574
 3690POPC   C3A49205  25.247  11.904   6.916
 3690POPC   C4A49206  25.399  12.004   7.307
 3690POPC   C1B49207  24.886  12.366   6.229
 3690POPC   C2B49208  24.845  12.368   6.712
 3690POPC   C3B49209  25.051  12.345   7.148
 3690POPC   C4B49210  25.286  12.462   7.523
 3691POPC   NC349211  36.382  43.778   5.465
 3691POPC   PO449212  35.737  43.797   5.508
 3691POPC   GL149213  35.809  43.964   5.890
 3691POPC   GL249214  36.123  43.731   5.918
 3691POPC   C1A49215  35.944  43.985   6.309
 3691POPC   D2A49216  36.197  43.775   6.594
 3691POPC   C3A49217  35.995  43.847   6.956
 3691POPC   C4A49218  35.842  44.212   7.196
 3691POPC   C1B49219  36.492  43.608   6.195
 3691POPC   C2B49220  36.512  43.341   6.584
 3691POPC   C3B49221  36.484  43.543   6.976
 3691POPC   C4B49222  36.447  43.856   7.282
 3692POPC   NC349223   8.126  31.926   5.448
 3692POPC   PO449224   7.965  31.290   5.444
 3692POPC   GL149225   8.221  31.300   5.778
 3692POPC   GL249226   8.191  31.649   5.856
 3692POPC   C1A49227   8.114  31.233   6.194
 3692POPC   D2A49228   7.831  31.377   6.474
 3692POPC   C3A49229   7.936  31.367   6.897
 3692POPC   C4A49230   8.255  31.239   7.160
 3692POPC   C1B49231   8.072  31.766   6.246
 3692POPC   C2B49232   8.263  31.730   6.580
 3692POPC   C3B49233   8.237  31.797   6.942
 3692POPC   C4B49234   8.230  31.732   7.276
 3693POPC   NC349235  28.856  26.363   5.574
 3693POPC   PO449236  29.416  26.588   5.477
 3693POPC   GL149237  29.124  26.812   5.756
 3693POPC   GL249238  29.301  27.062   5.922
 3693POPC   C1A49239  28.871  26.774   6.153
 3693POPC   D2A49240  28.923  26.632   6.594
 3693POPC   C3A49241  29.084  26.828   6.957
 3693POPC   C4A49242  29.409  26.695   7.256
 3693POPC   C1B49243  29.283  27.013   6.383
 3693POPC   C2B49244  29.320  27.274   6.749
 3693POPC   C3B49245  29.390  27.202   7.180
 3693POPC   C4B49246  29.065  27.043   7.443
 3694POPC   NC349247   6.488  13.901   4.957
 3694POPC   PO449248   6.867  13.567   5.249
 3694POPC   GL149249   6.679  13.446   5.783
 3694POPC   GL249250   6.376  13.632   5.867
 3694POPC   C1A49251   6.584  13.301   6.207
 3694POPC   D2A49252   6.739  13.453   6.606
 3694POPC   C3A49253   6.448  13.550   6.940
 3694POPC   C4A49254   6.649  13.405   7.263
 3694POPC   C1B49255   6.618  13.810   6.206
 3694POPC   C2B49256   6.710  14.061   6.542
 3694POPC   C3B49257   6.850  13.875   6.903
 3694POPC   C4B49258   6.722  13.897   7.297
 3695POPC   NC349259  36.551  30.903   5.532
 3695POPC   PO449260  36.921  30.475   5.219
 3695POPC   GL149261  36.953  30.581   5.656
 3695POPC   GL249262  37.173  30.381   5.831
 3695POPC   C1A49263  37.075  30.858   6.038
 3695POPC   D2A49264  37.200  30.884   6.499
 3695POPC   C3A49265  36.951  30.996   6.856
 3695POPC   C4A49266  36.990  30.897   7.278
 3695POPC   C1B49267  36.804  30.434   6.130
 3695POPC   C2B49268  36.762  30.617   6.547
 3695POPC   C3B49269  36.923  30.497   6.969
 3695POPC   C4B49270  36.666  30.504   7.368
 3696POPC   NC349271   3.198  15.019   5.613
 3696POPC   PO449272   3.587  15.491   5.241
 3696POPC   GL149273   3.686  15.215   5.681
 3696POPC   GL249274   3.441  15.216   6.000
 3696POPC   C1A49275   3.904  15.298   6.108
 3696POPC   D2A49276   3.624  15.320   6.490
 3696POPC   C3A49277   3.767  15.342   6.920
 3696POPC   C4A49278   3.880  15.525   7.296
 3696POPC   C1B49279   3.133  15.372   6.283
 3696POPC   C2B49280   3.053  15.248   6.683
 3696POPC   C3B49281   3.162  15.161   7.085
 3696POPC   C4B49282   3.154  15.439   7.422
 3697POPC   NC349283  31.569  28.690   5.446
 3697POPC   PO449284  31.024  28.290   5.548
 3697POPC   GL149285  31.338  28.354   5.848
 3697POPC   GL249286  31.662  28.190   5.808
 3697POPC   C1A49287  31.318  28.190   6.266
 3697POPC   D2A49288  31.499  28.296   6.672
 3697POPC   C3A49289  31.349  28.176   7.093
 3697POPC   C4A49290  31.144  28.352   7.464
 3697POPC   C1B49291  31.751  28.459   6.190
 3697POPC   C2B49292  31.900  28.633   6.606
 3697POPC   C3B49293  31.825  28.466   7.036
 3697POPC   C4B49294  31.764  28.236   7.415
 3698POPC   NC349295  18.632  28.719   5.518
 3698POPC   PO449296  19.101  29.264   5.549
 3698POPC   GL149297  19.059  28.941   5.825
 3698POPC   GL249298  18.749  28.990   6.013
 3698POPC   C1A49299  19.219  28.857   6.224
 3698POPC   D2A49300  18.935  28.924   6.574
 3698POPC   C3A49301  19.085  28.988   7.004
 3698POPC   C4A49302  18.790  28.814   7.292
 3698POPC   C1B49303  19.026  29.338   6.270
 3698POPC   C2B49304  19.012  29.439   6.740
 3698POPC   C3B49305  18.976  29.564   7.120
 3698POPC   C4B49306  18.843  29.325   7.437
 3699POPC   NC349307  26.600   3.019   5.512
 3699POPC   PO449308  26.939   2.465   5.554
 3699POPC   GL149309  26.806   2.706   5.879
 3699POPC   GL249310  26.968   3.008   5.841
 3699POPC   C1A49311  26.823   2.804   6.299
 3699POPC   D2A49312  26.846   2.958   6.676
 3699POPC   C3A49313  26.653   2.666   6.910
 3699POPC   C4A49314  26.513   2.560   7.295
 3699POPC   C1B49315  26.982   3.278   6.184
 3699POPC   C2B49316  27.198   3.335   6.560
 3699POPC   C3B49317  27.276   3.073   6.908
 3699POPC   C4B49318  26.942   2.951   7.220
 3700POPC   NC349319   1.346  19.937   5.328
 3700POPC   PO449320   0.879  20.364   5.517
 3700POPC   GL149321   1.137  20.077   5.810
 3700POPC   GL249322   1.324  19.732   5.793
 3700POPC   C1A49323   1.037  19.880   6.224
 3700POPC   D2A49324   1.009  19.468   6.487
 3700POPC   C3A49325   1.052  19.542   6.940
 3700POPC   C4A49326   1.145  19.957   7.115
 3700POPC   C1B49327   1.453  19.596   6.226
 3700POPC   C2B49328   1.386  19.816   6.651
 3700POPC   C3B49329   1.551  19.660   7.091
 3700POPC   C4B49330   1.508  19.659   7.576
 3701POPC   NC349331  22.849   1.498   5.341
 3701POPC   PO449332  23.267   1.891   5.649
 3701POPC   GL149333  22.967   1.920   5.931
 3701POPC   GL249334  22.682   1.752   5.798
 3701POPC   C1A49335  22.888   1.686   6.288
 3701POPC   D2A49336  22.916   1.906   6.662
 3701POPC   C3A49337  23.288   2.116   6.791
 3701POPC   C4A49338  23.084   2.084   7.146
 3701POPC   C1B49339  22.537   2.081   6.150
 3701POPC   C2B49340  22.494   2.260   6.584
 3701POPC   C3B49341  22.563   2.104   6.995
 3701POPC   C4B49342  22.675   2.361   7.335
 3702POPC   NC349343   0.256  14.136   5.349
 3702POPC   PO449344   0.665  14.622   5.247
 3702POPC   GL149345   0.607  14.441   5.678
 3702POPC   GL249346   0.278  14.352   5.805
 3702POPC   C1A49347   0.678  14.338   6.131
 3702POPC   D2A49348   0.577  14.191   6.561
 3702POPC   C3A49349   0.715  14.365   6.988
 3702POPC   C4A49350   0.581  14.329   7.446
 3702POPC   C1B49351   0.156  14.343   6.237
 3702POPC   C2B49352   0.074  14.312   6.678
 3702POPC   C3B49353   0.210  14.443   7.070
 3702POPC   C4B49354   0.118  14.645   7.446
 3703POPC   NC349355  36.377  12.286   5.397
 3703POPC   PO449356  35.884  11.872   5.299
 3703POPC   GL149357  35.879  12.044   5.697
 3703POPC   GL249358  36.197  11.937   5.746
 3703POPC   C1A49359  35.920  12.202   6.150
 3703POPC   D2A49360  35.877  12.443   6.488
 3703POPC   C3A49361  35.940  12.171   6.800
 3703POPC   C4A49362  35.846  12.195   7.212
 3703POPC   C1B49363  36.396  12.119   6.059
 3703POPC   C2B49364  36.365  12.167   6.479
 3703POPC   C3B49365  36.625  12.253   6.817
 3703POPC   C4B49366  36.349  12.208   7.150
 3704POPC   NC349367  20.434  34.857   5.559
 3704POPC   PO449368  20.917  34.391   5.344
 3704POPC   GL149369  20.703  34.449   5.744
 3704POPC   GL249370  20.719  34.768   5.971
 3704POPC   C1A49371  20.583  34.281   6.150
 3704POPC   D2A49372  20.651  34.456   6.549
 3704POPC   C3A49373  20.442  34.404   6.916
 3704POPC   C4A49374  20.636  34.304   7.286
 3704POPC   C1B49375  20.859  34.905   6.394
 3704POPC   C2B49376  20.721  34.883   6.847
 3704POPC   C3B49377  20.895  34.799   7.274
 3704POPC   C4B49378  20.924  35.002   7.725
 3705POPC   NC349379  36.659  21.402   5.434
 3705POPC   PO449380  37.336  21.146   5.519
 3705POPC   GL149381  37.021  21.249   5.799
 3705POPC   GL249382  36.902  21.573   5.862
 3705POPC   C1A49383  37.079  21.312   6.250
 3705POPC   D2A49384  37.238  21.227   6.646
 3705POPC   C3A49385  36.896  21.203   6.949
 3705POPC   C4A49386  36.489  21.088   7.124
 3705POPC   C1B49387  37.050  21.827   6.205
 3705POPC   C2B49388  37.221  21.984   6.579
 3705POPC   C3B49389  37.061  21.689   6.870
 3705POPC   C4B49390  36.959  21.680   7.289
 3706POPC   NC349391  43.320  38.703   5.553
 3706POPC   PO449392  43.839  39.025   5.291
 3706POPC   GL149393  43.698  39.060   5.725
 3706POPC   GL249394  44.028  38.899   5.788
 3706POPC   C1A49395  43.669  39.354   6.146
 3706POPC   D2A49396  43.875  39.491   6.575
 3706POPC   C3A49397  44.125  39.466   7.012
 3706POPC   C4A49398  44.095  39.503   7.511
 3706POPC   C1B49399  43.886  38.908   6.180
 3706POPC   C2B49400  43.674  38.984   6.537
 3706POPC   C3B49401  43.825  38.886   6.927
 3706POPC   C4B49402  43.951  39.054   7.289
 3707POPC   NC349403  24.048  20.954   5.539
 3707POPC   PO449404  23.427  21.306   5.517
 3707POPC   GL149405  23.776  21.470   5.787
 3707POPC   GL249406  23.856  21.178   5.944
 3707POPC   C1A49407  23.980  21.624   6.207
 3707POPC   D2A49408  23.784  21.701   6.612
 3707POPC   C3A49409  23.810  21.676   7.055
 3707POPC   C4A49410  23.838  21.579   7.492
 3707POPC   C1B49411  23.975  21.131   6.364
 3707POPC   C2B49412  23.702  21.208   6.698
 3707POPC   C3B49413  23.774  21.181   7.115
 3707POPC   C4B49414  24.157  20.867   7.034
 3708POPC   NC349415  42.097   8.361   5.456
 3708POPC   PO449416  42.707   7.932   5.442
 3708POPC   GL149417  42.371   8.041   5.744
 3708POPC   GL249418  42.260   8.348   5.925
 3708POPC   C1A49419  42.339   7.929   6.163
 3708POPC   D2A49420  42.220   7.971   6.575
 3708POPC   C3A49421  42.566   8.104   6.816
 3708POPC   C4A49422  42.480   8.057   7.227
 3708POPC   C1B49423  42.080   8.391   6.304
 3708POPC   C2B49424  42.263   8.505   6.661
 3708POPC   C3B49425  42.260   8.572   7.060
 3708POPC   C4B49426  42.464   8.809   7.331
 3709POPC   NC349427   9.802  12.206   5.461
 3709POPC   PO449428   9.245  11.804   5.485
 3709POPC   GL149429   9.432  12.094   5.808
 3709POPC   GL249430   9.658  11.833   5.817
 3709POPC   C1A49431   9.728  12.120   6.211
 3709POPC   D2A49432   9.848  11.989   6.612
 3709POPC   C3A49433   9.863  12.316   6.906
 3709POPC   C4A49434  10.090  12.307   7.263
 3709POPC   C1B49435   9.377  11.752   6.177
 3709POPC   C2B49436   9.352  11.789   6.599
 3709POPC   C3B49437   9.430  12.030   6.940
 3709POPC   C4B49438   9.658  12.019   7.312
 3710POPC   NC349439  13.274  26.821   5.115
 3710POPC   PO449440  12.717  26.684   5.441
 3710POPC   GL149441  12.671  26.815   5.794
 3710POPC   GL249442  12.883  26.506   5.898
 3710POPC   C1A49443  12.792  26.928   6.197
 3710POPC   D2A49444  12.891  27.121   6.549
 3710POPC   C3A49445  13.030  26.860   6.883
 3710POPC   C4A49446  13.011  27.061   7.263
 3710POPC   C1B49447  12.512  26.491   6.156
 3710POPC   C2B49448  12.463  26.681   6.554
 3710POPC   C3B49449  12.331  26.606   6.982
 3710POPC   C4B49450  12.683  26.691   7.239
 3711POPC   NC349451  27.558  28.146   5.204
 3711POPC   PO449452  27.399  28.619   5.588
 3711POPC   GL149453  27.664  28.478   5.917
 3711POPC   GL249454  27.823  28.181   5.808
 3711POPC   C1A49455  27.613  28.444   6.383
 3711POPC   D2A49456  27.319  28.674   6.729
 3711POPC   C3A49457  27.329  28.525   7.138
 3711POPC   C4A49458  27.655  28.414   7.430
 3711POPC   C1B49459  28.086  28.305   6.168
 3711POPC   C2B49460  28.109  28.455   6.596
 3711POPC   C3B49461  27.755  28.368   6.861
 3711POPC   C4B49462  27.581  28.067   7.047
 3712POPC   NC349463  17.907  20.030   5.476
 3712POPC   PO449464  18.369  19.542   5.378
 3712POPC   GL149465  18.287  19.780   5.746
 3712POPC   GL249466  18.005  19.617   5.824
 3712POPC   C1A49467  18.201  19.928   6.193
 3712POPC   D2A49468  18.089  20.083   6.608
 3712POPC   C3A49469  18.231  19.940   7.020
 3712POPC   C4A49470  18.498  20.085   7.372
 3712POPC   C1B49471  17.797  19.607   6.196
 3712POPC   C2B49472  17.964  19.557   6.609
 3712POPC   C3B49473  17.801  19.591   7.006
 3712POPC   C4B49474  17.819  19.513   7.443
 3713POPC   NC349475  44.177  21.700   5.513
 3713POPC   PO449476  43.597  21.924   5.536
 3713POPC   GL149477  43.763  21.541   5.790
 3713POPC   GL249478  44.046  21.259   5.713
 3713POPC   C1A49479  44.007  21.500   6.182
 3713POPC   D2A49480  44.166  21.458   6.603
 3713POPC   C3A49481  43.967  21.697   6.930
 3713POPC   C4A49482  43.781  21.611   7.322
 3713POPC   C1B49483  44.095  20.992   6.073
 3713POPC   C2B49484  43.929  21.010   6.499
 3713POPC   C3B49485  43.809  21.185   6.904
 3713POPC   C4B49486  44.087  21.231   7.246
 3714POPC   NC349487  11.637  25.190   5.522
 3714POPC   PO449488  11.100  25.512   5.738
 3714POPC   GL149489  11.214  25.175   5.927
 3714POPC   GL249490  11.540  25.200   6.011
 3714POPC   C1A49491  11.203  25.172   6.376
 3714POPC   D2A49492  11.080  24.935   6.666
 3714POPC   C3A49493  11.200  25.130   7.040
 3714POPC   C4A49494  11.401  25.009   7.368
 3714POPC   C1B49495  11.527  25.579   6.272
 3714POPC   C2B49496  11.731  25.723   6.669
 3714POPC   C3B49497  11.628  25.451   7.003
 3714POPC   C4B49498  11.740  25.379   7.402
 3715POPC   NC349499  32.675  36.935   5.393
 3715POPC   PO449500  33.240  37.294   5.248
 3715POPC   GL149501  33.039  37.093   5.707
 3715POPC   GL249502  32.748  37.154   5.885
 3715POPC   C1A49503  33.066  36.861   6.136
 3715POPC   D2A49504  33.171  36.998   6.578
 3715POPC   C3A49505  32.956  36.788   6.943
 3715POPC   C4A49506  33.205  36.610   7.288
 3715POPC   C1B49507  32.804  37.369   6.262
 3715POPC   C2B49508  33.065  37.512   6.611
 3715POPC   C3B49509  32.977  37.294   7.007
 3715POPC   C4B49510  32.549  37.338   7.208
 3716POPC   NC349511   6.658  13.869   5.537
 3716POPC   PO449512   6.603  14.494   5.296
 3716POPC   GL149513   6.567  14.427   5.742
 3716POPC   GL249514   6.296  14.619   5.824
 3716POPC   C1A49515   6.820  14.428   6.162
 3716POPC   D2A49516   7.065  14.468   6.569
 3716POPC   C3A49517   6.811  14.382   6.940
 3716POPC   C4A49518   6.621  14.385   7.332
 3716POPC   C1B49519   6.314  14.775   6.211
 3716POPC   C2B49520   6.507  14.640   6.578
 3716POPC   C3B49521   6.328  14.596   6.979
 3716POPC   C4B49522   6.348  14.817   7.397
 3717POPC   NC349523  44.394  35.414   5.401
 3717POPC   PO449524  44.975  35.763   5.464
 3717POPC   GL149525  44.668  35.588   5.793
 3717POPC   GL249526  44.770  35.276   5.831
 3717POPC   C1A49527  44.512  35.439   6.231
 3717POPC   D2A49528  44.674  35.332   6.645
 3717POPC   C3A49529  44.475  35.369   7.041
 3717POPC   C4A49530  44.651  35.419   7.446
 3717POPC   C1B49531  44.965  35.192   6.238
 3717POPC   C2B49532   0.127  35.127   6.709
 3717POPC   C3B49533  44.985  35.034   7.171
 3717POPC   C4B49534  44.940  35.065   7.659
 3718POPC   NC349535  17.459  44.679   5.368
 3718POPC   PO449536  18.088   0.051   5.362
 3718POPC   GL149537  17.883  44.882   5.792
 3718POPC   GL249538  17.603  44.610   5.842
 3718POPC   C1A49539  17.688  44.897   6.248
 3718POPC   D2A49540  17.464   0.033   6.636
 3718POPC   C3A49541  17.704  44.888   7.012
 3718POPC   C4A49542  17.833  44.451   7.112
 3718POPC   C1B49543  17.520  44.403   6.243
 3718POPC   C2B49544  17.587  44.517   6.665
 3718POPC   C3B49545  17.344  44.491   7.026
 3718POPC   C4B49546  16.921  44.393   7.008
 3719POPC   NC349547  43.976  40.178   5.408
 3719POPC   PO449548  43.595  39.532   5.473
 3719POPC   GL149549  43.550  39.795   5.826
 3719POPC   GL249550  43.484  40.144   5.770
 3719POPC   C1A49551  43.683  39.875   6.224
 3719POPC   D2A49552  43.957  40.017   6.547
 3719POPC   C3A49553  43.789  39.866   6.927
 3719POPC   C4A49554  44.055  39.940   7.247
 3719POPC   C1B49555  43.686  40.395   6.116
 3719POPC   C2B49556  43.824  40.536   6.534
 3719POPC   C3B49557  43.887  40.365   6.946
 3719POPC   C4B49558  43.631  40.261   7.316
 3720POPC   NC349559  16.682  21.651   5.458
 3720POPC   PO449560  17.017  21.130   5.407
 3720POPC   GL149561  16.954  21.313   5.794
 3720POPC   GL249562  16.990  21.653   5.878
 3720POPC   C1A49563  16.802  21.259   6.188
 3720POPC   D2A49564  16.893  21.336   6.582
 3720POPC   C3A49565  16.599  21.247   6.866
 3720POPC   C4A49566  16.850  21.315   7.195
 3720POPC   C1B49567  16.726  21.762   6.241
 3720POPC   C2B49568  16.511  21.684   6.614
 3720POPC   C3B49569  16.537  21.720   7.068
 3720POPC   C4B49570  16.935  21.869   7.182
 3721POPC   NC349571  29.647  24.008   5.263
 3721POPC   PO449572  30.085  24.504   5.403
 3721POPC   GL149573  29.989  24.461   5.817
 3721POPC   GL249574  30.276  24.367   5.946
 3721POPC   C1A49575  29.774  24.444   6.216
 3721POPC   D2A49576  29.867  24.558   6.641
 3721POPC   C3A49577  29.638  24.433   7.002
 3721POPC   C4A49578  29.304  24.243   7.205
 3721POPC   C1B49579  30.168  24.093   6.294
 3721POPC   C2B49580  30.285  24.043   6.738
 3721POPC   C3B49581  30.141  24.349   7.036
 3721POPC   C4B49582  30.100  24.486   7.468
 3722POPC   NC349583  22.406  40.647   5.542
 3722POPC   PO449584  22.095  41.247   5.456
 3722POPC   GL149585  22.028  40.981   5.786
 3722POPC   GL249586  21.908  40.612   5.676
 3722POPC   C1A49587  22.158  41.080   6.217
 3722POPC   D2A49588  22.336  40.748   6.508
 3722POPC   C3A49589  22.282  40.846   6.936
 3722POPC   C4A49590  22.498  40.733   7.299
 3722POPC   C1B49591  21.971  40.610   6.146
 3722POPC   C2B49592  21.795  40.854   6.509
 3722POPC   C3B49593  21.765  40.781   6.965
 3722POPC   C4B49594  22.017  40.639   7.355
 3723POPC   NC349595  27.459  26.546   5.322
 3723POPC   PO449596  27.681  25.934   5.402
 3723POPC   GL149597  27.764  25.973   5.785
 3723POPC   GL249598  27.750  26.345   5.768
 3723POPC   C1A49599  27.760  25.726   6.165
 3723POPC   D2A49600  27.389  25.717   6.466
 3723POPC   C3A49601  27.386  25.897   6.914
 3723POPC   C4A49602  27.738  25.859   7.236
 3723POPC   C1B49603  27.615  26.204   6.199
 3723POPC   C2B49604  27.740  26.075   6.602
 3723POPC   C3B49605  27.740  26.310   6.992
 3723POPC   C4B49606  27.412  26.274   7.330
 3724POPC   NC349607  44.098  22.677   5.331
 3724POPC   PO449608  43.440  22.665   5.396
 3724POPC   GL149609  43.779  22.815   5.733
 3724POPC   GL249610  44.110  22.638   5.841
 3724POPC   C1A49611  43.916  22.993   6.153
 3724POPC   D2A49612  43.665  23.050   6.519
 3724POPC   C3A49613  43.870  23.115   6.947
 3724POPC   C4A49614  43.786  23.192   7.405
 3724POPC   C1B49615  44.125  22.492   6.264
 3724POPC   C2B49616  44.154  22.796   6.586
 3724POPC   C3B49617  44.159  22.695   6.988
 3724POPC   C4B49618  43.926  22.722   7.333
 3725POPC   NC349619  31.343   2.693   5.318
 3725POPC   PO449620  31.837   2.477   5.500
 3725POPC   GL149621  31.460   2.562   5.810
 3725POPC   GL249622  31.225   2.867   5.811
 3725POPC   C1A49623  31.282   2.570   6.268
 3725POPC   D2A49624  31.272   2.428   6.738
 3725POPC   C3A49625  31.317   2.746   7.064
 3725POPC   C4A49626  31.591   2.873   7.413
 3725POPC   C1B49627  31.341   3.083   6.251
 3725POPC   C2B49628  31.362   3.180   6.728
 3725POPC   C3B49629  31.290   3.248   7.179
 3725POPC   C4B49630  31.306   3.227   7.644
 3726POPC   NC349631  34.300  14.344   5.274
 3726POPC   PO449632  34.955  14.611   5.380
 3726POPC   GL149633  34.663  14.576   5.720
 3726POPC   GL249634  34.509  14.257   5.751
 3726POPC   C1A49635  34.582  14.514   6.169
 3726POPC   D2A49636  34.721  14.632   6.540
 3726POPC   C3A49637  34.554  14.569   6.964
 3726POPC   C4A49638  34.876  14.346   7.237
 3726POPC   C1B49639  34.321  14.080   6.161
 3726POPC   C2B49640  34.322  14.222   6.616
 3726POPC   C3B49641  34.443  14.091   7.058
 3726POPC   C4B49642  34.408  14.345   7.449
 3727POPC   NC349643  18.914  29.673   5.413
 3727POPC   PO449644  19.420  30.053   5.330
 3727POPC   GL149645  19.243  29.948   5.695
 3727POPC   GL249646  18.963  30.137   5.686
 3727POPC   C1A49647  19.353  29.840   6.105
 3727POPC   D2A49648  19.399  29.670   6.510
 3727POPC   C3A49649  19.379  29.893   6.904
 3727POPC   C4A49650  19.394  29.750   7.340
 3727POPC   C1B49651  18.853  29.888   6.044
 3727POPC   C2B49652  18.883  29.848   6.487
 3727POPC   C3B49653  18.872  30.039   6.912
 3727POPC   C4B49654  19.113  30.175   7.267
 3728POPC   NC349655  41.687  39.256   5.269
 3728POPC   PO449656  41.146  39.461   5.628
 3728POPC   GL149657  41.487  39.182   5.764
 3728POPC   GL249658  41.821  39.203   5.753
 3728POPC   C1A49659  41.615  39.001   6.174
 3728POPC   D2A49660  41.544  39.153   6.586
 3728POPC   C3A49661  41.692  38.970   6.931
 3728POPC   C4A49662  41.471  38.946   7.297
 3728POPC   C1B49663  41.748  39.498   6.112
 3728POPC   C2B49664  41.906  39.500   6.546
 3728POPC   C3B49665  41.762  39.510   6.969
 3728POPC   C4B49666  41.864  39.770   7.316
 3729POPC   NC349667   3.629  42.978   5.259
 3729POPC   PO449668   3.243  43.532   5.322
 3729POPC   GL149669   3.520  43.311   5.661
 3729POPC   GL249670   3.441  42.977   5.790
 3729POPC   C1A49671   3.641  43.308   6.139
 3729POPC   D2A49672   3.475  43.257   6.586
 3729POPC   C3A49673   3.470  43.484   7.004
 3729POPC   C4A49674   3.274  43.429   7.411
 3729POPC   C1B49675   3.595  42.808   6.230
 3729POPC   C2B49676   3.534  42.771   6.696
 3729POPC   C3B49677   3.456  42.975   7.093
 3729POPC   C4B49678   3.725  43.192   7.389
 3730POPC   NC349679   2.670  36.361   5.212
 3730POPC   PO449680   3.133  35.912   5.184
 3730POPC   GL149681   2.894  36.088   5.595
 3730POPC   GL249682   2.687  36.424   5.715
 3730POPC   C1A49683   2.854  36.105   6.069
 3730POPC   D2A49684   2.859  36.228   6.497
 3730POPC   C3A49685   2.717  35.917   6.783
 3730POPC   C4A49686   2.552  35.930   7.194
 3730POPC   C1B49687   2.523  36.519   6.149
 3730POPC   C2B49688   2.430  36.490   6.587
 3730POPC   C3B49689   2.669  36.384   6.974
 3730POPC   C4B49690   2.669  36.400   7.441
 3731POPC   NC349691  32.062  43.123   5.402
 3731POPC   PO449692  32.477  43.738   5.479
 3731POPC   GL149693  32.329  43.343   5.788
 3731POPC   GL249694  31.947  43.296   5.858
 3731POPC   C1A49695  32.433  43.128   6.175
 3731POPC   D2A49696  32.742  42.947   6.498
 3731POPC   C3A49697  32.613  42.964   6.928
 3731POPC   C4A49698  32.420  43.222   7.201
 3731POPC   C1B49699  31.884  43.064   6.231
 3731POPC   C2B49700  31.870  42.840   6.567
 3731POPC   C3B49701  32.051  43.020   6.894
 3731POPC   C4B49702  31.925  43.129   7.281
 3732POPC   NC349703  14.001   2.189   5.570
 3732POPC   PO449704  14.599   1.926   5.668
 3732POPC   GL149705  14.290   1.957   5.955
 3732POPC   GL249706  13.999   1.747   5.866
 3732POPC   C1A49707  14.443   1.960   6.373
 3732POPC   D2A49708  14.443   2.181   6.743
 3732POPC   C3A49709  14.603   1.877   7.032
 3732POPC   C4A49710  14.594   1.888   7.479
 3732POPC   C1B49711  13.965   1.778   6.345
 3732POPC   C2B49712  14.109   1.790   6.796
 3732POPC   C3B49713  14.157   1.697   7.261
 3732POPC   C4B49714  14.161   1.868   7.725
 3733POPC   NC349715  44.317  23.537   5.064
 3733POPC   PO449716  43.782  23.896   5.381
 3733POPC   GL149717  43.823  23.665   5.762
 3733POPC   GL249718  43.886  23.312   5.739
 3733POPC   C1A49719  44.048  23.560   6.149
 3733POPC   D2A49720  43.918  23.477   6.563
 3733POPC   C3A49721  44.050  23.623   6.960
 3733POPC   C4A49722  44.202  23.718   7.384
 3733POPC   C1B49723  43.559  23.379   6.103
 3733POPC   C2B49724  43.362  23.471   6.511
 3733POPC   C3B49725  43.533  23.514   6.911
 3733POPC   C4B49726  43.678  23.656   7.281
 3734POPC   NC349727  42.812   8.384   5.548
 3734POPC   PO449728  43.379   8.429   5.348
 3734POPC   GL149729  43.204   8.093   5.705
 3734POPC   GL249730  42.853   8.033   5.927
 3734POPC   C1A49731  43.289   8.038   6.156
 3734POPC   D2A49732  43.007   8.035   6.506
 3734POPC   C3A49733  43.136   8.214   6.893
 3734POPC   C4A49734  42.991   8.008   7.250
 3734POPC   C1B49735  42.665   8.354   6.258
 3734POPC   C2B49736  42.789   8.557   6.680
 3734POPC   C3B49737  42.772   8.465   7.143
 3734POPC   C4B49738  42.704   8.287   7.597
 3735POPC   NC349739  12.382  25.257   5.608
 3735POPC   PO449740  12.994  25.256   5.564
 3735POPC   GL149741  12.768  25.024   5.880
 3735POPC   GL249742  13.057  24.883   6.010
 3735POPC   C1A49743  12.645  25.105   6.325
 3735POPC   D2A49744  12.666  24.898   6.720
 3735POPC   C3A49745  12.643  25.235   6.997
 3735POPC   C4A49746  12.749  25.410   7.375
 3735POPC   C1B49747  13.078  25.344   6.191
 3735POPC   C2B49748  13.147  25.539   6.579
 3735POPC   C3B49749  13.128  25.470   7.008
 3735POPC   C4B49750  13.288  25.402   7.422
 3736POPC   NC349751  39.402  38.896   5.371
 3736POPC   PO449752  39.061  39.465   5.518
 3736POPC   GL149753  39.332  39.224   5.774
 3736POPC   GL249754  39.196  38.902   5.860
 3736POPC   C1A49755  39.382  39.295   6.204
 3736POPC   D2A49756  39.176  39.310   6.593
 3736POPC   C3A49757  39.381  39.380   6.980
 3736POPC   C4A49758  39.280  39.252   7.393
 3736POPC   C1B49759  39.065  38.875   6.302
 3736POPC   C2B49760  38.765  38.985   6.641
 3736POPC   C3B49761  38.739  38.826   7.086
 3736POPC   C4B49762  38.974  38.868   7.492
 3737POPC   NC349763  33.384  39.689   5.443
 3737POPC   PO449764  32.811  40.067   5.310
 3737POPC   GL149765  33.046  40.002   5.737
 3737POPC   GL249766  33.421  40.101   5.732
 3737POPC   C1A49767  32.863  39.874   6.183
 3737POPC   D2A49768  32.741  39.567   6.535
 3737POPC   C3A49769  32.875  39.739   6.954
 3737POPC   C4A49770  32.848  40.199   7.066
 3737POPC   C1B49771  33.347  40.030   6.157
 3737POPC   C2B49772  33.193  40.146   6.563
 3737POPC   C3B49773  33.367  40.015   6.960
 3737POPC   C4B49774  33.187  39.968   7.345
 3738POPC   NC349775  27.911  24.582   5.087
 3738POPC   PO449776  27.671  24.519   5.619
 3738POPC   GL149777  27.539  24.532   5.959
 3738POPC   GL249778  27.761  24.265   6.078
 3738POPC   C1A49779  27.635  24.669   6.341
 3738POPC   D2A49780  27.759  24.426   6.693
 3738POPC   C3A49781  27.559  24.632   7.047
 3738POPC   C4A49782  27.650  24.790   7.452
 3738POPC   C1B49783  27.331  24.188   6.247
 3738POPC   C2B49784  27.231  24.372   6.621
 3738POPC   C3B49785  27.220  24.244   7.043
 3738POPC   C4B49786  27.136  24.574   7.351
 3739POPC   NC349787  21.188  27.113   5.058
 3739POPC   PO449788  21.305  27.638   5.490
 3739POPC   GL149789  21.435  27.472   5.832
 3739POPC   GL249790  21.770  27.526   5.842
 3739POPC   C1A49791  21.249  27.560   6.200
 3739POPC   D2A49792  21.207  27.876   6.480
 3739POPC   C3A49793  21.030  27.722   6.861
 3739POPC   C4A49794  21.188  27.709   7.262
 3739POPC   C1B49795  21.734  27.379   6.232
 3739POPC   C2B49796  21.587  27.552   6.597
 3739POPC   C3B49797  21.520  27.447   6.980
 3739POPC   C4B49798  21.673  27.484   7.395
 3740POPC   NC349799   1.051  14.387   5.416
 3740POPC   PO449800   1.764  14.154   5.357
 3740POPC   GL149801   1.436  14.232   5.716
 3740POPC   GL249802   1.081  14.162   5.876
 3740POPC   C1A49803   1.393  14.511   6.083
 3740POPC   D2A49804   1.075  14.541   6.419
 3740POPC   C3A49805   1.237  14.450   6.826
 3740POPC   C4A49806   1.123  14.625   7.210
 3740POPC   C1B49807   1.077  14.022   6.310
 3740POPC   C2B49808   1.017  13.988   6.752
 3740POPC   C3B49809   1.109  14.092   7.186
 3740POPC   C4B49810   1.029  14.110   7.620
 3741POPC   NC349811  34.928  34.242   5.493
 3741POPC   PO449812  35.395  33.657   5.551
 3741POPC   GL149813  35.576  33.700   5.925
 3741POPC   GL249814  35.546  34.027   6.031
 3741POPC   C1A49815  35.351  33.669   6.317
 3741POPC   D2A49816  35.188  33.412   6.634
 3741POPC   C3A49817  35.176  33.402   7.075
 3741POPC   C4A49818  35.468  33.566   7.388
 3741POPC   C1B49819  35.180  34.140   6.295
 3741POPC   C2B49820  35.064  33.922   6.652
 3741POPC   C3B49821  35.246  33.898   7.032
 3741POPC   C4B49822  35.053  33.916   7.422
 3742POPC   NC349823  30.585  21.783   5.502
 3742POPC   PO449824  30.882  21.157   5.555
 3742POPC   GL149825  30.728  21.455   5.867
 3742POPC   GL249826  30.937  21.780   5.873
 3742POPC   C1A49827  30.501  21.434   6.260
 3742POPC   D2A49828  30.273  21.589   6.616
 3742POPC   C3A49829  30.521  21.534   6.964
 3742POPC   C4A49830  30.469  21.433   7.363
 3742POPC   C1B49831  30.980  21.644   6.284
 3742POPC   C2B49832  30.929  21.429   6.662
 3742POPC   C3B49833  31.028  21.566   7.073
 3742POPC   C4B49834  30.872  21.782   7.390
 3743POPC   NC349835  16.168  11.970   5.426
 3743POPC   PO449836  15.734  11.505   5.553
 3743POPC   GL149837  15.805  11.815   5.853
 3743POPC   GL249838  16.138  11.708   5.876
 3743POPC   C1A49839  15.905  11.907   6.292
 3743POPC   D2A49840  16.113  12.135   6.588
 3743POPC   C3A49841  15.942  12.151   6.973
 3743POPC   C4A49842  15.715  11.894   7.259
 3743POPC   C1B49843  16.269  11.538   6.283
 3743POPC   C2B49844  16.099  11.612   6.690
 3743POPC   C3B49845  16.172  11.711   7.122
 3743POPC   C4B49846  16.189  11.907   7.550
 3744POPC   NC349847  34.064  12.874   5.406
 3744POPC   PO449848  33.484  12.810   5.425
 3744POPC   GL149849  33.752  12.879   5.833
 3744POPC   GL249850  34.095  12.728   5.888
 3744POPC   C1A49851  33.811  12.897   6.316
 3744POPC   D2A49852  33.986  12.957   6.765
 3744POPC   C3A49853  33.715  12.955   7.149
 3744POPC   C4A49854  33.556  12.963   7.599
 3744POPC   C1B49855  34.308  12.784   6.291
 3744POPC   C2B49856  34.325  12.560   6.678
 3744POPC   C3B49857  34.081  12.532   7.080
 3744POPC   C4B49858  33.995  12.731   7.495
 3745POPC   NC349859  41.116  43.392   5.336
 3745POPC   PO449860  41.524  43.921   5.340
 3745POPC   GL149861  41.702  43.958   5.775
 3745POPC   GL249862  41.976  43.682   5.768
 3745POPC   C1A49863  41.537  43.836   6.214
 3745POPC   D2A49864  41.254  43.813   6.626
 3745POPC   C3A49865  41.477  43.888   7.049
 3745POPC   C4A49866  41.401  44.057   7.492
 3745POPC   C1B49867  42.067  43.878   6.173
 3745POPC   C2B49868  41.969  43.929   6.612
 3745POPC   C3B49869  41.915  44.180   6.984
 3745POPC   C4B49870  41.880  44.018   7.417
 3746POPC   NC349871  37.907  28.544   5.465
 3746POPC   PO449872  37.415  28.089   5.551
 3746POPC   GL149873  37.576  28.367   5.875
 3746POPC   GL249874  37.806  28.650   5.926
 3746POPC   C1A49875  37.716  28.333   6.296
 3746POPC   D2A49876  37.552  28.477   6.652
 3746POPC   C3A49877  37.742  28.343   7.032
 3746POPC   C4A49878  37.941  27.952   7.179
 3746POPC   C1B49879  37.970  28.878   6.225
 3746POPC   C2B49880  38.115  28.714   6.579
 3746POPC   C3B49881  38.294  28.833   6.947
 3746POPC   C4B49882  37.951  28.861   7.207
 3747POPC   NC349883   9.080   4.177   5.421
 3747POPC   PO449884   8.651   4.645   5.528
 3747POPC   GL149885   9.019   4.515   5.796
 3747POPC   GL249886   8.948   4.125   5.908
 3747POPC   C1A49887   9.253   4.425   6.167
 3747POPC   D2A49888   9.023   4.369   6.541
 3747POPC   C3A49889   9.203   4.378   6.907
 3747POPC   C4A49890   9.033   4.252   7.314
 3747POPC   C1B49891   8.675   4.402   6.168
 3747POPC   C2B49892   8.502   4.367   6.583
 3747POPC   C3B49893   8.682   4.447   6.975
 3747POPC   C4B49894   8.572   4.751   7.289
 3748POPC   NC349895  30.020  17.056   5.317
 3748POPC   PO449896  29.947  17.738   5.327
 3748POPC   GL149897  29.883  17.468   5.686
 3748POPC   GL249898  30.216  17.506   5.829
 3748POPC   C1A49899  29.818  17.441   6.133
 3748POPC   D2A49900  29.940  17.587   6.523
 3748POPC   C3A49901  29.793  17.372   6.859
 3748POPC   C4A49902  29.838  17.320   7.278
 3748POPC   C1B49903  30.277  17.780   6.205
 3748POPC   C2B49904  30.421  17.745   6.628
 3748POPC   C3B49905  30.188  17.648   7.008
 3748POPC   C4B49906  30.227  17.577   7.459
 3749POPC   NC349907  32.300  22.772   5.303
 3749POPC   PO449908  31.943  23.279   5.288
 3749POPC   GL149909  32.106  23.065   5.686
 3749POPC   GL249910  31.999  22.718   5.715
 3749POPC   C1A49911  32.323  23.193   6.090
 3749POPC   D2A49912  32.088  23.240   6.445
 3749POPC   C3A49913  32.215  23.296   6.861
 3749POPC   C4A49914  31.983  23.506   7.177
 3749POPC   C1B49915  32.267  22.694   6.092
 3749POPC   C2B49916  32.394  22.831   6.519
 3749POPC   C3B49917  32.339  22.784   6.963
 3749POPC   C4B49918  32.394  22.590   7.357
 3750POPC   NC349919   0.104  35.320   5.458
 3750POPC   PO449920   0.711  35.441   5.425
 3750POPC   GL149921   0.490  35.488   5.847
 3750POPC   GL249922   0.180  35.627   5.898
 3750POPC   C1A49923   0.413  35.385   6.317
 3750POPC   D2A49924   0.635  35.283   6.695
 3750POPC   C3A49925   0.476  35.260   7.112
 3750POPC   C4A49926   0.641  35.445   7.525
 3750POPC   C1B49927  44.969  35.713   6.252
 3750POPC   C2B49928   0.087  35.676   6.659
 3750POPC   C3B49929  44.996  35.518   7.033
 3750POPC   C4B49930   0.142  35.476   7.420
 3751POPC   NC349931   8.653  20.815   5.042
 3751POPC   PO449932   8.090  20.757   5.327
 3751POPC   GL149933   8.305  20.503   5.698
 3751POPC   GL249934   8.653  20.574   5.760
 3751POPC   C1A49935   8.231  20.391   6.153
 3751POPC   D2A49936   8.159  20.659   6.536
 3751POPC   C3A49937   8.357  20.640   6.945
 3751POPC   C4A49938   8.130  20.493   7.316
 3751POPC   C1B49939   8.547  20.794   6.163
 3751POPC   C2B49940   8.589  20.989   6.589
 3751POPC   C3B49941   8.492  21.160   7.015
 3751POPC   C4B49942   8.414  20.894   7.410
 3752POPC   NC349943  37.580  10.705   5.393
 3752POPC   PO449944  37.345  10.051   5.356
 3752POPC   GL149945  37.428  10.324   5.736
 3752POPC   GL249946  37.788  10.388   5.808
 3752POPC   C1A49947  37.438  10.527   6.152
 3752POPC   D2A49948  37.485  10.290   6.574
 3752POPC   C3A49949  37.567  10.479   6.999
 3752POPC   C4A49950  37.291  10.513   7.319
 3752POPC   C1B49951  37.894  10.383   6.282
 3752POPC   C2B49952  37.998  10.376   6.703
 3752POPC   C3B49953  38.069  10.488   7.104
 3752POPC   C4B49954  37.906  10.892   7.181
 3753POPC   NC349955  28.347  39.060   5.619
 3753POPC   PO449956  28.640  39.635   5.397
 3753POPC   GL149957  28.533  39.573   5.837
 3753POPC   GL249958  28.683  39.257   5.965
 3753POPC   C1A49959  28.408  39.544   6.295
 3753POPC   D2A49960  28.460  39.183   6.595
 3753POPC   C3A49961  28.332  39.187   6.977
 3753POPC   C4A49962  28.079  39.414   7.233
 3753POPC   C1B49963  28.497  38.868   6.203
 3753POPC   C2B49964  28.522  38.650   6.581
 3753POPC   C3B49965  28.691  38.751   6.934
 3753POPC   C4B49966  28.548  38.911   7.321
 3754POPC   NC349967  43.784  31.088   5.352
 3754POPC   PO449968  44.109  30.591   5.193
 3754POPC   GL149969  44.040  30.732   5.646
 3754POPC   GL249970  43.762  30.545   5.775
 3754POPC   C1A49971  44.093  30.659   6.133
 3754POPC   D2A49972  44.057  30.927   6.468
 3754POPC   C3A49973  44.074  30.846   6.903
 3754POPC   C4A49974  44.086  30.434   7.068
 3754POPC   C1B49975  43.614  30.700   6.233
 3754POPC   C2B49976  43.599  30.831   6.670
 3754POPC   C3B49977  43.614  30.583   7.051
 3754POPC   C4B49978  43.546  30.710   7.470
 3755POPC   NC349979  14.959   9.332   5.060
 3755POPC   PO449980  15.277   9.757   5.454
 3755POPC   GL149981  15.179   9.738   5.880
 3755POPC   GL249982  14.830   9.876   5.875
 3755POPC   C1A49983  15.292   9.451   6.222
 3755POPC   D2A49984  15.146   9.433   6.656
 3755POPC   C3A49985  15.409   9.601   7.015
 3755POPC   C4A49986  15.634   9.600   7.444
 3755POPC   C1B49987  14.856   9.699   6.294
 3755POPC   C2B49988  14.920   9.903   6.691
 3755POPC   C3B49989  14.980   9.858   7.107
 3755POPC   C4B49990  15.144   9.752   7.511
 3756POPC   NC349991  33.871  10.862   5.355
 3756POPC   PO449992  33.747  10.272   5.459
 3756POPC   GL149993  33.906  10.554   5.805
 3756POPC   GL249994  34.193  10.772   5.774
 3756POPC   C1A49995  33.870  10.587   6.266
 3756POPC   D2A49996  34.016  10.468   6.685
 3756POPC   C3A49997  33.685  10.468   7.017
 3756POPC   C4A49998  33.420  10.832   7.175
 3756POPC   C1B49999  34.365  10.662   6.186
 3756POPC   C2B50000  34.509  10.824   6.595
 3756POPC   C3B50001  34.404  10.720   7.026
 3756POPC   C4B50002  34.170  10.366   7.157
 3757POPC   NC350003  35.182  31.834   5.419
 3757POPC   PO450004  35.233  31.192   5.372
 3757POPC   GL150005  35.375  31.459   5.725
 3757POPC   GL250006  35.073  31.565   5.863
 3757POPC   C1A50007  35.576  31.619   6.114
 3757POPC   D2A50008  35.437  31.472   6.498
 3757POPC   C3A50009  35.498  31.553   6.896
 3757POPC   C4A50010  35.283  31.334   7.205
 3757POPC   C1B50011  35.096  31.792   6.262
 3757POPC   C2B50012  35.196  31.935   6.676
 3757POPC   C3B50013  35.053  31.795   7.072
 3757POPC   C4B50014  34.788  31.699   7.379
 3758POPC   NC350015  14.544  13.498   5.500
 3758POPC   PO450016  14.367  14.120   5.525
 3758POPC   GL150017  14.152  13.821   5.754
 3758POPC   GL250018  14.462  13.777   5.925
 3758POPC   C1A50019  14.051  13.740   6.205
 3758POPC   D2A50020  14.357  13.696   6.557
 3758POPC   C3A50021  14.153  13.738   6.951
 3758POPC   C4A50022  14.202  13.965   7.335
 3758POPC   C1B50023  14.435  13.356   6.127
 3758POPC   C2B50024  14.490  13.118   6.491
 3758POPC   C3B50025  14.414  13.283   6.888
 3758POPC   C4B50026  14.435  13.489   7.288
 3759POPC   NC350027  25.445  33.247   5.396
 3759POPC   PO450028  24.834  32.979   5.187
 3759POPC   GL150029  25.020  33.083   5.657
 3759POPC   GL250030  25.355  32.921   5.767
 3759POPC   C1A50031  25.130  33.172   6.142
 3759POPC   D2A50032  25.260  32.962   6.557
 3759POPC   C3A50033  25.231  33.067   6.998
 3759POPC   C4A50034  25.115  33.101   7.464
 3759POPC   C1B50035  25.555  32.844   6.154
 3759POPC   C2B50036  25.772  32.774   6.528
 3759POPC   C3B50037  25.611  32.672   6.911
 3759POPC   C4B50038  25.406  32.719   7.305
 3760POPC   NC350039  34.483  40.049   5.209
 3760POPC   PO450040  34.220  39.533   5.518
 3760POPC   GL150041  34.581  39.777   5.773
 3760POPC   GL250042  34.968  39.790   5.771
 3760POPC   C1A50043  34.629  39.924   6.250
 3760POPC   D2A50044  34.456  39.863   6.738
 3760POPC   C3A50045  34.542  40.084   7.152
 3760POPC   C4A50046  34.626  40.223   7.597
 3760POPC   C1B50047  35.066  39.659   6.197
 3760POPC   C2B50048  34.980  39.864   6.624
 3760POPC   C3B50049  34.978  39.793   7.071
 3760POPC   C4B50050  34.932  39.845   7.510
 3761POPC   NC350051  31.845  27.818   5.356
 3761POPC   PO450052  31.260  27.558   5.620
 3761POPC   GL150053  31.519  27.721   5.951
 3761POPC   GL250054  31.845  27.688   5.844
 3761POPC   C1A50055  31.588  27.773   6.405
 3761POPC   D2A50056  31.261  27.815   6.735
 3761POPC   C3A50057  31.297  27.519   7.094
 3761POPC   C4A50058  31.293  27.486   7.585
 3761POPC   C1B50059  32.006  27.999   6.160
 3761POPC   C2B50060  31.978  28.121   6.604
 3761POPC   C3B50061  31.749  27.893   6.916
 3761POPC   C4B50062  31.716  27.690   7.307
 3762POPC   NC350063  43.271  22.257   5.585
 3762POPC   PO450064  43.175  21.755   5.122
 3762POPC   GL150065  43.119  21.769   5.619
 3762POPC   GL250066  42.853  22.036   5.784
 3762POPC   C1A50067  43.123  21.733   6.100
 3762POPC   D2A50068  43.054  21.697   6.563
 3762POPC   C3A50069  43.214  22.065   6.806
 3762POPC   C4A50070  43.476  21.999   7.173
 3762POPC   C1B50071  42.947  22.388   6.118
 3762POPC   C2B50072  43.188  22.517   6.459
 3762POPC   C3B50073  43.113  22.577   6.857
 3762POPC   C4B50074  43.115  22.408   7.242
 3763POPC   NC350075  32.025  32.697   5.180
 3763POPC   PO450076  32.283  32.139   5.235
 3763POPC   GL150077  32.363  32.167   5.672
 3763POPC   GL250078  32.065  32.105   5.868
 3763POPC   C1A50079  32.497  32.275   6.079
 3763POPC   D2A50080  32.478  32.304   6.521
 3763POPC   C3A50081  32.198  32.125   6.845
 3763POPC   C4A50082  32.095  32.215   7.279
 3763POPC   C1B50083  32.037  32.204   6.318
 3763POPC   C2B50084  31.739  32.234   6.667
 3763POPC   C3B50085  31.731  32.487   7.055
 3763POPC   C4B50086  31.618  32.824   7.370
 3764POPC   NC350087  42.809  34.108   5.410
 3764POPC   PO450088  43.390  33.808   5.311
 3764POPC   GL150089  43.167  33.853   5.737
 3764POPC   GL250090  42.856  33.675   5.814
 3764POPC   C1A50091  43.242  33.675   6.167
 3764POPC   D2A50092  43.019  33.650   6.559
 3764POPC   C3A50093  43.306  33.668   6.889
 3764POPC   C4A50094  43.349  33.666   7.315
 3764POPC   C1B50095  42.819  33.957   6.183
 3764POPC   C2B50096  42.783  34.143   6.616
 3764POPC   C3B50097  42.850  33.901   6.996
 3764POPC   C4B50098  42.905  33.447   7.124
 3765POPC   NC350099  33.568  18.336   5.393
 3765POPC   PO450100  34.167  18.488   5.504
 3765POPC   GL150101  33.868  18.402   5.829
 3765POPC   GL250102  33.900  18.052   5.896
 3765POPC   C1A50103  33.859  18.353   6.286
 3765POPC   D2A50104  33.829  18.082   6.627
 3765POPC   C3A50105  33.685  18.367   6.942
 3765POPC   C4A50106  33.982  18.480   7.243
 3765POPC   C1B50107  33.503  17.980   6.201
 3765POPC   C2B50108  33.333  18.059   6.624
 3765POPC   C3B50109  33.478  17.915   7.008
 3765POPC   C4B50110  33.713  18.032   7.349
 3766POPC   NC350111  38.211  41.078   5.053
 3766POPC   PO450112  38.528  41.532   5.328
 3766POPC   GL150113  38.418  41.544   5.766
 3766POPC   GL250114  38.299  41.229   5.872
 3766POPC   C1A50115  38.415  41.665   6.223
 3766POPC   D2A50116  38.635  41.493   6.601
 3766POPC   C3A50117  38.632  41.690   6.999
 3766POPC   C4A50118  38.511  41.566   7.360
 3766POPC   C1B50119  37.987  41.327   6.154
 3766POPC   C2B50120  38.053  41.460   6.566
 3766POPC   C3B50121  38.193  41.425   6.966
 3766POPC   C4B50122  37.965  41.409   7.324
 3767POPC   NC350123  40.158   4.895   5.512
 3767POPC   PO450124  40.159   5.324   4.969
 3767POPC   GL150125  39.983   5.367   5.531
 3767POPC   GL250126  40.212   5.325   5.798
 3767POPC   C1A50127  39.769   5.134   6.000
 3767POPC   D2A50128  39.781   4.752   6.309
 3767POPC   C3A50129  39.761   4.707   6.782
 3767POPC   C4A50130  39.643   4.998   7.132
 3767POPC   C1B50131  40.233   5.085   6.186
 3767POPC   C2B50132  39.983   5.161   6.537
 3767POPC   C3B50133  40.114   5.052   6.922
 3767POPC   C4B50134  40.128   5.285   7.237
 3768POPC   NC350135  23.876  16.298   5.501
 3768POPC   PO450136  23.721  16.962   5.366
 3768POPC   GL150137  23.662  16.766   5.774
 3768POPC   GL250138  23.371  16.973   5.840
 3768POPC   C1A50139  23.747  16.560   6.222
 3768POPC   D2A50140  23.948  16.558   6.665
 3768POPC   C3A50141  23.889  16.877   6.970
 3768POPC   C4A50142  23.937  16.880   7.429
 3768POPC   C1B50143  23.568  17.025   6.202
 3768POPC   C2B50144  23.501  16.889   6.610
 3768POPC   C3B50145  23.366  17.171   6.911
 3768POPC   C4B50146  23.656  17.277   7.236
 3769POPC   NC350147  18.275  17.714   5.277
 3769POPC   PO450148  17.736  17.808   5.543
 3769POPC   GL150149  17.981  17.766   5.908
 3769POPC   GL250150  18.330  17.701   5.842
 3769POPC   C1A50151  18.062  17.658   6.339
 3769POPC   D2A50152  18.279  17.842   6.680
 3769POPC   C3A50153  18.509  17.701   7.043
 3769POPC   C4A50154  18.578  17.839   7.481
 3769POPC   C1B50155  18.514  17.469   6.227
 3769POPC   C2B50156  18.395  17.335   6.669
 3769POPC   C3B50157  18.181  17.311   7.089
 3769POPC   C4B50158  18.124  17.310   7.559
 3770POPC   NC350159   8.912  13.993   5.441
 3770POPC   PO450160   8.823  13.325   5.469
 3770POPC   GL150161   9.068  13.612   5.743
 3770POPC   GL250162   9.011  13.959   5.924
 3770POPC   C1A50163   9.120  13.519   6.157
 3770POPC   D2A50164   8.893  13.556   6.510
 3770POPC   C3A50165   9.064  13.353   6.847
 3770POPC   C4A50166   9.009  13.503   7.263
 3770POPC   C1B50167   9.395  13.969   6.142
 3770POPC   C2B50168   9.436  13.731   6.515
 3770POPC   C3B50169   9.245  13.818   6.890
 3770POPC   C4B50170   9.353  13.906   7.295
 3771POPC   NC350171  34.986  32.537   5.576
 3771POPC   PO450172  35.535  32.137   5.497
 3771POPC   GL150173  35.347  32.031   5.881
 3771POPC   GL250174  35.005  32.073   5.823
 3771POPC   C1A50175  35.416  32.204   6.290
 3771POPC   D2A50176  35.717  32.492   6.517
 3771POPC   C3A50177  35.781  32.352   6.944
 3771POPC   C4A50178  35.491  32.044   7.110
 3771POPC   C1B50179  34.923  32.285   6.186
 3771POPC   C2B50180  35.137  32.599   6.407
 3771POPC   C3B50181  35.273  32.447   6.808
 3771POPC   C4B50182  35.144  32.467   7.243
 3772POPC   NC350183  40.841  40.882   5.367
 3772POPC   PO450184  40.546  40.354   5.085
 3772POPC   GL150185  40.681  40.434   5.583
 3772POPC   GL250186  40.440  40.389   5.837
 3772POPC   C1A50187  40.729  40.751   6.022
 3772POPC   D2A50188  40.829  41.058   6.406
 3772POPC   C3A50189  40.740  40.943   6.857
 3772POPC   C4A50190  40.844  40.749   7.267
 3772POPC   C1B50191  40.497  40.350   6.271
 3772POPC   C2B50192  40.400  40.628   6.619
 3772POPC   C3B50193  40.432  40.547   7.038
 3772POPC   C4B50194  40.612  40.290   7.344
 3773POPC   NC350195  24.412  38.015   5.379
 3773POPC   PO450196  24.077  37.575   5.052
 3773POPC   GL150197  24.527  37.548   5.501
 3773POPC   GL250198  24.728  37.271   5.688
 3773POPC   C1A50199  24.485  37.596   6.032
 3773POPC   D2A50200  24.681  37.742   6.445
 3773POPC   C3A50201  24.403  37.668   6.804
 3773POPC   C4A50202  24.276  37.738   7.226
 3773POPC   C1B50203  24.893  37.296   6.141
 3773POPC   C2B50204  24.752  37.253   6.584
 3773POPC   C3B50205  24.862  37.487   6.976
 3773POPC   C4B50206  24.703  37.431   7.399
 3774POPC   NC350207  24.096  20.085   5.419
 3774POPC   PO450208  23.586  20.628   5.258
 3774POPC   GL150209  23.581  20.774   5.681
 3774POPC   GL250210  23.766  20.451   5.739
 3774POPC   C1A50211  23.662  20.734   6.153
 3774POPC   D2A50212  23.917  20.612   6.528
 3774POPC   C3A50213  23.686  20.723   6.888
 3774POPC   C4A50214  23.754  20.744   7.319
 3774POPC   C1B50215  23.871  20.246   6.141
 3774POPC   C2B50216  23.903  20.004   6.545
 3774POPC   C3B50217  23.823  20.228   6.946
 3774POPC   C4B50218  23.658  20.263   7.386
 3775POPC   NC350219   2.509  10.592   5.350
 3775POPC   PO450220   3.113  10.456   5.156
 3775POPC   GL150221   2.975  10.635   5.644
 3775POPC   GL250222   2.651  10.812   5.769
 3775POPC   C1A50223   2.837  10.469   6.103
 3775POPC   D2A50224   2.548  10.508   6.489
 3775POPC   C3A50225   2.682  10.551   6.950
 3775POPC   C4A50226   2.556  10.324   7.342
 3775POPC   C1B50227   2.585  10.964   6.183
 3775POPC   C2B50228   2.671  10.986   6.639
 3775POPC   C3B50229   2.563  11.089   7.057
 3775POPC   C4B50230   2.576  10.826   7.395
 3776POPC   NC350231  36.226  31.649   5.453
 3776POPC   PO450232  36.064  30.953   5.411
 3776POPC   GL150233  36.163  31.094   5.841
 3776POPC   GL250234  36.179  31.469   5.931
 3776POPC   C1A50235  36.016  31.148   6.284
 3776POPC   D2A50236  35.966  31.448   6.607
 3776POPC   C3A50237  36.221  31.338   6.964
 3776POPC   C4A50238  36.564  31.204   7.234
 3776POPC   C1B50239  36.269  31.773   6.284
 3776POPC   C2B50240  36.445  31.772   6.717
 3776POPC   C3B50241  36.464  31.720   7.194
 3776POPC   C4B50242  36.218  31.757   7.541
 3777POPC   NC350243   4.020  15.448   5.385
 3777POPC   PO450244   4.520  15.081   5.342
 3777POPC   GL150245   4.293  15.182   5.746
 3777POPC   GL250246   4.069  14.893   5.858
 3777POPC   C1A50247   4.410  15.128   6.181
 3777POPC   D2A50248   4.548  14.935   6.554
 3777POPC   C3A50249   4.487  15.141   6.951
 3777POPC   C4A50250   4.357  15.332   7.355
 3777POPC   C1B50251   4.076  14.766   6.317
 3777POPC   C2B50252   4.063  14.921   6.761
 3777POPC   C3B50253   4.041  14.983   7.216
 3777POPC   C4B50254   3.994  15.181   7.668
 3778POPC   NC350255  35.718  19.792   5.348
 3778POPC   PO450256  36.349  20.039   5.454
 3778POPC   GL150257  36.235  19.936   5.868
 3778POPC   GL250258  35.862  19.878   5.857
 3778POPC   C1A50259  36.443  19.873   6.265
 3778POPC   D2A50260  36.235  19.694   6.608
 3778POPC   C3A50261  36.429  19.802   6.968
 3778POPC   C4A50262  36.696  19.766   7.267
 3778POPC   C1B50263  35.591  19.780   6.213
 3778POPC   C2B50264  35.601  19.894   6.618
 3778POPC   C3B50265  35.918  19.878   6.953
 3778POPC   C4B50266  36.079  19.783   7.381
 3779POPC   NC350267  22.429  44.651   5.466
 3779POPC   PO450268  21.803  44.629   5.284
 3779POPC   GL150269  21.974  44.622   5.774
 3779POPC   GL250270  22.270  44.844   5.882
 3779POPC   C1A50271  22.020  44.697   6.282
 3779POPC   D2A50272  22.269  44.814   6.646
 3779POPC   C3A50273  22.238  44.673   7.071
 3779POPC   C4A50274  22.081  44.865   7.427
 3779POPC   C1B50275  22.510  44.641   6.162
 3779POPC   C2B50276  22.699  44.558   6.524
 3779POPC   C3B50277  22.639  44.395   6.910
 3779POPC   C4B50278  22.742  44.529   7.291
 3780POPC   NC350279  17.135  10.703   4.966
 3780POPC   PO450280  17.565  10.294   5.326
 3780POPC   GL150281  17.515  10.268   5.792
 3780POPC   GL250282  17.282  10.008   5.807
 3780POPC   C1A50283  17.462  10.584   6.143
 3780POPC   D2A50284  17.670  10.762   6.503
 3780POPC   C3A50285  17.543  10.621   6.889
 3780POPC   C4A50286  17.457  10.608   7.317
 3780POPC   C1B50287  17.092  10.236   6.131
 3780POPC   C2B50288  17.151  10.430   6.567
 3780POPC   C3B50289  17.214  10.260   7.012
 3780POPC   C4B50290  17.289  10.133   7.438
 3781POPC   NC350291  42.481  43.948   5.227
 3781POPC   PO450292  42.240  43.326   5.326
 3781POPC   GL150293  42.501  43.581   5.646
 3781POPC   GL250294  42.451  43.923   5.737
 3781POPC   C1A50295  42.479  43.555   6.125
 3781POPC   D2A50296  42.495  43.757   6.548
 3781POPC   C3A50297  42.445  43.583   6.977
 3781POPC   C4A50298  42.308  43.922   7.192
 3781POPC   C1B50299  42.553  44.078   6.154
 3781POPC   C2B50300  42.510  44.346   6.527
 3781POPC   C3B50301  42.439  44.366   6.978
 3781POPC   C4B50302  42.659  44.248   7.353
 3782POPC   NC350303  14.335  22.782   5.305
 3782POPC   PO450304  13.992  23.391   5.199
 3782POPC   GL150305  14.140  23.118   5.638
 3782POPC   GL250306  14.505  23.136   5.708
 3782POPC   C1A50307  14.154  22.864   6.099
 3782POPC   D2A50308  14.134  22.608   6.549
 3782POPC   C3A50309  14.443  22.613   6.927
 3782POPC   C4A50310  14.465  22.711   7.379
 3782POPC   C1B50311  14.582  23.143   6.165
 3782POPC   C2B50312  14.575  22.955   6.588
 3782POPC   C3B50313  14.503  23.107   7.062
 3782POPC   C4B50314  14.304  23.155   7.551
 3783POPC   NC350315  38.016   8.163   5.166
 3783POPC   PO450316  37.596   7.823   5.439
 3783POPC   GL150317  37.787   7.883   5.802
 3783POPC   GL250318  37.725   8.225   5.847
 3783POPC   C1A50319  37.692   7.892   6.221
 3783POPC   D2A50320  37.730   8.197   6.525
 3783POPC   C3A50321  37.790   8.024   6.896
 3783POPC   C4A50322  37.725   8.185   7.275
 3783POPC   C1B50323  37.816   8.556   6.184
 3783POPC   C2B50324  38.028   8.607   6.597
 3783POPC   C3B50325  38.237   8.510   6.984
 3783POPC   C4B50326  38.130   8.521   7.405
 3784POPC   NC350327  20.656  39.606   5.063
 3784POPC   PO450328  20.985  40.155   5.172
 3784POPC   GL150329  21.008  40.148   5.660
 3784POPC   GL250330  20.914  39.858   5.856
 3784POPC   C1A50331  20.977  40.280   6.127
 3784POPC   D2A50332  20.980  39.993   6.510
 3784POPC   C3A50333  20.812  40.096   6.896
 3784POPC   C4A50334  20.440  40.043   7.093
 3784POPC   C1B50335  20.587  39.914   6.183
 3784POPC   C2B50336  20.520  39.765   6.622
 3784POPC   C3B50337  20.695  39.597   7.028
 3784POPC   C4B50338  20.430  39.630   7.427
 3785POPC   NC350339   9.190   6.724   5.418
 3785POPC   PO450340   8.728   6.254   5.410
 3785POPC   GL150341   8.936   6.393   5.741
 3785POPC   GL250342   8.780   6.700   5.737
 3785POPC   C1A50343   9.055   6.527   6.145
 3785POPC   D2A50344   9.027   6.868   6.431
 3785POPC   C3A50345   8.956   6.727   6.852
 3785POPC   C4A50346   9.200   6.533   7.170
 3785POPC   C1B50347   8.520   6.528   6.095
 3785POPC   C2B50348   8.659   6.457   6.530
 3785POPC   C3B50349   8.508   6.433   6.948
 3785POPC   C4B50350   8.705   6.612   7.301
 3786POPC   NC350351  23.272  16.894   5.360
 3786POPC   PO450352  22.720  16.576   5.333
 3786POPC   GL150353  22.992  16.617   5.726
 3786POPC   GL250354  22.863  16.938   5.716
 3786POPC   C1A50355  23.194  16.634   6.189
 3786POPC   D2A50356  23.225  16.460   6.637
 3786POPC   C3A50357  22.834  16.342   6.850
 3786POPC   C4A50358  22.678  16.448   7.264
 3786POPC   C1B50359  22.833  17.013   6.157
 3786POPC   C2B50360  22.900  16.853   6.613
 3786POPC   C3B50361  23.050  16.770   7.042
 3786POPC   C4B50362  23.468  16.747   7.201
 3787POPC   NC350363  12.261  34.267   5.291
 3787POPC   PO450364  11.772  34.738   5.353
 3787POPC   GL150365  11.870  34.619   5.775
 3787POPC   GL250366  11.592  34.424   5.915
 3787POPC   C1A50367  12.137  34.781   6.123
 3787POPC   D2A50368  12.352  34.907   6.535
 3787POPC   C3A50369  12.186  34.753   6.910
 3787POPC   C4A50370  11.863  34.552   7.182
 3787POPC   C1B50371  11.702  34.445   6.314
 3787POPC   C2B50372  11.922  34.396   6.667
 3787POPC   C3B50373  12.190  34.205   6.993
 3787POPC   C4B50374  12.288  34.306   7.415
 3788POPC   NC350375  19.884  40.140   5.457
 3788POPC   PO450376  20.289  39.613   5.356
 3788POPC   GL150377  20.106  39.778   5.801
 3788POPC   GL250378  19.766  39.913   5.908
 3788POPC   C1A50379  20.097  40.011   6.242
 3788POPC   D2A50380  20.191  40.151   6.621
 3788POPC   C3A50381  19.987  39.914   6.896
 3788POPC   C4A50382  20.020  39.928   7.347
 3788POPC   C1B50383  19.554  40.083   6.273
 3788POPC   C2B50384  19.666  40.248   6.690
 3788POPC   C3B50385  19.599  40.142   7.120
 3788POPC   C4B50386  19.389  40.299   7.438
 3789POPC   NC350387   5.087  14.017   5.437
 3789POPC   PO450388   5.458  13.386   5.429
 3789POPC   GL150389   5.203  13.613   5.780
 3789POPC   GL250390   4.889  13.853   5.866
 3789POPC   C1A50391   5.262  13.746   6.215
 3789POPC   D2A50392   5.260  13.549   6.619
 3789POPC   C3A50393   5.473  13.776   6.932
 3789POPC   C4A50394   5.123  13.720   7.155
 3789POPC   C1B50395   4.643  13.853   6.244
 3789POPC   C2B50396   4.798  13.813   6.657
 3789POPC   C3B50397   4.665  13.953   7.047
 3789POPC   C4B50398   4.874  14.062   7.401
 3790POPC   NC350399  21.174  10.374   5.435
 3790POPC   PO450400  21.857  10.534   5.422
 3790POPC   GL150401  21.625  10.638   5.806
 3790POPC   GL250402  21.298  10.805   5.736
 3790POPC   C1A50403  21.456  10.409   6.179
 3790POPC   D2A50404  21.342  10.606   6.581
 3790POPC   C3A50405  21.384  10.388   6.973
 3790POPC   C4A50406  21.071  10.307   7.294
 3790POPC   C1B50407  21.384  10.911   6.179
 3790POPC   C2B50408  21.577  11.075   6.599
 3790POPC   C3B50409  21.552  10.875   7.014
 3790POPC   C4B50410  21.456  10.648   7.393
 3791POPC   NC350411  12.607   2.788   5.515
 3791POPC   PO450412  13.195   2.897   5.275
 3791POPC   GL150413  13.049   2.658   5.729
 3791POPC   GL250414  12.823   2.898   5.940
 3791POPC   C1A50415  12.937   2.496   6.193
 3791POPC   D2A50416  12.931   2.860   6.459
 3791POPC   C3A50417  13.115   2.823   6.847
 3791POPC   C4A50418  13.056   2.581   7.217
 3791POPC   C1B50419  12.459   2.646   6.151
 3791POPC   C2B50420  12.442   2.762   6.562
 3791POPC   C3B50421  12.638   2.657   6.891
 3791POPC   C4B50422  12.444   2.638   7.216
 3792POPC   NC350423  38.895  28.430   5.415
 3792POPC   PO450424  38.273  28.633   5.197
 3792POPC   GL150425  38.408  28.531   5.669
 3792POPC   GL250426  38.702  28.563   5.866
 3792POPC   C1A50427  38.256  28.458   6.130
 3792POPC   D2A50428  38.167  28.142   6.449
 3792POPC   C3A50429  38.250  28.197   6.878
 3792POPC   C4A50430  38.191  28.441   7.257
 3792POPC   C1B50431  38.736  28.410   6.292
 3792POPC   C2B50432  38.566  28.510   6.649
 3792POPC   C3B50433  38.687  28.417   7.052
 3792POPC   C4B50434  39.011  28.556   7.278
 3793POPC   NC350435  12.983   6.074   5.591
 3793POPC   PO450436  12.345   5.835   5.506
 3793POPC   GL150437  12.560   5.874   5.860
 3793POPC   GL250438  12.820   5.635   5.764
 3793POPC   C1A50439  12.764   5.955   6.259
 3793POPC   D2A50440  12.734   6.035   6.701
 3793POPC   C3A50441  13.027   6.101   7.027
 3793POPC   C4A50442  12.706   5.945   7.300
 3793POPC   C1B50443  13.031   5.520   6.139
 3793POPC   C2B50444  13.123   5.692   6.539
 3793POPC   C3B50445  12.986   5.607   6.923
 3793POPC   C4B50446  13.135   5.666   7.304
 3794POPC   NC350447  39.280  19.193   5.374
 3794POPC   PO450448  38.810  18.704   5.641
 3794POPC   GL150449  39.131  18.974   5.793
 3794POPC   GL250450  38.951  19.254   5.810
 3794POPC   C1A50451  39.375  19.108   6.142
 3794POPC   D2A50452  39.281  18.938   6.558
 3794POPC   C3A50453  39.457  19.085   6.942
 3794POPC   C4A50454  39.402  18.924   7.362
 3794POPC   C1B50455  38.853  19.074   6.213
 3794POPC   C2B50456  38.866  19.215   6.628
 3794POPC   C3B50457  38.958  19.030   7.020
 3794POPC   C4B50458  38.919  19.072   7.447
 3795POPC   NC350459  13.035   1.176   5.291
 3795POPC   PO450460  12.471   1.583   5.385
 3795POPC   GL150461  12.649   1.287   5.747
 3795POPC   GL250462  12.954   1.043   5.781
 3795POPC   C1A50463  12.630   1.111   6.189
 3795POPC   D2A50464  12.953   1.045   6.510
 3795POPC   C3A50465  12.794   1.014   6.915
 3795POPC   C4A50466  12.724   1.335   7.216
 3795POPC   C1B50467  13.197   1.248   6.105
 3795POPC   C2B50468  13.268   1.492   6.470
 3795POPC   C3B50469  13.204   1.353   6.891
 3795POPC   C4B50470  13.191   1.071   7.248
 3796POPC   NC350471  30.187  33.740   5.761
 3796POPC   PO450472  29.648  33.838   5.324
 3796POPC   GL150473  29.632  33.746   5.754
 3796POPC   GL250474  29.291  33.826   5.876
 3796POPC   C1A50475  29.685  33.546   6.181
 3796POPC   D2A50476  29.866  33.421   6.594
 3796POPC   C3A50477  30.185  33.669   6.826
 3796POPC   C4A50478  30.044  33.656   7.242
 3796POPC   C1B50479  29.572  34.064   6.122
 3796POPC   C2B50480  29.858  33.950   6.473
 3796POPC   C3B50481  29.717  33.847   6.854
 3796POPC   C4B50482  29.553  33.750   7.212
 3797POPC   NC350483  15.537  24.523   5.363
 3797POPC   PO450484  16.154  24.497   5.339
 3797POPC   GL150485  15.957  24.611   5.724
 3797POPC   GL250486  16.237  24.831   5.758
 3797POPC   C1A50487  15.849  24.391   6.133
 3797POPC   D2A50488  15.938  24.502   6.563
 3797POPC   C3A50489  15.786  24.347   6.957
 3797POPC   C4A50490  15.887  24.494   7.340
 3797POPC   C1B50491  16.367  24.468   6.075
 3797POPC   C2B50492  16.424  24.334   6.541
 3797POPC   C3B50493  16.276  24.527   6.971
 3797POPC   C4B50494  16.367  24.602   7.443
 3798POPC   NC350495   3.865  11.267   5.455
 3798POPC   PO450496   4.366  10.801   5.346
 3798POPC   GL150497   4.265  11.044   5.737
 3798POPC   GL250498   4.461  11.380   5.791
 3798POPC   C1A50499   4.259  10.974   6.189
 3798POPC   D2A50500   4.105  11.043   6.624
 3798POPC   C3A50501   4.426  11.221   6.883
 3798POPC   C4A50502   4.418  11.271   7.315
 3798POPC   C1B50503   4.584  11.601   6.198
 3798POPC   C2B50504   4.461  11.673   6.650
 3798POPC   C3B50505   4.630  11.695   7.070
 3798POPC   C4B50506   4.519  11.722   7.513
 3799POPC   NC350507  20.131  25.550   5.284
 3799POPC   PO450508  20.637  25.072   5.360
 3799POPC   GL150509  20.717  25.231   5.748
 3799POPC   GL250510  20.495  25.499   5.709
 3799POPC   C1A50511  20.771  25.105   6.168
 3799POPC   D2A50512  20.840  24.869   6.530
 3799POPC   C3A50513  20.665  25.097   6.867
 3799POPC   C4A50514  20.697  25.096   7.318
 3799POPC   C1B50515  20.275  25.234   6.008
 3799POPC   C2B50516  20.303  25.186   6.439
 3799POPC   C3B50517  20.168  25.219   6.879
 3799POPC   C4B50518  20.296  25.389   7.284
 3800POPC   NC350519  12.333  19.576   5.462
 3800POPC   PO450520  11.934  20.115   5.406
 3800POPC   GL150521  11.903  19.828   5.728
 3800POPC   GL250522  12.240  19.968   5.830
 3800POPC   C1A50523  12.007  19.633   6.125
 3800POPC   D2A50524  12.235  19.771   6.494
 3800POPC   C3A50525  12.083  19.656   6.913
 3800POPC   C4A50526  12.333  19.639   7.282
 3800POPC   C1B50527  11.985  20.158   6.194
 3800POPC   C2B50528  11.958  20.153   6.672
 3800POPC   C3B50529  11.914  20.105   7.111
 3800POPC   C4B50530  11.978  19.945   7.513
 3801POPC   NC350531  34.245  42.540   5.512
 3801POPC   PO450532  34.274  41.848   5.593
 3801POPC   GL150533  34.482  42.195   5.800
 3801POPC   GL250534  34.837  42.209   5.811
 3801POPC   C1A50535  34.506  42.419   6.191
 3801POPC   D2A50536  34.370  42.292   6.600
 3801POPC   C3A50537  34.563  42.476   6.948
 3801POPC   C4A50538  34.469  42.384   7.372
 3801POPC   C1B50539  35.005  42.396   6.209
 3801POPC   C2B50540  34.953  42.284   6.633
 3801POPC   C3B50541  35.002  42.200   7.068
 3801POPC   C4B50542  34.934  42.543   7.321
 3802POPC   NC350543  43.781   8.225   5.359
 3802POPC   PO450544  44.356   8.443   5.562
 3802POPC   GL150545  44.067   8.152   5.864
 3802POPC   GL250546  43.701   8.055   5.840
 3802POPC   C1A50547  43.937   8.076   6.323
 3802POPC   D2A50548  44.117   8.102   6.754
 3802POPC   C3A50549  43.917   7.891   7.136
 3802POPC   C4A50550  43.963   8.145   7.529
 3802POPC   C1B50551  43.623   8.428   6.106
 3802POPC   C2B50552  43.465   8.421   6.532
 3802POPC   C3B50553  43.649   8.283   6.914
 3802POPC   C4B50554  43.481   8.168   7.302
 3803POPC   NC350555   3.096  15.416   5.233
 3803POPC   PO450556   2.585  14.871   5.304
 3803POPC   GL150557   2.697  15.015   5.726
 3803POPC   GL250558   2.807  15.334   5.791
 3803POPC   C1A50559   2.813  14.986   6.183
 3803POPC   D2A50560   2.575  15.117   6.556
 3803POPC   C3A50561   2.703  14.980   6.963
 3803POPC   C4A50562   2.781  15.054   7.420
 3803POPC   C1B50563   2.627  15.483   6.174
 3803POPC   C2B50564   2.686  15.619   6.607
 3803POPC   C3B50565   2.818  15.592   7.043
 3803POPC   C4B50566   2.728  15.708   7.468
 3804POPC   NC350567  30.353  16.441   5.520
 3804POPC   PO450568  29.737  16.632   5.327
 3804POPC   GL150569  29.812  16.888   5.744
 3804POPC   GL250570  29.935  16.601   5.892
 3804POPC   C1A50571  30.051  17.001   6.168
 3804POPC   D2A50572  30.021  16.737   6.550
 3804POPC   C3A50573  29.912  16.889   6.978
 3804POPC   C4A50574  30.022  16.880   7.431
 3804POPC   C1B50575  29.602  16.744   6.206
 3804POPC   C2B50576  29.517  16.726   6.654
 3804POPC   C3B50577  29.546  16.515   7.053
 3804POPC   C4B50578  29.710  16.473   7.480
 3805POPC   NC350579  27.142  41.925   5.316
 3805POPC   PO450580  26.539  42.352   5.502
 3805POPC   GL150581  26.881  42.191   5.745
 3805POPC   GL250582  27.007  42.500   5.819
 3805POPC   C1A50583  26.852  41.927   6.146
 3805POPC   D2A50584  26.848  41.846   6.588
 3805POPC   C3A50585  26.713  42.212   6.813
 3805POPC   C4A50586  26.785  42.323   7.219
 3805POPC   C1B50587  26.953  42.425   6.241
 3805POPC   C2B50588  27.176  42.420   6.625
 3805POPC   C3B50589  27.085  42.673   6.989
 3805POPC   C4B50590  27.174  42.617   7.432
 3806POPC   NC350591  23.286  13.639   5.439
 3806POPC   PO450592  22.845  13.167   5.143
 3806POPC   GL150593  22.851  13.409   5.602
 3806POPC   GL250594  22.875  13.791   5.724
 3806POPC   C1A50595  22.928  13.442   6.094
 3806POPC   D2A50596  23.016  13.653   6.534
 3806POPC   C3A50597  22.861  13.561   6.978
 3806POPC   C4A50598  22.625  13.615   7.395
 3806POPC   C1B50599  23.214  13.902   6.079
 3806POPC   C2B50600  23.379  14.019   6.538
 3806POPC   C3B50601  23.197  13.955   6.971
 3806POPC   C4B50602  23.050  13.878   7.430
 3807POPC   NC350603  31.036  37.715   5.576
 3807POPC   PO450604  30.484  38.076   5.414
 3807POPC   GL150605  30.476  37.806   5.743
 3807POPC   GL250606  30.583  37.511   5.706
 3807POPC   C1A50607  30.685  37.855   6.139
 3807POPC   D2A50608  30.884  37.963   6.544
 3807POPC   C3A50609  30.644  37.948   6.932
 3807POPC   C4A50610  30.600  37.700   7.285
 3807POPC   C1B50611  30.504  37.355   6.081
 3807POPC   C2B50612  30.535  37.269   6.484
 3807POPC   C3B50613  30.538  37.410   6.873
 3807POPC   C4B50614  30.836  37.234   7.118
 3808POPC   NC350615  11.821  27.460   5.385
 3808POPC   PO450616  11.225  27.526   5.475
 3808POPC   GL150617  11.353  27.530   5.854
 3808POPC   GL250618  11.658  27.340   5.863
 3808POPC   C1A50619  11.134  27.683   6.225
 3808POPC   D2A50620  11.106  27.867   6.621
 3808POPC   C3A50621  11.041  27.806   7.056
 3808POPC   C4A50622  11.234  27.744   7.462
 3808POPC   C1B50623  11.665  27.672   6.214
 3808POPC   C2B50624  11.606  27.804   6.623
 3808POPC   C3B50625  11.580  27.659   7.037
 3808POPC   C4B50626  11.746  27.656   7.433
 3809POPC   NC350627  14.607   8.521   5.429
 3809POPC   PO450628  14.004   8.357   5.306
 3809POPC   GL150629  14.198   8.425   5.758
 3809POPC   GL250630  14.547   8.427   5.931
 3809POPC   C1A50631  14.136   8.295   6.188
 3809POPC   D2A50632  14.339   8.285   6.555
 3809POPC   C3A50633  14.275   7.966   6.803
 3809POPC   C4A50634  14.231   8.046   7.215
 3809POPC   C1B50635  14.810   8.354   6.298
 3809POPC   C2B50636  14.796   8.103   6.678
 3809POPC   C3B50637  14.701   8.187   7.063
 3809POPC   C4B50638  14.517   8.561   7.168
 3810POPC   NC350639   6.894   0.500   5.123
 3810POPC   PO450640   6.369   0.123   5.350
 3810POPC   GL150641   6.585   0.063   5.762
 3810POPC   GL250642   6.963   0.125   5.783
 3810POPC   C1A50643   6.539   0.247   6.207
 3810POPC   D2A50644   6.508   0.415   6.654
 3810POPC   C3A50645   6.486   0.199   7.074
 3810POPC   C4A50646   6.300   0.194   7.486
 3810POPC   C1B50647   7.059   0.142   6.247
 3810POPC   C2B50648   6.974   0.165   6.724
 3810POPC   C3B50649   6.939   0.366   7.143
 3810POPC   C4B50650   6.848   0.142   7.557
 3811POPC   NC350651  17.451  41.420   5.547
 3811POPC   PO450652  17.958  41.944   5.624
 3811POPC   GL150653  17.645  41.722   5.935
 3811POPC   GL250654  17.576  41.326   6.032
 3811POPC   C1A50655  17.545  41.722   6.381
 3811POPC   D2A50656  17.428  41.354   6.617
 3811POPC   C3A50657  17.198  41.356   7.007
 3811POPC   C4A50658  17.308  41.463   7.430
 3811POPC   C1B50659  17.148  41.459   6.200
 3811POPC   C2B50660  17.038  41.789   6.495
 3811POPC   C3B50661  17.218  41.861   6.895
 3811POPC   C4B50662  17.411  41.948   7.289
 3812POPC   NC350663  44.302  31.382   5.627
 3812POPC   PO450664  43.744  31.544   5.279
 3812POPC   GL150665  43.635  31.421   5.717
 3812POPC   GL250666  43.507  31.736   5.723
 3812POPC   C1A50667  43.749  31.267   6.178
 3812POPC   D2A50668  43.807  31.317   6.668
 3812POPC   C3A50669  44.052  31.653   6.830
 3812POPC   C4A50670  44.337  31.714   7.177
 3812POPC   C1B50671  43.720  31.816   6.088
 3812POPC   C2B50672  43.537  31.778   6.474
 3812POPC   C3B50673  43.451  31.640   6.854
 3812POPC   C4B50674  43.708  31.787   7.169
 3813POPC   NC350675   5.837  36.384   5.489
 3813POPC   PO450676   5.511  35.813   5.366
 3813POPC   GL150677   5.815  35.823   5.695
 3813POPC   GL250678   5.829  36.107   5.914
 3813POPC   C1A50679   6.018  35.661   6.054
 3813POPC   D2A50680   6.108  35.872   6.451
 3813POPC   C3A50681   5.984  35.818   6.886
 3813POPC   C4A50682   5.822  36.100   7.179
 3813POPC   C1B50683   5.616  35.887   6.248
 3813POPC   C2B50684   5.497  35.858   6.677
 3813POPC   C3B50685   5.329  35.992   7.057
 3813POPC   C4B50686   5.427  35.922   7.480
 3814POPC   NC350687  34.145  33.823   5.323
 3814POPC   PO450688  33.593  33.466   5.464
 3814POPC   GL150689  33.637  33.829   5.746
 3814POPC   GL250690  34.015  33.929   5.821
 3814POPC   C1A50691  33.571  33.946   6.185
 3814POPC   D2A50692  33.714  33.692   6.534
 3814POPC   C3A50693  33.638  33.727   6.989
 3814POPC   C4A50694  33.993  33.995   7.149
 3814POPC   C1B50695  34.208  33.659   6.181
 3814POPC   C2B50696  33.998  33.279   6.383
 3814POPC   C3B50697  33.988  33.327   6.808
 3814POPC   C4B50698  34.012  33.473   7.219
 3815POPC   NC350699  20.125  41.865   5.391
 3815POPC   PO450700  19.654  41.320   5.588
 3815POPC   GL150701  19.927  41.586   5.754
 3815POPC   GL250702  19.743  41.906   5.752
 3815POPC   C1A50703  20.250  41.540   6.059
 3815POPC   D2A50704  20.326  41.718   6.435
 3815POPC   C3A50705  20.377  41.480   6.809
 3815POPC   C4A50706  20.227  41.645   7.178
 3815POPC   C1B50707  19.755  41.751   6.194
 3815POPC   C2B50708  19.862  41.512   6.559
 3815POPC   C3B50709  19.758  41.602   6.975
 3815POPC   C4B50710  19.786  41.912   7.258
 3816POPC   NC350711  27.432  40.328   5.447
 3816POPC   PO450712  27.155  39.774   5.174
 3816POPC   GL150713  27.566  39.842   5.591
 3816POPC   GL250714  27.447  40.111   5.904
 3816POPC   C1A50715  27.776  39.793   6.077
 3816POPC   D2A50716  27.698  39.993   6.540
 3816POPC   C3A50717  27.836  39.859   6.977
 3816POPC   C4A50718  27.800  40.114   7.341
 3816POPC   C1B50719  27.281  39.842   6.279
 3816POPC   C2B50720  27.113  39.936   6.655
 3816POPC   C3B50721  27.351  40.063   6.989
 3816POPC   C4B50722  27.301  39.887   7.348
 3817POPC   NC350723  14.798  20.630   5.168
 3817POPC   PO450724  15.517  20.216   5.258
 3817POPC   GL150725  15.461  20.309   5.766
 3817POPC   GL250726  15.153  20.535   5.840
 3817POPC   C1A50727  15.446  20.515   6.232
 3817POPC   D2A50728  15.205  20.625   6.615
 3817POPC   C3A50729  15.316  20.454   7.005
 3817POPC   C4A50730  15.441  20.770   7.302
 3817POPC   C1B50731  14.932  20.669   6.170
 3817POPC   C2B50732  14.727  20.471   6.510
 3817POPC   C3B50733  14.707  20.538   6.928
 3817POPC   C4B50734  14.939  20.651   7.297
 3818POPC   NC350735  25.760  10.818   5.046
 3818POPC   PO450736  26.295  10.572   5.415
 3818POPC   GL150737  26.203  10.561   5.890
 3818POPC   GL250738  25.902  10.421   5.925
 3818POPC   C1A50739  26.291  10.504   6.326
 3818POPC   D2A50740  26.106  10.743   6.661
 3818POPC   C3A50741  26.239  10.561   7.014
 3818POPC   C4A50742  26.244  10.118   7.079
 3818POPC   C1B50743  25.839  10.244   6.288
 3818POPC   C2B50744  25.976  10.252   6.682
 3818POPC   C3B50745  25.769  10.305   7.078
 3818POPC   C4B50746  25.545  10.590   7.326
 3819POPC   NC350747   0.457  24.769   5.426
 3819POPC   PO450748   0.660  25.502   5.270
 3819POPC   GL150749   0.548  25.250   5.630
 3819POPC   GL250750   0.246  25.208   5.762
 3819POPC   C1A50751   0.597  25.293   6.105
 3819POPC   D2A50752   0.392  25.232   6.502
 3819POPC   C3A50753   0.567  25.060   6.905
 3819POPC   C4A50754   0.764  25.252   7.253
 3819POPC   C1B50755   0.102  25.481   6.114
 3819POPC   C2B50756  44.972  25.523   6.548
 3819POPC   C3B50757   0.055  25.207   6.877
 3819POPC   C4B50758   0.237  25.251   7.264
 3820POPC   NC350759  44.524  12.664   5.125
 3820POPC   PO450760  44.929  12.431   5.614
 3820POPC   GL150761  44.715  12.688   5.903
 3820POPC   GL250762  44.675  13.051   5.829
 3820POPC   C1A50763  44.660  12.727   6.347
 3820POPC   D2A50764  44.394  12.502   6.632
 3820POPC   C3A50765  44.531  12.518   7.039
 3820POPC   C4A50766  44.602  12.829   7.356
 3820POPC   C1B50767  44.401  13.144   6.205
 3820POPC   C2B50768  44.344  13.096   6.683
 3820POPC   C3B50769  44.162  12.897   7.083
 3820POPC   C4B50770  44.165  13.005   7.560
 3821POPC   NC350771   4.798  22.689   5.312
 3821POPC   PO450772   5.255  22.440   5.568
 3821POPC   GL150773   4.947  22.713   5.847
 3821POPC   GL250774   5.137  23.001   5.940
 3821POPC   C1A50775   4.820  22.907   6.318
 3821POPC   D2A50776   5.024  23.059   6.742
 3821POPC   C3A50777   4.910  22.847   7.156
 3821POPC   C4A50778   4.762  22.777   7.580
 3821POPC   C1B50779   5.264  22.667   6.264
 3821POPC   C2B50780   5.380  22.651   6.709
 3821POPC   C3B50781   5.404  22.895   7.091
 3821POPC   C4B50782   5.320  22.912   7.546
 3822POPC   NC350783  42.875  35.750   5.614
 3822POPC   PO450784  42.828  36.388   5.475
 3822POPC   GL150785  43.073  36.351   5.851
 3822POPC   GL250786  43.195  36.015   5.921
 3822POPC   C1A50787  43.112  36.362   6.295
 3822POPC   D2A50788  43.116  36.142   6.647
 3822POPC   C3A50789  42.980  36.247   7.021
 3822POPC   C4A50790  43.091  36.023   7.407
 3822POPC   C1B50791  42.828  35.935   6.245
 3822POPC   C2B50792  42.606  36.027   6.642
 3822POPC   C3B50793  42.505  35.956   7.082
 3822POPC   C4B50794  42.637  35.781   7.509
 3823POPC   NC350795  31.073  18.201   5.116
 3823POPC   PO450796  31.584  18.461   5.465
 3823POPC   GL150797  31.621  18.342   5.879
 3823POPC   GL250798  31.580  17.972   5.834
 3823POPC   C1A50799  31.519  18.448   6.309
 3823POPC   D2A50800  31.453  18.308   6.735
 3823POPC   C3A50801  31.533  18.614   6.985
 3823POPC   C4A50802  31.264  18.781   7.227
 3823POPC   C1B50803  31.222  18.087   6.103
 3823POPC   C2B50804  31.021  18.121   6.515
 3823POPC   C3B50805  31.033  18.014   6.951
 3823POPC   C4B50806  31.316  18.227   7.241
 3824POPC   NC350807   6.899  21.267   5.396
 3824POPC   PO450808   7.406  20.981   5.270
 3824POPC   GL150809   7.345  21.271   5.662
 3824POPC   GL250810   7.621  21.366   5.835
 3824POPC   C1A50811   7.254  21.277   6.171
 3824POPC   D2A50812   7.530  21.297   6.567
 3824POPC   C3A50813   7.529  20.981   6.890
 3824POPC   C4A50814   7.247  20.938   7.271
 3824POPC   C1B50815   7.798  21.535   6.193
 3824POPC   C2B50816   7.819  21.735   6.589
 3824POPC   C3B50817   7.719  21.718   7.030
 3824POPC   C4B50818   7.577  21.352   7.252
 3825POPC   NC350819  10.015  28.975   5.251
 3825POPC   PO450820   9.500  29.373   5.450
 3825POPC   GL150821   9.619  29.058   5.789
 3825POPC   GL250822   9.986  28.953   5.816
 3825POPC   C1A50823   9.690  29.089   6.240
 3825POPC   D2A50824   9.807  29.367   6.573
 3825POPC   C3A50825  10.145  29.291   6.862
 3825POPC   C4A50826  10.127  28.954   7.184
 3825POPC   C1B50827  10.174  28.927   6.273
 3825POPC   C2B50828   9.965  28.846   6.678
 3825POPC   C3B50829   9.663  29.046   6.972
 3825POPC   C4B50830   9.551  28.861   7.360
 3826POPC   NC350831  15.937  42.628   5.360
 3826POPC   PO450832  15.955  43.289   5.313
 3826POPC   GL150833  15.890  43.206   5.718
 3826POPC   GL250834  16.075  42.906   5.768
 3826POPC   C1A50835  16.069  43.313   6.120
 3826POPC   D2A50836  15.931  43.187   6.541
 3826POPC   C3A50837  16.196  43.053   6.878
 3826POPC   C4A50838  15.976  43.054   7.265
 3826POPC   C1B50839  15.888  42.826   6.133
 3826POPC   C2B50840  15.602  42.778   6.478
 3826POPC   C3B50841  15.720  42.805   6.900
 3826POPC   C4B50842  15.537  42.729   7.318
 3827POPC   NC350843   7.523  41.530   5.156
 3827POPC   PO450844   7.415  41.388   5.593
 3827POPC   GL150845   7.257  41.649   5.964
 3827POPC   GL250846   6.999  41.936   5.892
 3827POPC   C1A50847   7.375  41.581   6.412
 3827POPC   D2A50848   7.611  41.278   6.655
 3827POPC   C3A50849   7.655  41.415   7.082
 3827POPC   C4A50850   7.473  41.379   7.485
 3827POPC   C1B50851   7.114  42.009   6.349
 3827POPC   C2B50852   7.061  41.869   6.794
 3827POPC   C3B50853   7.306  41.844   7.198
 3827POPC   C4B50854   7.336  41.867   7.671
 3828POPC   NC350855  25.464  40.967   5.399
 3828POPC   PO450856  24.762  40.779   5.383
 3828POPC   GL150857  25.076  40.850   5.725
 3828POPC   GL250858  25.202  40.570   5.879
 3828POPC   C1A50859  25.359  41.009   6.097
 3828POPC   D2A50860  25.241  41.027   6.547
 3828POPC   C3A50861  25.396  40.924   6.933
 3828POPC   C4A50862  25.199  40.899   7.318
 3828POPC   C1B50863  24.966  40.708   6.224
 3828POPC   C2B50864  25.006  40.547   6.622
 3828POPC   C3B50865  25.078  40.498   7.032
 3828POPC   C4B50866  24.991  40.397   7.470
 3829POPC   NC350867  27.126  20.318   5.383
 3829POPC   PO450868  26.534  20.601   5.155
 3829POPC   GL150869  26.852  20.706   5.558
 3829POPC   GL250870  26.877  20.405   5.825
 3829POPC   C1A50871  26.934  20.841   6.034
 3829POPC   D2A50872  26.812  20.603   6.433
 3829POPC   C3A50873  26.950  20.754   6.857
 3829POPC   C4A50874  26.902  20.675   7.318
 3829POPC   C1B50875  26.909  20.124   6.191
 3829POPC   C2B50876  26.788  20.103   6.618
 3829POPC   C3B50877  26.905  20.264   6.997
 3829POPC   C4B50878  27.048  20.153   7.414
 3830POPC   NC350879  21.844  38.205   5.479
 3830POPC   PO450880  21.334  38.627   5.259
 3830POPC   GL150881  21.368  38.494   5.700
 3830POPC   GL250882  21.116  38.235   5.672
 3830POPC   C1A50883  21.249  38.701   6.144
 3830POPC   D2A50884  21.376  38.553   6.560
 3830POPC   C3A50885  21.268  38.587   6.998
 3830POPC   C4A50886  21.538  38.497   7.344
 3830POPC   C1B50887  21.274  38.199   6.116
 3830POPC   C2B50888  21.106  38.147   6.500
 3830POPC   C3B50889  21.261  38.060   6.906
 3830POPC   C4B50890  21.162  38.133   7.334
 3831POPC   NC350891   0.695   6.415   5.642
 3831POPC   PO450892   1.261   6.702   5.412
 3831POPC   GL150893   1.084   6.846   5.799
 3831POPC   GL250894   1.092   6.525   5.934
 3831POPC   C1A50895   1.047   6.899   6.260
 3831POPC   D2A50896   1.042   6.578   6.545
 3831POPC   C3A50897   1.122   6.659   6.968
 3831POPC   C4A50898   0.898   6.654   7.362
 3831POPC   C1B50899   1.446   6.572   6.211
 3831POPC   C2B50900   1.555   6.526   6.649
 3831POPC   C3B50901   1.515   6.288   7.028
 3831POPC   C4B50902   1.392   6.507   7.389
 3832POPC   NC350903  31.062  25.225   5.346
 3832POPC   PO450904  30.402  25.231   5.447
 3832POPC   GL150905  30.568  25.316   5.837
 3832POPC   GL250906  30.946  25.353   5.847
 3832POPC   C1A50907  30.414  25.242   6.251
 3832POPC   D2A50908  30.524  24.969   6.566
 3832POPC   C3A50909  30.403  25.123   6.938
 3832POPC   C4A50910  30.636  25.212   7.263
 3832POPC   C1B50911  30.878  25.426   6.303
 3832POPC   C2B50912  30.845  25.336   6.722
 3832POPC   C3B50913  30.974  25.530   7.046
 3832POPC   C4B50914  31.179  25.245   7.317
 3833POPC   NC350915  38.091  27.148   5.110
 3833POPC   PO450916  38.504  26.643   5.389
 3833POPC   GL150917  38.570  26.705   5.853
 3833POPC   GL250918  38.272  26.543   6.033
 3833POPC   C1A50919  38.687  26.701   6.309
 3833POPC   D2A50920  38.446  26.569   6.680
 3833POPC   C3A50921  38.676  26.742   7.032
 3833POPC   C4A50922  38.780  27.181   7.165
 3833POPC   C1B50923  38.208  26.924   6.320
 3833POPC   C2B50924  38.284  27.237   6.672
 3833POPC   C3B50925  38.289  27.061   7.083
 3833POPC   C4B50926  38.160  26.640   7.141
 3834POPC   NC350927  35.964  38.147   5.519
 3834POPC   PO450928  35.755  38.844   5.648
 3834POPC   GL150929  35.968  38.763   6.007
 3834POPC   GL250930  36.104  38.438   5.926
 3834POPC   C1A50931  36.040  38.620   6.430
 3834POPC   D2A50932  36.395  38.598   6.693
 3834POPC   C3A50933  36.380  38.825   7.084
 3834POPC   C4A50934  36.625  38.772   7.443
 3834POPC   C1B50935  35.906  38.153   6.257
 3834POPC   C2B50936  36.117  38.157   6.690
 3834POPC   C3B50937  36.075  38.395   7.080
 3834POPC   C4B50938  36.022  38.342   7.522
 3835POPC   NC350939  40.996   2.938   5.421
 3835POPC   PO450940  40.948   2.239   5.277
 3835POPC   GL150941  40.963   2.504   5.776
 3835POPC   GL250942  40.946   2.891   5.908
 3835POPC   C1A50943  40.925   2.537   6.242
 3835POPC   D2A50944  40.701   2.576   6.607
 3835POPC   C3A50945  40.990   2.652   6.946
 3835POPC   C4A50946  40.935   2.856   7.321
 3835POPC   C1B50947  40.658   3.003   6.235
 3835POPC   C2B50948  40.476   3.057   6.635
 3835POPC   C3B50949  40.572   3.111   7.042
 3835POPC   C4B50950  40.481   3.007   7.436
 3836POPC   NC350951  35.202  22.092   5.374
 3836POPC   PO450952  35.730  22.573   5.355
 3836POPC   GL150953  35.572  22.273   5.675
 3836POPC   GL250954  35.220  22.265   5.846
 3836POPC   C1A50955  35.636  22.104   6.096
 3836POPC   D2A50956  35.722  21.954   6.516
 3836POPC   C3A50957  35.612  22.246   6.846
 3836POPC   C4A50958  35.457  22.163   7.246
 3836POPC   C1B50959  35.129  21.907   6.150
 3836POPC   C2B50960  35.109  21.701   6.574
 3836POPC   C3B50961  34.978  21.875   6.999
 3836POPC   C4B50962  34.901  22.299   7.193
 3837POPC   NC350963   9.907  24.091   5.500
 3837POPC   PO450964   9.380  23.725   5.230
 3837POPC   GL150965   9.608  23.725   5.706
 3837POPC   GL250966   9.571  24.018   5.916
 3837POPC   C1A50967   9.812  23.589   6.178
 3837POPC   D2A50968   9.890  23.448   6.655
 3837POPC   C3A50969   9.818  23.687   7.053
 3837POPC   C4A50970   9.775  23.598   7.523
 3837POPC   C1B50971   9.902  24.097   6.186
 3837POPC   C2B50972   9.900  23.953   6.583
 3837POPC   C3B50973   9.967  24.159   6.961
 3837POPC   C4B50974   9.881  24.075   7.378
 3838POPC   NC350975  13.331  21.673   5.264
 3838POPC   PO450976  13.925  21.446   5.384
 3838POPC   GL150977  13.629  21.379   5.724
 3838POPC   GL250978  13.254  21.355   5.704
 3838POPC   C1A50979  13.764  21.392   6.136
 3838POPC   D2A50980  13.701  21.540   6.522
 3838POPC   C3A50981  13.927  21.294   6.795
 3838POPC   C4A50982  13.887  21.293   7.249
 3838POPC   C1B50983  13.260  21.298   6.174
 3838POPC   C2B50984  13.408  21.133   6.591
 3838POPC   C3B50985  13.441  21.373   6.975
 3838POPC   C4B50986  13.090  21.376   7.240
 3839POPC   NC350987   1.442  42.521   5.413
 3839POPC   PO450988   0.858  42.183   5.257
 3839POPC   GL150989   1.114  42.307   5.693
 3839POPC   GL250990   0.919  42.478   5.933
 3839POPC   C1A50991   1.377  42.250   6.102
 3839POPC   D2A50992   1.485  42.149   6.567
 3839POPC   C3A50993   1.145  42.155   6.887
 3839POPC   C4A50994   1.091  42.083   7.324
 3839POPC   C1B50995   1.229  42.752   6.120
 3839POPC   C2B50996   1.176  42.869   6.532
 3839POPC   C3B50997   1.099  42.666   6.905
 3839POPC   C4B50998   1.343  42.628   7.261
 3840POPC   NC350999   3.973  29.155   5.503
 3840POPC   PO451000   4.716  29.218   5.402
 3840POPC   GL151001   4.524  29.283   5.797
 3840POPC   GL251002   4.703  29.000   5.889
 3840POPC   C1A51003   4.644  29.345   6.261
 3840POPC   D2A51004   4.713  29.098   6.648
 3840POPC   C3A51005   4.331  29.059   6.920
 3840POPC   C4A51006   4.212  29.376   7.251
 3840POPC   C1B51007   4.710  28.733   6.267
 3840POPC   C2B51008   4.586  28.604   6.703
 3840POPC   C3B51009   4.724  28.776   7.100
 3840POPC   C4B51010   4.418  28.938   7.414
 3841POPC   NC351011  17.024  27.873   5.492
 3841POPC   PO451012  17.725  27.686   5.499
 3841POPC   GL151013  17.498  27.590   5.830
 3841POPC   GL251014  17.385  27.931   5.848
 3841POPC   C1A51015  17.526  27.367   6.238
 3841POPC   D2A51016  17.449  27.217   6.669
 3841POPC   C3A51017  17.500  27.460   7.053
 3841POPC   C4A51018  17.272  27.847   7.264
 3841POPC   C1B51019  17.694  27.878   6.190
 3841POPC   C2B51020  17.667  27.706   6.582
 3841POPC   C3B51021  17.674  27.904   6.945
 3841POPC   C4B51022  17.795  27.958   7.329
 3842POPC   NC351023  24.154   2.745   5.447
 3842POPC   PO451024  24.626   3.214   5.406
 3842POPC   GL151025  24.575   2.924   5.804
 3842POPC   GL251026  24.220   2.832   5.929
 3842POPC   C1A51027  24.600   2.750   6.245
 3842POPC   D2A51028  24.687   2.797   6.698
 3842POPC   C3A51029  24.564   2.457   7.006
 3842POPC   C4A51030  24.468   2.570   7.448
 3842POPC   C1B51031  24.169   3.024   6.322
 3842POPC   C2B51032  24.267   3.091   6.760
 3842POPC   C3B51033  24.462   2.996   7.168
 3842POPC   C4B51034  24.316   3.023   7.621
 3843POPC   NC351035  25.838   8.282   5.462
 3843POPC   PO451036  26.372   7.891   5.519
 3843POPC   GL151037  26.178   8.125   5.838
 3843POPC   GL251038  26.296   8.461   5.719
 3843POPC   C1A51039  25.957   8.129   6.269
 3843POPC   D2A51040  25.806   8.138   6.737
 3843POPC   C3A51041  25.781   7.838   7.086
 3843POPC   C4A51042  26.046   7.716   7.445
 3843POPC   C1B51043  26.356   8.491   6.167
 3843POPC   C2B51044  26.095   8.572   6.532
 3843POPC   C3B51045  26.076   8.492   6.968
 3843POPC   C4B51046  26.022   8.620   7.382
 3844POPC   NC351047  33.503  43.568   4.992
 3844POPC   PO451048  33.979  43.625   5.414
 3844POPC   GL151049  33.784  43.733   5.794
 3844POPC   GL251050  34.104  43.909   5.827
 3844POPC   C1A51051  33.617  43.987   6.095
 3844POPC   D2A51052  33.777  43.961   6.499
 3844POPC   C3A51053  33.601  44.100   6.855
 3844POPC   C4A51054  33.542  43.881   7.180
 3844POPC   C1B51055  34.136  43.734   6.212
 3844POPC   C2B51056  34.139  43.610   6.645
 3844POPC   C3B51057  34.029  43.838   6.990
 3844POPC   C4B51058  33.982  43.741   7.425
 3845POPC   NC351059  28.617  30.094   5.239
 3845POPC   PO451060  28.099  30.018   5.523
 3845POPC   GL151061  28.482  29.883   5.733
 3845POPC   GL251062  28.456  29.537   5.855
 3845POPC   C1A51063  28.447  29.912   6.197
 3845POPC   D2A51064  28.491  29.609   6.538
 3845POPC   C3A51065  28.595  29.856   6.905
 3845POPC   C4A51066  28.368  30.209   7.109
 3845POPC   C1B51067  28.100  29.522   6.191
 3845POPC   C2B51068  28.012  29.714   6.638
 3845POPC   C3B51069  28.150  29.728   7.068
 3845POPC   C4B51070  28.138  29.615   7.513
 3846POPC   NC351071  42.877  23.980   5.347
 3846POPC   PO451072  42.789  23.285   5.350
 3846POPC   GL151073  42.892  23.549   5.713
 3846POPC   GL251074  42.609  23.732   5.751
 3846POPC   C1A51075  42.989  23.405   6.157
 3846POPC   D2A51076  42.805  23.490   6.584
 3846POPC   C3A51077  43.037  23.414   6.965
 3846POPC   C4A51078  43.286  23.335   7.333
 3846POPC   C1B51079  42.663  23.805   6.182
 3846POPC   C2B51080  42.810  24.017   6.546
 3846POPC   C3B51081  43.151  23.878   6.789
 3846POPC   C4B51082  43.223  23.859   7.213
 3847POPC   NC351083   0.310  27.790   5.434
 3847POPC   PO451084   0.038  27.203   5.674
 3847POPC   GL151085   0.223  27.509   5.984
 3847POPC   GL251086   0.520  27.679   5.887
 3847POPC   C1A51087   0.191  27.552   6.444
 3847POPC   D2A51088  44.991  27.651   6.806
 3847POPC   C3A51089   0.217  27.566   7.166
 3847POPC   C4A51090   0.638  27.420   7.312
 3847POPC   C1B51091   0.668  27.564   6.303
 3847POPC   C2B51092   0.573  27.607   6.786
 3847POPC   C3B51093   0.601  27.899   7.141
 3847POPC   C4B51094   0.694  27.894   7.601
 3848POPC   NC351095  39.092  17.350   5.239
 3848POPC   PO451096  39.231  17.926   5.363
 3848POPC   GL151097  39.028  17.647   5.692
 3848POPC   GL251098  39.259  17.361   5.746
 3848POPC   C1A51099  39.057  17.568   6.163
 3848POPC   D2A51100  39.030  17.715   6.607
 3848POPC   C3A51101  39.239  17.671   7.021
 3848POPC   C4A51102  39.143  17.547   7.434
 3848POPC   C1B51103  39.406  17.205   6.207
 3848POPC   C2B51104  39.374  17.309   6.678
 3848POPC   C3B51105  39.448  17.215   7.158
 3848POPC   C4B51106  39.521  17.246   7.620
 3849POPC   NC351107  21.673  27.289   5.413
 3849POPC   PO451108  21.327  26.688   5.204
 3849POPC   GL151109  21.269  27.000   5.592
 3849POPC   GL251110  21.585  26.969   5.812
 3849POPC   C1A51111  21.152  27.070   6.059
 3849POPC   D2A51112  21.369  27.106   6.475
 3849POPC   C3A51113  21.193  26.967   6.863
 3849POPC   C4A51114  21.169  27.181   7.258
 3849POPC   C1B51115  21.489  26.707   6.200
 3849POPC   C2B51116  21.620  26.573   6.612
 3849POPC   C3B51117  21.514  26.598   7.027
 3849POPC   C4B51118  21.630  26.989   7.182
 3850POPC   NC351119  37.442   6.019   5.367
 3850POPC   PO451120  37.978   5.641   5.550
 3850POPC   GL151121  37.705   5.881   5.818
 3850POPC   GL251122  37.442   5.625   5.844
 3850POPC   C1A51123  37.841   6.044   6.247
 3850POPC   D2A51124  37.916   5.812   6.649
 3850POPC   C3A51125  37.896   6.000   7.066
 3850POPC   C4A51126  37.691   6.074   7.506
 3850POPC   C1B51127  37.379   5.877   6.231
 3850POPC   C2B51128  37.434   6.041   6.667
 3850POPC   C3B51129  37.409   5.873   7.082
 3850POPC   C4B51130  37.657   5.501   7.133
 3851POPC   NC351131   2.332  15.246   5.167
 3851POPC   PO451132   1.777  15.614   5.437
 3851POPC   GL151133   1.878  15.349   5.789
 3851POPC   GL251134   2.202  15.135   5.716
 3851POPC   C1A51135   1.760  15.414   6.215
 3851POPC   D2A51136   1.573  15.339   6.604
 3851POPC   C3A51137   1.867  15.209   6.910
 3851POPC   C4A51138   1.922  15.344   7.318
 3851POPC   C1B51139   2.222  15.186   6.171
 3851POPC   C2B51140   2.195  15.446   6.566
 3851POPC   C3B51141   2.352  15.347   7.003
 3851POPC   C4B51142   2.256  14.934   7.232
 3852POPC   NC351143   3.667  20.949   5.324
 3852POPC   PO451144   4.206  20.624   5.379
 3852POPC   GL151145   3.804  20.586   5.669
 3852POPC   GL251146   3.667  20.869   5.853
 3852POPC   C1A51147   3.593  20.415   6.044
 3852POPC   D2A51148   3.735  20.359   6.466
 3852POPC   C3A51149   3.460  20.263   6.798
 3852POPC   C4A51150   3.505  20.435   7.204
 3852POPC   C1B51151   3.630  20.854   6.334
 3852POPC   C2B51152   3.509  20.800   6.770
 3852POPC   C3B51153   3.330  20.931   7.178
 3852POPC   C4B51154   3.286  21.022   7.644
 3853POPC   NC351155  28.368  28.085   5.395
 3853POPC   PO451156  28.533  27.473   5.312
 3853POPC   GL151157  28.517  27.710   5.721
 3853POPC   GL251158  28.153  27.772   5.758
 3853POPC   C1A51159  28.453  27.625   6.181
 3853POPC   D2A51160  28.284  27.438   6.567
 3853POPC   C3A51161  28.467  27.592   6.958
 3853POPC   C4A51162  28.465  27.453   7.381
 3853POPC   C1B51163  27.944  27.798   6.162
 3853POPC   C2B51164  28.064  27.923   6.585
 3853POPC   C3B51165  27.999  27.779   7.014
 3853POPC   C4B51166  28.009  28.059   7.360
 3854POPC   NC351167  29.011   7.315   4.817
 3854POPC   PO451168  29.297   7.374   5.443
 3854POPC   GL151169  29.276   7.482   5.843
 3854POPC   GL251170  29.152   7.149   5.898
 3854POPC   C1A51171  29.069   7.517   6.246
 3854POPC   D2A51172  28.958   7.559   6.661
 3854POPC   C3A51173  29.305   7.569   6.918
 3854POPC   C4A51174  29.160   7.480   7.300
 3854POPC   C1B51175  29.432   7.157   6.259
 3854POPC   C2B51176  29.525   7.122   6.696
 3854POPC   C3B51177  29.354   7.061   7.098
 3854POPC   C4B51178  29.382   6.922   7.531
 3855POPC   NC351179  44.064   9.665   5.402
 3855POPC   PO451180  44.012  10.229   5.531
 3855POPC   GL151181  43.851   9.877   5.809
 3855POPC   GL251182  44.129   9.719   5.914
 3855POPC   C1A51183  43.635   9.718   6.163
 3855POPC   D2A51184  43.700   9.868   6.575
 3855POPC   C3A51185  43.521   9.781   6.963
 3855POPC   C4A51186  43.563  10.014   7.363
 3855POPC   C1B51187  44.115   9.985   6.288
 3855POPC   C2B51188  44.189   9.904   6.757
 3855POPC   C3B51189  44.009   9.859   7.173
 3855POPC   C4B51190  44.123   9.650   7.588
 3856POPC   NC351191  41.880  43.115   5.491
 3856POPC   PO451192  41.290  42.962   5.331
 3856POPC   GL151193  41.393  43.042   5.774
 3856POPC   GL251194  41.703  42.898   5.934
 3856POPC   C1A51195  41.419  43.313   6.167
 3856POPC   D2A51196  41.605  43.470   6.569
 3856POPC   C3A51197  41.405  43.378   6.970
 3856POPC   C4A51198  41.673  43.110   7.216
 3856POPC   C1B51199  41.366  42.794   6.244
 3856POPC   C2B51200  41.341  42.532   6.621
 3856POPC   C3B51201  41.542  42.650   7.009
 3856POPC   C4B51202  41.390  42.709   7.424
 3857POPC   NC351203  12.164   3.861   5.175
 3857POPC   PO451204  12.108   4.490   5.464
 3857POPC   GL151205  12.195   4.167   5.826
 3857POPC   GL251206  12.530   4.165   5.941
 3857POPC   C1A51207  12.023   3.935   6.224
 3857POPC   D2A51208  12.049   3.865   6.701
 3857POPC   C3A51209  11.798   4.136   7.039
 3857POPC   C4A51210  11.881   4.215   7.516
 3857POPC   C1B51211  12.338   4.342   6.335
 3857POPC   C2B51212  12.220   4.372   6.797
 3857POPC   C3B51213  12.291   4.335   7.247
 3857POPC   C4B51214  12.257   4.543   7.673
 3858POPC   NC351215  35.518  12.570   4.973
 3858POPC   PO451216  35.394  13.193   5.328
 3858POPC   GL151217  35.467  12.929   5.674
 3858POPC   GL251218  35.634  12.613   5.567
 3858POPC   C1A51219  35.357  13.012   6.102
 3858POPC   D2A51220  35.170  13.115   6.498
 3858POPC   C3A51221  35.281  12.979   6.909
 3858POPC   C4A51222  35.123  12.728   7.221
 3858POPC   C1B51223  35.561  12.539   6.035
 3858POPC   C2B51224  35.336  12.596   6.454
 3858POPC   C3B51225  35.532  12.535   6.873
 3858POPC   C4B51226  35.620  12.759   7.267
 3859POPC   NC351227   3.368  36.303   5.217
 3859POPC   PO451228   3.990  36.357   5.443
 3859POPC   GL151229   3.748  36.167   5.802
 3859POPC   GL251230   3.432  36.045   5.662
 3859POPC   C1A51231   3.709  36.046   6.289
 3859POPC   D2A51232   3.847  35.957   6.767
 3859POPC   C3A51233   3.648  36.074   7.175
 3859POPC   C4A51234   3.584  36.228   7.612
 3859POPC   C1B51235   3.284  36.374   5.971
 3859POPC   C2B51236   3.314  36.444   6.440
 3859POPC   C3B51237   3.290  36.178   6.813
 3859POPC   C4B51238   3.057  36.087   7.198
 3860POPC   NC351239  39.178  21.479   5.381
 3860POPC   PO451240  39.433  20.896   5.513
 3860POPC   GL151241  39.213  21.112   5.850
 3860POPC   GL251242  39.005  21.430   5.853
 3860POPC   C1A51243  39.057  21.064   6.278
 3860POPC   D2A51244  38.740  21.057   6.607
 3860POPC   C3A51245  38.869  21.222   6.998
 3860POPC   C4A51246  39.105  21.238   7.330
 3860POPC   C1B51247  39.244  21.559   6.232
 3860POPC   C2B51248  39.255  21.361   6.648
 3860POPC   C3B51249  39.268  21.593   6.990
 3860POPC   C4B51250  38.933  21.704   7.215
 3861POPC   NC351251  17.894  24.001   5.469
 3861POPC   PO451252  18.484  23.609   5.285
 3861POPC   GL151253  18.442  23.704   5.752
 3861POPC   GL251254  18.086  23.748   5.909
 3861POPC   C1A51255  18.552  23.655   6.200
 3861POPC   D2A51256  18.667  23.464   6.620
 3861POPC   C3A51257  18.636  23.631   7.065
 3861POPC   C4A51258  18.615  23.668   7.549
 3861POPC   C1B51259  18.096  23.812   6.379
 3861POPC   C2B51260  18.141  23.709   6.846
 3861POPC   C3B51261  18.214  23.851   7.292
 3861POPC   C4B51262  18.059  23.998   7.711
 3862POPC   NC351263  13.160  41.117   5.466
 3862POPC   PO451264  12.603  40.955   5.149
 3862POPC   GL151265  12.784  40.778   5.625
 3862POPC   GL251266  13.001  40.549   5.879
 3862POPC   C1A51267  12.829  40.945   6.104
 3862POPC   D2A51268  12.747  41.228   6.393
 3862POPC   C3A51269  12.783  41.069   6.778
 3862POPC   C4A51270  12.831  41.077   7.237
 3862POPC   C1B51271  12.635  40.490   6.186
 3862POPC   C2B51272  12.653  40.504   6.658
 3862POPC   C3B51273  12.878  40.628   7.026
 3862POPC   C4B51274  12.819  40.581   7.460
 3863POPC   NC351275  42.117  10.421   5.080
 3863POPC   PO451276  42.650  10.126   5.382
 3863POPC   GL151277  42.332  10.217   5.711
 3863POPC   GL251278  42.205  10.521   5.608
 3863POPC   C1A51279  42.325  10.229   6.172
 3863POPC   D2A51280  42.665  10.429   6.421
 3863POPC   C3A51281  42.592  10.513   6.835
 3863POPC   C4A51282  42.523  10.297   7.173
 3863POPC   C1B51283  42.306  10.726   6.042
 3863POPC   C2B51284  42.200  10.670   6.497
 3863POPC   C3B51285  42.103  10.697   6.931
 3863POPC   C4B51286  42.041  10.429   7.271
 3864POPC   NC351287  40.319  25.424   5.396
 3864POPC   PO451288  39.792  25.748   5.414
 3864POPC   GL151289  39.743  25.375   5.697
 3864POPC   GL251290  40.050  25.292   5.806
 3864POPC   C1A51291  39.682  25.363   6.174
 3864POPC   D2A51292  39.683  25.548   6.594
 3864POPC   C3A51293  39.884  25.316   6.939
 3864POPC   C4A51294  39.963  25.370   7.372
 3864POPC   C1B51295  40.183  25.053   6.130
 3864POPC   C2B51296  40.043  25.047   6.529
 3864POPC   C3B51297  40.215  24.885   6.886
 3864POPC   C4B51298  40.386  25.129   7.217
 3865POPC   NC351299  20.690  27.112   5.476
 3865POPC   PO451300  21.000  26.536   5.657
 3865POPC   GL151301  20.584  26.438   5.777
 3865POPC   GL251302  20.419  26.736   5.747
 3865POPC   C1A51303  20.309  26.432   6.155
 3865POPC   D2A51304  20.517  26.484   6.560
 3865POPC   C3A51305  20.425  26.710   6.927
 3865POPC   C4A51306  20.777  26.809   7.187
 3865POPC   C1B51307  20.657  26.801   6.147
 3865POPC   C2B51308  20.529  27.001   6.510
 3865POPC   C3B51309  20.310  27.223   6.780
 3865POPC   C4B51310  20.355  27.134   7.221
 3866POPC   NC351311   9.090  34.875   5.324
 3866POPC   PO451312   8.624  34.451   5.593
 3866POPC   GL151313   8.898  34.647   5.788
 3866POPC   GL251314   9.231  34.537   5.745
 3866POPC   C1A51315   8.871  34.656   6.220
 3866POPC   D2A51316   9.028  34.712   6.631
 3866POPC   C3A51317   8.767  34.591   6.960
 3866POPC   C4A51318   8.851  34.540   7.380
 3866POPC   C1B51319   9.248  34.258   6.116
 3866POPC   C2B51320   9.114  34.201   6.558
 3866POPC   C3B51321   9.236  34.358   6.973
 3866POPC   C4B51322   9.258  34.144   7.349
 3867POPC   NC351323   9.363  33.470   5.491
 3867POPC   PO451324   8.951  32.849   5.365
 3867POPC   GL151325   9.098  33.076   5.687
 3867POPC   GL251326   9.334  32.818   5.735
 3867POPC   C1A51327   9.014  33.112   6.129
 3867POPC   D2A51328   8.786  32.918   6.478
 3867POPC   C3A51329   8.898  33.000   6.921
 3867POPC   C4A51330   8.703  32.833   7.295
 3867POPC   C1B51331   9.395  32.726   6.143
 3867POPC   C2B51332   9.275  32.793   6.536
 3867POPC   C3B51333   9.225  32.602   6.897
 3867POPC   C4B51334   9.333  32.749   7.247
 3868POPC   NC351335   8.385  24.437   5.241
 3868POPC   PO451336   8.102  25.029   5.382
 3868POPC   GL151337   8.353  24.730   5.719
 3868POPC   GL251338   8.167  24.432   5.756
 3868POPC   C1A51339   8.531  24.470   6.151
 3868POPC   D2A51340   8.507  24.133   6.515
 3868POPC   C3A51341   8.411  24.302   6.953
 3868POPC   C4A51342   8.334  24.652   7.238
 3868POPC   C1B51343   8.063  24.660   6.176
 3868POPC   C2B51344   8.149  24.636   6.644
 3868POPC   C3B51345   7.910  24.483   7.015
 3868POPC   C4B51346   7.619  24.370   7.343
 3869POPC   NC351347  16.859  43.945   5.052
 3869POPC   PO451348  16.479  43.674   5.555
 3869POPC   GL151349  16.624  44.032   5.858
 3869POPC   GL251350  16.808  43.751   6.038
 3869POPC   C1A51351  16.837  44.203   6.250
 3869POPC   D2A51352  16.734  43.910   6.566
 3869POPC   C3A51353  16.726  43.922   7.013
 3869POPC   C4A51354  16.458  43.949   7.382
 3869POPC   C1B51355  17.046  43.500   6.350
 3869POPC   C2B51356  17.119  43.637   6.784
 3869POPC   C3B51357  17.062  43.542   7.218
 3869POPC   C4B51358  16.888  43.517   7.643
 3870POPC   NC351359  37.850  43.699   5.329
 3870POPC   PO451360  37.408  44.251   5.242
 3870POPC   GL151361  37.405  44.099   5.741
 3870POPC   GL251362  37.604  43.753   5.790
 3870POPC   C1A51363  37.380  43.941   6.205
 3870POPC   D2A51364  37.260  43.835   6.631
 3870POPC   C3A51365  37.429  44.030   7.016
 3870POPC   C4A51366  37.526  43.886   7.437
 3870POPC   C1B51367  37.866  43.845   6.193
 3870POPC   C2B51368  37.789  43.953   6.637
 3870POPC   C3B51369  37.846  43.749   7.036
 3870POPC   C4B51370  37.944  43.586   7.425
 3871POPC   NC351371  20.823   1.537   5.542
 3871POPC   PO451372  21.427   1.318   5.296
 3871POPC   GL151373  21.245   1.275   5.700
 3871POPC   GL251374  21.111   0.969   5.662
 3871POPC   C1A51375  21.376   1.381   6.132
 3871POPC   D2A51376  21.675   1.318   6.473
 3871POPC   C3A51377  21.454   1.435   6.812
 3871POPC   C4A51378  21.373   1.488   7.218
 3871POPC   C1B51379  21.079   0.964   6.121
 3871POPC   C2B51380  21.331   0.968   6.495
 3871POPC   C3B51381  21.596   0.945   6.858
 3871POPC   C4B51382  21.417   0.817   7.248
 3872POPC   NC351383  24.117  31.705   5.229
 3872POPC   PO451384  23.506  31.307   5.209
 3872POPC   GL151385  23.716  31.391   5.636
 3872POPC   GL251386  23.487  31.234   5.871
 3872POPC   C1A51387  23.817  31.531   6.109
 3872POPC   D2A51388  23.789  31.703   6.548
 3872POPC   C3A51389  23.762  31.566   7.002
 3872POPC   C4A51390  23.709  31.800   7.413
 3872POPC   C1B51391  23.603  31.083   6.265
 3872POPC   C2B51392  23.710  31.178   6.688
 3872POPC   C3B51393  23.552  31.001   7.091
 3872POPC   C4B51394  23.452  30.940   7.541
 3873POPC   NC351395  30.451  38.536   5.418
 3873POPC   PO451396  30.968  38.025   5.238
 3873POPC   GL151397  30.841  38.217   5.734
 3873POPC   GL251398  30.442  38.297   5.860
 3873POPC   C1A51399  30.799  38.445   6.180
 3873POPC   D2A51400  30.955  38.694   6.564
 3873POPC   C3A51401  30.943  38.510   6.983
 3873POPC   C4A51402  30.728  38.691   7.340
 3873POPC   C1B51403  30.323  38.206   6.254
 3873POPC   C2B51404  30.532  38.345   6.622
 3873POPC   C3B51405  30.434  38.418   7.022
 3873POPC   C4B51406  30.262  38.094   7.259
 3874POPC   NC351407  25.845  13.916   5.568
 3874POPC   PO451408  26.233  13.637   5.067
 3874POPC   GL151409  26.239  13.637   5.617
 3874POPC   GL251410  25.943  13.494   5.865
 3874POPC   C1A51411  26.329  13.700   6.095
 3874POPC   D2A51412  26.047  13.662   6.443
 3874POPC   C3A51413  26.154  13.547   6.815
 3874POPC   C4A51414  26.257  13.614   7.194
 3874POPC   C1B51415  25.629  13.698   6.164
 3874POPC   C2B51416  25.502  13.730   6.577
 3874POPC   C3B51417  25.672  13.686   6.965
 3874POPC   C4B51418  25.803  13.765   7.370
 3875POPC   NC351419  19.894   3.969   5.410
 3875POPC   PO451420  20.054   4.571   5.442
 3875POPC   GL151421  19.893   4.304   5.831
 3875POPC   GL251422  20.102   3.977   5.874
 3875POPC   C1A51423  19.624   4.399   6.243
 3875POPC   D2A51424  19.409   4.243   6.630
 3875POPC   C3A51425  19.620   4.419   6.997
 3875POPC   C4A51426  19.430   4.702   7.280
 3875POPC   C1B51427  19.812   3.939   6.211
 3875POPC   C2B51428  19.796   3.923   6.642
 3875POPC   C3B51429  19.926   3.999   7.083
 3875POPC   C4B51430  19.996   4.067   7.541
 3876POPC   NC351431  10.654  41.666   5.374
 3876POPC   PO451432  10.520  42.462   5.410
 3876POPC   GL151433  10.622  42.447   5.874
 3876POPC   GL251434  10.922  42.658   5.934
 3876POPC   C1A51435  10.464  42.319   6.321
 3876POPC   D2A51436  10.638  42.108   6.704
 3876POPC   C3A51437  10.564  42.277   7.118
 3876POPC   C4A51438  10.483  42.720   7.227
 3876POPC   C1B51439  10.808  42.692   6.341
 3876POPC   C2B51440  10.680  42.629   6.748
 3876POPC   C3B51441  10.964  42.596   7.083
 3876POPC   C4B51442  10.884  42.438   7.496
 3877POPC   NC351443  10.072  10.316   5.516
 3877POPC   PO451444   9.772  10.965   5.485
 3877POPC   GL151445   9.824  10.666   5.824
 3877POPC   GL251446   9.540  10.495   5.952
 3877POPC   C1A51447   9.805  10.804   6.264
 3877POPC   D2A51448   9.579  10.914   6.635
 3877POPC   C3A51449   9.746  10.778   7.041
 3877POPC   C4A51450  10.063  10.531   7.219
 3877POPC   C1B51451   9.822  10.251   6.172
 3877POPC   C2B51452   9.791  10.024   6.532
 3877POPC   C3B51453   9.911  10.093   6.967
 3877POPC   C4B51454   9.710  10.141   7.353
 3878POPC   NC351455  28.688  17.141   5.303
 3878POPC   PO451456  28.132  16.523   5.474
 3878POPC   GL151457  28.405  16.724   5.741
 3878POPC   GL251458  28.629  16.515   5.940
 3878POPC   C1A51459  28.315  16.871   6.155
 3878POPC   D2A51460  28.162  16.702   6.555
 3878POPC   C3A51461  28.421  16.752   6.908
 3878POPC   C4A51462  28.246  17.051   7.172
 3878POPC   C1B51463  28.645  16.535   6.397
 3878POPC   C2B51464  28.739  16.337   6.789
 3878POPC   C3B51465  28.674  16.429   7.245
 3878POPC   C4B51466  28.754  16.483   7.720
 3879POPC   NC351467  40.500  31.482   5.354
 3879POPC   PO451468  40.047  31.089   5.586
 3879POPC   GL151469  40.458  31.207   5.807
 3879POPC   GL251470  40.360  31.557   5.894
 3879POPC   C1A51471  40.616  31.327   6.240
 3879POPC   D2A51472  40.316  31.572   6.484
 3879POPC   C3A51473  40.164  31.340   6.826
 3879POPC   C4A51474  40.538  31.206   7.042
 3879POPC   C1B51475  39.946  31.557   6.085
 3879POPC   C2B51476  39.799  31.624   6.508
 3879POPC   C3B51477  39.732  31.623   6.940
 3879POPC   C4B51478  39.667  31.938   7.245
 3880POPC   NC351479   4.482   8.839   5.248
 3880POPC   PO451480   3.991   9.102   5.628
 3880POPC   GL151481   4.269   9.042   5.972
 3880POPC   GL251482   4.551   9.223   5.859
 3880POPC   C1A51483   4.282   8.756   6.367
 3880POPC   D2A51484   4.254   9.028   6.729
 3880POPC   C3A51485   4.242   8.827   7.111
 3880POPC   C4A51486   4.210   9.228   7.284
 3880POPC   C1B51487   4.684   9.039   6.263
 3880POPC   C2B51488   4.715   8.844   6.687
 3880POPC   C3B51489   4.676   9.088   7.064
 3880POPC   C4B51490   4.633   9.100   7.541
 3881POPC   NC351491  43.185  44.426   5.440
 3881POPC   PO451492  42.854   0.067   5.347
 3881POPC   GL151493  42.881  44.764   5.743
 3881POPC   GL251494  42.741  44.400   5.783
 3881POPC   C1A51495  43.244  44.753   6.069
 3881POPC   D2A51496  43.493  44.846   6.453
 3881POPC   C3A51497  43.423  44.791   6.913
 3881POPC   C4A51498  43.341  44.932   7.346
 3881POPC   C1B51499  42.986  44.330   6.128
 3881POPC   C2B51500  42.977  44.583   6.481
 3881POPC   C3B51501  43.031  44.434   6.862
 3881POPC   C4B51502  42.975  44.618   7.204
 3882POPC   NC351503  16.498  26.780   5.316
 3882POPC   PO451504  17.088  26.929   5.497
 3882POPC   GL151505  16.890  26.749   5.840
 3882POPC   GL251506  16.564  26.609   5.805
 3882POPC   C1A51507  16.698  26.885   6.244
 3882POPC   D2A51508  16.815  27.060   6.660
 3882POPC   C3A51509  16.632  26.800   6.991
 3882POPC   C4A51510  16.785  26.669   7.391
 3882POPC   C1B51511  16.339  26.496   6.199
 3882POPC   C2B51512  16.316  26.578   6.634
 3882POPC   C3B51513  16.476  26.300   6.975
 3882POPC   C4B51514  16.420  26.334   7.436
 3883POPC   NC351515  22.370  20.945   5.172
 3883POPC   PO451516  21.900  21.494   5.129
 3883POPC   GL151517  22.062  21.557   5.586
 3883POPC   GL251518  22.370  21.400   5.770
 3883POPC   C1A51519  21.953  21.513   6.036
 3883POPC   D2A51520  22.058  21.249   6.396
 3883POPC   C3A51521  21.957  21.330   6.805
 3883POPC   C4A51522  21.838  21.256   7.207
 3883POPC   C1B51523  22.529  21.288   6.196
 3883POPC   C2B51524  22.496  21.202   6.674
 3883POPC   C3B51525  22.384  21.322   7.118
 3883POPC   C4B51526  22.562  21.298   7.536
 3884POPC   NC351527   2.359   9.981   5.371
 3884POPC   PO451528   1.773   9.703   5.175
 3884POPC   GL151529   1.853   9.868   5.576
 3884POPC   GL251530   2.123   9.992   5.801
 3884POPC   C1A51531   1.697   9.790   5.988
 3884POPC   D2A51532   1.835   9.628   6.382
 3884POPC   C3A51533   1.836   9.845   6.772
 3884POPC   C4A51534   1.885   9.610   7.156
 3884POPC   C1B51535   2.393  10.141   6.132
 3884POPC   C2B51536   2.303   9.905   6.505
 3884POPC   C3B51537   2.334   9.697   6.892
 3884POPC   C4B51538   2.411   9.830   7.299
 3885POPC   NC351539   9.479  22.623   5.433
 3885POPC   PO451540   9.880  22.034   5.502
 3885POPC   GL151541   9.621  22.155   5.870
 3885POPC   GL251542   9.425  22.481   5.919
 3885POPC   C1A51543   9.635  22.162   6.320
 3885POPC   D2A51544   9.798  21.961   6.686
 3885POPC   C3A51545   9.670  22.094   7.100
 3885POPC   C4A51546   9.796  22.091   7.549
 3885POPC   C1B51547   9.861  22.566   6.102
 3885POPC   C2B51548   9.963  22.518   6.544
 3885POPC   C3B51549  10.054  22.665   6.960
 3885POPC   C4B51550  10.071  22.500   7.403
 3886POPC   NC351551  27.389  43.478   5.570
 3886POPC   PO451552  27.653  44.004   5.197
 3886POPC   GL151553  27.629  43.921   5.660
 3886POPC   GL251554  27.900  43.665   5.654
 3886POPC   C1A51555  27.607  44.048   6.168
 3886POPC   D2A51556  27.721  44.227   6.638
 3886POPC   C3A51557  27.633  43.962   7.018
 3886POPC   C4A51558  27.305  43.672   7.218
 3886POPC   C1B51559  27.939  43.638   6.128
 3886POPC   C2B51560  27.977  43.756   6.590
 3886POPC   C3B51561  28.110  43.778   7.034
 3886POPC   C4B51562  27.997  43.949   7.443
 3887POPC   NC351563  31.806  18.852   5.313
 3887POPC   PO451564  32.375  19.159   5.463
 3887POPC   GL151565  32.336  18.876   5.791
 3887POPC   GL251566  32.048  18.642   5.725
 3887POPC   C1A51567  32.393  19.020   6.200
 3887POPC   D2A51568  32.156  19.197   6.533
 3887POPC   C3A51569  32.338  19.241   6.935
 3887POPC   C4A51570  32.155  19.254   7.351
 3887POPC   C1B51571  32.062  18.585   6.173
 3887POPC   C2B51572  32.258  18.690   6.569
 3887POPC   C3B51573  32.448  18.714   6.940
 3887POPC   C4B51574  32.325  18.667   7.317
 3888POPC   NC351575   6.466   5.782   5.223
 3888POPC   PO451576   6.742   5.217   5.494
 3888POPC   GL151577   6.774   5.330   5.880
 3888POPC   GL251578   6.559   5.055   5.982
 3888POPC   C1A51579   6.691   5.466   6.274
 3888POPC   D2A51580   6.869   5.392   6.654
 3888POPC   C3A51581   6.595   5.350   6.998
 3888POPC   C4A51582   6.743   5.175   7.361
 3888POPC   C1B51583   6.793   4.957   6.375
 3888POPC   C2B51584   6.768   4.898   6.836
 3888POPC   C3B51585   6.456   4.811   7.148
 3888POPC   C4B51586   6.029   4.916   7.272
 3889POPC   NC351587  37.765  40.619   5.372
 3889POPC   PO451588  38.031  41.289   5.420
 3889POPC   GL151589  37.733  41.014   5.732
 3889POPC   GL251590  37.517  40.655   5.807
 3889POPC   C1A51591  37.667  40.918   6.190
 3889POPC   D2A51592  37.919  40.888   6.551
 3889POPC   C3A51593  37.789  41.096   6.918
 3889POPC   C4A51594  37.482  40.938   7.186
 3889POPC   C1B51595  37.505  40.433   6.238
 3889POPC   C2B51596  37.662  40.450   6.691
 3889POPC   C3B51597  37.587  40.323   7.122
 3889POPC   C4B51598  37.221  40.499   7.317
 3890POPC   NC351599  40.152  19.630   5.447
 3890POPC   PO451600  39.942  20.212   5.442
 3890POPC   GL151601  39.943  19.942   5.832
 3890POPC   GL251602  40.147  19.629   5.948
 3890POPC   C1A51603  40.016  19.967   6.294
 3890POPC   D2A51604  40.213  20.010   6.691
 3890POPC   C3A51605  39.944  19.986   7.015
 3890POPC   C4A51606  39.925  20.260   7.305
 3890POPC   C1B51607  39.703  19.572   6.107
 3890POPC   C2B51608  39.539  19.683   6.527
 3890POPC   C3B51609  39.732  19.529   6.903
 3890POPC   C4B51610  40.159  19.513   7.075
 3891POPC   NC351611  27.322  10.109   5.059
 3891POPC   PO451612  27.064  10.690   5.330
 3891POPC   GL151613  27.289  10.379   5.636
 3891POPC   GL251614  27.587  10.557   5.770
 3891POPC   C1A51615  27.401  10.244   6.109
 3891POPC   D2A51616  27.528  10.455   6.520
 3891POPC   C3A51617  27.343  10.491   6.964
 3891POPC   C4A51618  27.230  10.847   7.215
 3891POPC   C1B51619  27.898  10.316   6.039
 3891POPC   C2B51620  27.967  10.163   6.458
 3891POPC   C3B51621  27.763  10.136   6.871
 3891POPC   C4B51622  27.695  10.258   7.290
 3892POPC   NC351623  44.988  16.071   5.528
 3892POPC   PO451624  44.355  15.819   5.408
 3892POPC   GL151625  44.477  16.042   5.774
 3892POPC   GL251626  44.722  15.786   5.868
 3892POPC   C1A51627  44.445  16.024   6.249
 3892POPC   D2A51628  44.719  16.128   6.600
 3892POPC   C3A51629  44.595  16.262   7.011
 3892POPC   C4A51630  44.955  16.337   7.300
 3892POPC   C1B51631  44.955  15.779   6.241
 3892POPC   C2B51632  44.799  15.625   6.617
 3892POPC   C3B51633  44.518  15.746   6.916
 3892POPC   C4B51634  44.772  15.843   7.226
 3893POPC   NC351635  38.377   0.356   5.341
 3893POPC   PO451636  39.027   0.285   5.457
 3893POPC   GL151637  38.729   0.420   5.806
 3893POPC   GL251638  38.380   0.488   5.832
 3893POPC   C1A51639  38.608   0.363   6.270
 3893POPC   D2A51640  38.812   0.386   6.672
 3893POPC   C3A51641  38.538   0.417   7.018
 3893POPC   C4A51642  38.689   0.433   7.420
 3893POPC   C1B51643  38.110   0.528   6.211
 3893POPC   C2B51644  37.927   0.609   6.605
 3893POPC   C3B51645  38.030   0.417   6.985
 3893POPC   C4B51646  38.148   0.503   7.425
 3894POPC   NC351647   3.205  42.363   5.501
 3894POPC   PO451648   3.835  42.207   5.339
 3894POPC   GL151649   3.637  42.443   5.802
 3894POPC   GL251650   3.251  42.549   5.961
 3894POPC   C1A51651   3.532  42.288   6.271
 3894POPC   D2A51652   3.490  41.898   6.507
 3894POPC   C3A51653   3.337  41.980   6.914
 3894POPC   C4A51654   3.570  41.933   7.275
 3894POPC   C1B51655   3.126  42.634   6.412
 3894POPC   C2B51656   3.144  42.482   6.859
 3894POPC   C3B51657   3.502  42.452   7.123
 3894POPC   C4B51658   3.649  42.710   7.512
 3895POPC   NC351659  41.864  21.646   5.565
 3895POPC   PO451660  41.890  20.951   5.545
 3895POPC   GL151661  41.782  21.218   5.869
 3895POPC   GL251662  41.458  21.315   5.829
 3895POPC   C1A51663  41.797  21.453   6.249
 3895POPC   D2A51664  41.730  21.265   6.659
 3895POPC   C3A51665  41.731  21.544   7.011
 3895POPC   C4A51666  41.373  21.614   7.236
 3895POPC   C1B51667  41.423  21.055   6.221
 3895POPC   C2B51668  41.181  21.041   6.621
 3895POPC   C3B51669  41.318  21.113   7.052
 3895POPC   C4B51670  41.724  21.014   7.108
 3896POPC   NC351671  36.203  11.563   5.391
 3896POPC   PO451672  36.137  10.904   5.436
 3896POPC   GL151673  35.935  11.164   5.807
 3896POPC   GL251674  35.799  11.525   5.733
 3896POPC   C1A51675  35.881  11.178   6.293
 3896POPC   D2A51676  35.842  11.254   6.759
 3896POPC   C3A51677  36.186  11.285   7.044
 3896POPC   C4A51678  36.174  11.305   7.482
 3896POPC   C1B51679  35.962  11.687   6.149
 3896POPC   C2B51680  36.073  11.704   6.613
 3896POPC   C3B51681  35.892  11.706   7.062
 3896POPC   C4B51682  35.844  11.693   7.534
 3897POPC   NC351683  15.152  38.137   5.379
 3897POPC   PO451684  15.050  37.428   5.434
 3897POPC   GL151685  15.165  37.565   5.806
 3897POPC   GL251686  15.116  37.932   5.863
 3897POPC   C1A51687  15.242  37.572   6.215
 3897POPC   D2A51688  15.052  37.489   6.573
 3897POPC   C3A51689  15.304  37.749   6.843
 3897POPC   C4A51690  15.539  37.892   7.198
 3897POPC   C1B51691  14.856  37.920   6.276
 3897POPC   C2B51692  14.807  37.887   6.751
 3897POPC   C3B51693  14.998  37.971   7.195
 3897POPC   C4B51694  15.287  38.156   7.547
 3898POPC   NC351695   7.169  23.907   5.496
 3898POPC   PO451696   7.585  23.436   5.479
 3898POPC   GL151697   7.526  23.570   5.917
 3898POPC   GL251698   7.801  23.765   5.987
 3898POPC   C1A51699   7.503  23.660   6.400
 3898POPC   D2A51700   7.233  23.515   6.740
 3898POPC   C3A51701   7.157  23.698   7.149
 3898POPC   C4A51702   7.388  23.873   7.481
 3898POPC   C1B51703   7.907  23.390   6.238
 3898POPC   C2B51704   7.807  23.319   6.695
 3898POPC   C3B51705   7.638  23.526   7.063
 3898POPC   C4B51706   7.621  23.391   7.482
 3899POPC   NC351707  22.893  11.920   5.460
 3899POPC   PO451708  23.450  12.413   5.485
 3899POPC   GL151709  23.213  12.107   5.822
 3899POPC   GL251710  22.817  12.075   5.936
 3899POPC   C1A51711  23.165  11.803   6.199
 3899POPC   D2A51712  23.060  11.642   6.618
 3899POPC   C3A51713  23.087  11.836   7.018
 3899POPC   C4A51714  22.943  11.809   7.376
 3899POPC   C1B51715  22.695  11.975   6.360
 3899POPC   C2B51716  22.830  12.160   6.743
 3899POPC   C3B51717  22.765  12.234   7.173
 3899POPC   C4B51718  22.494  12.370   7.525
 3900POPC   NC351719  35.680  33.239   5.407
 3900POPC   PO451720  35.040  33.005   5.453
 3900POPC   GL151721  35.311  33.177   5.748
 3900POPC   GL251722  35.317  32.830   5.900
 3900POPC   C1A51723  35.520  33.228   6.145
 3900POPC   D2A51724  35.452  32.979   6.503
 3900POPC   C3A51725  35.555  33.116   6.896
 3900POPC   C4A51726  35.536  33.060   7.315
 3900POPC   C1B51727  35.022  33.076   6.150
 3900POPC   C2B51728  34.889  33.035   6.546
 3900POPC   C3B51729  35.083  32.913   6.905
 3900POPC   C4B51730  35.023  32.949   7.343
 3901POPC   NC351731  30.154  26.132   5.167
 3901POPC   PO451732  29.906  25.838   5.750
 3901POPC   GL151733  30.167  26.096   5.944
 3901POPC   GL251734  29.920  26.331   5.928
 3901POPC   C1A51735  30.147  26.041   6.402
 3901POPC   D2A51736  30.194  26.090   6.858
 3901POPC   C3A51737  29.907  25.871   7.090
 3901POPC   C4A51738  29.937  25.810   7.529
 3901POPC   C1B51739  29.635  26.214   6.256
 3901POPC   C2B51740  29.446  26.442   6.581
 3901POPC   C3B51741  29.698  26.402   6.938
 3901POPC   C4B51742  29.706  26.260   7.350
 3902POPC   NC351743  16.569  33.779   5.163
 3902POPC   PO451744  16.725  34.358   5.359
 3902POPC   GL151745  16.732  34.058   5.664
 3902POPC   GL251746  16.512  34.197   5.884
 3902POPC   C1A51747  16.701  33.764   6.036
 3902POPC   D2A51748  16.814  33.908   6.449
 3902POPC   C3A51749  16.856  33.795   6.877
 3902POPC   C4A51750  16.970  34.053   7.208
 3902POPC   C1B51751  16.352  34.094   6.303
 3902POPC   C2B51752  16.426  34.044   6.768
 3902POPC   C3B51753  16.459  34.041   7.244
 3902POPC   C4B51754  16.319  34.255   7.662
 3903POPC   NC351755   6.098  30.016   5.264
 3903POPC   PO451756   5.635  29.586   5.263
 3903POPC   GL151757   5.591  29.745   5.707
 3903POPC   GL251758   5.938  29.847   5.759
 3903POPC   C1A51759   5.632  29.571   6.158
 3903POPC   D2A51760   5.912  29.659   6.521
 3903POPC   C3A51761   5.751  29.718   6.952
 3903POPC   C4A51762   5.718  29.995   7.301
 3903POPC   C1B51763   6.010  30.050   6.159
 3903POPC   C2B51764   6.278  30.005   6.505
 3903POPC   C3B51765   6.311  29.751   6.872
 3903POPC   C4B51766   6.157  29.706   7.266
 3904POPC   NC351767  19.151  21.388   5.383
 3904POPC   PO451768  19.578  21.925   5.408
 3904POPC   GL151769  19.443  21.599   5.720
 3904POPC   GL251770  19.070  21.627   5.826
 3904POPC   C1A51771  19.393  21.405   6.148
 3904POPC   D2A51772  19.083  21.547   6.455
 3904POPC   C3A51773  19.242  21.481   6.874
 3904POPC   C4A51774  19.166  21.517   7.330
 3904POPC   C1B51775  18.677  21.587   6.044
 3904POPC   C2B51776  18.534  21.598   6.471
 3904POPC   C3B51777  18.705  21.486   6.866
 3904POPC   C4B51778  18.551  21.507   7.274
 3905POPC   NC351779  43.656  28.042   5.348
 3905POPC   PO451780  43.882  28.667   5.275
 3905POPC   GL151781  43.768  28.484   5.681
 3905POPC   GL251782  43.919  28.154   5.774
 3905POPC   C1A51783  43.854  28.573   6.142
 3905POPC   D2A51784  43.921  28.348   6.519
 3905POPC   C3A51785  43.812  28.495   6.934
 3905POPC   C4A51786  43.864  28.515   7.376
 3905POPC   C1B51787  43.546  28.157   6.008
 3905POPC   C2B51788  43.444  28.160   6.426
 3905POPC   C3B51789  43.658  28.005   6.784
 3905POPC   C4B51790  43.600  28.099   7.203
 3906POPC   NC351791  19.911   9.968   5.164
 3906POPC   PO451792  19.515   9.764   5.752
 3906POPC   GL151793  19.793  10.000   5.954
 3906POPC   GL251794  20.089  10.038   5.728
 3906POPC   C1A51795  19.693  10.139   6.373
 3906POPC   D2A51796  19.445   9.810   6.565
 3906POPC   C3A51797  19.543   9.673   6.970
 3906POPC   C4A51798  19.862   9.865   7.205
 3906POPC   C1B51799  20.242   9.895   6.151
 3906POPC   C2B51800  20.079   9.854   6.587
 3906POPC   C3B51801  20.317   9.808   6.980
 3906POPC   C4B51802  20.270   9.618   7.392
 3907POPC   NC351803   5.064  33.810   5.396
 3907POPC   PO451804   5.683  33.793   5.490
 3907POPC   GL151805   5.442  33.883   5.823
 3907POPC   GL251806   5.287  33.581   5.871
 3907POPC   C1A51807   5.269  33.947   6.263
 3907POPC   D2A51808   5.090  33.797   6.690
 3907POPC   C3A51809   5.127  34.017   7.084
 3907POPC   C4A51810   4.914  34.066   7.494
 3907POPC   C1B51811   5.265  33.435   6.325
 3907POPC   C2B51812   5.472  33.409   6.750
 3907POPC   C3B51813   5.256  33.502   7.163
 3907POPC   C4B51814   5.175  33.477   7.637
 3908POPC   NC351815  36.433  42.005   5.486
 3908POPC   PO451816  36.340  42.638   5.409
 3908POPC   GL151817  36.305  42.528   5.862
 3908POPC   GL251818  36.204  42.162   5.912
 3908POPC   C1A51819  35.968  42.563   6.224
 3908POPC   D2A51820  35.818  42.892   6.547
 3908POPC   C3A51821  35.938  42.811   7.020
 3908POPC   C4A51822  36.267  42.608   7.306
 3908POPC   C1B51823  36.545  42.190   6.190
 3908POPC   C2B51824  36.641  42.404   6.566
 3908POPC   C3B51825  36.365  42.319   6.909
 3908POPC   C4B51826  36.457  42.149   7.327
 3909POPC   NC351827  10.865  30.795   5.321
 3909POPC   PO451828  11.410  30.422   5.178
 3909POPC   GL151829  11.183  30.513   5.626
 3909POPC   GL251830  11.117  30.902   5.750
 3909POPC   C1A51831  11.120  30.561   6.118
 3909POPC   D2A51832  11.032  30.585   6.577
 3909POPC   C3A51833  11.288  30.622   6.933
 3909POPC   C4A51834  11.354  30.735   7.343
 3909POPC   C1B51835  11.221  31.082   6.201
 3909POPC   C2B51836  11.394  31.074   6.653
 3909POPC   C3B51837  11.698  30.951   7.002
 3909POPC   C4B51838  11.842  30.748   7.431
 3910POPC   NC351839   5.366  43.221   5.416
 3910POPC   PO451840   4.819  43.012   5.212
 3910POPC   GL151841   4.877  43.180   5.633
 3910POPC   GL251842   5.077  42.903   5.705
 3910POPC   C1A51843   4.959  43.248   6.107
 3910POPC   D2A51844   5.162  43.364   6.516
 3910POPC   C3A51845   5.169  43.128   6.922
 3910POPC   C4A51846   5.315  43.304   7.327
 3910POPC   C1B51847   5.345  42.928   6.049
 3910POPC   C2B51848   5.406  42.900   6.484
 3910POPC   C3B51849   5.451  42.702   6.859
 3910POPC   C4B51850   5.468  42.823   7.277
 3911POPC   NC351851   7.747   5.332   5.450
 3911POPC   PO451852   8.298   5.039   5.173
 3911POPC   GL151853   8.278   5.085   5.678
 3911POPC   GL251854   7.990   5.146   5.868
 3911POPC   C1A51855   8.415   5.252   6.132
 3911POPC   D2A51856   8.467   5.397   6.582
 3911POPC   C3A51857   8.668   5.221   6.940
 3911POPC   C4A51858   8.433   5.234   7.306
 3911POPC   C1B51859   7.924   5.401   6.258
 3911POPC   C2B51860   7.982   5.519   6.700
 3911POPC   C3B51861   7.993   5.360   7.125
 3911POPC   C4B51862   8.029   5.246   7.609
 3912POPC   NC351863  26.094  14.062   5.116
 3912POPC   PO451864  26.031  14.676   5.298
 3912POPC   GL151865  26.039  14.416   5.677
 3912POPC   GL251866  26.182  14.118   5.852
 3912POPC   C1A51867  26.015  14.575   6.102
 3912POPC   D2A51868  26.222  14.543   6.507
 3912POPC   C3A51869  26.034  14.551   6.883
 3912POPC   C4A51870  25.739  14.672   7.151
 3912POPC   C1B51871  25.936  14.094   6.205
 3912POPC   C2B51872  25.853  14.115   6.630
 3912POPC   C3B51873  26.019  14.050   7.016
 3912POPC   C4B51874  26.004  14.306   7.367
 3913POPC   NC351875   6.425  44.661   5.401
 3913POPC   PO451876   7.104  44.489   5.451
 3913POPC   GL151877   6.893  44.625   5.833
 3913POPC   GL251878   6.635  44.424   5.781
 3913POPC   C1A51879   6.549  44.744   6.162
 3913POPC   D2A51880   6.365  44.900   6.561
 3913POPC   C3A51881   6.509  44.719   6.956
 3913POPC   C4A51882   6.923  44.832   7.151
 3913POPC   C1B51883   6.718  44.260   6.169
 3913POPC   C2B51884   6.763  44.455   6.573
 3913POPC   C3B51885   6.750  44.280   6.975
 3913POPC   C4B51886   6.460  44.269   7.288
 3914POPC   NC351887  18.525  38.030   5.451
 3914POPC   PO451888  18.462  38.711   5.481
 3914POPC   GL151889  18.234  38.581   5.864
 3914POPC   GL251890  18.269  38.240   5.844
 3914POPC   C1A51891  18.114  38.550   6.284
 3914POPC   D2A51892  18.437  38.555   6.562
 3914POPC   C3A51893  18.369  38.490   6.951
 3914POPC   C4A51894  17.986  38.599   7.127
 3914POPC   C1B51895  18.423  38.139   6.251
 3914POPC   C2B51896  18.194  38.086   6.654
 3914POPC   C3B51897  18.103  38.099   7.130
 3914POPC   C4B51898  18.139  37.975   7.612
 3915POPC   NC351899  36.847  40.369   5.141
 3915POPC   PO451900  37.230  40.849   5.426
 3915POPC   GL151901  37.024  40.899   5.801
 3915POPC   GL251902  36.674  41.006   5.839
 3915POPC   C1A51903  37.107  40.795   6.206
 3915POPC   D2A51904  37.343  40.844   6.586
 3915POPC   C3A51905  37.068  40.783   6.918
 3915POPC   C4A51906  36.986  41.074   7.239
 3915POPC   C1B51907  36.514  40.870   6.214
 3915POPC   C2B51908  36.623  40.614   6.558
 3915POPC   C3B51909  36.446  40.530   6.953
 3915POPC   C4B51910  36.710  40.591   7.281
 3916POPC   NC351911  27.921   8.604   5.189
 3916POPC   PO451912  27.460   9.052   5.448
 3916POPC   GL151913  27.600   9.008   5.873
 3916POPC   GL251914  27.913   9.226   5.888
 3916POPC   C1A51915  27.406   8.844   6.273
 3916POPC   D2A51916  27.226   8.593   6.623
 3916POPC   C3A51917  27.334   8.838   7.012
 3916POPC   C4A51918  27.514   9.241   7.182
 3916POPC   C1B51919  27.716   9.308   6.278
 3916POPC   C2B51920  27.656   9.133   6.696
 3916POPC   C3B51921  27.881   8.863   6.992
 3916POPC   C4B51922  27.991   8.725   7.407
 3917POPC   NC351923   8.018   7.733   5.412
 3917POPC   PO451924   8.437   7.187   5.316
 3917POPC   GL151925   8.294   7.392   5.722
 3917POPC   GL251926   7.948   7.268   5.793
 3917POPC   C1A51927   8.309   7.463   6.196
 3917POPC   D2A51928   8.139   7.335   6.601
 3917POPC   C3A51929   8.219   7.521   7.030
 3917POPC   C4A51930   8.484   7.891   7.111
 3917POPC   C1B51931   8.070   6.993   6.152
 3917POPC   C2B51932   7.998   6.846   6.565
 3917POPC   C3B51933   7.783   7.091   6.853
 3917POPC   C4B51934   7.920   7.155   7.259
 3918POPC   NC351935  35.295   9.318   5.383
 3918POPC   PO451936  35.661   8.754   5.612
 3918POPC   GL151937  35.392   9.019   5.771
 3918POPC   GL251938  35.671   9.283   5.725
 3918POPC   C1A51939  35.207   8.912   6.167
 3918POPC   D2A51940  35.425   8.824   6.553
 3918POPC   C3A51941  35.235   8.957   6.940
 3918POPC   C4A51942  35.125   8.718   7.274
 3918POPC   C1B51943  35.648   9.180   6.165
 3918POPC   C2B51944  35.819   9.314   6.523
 3918POPC   C3B51945  35.684   9.160   6.870
 3918POPC   C4B51946  35.543   9.264   7.237
 3919POPC   NC351947  37.046  30.045   5.366
 3919POPC   PO451948  36.735  29.397   5.362
 3919POPC   GL151949  36.769  29.697   5.742
 3919POPC   GL251950  37.065  29.872   5.848
 3919POPC   C1A51951  36.673  29.769   6.201
 3919POPC   D2A51952  36.738  29.613   6.651
 3919POPC   C3A51953  36.983  29.640   7.041
 3919POPC   C4A51954  36.804  29.689   7.449
 3919POPC   C1B51955  37.143  30.075   6.240
 3919POPC   C2B51956  36.832  30.116   6.584
 3919POPC   C3B51957  36.686  30.048   7.014
 3919POPC   C4B51958  36.993  30.129   7.357
 3920POPC   NC351959  27.229  24.464   5.509
 3920POPC   PO451960  26.631  24.653   5.203
 3920POPC   GL151961  26.771  24.696   5.638
 3920POPC   GL251962  26.647  25.008   5.653
 3920POPC   C1A51963  26.871  24.503   6.079
 3920POPC   D2A51964  26.752  24.251   6.451
 3920POPC   C3A51965  26.774  24.447   6.861
 3920POPC   C4A51966  26.713  24.322   7.285
 3920POPC   C1B51967  26.704  24.987   6.077
 3920POPC   C2B51968  26.588  24.761   6.451
 3920POPC   C3B51969  26.499  24.945   6.839
 3920POPC   C4B51970  26.723  24.870   7.205
 3921POPC   NC351971  11.701   0.904   5.230
 3921POPC   PO451972  11.350   0.284   5.347
 3921POPC   GL151973  11.235   0.363   5.763
 3921POPC   GL251974  11.468   0.580   5.868
 3921POPC   C1A51975  11.195   0.261   6.194
 3921POPC   D2A51976  11.346   0.276   6.606
 3921POPC   C3A51977  11.184   0.090   6.954
 3921POPC   C4A51978  11.184   0.312   7.304
 3921POPC   C1B51979  11.706   0.481   6.237
 3921POPC   C2B51980  11.690   0.639   6.637
 3921POPC   C3B51981  11.642   0.400   7.008
 3921POPC   C4B51982  11.545   0.672   7.324
 3922POPC   NC351983  26.765   8.039   5.316
 3922POPC   PO451984  26.644   8.695   5.301
 3922POPC   GL151985  26.815   8.482   5.743
 3922POPC   GL251986  26.699   8.130   5.831
 3922POPC   C1A51987  26.867   8.359   6.238
 3922POPC   D2A51988  26.651   8.486   6.599
 3922POPC   C3A51989  26.680   8.283   7.002
 3922POPC   C4A51990  26.668   8.369   7.449
 3922POPC   C1B51991  26.484   7.994   6.236
 3922POPC   C2B51992  26.314   8.110   6.639
 3922POPC   C3B51993  26.262   8.004   7.064
 3922POPC   C4B51994  26.554   7.862   7.372
 3923POPC   NC351995  27.966  17.678   4.867
 3923POPC   PO451996  27.527  17.435   5.335
 3923POPC   GL151997  27.641  17.475   5.749
 3923POPC   GL251998  27.330  17.551   5.801
 3923POPC   C1A51999  27.680  17.782   6.120
 3923POPC   D2A52000  27.800  17.618   6.515
 3923POPC   C3A52001  27.678  17.780   6.896
 3923POPC   C4A52002  27.541  17.643   7.255
 3923POPC   C1B52003  27.461  17.350   6.232
 3923POPC   C2B52004  27.316  17.375   6.678
 3923POPC   C3B52005  27.217  17.291   7.099
 3923POPC   C4B52006  27.329  17.038   7.459
 3924POPC   NC352007  33.744  20.994   5.429
 3924POPC   PO452008  33.548  20.355   5.388
 3924POPC   GL152009  33.724  20.571   5.763
 3924POPC   GL252010  33.552  20.902   5.893
 3924POPC   C1A52011  33.873  20.376   6.164
 3924POPC   D2A52012  33.709  20.314   6.619
 3924POPC   C3A52013  34.015  20.346   6.999
 3924POPC   C4A52014  34.140  20.678   7.306
 3924POPC   C1B52015  33.622  20.782   6.327
 3924POPC   C2B52016  33.915  20.785   6.691
 3924POPC   C3B52017  33.697  20.743   7.072
 3924POPC   C4B52018  33.330  20.980   7.172
 3925POPC   NC352019  20.132  41.154   5.538
 3925POPC   PO452020  20.116  40.537   5.486
 3925POPC   GL152021  19.934  40.725   5.812
 3925POPC   GL252022  19.701  40.432   5.847
 3925POPC   C1A52023  20.145  40.865   6.196
 3925POPC   D2A52024  20.126  40.651   6.599
 3925POPC   C3A52025  20.124  40.904   6.962
 3925POPC   C4A52026  20.303  41.166   7.253
 3925POPC   C1B52027  19.713  40.582   6.275
 3925POPC   C2B52028  19.609  40.785   6.681
 3925POPC   C3B52029  19.713  40.625   7.074
 3925POPC   C4B52030  20.057  40.382   7.059
 3926POPC   NC352031   5.794  30.847   5.497
 3926POPC   PO452032   6.127  31.375   5.281
 3926POPC   GL152033   6.114  31.681   5.649
 3926POPC   GL252034   5.750  31.741   5.669
 3926POPC   C1A52035   6.195  31.673   6.107
 3926POPC   D2A52036   6.138  31.352   6.437
 3926POPC   C3A52037   5.996  31.504   6.846
 3926POPC   C4A52038   6.080  31.567   7.289
 3926POPC   C1B52039   5.730  31.426   6.017
 3926POPC   C2B52040   5.623  31.377   6.466
 3926POPC   C3B52041   5.522  31.249   6.876
 3926POPC   C4B52042   5.595  31.513   7.190
 3927POPC   NC352043   1.116   0.658   5.655
 3927POPC   PO452044   1.423   0.156   5.499
 3927POPC   GL152045   1.321   0.261   5.916
 3927POPC   GL252046   0.983   0.229   5.931
 3927POPC   C1A52047   1.380   0.335   6.372
 3927POPC   D2A52048   1.375   0.229   6.850
 3927POPC   C3A52049   1.083   0.497   7.035
 3927POPC   C4A52050   1.089   0.933   7.096
 3927POPC   C1B52051   0.863   0.381   6.327
 3927POPC   C2B52052   0.724   0.195   6.698
 3927POPC   C3B52053   0.945  44.995   7.020
 3927POPC   C4B52054   1.183   0.144   7.392
 3928POPC   NC352055  13.932  42.883   5.590
 3928POPC   PO452056  13.355  42.862   5.284
 3928POPC   GL152057  13.487  43.129   5.699
 3928POPC   GL252058  13.427  42.870   5.825
 3928POPC   C1A52059  13.759  43.082   6.153
 3928POPC   D2A52060  13.718  42.883   6.547
 3928POPC   C3A52061  13.891  43.012   6.925
 3928POPC   C4A52062  13.901  43.189   7.338
 3928POPC   C1B52063  13.333  42.731   6.203
 3928POPC   C2B52064  13.212  42.866   6.605
 3928POPC   C3B52065  13.444  42.685   6.949
 3928POPC   C4B52066  13.651  42.762   7.311
 3929POPC   NC352067  31.992  39.508   5.672
 3929POPC   PO452068  32.356  39.003   5.380
 3929POPC   GL152069  32.422  38.961   5.812
 3929POPC   GL252070  32.076  38.961   5.879
 3929POPC   C1A52071  32.530  39.188   6.209
 3929POPC   D2A52072  32.454  39.107   6.651
 3929POPC   C3A52073  32.425  39.415   6.973
 3929POPC   C4A52074  32.319  39.408   7.420
 3929POPC   C1B52075  32.195  38.789   6.296
 3929POPC   C2B52076  31.992  38.868   6.707
 3929POPC   C3B52077  32.114  39.019   7.112
 3929POPC   C4B52078  32.201  38.905   7.540
 3930POPC   NC352079  10.144  44.969   5.399
 3930POPC   PO452080  10.822  44.575   5.473
 3930POPC   GL152081  10.621  44.744   5.852
 3930POPC   GL252082  10.258  44.716   5.836
 3930POPC   C1A52083  10.641  44.773   6.316
 3930POPC   D2A52084  10.799  44.519   6.694
 3930POPC   C3A52085  10.783  44.760   7.069
 3930POPC   C4A52086  10.508   0.093   7.179
 3930POPC   C1B52087  10.240  44.434   6.169
 3930POPC   C2B52088  10.274  44.532   6.595
 3930POPC   C3B52089  10.347  44.358   6.968
 3930POPC   C4B52090  10.338  44.592   7.356
 3931POPC   NC352091  28.703  42.555   5.204
 3931POPC   PO452092  28.096  42.235   5.378
 3931POPC   GL152093  28.379  42.125   5.673
 3931POPC   GL252094  28.467  42.473   5.696
 3931POPC   C1A52095  28.339  42.048   6.118
 3931POPC   D2A52096  28.205  42.285   6.504
 3931POPC   C3A52097  28.258  42.134   6.918
 3931POPC   C4A52098  28.551  42.301   7.247
 3931POPC   C1B52099  28.358  42.578   6.101
 3931POPC   C2B52100  28.466  42.736   6.500
 3931POPC   C3B52101  28.405  42.671   6.924
 3931POPC   C4B52102  28.559  42.823   7.308
 3932POPC   NC352103  21.763  28.877   5.241
 3932POPC   PO452104  22.397  29.245   5.223
 3932POPC   GL152105  22.178  29.276   5.632
 3932POPC   GL252106  22.164  28.919   5.762
 3932POPC   C1A52107  22.135  29.386   6.076
 3932POPC   D2A52108  22.266  29.531   6.477
 3932POPC   C3A52109  22.139  29.349   6.883
 3932POPC   C4A52110  22.370  29.390   7.281
 3932POPC   C1B52111  22.028  28.837   6.203
 3932POPC   C2B52112  21.916  28.836   6.662
 3932POPC   C3B52113  22.046  28.794   7.093
 3932POPC   C4B52114  21.882  28.535   7.420
 3933POPC   NC352115  25.065   3.144   5.548
 3933POPC   PO452116  25.489   2.710   5.384
 3933POPC   GL152117  25.496   2.828   5.839
 3933POPC   GL252118  25.155   2.886   5.991
 3933POPC   C1A52119  25.589   2.645   6.270
 3933POPC   D2A52120  25.623   2.423   6.697
 3933POPC   C3A52121  25.455   2.596   7.100
 3933POPC   C4A52122  25.317   2.945   7.400
 3933POPC   C1B52123  25.075   2.598   6.333
 3933POPC   C2B52124  25.081   2.482   6.754
 3933POPC   C3B52125  24.949   2.725   7.149
 3933POPC   C4B52126  24.975   2.553   7.586
 3934POPC   NC352127   9.096  20.337   4.883
 3934POPC   PO452128   9.078  20.660   5.446
 3934POPC   GL152129   9.209  20.775   5.837
 3934POPC   GL252130   9.142  20.441   5.914
 3934POPC   C1A52131   9.045  20.867   6.250
 3934POPC   D2A52132   9.053  20.708   6.668
 3934POPC   C3A52133   8.853  20.809   7.038
 3934POPC   C4A52134   8.903  21.048   7.404
 3934POPC   C1B52135   9.164  20.326   6.329
 3934POPC   C2B52136   9.134  19.992   6.607
 3934POPC   C3B52137   9.347  20.104   6.982
 3934POPC   C4B52138   9.226  20.432   7.271
 3935POPC   NC352139  38.244  21.122   5.309
 3935POPC   PO452140  38.443  20.440   5.411
 3935POPC   GL152141  38.447  20.329   5.864
 3935POPC   GL252142  38.806  20.376   5.773
 3935POPC   C1A52143  38.418  20.448   6.358
 3935POPC   D2A52144  38.286  20.778   6.677
 3935POPC   C3A52145  38.305  20.713   7.158
 3935POPC   C4A52146  38.140  20.744   7.644
 3935POPC   C1B52147  38.762  20.700   6.077
 3935POPC   C2B52148  38.916  20.579   6.477
 3935POPC   C3B52149  38.739  20.572   6.870
 3935POPC   C4B52150  38.804  20.791   7.253
 3936POPC   NC352151   8.551  44.293   5.536
 3936POPC   PO452152   8.498  44.970   5.384
 3936POPC   GL152153   8.796  44.768   5.734
 3936POPC   GL252154   9.178  44.688   5.793
 3936POPC   C1A52155   8.853  44.708   6.197
 3936POPC   D2A52156   8.814  44.944   6.601
 3936POPC   C3A52157   8.703  44.730   6.989
 3936POPC   C4A52158   8.891  44.760   7.433
 3936POPC   C1B52159   9.330  44.501   6.193
 3936POPC   C2B52160   9.101  44.493   6.597
 3936POPC   C3B52161   9.167  44.547   7.025
 3936POPC   C4B52162   9.511  44.369   7.189
 3937POPC   NC352163  25.583   9.296   5.429
 3937POPC   PO452164  24.955   9.030   5.259
 3937POPC   GL152165  25.170   9.018   5.703
 3937POPC   GL252166  25.522   8.930   5.785
 3937POPC   C1A52167  25.261   9.116   6.157
 3937POPC   D2A52168  25.238   9.181   6.590
 3937POPC   C3A52169  25.204   8.940   6.940
 3937POPC   C4A52170  25.167   9.119   7.327
 3937POPC   C1B52171  25.734   8.808   6.188
 3937POPC   C2B52172  25.670   8.849   6.646
 3937POPC   C3B52173  25.678   8.827   7.080
 3937POPC   C4B52174  25.527   8.804   7.483
 3938POPC   NC352175  22.731  22.493   5.387
 3938POPC   PO452176  23.207  22.958   5.382
 3938POPC   GL152177  22.918  22.933   5.759
 3938POPC   GL252178  22.732  22.671   5.902
 3938POPC   C1A52179  22.753  23.126   6.140
 3938POPC   D2A52180  22.695  22.993   6.580
 3938POPC   C3A52181  22.720  23.292   6.910
 3938POPC   C4A52182  22.918  23.189   7.243
 3938POPC   C1B52183  23.020  22.700   6.293
 3938POPC   C2B52184  22.952  22.571   6.768
 3938POPC   C3B52185  22.899  22.670   7.249
 3938POPC   C4B52186  22.939  22.463   7.700
 3939POPC   NC352187  34.877  30.114   5.457
 3939POPC   PO452188  34.471  30.728   5.514
 3939POPC   GL152189  34.671  30.724   5.872
 3939POPC   GL252190  34.905  30.530   5.767
 3939POPC   C1A52191  34.776  30.819   6.296
 3939POPC   D2A52192  34.594  31.090   6.605
 3939POPC   C3A52193  34.448  30.811   6.917
 3939POPC   C4A52194  34.527  30.789   7.350
 3939POPC   C1B52195  34.731  30.318   6.154
 3939POPC   C2B52196  34.723  30.256   6.607
 3939POPC   C3B52197  34.745  30.409   7.031
 3939POPC   C4B52198  34.969  30.548   7.406
 3940POPC   NC352199  23.523  42.696   5.241
 3940POPC   PO452200  23.600  43.378   5.283
 3940POPC   GL152201  23.683  43.136   5.619
 3940POPC   GL252202  23.984  43.215   5.782
 3940POPC   C1A52203  23.578  43.086   6.076
 3940POPC   D2A52204  23.724  43.070   6.502
 3940POPC   C3A52205  23.468  42.995   6.866
 3940POPC   C4A52206  23.620  43.085   7.266
 3940POPC   C1B52207  23.930  43.457   6.188
 3940POPC   C2B52208  23.873  43.560   6.622
 3940POPC   C3B52209  24.015  43.342   7.001
 3940POPC   C4B52210  23.929  43.516   7.412
 3941POPC   NC352211  41.094  21.780   5.501
 3941POPC   PO452212  41.125  22.312   5.064
 3941POPC   GL152213  40.977  22.278   5.584
 3941POPC   GL252214  41.032  22.510   5.866
 3941POPC   C1A52215  40.849  22.056   6.044
 3941POPC   D2A52216  40.677  21.839   6.454
 3941POPC   C3A52217  40.752  21.924   6.925
 3941POPC   C4A52218  40.647  22.113   7.316
 3941POPC   C1B52219  40.919  22.487   6.301
 3941POPC   C2B52220  40.951  22.307   6.660
 3941POPC   C3B52221  41.001  22.419   7.063
 3941POPC   C4B52222  41.386  22.504   7.271
 3942POPC   NC352223  29.044   0.655   5.437
 3942POPC   PO452224  29.344   0.107   5.270
 3942POPC   GL152225  29.395   0.267   5.717
 3942POPC   GL252226  29.061   0.317   5.818
 3942POPC   C1A52227  29.450   0.472   6.162
 3942POPC   D2A52228  29.244   0.683   6.495
 3942POPC   C3A52229  29.382   0.695   6.915
 3942POPC   C4A52230  29.377   0.556   7.361
 3942POPC   C1B52231  29.179   0.043   6.147
 3942POPC   C2B52232  29.257   0.157   6.567
 3942POPC   C3B52233  29.129   0.265   6.985
 3942POPC   C4B52234  29.332   0.046   7.311
 3943POPC   NC352235   0.396  25.892   5.194
 3943POPC   PO452236   0.483  26.482   5.423
 3943POPC   GL152237   0.242  26.136   5.675
 3943POPC   GL252238   0.260  25.720   5.647
 3943POPC   C1A52239   0.187  26.188   6.130
 3943POPC   D2A52240   0.464  26.299   6.499
 3943POPC   C3A52241   0.495  26.079   6.884
 3943POPC   C4A52242   0.161  25.999   7.160
 3943POPC   C1B52243   0.490  25.797   6.013
 3943POPC   C2B52244   0.423  25.755   6.464
 3943POPC   C3B52245   0.433  25.574   6.904
 3943POPC   C4B52246   0.503  25.682   7.364
 3944POPC   NC352247  19.188  10.815   5.006
 3944POPC   PO452248  19.331  10.791   5.644
 3944POPC   GL152249  19.096  11.111   5.934
 3944POPC   GL252250  18.732  11.200   5.894
 3944POPC   C1A52251  19.061  11.246   6.379
 3944POPC   D2A52252  19.242  11.043   6.754
 3944POPC   C3A52253  19.338  11.252   7.154
 3944POPC   C4A52254  19.405  11.066   7.572
 3944POPC   C1B52255  18.694  10.887   6.248
 3944POPC   C2B52256  18.738  10.828   6.707
 3944POPC   C3B52257  18.881  10.958   7.128
 3944POPC   C4B52258  18.599  11.048   7.484
 3945POPC   NC352259  32.722  27.342   5.429
 3945POPC   PO452260  32.043  27.370   5.297
 3945POPC   GL152261  32.252  27.362   5.732
 3945POPC   GL252262  32.541  27.580   5.873
 3945POPC   C1A52263  32.144  27.488   6.178
 3945POPC   D2A52264  32.051  27.627   6.565
 3945POPC   C3A52265  32.056  27.442   6.931
 3945POPC   C4A52266  32.257  27.560   7.250
 3945POPC   C1B52267  32.618  27.395   6.320
 3945POPC   C2B52268  32.552  27.420   6.784
 3945POPC   C3B52269  32.741  27.657   7.134
 3945POPC   C4B52270  32.583  27.852   7.520
 3946POPC   NC352271   2.255  21.966   5.369
 3946POPC   PO452272   1.610  22.119   5.516
 3946POPC   GL152273   1.897  22.057   5.860
 3946POPC   GL252274   2.271  22.047   5.876
 3946POPC   C1A52275   1.930  22.102   6.304
 3946POPC   D2A52276   1.679  21.823   6.554
 3946POPC   C3A52277   1.736  21.927   6.952
 3946POPC   C4A52278   1.577  21.900   7.340
 3946POPC   C1B52279   2.388  21.834   6.259
 3946POPC   C2B52280   2.178  21.818   6.672
 3946POPC   C3B52281   2.242  22.086   7.059
 3946POPC   C4B52282   2.307  22.415   7.389
 3947POPC   NC352283  35.759  23.058   5.442
 3947POPC   PO452284  35.111  23.354   5.442
 3947POPC   GL152285  35.268  23.086   5.787
 3947POPC   GL252286  35.335  22.744   5.651
 3947POPC   C1A52287  35.235  22.991   6.254
 3947POPC   D2A52288  35.200  23.080   6.725
 3947POPC   C3A52289  35.177  22.706   6.994
 3947POPC   C4A52290  35.196  22.650   7.445
 3947POPC   C1B52291  35.583  22.644   6.038
 3947POPC   C2B52292  35.587  22.694   6.490
 3947POPC   C3B52293  35.640  22.867   6.880
 3947POPC   C4B52294  35.647  22.640   7.223
 3948POPC   NC352295  20.014   2.358   5.358
 3948POPC   PO452296  19.422   2.405   5.377
 3948POPC   GL152297  19.689   2.535   5.728
 3948POPC   GL252298  19.730   2.915   5.743
 3948POPC   C1A52299  19.765   2.574   6.163
 3948POPC   D2A52300  19.666   2.867   6.492
 3948POPC   C3A52301  19.675   2.661   6.895
 3948POPC   C4A52302  19.488   2.765   7.303
 3948POPC   C1B52303  20.124   2.891   5.989
 3948POPC   C2B52304  20.150   3.049   6.416
 3948POPC   C3B52305  20.027   3.025   6.838
 3948POPC   C4B52306  20.012   2.850   7.242
 3949POPC   NC352307  11.102  15.214   5.276
 3949POPC   PO452308  11.015  14.561   5.213
 3949POPC   GL152309  11.216  14.767   5.591
 3949POPC   GL252310  10.971  14.881   5.824
 3949POPC   C1A52311  11.437  15.020   5.958
 3949POPC   D2A52312  11.562  15.236   6.375
 3949POPC   C3A52313  11.450  15.070   6.794
 3949POPC   C4A52314  11.618  15.055   7.214
 3949POPC   C1B52315  10.865  15.090   6.233
 3949POPC   C2B52316  10.783  15.497   6.504
 3949POPC   C3B52317  10.939  15.583   6.930
 3949POPC   C4B52318  11.145  15.262   7.195
 3950POPC   NC352319   6.110  19.571   5.445
 3950POPC   PO452320   5.935  20.219   5.455
 3950POPC   GL152321   5.853  19.920   5.778
 3950POPC   GL252322   5.654  19.613   5.725
 3950POPC   C1A52323   5.973  19.707   6.169
 3950POPC   D2A52324   6.135  19.558   6.578
 3950POPC   C3A52325   5.991  19.745   6.956
 3950POPC   C4A52326   5.934  19.591   7.369
 3950POPC   C1B52327   5.471  19.598   6.133
 3950POPC   C2B52328   5.625  19.642   6.550
 3950POPC   C3B52329   5.481  19.578   6.957
 3950POPC   C4B52330   5.500  19.820   7.305
 3951POPC   NC352331  16.490  15.108   4.902
 3951POPC   PO452332  15.925  15.091   5.199
 3951POPC   GL152333  15.919  15.069   5.691
 3951POPC   GL252334  15.586  15.056   5.845
 3951POPC   C1A52335  15.955  15.286   6.135
 3951POPC   D2A52336  15.732  15.430   6.539
 3951POPC   C3A52337  15.865  15.377   6.985
 3951POPC   C4A52338  16.010  15.655   7.363
 3951POPC   C1B52339  15.692  14.872   6.271
 3951POPC   C2B52340  15.669  14.948   6.727
 3951POPC   C3B52341  15.584  14.985   7.169
 3951POPC   C4B52342  15.571  15.367   7.395
 3952POPC   NC352343   7.206   4.907   5.439
 3952POPC   PO452344   7.322   5.501   5.293
 3952POPC   GL152345   7.301   5.373   5.769
 3952POPC   GL252346   7.490   5.113   5.884
 3952POPC   C1A52347   7.178   5.281   6.234
 3952POPC   D2A52348   7.252   5.023   6.613
 3952POPC   C3A52349   7.180   5.185   7.002
 3952POPC   C4A52350   7.518   5.293   7.233
 3952POPC   C1B52351   7.682   4.938   6.261
 3952POPC   C2B52352   7.764   5.035   6.711
 3952POPC   C3B52353   7.601   4.826   7.089
 3952POPC   C4B52354   7.666   4.866   7.539
 3953POPC   NC352355  36.219  34.904   5.275
 3953POPC   PO452356  35.730  34.589   5.689
 3953POPC   GL152357  36.156  34.671   5.788
 3953POPC   GL252358  36.262  34.319   5.739
 3953POPC   C1A52359  36.159  34.875   6.212
 3953POPC   D2A52360  36.077  34.564   6.561
 3953POPC   C3A52361  35.794  34.624   6.918
 3953POPC   C4A52362  35.773  34.486   7.374
 3953POPC   C1B52363  36.427  34.427   6.178
 3953POPC   C2B52364  36.571  34.772   6.500
 3953POPC   C3B52365  36.357  34.860   6.903
 3953POPC   C4B52366  36.231  34.531   7.179
 3954POPC   NC352367  42.695  16.975   5.370
 3954POPC   PO452368  43.384  16.843   5.175
 3954POPC   GL152369  43.442  16.691   5.607
 3954POPC   GL252370  43.100  16.713   5.645
 3954POPC   C1A52371  43.427  16.834   6.057
 3954POPC   D2A52372  43.295  17.163   6.371
 3954POPC   C3A52373  43.184  17.027   6.806
 3954POPC   C4A52374  43.250  16.914   7.233
 3954POPC   C1B52375  43.006  16.564   6.072
 3954POPC   C2B52376  43.208  16.602   6.482
 3954POPC   C3B52377  43.322  16.525   6.912
 3954POPC   C4B52378  43.120  16.407   7.295
 3955POPC   NC352379  29.577   8.462   5.346
 3955POPC   PO452380  30.034   8.068   5.488
 3955POPC   GL152381  29.774   8.070   5.845
 3955POPC   GL252382  29.569   8.370   5.876
 3955POPC   C1A52383  29.840   8.034   6.314
 3955POPC   D2A52384  29.615   8.084   6.736
 3955POPC   C3A52385  29.854   8.044   7.135
 3955POPC   C4A52386  29.704   7.834   7.528
 3955POPC   C1B52387  29.495   8.399   6.343
 3955POPC   C2B52388  29.367   8.522   6.755
 3955POPC   C3B52389  29.591   8.488   7.118
 3955POPC   C4B52390  30.019   8.560   7.147
 3956POPC   NC352391  11.752  21.828   5.392
 3956POPC   PO452392  11.326  21.294   5.251
 3956POPC   GL152393  11.288  21.537   5.710
 3956POPC   GL252394  11.579  21.632   5.966
 3956POPC   C1A52395  11.133  21.447   6.138
 3956POPC   D2A52396  11.314  21.576   6.527
 3956POPC   C3A52397  11.222  21.346   6.907
 3956POPC   C4A52398  11.248  21.183   7.328
 3956POPC   C1B52399  11.605  21.215   6.184
 3956POPC   C2B52400  11.533  21.062   6.596
 3956POPC   C3B52401  11.618  20.998   7.017
 3956POPC   C4B52402  11.690  20.946   7.445
 3957POPC   NC352403  30.201   6.303   5.602
 3957POPC   PO452404  30.679   6.733   5.398
 3957POPC   GL152405  30.832   6.698   5.807
 3957POPC   GL252406  30.591   6.469   5.865
 3957POPC   C1A52407  30.768   6.725   6.251
 3957POPC   D2A52408  30.654   6.484   6.600
 3957POPC   C3A52409  30.708   6.711   6.989
 3957POPC   C4A52410  30.782   6.980   7.326
 3957POPC   C1B52411  30.440   6.219   6.213
 3957POPC   C2B52412  30.179   6.282   6.569
 3957POPC   C3B52413  30.285   6.346   7.012
 3957POPC   C4B52414  30.255   6.262   7.512
 3958POPC   NC352415  39.952   0.292   5.505
 3958POPC   PO452416  39.756   0.968   5.464
 3958POPC   GL152417  39.786   0.678   5.834
 3958POPC   GL252418  40.134   0.590   5.881
 3958POPC   C1A52419  39.917   0.709   6.311
 3958POPC   D2A52420  40.239   0.663   6.616
 3958POPC   C3A52421  40.041   0.470   6.980
 3958POPC   C4A52422  40.204   0.161   7.283
 3958POPC   C1B52423  40.054   0.208   6.164
 3958POPC   C2B52424  39.775  44.973   6.470
 3958POPC   C3B52425  39.829   0.014   6.919
 3958POPC   C4B52426  39.690   0.057   7.329
 3959POPC   NC352427   1.299  43.471   5.294
 3959POPC   PO452428   1.088  42.885   5.490
 3959POPC   GL152429   1.068  43.256   5.738
 3959POPC   GL252430   1.427  43.343   5.789
 3959POPC   C1A52431   1.011  43.208   6.163
 3959POPC   D2A52432   1.086  43.367   6.594
 3959POPC   C3A52433   0.866  43.137   6.902
 3959POPC   C4A52434   0.965  42.962   7.300
 3959POPC   C1B52435   1.528  43.223   6.228
 3959POPC   C2B52436   1.590  43.141   6.660
 3959POPC   C3B52437   1.395  43.134   7.056
 3959POPC   C4B52438   1.409  43.478   7.358
 3960POPC   NC352439  18.028  34.268   5.210
 3960POPC   PO452440  18.545  34.676   5.382
 3960POPC   GL152441  18.386  34.721   5.806
 3960POPC   GL252442  18.042  34.767   5.818
 3960POPC   C1A52443  18.478  34.612   6.251
 3960POPC   D2A52444  18.468  34.816   6.662
 3960POPC   C3A52445  18.431  34.684   7.098
 3960POPC   C4A52446  18.442  34.684   7.590
 3960POPC   C1B52447  17.971  34.493   6.169
 3960POPC   C2B52448  18.138  34.393   6.584
 3960POPC   C3B52449  17.990  34.440   7.004
 3960POPC   C4B52450  17.983  34.703   7.361
 3961POPC   NC352451  40.227  38.585   5.378
 3961POPC   PO452452  39.556  38.576   5.659
 3961POPC   GL152453  39.909  38.435   5.912
 3961POPC   GL252454  40.281  38.401   5.851
 3961POPC   C1A52455  39.956  38.657   6.303
 3961POPC   D2A52456  39.889  38.953   6.671
 3961POPC   C3A52457  39.780  38.735   7.066
 3961POPC   C4A52458  40.133  38.506   7.179
 3961POPC   C1B52459  40.391  38.387   6.269
 3961POPC   C2B52460  40.111  38.275   6.630
 3961POPC   C3B52461  40.225  38.066   6.980
 3961POPC   C4B52462  40.556  38.190   7.181
 3962POPC   NC352463  12.992  36.705   5.528
 3962POPC   PO452464  13.036  35.997   5.497
 3962POPC   GL152465  12.909  36.281   5.810
 3962POPC   GL252466  12.562  36.258   5.937
 3962POPC   C1A52467  13.092  36.359   6.220
 3962POPC   D2A52468  12.922  36.224   6.589
 3962POPC   C3A52469  13.071  36.079   6.956
 3962POPC   C4A52470  13.060  36.232   7.367
 3962POPC   C1B52471  12.605  36.525   6.278
 3962POPC   C2B52472  12.607  36.584   6.716
 3962POPC   C3B52473  12.596  36.280   7.080
 3962POPC   C4B52474  12.619  36.349   7.589
 3963POPC   NC352475  10.100  18.680   5.118
 3963POPC   PO452476   9.517  18.472   5.489
 3963POPC   GL152477   9.676  18.143   5.736
 3963POPC   GL252478   9.872  17.893   5.605
 3963POPC   C1A52479   9.803  18.139   6.163
 3963POPC   D2A52480   9.755  18.431   6.504
 3963POPC   C3A52481   9.631  18.300   6.925
 3963POPC   C4A52482   9.885  18.496   7.216
 3963POPC   C1B52483  10.165  17.830   5.936
 3963POPC   C2B52484  10.162  17.815   6.396
 3963POPC   C3B52485  10.077  18.072   6.757
 3963POPC   C4B52486  10.183  18.082   7.192
 3964POPC   NC352487   0.884  10.769   5.404
 3964POPC   PO452488   0.306  10.534   5.449
 3964POPC   GL152489   0.363  10.648   5.863
 3964POPC   GL252490   0.669  10.555   5.949
 3964POPC   C1A52491   0.390  10.896   6.248
 3964POPC   D2A52492   0.366  11.010   6.694
 3964POPC   C3A52493   0.430  10.633   6.944
 3964POPC   C4A52494   0.228  10.445   7.283
 3964POPC   C1B52495   0.772  10.248   6.283
 3964POPC   C2B52496   0.734  10.280   6.745
 3964POPC   C3B52497   0.709  10.240   7.207
 3964POPC   C4B52498   0.752  10.614   7.477
 3965POPC   NC352499  43.570  14.253   5.447
 3965POPC   PO452500  44.061  14.617   5.397
 3965POPC   GL152501  44.139  14.448   5.831
 3965POPC   GL252502  43.799  14.291   5.960
 3965POPC   C1A52503  44.223  14.313   6.278
 3965POPC   D2A52504  43.953  14.376   6.644
 3965POPC   C3A52505  44.008  14.266   7.076
 3965POPC   C4A52506  44.065  14.605   7.386
 3965POPC   C1B52507  43.520  14.293   6.365
 3965POPC   C2B52508  43.479  14.236   6.838
 3965POPC   C3B52509  43.540  14.181   7.295
 3965POPC   C4B52510  43.499  14.488   7.611
 3966POPC   NC352511  30.284  40.621   5.278
 3966POPC   PO452512  29.785  41.059   5.391
 3966POPC   GL152513  30.002  40.858   5.688
 3966POPC   GL252514  29.961  40.508   5.656
 3966POPC   C1A52515  29.926  40.875   6.111
 3966POPC   D2A52516  29.734  40.758   6.500
 3966POPC   C3A52517  29.860  40.888   6.915
 3966POPC   C4A52518  29.651  40.577   7.199
 3966POPC   C1B52519  30.258  40.490   5.991
 3966POPC   C2B52520  30.216  40.606   6.428
 3966POPC   C3B52521  30.071  40.438   6.830
 3966POPC   C4B52522  30.164  40.563   7.242
 3967POPC   NC352523  23.513  14.279   5.211
 3967POPC   PO452524  24.114  14.458   5.335
 3967POPC   GL152525  23.782  14.455   5.673
 3967POPC   GL252526  23.511  14.187   5.717
 3967POPC   C1A52527  23.761  14.739   6.053
 3967POPC   D2A52528  24.041  14.738   6.416
 3967POPC   C3A52529  23.879  14.756   6.849
 3967POPC   C4A52530  23.939  14.476   7.199
 3967POPC   C1B52531  23.594  14.265   6.142
 3967POPC   C2B52532  23.541  14.541   6.497
 3967POPC   C3B52533  23.465  14.434   6.931
 3967POPC   C4B52534  23.569  14.119   7.255
 3968POPC   NC352535  41.392  31.042   5.422
 3968POPC   PO452536  40.867  30.713   5.155
 3968POPC   GL152537  40.850  30.773   5.609
 3968POPC   GL252538  41.130  30.595   5.772
 3968POPC   C1A52539  40.744  30.853   6.071
 3968POPC   D2A52540  40.890  30.750   6.495
 3968POPC   C3A52541  40.772  30.770   6.936
 3968POPC   C4A52542  40.965  30.582   7.314
 3968POPC   C1B52543  40.726  30.366   5.925
 3968POPC   C2B52544  40.516  30.236   6.313
 3968POPC   C3B52545  40.515  30.407   6.697
 3968POPC   C4B52546  40.503  30.391   7.142
 3969POPC   NC352547  18.668  34.299   5.600
 3969POPC   PO452548  19.298  34.224   5.349
 3969POPC   GL152549  19.221  34.565   5.698
 3969POPC   GL252550  18.909  34.698   5.794
 3969POPC   C1A52551  19.321  34.754   6.116
 3969POPC   D2A52552  19.155  34.975   6.495
 3969POPC   C3A52553  19.216  34.840   6.924
 3969POPC   C4A52554  18.897  34.893   7.217
 3969POPC   C1B52555  18.957  34.417   6.171
 3969POPC   C2B52556  18.907  34.526   6.587
 3969POPC   C3B52557  18.971  34.390   6.974
 3969POPC   C4B52558  18.785  34.418   7.341
 3970POPC   NC352559  23.989  36.513   5.400
 3970POPC   PO452560  23.554  35.987   5.192
 3970POPC   GL152561  23.591  35.979   5.666
 3970POPC   GL252562  23.917  36.153   5.843
 3970POPC   C1A52563  23.544  35.909   6.119
 3970POPC   D2A52564  23.848  36.035   6.461
 3970POPC   C3A52565  23.708  36.055   6.892
 3970POPC   C4A52566  23.518  35.726   7.118
 3970POPC   C1B52567  24.140  36.403   6.202
 3970POPC   C2B52568  24.040  36.482   6.647
 3970POPC   C3B52569  24.063  36.381   7.091
 3970POPC   C4B52570  24.029  36.446   7.569
 3971POPC   NC352571  21.987  22.679   5.466
 3971POPC   PO452572  22.190  22.031   5.355
 3971POPC   GL152573  22.185  22.236   5.762
 3971POPC   GL252574  22.277  21.910   5.890
 3971POPC   C1A52575  22.098  22.479   6.172
 3971POPC   D2A52576  22.112  22.635   6.637
 3971POPC   C3A52577  22.034  22.294   6.951
 3971POPC   C4A52578  22.161  22.230   7.374
 3971POPC   C1B52579  22.307  21.768   6.303
 3971POPC   C2B52580  22.328  21.692   6.719
 3971POPC   C3B52581  22.389  21.859   7.098
 3971POPC   C4B52582  22.355  21.765   7.531
 3972POPC   NC352583  26.810  29.778   5.524
 3972POPC   PO452584  26.662  30.381   5.423
 3972POPC   GL152585  26.626  30.149   5.815
 3972POPC   GL252586  26.314  30.295   5.870
 3972POPC   C1A52587  26.870  30.048   6.205
 3972POPC   D2A52588  27.065  29.745   6.466
 3972POPC   C3A52589  27.009  29.906   6.867
 3972POPC   C4A52590  26.868  29.864   7.268
 3972POPC   C1B52591  26.348  30.010   6.229
 3972POPC   C2B52592  26.553  29.898   6.609
 3972POPC   C3B52593  26.419  29.916   7.012
 3972POPC   C4B52594  26.424  30.083   7.444
 3973POPC   NC352595   6.678  18.055   5.283
 3973POPC   PO452596   6.619  18.652   5.246
 3973POPC   GL152597   6.465  18.408   5.655
 3973POPC   GL252598   6.448  18.030   5.781
 3973POPC   C1A52599   6.621  18.481   6.081
 3973POPC   D2A52600   6.901  18.378   6.473
 3973POPC   C3A52601   6.791  18.420   6.942
 3973POPC   C4A52602   6.577  18.735   7.242
 3973POPC   C1B52603   6.622  17.989   6.206
 3973POPC   C2B52604   6.579  18.024   6.657
 3973POPC   C3B52605   6.715  17.872   7.051
 3973POPC   C4B52606   6.389  17.710   7.282
 3974POPC   NC352607  43.290   0.477   5.372
 3974POPC   PO452608  42.687   0.594   5.691
 3974POPC   GL152609  43.141   0.523   5.875
 3974POPC   GL252610  43.505   0.708   5.779
 3974POPC   C1A52611  43.183   0.239   6.254
 3974POPC   D2A52612  43.083   0.069   6.684
 3974POPC   C3A52613  42.890   0.168   7.091
 3974POPC   C4A52614  43.032   0.326   7.459
 3974POPC   C1B52615  43.495   0.648   6.255
 3974POPC   C2B52616  43.233   0.582   6.638
 3974POPC   C3B52617  43.275   0.558   7.093
 3974POPC   C4B52618  43.237   0.790   7.530
 3975POPC   NC352619   0.951  41.736   5.419
 3975POPC   PO452620   1.493  41.413   5.208
 3975POPC   GL152621   1.320  41.398   5.668
 3975POPC   GL252622   0.982  41.194   5.676
 3975POPC   C1A52623   1.485  41.537   6.127
 3975POPC   D2A52624   1.371  41.601   6.596
 3975POPC   C3A52625   1.485  41.784   7.025
 3975POPC   C4A52626   1.583  41.809   7.506
 3975POPC   C1B52627   1.037  41.293   6.132
 3975POPC   C2B52628   1.035  41.204   6.616
 3975POPC   C3B52629   0.978  41.254   7.096
 3975POPC   C4B52630   0.835  41.131   7.541
 3976POPC   NC352631  37.454  17.183   5.552
 3976POPC   PO452632  37.144  17.743   5.369
 3976POPC   GL152633  37.452  17.660   5.757
 3976POPC   GL252634  37.774  17.618   5.825
 3976POPC   C1A52635  37.485  17.432   6.181
 3976POPC   D2A52636  37.286  17.454   6.581
 3976POPC   C3A52637  37.506  17.470   6.942
 3976POPC   C4A52638  37.657  17.789   7.153
 3976POPC   C1B52639  37.960  17.540   6.293
 3976POPC   C2B52640  37.956  17.632   6.731
 3976POPC   C3B52641  37.986  17.372   7.099
 3976POPC   C4B52642  38.127  17.263   7.512
 3977POPC   NC352643  27.949  16.069   5.455
 3977POPC   PO452644  27.217  15.740   5.350
 3977POPC   GL152645  27.524  15.811   5.658
 3977POPC   GL252646  27.547  16.162   5.762
 3977POPC   C1A52647  27.599  15.772   6.096
 3977POPC   D2A52648  27.373  15.830   6.480
 3977POPC   C3A52649  27.481  15.766   6.909
 3977POPC   C4A52650  27.616  15.662   7.318
 3977POPC   C1B52651  27.472  16.251   6.214
 3977POPC   C2B52652  27.524  16.279   6.693
 3977POPC   C3B52653  27.572  16.198   7.159
 3977POPC   C4B52654  27.555  16.076   7.612
 3978POPC   NC352655   6.856  27.948   5.634
 3978POPC   PO452656   7.142  28.464   5.233
 3978POPC   GL152657   6.900  28.591   5.677
 3978POPC   GL252658   6.577  28.397   5.780
 3978POPC   C1A52659   6.829  28.747   6.105
 3978POPC   D2A52660   6.609  28.643   6.506
 3978POPC   C3A52661   6.829  28.734   6.908
 3978POPC   C4A52662   6.833  28.416   7.240
 3978POPC   C1B52663   6.331  28.298   6.194
 3978POPC   C2B52664   6.263  28.188   6.660
 3978POPC   C3B52665   6.353  28.268   7.117
 3978POPC   C4B52666   6.434  28.381   7.576
 3979POPC   NC352667   7.283  20.531   5.352
 3979POPC   PO452668   7.755  20.823   5.784
 3979POPC   GL152669   7.381  20.858   5.957
 3979POPC   GL252670   7.056  20.848   5.769
 3979POPC   C1A52671   7.450  20.814   6.380
 3979POPC   D2A52672   7.619  20.454   6.583
 3979POPC   C3A52673   7.823  20.553   6.931
 3979POPC   C4A52674   7.702  20.752   7.322
 3979POPC   C1B52675   6.928  20.875   6.243
 3979POPC   C2B52676   7.077  20.821   6.707
 3979POPC   C3B52677   7.288  20.517   6.991
 3979POPC   C4B52678   7.147  20.468   7.429
 3980POPC   NC352679  14.115  12.543   5.022
 3980POPC   PO452680  14.280  13.107   5.420
 3980POPC   GL152681  14.402  12.921   5.808
 3980POPC   GL252682  14.722  12.801   5.757
 3980POPC   C1A52683  14.299  12.701   6.174
 3980POPC   D2A52684  14.497  12.514   6.529
 3980POPC   C3A52685  14.498  12.750   6.860
 3980POPC   C4A52686  14.413  12.909   7.228
 3980POPC   C1B52687  14.788  12.795   6.207
 3980POPC   C2B52688  14.946  12.881   6.642
 3980POPC   C3B52689  14.870  13.083   7.059
 3980POPC   C4B52690  14.816  12.968   7.501
 3981POPC   NC352691  31.001  41.305   5.413
 3981POPC   PO452692  30.515  41.711   5.331
 3981POPC   GL152693  30.546  41.635   5.761
 3981POPC   GL252694  30.688  41.318   5.829
 3981POPC   C1A52695  30.556  41.707   6.194
 3981POPC   D2A52696  30.542  41.439   6.516
 3981POPC   C3A52697  30.584  41.642   6.878
 3981POPC   C4A52698  30.697  41.569   7.285
 3981POPC   C1B52699  31.014  41.521   6.092
 3981POPC   C2B52700  31.001  41.722   6.498
 3981POPC   C3B52701  31.083  41.638   6.923
 3981POPC   C4B52702  31.175  41.419   7.287
 3982POPC   NC352703  32.488  32.642   5.523
 3982POPC   PO452704  32.150  33.140   5.221
 3982POPC   GL152705  32.163  33.099   5.700
 3982POPC   GL252706  32.359  32.870   5.942
 3982POPC   C1A52707  32.044  33.197   6.158
 3982POPC   D2A52708  32.378  33.212   6.502
 3982POPC   C3A52709  32.335  33.121   6.964
 3982POPC   C4A52710  32.385  33.377   7.369
 3982POPC   C1B52711  32.069  32.703   6.253
 3982POPC   C2B52712  32.085  32.612   6.649
 3982POPC   C3B52713  32.296  32.600   6.977
 3982POPC   C4B52714  32.124  32.761   7.290
 3983POPC   NC352715  13.944  19.412   5.123
 3983POPC   PO452716  13.410  19.320   5.499
 3983POPC   GL152717  13.432  19.131   5.862
 3983POPC   GL252718  13.694  18.906   5.794
 3983POPC   C1A52719  13.313  19.000   6.271
 3983POPC   D2A52720  13.610  19.003   6.614
 3983POPC   C3A52721  13.473  19.079   7.003
 3983POPC   C4A52722  13.724  19.092   7.325
 3983POPC   C1B52723  13.896  19.052   6.194
 3983POPC   C2B52724  13.958  19.401   6.503
 3983POPC   C3B52725  13.821  19.482   6.923
 3983POPC   C4B52726  14.085  19.437   7.266
 3984POPC   NC352727  13.583   3.149   5.334
 3984POPC   PO452728  13.764   2.530   5.357
 3984POPC   GL152729  13.789   2.690   5.741
 3984POPC   GL252730  13.504   2.890   5.760
 3984POPC   C1A52731  13.888   2.877   6.129
 3984POPC   D2A52732  14.022   2.685   6.491
 3984POPC   C3A52733  13.870   2.843   6.861
 3984POPC   C4A52734  13.960   2.622   7.227
 3984POPC   C1B52735  13.409   2.661   6.121
 3984POPC   C2B52736  13.350   2.454   6.511
 3984POPC   C3B52737  13.485   2.473   6.924
 3984POPC   C4B52738  13.486   2.839   7.204
 3985POPC   NC352739   6.509  30.341   5.559
 3985POPC   PO452740   6.828  30.939   5.408
 3985POPC   GL152741   6.931  30.778   5.825
 3985POPC   GL252742   6.807  30.468   5.973
 3985POPC   C1A52743   6.727  30.902   6.218
 3985POPC   D2A52744   6.428  30.913   6.533
 3985POPC   C3A52745   6.658  30.918   6.877
 3985POPC   C4A52746   6.680  30.845   7.308
 3985POPC   C1B52747   6.381  30.480   6.215
 3985POPC   C2B52748   6.135  30.506   6.598
 3985POPC   C3B52749   6.259  30.622   7.052
 3985POPC   C4B52750   6.172  30.337   7.443
 3986POPC   NC352751  31.019  30.218   5.541
 3986POPC   PO452752  30.513  29.734   5.407
 3986POPC   GL152753  30.615  29.957   5.800
 3986POPC   GL252754  30.923  29.794   5.796
 3986POPC   C1A52755  30.641  30.049   6.269
 3986POPC   D2A52756  30.921  30.194   6.630
 3986POPC   C3A52757  30.719  30.116   7.030
 3986POPC   C4A52758  30.740  29.939   7.430
 3986POPC   C1B52759  31.079  29.795   6.202
 3986POPC   C2B52760  30.882  29.687   6.592
 3986POPC   C3B52761  30.893  29.629   7.024
 3986POPC   C4B52762  30.542  29.503   7.248
 3987POPC   NC352763   8.682  36.543   5.615
 3987POPC   PO452764   8.933  36.044   5.262
 3987POPC   GL152765   9.019  36.083   5.732
 3987POPC   GL252766   8.765  35.888   5.884
 3987POPC   C1A52767   9.163  36.036   6.202
 3987POPC   D2A52768   8.950  36.131   6.615
 3987POPC   C3A52769   9.105  36.144   7.026
 3987POPC   C4A52770   9.366  35.913   7.180
 3987POPC   C1B52771   8.630  36.178   6.219
 3987POPC   C2B52772   8.571  36.465   6.591
 3987POPC   C3B52773   8.637  36.344   7.017
 3987POPC   C4B52774   8.697  35.936   7.251
 3988POPC   NC352775  31.969  41.583   5.421
 3988POPC   PO452776  31.418  41.300   5.205
 3988POPC   GL152777  31.455  41.458   5.679
 3988POPC   GL252778  31.281  41.181   5.809
 3988POPC   C1A52779  31.503  41.721   6.120
 3988POPC   D2A52780  31.512  41.641   6.608
 3988POPC   C3A52781  31.483  41.917   7.032
 3988POPC   C4A52782  31.490  41.759   7.472
 3988POPC   C1B52783  31.443  41.218   6.191
 3988POPC   C2B52784  31.575  41.084   6.544
 3988POPC   C3B52785  31.437  41.172   6.936
 3988POPC   C4B52786  31.707  41.313   7.281
 3989POPC   NC352787   9.307  44.878   5.318
 3989POPC   PO452788   9.897  44.587   5.490
 3989POPC   GL152789   9.730  44.669   5.867
 3989POPC   GL252790   9.606  44.965   5.744
 3989POPC   C1A52791   9.795  44.725   6.307
 3989POPC   D2A52792   9.595  44.629   6.717
 3989POPC   C3A52793   9.910  44.649   7.050
 3989POPC   C4A52794   9.820  44.639   7.498
 3989POPC   C1B52795   9.404   0.018   6.109
 3989POPC   C2B52796   9.450   0.101   6.527
 3989POPC   C3B52797   9.673   0.092   6.908
 3989POPC   C4B52798   9.475  44.910   7.240
 3990POPC   NC352799  41.233  29.367   5.479
 3990POPC   PO452800  41.510  28.775   5.203
 3990POPC   GL152801  41.570  28.957   5.656
 3990POPC   GL252802  41.676  29.278   5.729
 3990POPC   C1A52803  41.584  28.933   6.139
 3990POPC   D2A52804  41.513  29.182   6.558
 3990POPC   C3A52805  41.580  28.904   6.919
 3990POPC   C4A52806  41.363  28.751   7.269
 3990POPC   C1B52807  41.416  29.418   6.101
 3990POPC   C2B52808  41.089  29.526   6.399
 3990POPC   C3B52809  41.156  29.566   6.834
 3990POPC   C4B52810  41.413  29.339   7.126
 3991POPC   NC352811  11.630  34.264   5.435
 3991POPC   PO452812  12.074  33.819   5.139
 3991POPC   GL152813  11.927  33.738   5.608
 3991POPC   GL252814  11.898  34.037   5.806
 3991POPC   C1A52815  11.964  33.614   6.103
 3991POPC   D2A52816  12.084  33.843   6.550
 3991POPC   C3A52817  12.024  33.706   7.027
 3991POPC   C4A52818  12.266  33.798   7.437
 3991POPC   C1B52819  11.598  33.959   6.167
 3991POPC   C2B52820  11.588  33.849   6.622
 3991POPC   C3B52821  11.683  34.101   6.993
 3991POPC   C4B52822  11.821  34.074   7.448
 3992POPC   NC352823  29.674   7.714   5.430
 3992POPC   PO452824  30.030   7.083   5.320
 3992POPC   GL152825  29.931   7.319   5.693
 3992POPC   GL252826  29.658   7.133   5.796
 3992POPC   C1A52827  29.735   7.560   6.070
 3992POPC   D2A52828  29.602   7.611   6.497
 3992POPC   C3A52829  29.985   7.738   6.742
 3992POPC   C4A52830  30.221   7.679   7.130
 3992POPC   C1B52831  29.934   7.082   6.158
 3992POPC   C2B52832  30.010   7.256   6.582
 3992POPC   C3B52833  29.852   7.331   7.027
 3992POPC   C4B52834  29.852   7.082   7.386
 3993POPC   NC352835  21.229  34.005   5.314
 3993POPC   PO452836  21.808  33.492   5.260
 3993POPC   GL152837  21.610  33.783   5.594
 3993POPC   GL252838  21.259  33.648   5.676
 3993POPC   C1A52839  21.464  34.058   5.976
 3993POPC   D2A52840  21.493  33.917   6.413
 3993POPC   C3A52841  21.369  34.075   6.814
 3993POPC   C4A52842  21.410  33.835   7.185
 3993POPC   C1B52843  21.206  33.403   6.056
 3993POPC   C2B52844  21.062  33.301   6.458
 3993POPC   C3B52845  21.136  33.533   6.830
 3993POPC   C4B52846  21.152  33.376   7.231
 3994POPC   NC352847   9.392  32.796   5.226
 3994POPC   PO452848   9.807  33.296   5.439
 3994POPC   GL152849   9.766  33.085   5.810
 3994POPC   GL252850   9.504  33.258   5.967
 3994POPC   C1A52851   9.893  32.835   6.157
 3994POPC   D2A52852   9.766  32.934   6.578
 3994POPC   C3A52853   9.741  32.647   6.915
 3994POPC   C4A52854   9.810  32.769   7.369
 3994POPC   C1B52855   9.412  33.268   6.397
 3994POPC   C2B52856   9.350  33.221   6.806
 3994POPC   C3B52857   9.639  33.135   7.063
 3994POPC   C4B52858   9.696  33.316   7.407
 3995POPC   NC352859  13.323  14.426   5.249
 3995POPC   PO452860  12.646  14.569   5.514
 3995POPC   GL152861  12.821  14.354   5.832
 3995POPC   GL252862  13.115  14.259   5.671
 3995POPC   C1A52863  12.856  14.366   6.291
 3995POPC   D2A52864  12.942  14.546   6.712
 3995POPC   C3A52865  12.636  14.571   7.076
 3995POPC   C4A52866  12.637  14.254   7.416
 3995POPC   C1B52867  13.206  14.074   6.073
 3995POPC   C2B52868  13.235  14.089   6.545
 3995POPC   C3B52869  13.006  14.062   6.976
 3995POPC   C4B52870  13.268  14.056   7.375
 3996POPC   NC352871  31.869  36.302   5.128
 3996POPC   PO452872  31.522  35.805   5.426
 3996POPC   GL152873  31.646  35.883   5.861
 3996POPC   GL252874  31.584  36.224   5.985
 3996POPC   C1A52875  31.751  35.905   6.329
 3996POPC   D2A52876  31.524  36.025   6.693
 3996POPC   C3A52877  31.720  36.070   7.048
 3996POPC   C4A52878  31.569  36.041   7.407
 3996POPC   C1B52879  31.246  36.116   6.272
 3996POPC   C2B52880  31.088  36.310   6.670
 3996POPC   C3B52881  31.202  36.316   7.119
 3996POPC   C4B52882  31.038  36.528   7.519
 3997POPC   NC352883   6.004  33.469   5.392
 3997POPC   PO452884   6.275  34.167   5.211
 3997POPC   GL152885   6.137  33.919   5.635
 3997POPC   GL252886   5.972  33.638   5.856
 3997POPC   C1A52887   6.058  34.029   6.115
 3997POPC   D2A52888   6.087  33.822   6.527
 3997POPC   C3A52889   6.150  34.075   6.885
 3997POPC   C4A52890   6.125  33.854   7.267
 3997POPC   C1B52891   5.704  33.666   6.230
 3997POPC   C2B52892   5.601  33.883   6.643
 3997POPC   C3B52893   5.636  33.842   7.095
 3997POPC   C4B52894   5.415  33.909   7.503
 3998POPC   NC352895  11.592  16.709   5.472
 3998POPC   PO452896  10.947  16.625   5.625
 3998POPC   GL152897  11.228  16.722   5.920
 3998POPC   GL252898  11.235  17.058   5.924
 3998POPC   C1A52899  11.090  16.780   6.351
 3998POPC   D2A52900  11.052  16.491   6.695
 3998POPC   C3A52901  11.289  16.541   7.060
 3998POPC   C4A52902  10.944  16.546   7.325
 3998POPC   C1B52903  11.574  16.941   6.262
 3998POPC   C2B52904  11.511  16.889   6.719
 3998POPC   C3B52905  11.492  17.094   7.139
 3998POPC   C4B52906  11.612  17.058   7.587
 3999POPC   NC352907  41.590  10.928   5.357
 3999POPC   PO452908  41.744  11.476   5.441
 3999POPC   GL152909  41.772  11.185   5.820
 3999POPC   GL252910  41.856  10.845   5.786
 3999POPC   C1A52911  41.866  11.032   6.266
 3999POPC   D2A52912  41.746  11.245   6.648
 3999POPC   C3A52913  41.747  11.065   7.069
 3999POPC   C4A52914  41.745  11.238   7.504
 3999POPC   C1B52915  41.477  10.778   6.046
 3999POPC   C2B52916  41.336  10.990   6.441
 3999POPC   C3B52917  41.265  10.910   6.891
 3999POPC   C4B52918  41.008  10.671   7.213
 4000POPC   NC352919  35.410  20.528   5.163
 4000POPC   PO452920  34.890  20.938   5.473
 4000POPC   GL152921  35.144  20.667   5.778
 4000POPC   GL252922  35.427  20.433   5.691
 4000POPC   C1A52923  35.330  20.694   6.194
 4000POPC   D2A52924  35.521  20.912   6.516
 4000POPC   C3A52925  35.398  20.775   6.906
 4000POPC   C4A52926  35.655  20.671   7.227
 4000POPC   C1B52927  35.577  20.270   6.090
 4000POPC   C2B52928  35.696  20.415   6.525
 4000POPC   C3B52929  35.568  20.275   6.938
 4000POPC   C4B52930  35.706  20.148   7.336
 4001POPC   NC352931  34.892  25.874   5.431
 4001POPC   PO452932  34.180  25.676   5.536
 4001POPC   GL152933  34.535  25.860   5.802
 4001POPC   GL252934  34.860  25.650   5.874
 4001POPC   C1A52935  34.714  26.043   6.178
 4001POPC   D2A52936  34.769  25.860   6.580
 4001POPC   C3A52937  34.644  26.089   6.963
 4001POPC   C4A52938  34.525  26.227   7.365
 4001POPC   C1B52939  34.958  25.369   6.197
 4001POPC   C2B52940  34.893  25.334   6.625
 4001POPC   C3B52941  34.826  25.592   7.007
 4001POPC   C4B52942  34.744  25.741   7.419
 4002POPC   NC352943   0.170   7.674   5.380
 4002POPC   PO452944  44.577   7.263   5.414
 4002POPC   GL152945  44.751   7.205   5.802
 4002POPC   GL252946  44.919   6.895   5.874
 4002POPC   C1A52947  44.792   7.417   6.215
 4002POPC   D2A52948   0.096   7.632   6.484
 4002POPC   C3A52949   0.051   7.484   6.919
 4002POPC   C4A52950  44.717   7.454   7.233
 4002POPC   C1B52951  44.595   6.933   6.191
 4002POPC   C2B52952  44.541   7.104   6.582
 4002POPC   C3B52953  44.732   7.025   6.961
 4002POPC   C4B52954   0.078   7.043   7.220
 4003POPC   NC352955   9.059  28.816   5.497
 4003POPC   PO452956   9.028  28.148   5.424
 4003POPC   GL152957   8.891  28.394   5.732
 4003POPC   GL252958   9.246  28.462   5.796
 4003POPC   C1A52959   8.909  28.418   6.160
 4003POPC   D2A52960   9.096  28.426   6.540
 4003POPC   C3A52961   8.853  28.276   6.835
 4003POPC   C4A52962   8.779  28.501   7.196
 4003POPC   C1B52963   9.337  28.732   6.144
 4003POPC   C2B52964   9.439  28.790   6.589
 4003POPC   C3B52965   9.225  28.671   6.982
 4003POPC   C4B52966   9.246  28.471   7.381
 4004POPC   NC352967  32.179   2.190   5.537
 4004POPC   PO452968  32.563   1.790   5.531
 4004POPC   GL152969  32.356   1.875   5.939
 4004POPC   GL252970  32.030   1.780   5.820
 4004POPC   C1A52971  32.329   2.057   6.400
 4004POPC   D2A52972  32.303   2.118   6.909
 4004POPC   C3A52973  32.611   1.886   7.191
 4004POPC   C4A52974  32.643   1.487   7.407
 4004POPC   C1B52975  31.901   1.795   6.251
 4004POPC   C2B52976  31.874   1.507   6.608
 4004POPC   C3B52977  31.806   1.513   7.047
 4004POPC   C4B52978  32.174   1.646   7.231
 4005POPC   NC352979  25.061  40.273   5.485
 4005POPC   PO452980  25.482  39.709   5.195
 4005POPC   GL152981  25.143  39.774   5.574
 4005POPC   GL252982  25.285  40.031   5.859
 4005POPC   C1A52983  25.021  39.629   6.021
 4005POPC   D2A52984  25.132  39.682   6.467
 4005POPC   C3A52985  25.113  40.048   6.751
 4005POPC   C4A52986  25.261  40.061   7.188
 4005POPC   C1B52987  25.313  40.269   6.268
 4005POPC   C2B52988  25.522  40.551   6.570
 4005POPC   C3B52989  25.585  40.444   6.999
 4005POPC   C4B52990  25.480  40.480   7.437
 4006POPC   NC352991  28.003   9.562   5.357
 4006POPC   PO452992  28.440  10.065   5.393
 4006POPC   GL152993  28.444   9.758   5.739
 4006POPC   GL252994  28.497   9.405   5.772
 4006POPC   C1A52995  28.313   9.767   6.180
 4006POPC   D2A52996  28.010   9.658   6.498
 4006POPC   C3A52997  28.151   9.638   6.917
 4006POPC   C4A52998  28.183  10.033   7.156
 4006POPC   C1B52999  28.601   9.336   6.217
 4006POPC   C2B53000  28.582   9.539   6.641
 4006POPC   C3B53001  28.630   9.794   7.047
 4006POPC   C4B53002  28.499   9.854   7.516
 4007POPC   NC353003  38.914   4.512   5.329
 4007POPC   PO453004  38.357   4.140   5.256
 4007POPC   GL153005  38.410   4.070   5.689
 4007POPC   GL253006  38.688   4.291   5.767
 4007POPC   C1A53007  38.415   3.926   6.118
 4007POPC   D2A53008  38.612   4.161   6.454
 4007POPC   C3A53009  38.608   4.052   6.866
 4007POPC   C4A53010  38.612   4.068   7.279
 4007POPC   C1B53011  38.387   4.465   6.083
 4007POPC   C2B53012  38.324   4.620   6.530
 4007POPC   C3B53013  38.423   4.507   6.957
 4007POPC   C4B53014  38.232   4.652   7.302
 4008POPC   NC353015  26.449   7.412   5.451
 4008POPC   PO453016  25.851   7.122   5.512
 4008POPC   GL153017  26.086   7.487   5.833
 4008POPC   GL253018  26.449   7.588   5.928
 4008POPC   C1A53019  26.115   7.593   6.322
 4008POPC   D2A53020  26.114   7.273   6.700
 4008POPC   C3A53021  25.867   7.316   7.118
 4008POPC   C4A53022  25.905   7.256   7.595
 4008POPC   C1B53023  26.620   7.481   6.337
 4008POPC   C2B53024  26.472   7.633   6.724
 4008POPC   C3B53025  26.344   7.481   7.104
 4008POPC   C4B53026  26.276   7.057   7.300
 4009POPC   NC353027   9.141  12.265   5.414
 4009POPC   PO453028   8.503  11.954   5.357
 4009POPC   GL153029   8.675  12.225   5.691
 4009POPC   GL253030   8.896  11.993   5.797
 4009POPC   C1A53031   8.861  12.363   6.129
 4009POPC   D2A53032   9.001  12.147   6.531
 4009POPC   C3A53033   8.843  12.174   6.945
 4009POPC   C4A53034   9.129  12.281   7.253
 4009POPC   C1B53035   8.829  11.820   6.198
 4009POPC   C2B53036   8.847  11.649   6.632
 4009POPC   C3B53037   9.073  11.674   7.045
 4009POPC   C4B53038   9.245  11.766   7.447
 4010POPC   NC353039  15.533  13.494   5.356
 4010POPC   PO453040  14.936  13.749   5.512
 4010POPC   GL153041  14.936  13.959   5.911
 4010POPC   GL253042  15.254  14.109   5.910
 4010POPC   C1A53043  14.809  13.733   6.301
 4010POPC   D2A53044  14.883  13.431   6.653
 4010POPC   C3A53045  14.890  13.620   7.068
 4010POPC   C4A53046  14.732  13.937   7.366
 4010POPC   C1B53047  15.291  13.915   6.339
 4010POPC   C2B53048  15.305  13.745   6.771
 4010POPC   C3B53049  15.439  13.537   7.148
 4010POPC   C4B53050  15.630  13.736   7.521
 4011POPC   NC353051  28.818  43.980   5.655
 4011POPC   PO453052  29.277  43.760   5.214
 4011POPC   GL153053  29.267  43.695   5.694
 4011POPC   GL253054  29.349  43.993   5.792
 4011POPC   C1A53055  29.236  43.653   6.196
 4011POPC   D2A53056  29.327  43.659   6.684
 4011POPC   C3A53057  29.082  43.963   6.985
 4011POPC   C4A53058  28.946  44.028   7.443
 4011POPC   C1B53059  29.520  44.085   6.168
 4011POPC   C2B53060  29.333  44.153   6.562
 4011POPC   C3B53061  29.570  44.111   6.940
 4011POPC   C4B53062  29.469  44.087   7.329
 4012POPC   NC353063  40.092  42.503   5.394
 4012POPC   PO453064  40.063  41.969   5.655
 4012POPC   GL153065  40.138  42.300   5.920
 4012POPC   GL253066  39.948  42.582   5.900
 4012POPC   C1A53067  40.160  42.259   6.356
 4012POPC   D2A53068  40.011  42.311   6.750
 4012POPC   C3A53069  40.119  42.105   7.127
 4012POPC   C4A53070  39.874  41.885   7.437
 4012POPC   C1B53071  39.852  42.662   6.345
 4012POPC   C2B53072  40.025  42.826   6.746
 4012POPC   C3B53073  40.016  42.602   7.162
 4012POPC   C4B53074  40.022  42.629   7.602
 4013POPC   NC353075  38.362  43.294   5.151
 4013POPC   PO453076  38.509  42.869   5.615
 4013POPC   GL153077  38.228  43.042   5.875
 4013POPC   GL253078  38.249  43.358   5.727
 4013POPC   C1A53079  38.418  43.026   6.286
 4013POPC   D2A53080  38.314  43.038   6.697
 4013POPC   C3A53081  38.673  43.062   6.918
 4013POPC   C4A53082  38.602  42.976   7.335
 4013POPC   C1B53083  38.220  43.483   6.176
 4013POPC   C2B53084  38.110  43.516   6.634
 4013POPC   C3B53085  38.297  43.413   7.061
 4013POPC   C4B53086  38.383  43.367   7.558
 4014POPC   NC353087  18.413  42.009   5.523
 4014POPC   PO453088  18.075  42.487   5.148
 4014POPC   GL153089  18.184  42.521   5.618
 4014POPC   GL253090  18.504  42.491   5.774
 4014POPC   C1A53091  18.042  42.440   6.064
 4014POPC   D2A53092  18.279  42.264   6.409
 4014POPC   C3A53093  18.163  42.194   6.804
 4014POPC   C4A53094  18.080  41.916   7.128
 4014POPC   C1B53095  18.451  42.697   6.202
 4014POPC   C2B53096  18.312  42.773   6.645
 4014POPC   C3B53097  18.395  42.736   7.096
 4014POPC   C4B53098  18.322  42.333   7.256
 4015POPC   NC353099  34.944  17.454   5.461
 4015POPC   PO453100  34.291  17.504   5.385
 4015POPC   GL153101  34.345  17.510   5.833
 4015POPC   GL253102  34.694  17.427   5.892
 4015POPC   C1A53103  34.426  17.598   6.288
 4015POPC   D2A53104  34.214  17.403   6.642
 4015POPC   C3A53105  34.392  17.460   7.033
 4015POPC   C4A53106  34.620  17.786   7.092
 4015POPC   C1B53107  34.908  17.227   6.227
 4015POPC   C2B53108  34.916  17.358   6.646
 4015POPC   C3B53109  34.817  17.154   7.003
 4015POPC   C4B53110  34.793  17.389   7.360
 4016POPC   NC353111  20.621  27.988   5.244
 4016POPC   PO453112  20.896  27.424   5.208
 4016POPC   GL153113  20.720  27.623   5.629
 4016POPC   GL253114  20.932  27.445   5.787
 4016POPC   C1A53115  20.770  27.793   6.140
 4016POPC   D2A53116  20.514  27.606   6.517
 4016POPC   C3A53117  20.469  27.719   6.940
 4016POPC   C4A53118  20.686  27.971   7.220
 4016POPC   C1B53119  20.701  27.305   6.130
 4016POPC   C2B53120  20.921  27.322   6.529
 4016POPC   C3B53121  20.782  27.276   6.940
 4016POPC   C4B53122  20.735  27.448   7.344
 4017POPC   NC353123  15.572   5.506   5.635
 4017POPC   PO453124  15.258   5.838   5.135
 4017POPC   GL153125  15.155   5.882   5.612
 4017POPC   GL253126  15.076   5.574   5.793
 4017POPC   C1A53127  15.122   6.009   6.089
 4017POPC   D2A53128  15.213   5.944   6.550
 4017POPC   C3A53129  14.964   5.800   6.913
 4017POPC   C4A53130  15.206   5.860   7.304
 4017POPC   C1B53131  15.297   5.531   6.199
 4017POPC   C2B53132  15.571   5.549   6.540
 4017POPC   C3B53133  15.421   5.574   6.945
 4017POPC   C4B53134  15.583   5.529   7.330
 4018POPC   NC353135  33.195  30.694   5.284
 4018POPC   PO453136  32.639  30.691   5.555
 4018POPC   GL153137  32.980  30.731   5.842
 4018POPC   GL253138  33.102  31.036   5.673
 4018POPC   C1A53139  32.967  30.761   6.321
 4018POPC   D2A53140  32.749  30.691   6.743
 4018POPC   C3A53141  33.055  30.522   7.050
 4018POPC   C4A53142  33.479  30.683   7.115
 4018POPC   C1B53143  33.144  31.263   6.069
 4018POPC   C2B53144  33.280  31.188   6.469
 4018POPC   C3B53145  33.150  31.034   6.870
 4018POPC   C4B53146  32.838  30.971   7.180
 4019POPC   NC353147  36.558  32.761   5.430
 4019POPC   PO453148  36.477  32.040   5.406
 4019POPC   GL153149  36.728  32.177   5.793
 4019POPC   GL253150  36.902  32.509   5.759
 4019POPC   C1A53151  36.782  32.065   6.229
 4019POPC   D2A53152  36.956  31.890   6.602
 4019POPC   C3A53153  36.847  31.998   7.020
 4019POPC   C4A53154  37.003  32.233   7.366
 4019POPC   C1B53155  36.789  32.577   6.205
 4019POPC   C2B53156  36.662  32.391   6.642
 4019POPC   C3B53157  36.705  32.503   7.079
 4019POPC   C4B53158  36.650  32.613   7.560
 4020POPC   NC353159  34.711  32.894   5.161
 4020POPC   PO453160  34.439  33.465   5.462
 4020POPC   GL153161  34.612  33.242   5.832
 4020POPC   GL253162  34.626  32.880   5.748
 4020POPC   C1A53163  34.481  33.179   6.276
 4020POPC   D2A53164  34.421  33.050   6.736
 4020POPC   C3A53165  34.684  33.215   7.066
 4020POPC   C4A53166  34.505  33.431   7.411
 4020POPC   C1B53167  34.662  32.719   6.178
 4020POPC   C2B53168  34.687  32.581   6.618
 4020POPC   C3B53169  34.644  32.698   7.054
 4020POPC   C4B53170  34.648  32.590   7.460
 4021POPC   NC353171  31.787  33.884   5.471
 4021POPC   PO453172  31.295  33.447   5.450
 4021POPC   GL153173  31.424  33.684   5.804
 4021POPC   GL253174  31.741  33.469   5.812
 4021POPC   C1A53175  31.391  33.980   6.205
 4021POPC   D2A53176  31.417  34.180   6.642
 4021POPC   C3A53177  31.305  33.918   7.023
 4021POPC   C4A53178  31.219  33.987   7.484
 4021POPC   C1B53179  31.562  33.461   6.237
 4021POPC   C2B53180  31.598  33.668   6.616
 4021POPC   C3B53181  31.529  33.455   6.991
 4021POPC   C4B53182  31.539  33.601   7.397
 4022POPC   NC353183  33.475  41.035   5.577
 4022POPC   PO453184  33.966  40.504   5.523
 4022POPC   GL153185  34.064  40.675   5.882
 4022POPC   GL253186  33.786  40.883   5.949
 4022POPC   C1A53187  34.010  40.581   6.308
 4022POPC   D2A53188  33.828  40.871   6.583
 4022POPC   C3A53189  33.918  40.728   6.989
 4022POPC   C4A53190  34.295  40.541   7.193
 4022POPC   C1B53191  33.419  41.008   6.236
 4022POPC   C2B53192  33.471  41.232   6.636
 4022POPC   C3B53193  33.426  41.086   7.047
 4022POPC   C4B53194  33.503  40.945   7.457
 4023POPC   NC353195  44.506  14.605   5.447
 4023POPC   PO453196  44.848  14.011   5.507
 4023POPC   GL153197  44.775  14.187   5.902
 4023POPC   GL253198  44.816  14.548   5.839
 4023POPC   C1A53199  44.725  14.080   6.355
 4023POPC   D2A53200  44.556  14.308   6.703
 4023POPC   C3A53201  44.712  14.255   7.117
 4023POPC   C4A53202  44.370  14.202   7.450
 4023POPC   C1B53203  44.681  14.575   6.252
 4023POPC   C2B53204  44.842  14.759   6.606
 4023POPC   C3B53205  44.808  14.784   7.040
 4023POPC   C4B53206  44.588  14.650   7.391
 4024POPC   NC353207  36.038  37.222   5.363
 4024POPC   PO453208  36.317  36.636   5.209
 4024POPC   GL153209  36.098  36.734   5.614
 4024POPC   GL253210  36.259  37.021   5.778
 4024POPC   C1A53211  35.938  36.739   6.058
 4024POPC   D2A53212  36.166  36.839   6.463
 4024POPC   C3A53213  36.069  36.831   6.911
 4024POPC   C4A53214  35.831  37.004   7.233
 4024POPC   C1B53215  36.394  37.205   6.178
 4024POPC   C2B53216  36.562  37.132   6.599
 4024POPC   C3B53217  36.419  37.198   7.018
 4024POPC   C4B53218  36.594  36.960   7.372
 4025POPC   NC353219   0.883  20.676   5.177
 4025POPC   PO453220   1.493  20.335   5.127
 4025POPC   GL153221   1.379  20.501   5.611
 4025POPC   GL253222   1.140  20.757   5.719
 4025POPC   C1A53223   1.289  20.456   6.116
 4025POPC   D2A53224   1.148  20.282   6.532
 4025POPC   C3A53225   1.366  20.438   6.900
 4025POPC   C4A53226   1.222  20.459   7.316
 4025POPC   C1B53227   1.032  20.891   6.165
 4025POPC   C2B53228   1.188  20.819   6.584
 4025POPC   C3B53229   1.083  20.895   7.029
 4025POPC   C4B53230   0.925  20.824   7.474
 4026POPC   NC353231  20.815  21.581   5.409
 4026POPC   PO453232  20.266  21.324   5.623
 4026POPC   GL153233  20.560  21.454   5.879
 4026POPC   GL253234  20.804  21.199   5.815
 4026POPC   C1A53235  20.523  21.469   6.307
 4026POPC   D2A53236  20.429  21.283   6.686
 4026POPC   C3A53237  20.531  21.551   7.009
 4026POPC   C4A53238  20.552  21.581   7.442
 4026POPC   C1B53239  21.001  21.370   6.197
 4026POPC   C2B53240  20.954  21.453   6.656
 4026POPC   C3B53241  20.917  21.196   7.035
 4026POPC   C4B53242  20.928  21.261   7.504
 4027POPC   NC353243  16.859   8.814   5.381
 4027POPC   PO453244  16.214   8.932   5.182
 4027POPC   GL153245  16.406   8.915   5.655
 4027POPC   GL253246  16.747   9.031   5.822
 4027POPC   C1A53247  16.411   8.690   6.055
 4027POPC   D2A53248  16.568   8.848   6.449
 4027POPC   C3A53249  16.524   8.619   6.821
 4027POPC   C4A53250  16.539   8.683   7.249
 4027POPC   C1B53251  16.911   9.181   6.218
 4027POPC   C2B53252  17.037   9.165   6.643
 4027POPC   C3B53253  17.028   9.256   7.089
 4027POPC   C4B53254  16.904   8.992   7.411
 4028POPC   NC353255  12.069  25.864   5.201
 4028POPC   PO453256  11.770  26.416   5.447
 4028POPC   GL153257  12.007  26.094   5.704
 4028POPC   GL253258  12.226  25.788   5.719
 4028POPC   C1A53259  12.176  26.105   6.129
 4028POPC   D2A53260  11.986  26.298   6.498
 4028POPC   C3A53261  12.097  26.074   6.879
 4028POPC   C4A53262  12.236  26.172   7.282
 4028POPC   C1B53263  12.405  25.633   6.155
 4028POPC   C2B53264  12.399  25.636   6.650
 4028POPC   C3B53265  12.512  25.768   7.098
 4028POPC   C4B53266  12.598  25.884   7.582
 4029POPC   NC353267  39.534  43.284   5.469
 4029POPC   PO453268  38.935  43.009   5.314
 4029POPC   GL153269  39.019  43.033   5.812
 4029POPC   GL253270  39.288  43.273   5.920
 4029POPC   C1A53271  38.955  43.157   6.282
 4029POPC   D2A53272  39.058  42.864   6.612
 4029POPC   C3A53273  39.240  42.935   6.970
 4029POPC   C4A53274  39.090  42.969   7.360
 4029POPC   C1B53275  39.604  43.475   6.165
 4029POPC   C2B53276  39.413  43.641   6.537
 4029POPC   C3B53277  39.131  43.407   6.790
 4029POPC   C4B53278  39.305  43.397   7.205
 4030POPC   NC353279   4.455   7.380   5.079
 4030POPC   PO453280   4.644   7.082   5.633
 4030POPC   GL153281   4.597   7.334   5.988
 4030POPC   GL253282   4.308   7.441   5.845
 4030POPC   C1A53283   4.526   7.695   6.307
 4030POPC   D2A53284   4.599   7.891   6.728
 4030POPC   C3A53285   4.520   7.599   7.048
 4030POPC   C4A53286   4.408   7.300   7.413
 4030POPC   C1B53287   4.139   7.355   6.252
 4030POPC   C2B53288   4.199   7.427   6.692
 4030POPC   C3B53289   3.998   7.322   7.089
 4030POPC   C4B53290   3.958   6.997   7.422
 4031POPC   NC353291   0.310  21.929   5.632
 4031POPC   PO453292   0.185  22.390   5.173
 4031POPC   GL153293   0.517  22.344   5.744
 4031POPC   GL253294   0.850  22.354   5.789
 4031POPC   C1A53295   0.411  22.378   6.205
 4031POPC   D2A53296   0.076  22.270   6.505
 4031POPC   C3A53297   0.247  22.145   6.893
 4031POPC   C4A53298   0.314  22.532   7.106
 4031POPC   C1B53299   0.814  22.075   6.177
 4031POPC   C2B53300   0.771  22.014   6.625
 4031POPC   C3B53301   0.753  22.247   7.029
 4031POPC   C4B53302   0.471  22.129   7.362
 4032POPC   NC353303  29.047  19.519   5.387
 4032POPC   PO453304  29.202  20.156   5.516
 4032POPC   GL153305  29.067  19.821   5.839
 4032POPC   GL253306  28.992  19.438   5.870
 4032POPC   C1A53307  29.119  19.846   6.281
 4032POPC   D2A53308  29.472  19.868   6.573
 4032POPC   C3A53309  29.315  20.042   6.952
 4032POPC   C4A53310  28.878  20.196   7.033
 4032POPC   C1B53311  28.733  19.466   6.233
 4032POPC   C2B53312  28.854  19.611   6.655
 4032POPC   C3B53313  29.042  19.563   7.050
 4032POPC   C4B53314  28.867  19.798   7.377
 4033POPC   NC353315  29.990  35.069   5.275
 4033POPC   PO453316  29.770  35.681   5.204
 4033POPC   GL153317  29.869  35.456   5.604
 4033POPC   GL253318  30.189  35.588   5.655
 4033POPC   C1A53319  29.985  35.244   6.043
 4033POPC   D2A53320  30.056  35.155   6.526
 4033POPC   C3A53321  29.909  35.192   6.982
 4033POPC   C4A53322  30.005  35.367   7.408
 4033POPC   C1B53323  29.958  35.756   6.006
 4033POPC   C2B53324  29.997  35.704   6.432
 4033POPC   C3B53325  29.816  35.657   6.798
 4033POPC   C4B53326  29.815  35.772   7.176
 4034POPC   NC353327  40.844   0.750   5.318
 4034POPC   PO453328  40.384   0.191   5.400
 4034POPC   GL153329  40.609   0.441   5.710
 4034POPC   GL253330  40.919   0.326   5.845
 4034POPC   C1A53331  40.550   0.538   6.184
 4034POPC   D2A53332  40.716   0.445   6.607
 4034POPC   C3A53333  40.548   0.521   7.018
 4034POPC   C4A53334  40.640   0.500   7.452
 4034POPC   C1B53335  41.013   0.145   6.266
 4034POPC   C2B53336  41.105   0.136   6.712
 4034POPC   C3B53337  41.032   0.329   7.119
 4034POPC   C4B53338  40.990   0.190   7.580
 4035POPC   NC353339  33.394  32.058   5.410
 4035POPC   PO453340  32.831  32.337   5.457
 4035POPC   GL153341  32.978  32.188   5.848
 4035POPC   GL253342  33.284  32.372   5.908
 4035POPC   C1A53343  32.943  32.125   6.300
 4035POPC   D2A53344  32.944  32.372   6.679
 4035POPC   C3A53345  32.677  32.222   6.976
 4035POPC   C4A53346  32.676  31.924   7.247
 4035POPC   C1B53347  33.342  32.441   6.371
 4035POPC   C2B53348  33.381  32.143   6.736
 4035POPC   C3B53349  33.160  32.257   7.144
 4035POPC   C4B53350  33.372  32.401   7.510
 4036POPC   NC353351  25.828  27.081   5.031
 4036POPC   PO453352  26.181  26.541   5.305
 4036POPC   GL153353  26.223  26.641   5.736
 4036POPC   GL253354  26.464  26.386   5.811
 4036POPC   C1A53355  26.171  26.908   6.145
 4036POPC   D2A53356  26.326  27.122   6.546
 4036POPC   C3A53357  26.083  27.048   6.900
 4036POPC   C4A53358  26.004  26.978   7.323
 4036POPC   C1B53359  26.223  26.414   6.188
 4036POPC   C2B53360  26.193  26.619   6.597
 4036POPC   C3B53361  26.049  26.549   7.010
 4036POPC   C4B53362  26.319  26.382   7.311
 4037POPC   NC353363  43.726  41.876   5.513
 4037POPC   PO453364  44.055  41.319   5.186
 4037POPC   GL153365  43.932  41.454   5.714
 4037POPC   GL253366  43.652  41.607   5.929
 4037POPC   C1A53367  44.065  41.431   6.166
 4037POPC   D2A53368  44.237  41.634   6.531
 4037POPC   C3A53369  44.076  41.498   6.920
 4037POPC   C4A53370  44.138  41.669   7.299
 4037POPC   C1B53371  43.650  41.881   6.240
 4037POPC   C2B53372  43.778  41.832   6.653
 4037POPC   C3B53373  43.679  41.971   7.043
 4037POPC   C4B53374  43.647  41.926   7.482
 4038POPC   NC353375  27.801  13.320   4.947
 4038POPC   PO453376  27.189  13.382   5.289
 4038POPC   GL153377  27.207  13.401   5.784
 4038POPC   GL253378  27.230  13.155   6.085
 4038POPC   C1A53379  27.263  13.634   6.212
 4038POPC   D2A53380  27.289  13.426   6.650
 4038POPC   C3A53381  27.483  13.562   7.025
 4038POPC   C4A53382  27.593  13.549   7.425
 4038POPC   C1B53383  27.648  13.328   6.289
 4038POPC   C2B53384  27.837  13.326   6.710
 4038POPC   C3B53385  27.958  13.277   7.167
 4038POPC   C4B53386  28.117  13.003   7.511
 4039POPC   NC353387  10.785  36.916   5.003
 4039POPC   PO453388  10.429  36.534   5.395
 4039POPC   GL153389  10.719  36.746   5.762
 4039POPC   GL253390  10.778  37.097   5.776
 4039POPC   C1A53391  10.769  36.618   6.195
 4039POPC   D2A53392  10.491  36.746   6.523
 4039POPC   C3A53393  10.561  36.645   6.965
 4039POPC   C4A53394  10.236  36.778   7.279
 4039POPC   C1B53395  10.928  37.118   6.218
 4039POPC   C2B53396  10.937  36.946   6.654
 4039POPC   C3B53397  10.788  37.099   7.056
 4039POPC   C4B53398  10.446  37.389   7.196
 4040POPC   NC353399  14.644  19.239   5.474
 4040POPC   PO453400  14.023  19.012   5.369
 4040POPC   GL153401  14.247  18.960   5.774
 4040POPC   GL253402  14.341  19.284   5.915
 4040POPC   C1A53403  14.389  18.908   6.235
 4040POPC   D2A53404  14.387  19.124   6.635
 4040POPC   C3A53405  14.063  19.037   6.876
 4040POPC   C4A53406  14.223  18.961   7.232
 4040POPC   C1B53407  14.671  19.351   6.281
 4040POPC   C2B53408  14.762  19.474   6.743
 4040POPC   C3B53409  14.585  19.354   7.168
 4040POPC   C4B53410  14.492  19.475   7.631
 4041POPC   NC353411   5.369  19.083   5.374
 4041POPC   PO453412   4.870  18.583   5.456
 4041POPC   GL153413   4.964  18.940   5.761
 4041POPC   GL253414   5.242  19.211   5.850
 4041POPC   C1A53415   4.833  19.085   6.182
 4041POPC   D2A53416   5.040  19.114   6.613
 4041POPC   C3A53417   4.877  19.073   7.057
 4041POPC   C4A53418   5.141  19.388   7.282
 4041POPC   C1B53419   5.327  18.951   6.211
 4041POPC   C2B53420   5.341  18.696   6.595
 4041POPC   C3B53421   5.343  18.878   6.999
 4041POPC   C4B53422   5.527  18.670   7.317
 4042POPC   NC353423  44.591   1.621   5.152
 4042POPC   PO453424  44.231   2.098   5.497
 4042POPC   GL153425  44.386   2.104   5.929
 4042POPC   GL253426  44.717   2.214   5.880
 4042POPC   C1A53427  44.631   1.853   6.283
 4042POPC   D2A53428  44.892   1.821   6.684
 4042POPC   C3A53429  44.693   1.891   7.079
 4042POPC   C4A53430  44.301   2.066   7.144
 4042POPC   C1B53431  44.625   2.358   6.316
 4042POPC   C2B53432  44.556   2.241   6.725
 4042POPC   C3B53433  44.898   2.355   6.996
 4042POPC   C4B53434   0.180   2.164   7.342
 4043POPC   NC353435  11.586  33.353   5.524
 4043POPC   PO453436  11.114  32.827   5.486
 4043POPC   GL153437  11.226  33.055   5.836
 4043POPC   GL253438  10.901  33.053   5.973
 4043POPC   C1A53439  11.316  33.158   6.283
 4043POPC   D2A53440  11.425  32.874   6.607
 4043POPC   C3A53441  11.484  32.924   7.050
 4043POPC   C4A53442  11.821  32.690   7.270
 4043POPC   C1B53443  10.843  33.049   6.450
 4043POPC   C2B53444  11.020  33.059   6.873
 4043POPC   C3B53445  11.007  33.010   7.337
 4043POPC   C4B53446  10.996  32.917   7.818
 4044POPC   NC353447  12.208  33.397   5.273
 4044POPC   PO453448  11.848  32.974   5.552
 4044POPC   GL153449  11.729  33.091   5.969
 4044POPC   GL253450  11.591  32.773   6.101
 4044POPC   C1A53451  11.812  33.177   6.423
 4044POPC   D2A53452  11.933  32.973   6.823
 4044POPC   C3A53453  11.905  33.188   7.214
 4044POPC   C4A53454  11.844  33.038   7.664
 4044POPC   C1B53455  11.877  32.628   6.442
 4044POPC   C2B53456  12.258  32.588   6.729
 4044POPC   C3B53457  12.316  32.642   7.185
 4044POPC   C4B53458  12.178  32.621   7.640
 4045POPC   NC353459  40.123  21.930   5.313
 4045POPC   PO453460  40.020  22.531   5.389
 4045POPC   GL153461  40.148  22.287   5.733
 4045POPC   GL253462  40.477  22.092   5.667
 4045POPC   C1A53463  40.011  22.291   6.195
 4045POPC   D2A53464  39.967  22.547   6.588
 4045POPC   C3A53465  39.884  22.341   6.992
 4045POPC   C4A53466  40.183  22.298   7.317
 4045POPC   C1B53467  40.326  21.908   6.060
 4045POPC   C2B53468  40.142  21.862   6.485
 4045POPC   C3B53469  40.239  21.941   6.923
 4045POPC   C4B53470  40.238  21.788   7.349
 4046POPC   NC353471  31.810  29.920   4.951
 4046POPC   PO453472  31.400  29.885   5.490
 4046POPC   GL153473  31.434  29.982   5.877
 4046POPC   GL253474  31.693  29.777   5.969
 4046POPC   C1A53475  31.455  30.126   6.304
 4046POPC   D2A53476  31.350  29.861   6.636
 4046POPC   C3A53477  31.256  30.043   7.028
 4046POPC   C4A53478  31.576  30.327   7.229
 4046POPC   C1B53479  31.792  29.755   6.384
 4046POPC   C2B53480  31.930  30.052   6.590
 4046POPC   C3B53481  31.753  29.941   6.947
 4046POPC   C4B53482  31.728  29.803   7.367
 4047POPC   NC353483  19.848  42.906   5.141
 4047POPC   PO453484  19.835  42.242   5.317
 4047POPC   GL153485  19.859  42.408   5.733
 4047POPC   GL253486  19.520  42.536   5.782
 4047POPC   C1A53487  19.762  42.260   6.179
 4047POPC   D2A53488  19.685  42.054   6.612
 4047POPC   C3A53489  19.903  42.293   6.934
 4047POPC   C4A53490  20.234  42.345   7.258
 4047POPC   C1B53491  19.442  42.642   6.236
 4047POPC   C2B53492  19.461  42.514   6.691
 4047POPC   C3B53493  19.433  42.267   7.105
 4047POPC   C4B53494  19.331  42.449   7.540
 4048POPC   NC353495   7.223   9.308   5.482
 4048POPC   PO453496   7.545   8.698   5.281
 4048POPC   GL153497   7.573   8.952   5.668
 4048POPC   GL253498   7.255   8.907   5.843
 4048POPC   C1A53499   7.725   9.100   6.081
 4048POPC   D2A53500   7.872   9.183   6.514
 4048POPC   C3A53501   7.635   8.892   6.777
 4048POPC   C4A53502   7.453   8.994   7.160
 4048POPC   C1B53503   7.051   8.908   6.262
 4048POPC   C2B53504   7.100   8.958   6.707
 4048POPC   C3B53505   6.959   9.077   7.097
 4048POPC   C4B53506   7.059   8.884   7.496
 4049POPC   NC353507   4.722   6.151   5.470
 4049POPC   PO453508   5.145   5.598   5.437
 4049POPC   GL153509   5.276   5.663   5.885
 4049POPC   GL253510   5.103   5.385   5.958
 4049POPC   C1A53511   5.289   5.935   6.294
 4049POPC   D2A53512   5.394   6.168   6.697
 4049POPC   C3A53513   5.087   6.207   7.065
 4049POPC   C4A53514   5.141   6.096   7.507
 4049POPC   C1B53515   4.997   5.518   6.349
 4049POPC   C2B53516   5.088   5.699   6.733
 4049POPC   C3B53517   4.847   5.747   7.096
 4049POPC   C4B53518   4.964   5.646   7.487
 4050POPC   NC353519  41.556  32.508   5.594
 4050POPC   PO453520  41.346  31.838   5.561
 4050POPC   GL153521  41.481  32.061   5.861
 4050POPC   GL253522  41.801  32.142   5.884
 4050POPC   C1A53523  41.392  32.035   6.271
 4050POPC   D2A53524  41.395  32.298   6.612
 4050POPC   C3A53525  41.520  32.128   6.953
 4050POPC   C4A53526  41.311  32.235   7.269
 4050POPC   C1B53527  41.833  32.314   6.338
 4050POPC   C2B53528  41.830  32.622   6.707
 4050POPC   C3B53529  41.683  32.570   7.150
 4050POPC   C4B53530  41.783  32.192   7.415
 4051POPC   NC353531   2.683   9.036   5.420
 4051POPC   PO453532   3.092   9.498   5.443
 4051POPC   GL153533   3.057   9.156   5.773
 4051POPC   GL253534   2.695   9.107   5.915
 4051POPC   C1A53535   3.078   8.911   6.165
 4051POPC   D2A53536   2.793   8.807   6.520
 4051POPC   C3A53537   2.924   8.832   6.947
 4051POPC   C4A53538   2.986   9.068   7.320
 4051POPC   C1B53539   2.446   8.773   6.127
 4051POPC   C2B53540   2.270   8.751   6.552
 4051POPC   C3B53541   2.413   8.922   6.904
 4051POPC   C4B53542   2.543   8.756   7.273
 4052POPC   NC353543  32.017  44.747   5.507
 4052POPC   PO453544  31.681  44.111   5.539
 4052POPC   GL153545  31.946  44.351   5.863
 4052POPC   GL253546  32.312  44.275   5.956
 4052POPC   C1A53547  32.003  44.533   6.287
 4052POPC   D2A53548  32.159  44.364   6.692
 4052POPC   C3A53549  32.186  44.613   7.067
 4052POPC   C4A53550  31.875  44.953   7.209
 4052POPC   C1B53551  32.500  44.634   6.227
 4052POPC   C2B53552  32.434  44.819   6.654
 4052POPC   C3B53553  32.628  44.877   7.083
 4052POPC   C4B53554  32.552  44.612   7.448
 4053POPC   NC353555  24.852  43.784   5.159
 4053POPC   PO453556  25.354  44.295   5.391
 4053POPC   GL153557  25.058  44.057   5.584
 4053POPC   GL253558  25.301  43.892   5.773
 4053POPC   C1A53559  24.877  44.117   6.023
 4053POPC   D2A53560  24.922  43.926   6.462
 4053POPC   C3A53561  25.105  44.125   6.820
 4053POPC   C4A53562  25.037  44.108   7.245
 4053POPC   C1B53563  25.311  43.701   6.188
 4053POPC   C2B53564  25.385  43.725   6.650
 4053POPC   C3B53565  25.460  43.725   7.107
 4053POPC   C4B53566  25.507  43.384   7.403
 4054POPC   NC353567  43.310  38.121   5.117
 4054POPC   PO453568  42.906  38.667   5.338
 4054POPC   GL153569  42.905  38.488   5.758
 4054POPC   GL253570  43.203  38.236   5.751
 4054POPC   C1A53571  42.989  38.651   6.177
 4054POPC   D2A53572  43.106  38.725   6.610
 4054POPC   C3A53573  42.961  38.416   6.921
 4054POPC   C4A53574  43.147  38.473   7.355
 4054POPC   C1B53575  43.212  38.167   6.202
 4054POPC   C2B53576  43.321  38.013   6.610
 4054POPC   C3B53577  43.339  38.086   7.050
 4054POPC   C4B53578  43.312  37.982   7.497
 4055POPC   NC353579   7.935  43.847   5.383
 4055POPC   PO453580   8.554  43.950   5.221
 4055POPC   GL153581   8.380  43.832   5.661
 4055POPC   GL253582   8.074  43.741   5.845
 4055POPC   C1A53583   8.427  43.928   6.138
 4055POPC   D2A53584   8.160  44.100   6.488
 4055POPC   C3A53585   8.276  43.884   6.835
 4055POPC   C4A53586   8.371  43.907   7.271
 4055POPC   C1B53587   8.008  43.649   6.271
 4055POPC   C2B53588   7.825  43.726   6.667
 4055POPC   C3B53589   7.885  43.745   7.111
 4055POPC   C4B53590   8.073  43.488   7.410
 4056POPC   NC353591   1.230   6.108   5.213
 4056POPC   PO453592   0.600   5.995   5.462
 4056POPC   GL153593   0.813   5.959   5.836
 4056POPC   GL253594   1.142   6.057   5.723
 4056POPC   C1A53595   1.044   5.631   6.034
 4056POPC   D2A53596   1.231   5.495   6.431
 4056POPC   C3A53597   1.145   5.657   6.820
 4056POPC   C4A53598   1.353   5.785   7.123
 4056POPC   C1B53599   1.195   6.099   6.175
 4056POPC   C2B53600   1.374   6.047   6.553
 4056POPC   C3B53601   1.079   6.157   6.819
 4056POPC   C4B53602   1.047   6.174   7.220
 4057POPC   NC353603   1.433   5.316   5.321
 4057POPC   PO453604   0.762   5.135   5.320
 4057POPC   GL153605   0.935   5.209   5.715
 4057POPC   GL253606   0.817   4.890   5.797
 4057POPC   C1A53607   1.157   5.105   6.115
 4057POPC   D2A53608   1.097   4.961   6.557
 4057POPC   C3A53609   1.239   5.166   6.945
 4057POPC   C4A53610   1.502   5.100   7.338
 4057POPC   C1B53611   0.740   4.788   6.212
 4057POPC   C2B53612   0.585   4.893   6.594
 4057POPC   C3B53613   0.794   4.878   6.997
 4057POPC   C4B53614   1.123   4.727   7.271
 4058POPC   NC353615  24.771  24.661   5.315
 4058POPC   PO453616  24.340  24.153   5.509
 4058POPC   GL153617  24.614  24.278   5.829
 4058POPC   GL253618  24.655  24.646   5.816
 4058POPC   C1A53619  24.429  24.392   6.211
 4058POPC   D2A53620  24.114  24.452   6.491
 4058POPC   C3A53621  24.262  24.301   6.869
 4058POPC   C4A53622  24.405  24.544   7.212
 4058POPC   C1B53623  24.821  24.725   6.232
 4058POPC   C2B53624  24.638  24.658   6.637
 4058POPC   C3B53625  24.803  24.810   6.990
 4058POPC   C4B53626  24.845  25.101   7.308
 4059POPC   NC353627   4.573  38.107   5.418
 4059POPC   PO453628   4.828  37.505   5.514
 4059POPC   GL153629   4.944  37.441   5.897
 4059POPC   GL253630   5.219  37.248   5.897
 4059POPC   C1A53631   4.985  37.640   6.297
 4059POPC   D2A53632   4.726  37.585   6.655
 4059POPC   C3A53633   4.883  37.616   7.071
 4059POPC   C4A53634   5.294  37.704   7.217
 4059POPC   C1B53635   5.070  37.151   6.327
 4059POPC   C2B53636   5.195  37.345   6.722
 4059POPC   C3B53637   5.342  37.189   7.127
 4059POPC   C4B53638   5.402  37.349   7.583
 4060POPC   NC353639  16.858   4.288   5.259
 4060POPC   PO453640  16.298   4.417   5.581
 4060POPC   GL153641  16.675   4.458   5.776
 4060POPC   GL253642  16.685   4.134   5.843
 4060POPC   C1A53643  16.782   4.495   6.209
 4060POPC   D2A53644  16.935   4.406   6.607
 4060POPC   C3A53645  16.777   4.655   6.970
 4060POPC   C4A53646  16.425   4.530   7.243
 4060POPC   C1B53647  16.921   4.012   6.218
 4060POPC   C2B53648  16.747   3.909   6.622
 4060POPC   C3B53649  16.670   4.151   7.004
 4060POPC   C4B53650  16.895   4.265   7.384
 4061POPC   NC353651  16.813  20.664   5.360
 4061POPC   PO453652  16.461  20.141   5.580
 4061POPC   GL153653  16.721  20.416   5.816
 4061POPC   GL253654  17.061  20.418   5.719
 4061POPC   C1A53655  16.801  20.743   6.105
 4061POPC   D2A53656  16.579  20.880   6.476
 4061POPC   C3A53657  16.748  20.766   6.859
 4061POPC   C4A53658  16.714  20.825   7.269
 4061POPC   C1B53659  17.145  20.344   6.135
 4061POPC   C2B53660  16.911  20.430   6.500
 4061POPC   C3B53661  17.051  20.365   6.920
 4061POPC   C4B53662  16.902  20.310   7.312
 4062POPC   NC353663  37.053  44.516   5.383
 4062POPC   PO453664  36.710   0.112   5.454
 4062POPC   GL153665  36.852  44.752   5.780
 4062POPC   GL253666  37.225  44.632   5.850
 4062POPC   C1A53667  36.847  44.633   6.221
 4062POPC   D2A53668  37.062  44.803   6.609
 4062POPC   C3A53669  36.796  44.708   6.969
 4062POPC   C4A53670  36.811  44.765   7.409
 4062POPC   C1B53671  37.309  44.437   6.258
 4062POPC   C2B53672  37.162  44.327   6.700
 4062POPC   C3B53673  37.154  44.417   7.182
 4062POPC   C4B53674  37.085  44.291   7.631
 4063POPC   NC353675  20.909  37.880   5.333
 4063POPC   PO453676  20.444  37.380   5.237
 4063POPC   GL153677  20.442  37.661   5.671
 4063POPC   GL253678  20.708  37.907   5.806
 4063POPC   C1A53679  20.400  37.541   6.112
 4063POPC   D2A53680  20.215  37.436   6.524
 4063POPC   C3A53681  20.433  37.597   6.904
 4063POPC   C4A53682  20.531  37.530   7.348
 4063POPC   C1B53683  20.767  37.862   6.257
 4063POPC   C2B53684  20.866  37.752   6.697
 4063POPC   C3B53685  20.774  37.901   7.117
 4063POPC   C4B53686  20.751  37.960   7.582
 4064POPC   NC353687  29.761  39.053   5.150
 4064POPC   PO453688  30.094  39.545   5.144
 4064POPC   GL153689  29.898  39.383   5.519
 4064POPC   GL253690  30.165  39.494   5.715
 4064POPC   C1A53691  29.834  39.115   5.912
 4064POPC   D2A53692  29.933  39.101   6.357
 4064POPC   C3A53693  29.673  39.241   6.692
 4064POPC   C4A53694  29.750  39.042   7.093
 4064POPC   C1B53695  30.234  39.730   6.081
 4064POPC   C2B53696  30.194  39.579   6.510
 4064POPC   C3B53697  30.125  39.405   6.917
 4064POPC   C4B53698  30.316  39.427   7.333
 4065POPC   NC353699  30.812  31.050   5.558
 4065POPC   PO453700  30.625  30.453   5.613
 4065POPC   GL153701  30.982  30.630   5.872
 4065POPC   GL253702  31.024  30.286   6.035
 4065POPC   C1A53703  30.961  31.000   6.227
 4065POPC   D2A53704  30.556  31.171   6.484
 4065POPC   C3A53705  30.445  31.122   6.953
 4065POPC   C4A53706  30.626  30.983   7.373
 4065POPC   C1B53707  30.754  30.547   6.306
 4065POPC   C2B53708  30.846  30.741   6.688
 4065POPC   C3B53709  30.608  30.616   7.024
 4065POPC   C4B53710  30.706  30.477   7.428
 4066POPC   NC353711  37.148  43.877   5.364
 4066POPC   PO453712  36.616  44.278   5.446
 4066POPC   GL153713  36.886  44.188   5.793
 4066POPC   GL253714  36.822  43.821   5.794
 4066POPC   C1A53715  36.899  44.089   6.252
 4066POPC   D2A53716  36.739  43.824   6.577
 4066POPC   C3A53717  36.830  44.008   6.939
 4066POPC   C4A53718  37.023  43.897   7.315
 4066POPC   C1B53719  37.024  43.585   6.128
 4066POPC   C2B53720  37.014  43.395   6.533
 4066POPC   C3B53721  37.001  43.529   6.944
 4066POPC   C4B53722  37.392  43.523   7.110
 4067POPC   NC353723  44.231   6.431   5.400
 4067POPC   PO453724  44.892   6.502   5.173
 4067POPC   GL153725  44.709   6.511   5.614
 4067POPC   GL253726  44.447   6.806   5.662
 4067POPC   C1A53727  44.779   6.452   6.106
 4067POPC   D2A53728  44.867   6.662   6.543
 4067POPC   C3A53729  44.773   6.510   6.978
 4067POPC   C4A53730  44.880   6.585   7.412
 4067POPC   C1B53731  44.252   6.594   6.040
 4067POPC   C2B53732  44.370   6.534   6.473
 4067POPC   C3B53733  44.292   6.730   6.865
 4067POPC   C4B53734  44.423   6.779   7.289
 4068POPC   NC353735  13.073  39.369   5.516
 4068POPC   PO453736  12.466  38.961   5.491
 4068POPC   GL153737  12.595  39.208   5.845
 4068POPC   GL253738  12.930  39.116   5.917
 4068POPC   C1A53739  12.594  39.060   6.291
 4068POPC   D2A53740  12.865  39.244   6.616
 4068POPC   C3A53741  12.772  39.312   7.021
 4068POPC   C4A53742  12.818  38.961   7.258
 4068POPC   C1B53743  13.084  38.945   6.266
 4068POPC   C2B53744  13.153  38.802   6.637
 4068POPC   C3B53745  13.307  38.977   6.972
 4068POPC   C4B53746  13.230  39.295   7.243
 4069POPC   NC353747  38.307  24.607   5.230
 4069POPC   PO453748  38.469  24.223   5.709
 4069POPC   GL153749  38.631  24.422   6.008
 4069POPC   GL253750  38.447  24.719   5.899
 4069POPC   C1A53751  38.559  24.203   6.384
 4069POPC   D2A53752  38.639  24.023   6.774
 4069POPC   C3A53753  38.436  24.231   7.096
 4069POPC   C4A53754  38.663  24.406   7.400
 4069POPC   C1B53755  38.249  24.639   6.294
 4069POPC   C2B53756  38.403  24.605   6.682
 4069POPC   C3B53757  38.556  24.766   7.025
 4069POPC   C4B53758  38.291  24.754   7.354
 4070POPC   NC353759  40.365   3.918   5.569
 4070POPC   PO453760  39.836   3.454   5.430
 4070POPC   GL153761  39.988   3.337   5.841
 4070POPC   GL253762  40.067   3.672   5.956
 4070POPC   C1A53763  40.092   3.263   6.275
 4070POPC   D2A53764  39.985   3.541   6.608
 4070POPC   C3A53765  40.166   3.443   6.984
 4070POPC   C4A53766  39.912   3.457   7.323
 4070POPC   C1B53767  40.239   3.903   6.322
 4070POPC   C2B53768  40.335   3.929   6.780
 4070POPC   C3B53769  40.346   3.973   7.249
 4070POPC   C4B53770  40.338   4.013   7.725
 4071POPC   NC353771  20.410  10.799   5.407
 4071POPC   PO453772  20.605  11.442   5.319
 4071POPC   GL153773  20.612  11.212   5.694
 4071POPC   GL253774  20.329  11.057   5.847
 4071POPC   C1A53775  20.644  11.369   6.117
 4071POPC   D2A53776  20.597  11.144   6.486
 4071POPC   C3A53777  20.718  11.350   6.844
 4071POPC   C4A53778  20.681  11.261   7.252
 4071POPC   C1B53779  20.165  11.203   6.247
 4071POPC   C2B53780  20.123  11.082   6.702
 4071POPC   C3B53781  20.147  11.150   7.175
 4071POPC   C4B53782  19.918  11.162   7.599
 4072POPC   NC353783  19.357  26.500   5.460
 4072POPC   PO453784  20.054  26.693   5.371
 4072POPC   GL153785  19.936  26.910   5.745
 4072POPC   GL253786  19.590  26.877   5.776
 4072POPC   C1A53787  20.137  26.962   6.160
 4072POPC   D2A53788  20.041  26.770   6.559
 4072POPC   C3A53789  19.927  26.968   6.958
 4072POPC   C4A53790  20.042  26.690   7.294
 4072POPC   C1B53791  19.631  27.085   6.186
 4072POPC   C2B53792  19.508  27.033   6.613
 4072POPC   C3B53793  19.409  27.098   7.034
 4072POPC   C4B53794  19.578  26.860   7.341
 4073POPC   NC353795  37.701  38.166   5.378
 4073POPC   PO453796  37.329  38.785   5.436
 4073POPC   GL153797  37.533  38.497   5.765
 4073POPC   GL253798  37.789  38.207   5.858
 4073POPC   C1A53799  37.624  38.524   6.212
 4073POPC   D2A53800  37.671  38.692   6.623
 4073POPC   C3A53801  37.837  38.508   6.990
 4073POPC   C4A53802  37.561  38.267   7.241
 4073POPC   C1B53803  38.098  38.142   6.160
 4073POPC   C2B53804  38.037  38.202   6.582
 4073POPC   C3B53805  37.776  38.003   6.863
 4073POPC   C4B53806  38.031  38.059   7.244
 4074POPC   NC353807  34.883  13.116   5.520
 4074POPC   PO453808  34.448  12.745   5.168
 4074POPC   GL153809  34.585  12.710   5.730
 4074POPC   GL253810  34.664  13.027   5.971
 4074POPC   C1A53811  34.777  12.617   6.209
 4074POPC   D2A53812  34.878  12.728   6.665
 4074POPC   C3A53813  34.653  12.629   7.049
 4074POPC   C4A53814  34.462  12.539   7.411
 4074POPC   C1B53815  34.678  13.127   6.405
 4074POPC   C2B53816  34.488  13.050   6.795
 4074POPC   C3B53817  34.302  12.999   7.190
 4074POPC   C4B53818  34.428  12.972   7.633
 4075POPC   NC353819  28.452  31.719   5.381
 4075POPC   PO453820  28.256  31.005   5.475
 4075POPC   GL153821  28.372  31.357   5.743
 4075POPC   GL253822  28.614  31.222   5.995
 4075POPC   C1A53823  28.327  31.660   6.090
 4075POPC   D2A53824  28.496  31.560   6.488
 4075POPC   C3A53825  28.309  31.657   6.877
 4075POPC   C4A53826  28.522  31.629   7.243
 4075POPC   C1B53827  28.224  31.158   6.216
 4075POPC   C2B53828  28.149  31.220   6.630
 4075POPC   C3B53829  28.392  31.172   6.978
 4075POPC   C4B53830  28.097  31.292   7.246
 4076POPC   NC353831  19.148  44.584   5.342
 4076POPC   PO453832  19.057   0.294   5.328
 4076POPC   GL153833  19.170  44.900   5.744
 4076POPC   GL253834  18.937  44.634   5.817
 4076POPC   C1A53835  19.273  44.622   6.170
 4076POPC   D2A53836  18.970  44.534   6.541
 4076POPC   C3A53837  19.099  44.608   6.970
 4076POPC   C4A53838  19.022  44.342   7.316
 4076POPC   C1B53839  18.714  44.799   6.186
 4076POPC   C2B53840  18.500   0.008   6.547
 4076POPC   C3B53841  18.622  44.895   6.977
 4076POPC   C4B53842  18.731  44.742   7.422
 4077POPC   NC353843  23.860  30.969   5.262
 4077POPC   PO453844  23.504  30.316   5.347
 4077POPC   GL153845  23.671  30.390   5.776
 4077POPC   GL253846  23.719  30.772   5.813
 4077POPC   C1A53847  23.698  30.483   6.245
 4077POPC   D2A53848  23.552  30.698   6.623
 4077POPC   C3A53849  23.377  30.472   6.958
 4077POPC   C4A53850  23.633  30.311   7.284
 4077POPC   C1B53851  24.053  30.907   6.122
 4077POPC   C2B53852  24.103  30.843   6.580
 4077POPC   C3B53853  23.938  30.683   6.977
 4077POPC   C4B53854  23.903  30.744   7.440
 4078POPC   NC353855  34.256  18.944   5.499
 4078POPC   PO453856  33.784  19.404   5.585
 4078POPC   GL153857  34.100  19.305   5.850
 4078POPC   GL253858  33.959  18.967   5.945
 4078POPC   C1A53859  33.965  19.379   6.258
 4078POPC   D2A53860  33.687  19.352   6.577
 4078POPC   C3A53861  33.849  19.388   6.995
 4078POPC   C4A53862  33.976  18.995   7.148
 4078POPC   C1B53863  33.517  19.048   6.175
 4078POPC   C2B53864  33.301  18.916   6.586
 4078POPC   C3B53865  33.451  18.865   7.024
 4078POPC   C4B53866  33.502  19.176   7.335
 4079POPC   NC353867  13.611  23.199   4.976
 4079POPC   PO453868  13.341  22.972   5.627
 4079POPC   GL153869  13.654  22.903   5.903
 4079POPC   GL253870  13.777  23.192   5.987
 4079POPC   C1A53871  13.660  22.724   6.306
 4079POPC   D2A53872  13.673  22.825   6.733
 4079POPC   C3A53873  13.731  22.474   6.993
 4079POPC   C4A53874  13.481  22.572   7.341
 4079POPC   C1B53875  13.873  23.186   6.395
 4079POPC   C2B53876  14.113  23.093   6.731
 4079POPC   C3B53877  14.045  22.876   7.097
 4079POPC   C4B53878  13.834  22.973   7.436
 4080POPC   NC353879  33.842  17.354   5.425
 4080POPC   PO453880  33.534  17.919   5.561
 4080POPC   GL153881  33.681  17.605   5.845
 4080POPC   GL253882  33.466  17.338   5.762
 4080POPC   C1A53883  33.904  17.653   6.268
 4080POPC   D2A53884  33.740  17.574   6.702
 4080POPC   C3A53885  34.003  17.776   7.031
 4080POPC   C4A53886  34.229  17.977   7.418
 4080POPC   C1B53887  33.608  17.256   6.192
 4080POPC   C2B53888  33.883  17.053   6.457
 4080POPC   C3B53889  33.836  17.101   6.886
 4080POPC   C4B53890  33.497  17.096   7.206
 4081POPC   NC353891  38.010  16.737   5.477
 4081POPC   PO453892  37.376  16.771   5.333
 4081POPC   GL153893  37.531  16.738   5.770
 4081POPC   GL253894  37.776  16.541   5.914
 4081POPC   C1A53895  37.520  16.917   6.195
 4081POPC   D2A53896  37.695  17.146   6.582
 4081POPC   C3A53897  37.592  16.966   7.014
 4081POPC   C4A53898  37.787  16.876   7.447
 4081POPC   C1B53899  37.369  16.396   6.130
 4081POPC   C2B53900  37.164  16.386   6.560
 4081POPC   C3B53901  37.450  16.370   6.924
 4081POPC   C4B53902  37.451  16.492   7.354
 4082POPC   NC353903   5.651   8.071   5.708
 4082POPC   PO453904   6.121   8.383   5.563
 4082POPC   GL153905   6.069   8.284   5.928
 4082POPC   GL253906   6.090   7.959   5.914
 4082POPC   C1A53907   5.868   8.472   6.252
 4082POPC   D2A53908   5.644   8.408   6.606
 4082POPC   C3A53909   5.883   8.358   6.929
 4082POPC   C4A53910   6.101   8.707   7.109
 4082POPC   C1B53911   5.848   7.978   6.320
 4082POPC   C2B53912   5.658   7.897   6.722
 4082POPC   C3B53913   5.435   7.819   7.115
 4082POPC   C4B53914   5.562   7.979   7.527
 4083POPC   NC353915  38.728  29.977   5.298
 4083POPC   PO453916  38.205  29.565   5.110
 4083POPC   GL153917  38.365  29.707   5.581
 4083POPC   GL253918  38.328  30.077   5.705
 4083POPC   C1A53919  38.594  29.714   6.027
 4083POPC   D2A53920  38.537  29.555   6.474
 4083POPC   C3A53921  38.638  29.771   6.886
 4083POPC   C4A53922  38.366  29.847   7.216
 4083POPC   C1B53923  38.498  30.237   6.102
 4083POPC   C2B53924  38.495  30.107   6.529
 4083POPC   C3B53925  38.436  30.279   6.953
 4083POPC   C4B53926  38.225  30.385   7.340
 4084POPC   NC353927  44.683  22.100   5.247
 4084POPC   PO453928   0.081  22.552   5.651
 4084POPC   GL153929  44.790  22.313   5.882
 4084POPC   GL253930  44.519  22.122   5.735
 4084POPC   C1A53931  44.601  22.277   6.293
 4084POPC   D2A53932  44.528  22.467   6.692
 4084POPC   C3A53933  44.800  22.350   7.042
 4084POPC   C4A53934  44.845  21.894   7.230
 4084POPC   C1B53935  44.360  21.873   6.105
 4084POPC   C2B53936  44.246  21.964   6.536
 4084POPC   C3B53937  44.421  22.009   6.956
 4084POPC   C4B53938  44.462  22.188   7.394
 4085POPC   NC353939  34.467   8.807   5.579
 4085POPC   PO453940  35.057   8.924   5.339
 4085POPC   GL153941  34.908   9.214   5.741
 4085POPC   GL253942  34.551   9.256   5.858
 4085POPC   C1A53943  34.877   9.278   6.234
 4085POPC   D2A53944  34.866   8.988   6.592
 4085POPC   C3A53945  34.717   8.981   7.042
 4085POPC   C4A53946  34.781   8.974   7.526
 4085POPC   C1B53947  34.505   8.928   6.208
 4085POPC   C2B53948  34.343   8.833   6.611
 4085POPC   C3B53949  34.286   8.669   6.998
 4085POPC   C4B53950  34.277   8.947   7.294
 4086POPC   NC353951   4.150  21.593   5.446
 4086POPC   PO453952   3.496  21.764   5.336
 4086POPC   GL153953   3.489  21.361   5.603
 4086POPC   GL253954   3.823  21.338   5.764
 4086POPC   C1A53955   3.323  21.205   6.036
 4086POPC   D2A53956   3.202  21.151   6.507
 4086POPC   C3A53957   3.438  21.364   6.870
 4086POPC   C4A53958   3.473  21.760   7.181
 4086POPC   C1B53959   3.996  21.167   6.176
 4086POPC   C2B53960   4.031  21.090   6.647
 4086POPC   C3B53961   3.820  21.066   7.068
 4086POPC   C4B53962   3.620  21.332   7.404
 4087POPC   NC353963  38.886   7.305   5.113
 4087POPC   PO453964  39.387   7.522   5.506
 4087POPC   GL153965  39.402   7.352   5.851
 4087POPC   GL253966  39.708   7.516   5.929
 4087POPC   C1A53967  39.214   7.412   6.237
 4087POPC   D2A53968  38.911   7.488   6.531
 4087POPC   C3A53969  39.108   7.477   6.907
 4087POPC   C4A53970  39.086   7.108   7.123
 4087POPC   C1B53971  39.691   7.145   6.226
 4087POPC   C2B53972  39.463   7.171   6.608
 4087POPC   C3B53973  39.557   7.256   6.998
 4087POPC   C4B53974  39.490   7.663   7.252
 4088POPC   NC353975  31.174  32.321   5.545
 4088POPC   PO453976  30.540  32.147   5.342
 4088POPC   GL153977  30.697  32.204   5.734
 4088POPC   GL253978  30.582  32.519   5.774
 4088POPC   C1A53979  30.851  32.314   6.156
 4088POPC   D2A53980  30.704  32.187   6.561
 4088POPC   C3A53981  30.815  32.402   6.935
 4088POPC   C4A53982  30.730  32.345   7.384
 4088POPC   C1B53983  30.336  32.329   6.113
 4088POPC   C2B53984  30.184  32.232   6.536
 4088POPC   C3B53985  30.337  32.181   6.967
 4088POPC   C4B53986  30.362  31.981   7.384
 4089POPC   NC353987  31.702  29.488   5.557
 4089POPC   PO453988  31.169  28.999   5.436
 4089POPC   GL153989  31.381  29.099   5.817
 4089POPC   GL253990  31.290  29.456   5.843
 4089POPC   C1A53991  31.346  28.890   6.244
 4089POPC   D2A53992  31.175  28.728   6.663
 4089POPC   C3A53993  31.324  28.687   7.103
 4089POPC   C4A53994  31.248  28.902   7.523
 4089POPC   C1B53995  31.455  29.409   6.248
 4089POPC   C2B53996  31.670  29.146   6.551
 4089POPC   C3B53997  31.563  29.127   6.963
 4089POPC   C4B53998  31.401  29.539   7.022
 4090POPC   NC353999  37.131  12.213   5.455
 4090POPC   PO454000  36.600  11.790   5.418
 4090POPC   GL154001  36.800  11.996   5.795
 4090POPC   GL254002  37.145  11.909   5.884
 4090POPC   C1A54003  36.842  12.079   6.290
 4090POPC   D2A54004  36.802  11.766   6.672
 4090POPC   C3A54005  36.923  11.900   7.111
 4090POPC   C4A54006  37.035  12.280   7.418
 4090POPC   C1B54007  37.291  11.854   6.319
 4090POPC   C2B54008  37.203  12.086   6.690
 4090POPC   C3B54009  37.377  12.146   7.065
 4090POPC   C4B54010  37.388  11.805   7.311
 4091POPC   NC354011  18.478  22.501   5.495
 4091POPC   PO454012  17.927  22.090   5.363
 4091POPC   GL154013  18.179  22.085   5.749
 4091POPC   GL254014  18.125  22.397   5.863
 4091POPC   C1A54015  18.382  21.986   6.141
 4091POPC   D2A54016  18.218  22.004   6.559
 4091POPC   C3A54017  18.268  21.772   6.920
 4091POPC   C4A54018  18.325  21.973   7.318
 4091POPC   C1B54019  18.457  22.478   6.167
 4091POPC   C2B54020  18.659  22.307   6.528
 4091POPC   C3B54021  18.531  22.216   6.926
 4091POPC   C4B54022  18.488  22.465   7.303
 4092POPC   NC354023  14.248  35.866   5.489
 4092POPC   PO454024  14.522  36.487   5.354
 4092POPC   GL154025  14.538  36.315   5.751
 4092POPC   GL254026  14.544  35.977   5.897
 4092POPC   C1A54027  14.690  36.421   6.124
 4092POPC   D2A54028  14.490  36.542   6.520
 4092POPC   C3A54029  14.652  36.489   6.921
 4092POPC   C4A54030  14.267  36.496   7.119
 4092POPC   C1B54031  14.299  36.130   6.248
 4092POPC   C2B54032  14.452  36.051   6.662
 4092POPC   C3B54033  14.419  36.012   7.102
 4092POPC   C4B54034  14.088  35.814   7.291
 4093POPC   NC354035  25.016  22.390   5.455
 4093POPC   PO454036  25.195  21.793   5.158
 4093POPC   GL154037  25.377  21.971   5.610
 4093POPC   GL254038  25.641  22.245   5.713
 4093POPC   C1A54039  25.431  21.857   6.086
 4093POPC   D2A54040  25.652  21.824   6.490
 4093POPC   C3A54041  25.551  21.764   6.928
 4093POPC   C4A54042  25.262  21.981   7.206
 4093POPC   C1B54043  25.370  22.356   6.093
 4093POPC   C2B54044  25.247  22.209   6.536
 4093POPC   C3B54045  25.179  22.389   6.955
 4093POPC   C4B54046  25.403  22.416   7.423
 4094POPC   NC354047   8.347  13.472   5.387
 4094POPC   PO454048   7.793  13.879   5.392
 4094POPC   GL154049   8.121  13.776   5.744
 4094POPC   GL254050   8.538  13.716   5.773
 4094POPC   C1A54051   8.176  13.503   6.119
 4094POPC   D2A54052   8.374  13.491   6.538
 4094POPC   C3A54053   8.181  13.663   6.892
 4094POPC   C4A54054   8.098  13.379   7.220
 4094POPC   C1B54055   8.590  13.823   6.180
 4094POPC   C2B54056   8.528  13.961   6.590
 4094POPC   C3B54057   8.705  13.773   6.932
 4094POPC   C4B54058   8.506  13.775   7.287
 4095POPC   NC354059  26.091  42.515   5.501
 4095POPC   PO454060  26.071  41.860   5.396
 4095POPC   GL154061  25.982  42.090   5.805
 4095POPC   GL254062  25.805  42.437   5.909
 4095POPC   C1A54063  26.158  42.187   6.224
 4095POPC   D2A54064  26.247  42.503   6.539
 4095POPC   C3A54065  26.169  42.337   6.942
 4095POPC   C4A54066  26.341  42.018   7.157
 4095POPC   C1B54067  25.746  42.597   6.348
 4095POPC   C2B54068  25.885  42.754   6.789
 4095POPC   C3B54069  25.799  42.599   7.207
 4095POPC   C4B54070  25.886  42.216   7.365
 4096POPC   NC354071   5.809  34.110   5.201
 4096POPC   PO454072   5.774  34.817   5.338
 4096POPC   GL154073   5.877  34.608   5.720
 4096POPC   GL254074   5.792  34.270   5.692
 4096POPC   C1A54075   5.980  34.692   6.154
 4096POPC   D2A54076   5.890  34.861   6.577
 4096POPC   C3A54077   6.065  34.630   6.916
 4096POPC   C4A54078   6.080  34.722   7.352
 4096POPC   C1B54079   5.624  34.294   6.102
 4096POPC   C2B54080   5.828  34.326   6.507
 4096POPC   C3B54081   5.637  34.331   6.910
 4096POPC   C4B54082   5.849  34.280   7.277
 4097POPC   NC354083  36.590   6.823   5.581
 4097POPC   PO454084  37.130   6.370   5.425
 4097POPC   GL154085  36.972   6.546   5.788
 4097POPC   GL254086  37.301   6.552   5.916
 4097POPC   C1A54087  36.935   6.730   6.231
 4097POPC   D2A54088  37.060   6.849   6.679
 4097POPC   C3A54089  36.790   6.646   6.961
 4097POPC   C4A54090  36.539   6.696   7.367
 4097POPC   C1B54091  37.462   6.420   6.317
 4097POPC   C2B54092  37.471   6.572   6.748
 4097POPC   C3B54093  37.236   6.602   7.169
 4097POPC   C4B54094  37.191   6.224   7.440
 4098POPC   NC354095  26.091  44.963   5.411
 4098POPC   PO454096  26.193  44.273   5.497
 4098POPC   GL154097  25.908  44.523   5.754
 4098POPC   GL254098  26.010  44.863   5.911
 4098POPC   C1A54099  25.752  44.504   6.173
 4098POPC   D2A54100  26.004  44.672   6.526
 4098POPC   C3A54101  25.946  44.527   6.963
 4098POPC   C4A54102  25.881  44.787   7.333
 4098POPC   C1B54103  26.403  44.717   6.092
 4098POPC   C2B54104  26.562  44.787   6.516
 4098POPC   C3B54105  26.336  44.903   6.879
 4098POPC   C4B54106  26.391  44.890   7.319
 4099POPC   NC354107  21.827  41.623   5.563
 4099POPC   PO454108  22.408  41.803   5.262
 4099POPC   GL154109  22.329  41.675   5.700
 4099POPC   GL254110  22.442  41.349   5.812
 4099POPC   C1A54111  22.175  41.729   6.141
 4099POPC   D2A54112  22.376  41.727   6.554
 4099POPC   C3A54113  22.094  41.779   6.870
 4099POPC   C4A54114  22.118  41.614   7.271
 4099POPC   C1B54115  22.603  41.438   6.194
 4099POPC   C2B54116  22.588  41.211   6.573
 4099POPC   C3B54117  22.472  41.355   6.974
 4099POPC   C4B54118  22.486  41.239   7.415
 4100POPC   NC354119  11.018  13.315   5.444
 4100POPC   PO454120  11.476  13.765   5.281
 4100POPC   GL154121  11.365  13.614   5.728
 4100POPC   GL254122  11.052  13.782   5.877
 4100POPC   C1A54123  11.399  13.626   6.211
 4100POPC   D2A54124  11.162  13.784   6.571
 4100POPC   C3A54125  11.220  13.642   7.009
 4100POPC   C4A54126  11.560  13.542   7.282
 4100POPC   C1B54127  10.785  13.964   6.253
 4100POPC   C2B54128  10.746  14.047   6.717
 4100POPC   C3B54129  10.832  13.965   7.129
 4100POPC   C4B54130  11.020  13.767   7.483
 4101POPC   NC354131   7.514  31.166   5.503
 4101POPC   PO454132   7.055  31.643   5.517
 4101POPC   GL154133   7.423  31.641   5.817
 4101POPC   GL254134   7.711  31.393   5.921
 4101POPC   C1A54135   7.492  31.698   6.253
 4101POPC   D2A54136   7.360  31.496   6.612
 4101POPC   C3A54137   7.463  31.561   6.990
 4101POPC   C4A54138   7.191  31.856   7.133
 4101POPC   C1B54139   7.340  31.199   6.185
 4101POPC   C2B54140   7.054  31.106   6.570
 4101POPC   C3B54141   7.127  31.100   7.040
 4101POPC   C4B54142   7.159  30.946   7.485
 4102POPC   NC354143  36.311  16.919   5.386
 4102POPC   PO454144  35.678  16.646   5.221
 4102POPC   GL154145  35.973  16.673   5.682
 4102POPC   GL254146  36.182  16.923   5.856
 4102POPC   C1A54147  36.173  16.481   6.072
 4102POPC   D2A54148  35.973  16.335   6.440
 4102POPC   C3A54149  36.147  16.334   6.859
 4102POPC   C4A54150  36.247  16.531   7.222
 4102POPC   C1B54151  35.976  16.967   6.220
 4102POPC   C2B54152  35.881  17.136   6.603
 4102POPC   C3B54153  36.062  16.944   6.962
 4102POPC   C4B54154  36.281  17.033   7.337
 4103POPC   NC354155  35.032  21.396   5.369
 4103POPC   PO454156  35.619  21.785   5.295
 4103POPC   GL154157  35.440  21.767   5.740
 4103POPC   GL254158  35.186  21.503   5.844
 4103POPC   C1A54159  35.571  21.595   6.173
 4103POPC   D2A54160  35.674  21.431   6.601
 4103POPC   C3A54161  35.502  21.703   6.931
 4103POPC   C4A54162  35.313  21.671   7.340
 4103POPC   C1B54163  35.236  21.210   6.212
 4103POPC   C2B54164  35.119  21.190   6.663
 4103POPC   C3B54165  35.190  21.231   7.116
 4103POPC   C4B54166  35.060  21.256   7.562
 4104POPC   NC354167  26.333   9.051   5.285
 4104POPC   PO454168  25.755   8.738   5.392
 4104POPC   GL154169  26.059   8.921   5.735
 4104POPC   GL254170  26.245   9.250   5.764
 4104POPC   C1A54171  26.234   8.987   6.189
 4104POPC   D2A54172  26.439   8.955   6.595
 4104POPC   C3A54173  26.110   9.013   6.899
 4104POPC   C4A54174  26.139   9.095   7.341
 4104POPC   C1B54175  25.829   9.274   6.023
 4104POPC   C2B54176  25.690   9.308   6.419
 4104POPC   C3B54177  25.667   9.318   6.862
 4104POPC   C4B54178  25.687   9.287   7.283
 4105POPC   NC354179  21.907  17.711   5.221
 4105POPC   PO454180  22.230  17.268   5.398
 4105POPC   GL154181  22.375  17.448   5.759
 4105POPC   GL254182  22.273  17.803   5.728
 4105POPC   C1A54183  22.469  17.374   6.174
 4105POPC   D2A54184  22.334  17.572   6.523
 4105POPC   C3A54185  22.363  17.435   6.900
 4105POPC   C4A54186  22.583  17.689   7.138
 4105POPC   C1B54187  22.063  17.712   6.119
 4105POPC   C2B54188  21.944  17.922   6.527
 4105POPC   C3B54189  21.830  17.925   6.973
 4105POPC   C4B54190  21.960  17.566   7.228
 4106POPC   NC354191  37.951  35.610   5.530
 4106POPC   PO454192  37.361  35.247   5.354
 4106POPC   GL154193  37.514  35.297   5.767
 4106POPC   GL254194  37.471  35.650   5.724
 4106POPC   C1A54195  37.592  35.185   6.215
 4106POPC   D2A54196  37.959  35.196   6.477
 4106POPC   C3A54197  38.028  35.539   6.758
 4106POPC   C4A54198  37.919  35.632   7.169
 4106POPC   C1B54199  37.711  35.690   6.120
 4106POPC   C2B54200  37.574  35.603   6.527
 4106POPC   C3B54201  37.456  35.587   6.937
 4106POPC   C4B54202  37.498  35.313   7.275
 4107POPC   NC354203  10.107  12.926   5.583
 4107POPC   PO454204   9.486  12.578   5.511
 4107POPC   GL154205   9.677  12.803   5.830
 4107POPC   GL254206   9.834  12.493   5.883
 4107POPC   C1A54207   9.833  12.783   6.281
 4107POPC   D2A54208   9.693  12.909   6.669
 4107POPC   C3A54209   9.942  12.822   7.014
 4107POPC   C4A54210   9.711  13.006   7.328
 4107POPC   C1B54211   9.407  12.496   6.144
 4107POPC   C2B54212   9.455  12.391   6.561
 4107POPC   C3B54213   9.405  12.569   6.939
 4107POPC   C4B54214   9.589  12.524   7.324
 4108POPC   NC354215  41.730   0.355   5.387
 4108POPC   PO454216  41.108   0.342   5.353
 4108POPC   GL154217  41.365   0.564   5.705
 4108POPC   GL254218  41.642   0.820   5.623
 4108POPC   C1A54219  41.460   0.385   6.138
 4108POPC   D2A54220  41.616   0.165   6.526
 4108POPC   C3A54221  41.503   0.401   6.910
 4108POPC   C4A54222  41.482   0.386   7.360
 4108POPC   C1B54223  41.758   0.780   6.054
 4108POPC   C2B54224  41.750   0.670   6.510
 4108POPC   C3B54225  41.932   0.672   6.950
 4108POPC   C4B54226  41.851   0.739   7.391
 4109POPC   NC354227  40.812  37.127   5.442
 4109POPC   PO454228  41.176  36.696   5.136
 4109POPC   GL154229  41.117  36.612   5.683
 4109POPC   GL254230  40.790  36.751   5.788
 4109POPC   C1A54231  41.081  36.777   6.177
 4109POPC   D2A54232  40.657  36.817   6.471
 4109POPC   C3A54233  40.688  36.658   6.910
 4109POPC   C4A54234  41.043  36.788   7.150
 4109POPC   C1B54235  40.715  37.152   6.088
 4109POPC   C2B54236  40.748  37.319   6.540
 4109POPC   C3B54237  40.666  37.185   7.010
 4109POPC   C4B54238  40.620  37.316   7.477
 4110POPC   NC354239  23.944  30.168   5.381
 4110POPC   PO454240  23.610  29.607   5.223
 4110POPC   GL154241  23.496  29.866   5.601
 4110POPC   GL254242  23.816  29.825   5.737
 4110POPC   C1A54243  23.415  30.013   6.054
 4110POPC   D2A54244  23.259  29.877   6.491
 4110POPC   C3A54245  23.494  29.935   6.910
 4110POPC   C4A54246  23.730  29.621   7.133
 4110POPC   C1B54247  23.955  30.061   6.090
 4110POPC   C2B54248  23.862  29.993   6.535
 4110POPC   C3B54249  24.014  30.032   6.978
 4110POPC   C4B54250  24.160  30.337   7.279
 4111POPC   NC354251  10.377  17.958   5.224
 4111POPC   PO454252  10.783  17.502   5.417
 4111POPC   GL154253  10.561  17.494   5.785
 4111POPC   GL254254  10.276  17.340   5.662
 4111POPC   C1A54255  10.666  17.313   6.187
 4111POPC   D2A54256  10.564  17.535   6.555
 4111POPC   C3A54257  10.639  17.405   6.954
 4111POPC   C4A54258  10.595  17.773   7.137
 4111POPC   C1B54259  10.175  17.357   6.118
 4111POPC   C2B54260  10.219  17.176   6.500
 4111POPC   C3B54261  10.268  17.066   6.924
 4111POPC   C4B54262  10.270  17.318   7.319
 4112POPC   NC354263  10.603  12.132   5.346
 4112POPC   PO454264  10.064  12.543   5.280
 4112POPC   GL154265  10.246  12.249   5.695
 4112POPC   GL254266  10.632  12.220   5.838
 4112POPC   C1A54267  10.234  12.173   6.149
 4112POPC   D2A54268  10.231  12.399   6.544
 4112POPC   C3A54269  10.371  12.128   6.874
 4112POPC   C4A54270  10.490  11.943   7.278
 4112POPC   C1B54271  10.885  12.213   6.214
 4112POPC   C2B54272  10.808  12.391   6.622
 4112POPC   C3B54273  10.869  12.146   6.988
 4112POPC   C4B54274  11.176  12.116   7.296
 4113POPC   NC354275   7.612  43.311   5.470
 4113POPC   PO454276   7.256  42.820   5.472
 4113POPC   GL154277   7.279  43.162   5.822
 4113POPC   GL254278   7.064  43.459   5.759
 4113POPC   C1A54279   7.520  43.205   6.232
 4113POPC   D2A54280   7.561  42.863   6.536
 4113POPC   C3A54281   7.564  42.933   6.966
 4113POPC   C4A54282   7.649  43.291   7.212
 4113POPC   C1B54283   7.044  43.393   6.215
 4113POPC   C2B54284   7.094  43.122   6.595
 4113POPC   C3B54285   7.180  43.277   7.005
 4113POPC   C4B54286   7.095  43.511   7.371
 4114POPC   NC354287  42.846  18.672   5.356
 4114POPC   PO454288  42.236  19.109   5.415
 4114POPC   GL154289  42.246  18.940   5.813
 4114POPC   GL254290  42.529  18.718   5.768
 4114POPC   C1A54291  42.149  19.114   6.227
 4114POPC   D2A54292  42.248  19.317   6.603
 4114POPC   C3A54293  42.170  19.089   6.965
 4114POPC   C4A54294  41.957  19.272   7.246
 4114POPC   C1B54295  42.675  18.951   6.129
 4114POPC   C2B54296  42.664  19.018   6.577
 4114POPC   C3B54297  42.683  19.122   7.011
 4114POPC   C4B54298  42.594  18.838   7.348
 4115POPC   NC354299  30.200  41.361   5.228
 4115POPC   PO454300  29.723  41.795   5.298
 4115POPC   GL154301  29.828  41.621   5.699
 4115POPC   GL254302  30.089  41.373   5.719
 4115POPC   C1A54303  29.714  41.676   6.110
 4115POPC   D2A54304  29.906  41.641   6.521
 4115POPC   C3A54305  29.723  41.388   6.828
 4115POPC   C4A54306  29.802  41.430   7.246
 4115POPC   C1B54307  30.137  41.382   6.143
 4115POPC   C2B54308  30.107  41.148   6.525
 4115POPC   C3B54309  30.207  41.309   6.919
 4115POPC   C4B54310  30.364  41.179   7.278
 4116POPC   NC354311  27.840  28.772   5.494
 4116POPC   PO454312  27.419  29.334   5.514
 4116POPC   GL154313  27.370  29.231   5.886
 4116POPC   GL254314  27.594  28.989   5.901
 4116POPC   C1A54315  27.436  29.436   6.223
 4116POPC   D2A54316  27.709  29.336   6.502
 4116POPC   C3A54317  27.413  29.233   6.768
 4116POPC   C4A54318  27.169  29.477   7.092
 4116POPC   C1B54319  27.493  28.924   6.316
 4116POPC   C2B54320  27.788  28.854   6.687
 4116POPC   C3B54321  27.735  28.837   7.110
 4116POPC   C4B54322  27.411  29.055   7.223
 4117POPC   NC354323   3.045  39.019   5.351
 4117POPC   PO454324   2.597  39.460   5.207
 4117POPC   GL154325   2.755  39.203   5.709
 4117POPC   GL254326   2.918  38.862   5.830
 4117POPC   C1A54327   2.847  39.335   6.152
 4117POPC   D2A54328   2.722  39.606   6.477
 4117POPC   C3A54329   2.892  39.516   6.907
 4117POPC   C4A54330   2.703  39.359   7.277
 4117POPC   C1B54331   2.586  38.893   6.127
 4117POPC   C2B54332   2.705  39.040   6.522
 4117POPC   C3B54333   2.711  38.951   6.899
 4117POPC   C4B54334   2.477  38.887   7.256
 4118POPC   NC354335  25.046  17.559   5.337
 4118POPC   PO454336  25.722  17.543   5.327
 4118POPC   GL154337  25.473  17.606   5.733
 4118POPC   GL254338  25.090  17.639   5.832
 4118POPC   C1A54339  25.449  17.780   6.153
 4118POPC   D2A54340  25.125  17.651   6.431
 4118POPC   C3A54341  25.276  17.657   6.837
 4118POPC   C4A54342  25.409  17.647   7.235
 4118POPC   C1B54343  25.235  17.265   6.075
 4118POPC   C2B54344  25.324  17.176   6.520
 4118POPC   C3B54345  25.238  17.180   6.964
 4118POPC   C4B54346  25.406  17.156   7.342
 4119POPC   NC354347  20.493  19.327   5.362
 4119POPC   PO454348  20.946  18.853   5.406
 4119POPC   GL154349  20.695  18.994   5.769
 4119POPC   GL254350  20.844  19.332   5.724
 4119POPC   C1A54351  20.575  18.889   6.230
 4119POPC   D2A54352  20.852  18.847   6.636
 4119POPC   C3A54353  20.730  18.866   7.065
 4119POPC   C4A54354  20.291  18.856   7.212
 4119POPC   C1B54355  20.827  19.330   6.151
 4119POPC   C2B54356  20.663  19.314   6.577
 4119POPC   C3B54357  20.544  19.328   6.971
 4119POPC   C4B54358  20.772  19.310   7.343
 4120POPC   NC354359  41.194  42.465   5.505
 4120POPC   PO454360  41.718  42.023   5.460
 4120POPC   GL154361  41.641  42.332   5.825
 4120POPC   GL254362  41.304  42.361   6.001
 4120POPC   C1A54363  41.754  42.427   6.278
 4120POPC   D2A54364  41.878  42.299   6.733
 4120POPC   C3A54365  41.674  42.169   7.149
 4120POPC   C4A54366  41.709  42.161   7.620
 4120POPC   C1B54367  41.382  42.080   6.363
 4120POPC   C2B54368  41.495  41.865   6.736
 4120POPC   C3B54369  41.290  41.836   7.123
 4120POPC   C4B54370  41.256  41.971   7.514
 4121POPC   NC354371  22.626  41.372   5.331
 4121POPC   PO454372  22.835  40.690   5.365
 4121POPC   GL154373  22.773  40.972   5.675
 4121POPC   GL254374  22.994  40.774   5.847
 4121POPC   C1A54375  22.626  40.935   6.117
 4121POPC   D2A54376  22.902  40.763   6.423
 4121POPC   C3A54377  22.788  40.811   6.848
 4121POPC   C4A54378  22.977  40.785   7.264
 4121POPC   C1B54379  23.121  40.394   6.076
 4121POPC   C2B54380  23.172  40.214   6.469
 4121POPC   C3B54381  23.112  40.415   6.850
 4121POPC   C4B54382  23.374  40.502   7.235
 4122POPC   NC354383  15.316  10.992   5.531
 4122POPC   PO454384  14.872  11.536   5.447
 4122POPC   GL154385  15.014  11.315   5.802
 4122POPC   GL254386  15.366  11.383   5.878
 4122POPC   C1A54387  15.043  11.204   6.237
 4122POPC   D2A54388  15.208  11.379   6.622
 4122POPC   C3A54389  15.063  11.231   7.007
 4122POPC   C4A54390  14.925  11.475   7.314
 4122POPC   C1B54391  15.486  11.614   6.250
 4122POPC   C2B54392  15.566  11.769   6.685
 4122POPC   C3B54393  15.328  11.666   7.058
 4122POPC   C4B54394  15.410  11.343   7.380
 4123POPC   NC354395  28.892  44.356   5.149
 4123POPC   PO454396  28.389  43.961   5.476
 4123POPC   GL154397  28.330  43.882   5.880
 4123POPC   GL254398  28.058  44.129   5.855
 4123POPC   C1A54399  28.432  43.748   6.318
 4123POPC   D2A54400  28.465  43.984   6.719
 4123POPC   C3A54401  28.607  43.799   7.122
 4123POPC   C4A54402  28.490  43.777   7.572
 4123POPC   C1B54403  28.099  44.146   6.271
 4123POPC   C2B54404  28.189  44.406   6.586
 4123POPC   C3B54405  28.144  44.293   7.013
 4123POPC   C4B54406  28.408  44.227   7.355
 4124POPC   NC354407  15.191  40.368   5.140
 4124POPC   PO454408  14.989  40.895   5.464
 4124POPC   GL154409  15.156  40.657   5.792
 4124POPC   GL254410  15.410  40.422   5.665
 4124POPC   C1A54411  15.199  40.851   6.216
 4124POPC   D2A54412  14.970  40.945   6.601
 4124POPC   C3A54413  15.153  40.889   7.015
 4124POPC   C4A54414  15.391  40.917   7.426
 4124POPC   C1B54415  15.368  40.378   6.161
 4124POPC   C2B54416  15.345  40.561   6.611
 4124POPC   C3B54417  15.528  40.534   7.027
 4124POPC   C4B54418  15.171  40.432   7.258
 4125POPC   NC354419  21.413   1.783   5.283
 4125POPC   PO454420  21.788   2.359   5.352
 4125POPC   GL154421  21.469   2.136   5.658
 4125POPC   GL254422  21.403   1.771   5.784
 4125POPC   C1A54423  21.556   2.103   6.125
 4125POPC   D2A54424  21.473   1.826   6.482
 4125POPC   C3A54425  21.419   1.939   6.923
 4125POPC   C4A54426  21.661   2.136   7.245
 4125POPC   C1B54427  21.106   1.848   6.140
 4125POPC   C2B54428  20.946   1.861   6.574
 4125POPC   C3B54429  20.950   1.681   7.006
 4125POPC   C4B54430  21.132   1.897   7.381
 4126POPC   NC354431   1.004   8.826   5.433
 4126POPC   PO454432   0.338   9.060   5.493
 4126POPC   GL154433   0.511   8.888   5.829
 4126POPC   GL254434   0.182   8.916   6.016
 4126POPC   C1A54435   0.747   8.714   6.135
 4126POPC   D2A54436   0.777   8.895   6.537
 4126POPC   C3A54437   0.623   8.687   6.927
 4126POPC   C4A54438   0.660   8.904   7.319
 4126POPC   C1B54439   0.395   9.309   6.128
 4126POPC   C2B54440   0.553   9.404   6.523
 4126POPC   C3B54441   0.600   9.220   6.915
 4126POPC   C4B54442   0.222   9.110   7.171
 4127POPC   NC354443  41.009  27.713   5.184
 4127POPC   PO454444  40.505  27.370   5.527
 4127POPC   GL154445  40.605  27.650   5.859
 4127POPC   GL254446  40.901  27.759   5.746
 4127POPC   C1A54447  40.675  27.701   6.284
 4127POPC   D2A54448  40.848  27.837   6.661
 4127POPC   C3A54449  40.577  27.681   6.966
 4127POPC   C4A54450  40.645  27.387   7.274
 4127POPC   C1B54451  41.000  27.376   6.058
 4127POPC   C2B54452  41.133  27.378   6.519
 4127POPC   C3B54453  41.080  27.483   6.972
 4127POPC   C4B54454  41.120  27.265   7.358
 4128POPC   NC354455   6.596  42.001   5.430
 4128POPC   PO454456   6.519  42.608   5.348
 4128POPC   GL154457   6.557  42.546   5.796
 4128POPC   GL254458   6.504  42.188   5.895
 4128POPC   C1A54459   6.502  42.561   6.234
 4128POPC   D2A54460   6.317  42.630   6.596
 4128POPC   C3A54461   6.450  42.531   7.037
 4128POPC   C4A54462   6.466  42.177   7.267
 4128POPC   C1B54463   6.623  42.081   6.318
 4128POPC   C2B54464   6.669  42.201   6.727
 4128POPC   C3B54465   6.943  42.321   7.061
 4128POPC   C4B54466   7.284  42.352   7.376
 4129POPC   NC354467  14.392  38.787   5.395
 4129POPC   PO454468  14.448  39.406   5.225
 4129POPC   GL154469  14.321  39.283   5.654
 4129POPC   GL254470  14.611  39.340   5.820
 4129POPC   C1A54471  14.193  39.377   6.123
 4129POPC   D2A54472  13.954  39.479   6.524
 4129POPC   C3A54473  14.177  39.382   6.927
 4129POPC   C4A54474  14.230  39.010   7.214
 4129POPC   C1B54475  14.640  39.130   6.212
 4129POPC   C2B54476  14.635  39.289   6.619
 4129POPC   C3B54477  14.672  39.516   6.999
 4129POPC   C4B54478  14.612  39.360   7.358
 4130POPC   NC354479  32.911  26.554   5.413
 4130POPC   PO454480  33.211  27.094   5.383
 4130POPC   GL154481  33.042  26.933   5.751
 4130POPC   GL254482  33.216  26.639   5.836
 4130POPC   C1A54483  32.760  26.826   6.115
 4130POPC   D2A54484  32.808  26.647   6.514
 4130POPC   C3A54485  32.732  26.927   6.848
 4130POPC   C4A54486  32.986  26.909   7.222
 4130POPC   C1B54487  33.255  26.784   6.239
 4130POPC   C2B54488  33.300  26.544   6.637
 4130POPC   C3B54489  33.183  26.457   7.072
 4130POPC   C4B54490  33.346  26.598   7.480
 4131POPC   NC354491  27.842  31.176   5.318
 4131POPC   PO454492  27.301  31.691   5.200
 4131POPC   GL154493  27.639  31.619   5.558
 4131POPC   GL254494  27.466  31.793   5.841
 4131POPC   C1A54495  27.842  31.434   5.974
 4131POPC   D2A54496  27.678  31.324   6.418
 4131POPC   C3A54497  27.737  31.427   6.875
 4131POPC   C4A54498  27.542  31.496   7.280
 4131POPC   C1B54499  27.820  31.924   6.109
 4131POPC   C2B54500  27.974  31.750   6.488
 4131POPC   C3B54501  27.882  31.920   6.902
 4131POPC   C4B54502  27.948  31.779   7.293
 4132POPC   NC354503   3.530  12.964   5.373
 4132POPC   PO454504   3.005  13.205   5.660
 4132POPC   GL154505   3.329  12.970   5.902
 4132POPC   GL254506   3.435  12.650   5.776
 4132POPC   C1A54507   3.463  12.854   6.337
 4132POPC   D2A54508   3.831  12.898   6.638
 4132POPC   C3A54509   3.750  12.927   7.082
 4132POPC   C4A54510   3.351  12.955   7.314
 4132POPC   C1B54511   3.764  12.540   6.062
 4132POPC   C2B54512   3.712  12.413   6.490
 4132POPC   C3B54513   3.481  12.536   6.853
 4132POPC   C4B54514   3.486  12.323   7.236
 4133POPC   NC354515  34.606  39.224   5.465
 4133POPC   PO454516  34.024  38.894   5.267
 4133POPC   GL154517  34.361  38.836   5.657
 4133POPC   GL254518  34.352  39.130   5.874
 4133POPC   C1A54519  34.528  38.743   6.121
 4133POPC   D2A54520  34.479  39.019   6.501
 4133POPC   C3A54521  34.537  38.905   6.949
 4133POPC   C4A54522  34.533  39.088   7.386
 4133POPC   C1B54523  34.528  39.427   6.141
 4133POPC   C2B54524  34.711  39.462   6.513
 4133POPC   C3B54525  34.648  39.411   6.909
 4133POPC   C4B54526  34.562  39.577   7.300
 4134POPC   NC354527  11.419  26.816   5.412
 4134POPC   PO454528  10.899  26.339   5.625
 4134POPC   GL154529  11.284  26.570   5.838
 4134POPC   GL254530  11.291  26.949   5.908
 4134POPC   C1A54531  11.533  26.521   6.195
 4134POPC   D2A54532  11.547  26.557   6.641
 4134POPC   C3A54533  11.349  26.888   6.843
 4134POPC   C4A54534  11.429  26.865   7.267
 4134POPC   C1B54535  11.356  27.219   6.269
 4134POPC   C2B54536  11.308  27.392   6.670
 4134POPC   C3B54537  11.182  27.315   7.092
 4134POPC   C4B54538  10.950  27.000   7.300
 4135POPC   NC354539   7.555  44.358   5.463
 4135POPC   PO454540   7.341  43.699   5.388
 4135POPC   GL154541   7.540  43.711   5.783
 4135POPC   GL254542   7.655  44.017   5.800
 4135POPC   C1A54543   7.495  43.726   6.231
 4135POPC   D2A54544   7.348  43.557   6.605
 4135POPC   C3A54545   7.397  43.796   6.962
 4135POPC   C4A54546   7.173  43.998   7.247
 4135POPC   C1B54547   7.760  44.161   6.159
 4135POPC   C2B54548   7.633  44.178   6.540
 4135POPC   C3B54549   7.802  44.263   6.930
 4135POPC   C4B54550   7.647  44.166   7.316
 4136POPC   NC354551  16.746  18.706   5.097
 4136POPC   PO454552  16.829  19.309   5.389
 4136POPC   GL154553  16.834  19.125   5.777
 4136POPC   GL254554  16.769  18.816   5.645
 4136POPC   C1A54555  17.007  18.939   6.157
 4136POPC   D2A54556  16.983  19.037   6.596
 4136POPC   C3A54557  16.647  19.003   6.906
 4136POPC   C4A54558  16.871  19.012   7.280
 4136POPC   C1B54559  16.534  18.787   6.019
 4136POPC   C2B54560  16.538  18.743   6.455
 4136POPC   C3B54561  16.379  18.552   6.803
 4136POPC   C4B54562  16.511  18.555   7.199
 4137POPC   NC354563  17.157  10.458   5.489
 4137POPC   PO454564  16.637  10.816   5.262
 4137POPC   GL154565  16.835  10.761   5.696
 4137POPC   GL254566  16.719  10.446   5.754
 4137POPC   C1A54567  16.825  10.665   6.188
 4137POPC   D2A54568  16.660  10.688   6.593
 4137POPC   C3A54569  16.916  10.649   6.975
 4137POPC   C4A54570  16.949  10.573   7.404
 4137POPC   C1B54571  16.582  10.208   6.083
 4137POPC   C2B54572  16.728  10.136   6.478
 4137POPC   C3B54573  16.719  10.174   6.887
 4137POPC   C4B54574  16.798  10.103   7.273
 4138POPC   NC354575  20.997  41.375   5.411
 4138POPC   PO454576  20.570  41.886   5.449
 4138POPC   GL154577  20.721  41.606   5.791
 4138POPC   GL254578  20.632  41.893   5.980
 4138POPC   C1A54579  20.788  41.512   6.263
 4138POPC   D2A54580  20.782  41.843   6.605
 4138POPC   C3A54581  20.960  41.733   6.969
 4138POPC   C4A54582  20.766  41.423   7.228
 4138POPC   C1B54583  20.212  42.063   6.047
 4138POPC   C2B54584  20.175  42.200   6.484
 4138POPC   C3B54585  20.353  42.026   6.873
 4138POPC   C4B54586  20.620  41.956   7.274
 4139POPC   NC354587   3.792  11.828   5.211
 4139POPC   PO454588   3.653  12.514   5.333
 4139POPC   GL154589   3.695  12.180   5.686
 4139POPC   GL254590   3.478  11.885   5.706
 4139POPC   C1A54591   3.723  12.025   6.136
 4139POPC   D2A54592   3.573  11.902   6.555
 4139POPC   C3A54593   3.706  11.894   6.991
 4139POPC   C4A54594   3.542  11.845   7.420
 4139POPC   C1B54595   3.228  11.854   6.122
 4139POPC   C2B54596   3.130  11.680   6.535
 4139POPC   C3B54597   3.182  11.847   6.985
 4139POPC   C4B54598   3.051  11.642   7.365
 4140POPC   NC354599  17.312  21.513   5.459
 4140POPC   PO454600  17.949  21.297   5.448
 4140POPC   GL154601  17.670  21.298   5.818
 4140POPC   GL254602  17.541  21.644   5.905
 4140POPC   C1A54603  17.718  21.197   6.261
 4140POPC   D2A54604  17.653  20.982   6.648
 4140POPC   C3A54605  17.658  21.195   7.062
 4140POPC   C4A54606  17.323  21.213   7.407
 4140POPC   C1B54607  17.290  21.509   6.253
 4140POPC   C2B54608  17.389  21.402   6.651
 4140POPC   C3B54609  17.276  21.541   7.028
 4140POPC   C4B54610  17.445  21.722   7.405
 4141POPC   NC354611  10.227  23.133   5.490
 4141POPC   PO454612  10.617  22.699   5.381
 4141POPC   GL154613  10.692  22.920   5.736
 4141POPC   GL254614  11.025  22.815   5.839
 4141POPC   C1A54615  10.483  22.832   6.132
 4141POPC   D2A54616  10.470  22.549   6.501
 4141POPC   C3A54617  10.526  22.786   6.885
 4141POPC   C4A54618  10.340  22.915   7.304
 4141POPC   C1B54619  10.931  23.126   6.161
 4141POPC   C2B54620  10.709  23.134   6.531
 4141POPC   C3B54621  10.951  23.042   6.892
 4141POPC   C4B54622  10.837  22.863   7.304
 4142POPC   NC354623  39.638  30.871   5.503
 4142POPC   PO454624  40.047  30.409   5.192
 4142POPC   GL154625  40.015  30.537   5.694
 4142POPC   GL254626  39.840  30.780   5.944
 4142POPC   C1A54627  40.283  30.662   6.114
 4142POPC   D2A54628  40.391  30.917   6.514
 4142POPC   C3A54629  40.225  30.794   6.934
 4142POPC   C4A54630  39.984  30.645   7.310
 4142POPC   C1B54631  39.882  31.079   6.288
 4142POPC   C2B54632  39.638  31.153   6.658
 4142POPC   C3B54633  39.771  31.046   7.041
 4142POPC   C4B54634  40.099  31.141   7.328
 4143POPC   NC354635  37.640   9.717   5.246
 4143POPC   PO454636  37.991   9.306   5.641
 4143POPC   GL154637  37.638   9.522   5.733
 4143POPC   GL254638  37.741   9.875   5.721
 4143POPC   C1A54639  37.476   9.509   6.140
 4143POPC   D2A54640  37.341   9.744   6.490
 4143POPC   C3A54641  37.499   9.628   6.865
 4143POPC   C4A54642  37.434   9.673   7.266
 4143POPC   C1B54643  37.656   9.975   6.147
 4143POPC   C2B54644  37.848   9.899   6.578
 4143POPC   C3B54645  37.778  10.024   7.023
 4143POPC   C4B54646  37.638  10.101   7.423
 4144POPC   NC354647  15.996  18.418   5.450
 4144POPC   PO454648  16.320  17.954   5.422
 4144POPC   GL154649  16.061  18.041   5.793
 4144POPC   GL254650  15.716  18.013   5.694
 4144POPC   C1A54651  15.846  18.274   6.132
 4144POPC   D2A54652  15.904  18.382   6.558
 4144POPC   C3A54653  15.739  18.460   6.948
 4144POPC   C4A54654  16.045  18.312   7.226
 4144POPC   C1B54655  15.617  17.805   6.098
 4144POPC   C2B54656  15.637  17.707   6.566
 4144POPC   C3B54657  15.802  17.936   6.934
 4144POPC   C4B54658  15.680  17.955   7.358
 4145POPC   NC354659  44.751  15.573   5.398
 4145POPC   PO454660  44.829  14.926   5.396
 4145POPC   GL154661  44.748  15.168   5.752
 4145POPC   GL254662  44.488  14.940   5.883
 4145POPC   C1A54663  44.669  15.334   6.186
 4145POPC   D2A54664  44.566  15.179   6.628
 4145POPC   C3A54665  44.763  15.307   7.039
 4145POPC   C4A54666  44.519  15.432   7.412
 4145POPC   C1B54667  44.258  14.843   6.280
 4145POPC   C2B54668  44.311  14.752   6.745
 4145POPC   C3B54669  44.339  15.008   7.139
 4145POPC   C4B54670  44.296  15.008   7.621
 4146POPC   NC354671  38.520  22.725   5.345
 4146POPC   PO454672  38.717  23.301   5.333
 4146POPC   GL154673  38.397  23.167   5.654
 4146POPC   GL254674  38.369  22.802   5.819
 4146POPC   C1A54675  38.191  23.236   6.063
 4146POPC   D2A54676  38.284  23.302   6.530
 4146POPC   C3A54677  38.427  22.999   6.873
 4146POPC   C4A54678  38.612  23.102   7.303
 4146POPC   C1B54679  38.701  22.596   6.112
 4146POPC   C2B54680  38.630  22.381   6.495
 4146POPC   C3B54681  38.701  22.538   6.872
 4146POPC   C4B54682  38.567  22.618   7.220
 4147POPC   NC354683  27.110  30.509   5.457
 4147POPC   PO454684  26.615  31.023   5.489
 4147POPC   GL154685  26.948  30.916   5.759
 4147POPC   GL254686  26.827  30.608   5.867
 4147POPC   C1A54687  26.959  30.945   6.221
 4147POPC   D2A54688  26.590  30.985   6.504
 4147POPC   C3A54689  26.626  30.791   6.909
 4147POPC   C4A54690  27.008  30.727   7.165
 4147POPC   C1B54691  26.637  30.497   6.259
 4147POPC   C2B54692  26.827  30.352   6.653
 4147POPC   C3B54693  26.718  30.320   7.091
 4147POPC   C4B54694  26.665  30.543   7.518
 4148POPC   NC354695   8.144  27.208   5.279
 4148POPC   PO454696   8.295  26.565   5.396
 4148POPC   GL154697   8.239  26.691   5.817
 4148POPC   GL254698   8.240  27.033   5.757
 4148POPC   C1A54699   8.271  26.516   6.242
 4148POPC   D2A54700   8.413  26.450   6.664
 4148POPC   C3A54701   8.319  26.685   7.046
 4148POPC   C4A54702   8.195  26.560   7.472
 4148POPC   C1B54703   8.194  27.078   6.215
 4148POPC   C2B54704   8.157  26.995   6.671
 4148POPC   C3B54705   7.970  27.072   7.111
 4148POPC   C4B54706   8.181  27.113   7.527
 4149POPC   NC354707  28.336  22.280   5.226
 4149POPC   PO454708  28.183  21.722   5.447
 4149POPC   GL154709  28.451  22.046   5.678
 4149POPC   GL254710  28.612  22.381   5.647
 4149POPC   C1A54711  28.396  22.226   6.108
 4149POPC   D2A54712  28.249  21.957   6.472
 4149POPC   C3A54713  28.179  22.018   6.926
 4149POPC   C4A54714  28.322  21.847   7.350
 4149POPC   C1B54715  28.797  22.598   6.016
 4149POPC   C2B54716  28.773  22.428   6.440
 4149POPC   C3B54717  28.733  22.532   6.881
 4149POPC   C4B54718  28.627  22.197   7.170
 4150POPC   NC354719   6.258  20.555   5.552
 4150POPC   PO454720   6.919  20.351   5.571
 4150POPC   GL154721   6.654  20.513   5.894
 4150POPC   GL254722   6.522  20.854   5.906
 4150POPC   C1A54723   6.599  20.447   6.321
 4150POPC   D2A54724   6.574  20.713   6.654
 4150POPC   C3A54725   6.780  20.556   7.038
 4150POPC   C4A54726   6.776  20.987   7.109
 4150POPC   C1B54727   6.190  20.728   6.204
 4150POPC   C2B54728   6.090  20.553   6.627
 4150POPC   C3B54729   6.284  20.535   7.030
 4150POPC   C4B54730   6.274  20.410   7.455
 4151POPC   NC354731   9.680  31.862   5.438
 4151POPC   PO454732   9.824  31.241   5.198
 4151POPC   GL154733   9.701  31.345   5.702
 4151POPC   GL254734   9.604  31.672   5.897
 4151POPC   C1A54735   9.520  31.213   6.153
 4151POPC   D2A54736   9.400  31.168   6.634
 4151POPC   C3A54737   9.582  31.359   7.048
 4151POPC   C4A54738   9.890  31.283   7.425
 4151POPC   C1B54739   9.918  31.550   6.218
 4151POPC   C2B54740  10.074  31.683   6.605
 4151POPC   C3B54741  10.046  31.571   7.012
 4151POPC   C4B54742   9.779  31.779   7.319
 4152POPC   NC354743  36.815  40.463   5.640
 4152POPC   PO454744  37.280  40.087   5.238
 4152POPC   GL154745  37.191  39.978   5.704
 4152POPC   GL254746  36.838  39.823   5.752
 4152POPC   C1A54747  37.084  40.021   6.178
 4152POPC   D2A54748  36.963  39.831   6.600
 4152POPC   C3A54749  37.137  39.999   7.012
 4152POPC   C4A54750  37.011  40.061   7.446
 4152POPC   C1B54751  36.568  39.968   6.106
 4152POPC   C2B54752  36.464  40.104   6.534
 4152POPC   C3B54753  36.646  40.073   6.951
 4152POPC   C4B54754  36.531  40.118   7.363
 4153POPC   NC354755   2.162  27.744   5.311
 4153POPC   PO454756   1.555  27.661   5.035
 4153POPC   GL154757   1.662  27.692   5.540
 4153POPC   GL254758   1.958  27.542   5.757
 4153POPC   C1A54759   1.569  27.723   6.029
 4153POPC   D2A54760   1.679  27.687   6.508
 4153POPC   C3A54761   1.763  27.656   6.992
 4153POPC   C4A54762   2.068  27.767   7.339
 4153POPC   C1B54763   1.880  27.330   6.198
 4153POPC   C2B54764   1.939  27.269   6.683
 4153POPC   C3B54765   2.081  27.279   7.147
 4153POPC   C4B54766   2.484  27.449   7.334
 4154POPC   NC354767   2.413  37.543   5.349
 4154POPC   PO454768   3.089  37.711   5.413
 4154POPC   GL154769   2.909  37.861   5.790
 4154POPC   GL254770   2.570  37.775   5.768
 4154POPC   C1A54771   2.723  37.887   6.227
 4154POPC   D2A54772   2.542  38.069   6.607
 4154POPC   C3A54773   2.776  38.022   6.979
 4154POPC   C4A54774   2.710  37.702   7.247
 4154POPC   C1B54775   2.821  37.417   6.021
 4154POPC   C2B54776   2.836  37.250   6.433
 4154POPC   C3B54777   2.732  37.315   6.887
 4154POPC   C4B54778   2.902  37.218   7.293
 4155POPC   NC354779  14.474  44.825   5.404
 4155POPC   PO454780  14.025  44.297   5.540
 4155POPC   GL154781  14.211  44.597   5.834
 4155POPC   GL254782  14.587  44.640   5.855
 4155POPC   C1A54783  14.180  44.730   6.276
 4155POPC   D2A54784  13.889  44.881   6.589
 4155POPC   C3A54785  14.030  44.666   6.947
 4155POPC   C4A54786  14.272  44.700   7.300
 4155POPC   C1B54787  14.725  44.738   6.272
 4155POPC   C2B54788  14.561  44.688   6.688
 4155POPC   C3B54789  14.693  44.894   7.067
 4155POPC   C4B54790  14.872  44.938   7.470
 4156POPC   NC354791  43.064   5.783   5.377
 4156POPC   PO454792  42.579   6.239   5.521
 4156POPC   GL154793  42.914   6.052   5.798
 4156POPC   GL254794  42.870   5.661   5.828
 4156POPC   C1A54795  43.069   6.036   6.238
 4156POPC   D2A54796  42.853   5.787   6.569
 4156POPC   C3A54797  42.870   5.734   7.016
 4156POPC   C4A54798  43.008   5.949   7.376
 4156POPC   C1B54799  43.131   5.537   6.154
 4156POPC   C2B54800  43.362   5.678   6.524
 4156POPC   C3B54801  43.364   5.566   6.957
 4156POPC   C4B54802  43.359   5.574   7.400
 4157POPC   NC354803   6.855  15.703   5.329
 4157POPC   PO454804   6.731  16.345   5.356
 4157POPC   GL154805   6.753  16.069   5.739
 4157POPC   GL254806   6.456  16.094   5.906
 4157POPC   C1A54807   6.850  15.944   6.188
 4157POPC   D2A54808   6.944  16.129   6.591
 4157POPC   C3A54809   6.763  15.963   6.945
 4157POPC   C4A54810   6.913  15.695   7.218
 4157POPC   C1B54811   6.275  16.193   6.307
 4157POPC   C2B54812   6.427  16.272   6.723
 4157POPC   C3B54813   6.251  16.072   7.081
 4157POPC   C4B54814   6.386  15.695   7.201
 4158POPC   NC354815  30.434  36.569   5.389
 4158POPC   PO454816  30.363  37.234   5.332
 4158POPC   GL154817  30.456  37.003   5.712
 4158POPC   GL254818  30.822  37.055   5.768
 4158POPC   C1A54819  30.462  36.841   6.151
 4158POPC   D2A54820  30.216  36.881   6.552
 4158POPC   C3A54821  30.459  36.906   6.897
 4158POPC   C4A54822  30.527  36.716   7.248
 4158POPC   C1B54823  30.941  37.051   6.206
 4158POPC   C2B54824  30.834  36.770   6.552
 4158POPC   C3B54825  30.961  36.739   6.979
 4158POPC   C4B54826  31.231  36.928   7.262
 4159POPC   NC354827  18.531   0.196   5.215
 4159POPC   PO454828  18.263   0.715   5.526
 4159POPC   GL154829  18.394   0.575   5.902
 4159POPC   GL254830  18.272   0.257   5.815
 4159POPC   C1A54831  18.216   0.684   6.286
 4159POPC   D2A54832  17.962   0.719   6.619
 4159POPC   C3A54833  18.227   0.621   6.930
 4159POPC   C4A54834  18.617   0.399   6.876
 4159POPC   C1B54835  18.116   0.187   6.236
 4159POPC   C2B54836  17.989   0.195   6.683
 4159POPC   C3B54837  18.147   0.146   7.116
 4159POPC   C4B54838  18.196   0.069   7.566
 4160POPC   NC354839  17.435  26.438   5.373
 4160POPC   PO454840  17.255  25.791   5.265
 4160POPC   GL154841  17.373  25.991   5.662
 4160POPC   GL254842  17.707  25.937   5.834
 4160POPC   C1A54843  17.298  26.198   6.070
 4160POPC   D2A54844  17.142  26.154   6.519
 4160POPC   C3A54845  17.388  26.098   6.879
 4160POPC   C4A54846  17.423  25.983   7.288
 4160POPC   C1B54847  17.828  25.656   6.197
 4160POPC   C2B54848  17.724  25.792   6.618
 4160POPC   C3B54849  17.865  25.859   7.029
 4160POPC   C4B54850  17.901  25.537   7.332
 4161POPC   NC354851  43.434  39.195   5.200
 4161POPC   PO454852  42.856  39.203   5.402
 4161POPC   GL154853  43.048  39.056   5.809
 4161POPC   GL254854  43.265  39.323   5.831
 4161POPC   C1A54855  43.207  39.116   6.284
 4161POPC   D2A54856  42.947  39.249   6.649
 4161POPC   C3A54857  43.055  39.320   7.107
 4161POPC   C4A54858  43.099  39.013   7.452
 4161POPC   C1B54859  43.216  39.628   6.176
 4161POPC   C2B54860  43.350  39.600   6.574
 4161POPC   C3B54861  43.496  39.325   6.871
 4161POPC   C4B54862  43.655  39.446   7.229
 4162POPC   NC354863   5.112  21.706   5.409
 4162POPC   PO454864   4.977  20.944   5.320
 4162POPC   GL154865   4.987  21.260   5.658
 4162POPC   GL254866   5.329  21.352   5.720
 4162POPC   C1A54867   5.046  21.303   6.142
 4162POPC   D2A54868   4.923  21.253   6.573
 4162POPC   C3A54869   5.107  21.184   6.978
 4162POPC   C4A54870   5.032  21.502   7.336
 4162POPC   C1B54871   5.405  21.664   6.075
 4162POPC   C2B54872   5.219  21.787   6.487
 4162POPC   C3B54873   5.304  21.683   6.929
 4162POPC   C4B54874   5.416  21.835   7.350
 4163POPC   NC354875  16.255   2.979   5.417
 4163POPC   PO454876  15.696   2.651   5.174
 4163POPC   GL154877  15.848   2.613   5.619
 4163POPC   GL254878  16.180   2.465   5.714
 4163POPC   C1A54879  15.758   2.783   6.053
 4163POPC   D2A54880  15.932   2.993   6.444
 4163POPC   C3A54881  15.919   2.757   6.830
 4163POPC   C4A54882  15.620   2.871   7.119
 4163POPC   C1B54883  16.263   2.694   6.120
 4163POPC   C2B54884  16.394   2.789   6.566
 4163POPC   C3B54885  16.278   3.123   6.876
 4163POPC   C4B54886  16.091   3.048   7.278
 4164POPC   NC354887  23.133  35.997   5.400
 4164POPC   PO454888  22.434  35.902   5.375
 4164POPC   GL154889  22.711  36.013   5.756
 4164POPC   GL254890  23.049  36.180   5.861
 4164POPC   C1A54891  22.832  35.829   6.170
 4164POPC   D2A54892  23.016  35.674   6.562
 4164POPC   C3A54893  23.025  35.885   6.972
 4164POPC   C4A54894  22.736  35.887   7.307
 4164POPC   C1B54895  22.806  36.374   6.209
 4164POPC   C2B54896  22.876  36.599   6.609
 4164POPC   C3B54897  23.176  36.516   6.921
 4164POPC   C4B54898  23.059  36.334   7.277
 4165POPC   NC354899  10.022  42.250   5.211
 4165POPC   PO454900   9.445  42.161   5.355
 4165POPC   GL154901   9.681  42.454   5.661
 4165POPC   GL254902  10.061  42.539   5.621
 4165POPC   C1A54903   9.592  42.725   6.074
 4165POPC   D2A54904   9.464  42.784   6.546
 4165POPC   C3A54905   9.667  42.526   6.898
 4165POPC   C4A54906   9.558  42.303   7.300
 4165POPC   C1B54907  10.063  42.521   6.044
 4165POPC   C2B54908   9.927  42.359   6.423
 4165POPC   C3B54909  10.169  42.390   6.788
 4165POPC   C4B54910  10.069  42.373   7.212
 4166POPC   NC354911  34.169  11.502   5.196
 4166POPC   PO454912  33.654  11.259   5.324
 4166POPC   GL154913  33.890  11.184   5.760
 4166POPC   GL254914  33.649  10.977   5.938
 4166POPC   C1A54915  34.039  11.072   6.237
 4166POPC   D2A54916  34.033  10.979   6.732
 4166POPC   C3A54917  33.996  11.293   7.109
 4166POPC   C4A54918  33.912  11.367   7.570
 4166POPC   C1B54919  33.571  10.990   6.417
 4166POPC   C2B54920  33.571  11.191   6.836
 4166POPC   C3B54921  33.504  11.361   7.257
 4166POPC   C4B54922  33.449  11.577   7.670
 4167POPC   NC354923  13.658   8.651   5.217
 4167POPC   PO454924  13.749   9.322   5.460
 4167POPC   GL154925  13.651   9.027   5.746
 4167POPC   GL254926  13.916   8.830   5.639
 4167POPC   C1A54927  13.462   9.058   6.176
 4167POPC   D2A54928  13.496   8.795   6.522
 4167POPC   C3A54929  13.731   8.891   6.901
 4167POPC   C4A54930  13.552   8.833   7.304
 4167POPC   C1B54931  13.826   8.693   6.084
 4167POPC   C2B54932  14.009   8.690   6.511
 4167POPC   C3B54933  14.056   8.489   6.925
 4167POPC   C4B54934  14.045   8.718   7.297
 4168POPC   NC354935  12.406  21.395   5.383
 4168POPC   PO454936  11.744  21.388   5.566
 4168POPC   GL154937  12.099  21.278   5.776
 4168POPC   GL254938  12.241  21.617   5.809
 4168POPC   C1A54939  12.137  21.279   6.204
 4168POPC   D2A54940  11.917  21.559   6.448
 4168POPC   C3A54941  11.716  21.523   6.853
 4168POPC   C4A54942  11.803  21.430   7.267
 4168POPC   C1B54943  12.474  21.652   6.179
 4168POPC   C2B54944  12.466  21.459   6.601
 4168POPC   C3B54945  12.226  21.551   6.988
 4168POPC   C4B54946  12.375  21.522   7.429
 4169POPC   NC354947  28.930  21.050   5.103
 4169POPC   PO454948  29.206  21.593   5.398
 4169POPC   GL154949  28.978  21.516   5.759
 4169POPC   GL254950  28.942  21.196   5.646
 4169POPC   C1A54951  28.992  21.481   6.186
 4169POPC   D2A54952  29.299  21.409   6.493
 4169POPC   C3A54953  29.181  21.577   6.864
 4169POPC   C4A54954  29.274  21.460   7.250
 4169POPC   C1B54955  29.207  21.064   6.017
 4169POPC   C2B54956  29.092  20.926   6.464
 4169POPC   C3B54957  29.085  21.059   6.906
 4169POPC   C4B54958  29.346  20.958   7.238
 4170POPC   NC354959  24.210  13.586   5.396
 4170POPC   PO454960  23.668  13.847   5.260
 4170POPC   GL154961  23.845  13.817   5.678
 4170POPC   GL254962  24.129  14.044   5.688
 4170POPC   C1A54963  23.719  13.754   6.126
 4170POPC   D2A54964  23.904  13.682   6.542
 4170POPC   C3A54965  23.641  13.690   6.912
 4170POPC   C4A54966  23.325  13.508   7.198
 4170POPC   C1B54967  24.085  14.137   6.153
 4170POPC   C2B54968  23.924  14.228   6.599
 4170POPC   C3B54969  24.045  14.021   6.986
 4170POPC   C4B54970  24.205  13.591   6.966
 4171POPC   NC354971  24.573  16.986   5.298
 4171POPC   PO454972  24.353  16.337   5.348
 4171POPC   GL154973  24.250  16.537   5.772
 4171POPC   GL254974  24.514  16.319   5.875
 4171POPC   C1A54975  24.268  16.579   6.266
 4171POPC   D2A54976  24.396  16.812   6.680
 4171POPC   C3A54977  24.340  16.699   7.114
 4171POPC   C4A54978  24.441  16.958   7.472
 4171POPC   C1B54979  24.733  16.323   6.233
 4171POPC   C2B54980  24.815  16.530   6.601
 4171POPC   C3B54981  24.775  16.439   7.064
 4171POPC   C4B54982  24.765  16.583   7.514
 4172POPC   NC354983   0.486  22.674   5.408
 4172POPC   PO454984   0.319  23.317   5.307
 4172POPC   GL154985   0.272  23.072   5.651
 4172POPC   GL254986   0.584  23.046   5.740
 4172POPC   C1A54987   0.204  23.079   6.101
 4172POPC   D2A54988   0.227  22.802   6.469
 4172POPC   C3A54989   0.170  22.971   6.885
 4172POPC   C4A54990   0.386  23.018   7.266
 4172POPC   C1B54991   0.643  22.814   6.084
 4172POPC   C2B54992   0.739  22.839   6.516
 4172POPC   C3B54993   0.752  22.838   6.960
 4172POPC   C4B54994   0.881  23.106   7.324
 4173POPC   NC354995  43.070  13.821   5.245
 4173POPC   PO454996  43.121  14.343   5.424
 4173POPC   GL154997  43.255  14.018   5.773
 4173POPC   GL254998  43.259  13.650   5.794
 4173POPC   C1A54999  43.153  13.929   6.225
 4173POPC   D2A55000  43.286  13.791   6.648
 4173POPC   C3A55001  43.147  13.918   7.077
 4173POPC   C4A55002  43.051  14.082   7.485
 4173POPC   C1B55003  43.366  13.436   6.230
 4173POPC   C2B55004  43.595  13.397   6.659
 4173POPC   C3B55005  43.343  13.430   7.063
 4173POPC   C4B55006  43.283  13.187   7.446
 4174POPC   NC355007  20.594  36.932   5.306
 4174POPC   PO455008  20.905  37.492   5.580
 4174POPC   GL155009  20.720  37.104   5.771
 4174POPC   GL255010  20.462  36.794   5.766
 4174POPC   C1A55011  20.572  37.069   6.188
 4174POPC   D2A55012  20.694  37.262   6.563
 4174POPC   C3A55013  20.539  37.103   6.942
 4174POPC   C4A55014  20.795  37.123   7.328
 4174POPC   C1B55015  20.436  36.573   6.157
 4174POPC   C2B55016  20.657  36.705   6.533
 4174POPC   C3B55017  20.596  36.589   6.921
 4174POPC   C4B55018  20.424  36.771   7.315
 4175POPC   NC355019  35.637  10.767   5.608
 4175POPC   PO455020  35.339  11.308   5.273
 4175POPC   GL155021  35.399  11.184   5.695
 4175POPC   GL255022  35.275  11.439   5.784
 4175POPC   C1A55023  35.408  10.979   6.152
 4175POPC   D2A55024  35.346  11.154   6.573
 4175POPC   C3A55025  35.459  11.003   6.978
 4175POPC   C4A55026  35.710  11.219   7.301
 4175POPC   C1B55027  35.484  11.476   6.164
 4175POPC   C2B55028  35.568  11.625   6.565
 4175POPC   C3B55029  35.424  11.522   6.995
 4175POPC   C4B55030  35.373  11.778   7.380
 4176POPC   NC355031  43.761  19.798   5.234
 4176POPC   PO455032  44.253  20.161   5.422
 4176POPC   GL155033  44.014  19.840   5.710
 4176POPC   GL255034  43.660  19.740   5.742
 4176POPC   C1A55035  44.089  19.567   6.082
 4176POPC   D2A55036  43.984  19.455   6.514
 4176POPC   C3A55037  44.046  19.782   6.832
 4176POPC   C4A55038  44.063  19.787   7.272
 4176POPC   C1B55039  43.576  19.680   6.205
 4176POPC   C2B55040  43.553  19.678   6.679
 4176POPC   C3B55041  43.580  19.688   7.127
 4176POPC   C4B55042  43.620  19.881   7.566
 4177POPC   NC355043  27.730  21.798   5.569
 4177POPC   PO455044  27.423  22.320   5.289
 4177POPC   GL155045  27.626  22.359   5.684
 4177POPC   GL255046  27.997  22.288   5.679
 4177POPC   C1A55047  27.433  22.301   6.099
 4177POPC   D2A55048  27.478  22.459   6.504
 4177POPC   C3A55049  27.388  22.261   6.894
 4177POPC   C4A55050  27.599  22.320   7.258
 4177POPC   C1B55051  27.893  22.076   6.124
 4177POPC   C2B55052  27.742  21.993   6.599
 4177POPC   C3B55053  27.713  21.867   7.074
 4177POPC   C4B55054  27.885  22.024   7.535
 4178POPC   NC355055  20.063  28.193   5.500
 4178POPC   PO455056  19.530  28.546   5.587
 4178POPC   GL155057  19.827  28.432   5.875
 4178POPC   GL255058  19.718  28.098   5.874
 4178POPC   C1A55059  20.026  28.401   6.256
 4178POPC   D2A55060  19.829  28.316   6.631
 4178POPC   C3A55061  19.958  28.565   6.920
 4178POPC   C4A55062  19.878  28.556   7.305
 4178POPC   C1B55063  19.832  27.926   6.279
 4178POPC   C2B55064  20.033  27.850   6.674
 4178POPC   C3B55065  20.000  28.029   7.082
 4178POPC   C4B55066  19.645  28.124   7.348
 4179POPC   NC355067  36.653   6.094   5.357
 4179POPC   PO455068  37.181   5.593   5.359
 4179POPC   GL155069  36.963   5.797   5.664
 4179POPC   GL255070  37.159   6.046   5.804
 4179POPC   C1A55071  36.873   5.727   6.112
 4179POPC   D2A55072  36.971   5.843   6.535
 4179POPC   C3A55073  36.826   5.680   6.901
 4179POPC   C4A55074  36.932   5.806   7.286
 4179POPC   C1B55075  37.015   6.220   6.170
 4179POPC   C2B55076  37.013   6.354   6.573
 4179POPC   C3B55077  37.021   6.185   6.954
 4179POPC   C4B55078  36.711   6.249   7.263
 4180POPC   NC355079  16.124   8.549   5.431
 4180POPC   PO455080  15.795   7.896   5.421
 4180POPC   GL155081  15.915   8.141   5.776
 4180POPC   GL255082  16.248   8.168   5.815
 4180POPC   C1A55083  15.942   8.378   6.178
 4180POPC   D2A55084  15.811   8.524   6.586
 4180POPC   C3A55085  16.054   8.383   6.899
 4180POPC   C4A55086  15.794   8.320   7.217
 4180POPC   C1B55087  16.092   7.886   6.214
 4180POPC   C2B55088  16.070   7.883   6.690
 4180POPC   C3B55089  16.052   7.879   7.143
 4180POPC   C4B55090  16.349   7.699   7.386
 4181POPC   NC355091  40.934  35.352   5.214
 4181POPC   PO455092  41.598  35.351   5.407
 4181POPC   GL155093  41.564  35.210   5.840
 4181POPC   GL255094  41.309  35.339   6.088
 4181POPC   C1A55095  41.792  35.310   6.222
 4181POPC   D2A55096  41.797  35.402   6.641
 4181POPC   C3A55097  41.777  35.052   6.910
 4181POPC   C4A55098  41.767  35.329   7.245
 4181POPC   C1B55099  41.036  35.752   6.196
 4181POPC   C2B55100  41.151  35.939   6.562
 4181POPC   C3B55101  41.310  35.554   6.784
 4181POPC   C4B55102  41.249  35.393   7.202
 4182POPC   NC355103  10.894  36.481   5.385
 4182POPC   PO455104  10.629  35.837   5.432
 4182POPC   GL155105  10.717  35.942   5.831
 4182POPC   GL255106  10.643  36.248   5.777
 4182POPC   C1A55107  10.698  36.043   6.248
 4182POPC   D2A55108  10.526  35.816   6.543
 4182POPC   C3A55109  10.511  35.983   6.909
 4182POPC   C4A55110  10.371  35.797   7.268
 4182POPC   C1B55111  10.334  36.365   6.083
 4182POPC   C2B55112  10.278  36.269   6.523
 4182POPC   C3B55113  10.137  36.325   6.942
 4182POPC   C4B55114  10.381  36.297   7.305
 4183POPC   NC355115  27.818  34.138   5.332
 4183POPC   PO455116  27.531  33.479   5.455
 4183POPC   GL155117  27.779  33.703   5.720
 4183POPC   GL255118  27.495  33.710   5.946
 4183POPC   C1A55119  27.943  33.833   6.145
 4183POPC   D2A55120  27.745  33.873   6.522
 4183POPC   C3A55121  27.851  33.737   6.898
 4183POPC   C4A55122  27.724  33.799   7.322
 4183POPC   C1B55123  27.434  34.100   6.182
 4183POPC   C2B55124  27.451  34.297   6.614
 4183POPC   C3B55125  27.225  34.159   7.016
 4183POPC   C4B55126  26.980  34.237   7.396
 4184POPC   NC355127  42.601  25.683   5.435
 4184POPC   PO455128  42.356  26.334   5.194
 4184POPC   GL155129  42.304  26.109   5.582
 4184POPC   GL255130  42.003  26.181   5.771
 4184POPC   C1A55131  42.396  25.988   6.009
 4184POPC   D2A55132  42.390  25.825   6.402
 4184POPC   C3A55133  42.673  25.984   6.701
 4184POPC   C4A55134  42.456  25.958   7.070
 4184POPC   C1B55135  42.037  26.364   6.167
 4184POPC   C2B55136  42.280  26.314   6.531
 4184POPC   C3B55137  42.128  26.324   6.936
 4184POPC   C4B55138  41.942  26.489   7.277
 4185POPC   NC355139   0.215   0.605   5.225
 4185POPC   PO455140   0.780   0.396   5.501
 4185POPC   GL155141   0.498   0.427   5.841
 4185POPC   GL255142   0.179   0.360   5.713
 4185POPC   C1A55143   0.354   0.421   6.269
 4185POPC   D2A55144   0.318   0.600   6.656
 4185POPC   C3A55145   0.576   0.583   7.016
 4185POPC   C4A55146   0.714   0.341   7.376
 4185POPC   C1B55147   0.207   0.004   6.028
 4185POPC   C2B55148   0.291  44.960   6.504
 4185POPC   C3B55149   0.249   0.163   6.928
 4185POPC   C4B55150  44.921   0.240   7.245
 4186POPC   NC355151  44.002   4.727   5.356
 4186POPC   PO455152  43.635   5.277   5.502
 4186POPC   GL155153  43.768   4.968   5.831
 4186POPC   GL255154  44.107   4.845   5.853
 4186POPC   C1A55155  43.847   4.928   6.284
 4186POPC   D2A55156  44.054   5.085   6.649
 4186POPC   C3A55157  43.932   4.963   7.042
 4186POPC   C4A55158  43.828   5.202   7.418
 4186POPC   C1B55159  44.330   5.029   6.196
 4186POPC   C2B55160  44.516   4.914   6.588
 4186POPC   C3B55161  44.423   4.741   6.978
 4186POPC   C4B55162  44.268   4.909   7.410
 4187POPC   NC355163  21.528  18.596   5.492
 4187POPC   PO455164  20.955  18.288   5.483
 4187POPC   GL155165  21.164  18.468   5.815
 4187POPC   GL255166  21.267  18.129   5.910
 4187POPC   C1A55167  21.470  18.503   6.173
 4187POPC   D2A55168  21.495  18.200   6.497
 4187POPC   C3A55169  21.599  18.396   6.866
 4187POPC   C4A55170  21.840  18.403   7.223
 4187POPC   C1B55171  21.016  18.289   6.278
 4187POPC   C2B55172  21.046  18.362   6.702
 4187POPC   C3B55173  21.224  18.054   6.960
 4187POPC   C4B55174  21.403  18.139   7.351
 4188POPC   NC355175   1.499  44.098   5.427
 4188POPC   PO455176   0.907  43.736   5.343
 4188POPC   GL155177   1.201  43.787   5.696
 4188POPC   GL255178   1.167  44.082   5.845
 4188POPC   C1A55179   1.231  43.651   6.155
 4188POPC   D2A55180   1.504  43.654   6.546
 4188POPC   C3A55181   1.363  43.768   6.935
 4188POPC   C4A55182   0.985  43.608   7.096
 4188POPC   C1B55183   1.461  44.082   6.184
 4188POPC   C2B55184   1.474  44.167   6.612
 4188POPC   C3B55185   1.608  44.243   7.023
 4188POPC   C4B55186   1.604  44.036   7.400
 4189POPC   NC355187  28.054  23.593   5.134
 4189POPC   PO455188  28.638  23.321   5.421
 4189POPC   GL155189  28.631  23.581   5.805
 4189POPC   GL255190  28.349  23.841   5.796
 4189POPC   C1A55191  28.542  23.651   6.256
 4189POPC   D2A55192  28.709  23.859   6.629
 4189POPC   C3A55193  28.519  23.760   7.034
 4189POPC   C4A55194  28.500  23.673   7.477
 4189POPC   C1B55195  28.198  24.017   6.215
 4189POPC   C2B55196  28.087  23.934   6.648
 4189POPC   C3B55197  28.019  24.034   7.081
 4189POPC   C4B55198  28.315  24.181   7.384
 4190POPC   NC355199   9.961  29.427   5.628
 4190POPC   PO455200   9.910  30.144   5.547
 4190POPC   GL155201   9.641  30.029   5.866
 4190POPC   GL255202   9.591  29.663   5.890
 4190POPC   C1A55203   9.777  30.197   6.233
 4190POPC   D2A55204   9.532  30.321   6.562
 4190POPC   C3A55205   9.669  30.222   6.959
 4190POPC   C4A55206   9.577  30.101   7.362
 4190POPC   C1B55207   9.527  29.769   6.329
 4190POPC   C2B55208   9.848  29.865   6.655
 4190POPC   C3B55209   9.776  29.646   7.067
 4190POPC   C4B55210   9.777  29.676   7.537
 4191POPC   NC355211  42.985  17.809   5.131
 4191POPC   PO455212  43.321  18.410   5.360
 4191POPC   GL155213  43.236  18.453   5.753
 4191POPC   GL255214  42.912  18.344   5.749
 4191POPC   C1A55215  43.277  18.352   6.192
 4191POPC   D2A55216  43.552  18.425   6.561
 4191POPC   C3A55217  43.445  18.325   6.999
 4191POPC   C4A55218  43.479  18.602   7.353
 4191POPC   C1B55219  42.732  18.392   6.137
 4191POPC   C2B55220  42.883  18.360   6.544
 4191POPC   C3B55221  42.737  18.562   6.904
 4191POPC   C4B55222  42.972  18.382   7.222
 4192POPC   NC355223  43.227   7.753   5.305
 4192POPC   PO455224  42.892   7.171   5.353
 4192POPC   GL155225  42.994   7.522   5.698
 4192POPC   GL255226  43.379   7.603   5.778
 4192POPC   C1A55227  43.023   7.572   6.161
 4192POPC   D2A55228  43.251   7.347   6.499
 4192POPC   C3A55229  43.041   7.214   6.899
 4192POPC   C4A55230  42.992   7.371   7.320
 4192POPC   C1B55231  43.611   7.640   6.183
 4192POPC   C2B55232  43.518   7.860   6.577
 4192POPC   C3B55233  43.219   7.712   6.870
 4192POPC   C4B55234  43.389   7.676   7.244
 4193POPC   NC355235  15.240   0.048   5.464
 4193POPC   PO455236  14.892  44.534   5.402
 4193POPC   GL155237  15.095  44.607   5.815
 4193POPC   GL255238  15.127  44.938   5.958
 4193POPC   C1A55239  15.116  44.397   6.206
 4193POPC   D2A55240  15.285  44.395   6.640
 4193POPC   C3A55241  14.962  44.477   6.968
 4193POPC   C4A55242  14.735  44.451   7.377
 4193POPC   C1B55243  15.468  44.795   6.243
 4193POPC   C2B55244  15.717  44.955   6.564
 4193POPC   C3B55245  15.473  44.825   6.889
 4193POPC   C4B55246  15.295  44.731   7.281
 4194POPC   NC355247  43.764   0.943   5.305
 4194POPC   PO455248  44.341   1.299   5.369
 4194POPC   GL155249  43.956   1.324   5.665
 4194POPC   GL255250  43.563   1.293   5.636
 4194POPC   C1A55251  44.009   1.312   6.115
 4194POPC   D2A55252  44.203   1.134   6.494
 4194POPC   C3A55253  43.965   1.233   6.877
 4194POPC   C4A55254  44.063   1.140   7.302
 4194POPC   C1B55255  43.514   1.135   6.055
 4194POPC   C2B55256  43.710   1.069   6.451
 4194POPC   C3B55257  43.624   0.848   6.823
 4194POPC   C4B55258  43.608   0.971   7.225
 4195POPC   NC355259  16.156  16.631   5.409
 4195POPC   PO455260  16.768  16.622   5.426
 4195POPC   GL155261  16.500  16.773   5.773
 4195POPC   GL255262  16.430  17.118   5.856
 4195POPC   C1A55263  16.501  16.733   6.214
 4195POPC   D2A55264  16.698  16.923   6.562
 4195POPC   C3A55265  16.581  16.834   6.987
 4195POPC   C4A55266  16.838  16.871   7.362
 4195POPC   C1B55267  16.305  17.200   6.314
 4195POPC   C2B55268  16.396  17.268   6.766
 4195POPC   C3B55269  16.141  17.103   7.090
 4195POPC   C4B55270  16.319  16.881   7.424
 4196POPC   NC355271  18.262  21.733   5.386
 4196POPC   PO455272  18.714  21.208   5.348
 4196POPC   GL155273  18.423  21.189   5.728
 4196POPC   GL255274  18.212  21.505   5.831
 4196POPC   C1A55275  18.354  21.188   6.193
 4196POPC   D2A55276  18.146  21.098   6.596
 4196POPC   C3A55277  18.176  21.267   7.018
 4196POPC   C4A55278  18.162  21.208   7.487
 4196POPC   C1B55279  18.052  21.599   6.225
 4196POPC   C2B55280  17.884  21.556   6.612
 4196POPC   C3B55281  17.750  21.706   6.974
 4196POPC   C4B55282  17.948  21.652   7.334
 4197POPC   NC355283   6.787  33.090   5.508
 4197POPC   PO455284   6.124  32.891   5.433
 4197POPC   GL155285   6.444  32.805   5.783
 4197POPC   GL255286   6.513  33.151   5.930
 4197POPC   C1A55287   6.615  32.775   6.237
 4197POPC   D2A55288   6.533  33.136   6.516
 4197POPC   C3A55289   6.378  33.066   6.948
 4197POPC   C4A55290   6.528  32.734   7.176
 4197POPC   C1B55291   6.924  33.203   6.136
 4197POPC   C2B55292   7.100  33.049   6.496
 4197POPC   C3B55293   6.898  33.023   6.870
 4197POPC   C4B55294   6.805  33.153   7.256
 4198POPC   NC355295  18.047   6.861   5.322
 4198POPC   PO455296  18.536   6.451   5.400
 4198POPC   GL155297  18.328   6.641   5.750
 4198POPC   GL255298  18.484   6.967   5.810
 4198POPC   C1A55299  18.285   6.541   6.220
 4198POPC   D2A55300  18.026   6.401   6.620
 4198POPC   C3A55301  18.220   6.446   7.031
 4198POPC   C4A55302  18.483   6.781   7.193
 4198POPC   C1B55303  18.081   7.001   6.016
 4198POPC   C2B55304  18.005   6.920   6.447
 4198POPC   C3B55305  17.980   6.912   6.880
 4198POPC   C4B55306  18.002   6.918   7.320
 4199POPC   NC355307   4.634  17.857   5.608
 4199POPC   PO455308   4.395  18.361   5.211
 4199POPC   GL155309   4.359  18.308   5.682
 4199POPC   GL255310   4.619  18.484   5.890
 4199POPC   C1A55311   4.222  18.239   6.116
 4199POPC   D2A55312   4.513  18.285   6.473
 4199POPC   C3A55313   4.350  18.198   6.875
 4199POPC   C4A55314   4.616  18.121   7.235
 4199POPC   C1B55315   4.443  18.739   6.251
 4199POPC   C2B55316   4.290  18.771   6.687
 4199POPC   C3B55317   4.437  18.635   7.116
 4199POPC   C4B55318   4.387  18.452   7.580
 4200POPC   NC355319  13.826  27.570   5.483
 4200POPC   PO455320  14.449  27.347   5.322
 4200POPC   GL155321  14.437  27.422   5.774
 4200POPC   GL255322  14.105  27.323   5.841
 4200POPC   C1A55323  14.553  27.518   6.231
 4200POPC   D2A55324  14.509  27.495   6.698
 4200POPC   C3A55325  14.442  27.811   7.026
 4200POPC   C4A55326  14.672  27.987   7.388
 4200POPC   C1B55327  14.045  27.625   6.184
 4200POPC   C2B55328  14.039  27.743   6.647
 4200POPC   C3B55329  13.937  27.911   7.071
 4200POPC   C4B55330  14.148  27.956   7.475
 4201POPC   NC355331   1.501   7.901   5.466
 4201POPC   PO455332   1.006   8.358   5.430
 4201POPC   GL155333   1.174   8.455   5.824
 4201POPC   GL255334   1.451   8.216   5.883
 4201POPC   C1A55335   1.141   8.413   6.267
 4201POPC   D2A55336   1.248   8.315   6.675
 4201POPC   C3A55337   1.091   8.472   7.021
 4201POPC   C4A55338   1.078   8.202   7.318
 4201POPC   C1B55339   1.264   7.914   6.166
 4201POPC   C2B55340   1.162   7.807   6.602
 4201POPC   C3B55341   1.306   7.862   7.026
 4201POPC   C4B55342   1.265   7.730   7.463
 4202POPC   NC355343  17.916   3.039   5.586
 4202POPC   PO455344  18.330   2.714   5.139
 4202POPC   GL155345  18.351   2.716   5.631
 4202POPC   GL255346  18.710   2.795   5.708
 4202POPC   C1A55347  18.332   2.815   6.112
 4202POPC   D2A55348  18.348   2.608   6.549
 4202POPC   C3A55349  18.199   2.582   6.997
 4202POPC   C4A55350  17.999   2.905   7.233
 4202POPC   C1B55351  18.845   2.880   6.146
 4202POPC   C2B55352  18.763   2.974   6.602
 4202POPC   C3B55353  18.534   3.036   7.009
 4202POPC   C4B55354  18.517   2.845   7.419
 4203POPC   NC355355   9.896  27.188   5.461
 4203POPC   PO455356   9.505  27.660   5.379
 4203POPC   GL155357   9.748  27.666   5.775
 4203POPC   GL255358   9.456  27.813   5.926
 4203POPC   C1A55359  10.043  27.469   6.138
 4203POPC   D2A55360   9.966  27.291   6.569
 4203POPC   C3A55361  10.215  27.420   6.957
 4203POPC   C4A55362  10.240  27.765   7.267
 4203POPC   C1B55363   9.736  27.837   6.274
 4203POPC   C2B55364   9.912  27.832   6.685
 4203POPC   C3B55365   9.768  27.868   7.086
 4203POPC   C4B55366   9.422  27.771   7.342
 4204POPC   NC355367  32.541   5.729   5.520
 4204POPC   PO455368  32.020   5.830   5.384
 4204POPC   GL155369  32.126   5.872   5.819
 4204POPC   GL255370  32.414   6.052   5.894
 4204POPC   C1A55371  32.011   6.108   6.189
 4204POPC   D2A55372  32.183   6.301   6.539
 4204POPC   C3A55373  31.981   6.140   6.876
 4204POPC   C4A55374  32.162   5.971   7.205
 4204POPC   C1B55375  32.434   5.854   6.321
 4204POPC   C2B55376  32.472   5.930   6.779
 4204POPC   C3B55377  32.574   5.700   7.176
 4204POPC   C4B55378  32.856   5.766   7.520
 4205POPC   NC355379  21.443   0.843   5.264
 4205POPC   PO455380  20.861   0.493   5.295
 4205POPC   GL155381  21.240   0.491   5.606
 4205POPC   GL255382  21.165   0.264   5.908
 4205POPC   C1A55383  21.460   0.655   5.994
 4205POPC   D2A55384  21.244   0.478   6.380
 4205POPC   C3A55385  21.331   0.498   6.844
 4205POPC   C4A55386  21.217   0.341   7.276
 4205POPC   C1B55387  21.572   0.123   6.129
 4205POPC   C2B55388  21.746   0.022   6.580
 4205POPC   C3B55389  21.579   0.017   7.033
 4205POPC   C4B55390  21.711   0.252   7.411
 4206POPC   NC355391  16.203  41.027   5.067
 4206POPC   PO455392  15.881  40.482   5.284
 4206POPC   GL155393  15.920  40.535   5.753
 4206POPC   GL255394  15.671  40.782   5.935
 4206POPC   C1A55395  15.923  40.425   6.174
 4206POPC   D2A55396  15.816  40.668   6.522
 4206POPC   C3A55397  16.040  40.653   6.903
 4206POPC   C4A55398  15.925  40.758   7.354
 4206POPC   C1B55399  15.636  41.115   6.235
 4206POPC   C2B55400  15.467  41.129   6.640
 4206POPC   C3B55401  15.674  41.015   6.990
 4206POPC   C4B55402  15.815  41.241   7.356
 4207POPC   NC355403  38.219  29.102   5.222
 4207POPC   PO455404  38.916  28.919   5.387
 4207POPC   GL155405  38.579  29.036   5.728
 4207POPC   GL255406  38.192  28.987   5.742
 4207POPC   C1A55407  38.507  28.907   6.186
 4207POPC   D2A55408  38.609  29.051   6.586
 4207POPC   C3A55409  38.812  28.989   6.975
 4207POPC   C4A55410  38.756  29.316   7.280
 4207POPC   C1B55411  38.201  29.316   6.086
 4207POPC   C2B55412  38.117  29.260   6.545
 4207POPC   C3B55413  38.326  29.357   6.916
 4207POPC   C4B55414  38.282  29.221   7.290
 4208POPC   NC355415  19.581   3.318   5.425
 4208POPC   PO455416  20.117   3.575   5.389
 4208POPC   GL155417  19.943   3.472   5.777
 4208POPC   GL255418  19.666   3.664   5.820
 4208POPC   C1A55419  19.790   3.273   6.140
 4208POPC   D2A55420  19.707   3.408   6.552
 4208POPC   C3A55421  19.964   3.517   6.889
 4208POPC   C4A55422  19.850   3.348   7.263
 4208POPC   C1B55423  19.417   3.628   6.200
 4208POPC   C2B55424  19.290   3.737   6.588
 4208POPC   C3B55425  19.472   3.695   6.976
 4208POPC   C4B55426  19.550   3.838   7.377
 4209POPC   NC355427  11.985   7.317   5.568
 4209POPC   PO455428  12.657   7.402   5.479
 4209POPC   GL155429  12.420   7.444   5.862
 4209POPC   GL255430  12.253   7.087   5.935
 4209POPC   C1A55431  12.268   7.441   6.285
 4209POPC   D2A55432  12.318   7.151   6.625
 4209POPC   C3A55433  12.214   7.355   7.002
 4209POPC   C4A55434  12.194   7.687   7.285
 4209POPC   C1B55435  11.946   6.956   6.277
 4209POPC   C2B55436  11.748   6.816   6.685
 4209POPC   C3B55437  11.861   6.903   7.141
 4209POPC   C4B55438  11.975   7.249   7.445
 4210POPC   NC355439  19.639  23.996   5.395
 4210POPC   PO455440  20.045  23.482   5.301
 4210POPC   GL155441  19.919  23.828   5.753
 4210POPC   GL255442  19.519  23.791   5.831
 4210POPC   C1A55443  19.806  23.807   6.243
 4210POPC   D2A55444  20.070  23.594   6.528
 4210POPC   C3A55445  20.084  23.726   6.922
 4210POPC   C4A55446  19.889  24.027   7.203
 4210POPC   C1B55447  19.385  23.401   6.015
 4210POPC   C2B55448  19.491  23.366   6.440
 4210POPC   C3B55449  19.607  23.552   6.826
 4210POPC   C4B55450  19.540  23.331   7.227
 4211POPC   NC355451  17.105  39.741   5.370
 4211POPC   PO455452  17.457  40.269   5.285
 4211POPC   GL155453  17.303  40.104   5.696
 4211POPC   GL255454  17.105  40.350   5.884
 4211POPC   C1A55455  17.505  40.082   6.117
 4211POPC   D2A55456  17.559  39.890   6.528
 4211POPC   C3A55457  17.540  40.168   6.895
 4211POPC   C4A55458  17.765  40.181   7.296
 4211POPC   C1B55459  17.026  40.095   6.279
 4211POPC   C2B55460  17.056  39.717   6.538
 4211POPC   C3B55461  17.283  39.643   6.880
 4211POPC   C4B55462  17.415  39.796   7.230
 4212POPC   NC355463   4.316  42.025   5.027
 4212POPC   PO455464   4.156  41.463   5.334
 4212POPC   GL155465   4.308  41.438   5.770
 4212POPC   GL255466   4.418  41.739   5.724
 4212POPC   C1A55467   4.365  41.336   6.210
 4212POPC   D2A55468   4.243  41.567   6.593
 4212POPC   C3A55469   4.504  41.607   6.985
 4212POPC   C4A55470   4.471  41.329   7.378
 4212POPC   C1B55471   4.491  41.850   6.132
 4212POPC   C2B55472   4.507  41.998   6.537
 4212POPC   C3B55473   4.201  42.021   6.839
 4212POPC   C4B55474   4.138  41.886   7.243
 4213POPC   NC355475  16.877   7.912   5.266
 4213POPC   PO455476  16.593   8.445   5.468
 4213POPC   GL155477  16.759   8.109   5.728
 4213POPC   GL255478  17.006   8.333   5.792
 4213POPC   C1A55479  16.596   7.987   6.128
 4213POPC   D2A55480  16.394   8.246   6.468
 4213POPC   C3A55481  16.496   8.113   6.902
 4213POPC   C4A55482  16.741   8.106   7.273
 4213POPC   C1B55483  16.842   8.448   6.179
 4213POPC   C2B55484  16.985   8.578   6.562
 4213POPC   C3B55485  16.969   8.402   6.930
 4213POPC   C4B55486  17.043   8.512   7.315
 4214POPC   NC355487  44.757   1.053   5.291
 4214POPC   PO455488  44.793   0.407   5.341
 4214POPC   GL155489  44.675   0.298   5.765
 4214POPC   GL255490  44.545   0.621   5.797
 4214POPC   C1A55491  44.808   0.267   6.196
 4214POPC   D2A55492  44.825   0.107   6.596
 4214POPC   C3A55493  44.847   0.482   6.799
 4214POPC   C4A55494  44.544   0.508   7.078
 4214POPC   C1B55495  44.317   0.400   6.136
 4214POPC   C2B55496  44.382   0.367   6.596
 4214POPC   C3B55497  44.131   0.244   6.960
 4214POPC   C4B55498  43.844   0.002   7.226
 4215POPC   NC355499  22.053  35.694   5.165
 4215POPC   PO455500  21.873  36.293   5.223
 4215POPC   GL155501  21.963  36.170   5.656
 4215POPC   GL255502  21.815  36.456   5.822
 4215POPC   C1A55503  22.161  35.986   6.075
 4215POPC   D2A55504  22.414  35.862   6.477
 4215POPC   C3A55505  22.440  36.069   6.901
 4215POPC   C4A55506  22.198  36.030   7.295
 4215POPC   C1B55507  22.044  36.468   6.224
 4215POPC   C2B55508  22.015  36.244   6.642
 4215POPC   C3B55509  21.771  36.322   7.012
 4215POPC   C4B55510  21.792  36.319   7.473
 4216POPC   NC355511   8.330   0.906   5.372
 4216POPC   PO455512   8.320   1.503   5.300
 4216POPC   GL155513   8.342   1.353   5.770
 4216POPC   GL255514   8.350   0.992   5.866
 4216POPC   C1A55515   8.237   1.342   6.250
 4216POPC   D2A55516   8.437   1.328   6.663
 4216POPC   C3A55517   8.142   1.370   6.999
 4216POPC   C4A55518   8.226   1.351   7.428
 4216POPC   C1B55519   8.581   0.937   6.231
 4216POPC   C2B55520   8.490   0.821   6.684
 4216POPC   C3B55521   8.471   0.985   7.117
 4216POPC   C4B55522   8.535   1.003   7.589
 4217POPC   NC355523  13.759   7.171   5.018
 4217POPC   PO455524  13.450   7.633   5.488
 4217POPC   GL155525  13.633   7.505   5.871
 4217POPC   GL255526  13.592   7.161   5.991
 4217POPC   C1A55527  13.788   7.550   6.283
 4217POPC   D2A55528  13.813   7.825   6.624
 4217POPC   C3A55529  13.913   7.632   7.023
 4217POPC   C4A55530  14.088   7.277   7.198
 4217POPC   C1B55531  13.313   7.378   6.281
 4217POPC   C2B55532  13.482   7.409   6.714
 4217POPC   C3B55533  13.614   7.146   7.066
 4217POPC   C4B55534  13.362   7.016   7.435
 4218POPC   NC355535  14.262   5.528   5.504
 4218POPC   PO455536  14.655   5.056   5.294
 4218POPC   GL155537  14.455   5.041   5.732
 4218POPC   GL255538  14.263   5.281   5.946
 4218POPC   C1A55539  14.450   4.838   6.153
 4218POPC   D2A55540  14.272   4.944   6.567
 4218POPC   C3A55541  14.540   4.913   6.930
 4218POPC   C4A55542  14.677   4.979   7.349
 4218POPC   C1B55543  14.496   5.346   6.314
 4218POPC   C2B55544  14.357   5.461   6.716
 4218POPC   C3B55545  14.378   5.370   7.132
 4218POPC   C4B55546  14.660   5.614   7.311
 4219POPC   NC355547  31.059  39.210   5.468
 4219POPC   PO455548  31.629  39.354   5.447
 4219POPC   GL155549  31.576  39.234   5.857
 4219POPC   GL255550  31.258  39.068   5.928
 4219POPC   C1A55551  31.563  39.331   6.274
 4219POPC   D2A55552  31.323  39.232   6.605
 4219POPC   C3A55553  31.667  39.274   6.876
 4219POPC   C4A55554  31.767  39.332   7.305
 4219POPC   C1B55555  31.136  39.513   6.084
 4219POPC   C2B55556  31.177  39.761   6.484
 4219POPC   C3B55557  31.228  39.618   6.931
 4219POPC   C4B55558  31.271  39.232   7.201
 4220POPC   NC355559  23.887  12.646   5.501
 4220POPC   PO455560  23.420  13.163   5.591
 4220POPC   GL155561  23.541  12.791   5.866
 4220POPC   GL255562  23.922  12.800   5.975
 4220POPC   C1A55563  23.586  12.669   6.314
 4220POPC   D2A55564  23.317  12.655   6.659
 4220POPC   C3A55565  23.571  12.682   7.010
 4220POPC   C4A55566  23.908  12.398   7.150
 4220POPC   C1B55567  23.740  13.157   6.224
 4220POPC   C2B55568  23.542  13.141   6.633
 4220POPC   C3B55569  23.667  13.179   7.034
 4220POPC   C4B55570  24.018  13.184   7.219
 4221POPC   NC355571  18.553  20.779   5.311
 4221POPC   PO455572  18.028  20.482   5.395
 4221POPC   GL155573  18.214  20.689   5.740
 4221POPC   GL255574  18.520  20.466   5.725
 4221POPC   C1A55575  18.047  20.783   6.170
 4221POPC   D2A55576  17.946  20.580   6.585
 4221POPC   C3A55577  18.016  20.746   7.004
 4221POPC   C4A55578  18.075  20.377   7.267
 4221POPC   C1B55579  18.609  20.755   6.070
 4221POPC   C2B55580  18.451  20.699   6.493
 4221POPC   C3B55581  18.413  20.438   6.861
 4221POPC   C4B55582  18.550  20.587   7.245
 4222POPC   NC355583   4.923   8.266   5.276
 4222POPC   PO455584   5.249   7.846   5.684
 4222POPC   GL155585   5.185   8.265   5.824
 4222POPC   GL255586   4.845   8.253   5.791
 4222POPC   C1A55587   5.322   8.268   6.256
 4222POPC   D2A55588   5.184   8.092   6.653
 4222POPC   C3A55589   5.344   8.307   7.015
 4222POPC   C4A55590   5.191   8.360   7.433
 4222POPC   C1B55591   4.851   8.092   6.215
 4222POPC   C2B55592   4.729   8.351   6.532
 4222POPC   C3B55593   4.832   8.343   6.920
 4222POPC   C4B55594   4.932   8.005   7.161
 4223POPC   NC355595  28.377   8.082   4.944
 4223POPC   PO455596  28.083   8.272   5.499
 4223POPC   GL155597  28.317   8.074   5.816
 4223POPC   GL255598  28.668   8.122   5.919
 4223POPC   C1A55599  28.283   7.902   6.231
 4223POPC   D2A55600  28.382   7.883   6.673
 4223POPC   C3A55601  28.390   8.173   7.029
 4223POPC   C4A55602  28.023   8.235   7.277
 4223POPC   C1B55603  28.486   8.421   6.245
 4223POPC   C2B55604  28.417   8.622   6.691
 4223POPC   C3B55605  28.432   8.679   7.156
 4223POPC   C4B55606  28.411   8.444   7.530
 4224POPC   NC355607  44.011   5.554   5.603
 4224POPC   PO455608  44.079   6.076   5.121
 4224POPC   GL155609  43.667   5.952   5.531
 4224POPC   GL255610  43.425   5.673   5.728
 4224POPC   C1A55611  43.597   6.000   6.049
 4224POPC   D2A55612  43.881   6.075   6.435
 4224POPC   C3A55613  43.715   5.947   6.822
 4224POPC   C4A55614  43.723   5.870   7.237
 4224POPC   C1B55615  43.637   5.471   6.131
 4224POPC   C2B55616  43.866   5.545   6.519
 4224POPC   C3B55617  43.887   5.466   6.960
 4224POPC   C4B55618  44.135   5.574   7.317
 4225POPC   NC355619  39.309   0.657   5.349
 4225POPC   PO455620  39.619   0.089   5.260
 4225POPC   GL155621  39.491   0.223   5.730
 4225POPC   GL255622  39.261   0.501   5.839
 4225POPC   C1A55623  39.552   0.348   6.198
 4225POPC   D2A55624  39.329   0.536   6.564
 4225POPC   C3A55625  39.430   0.368   6.989
 4225POPC   C4A55626  39.231   0.264   7.413
 4225POPC   C1B55627  38.988   0.710   6.137
 4225POPC   C2B55628  38.918   0.867   6.542
 4225POPC   C3B55629  38.876   0.808   7.007
 4225POPC   C4B55630  38.889   1.015   7.443
 4226POPC   NC355631  44.930  42.816   5.390
 4226POPC   PO455632  44.362  43.092   5.410
 4226POPC   GL155633  44.575  43.148   5.814
 4226POPC   GL255634  44.460  42.825   5.840
 4226POPC   C1A55635  44.765  43.334   6.235
 4226POPC   D2A55636  44.863  43.519   6.671
 4226POPC   C3A55637  44.700  43.307   7.050
 4226POPC   C4A55638  44.300  43.154   7.170
 4226POPC   C1B55639  44.614  42.830   6.258
 4226POPC   C2B55640  44.773  42.987   6.646
 4226POPC   C3B55641  44.871  42.784   7.037
 4226POPC   C4B55642  44.603  42.775   7.376
 4227POPC   NC355643  36.582   7.884   4.966
 4227POPC   PO455644  36.203   8.104   5.438
 4227POPC   GL155645  36.319   8.204   5.865
 4227POPC   GL255646  36.339   8.579   5.931
 4227POPC   C1A55647  36.310   8.037   6.297
 4227POPC   D2A55648  36.072   7.858   6.661
 4227POPC   C3A55649  36.249   8.063   7.021
 4227POPC   C4A55650  36.203   8.519   7.153
 4227POPC   C1B55651  36.004   8.435   6.209
 4227POPC   C2B55652  36.046   8.373   6.664
 4227POPC   C3B55653  35.717   8.577   6.911
 4227POPC   C4B55654  35.683   8.782   7.263
 4228POPC   NC355655  32.077   6.277   5.481
 4228POPC   PO455656  32.281   6.877   5.242
 4228POPC   GL155657  32.117   6.768   5.645
 4228POPC   GL255658  32.324   7.018   5.750
 4228POPC   C1A55659  32.104   6.594   6.093
 4228POPC   D2A55660  32.024   6.794   6.499
 4228POPC   C3A55661  32.013   6.638   6.905
 4228POPC   C4A55662  32.325   6.445   7.171
 4228POPC   C1B55663  32.352   7.041   6.175
 4228POPC   C2B55664  32.542   6.790   6.500
 4228POPC   C3B55665  32.530   6.911   6.931
 4228POPC   C4B55666  32.178   7.075   7.139
 4229POPC   NC355667  23.686   0.216   5.357
 4229POPC   PO455668  23.760   0.918   5.479
 4229POPC   GL155669  23.651   0.603   5.756
 4229POPC   GL255670  23.951   0.413   5.753
 4229POPC   C1A55671  23.591   0.402   6.169
 4229POPC   D2A55672  23.592   0.129   6.538
 4229POPC   C3A55673  23.324   0.221   6.887
 4229POPC   C4A55674  23.480   0.237   7.325
 4229POPC   C1B55675  24.041   0.638   6.134
 4229POPC   C2B55676  23.901   0.608   6.571
 4229POPC   C3B55677  23.805   0.421   6.940
 4229POPC   C4B55678  23.973   0.523   7.324
 4230POPC   NC355679  22.215   1.203   5.427
 4230POPC   PO455680  21.852   0.628   5.307
 4230POPC   GL155681  21.759   0.981   5.674
 4230POPC   GL255682  21.752   1.377   5.699
 4230POPC   C1A55683  21.974   1.150   6.090
 4230POPC   D2A55684  22.222   1.285   6.476
 4230POPC   C3A55685  22.120   1.152   6.886
 4230POPC   C4A55686  22.272   1.035   7.303
 4230POPC   C1B55687  21.812   1.654   6.109
 4230POPC   C2B55688  21.949   1.707   6.599
 4230POPC   C3B55689  21.871   1.619   7.052
 4230POPC   C4B55690  21.779   1.205   7.266
 4231POPC   NC355691  19.483   0.218   5.522
 4231POPC   PO455692  19.855   0.888   5.437
 4231POPC   GL155693  19.827   0.647   5.867
 4231POPC   GL255694  19.961   0.364   5.729
 4231POPC   C1A55695  19.649   0.508   6.344
 4231POPC   D2A55696  19.489   0.322   6.740
 4231POPC   C3A55697  19.801   0.431   7.050
 4231POPC   C4A55698  20.149   0.431   7.312
 4231POPC   C1B55699  20.081   0.292   6.180
 4231POPC   C2B55700  19.992   0.193   6.642
 4231POPC   C3B55701  20.076  44.975   7.084
 4231POPC   C4B55702  20.269   0.025   7.581
 4232POPC   NC355703  30.424  32.875   5.441
 4232POPC   PO455704  31.025  32.756   5.610
 4232POPC   GL155705  30.729  33.018   5.849
 4232POPC   GL255706  30.736  33.385   5.814
 4232POPC   C1A55707  30.433  32.849   6.151
 4232POPC   D2A55708  30.500  32.668   6.553
 4232POPC   C3A55709  30.818  32.903   6.808
 4232POPC   C4A55710  30.844  32.846   7.252
 4232POPC   C1B55711  30.581  33.352   6.255
 4232POPC   C2B55712  30.450  33.248   6.701
 4232POPC   C3B55713  30.485  33.337   7.173
 4232POPC   C4B55714  30.378  33.518   7.608
 4233POPC   NC355715  29.549  42.248   5.301
 4233POPC   PO455716  28.781  42.106   5.170
 4233POPC   GL155717  28.949  42.363   5.620
 4233POPC   GL255718  28.862  42.087   5.853
 4233POPC   C1A55719  29.217  42.400   6.064
 4233POPC   D2A55720  29.187  42.276   6.548
 4233POPC   C3A55721  29.402  42.349   6.956
 4233POPC   C4A55722  29.503  42.227   7.378
 4233POPC   C1B55723  28.755  42.274   6.271
 4233POPC   C2B55724  28.700  42.299   6.716
 4233POPC   C3B55725  28.973  42.091   7.041
 4233POPC   C4B55726  29.005  42.142   7.478
 4234POPC   NC355727   5.149  12.351   5.437
 4234POPC   PO455728   4.508  12.151   5.181
 4234POPC   GL155729   4.842  11.983   5.601
 4234POPC   GL255730   4.882  12.247   5.828
 4234POPC   C1A55731   5.050  11.886   6.111
 4234POPC   D2A55732   4.941  11.804   6.561
 4234POPC   C3A55733   5.129  11.665   6.965
 4234POPC   C4A55734   5.046  11.856   7.390
 4234POPC   C1B55735   5.122  12.414   6.159
 4234POPC   C2B55736   5.149  12.276   6.577
 4234POPC   C3B55737   4.985  12.169   6.983
 4234POPC   C4B55738   4.936  12.365   7.396
 4235POPC   NC355739  21.614  27.964   5.364
 4235POPC   PO455740  21.074  28.384   5.342
 4235POPC   GL155741  21.217  28.473   5.765
 4235POPC   GL255742  21.544  28.354   5.813
 4235POPC   C1A55743  21.140  28.309   6.171
 4235POPC   D2A55744  21.092  28.537   6.514
 4235POPC   C3A55745  21.450  28.504   6.782
 4235POPC   C4A55746  21.403  28.455   7.222
 4235POPC   C1B55747  21.573  27.980   6.078
 4235POPC   C2B55748  21.697  28.040   6.514
 4235POPC   C3B55749  21.494  27.990   6.913
 4235POPC   C4B55750  21.681  28.018   7.301
 4236POPC   NC355751  42.163  18.645   5.387
 4236POPC   PO455752  42.604  18.183   5.338
 4236POPC   GL155753  42.382  18.228   5.755
 4236POPC   GL255754  42.084  18.437   5.843
 4236POPC   C1A55755  42.233  18.108   6.184
 4236POPC   D2A55756  42.387  18.247   6.546
 4236POPC   C3A55757  42.260  18.085   6.885
 4236POPC   C4A55758  42.477  18.155   7.233
 4236POPC   C1B55759  42.258  18.619   6.212
 4236POPC   C2B55760  42.163  18.703   6.641
 4236POPC   C3B55761  42.237  18.581   7.083
 4236POPC   C4B55762  42.242  18.502   7.546
 4237POPC   NC355763  42.563  38.894   5.588
 4237POPC   PO455764  42.193  38.351   5.439
 4237POPC   GL155765  42.368  38.478   5.808
 4237POPC   GL255766  42.159  38.797   5.865
 4237POPC   C1A55767  42.590  38.315   6.177
 4237POPC   D2A55768  42.433  38.361   6.601
 4237POPC   C3A55769  42.472  38.142   6.972
 4237POPC   C4A55770  42.609  38.377   7.322
 4237POPC   C1B55771  42.228  38.688   6.254
 4237POPC   C2B55772  42.093  38.781   6.621
 4237POPC   C3B55773  42.284  38.662   6.992
 4237POPC   C4B55774  42.013  38.807   7.294
 4238POPC   NC355775  16.384   6.036   5.022
 4238POPC   PO455776  16.857   5.674   5.330
 4238POPC   GL155777  16.745   5.625   5.766
 4238POPC   GL255778  17.056   5.557   5.806
 4238POPC   C1A55779  16.548   5.798   6.181
 4238POPC   D2A55780  16.716   6.051   6.560
 4238POPC   C3A55781  16.604   5.975   7.007
 4238POPC   C4A55782  16.459   5.944   7.436
 4238POPC   C1B55783  17.064   5.828   6.168
 4238POPC   C2B55784  17.181   5.850   6.594
 4238POPC   C3B55785  17.099   6.067   6.963
 4238POPC   C4B55786  17.060   5.808   7.294
 4239POPC   NC355787  44.131  32.902   5.499
 4239POPC   PO455788  43.620  32.569   5.359
 4239POPC   GL155789  43.616  32.845   5.732
 4239POPC   GL255790  43.701  33.196   5.668
 4239POPC   C1A55791  43.795  32.859   6.171
 4239POPC   D2A55792  44.015  33.209   6.440
 4239POPC   C3A55793  44.155  33.060   6.873
 4239POPC   C4A55794  44.016  32.674   7.087
 4239POPC   C1B55795  43.600  33.320   6.085
 4239POPC   C2B55796  43.516  33.358   6.535
 4239POPC   C3B55797  43.782  33.436   6.896
 4239POPC   C4B55798  43.842  33.201   7.290
 4240POPC   NC355799  21.017  41.989   5.379
 4240POPC   PO455800  21.456  41.428   5.370
 4240POPC   GL155801  21.307  41.656   5.731
 4240POPC   GL255802  21.187  41.364   5.939
 4240POPC   C1A55803  21.453  41.790   6.144
 4240POPC   D2A55804  21.264  41.616   6.503
 4240POPC   C3A55805  21.473  41.702   6.888
 4240POPC   C4A55806  21.325  41.711   7.338
 4240POPC   C1B55807  21.624  41.310   6.152
 4240POPC   C2B55808  21.903  41.439   6.493
 4240POPC   C3B55809  21.962  41.270   6.894
 4240POPC   C4B55810  21.676  41.366   7.208
 4241POPC   NC355811   0.044  16.615   5.232
 4241POPC   PO455812   0.636  16.503   5.501
 4241POPC   GL155813   0.632  16.756   5.847
 4241POPC   GL255814   0.324  16.997   5.844
 4241POPC   C1A55815   0.777  16.620   6.238
 4241POPC   D2A55816   0.520  16.592   6.611
 4241POPC   C3A55817   0.726  16.450   6.985
 4241POPC   C4A55818   0.513  16.386   7.368
 4241POPC   C1B55819   0.602  17.113   6.218
 4241POPC   C2B55820   0.774  17.030   6.589
 4241POPC   C3B55821   0.593  16.971   6.968
 4241POPC   C4B55822   0.375  17.287   7.186
 4242POPC   NC355823  13.804   7.155   5.536
 4242POPC   PO455824  13.551   6.580   5.249
 4242POPC   GL155825  13.610   6.413   5.656
 4242POPC   GL255826  13.763   6.711   5.789
 4242POPC   C1A55827  13.610   6.356   6.119
 4242POPC   D2A55828  13.483   6.530   6.522
 4242POPC   C3A55829  13.487   6.354   6.937
 4242POPC   C4A55830  13.667   6.640   7.231
 4242POPC   C1B55831  13.890   6.784   6.220
 4242POPC   C2B55832  14.184   6.909   6.544
 4242POPC   C3B55833  14.093   6.813   6.977
 4242POPC   C4B55834  14.138   6.820   7.412
 4243POPC   NC355835  37.784  29.756   5.054
 4243POPC   PO455836  37.463  30.049   5.574
 4243POPC   GL155837  37.604  29.974   5.964
 4243POPC   GL255838  37.907  29.812   5.873
 4243POPC   C1A55839  37.636  29.938   6.400
 4243POPC   D2A55840  37.283  29.872   6.682
 4243POPC   C3A55841  37.401  29.952   7.074
 4243POPC   C4A55842  37.514  29.632   7.338
 4243POPC   C1B55843  38.136  29.819   6.254
 4243POPC   C2B55844  38.120  29.770   6.687
 4243POPC   C3B55845  37.897  29.807   7.042
 4243POPC   C4B55846  37.910  29.974   7.449
 4244POPC   NC355847  12.721  35.789   5.232
 4244POPC   PO455848  13.211  35.326   5.379
 4244POPC   GL155849  12.955  35.515   5.747
 4244POPC   GL255850  12.645  35.756   5.758
 4244POPC   C1A55851  12.812  35.411   6.177
 4244POPC   D2A55852  12.590  35.413   6.570
 4244POPC   C3A55853  12.580  35.154   6.925
 4244POPC   C4A55854  12.558  35.353   7.287
 4244POPC   C1B55855  12.872  35.903   6.154
 4244POPC   C2B55856  13.015  35.724   6.544
 4244POPC   C3B55857  12.934  35.558   6.964
 4244POPC   C4B55858  13.145  35.713   7.324
 4245POPC   NC355859   0.567  11.664   5.288
 4245POPC   PO455860   0.369  12.264   5.296
 4245POPC   GL155861   0.402  12.143   5.704
 4245POPC   GL255862   0.613  11.883   5.770
 4245POPC   C1A55863   0.196  12.041   6.089
 4245POPC   D2A55864   0.286  12.280   6.446
 4245POPC   C3A55865   0.308  12.059   6.804
 4245POPC   C4A55866   0.455  11.892   7.173
 4245POPC   C1B55867   0.698  12.143   6.145
 4245POPC   C2B55868   0.791  12.187   6.613
 4245POPC   C3B55869   0.692  12.361   7.053
 4245POPC   C4B55870   0.661  12.206   7.494
 4246POPC   NC355871  39.888  22.988   5.247
 4246POPC   PO455872  40.520  23.064   5.324
 4246POPC   GL155873  40.180  22.969   5.679
 4246POPC   GL255874  39.792  22.989   5.751
 4246POPC   C1A55875  40.128  22.795   6.109
 4246POPC   D2A55876  40.394  22.833   6.493
 4246POPC   C3A55877  40.244  22.903   6.933
 4246POPC   C4A55878  39.953  22.787   7.275
 4246POPC   C1B55879  39.684  23.238   6.165
 4246POPC   C2B55880  39.709  23.326   6.643
 4246POPC   C3B55881  39.915  23.303   7.068
 4246POPC   C4B55882  39.947  23.256   7.540
 4247POPC   NC355883  14.570  26.107   5.144
 4247POPC   PO455884  14.137  25.611   5.349
 4247POPC   GL155885  14.449  25.868   5.639
 4247POPC   GL255886  14.222  25.894   5.874
 4247POPC   C1A55887  14.601  26.130   6.086
 4247POPC   D2A55888  14.346  26.100   6.467
 4247POPC   C3A55889  14.313  26.154   6.917
 4247POPC   C4A55890  14.467  26.181   7.334
 4247POPC   C1B55891  14.584  25.649   6.103
 4247POPC   C2B55892  14.651  25.677   6.541
 4247POPC   C3B55893  14.482  25.679   6.951
 4247POPC   C4B55894  14.571  25.707   7.380
 4248POPC   NC355895   7.008  32.118   5.434
 4248POPC   PO455896   7.729  32.332   5.249
 4248POPC   GL155897   7.553  32.381   5.684
 4248POPC   GL255898   7.293  32.581   5.719
 4248POPC   C1A55899   7.301  32.191   6.066
 4248POPC   D2A55900   7.178  32.026   6.508
 4248POPC   C3A55901   7.449  32.209   6.836
 4248POPC   C4A55902   7.402  32.307   7.248
 4248POPC   C1B55903   7.127  32.709   6.099
 4248POPC   C2B55904   7.222  32.546   6.508
 4248POPC   C3B55905   7.302  32.704   6.913
 4248POPC   C4B55906   7.034  32.700   7.264
 4249POPC   NC355907  39.656   7.887   5.372
 4249POPC   PO455908  40.192   8.313   5.373
 4249POPC   GL155909  39.915   8.206   5.737
 4249POPC   GL255910  40.061   7.845   5.696
 4249POPC   C1A55911  39.757   8.302   6.210
 4249POPC   D2A55912  39.760   8.064   6.646
 4249POPC   C3A55913  39.840   8.167   7.105
 4249POPC   C4A55914  39.907   8.471   7.459
 4249POPC   C1B55915  40.081   7.933   6.127
 4249POPC   C2B55916  40.203   7.823   6.546
 4249POPC   C3B55917  40.293   7.988   6.946
 4249POPC   C4B55918  40.149   7.824   7.346
 4250POPC   NC355919  39.018   7.818   5.492
 4250POPC   PO455920  38.398   8.000   5.351
 4250POPC   GL155921  38.226   8.223   5.695
 4250POPC   GL255922  38.561   8.249   5.884
 4250POPC   C1A55923  38.132   8.149   6.136
 4250POPC   D2A55924  38.391   8.202   6.469
 4250POPC   C3A55925  38.284   8.016   6.858
 4250POPC   C4A55926  38.206   8.003   7.309
 4250POPC   C1B55927  38.816   8.544   6.160
 4250POPC   C2B55928  39.041   8.662   6.563
 4250POPC   C3B55929  38.902   8.427   6.926
 4250POPC   C4B55930  38.632   8.207   7.161
 4251POPC   NC355931   5.492   7.464   5.454
 4251POPC   PO455932   4.861   7.502   5.259
 4251POPC   GL155933   5.076   7.333   5.717
 4251POPC   GL255934   5.436   7.195   5.883
 4251POPC   C1A55935   5.070   7.427   6.170
 4251POPC   D2A55936   5.273   7.596   6.516
 4251POPC   C3A55937   5.024   7.613   6.862
 4251POPC   C4A55938   5.012   7.494   7.282
 4251POPC   C1B55939   5.410   7.072   6.357
 4251POPC   C2B55940   5.257   7.157   6.812
 4251POPC   C3B55941   5.301   7.064   7.278
 4251POPC   C4B55942   5.247   6.890   7.736
 4252POPC   NC355943  31.438  42.393   5.445
 4252POPC   PO455944  32.010  42.035   5.536
 4252POPC   GL155945  31.684  42.157   5.849
 4252POPC   GL255946  31.699  42.524   5.855
 4252POPC   C1A55947  31.383  42.263   6.205
 4252POPC   D2A55948  31.228  42.169   6.637
 4252POPC   C3A55949  31.334  42.416   7.017
 4252POPC   C4A55950  31.251  42.389   7.463
 4252POPC   C1B55951  31.880  42.434   6.240
 4252POPC   C2B55952  31.728  42.332   6.639
 4252POPC   C3B55953  31.855  42.345   7.061
 4252POPC   C4B55954  31.764  42.655   7.362
 4253POPC   NC355955  15.724   9.739   5.227
 4253POPC   PO455956  16.192   9.363   5.546
 4253POPC   GL155957  15.970   9.709   5.806
 4253POPC   GL255958  15.688   9.955   5.708
 4253POPC   C1A55959  16.047  10.049   6.132
 4253POPC   D2A55960  15.851  10.161   6.543
 4253POPC   C3A55961  15.853   9.850   6.867
 4253POPC   C4A55962  16.102   9.608   7.169
 4253POPC   C1B55963  15.563   9.902   6.138
 4253POPC   C2B55964  15.403   9.876   6.537
 4253POPC   C3B55965  15.382  10.121   6.897
 4253POPC   C4B55966  15.647  10.101   7.256
 4254POPC   NC355967  16.155  35.518   5.319
 4254POPC   PO455968  15.620  35.431   5.654
 4254POPC   GL155969  15.819  35.564   6.035
 4254POPC   GL255970  16.122  35.493   5.862
 4254POPC   C1A55971  16.024  35.453   6.418
 4254POPC   D2A55972  16.069  35.064   6.671
 4254POPC   C3A55973  15.948  35.198   7.072
 4254POPC   C4A55974  15.781  35.605   7.091
 4254POPC   C1B55975  16.430  35.593   6.118
 4254POPC   C2B55976  16.522  35.508   6.521
 4254POPC   C3B55977  16.404  35.376   6.897
 4254POPC   C4B55978  16.291  35.568   7.265
 4255POPC   NC355979  41.491   9.301   5.396
 4255POPC   PO455980  41.819   8.773   5.299
 4255POPC   GL155981  41.557   8.855   5.720
 4255POPC   GL255982  41.595   9.174   5.867
 4255POPC   C1A55983  41.405   8.912   6.226
 4255POPC   D2A55984  41.475   9.183   6.620
 4255POPC   C3A55985  41.490   8.875   6.974
 4255POPC   C4A55986  41.831   8.792   7.264
 4255POPC   C1B55987  41.812   9.332   6.246
 4255POPC   C2B55988  41.816   9.604   6.643
 4255POPC   C3B55989  41.815   9.576   7.086
 4255POPC   C4B55990  41.587   9.298   7.232
 4256POPC   NC355991  35.432  14.632   5.381
 4256POPC   PO455992  35.401  15.296   5.317
 4256POPC   GL155993  35.312  15.206   5.743
 4256POPC   GL255994  35.082  14.901   5.785
 4256POPC   C1A55995  35.502  15.348   6.148
 4256POPC   D2A55996  35.282  15.333   6.554
 4256POPC   C3A55997  35.471  15.169   6.893
 4256POPC   C4A55998  35.606  15.134   7.301
 4256POPC   C1B55999  35.233  14.932   6.186
 4256POPC   C2B56000  35.195  14.837   6.584
 4256POPC   C3B56001  35.022  14.757   6.928
 4256POPC   C4B56002  35.280  14.773   7.216
 4257POPC   NC356003  16.854  22.378   5.515
 4257POPC   PO456004  16.362  21.968   5.486
 4257POPC   GL156005  16.528  22.120   5.866
 4257POPC   GL256006  16.875  22.147   5.965
 4257POPC   C1A56007  16.522  22.355   6.255
 4257POPC   D2A56008  16.774  22.173   6.580
 4257POPC   C3A56009  16.634  22.222   6.992
 4257POPC   C4A56010  16.710  22.387   7.409
 4257POPC   C1B56011  17.037  22.485   6.252
 4257POPC   C2B56012  16.898  22.704   6.665
 4257POPC   C3B56013  16.843  22.787   7.143
 4257POPC   C4B56014  17.052  22.714   7.603
 4258POPC   NC356015   3.797  41.737   5.420
 4258POPC   PO456016   3.171  41.464   5.257
 4258POPC   GL156017   3.439  41.426   5.628
 4258POPC   GL256018   3.788  41.301   5.683
 4258POPC   C1A56019   3.469  41.564   6.071
 4258POPC   D2A56020   3.393  41.390   6.502
 4258POPC   C3A56021   3.558  41.514   6.899
 4258POPC   C4A56022   3.369  41.465   7.293
 4258POPC   C1B56023   3.847  41.241   6.152
 4258POPC   C2B56024   3.907  41.176   6.629
 4258POPC   C3B56025   4.033  41.407   7.053
 4258POPC   C4B56026   3.837  41.565   7.470
 4259POPC   NC356027  16.004  17.619   5.370
 4259POPC   PO456028  15.979  17.025   5.566
 4259POPC   GL156029  15.851  17.373   5.815
 4259POPC   GL256030  16.143  17.544   5.851
 4259POPC   C1A56031  15.835  17.367   6.248
 4259POPC   D2A56032  15.860  17.196   6.650
 4259POPC   C3A56033  15.688  17.389   7.003
 4259POPC   C4A56034  15.799  17.470   7.435
 4259POPC   C1B56035  16.235  17.724   6.221
 4259POPC   C2B56036  16.128  17.659   6.638
 4259POPC   C3B56037  16.156  17.612   7.075
 4259POPC   C4B56038  16.194  17.828   7.445
 4260POPC   NC356039  25.520  44.736   5.508
 4260POPC   PO456040  24.958   0.022   5.397
 4260POPC   GL156041  25.093  44.787   5.802
 4260POPC   GL256042  25.256  44.450   5.859
 4260POPC   C1A56043  25.142  44.733   6.270
 4260POPC   D2A56044  24.907  44.550   6.619
 4260POPC   C3A56045  24.964  44.580   7.084
 4260POPC   C4A56046  25.027  44.556   7.566
 4260POPC   C1B56047  25.315  44.229   6.262
 4260POPC   C2B56048  25.518  44.392   6.627
 4260POPC   C3B56049  25.452  44.717   6.929
 4260POPC   C4B56050  25.446  44.499   7.285
 4261POPC   NC356051  28.808   1.480   5.319
 4261POPC   PO456052  29.385   1.099   5.146
 4261POPC   GL156053  29.158   1.149   5.601
 4261POPC   GL256054  29.178   1.467   5.751
 4261POPC   C1A56055  29.242   1.066   6.092
 4261POPC   D2A56056  29.316   1.177   6.533
 4261POPC   C3A56057  29.006   1.029   6.854
 4261POPC   C4A56058  29.208   1.033   7.255
 4261POPC   C1B56059  29.156   1.614   6.189
 4261POPC   C2B56060  28.925   1.495   6.571
 4261POPC   C3B56061  29.072   1.512   6.987
 4261POPC   C4B56062  29.347   1.512   7.318
 4262POPC   NC356063  13.433  10.727   5.344
 4262POPC   PO456064  13.914  10.547   5.747
 4262POPC   GL156065  13.570  10.444   5.975
 4262POPC   GL256066  13.228  10.544   5.913
 4262POPC   C1A56067  13.712  10.412   6.382
 4262POPC   D2A56068  13.940  10.648   6.638
 4262POPC   C3A56069  13.851  10.426   6.944
 4262POPC   C4A56070  13.797  10.485   7.322
 4262POPC   C1B56071  13.199  10.434   6.358
 4262POPC   C2B56072  13.376  10.534   6.786
 4262POPC   C3B56073  13.310  10.497   7.238
 4262POPC   C4B56074  13.411  10.563   7.708
 4263POPC   NC356075  21.886  19.500   5.726
 4263POPC   PO456076  22.256  19.908   5.450
 4263POPC   GL156077  22.368  19.968   5.868
 4263POPC   GL256078  22.372  20.314   5.786
 4263POPC   C1A56079  22.261  19.866   6.309
 4263POPC   D2A56080  21.852  19.840   6.490
 4263POPC   C3A56081  21.842  19.650   6.905
 4263POPC   C4A56082  22.165  19.618   7.248
 4263POPC   C1B56083  22.018  20.266   6.111
 4263POPC   C2B56084  22.089  20.315   6.567
 4263POPC   C3B56085  22.177  20.053   6.921
 4263POPC   C4B56086  22.455  20.047   7.254
 4264POPC   NC356087  11.717   9.811   5.334
 4264POPC   PO456088  11.151   9.445   5.508
 4264POPC   GL156089  11.491   9.536   5.797
 4264POPC   GL256090  11.558   9.918   5.796
 4264POPC   C1A56091  11.373   9.340   6.205
 4264POPC   D2A56092  11.076   9.363   6.562
 4264POPC   C3A56093  11.148   9.682   6.910
 4264POPC   C4A56094  10.996   9.768   7.326
 4264POPC   C1B56095  11.605   9.845   6.207
 4264POPC   C2B56096  11.477   9.912   6.594
 4264POPC   C3B56097  11.643   9.838   6.975
 4264POPC   C4B56098  11.441  10.004   7.308
 4265POPC   NC356099  15.571   3.692   5.575
 4265POPC   PO456100  16.190   3.423   5.572
 4265POPC   GL156101  15.840   3.322   5.821
 4265POPC   GL256102  15.879   3.653   6.005
 4265POPC   C1A56103  15.582   3.274   6.186
 4265POPC   D2A56104  15.745   3.555   6.521
 4265POPC   C3A56105  15.751   3.315   6.883
 4265POPC   C4A56106  15.635   3.392   7.308
 4265POPC   C1B56107  16.141   3.931   6.291
 4265POPC   C2B56108  16.269   4.075   6.675
 4265POPC   C3B56109  16.009   3.843   6.904
 4265POPC   C4B56110  16.087   3.550   7.180
 4266POPC   NC356111  23.393  20.158   5.241
 4266POPC   PO456112  23.892  19.678   5.311
 4266POPC   GL156113  23.664  19.944   5.665
 4266POPC   GL256114  23.954  19.840   5.833
 4266POPC   C1A56115  23.559  19.844   6.137
 4266POPC   D2A56116  23.520  19.613   6.516
 4266POPC   C3A56117  23.500  19.851   6.878
 4266POPC   C4A56118  23.271  19.949   7.238
 4266POPC   C1B56119  24.086  19.643   6.192
 4266POPC   C2B56120  24.000  19.416   6.561
 4266POPC   C3B56121  23.960  19.619   6.907
 4266POPC   C4B56122  23.850  19.801   7.271
 4267POPC   NC356123   1.082  25.303   5.242
 4267POPC   PO456124   0.934  24.679   5.456
 4267POPC   GL156125   1.024  25.067   5.727
 4267POPC   GL256126   0.994  25.457   5.748
 4267POPC   C1A56127   1.080  25.176   6.186
 4267POPC   D2A56128   0.899  25.324   6.603
 4267POPC   C3A56129   1.105  25.060   6.946
 4267POPC   C4A56130   1.339  25.111   7.346
 4267POPC   C1B56131   0.948  25.672   6.192
 4267POPC   C2B56132   0.895  25.855   6.626
 4267POPC   C3B56133   0.912  25.731   7.070
 4267POPC   C4B56134   1.030  25.593   7.517
 4268POPC   NC356135  33.473  34.750   5.333
 4268POPC   PO456136  33.803  34.147   5.377
 4268POPC   GL156137  33.664  34.466   5.733
 4268POPC   GL256138  33.428  34.421   5.993
 4268POPC   C1A56139  33.848  34.741   6.102
 4268POPC   D2A56140  34.030  34.679   6.532
 4268POPC   C3A56141  33.765  34.646   6.888
 4268POPC   C4A56142  33.879  34.662   7.307
 4268POPC   C1B56143  33.589  34.432   6.411
 4268POPC   C2B56144  33.657  34.171   6.763
 4268POPC   C3B56145  33.546  34.250   7.213
 4268POPC   C4B56146  33.463  34.484   7.636
 4269POPC   NC356147  43.175  23.027   5.291
 4269POPC   PO456148  42.847  22.463   5.457
 4269POPC   GL156149  43.092  22.733   5.760
 4269POPC   GL256150  42.955  23.047   5.773
 4269POPC   C1A56151  43.278  22.936   6.158
 4269POPC   D2A56152  43.089  23.034   6.576
 4269POPC   C3A56153  43.375  23.009   6.930
 4269POPC   C4A56154  43.394  22.839   7.335
 4269POPC   C1B56155  42.765  22.897   6.151
 4269POPC   C2B56156  42.689  22.679   6.513
 4269POPC   C3B56157  42.656  22.760   6.941
 4269POPC   C4B56158  42.936  22.966   7.183
 4270POPC   NC356159   4.413  43.267   5.322
 4270POPC   PO456160   3.911  42.892   5.615
 4270POPC   GL156161   4.272  43.021   5.736
 4270POPC   GL256162   4.543  42.789   5.580
 4270POPC   C1A56163   4.227  43.082   6.185
 4270POPC   D2A56164   4.016  42.892   6.539
 4270POPC   C3A56165   3.908  43.151   6.887
 4270POPC   C4A56166   4.224  43.130   7.223
 4270POPC   C1B56167   4.648  42.856   6.003
 4270POPC   C2B56168   4.652  42.944   6.457
 4270POPC   C3B56169   4.637  42.922   6.934
 4270POPC   C4B56170   4.734  43.293   7.201
 4271POPC   NC356171  14.606  11.043   5.460
 4271POPC   PO456172  14.131  11.506   5.568
 4271POPC   GL156173  14.509  11.483   5.856
 4271POPC   GL256174  14.540  11.162   5.956
 4271POPC   C1A56175  14.656  11.568   6.285
 4271POPC   D2A56176  14.701  11.279   6.633
 4271POPC   C3A56177  14.488  11.356   7.013
 4271POPC   C4A56178  14.465  11.687   7.288
 4271POPC   C1B56179  14.218  11.051   6.274
 4271POPC   C2B56180  14.104  11.125   6.710
 4271POPC   C3B56181  14.110  10.989   7.131
 4271POPC   C4B56182  14.185  11.285   7.465
 4272POPC   NC356183  35.076   6.705   5.463
 4272POPC   PO456184  35.629   6.458   5.357
 4272POPC   GL156185  35.535   6.725   5.732
 4272POPC   GL256186  35.205   6.843   5.928
 4272POPC   C1A56187  35.636   6.793   6.187
 4272POPC   D2A56188  35.526   6.923   6.627
 4272POPC   C3A56189  35.570   6.662   6.979
 4272POPC   C4A56190  35.308   6.409   7.239
 4272POPC   C1B56191  35.223   7.145   6.274
 4272POPC   C2B56192  35.049   7.109   6.683
 4272POPC   C3B56193  35.103   6.871   7.078
 4272POPC   C4B56194  34.829   6.573   7.351
 4273POPC   NC356195   7.103  21.880   5.273
 4273POPC   PO456196   7.638  21.673   5.380
 4273POPC   GL156197   7.414  21.855   5.726
 4273POPC   GL256198   7.119  22.073   5.811
 4273POPC   C1A56199   7.616  22.048   6.060
 4273POPC   D2A56200   7.657  22.198   6.466
 4273POPC   C3A56201   7.400  22.040   6.759
 4273POPC   C4A56202   7.460  22.176   7.165
 4273POPC   C1B56203   7.209  22.316   6.210
 4273POPC   C2B56204   7.268  22.530   6.635
 4273POPC   C3B56205   7.249  22.670   7.102
 4273POPC   C4B56206   7.144  22.507   7.513
 4274POPC   NC356207  21.462  33.067   5.178
 4274POPC   PO456208  20.931  33.129   5.484
 4274POPC   GL156209  21.276  33.010   5.678
 4274POPC   GL256210  21.566  33.234   5.661
 4274POPC   C1A56211  21.361  32.902   6.089
 4274POPC   D2A56212  21.609  32.909   6.469
 4274POPC   C3A56213  21.341  33.023   6.823
 4274POPC   C4A56214  21.448  32.970   7.253
 4274POPC   C1B56215  21.703  33.293   6.105
 4274POPC   C2B56216  21.560  33.418   6.531
 4274POPC   C3B56217  21.654  33.406   6.982
 4274POPC   C4B56218  21.609  33.423   7.435
 4275POPC   NC356219  15.518  17.144   5.502
 4275POPC   PO456220  15.768  16.590   5.184
 4275POPC   GL156221  15.775  16.595   5.728
 4275POPC   GL256222  15.494  16.768   5.847
 4275POPC   C1A56223  15.991  16.756   6.169
 4275POPC   D2A56224  16.185  16.806   6.631
 4275POPC   C3A56225  16.114  16.572   7.043
 4275POPC   C4A56226  15.998  16.487   7.499
 4275POPC   C1B56227  15.526  16.922   6.280
 4275POPC   C2B56228  15.515  16.803   6.730
 4275POPC   C3B56229  15.705  16.861   7.135
 4275POPC   C4B56230  15.841  16.970   7.553
 4276POPC   NC356231  36.509  19.604   5.608
 4276POPC   PO456232  36.262  18.992   5.402
 4276POPC   GL156233  36.343  19.160   5.829
 4276POPC   GL256234  36.040  19.386   5.862
 4276POPC   C1A56235  36.341  19.332   6.264
 4276POPC   D2A56236  36.189  19.188   6.672
 4276POPC   C3A56237  36.386  19.279   7.045
 4276POPC   C4A56238  36.259  19.003   7.350
 4276POPC   C1B56239  35.833  19.325   6.296
 4276POPC   C2B56240  35.754  19.432   6.727
 4276POPC   C3B56241  35.884  19.371   7.148
 4276POPC   C4B56242  35.929  19.321   7.615
 4277POPC   NC356243  42.229  25.085   5.480
 4277POPC   PO456244  42.770  25.288   5.252
 4277POPC   GL156245  42.728  25.288   5.733
 4277POPC   GL256246  42.474  25.119   5.922
 4277POPC   C1A56247  42.729  25.507   6.161
 4277POPC   D2A56248  42.631  25.464   6.650
 4277POPC   C3A56249  42.668  25.108   6.933
 4277POPC   C4A56250  42.560  24.920   7.325
 4277POPC   C1B56251  42.267  25.298   6.238
 4277POPC   C2B56252  42.264  25.037   6.594
 4277POPC   C3B56253  42.167  25.024   7.004
 4277POPC   C4B56254  41.902  24.906   7.288
 4278POPC   NC356255  33.377  14.731   5.298
 4278POPC   PO456256  33.965  14.640   5.246
 4278POPC   GL156257  34.115  14.597   5.734
 4278POPC   GL256258  33.996  14.261   5.820
 4278POPC   C1A56259  34.086  14.571   6.250
 4278POPC   D2A56260  33.895  14.606   6.702
 4278POPC   C3A56261  34.015  14.374   7.102
 4278POPC   C4A56262  33.936  14.186   7.558
 4278POPC   C1B56263  33.819  14.134   6.257
 4278POPC   C2B56264  33.799  14.101   6.722
 4278POPC   C3B56265  33.750  13.931   7.154
 4278POPC   C4B56266  33.737  13.689   7.552
 4279POPC   NC356267  30.724  43.847   5.299
 4279POPC   PO456268  30.557  43.304   5.317
 4279POPC   GL156269  30.437  43.624   5.699
 4279POPC   GL256270  30.719  43.881   5.796
 4279POPC   C1A56271  30.441  43.730   6.179
 4279POPC   D2A56272  30.660  43.641   6.560
 4279POPC   C3A56273  30.464  43.727   6.954
 4279POPC   C4A56274  30.544  43.582   7.364
 4279POPC   C1B56275  30.662  44.228   6.098
 4279POPC   C2B56276  30.663  44.347   6.532
 4279POPC   C3B56277  30.578  44.261   6.980
 4279POPC   C4B56278  30.724  44.058   7.355
 4280POPC   NC356279  41.478  41.627   5.474
 4280POPC   PO456280  41.052  42.050   5.665
 4280POPC   GL156281  41.386  41.856   5.914
 4280POPC   GL256282  41.767  41.816   5.934
 4280POPC   C1A56283  41.397  41.572   6.256
 4280POPC   D2A56284  41.177  41.428   6.613
 4280POPC   C3A56285  41.417  41.378   6.973
 4280POPC   C4A56286  41.782  41.585   7.144
 4280POPC   C1B56287  41.879  41.455   6.236
 4280POPC   C2B56288  41.691  41.227   6.556
 4280POPC   C3B56289  41.795  41.056   6.944
 4280POPC   C4B56290  42.076  41.135   7.218
 4281POPC   NC356291   7.190  44.963   5.314
 4281POPC   PO456292   7.861  44.667   5.294
 4281POPC   GL156293   7.558  44.810   5.689
 4281POPC   GL256294   7.408  44.511   5.909
 4281POPC   C1A56295   7.526  44.927   6.138
 4281POPC   D2A56296   7.443  44.681   6.511
 4281POPC   C3A56297   7.438  44.871   6.919
 4281POPC   C4A56298   7.705  44.712   7.244
 4281POPC   C1B56299   7.211  44.120   6.059
 4281POPC   C2B56300   7.078  43.997   6.484
 4281POPC   C3B56301   7.220  44.273   6.804
 4281POPC   C4B56302   7.278  44.470   7.160
 4282POPC   NC356303   6.893  16.804   5.360
 4282POPC   PO456304   6.369  17.158   5.444
 4282POPC   GL156305   6.574  16.924   5.771
 4282POPC   GL256306   6.494  16.575   5.743
 4282POPC   C1A56307   6.607  16.994   6.201
 4282POPC   D2A56308   6.523  17.135   6.581
 4282POPC   C3A56309   6.599  16.900   6.941
 4282POPC   C4A56310   6.834  16.865   7.309
 4282POPC   C1B56311   6.689  16.466   6.158
 4282POPC   C2B56312   6.798  16.633   6.538
 4282POPC   C3B56313   6.907  16.509   6.935
 4282POPC   C4B56314   6.573  16.445   7.216
 4283POPC   NC356315   8.079  44.960   5.580
 4283POPC   PO456316   8.167   0.521   5.175
 4283POPC   GL156317   8.277   0.456   5.663
 4283POPC   GL256318   8.566   0.259   5.803
 4283POPC   C1A56319   8.248   0.527   6.152
 4283POPC   D2A56320   7.998   0.564   6.575
 4283POPC   C3A56321   8.177   0.548   7.010
 4283POPC   C4A56322   8.211   0.446   7.465
 4283POPC   C1B56323   8.451   0.052   6.227
 4283POPC   C2B56324   8.374   0.206   6.677
 4283POPC   C3B56325   8.488   0.160   7.143
 4283POPC   C4B56326   8.671   0.231   7.562
 4284POPC   NC356327  41.888  28.535   5.338
 4284POPC   PO456328  42.405  28.015   5.183
 4284POPC   GL156329  42.201  27.915   5.603
 4284POPC   GL256330  42.052  28.224   5.744
 4284POPC   C1A56331  42.395  27.983   6.041
 4284POPC   D2A56332  42.448  28.331   6.333
 4284POPC   C3A56333  42.306  28.274   6.748
 4284POPC   C4A56334  42.206  28.196   7.150
 4284POPC   C1B56335  41.962  28.451   6.151
 4284POPC   C2B56336  42.038  28.702   6.550
 4284POPC   C3B56337  41.992  28.630   6.993
 4284POPC   C4B56338  42.060  28.665   7.452
 4285POPC   NC356339   1.338  40.986   5.320
 4285POPC   PO456340   1.070  40.447   5.265
 4285POPC   GL156341   1.155  40.670   5.686
 4285POPC   GL256342   1.390  40.911   5.835
 4285POPC   C1A56343   1.249  40.499   6.118
 4285POPC   D2A56344   1.275  40.210   6.464
 4285POPC   C3A56345   1.208  40.253   6.910
 4285POPC   C4A56346   1.124  40.423   7.327
 4285POPC   C1B56347   1.383  40.960   6.293
 4285POPC   C2B56348   1.433  40.696   6.637
 4285POPC   C3B56349   1.189  40.775   6.957
 4285POPC   C4B56350   1.257  40.910   7.342
 4286POPC   NC356351  38.390  26.221   5.220
 4286POPC   PO456352  38.066  25.670   5.334
 4286POPC   GL156353  38.339  25.929   5.682
 4286POPC   GL256354  38.533  26.222   5.701
 4286POPC   C1A56355  38.256  26.019   6.139
 4286POPC   D2A56356  38.083  26.182   6.545
 4286POPC   C3A56357  38.282  26.050   6.932
 4286POPC   C4A56358  38.672  25.756   6.989
 4286POPC   C1B56359  38.701  26.241   6.107
 4286POPC   C2B56360  38.688  26.079   6.527
 4286POPC   C3B56361  38.764  26.247   6.925
 4286POPC   C4B56362  38.554  26.304   7.289
 4287POPC   NC356363  41.412  16.219   5.105
 4287POPC   PO456364  41.280  16.785   5.216
 4287POPC   GL156365  41.437  16.986   5.661
 4287POPC   GL256366  41.747  17.205   5.718
 4287POPC   C1A56367  41.490  17.040   6.159
 4287POPC   D2A56368  41.687  17.289   6.528
 4287POPC   C3A56369  41.550  17.095   6.931
 4287POPC   C4A56370  41.420  16.681   7.120
 4287POPC   C1B56371  41.990  17.149   6.149
 4287POPC   C2B56372  42.009  16.909   6.595
 4287POPC   C3B56373  41.935  16.795   7.056
 4287POPC   C4B56374  41.726  16.982   7.425
 4288POPC   NC356375  43.236  19.490   5.355
 4288POPC   PO456376  43.406  20.094   5.228
 4288POPC   GL156377  43.243  20.016   5.663
 4288POPC   GL256378  43.055  19.722   5.797
 4288POPC   C1A56379  43.257  20.069   6.131
 4288POPC   D2A56380  43.106  19.742   6.442
 4288POPC   C3A56381  43.108  19.849   6.889
 4288POPC   C4A56382  43.264  20.072   7.266
 4288POPC   C1B56383  42.769  19.949   6.108
 4288POPC   C2B56384  42.745  20.089   6.536
 4288POPC   C3B56385  42.609  20.007   6.967
 4288POPC   C4B56386  42.799  19.712   7.287
 4289POPC   NC356387  36.411  17.722   5.106
 4289POPC   PO456388  36.843  17.302   5.417
 4289POPC   GL156389  37.020  17.403   5.790
 4289POPC   GL256390  36.746  17.528   5.939
 4289POPC   C1A56391  37.027  17.225   6.213
 4289POPC   D2A56392  36.849  17.218   6.629
 4289POPC   C3A56393  37.072  17.214   6.994
 4289POPC   C4A56394  37.097  17.449   7.352
 4289POPC   C1B56395  36.667  17.616   6.365
 4289POPC   C2B56396  36.624  17.652   6.794
 4289POPC   C3B56397  36.588  17.387   7.128
 4289POPC   C4B56398  36.558  17.369   7.595
 4290POPC   NC356399  32.433  42.196   5.461
 4290POPC   PO456400  32.456  42.895   5.458
 4290POPC   GL156401  32.386  42.589   5.807
 4290POPC   GL256402  32.138  42.788   5.917
 4290POPC   C1A56403  32.359  42.221   6.142
 4290POPC   D2A56404  32.379  42.065   6.619
 4290POPC   C3A56405  32.398  42.183   7.107
 4290POPC   C4A56406  32.578  42.391   7.523
 4290POPC   C1B56407  32.320  42.675   6.354
 4290POPC   C2B56408  32.238  42.552   6.780
 4290POPC   C3B56409  32.266  42.688   7.230
 4290POPC   C4B56410  32.139  42.846   7.665
 4291POPC   NC356411  16.309  39.323   5.428
 4291POPC   PO456412  16.994  39.267   5.397
 4291POPC   GL156413  16.779  39.379   5.735
 4291POPC   GL256414  16.633  39.055   5.791
 4291POPC   C1A56415  16.927  39.303   6.145
 4291POPC   D2A56416  16.784  39.084   6.516
 4291POPC   C3A56417  16.726  39.321   6.904
 4291POPC   C4A56418  16.981  39.468   7.262
 4291POPC   C1B56419  16.409  39.255   6.163
 4291POPC   C2B56420  16.290  39.185   6.613
 4291POPC   C3B56421  16.347  38.949   7.017
 4291POPC   C4B56422  16.272  39.118   7.436
 4292POPC   NC356423  16.173  19.093   5.509
 4292POPC   PO456424  15.603  18.603   5.576
 4292POPC   GL156425  15.744  18.921   5.766
 4292POPC   GL256426  16.048  18.717   5.865
 4292POPC   C1A56427  15.647  19.292   6.008
 4292POPC   D2A56428  15.773  19.300   6.445
 4292POPC   C3A56429  15.607  19.146   6.818
 4292POPC   C4A56430  15.863  19.297   7.164
 4292POPC   C1B56431  15.814  18.801   6.258
 4292POPC   C2B56432  16.000  18.870   6.670
 4292POPC   C3B56433  16.074  18.832   7.109
 4292POPC   C4B56434  16.359  19.041   7.360
 4293POPC   NC356435  27.803  41.130   5.435
 4293POPC   PO456436  27.293  40.748   5.300
 4293POPC   GL156437  27.417  40.820   5.714
 4293POPC   GL256438  27.403  41.161   5.793
 4293POPC   C1A56439  27.427  40.589   6.105
 4293POPC   D2A56440  27.323  40.356   6.475
 4293POPC   C3A56441  27.613  40.464   6.814
 4293POPC   C4A56442  27.517  40.532   7.237
 4293POPC   C1B56443  27.603  41.082   6.192
 4293POPC   C2B56444  27.812  40.881   6.568
 4293POPC   C3B56445  27.713  40.947   7.022
 4293POPC   C4B56446  27.732  41.140   7.466
 4294POPC   NC356447  40.767  23.430   5.423
 4294POPC   PO456448  40.608  24.052   5.452
 4294POPC   GL156449  40.769  23.772   5.807
 4294POPC   GL256450  41.127  23.662   5.788
 4294POPC   C1A56451  40.782  23.441   6.142
 4294POPC   D2A56452  40.727  23.362   6.607
 4294POPC   C3A56453  40.947  23.564   6.943
 4294POPC   C4A56454  40.775  23.918   7.169
 4294POPC   C1B56455  41.192  23.823   6.237
 4294POPC   C2B56456  41.345  23.833   6.714
 4294POPC   C3B56457  41.291  23.850   7.197
 4294POPC   C4B56458  41.078  24.004   7.579
 4295POPC   NC356459  41.139  26.129   5.392
 4295POPC   PO456460  40.570  25.793   5.435
 4295POPC   GL156461  40.536  26.055   5.797
 4295POPC   GL256462  40.811  26.312   5.802
 4295POPC   C1A56463  40.721  25.986   6.219
 4295POPC   D2A56464  41.069  25.925   6.532
 4295POPC   C3A56465  40.899  25.931   6.966
 4295POPC   C4A56466  40.632  26.112   7.299
 4295POPC   C1B56467  41.058  26.380   6.202
 4295POPC   C2B56468  40.998  26.500   6.659
 4295POPC   C3B56469  41.042  26.403   7.111
 4295POPC   C4B56470  40.982  26.331   7.597
 4296POPC   NC356471  13.087  16.587   5.305
 4296POPC   PO456472  12.640  17.045   5.363
 4296POPC   GL156473  12.925  16.858   5.706
 4296POPC   GL256474  12.876  16.498   5.773
 4296POPC   C1A56475  13.015  16.864   6.146
 4296POPC   D2A56476  13.016  17.147   6.510
 4296POPC   C3A56477  12.966  16.965   6.903
 4296POPC   C4A56478  12.661  16.946   7.192
 4296POPC   C1B56479  12.953  16.336   6.188
 4296POPC   C2B56480  12.983  16.537   6.584
 4296POPC   C3B56481  12.789  16.474   6.992
 4296POPC   C4B56482  12.968  16.577   7.379
 4297POPC   NC356483  18.409   7.955   5.438
 4297POPC   PO456484  18.308   7.241   5.387
 4297POPC   GL156485  18.297   7.463   5.816
 4297POPC   GL256486  18.428   7.797   5.939
 4297POPC   C1A56487  18.276   7.432   6.277
 4297POPC   D2A56488  18.070   7.407   6.681
 4297POPC   C3A56489  18.329   7.268   7.014
 4297POPC   C4A56490  18.257   7.363   7.405
 4297POPC   C1B56491  18.128   7.952   6.292
 4297POPC   C2B56492  17.946   7.919   6.720
 4297POPC   C3B56493  18.140   7.758   7.101
 4297POPC   C4B56494  17.944   7.732   7.532
 4298POPC   NC356495  26.961  37.912   5.203
 4298POPC   PO456496  26.521  38.248   5.462
 4298POPC   GL156497  26.731  38.420   5.809
 4298POPC   GL256498  26.981  38.168   5.920
 4298POPC   C1A56499  26.550  38.509   6.227
 4298POPC   D2A56500  26.658  38.374   6.640
 4298POPC   C3A56501  26.671  38.610   6.996
 4298POPC   C4A56502  26.693  38.464   7.411
 4298POPC   C1B56503  27.050  38.420   6.287
 4298POPC   C2B56504  27.173  38.483   6.720
 4298POPC   C3B56505  27.156  38.519   7.147
 4298POPC   C4B56506  27.198  38.341   7.557
 4299POPC   NC356507  27.838  42.655   5.417
 4299POPC   PO456508  27.200  42.381   5.361
 4299POPC   GL156509  27.415  42.186   5.723
 4299POPC   GL256510  27.604  42.458   5.872
 4299POPC   C1A56511  27.338  42.085   6.177
 4299POPC   D2A56512  27.371  41.861   6.585
 4299POPC   C3A56513  27.227  42.030   6.964
 4299POPC   C4A56514  27.449  42.319   7.149
 4299POPC   C1B56515  27.607  42.517   6.326
 4299POPC   C2B56516  27.723  42.330   6.712
 4299POPC   C3B56517  27.916  42.515   7.065
 4299POPC   C4B56518  27.573  42.823   7.130
 4300POPC   NC356519  39.053   5.402   5.412
 4300POPC   PO456520  39.627   5.021   5.385
 4300POPC   GL156521  39.334   5.100   5.725
 4300POPC   GL256522  39.481   5.449   5.705
 4300POPC   C1A56523  39.153   4.971   6.161
 4300POPC   D2A56524  39.310   4.819   6.553
 4300POPC   C3A56525  39.108   4.927   6.923
 4300POPC   C4A56526  38.879   5.275   7.082
 4300POPC   C1B56527  39.347   5.433   6.128
 4300POPC   C2B56528  39.439   5.323   6.534
 4300POPC   C3B56529  39.357   5.394   6.955
 4300POPC   C4B56530  39.664   5.520   7.233
 4301POPC   NC356531  34.604  35.775   5.090
 4301POPC   PO456532  34.823  36.226   5.498
 4301POPC   GL156533  34.652  36.195   5.865
 4301POPC   GL256534  34.384  35.977   5.795
 4301POPC   C1A56535  34.717  36.300   6.291
 4301POPC   D2A56536  34.550  36.552   6.594
 4301POPC   C3A56537  34.444  36.254   6.889
 4301POPC   C4A56538  34.356  36.037   7.255
 4301POPC   C1B56539  34.606  35.800   6.169
 4301POPC   C2B56540  34.575  35.842   6.601
 4301POPC   C3B56541  34.784  35.799   6.962
 4301POPC   C4B56542  34.805  35.834   7.358
 4302POPC   NC356543  32.116  21.774   5.701
 4302POPC   PO456544  32.268  22.345   5.434
 4302POPC   GL156545  32.196  22.255   5.848
 4302POPC   GL256546  31.840  22.230   5.807
 4302POPC   C1A56547  32.433  22.238   6.253
 4302POPC   D2A56548  32.733  22.411   6.577
 4302POPC   C3A56549  32.581  22.332   6.969
 4302POPC   C4A56550  32.339  22.054   7.190
 4302POPC   C1B56551  31.937  22.086   6.260
 4302POPC   C2B56552  32.117  22.208   6.690
 4302POPC   C3B56553  31.971  22.377   7.106
 4302POPC   C4B56554  31.812  22.081   7.451
 4303POPC   NC356555  24.500  14.217   5.355
 4303POPC   PO456556  25.033  14.681   5.357
 4303POPC   GL156557  24.797  14.476   5.699
 4303POPC   GL256558  24.818  14.107   5.759
 4303POPC   C1A56559  24.486  14.458   6.028
 4303POPC   D2A56560  24.573  14.606   6.439
 4303POPC   C3A56561  24.341  14.499   6.788
 4303POPC   C4A56562  24.323  14.802   7.122
 4303POPC   C1B56563  24.947  14.269   6.155
 4303POPC   C2B56564  24.830  14.180   6.565
 4303POPC   C3B56565  24.822  14.358   6.962
 4303POPC   C4B56566  24.458  14.341   7.258
 4304POPC   NC356567  22.530  26.846   4.936
 4304POPC   PO456568  21.901  26.850   5.359
 4304POPC   GL156569  22.183  26.779   5.708
 4304POPC   GL256570  22.086  27.110   5.829
 4304POPC   C1A56571  22.427  26.754   6.111
 4304POPC   D2A56572  22.346  26.954   6.542
 4304POPC   C3A56573  22.660  26.953   6.887
 4304POPC   C4A56574  22.504  26.769   7.238
 4304POPC   C1B56575  21.945  26.925   6.218
 4304POPC   C2B56576  21.846  27.084   6.653
 4304POPC   C3B56577  22.104  27.060   7.008
 4304POPC   C4B56578  22.032  26.621   7.127
 4305POPC   NC356579  43.495  22.095   5.122
 4305POPC   PO456580  44.210  22.208   5.299
 4305POPC   GL156581  44.014  22.139   5.745
 4305POPC   GL256582  43.717  22.323   5.810
 4305POPC   C1A56583  43.859  22.005   6.177
 4305POPC   D2A56584  43.696  22.038   6.601
 4305POPC   C3A56585  43.971  22.218   6.889
 4305POPC   C4A56586  43.972  22.116   7.302
 4305POPC   C1B56587  43.625  22.551   6.177
 4305POPC   C2B56588  43.692  22.562   6.623
 4305POPC   C3B56589  43.580  22.484   7.036
 4305POPC   C4B56590  43.574  22.387   7.486
 4306POPC   NC356591   6.306  17.611   5.432
 4306POPC   PO456592   6.962  17.690   5.257
 4306POPC   GL156593   6.801  17.412   5.646
 4306POPC   GL256594   6.477  17.439   5.877
 4306POPC   C1A56595   6.932  17.363   6.093
 4306POPC   D2A56596   6.869  17.592   6.508
 4306POPC   C3A56597   6.803  17.391   6.901
 4306POPC   C4A56598   6.983  17.352   7.269
 4306POPC   C1B56599   6.391  17.554   6.316
 4306POPC   C2B56600   6.313  17.583   6.755
 4306POPC   C3B56601   6.306  17.281   7.066
 4306POPC   C4B56602   6.516  17.218   7.467
 4307POPC   NC356603  12.094  24.301   5.552
 4307POPC   PO456604  12.024  24.945   5.643
 4307POPC   GL156605  11.987  24.619   5.937
 4307POPC   GL256606  11.969  24.216   6.012
 4307POPC   C1A56607  12.198  24.585   6.312
 4307POPC   D2A56608  12.405  24.441   6.656
 4307POPC   C3A56609  12.250  24.521   7.060
 4307POPC   C4A56610  12.602  24.416   7.293
 4307POPC   C1B56611  11.721  24.395   6.291
 4307POPC   C2B56612  11.844  24.540   6.687
 4307POPC   C3B56613  11.766  24.289   7.024
 4307POPC   C4B56614  11.820  24.448   7.411
 4308POPC   NC356615  26.335  17.970   5.352
 4308POPC   PO456616  26.951  18.249   5.470
 4308POPC   GL156617  26.814  18.347   5.877
 4308POPC   GL256618  26.494  18.200   5.814
 4308POPC   C1A56619  26.733  18.494   6.311
 4308POPC   D2A56620  26.868  18.688   6.691
 4308POPC   C3A56621  26.626  18.508   7.016
 4308POPC   C4A56622  26.688  18.322   7.420
 4308POPC   C1B56623  26.620  17.996   6.219
 4308POPC   C2B56624  26.828  18.076   6.623
 4308POPC   C3B56625  26.681  17.976   7.030
 4308POPC   C4B56626  26.606  17.697   7.374
 4309POPC   NC356627  26.886  31.426   5.427
 4309POPC   PO456628  27.060  32.076   5.607
 4309POPC   GL156629  26.927  31.746   5.856
 4309POPC   GL256630  26.783  31.391   5.920
 4309POPC   C1A56631  27.129  31.600   6.231
 4309POPC   D2A56632  26.950  31.356   6.557
 4309POPC   C3A56633  27.145  31.349   6.947
 4309POPC   C4A56634  27.165  31.172   7.334
 4309POPC   C1B56635  26.606  31.663   6.251
 4309POPC   C2B56636  26.469  31.518   6.632
 4309POPC   C3B56637  26.615  31.314   6.991
 4309POPC   C4B56638  26.716  31.422   7.417
 4310POPC   NC356639  26.363  33.819   5.351
 4310POPC   PO456640  25.863  33.476   5.484
 4310POPC   GL156641  26.087  33.674   5.791
 4310POPC   GL256642  25.831  33.738   6.023
 4310POPC   C1A56643  26.329  33.843   6.121
 4310POPC   D2A56644  26.383  33.699   6.548
 4310POPC   C3A56645  26.041  33.607   6.840
 4310POPC   C4A56646  26.010  33.829   7.211
 4310POPC   C1B56647  25.790  33.814   6.445
 4310POPC   C2B56648  25.509  33.710   6.779
 4310POPC   C3B56649  25.514  33.939   7.148
 4310POPC   C4B56650  25.611  33.872   7.587
 4311POPC   NC356651  44.034  24.925   5.620
 4311POPC   PO456652  43.635  25.192   5.183
 4311POPC   GL156653  43.706  25.259   5.776
 4311POPC   GL256654  43.703  24.928   6.021
 4311POPC   C1A56655  43.948  25.312   6.219
 4311POPC   D2A56656  44.056  25.542   6.587
 4311POPC   C3A56657  43.898  25.385   6.945
 4311POPC   C4A56658  43.969  25.473   7.353
 4311POPC   C1B56659  44.036  24.781   6.287
 4311POPC   C2B56660  44.288  24.897   6.616
 4311POPC   C3B56661  44.236  25.042   7.038
 4311POPC   C4B56662  43.859  24.986   7.269
 4312POPC   NC356663  34.891  11.389   5.369
 4312POPC   PO456664  34.320  11.049   5.281
 4312POPC   GL156665  34.559  11.125   5.689
 4312POPC   GL256666  34.914  11.051   5.763
 4312POPC   C1A56667  34.525  11.139   6.146
 4312POPC   D2A56668  34.352  11.346   6.533
 4312POPC   C3A56669  34.472  11.221   6.944
 4312POPC   C4A56670  34.552  11.539   7.232
 4312POPC   C1B56671  35.001  11.268   6.163
 4312POPC   C2B56672  34.846  11.221   6.561
 4312POPC   C3B56673  34.951  11.374   6.934
 4312POPC   C4B56674  35.029  11.385   7.357
 4313POPC   NC356675  22.398  43.739   5.429
 4313POPC   PO456676  21.798  44.069   5.589
 4313POPC   GL156677  22.159  43.976   5.795
 4313POPC   GL256678  22.385  44.251   5.780
 4313POPC   C1A56679  22.388  43.757   6.117
 4313POPC   D2A56680  22.179  43.774   6.510
 4313POPC   C3A56681  22.408  43.782   6.881
 4313POPC   C4A56682  22.311  43.703   7.288
 4313POPC   C1B56683  22.220  44.228   6.223
 4313POPC   C2B56684  22.206  44.286   6.656
 4313POPC   C3B56685  22.071  44.155   7.061
 4313POPC   C4B56686  22.300  44.247   7.412
 4314POPC   NC356687  11.476   6.532   5.581
 4314POPC   PO456688  11.114   7.080   5.401
 4314POPC   GL156689  11.204   6.881   5.821
 4314POPC   GL256690  11.134   6.498   5.938
 4314POPC   C1A56691  11.414   6.811   6.238
 4314POPC   D2A56692  11.178   6.765   6.616
 4314POPC   C3A56693  11.332   6.914   7.016
 4314POPC   C4A56694  11.421   6.717   7.400
 4314POPC   C1B56695  10.879   6.252   6.227
 4314POPC   C2B56696  10.814   6.305   6.670
 4314POPC   C3B56697  11.082   6.441   6.986
 4314POPC   C4B56698  10.968   6.505   7.380
 4315POPC   NC356699  44.904  40.387   5.405
 4315POPC   PO456700  44.404  39.985   5.433
 4315POPC   GL156701  44.734  40.019   5.798
 4315POPC   GL256702   0.096  40.025   5.719
 4315POPC   C1A56703  44.696  40.076   6.289
 4315POPC   D2A56704  44.462  40.270   6.664
 4315POPC   C3A56705  44.486  39.961   6.987
 4315POPC   C4A56706  44.832  39.722   7.103
 4315POPC   C1B56707   0.122  40.289   6.122
 4315POPC   C2B56708  44.960  40.454   6.550
 4315POPC   C3B56709  44.891  40.286   6.990
 4315POPC   C4B56710  44.903  40.104   7.428
 4316POPC   NC356711  40.018  37.605   5.363
 4316POPC   PO456712  40.352  38.132   5.249
 4316POPC   GL156713  40.206  37.915   5.730
 4316POPC   GL256714  39.878  37.705   5.840
 4316POPC   C1A56715  40.082  37.955   6.218
 4316POPC   D2A56716  40.135  37.720   6.617
 4316POPC   C3A56717  39.895  37.704   7.059
 4316POPC   C4A56718  40.282  37.684   7.343
 4316POPC   C1B56719  39.747  37.480   6.229
 4316POPC   C2B56720  39.752  37.392   6.667
 4316POPC   C3B56721  39.629  37.222   7.061
 4316POPC   C4B56722  39.748  37.337   7.474
 4317POPC   NC356723  38.589  19.263   5.441
 4317POPC   PO456724  38.566  18.641   5.147
 4317POPC   GL156725  38.334  18.858   5.635
 4317POPC   GL256726  38.424  19.213   5.894
 4317POPC   C1A56727  38.319  18.816   6.132
 4317POPC   D2A56728  38.388  19.126   6.449
 4317POPC   C3A56729  38.464  18.994   6.842
 4317POPC   C4A56730  38.388  19.065   7.223
 4317POPC   C1B56731  38.156  19.477   6.162
 4317POPC   C2B56732  37.998  19.502   6.540
 4317POPC   C3B56733  38.130  19.400   6.950
 4317POPC   C4B56734  38.276  19.527   7.380
 4318POPC   NC356735   0.027  36.961   5.309
 4318POPC   PO456736   0.717  37.011   5.374
 4318POPC   GL156737   0.390  36.856   5.712
 4318POPC   GL256738   0.170  37.122   5.773
 4318POPC   C1A56739   0.437  36.646   6.146
 4318POPC   D2A56740   0.230  36.740   6.561
 4318POPC   C3A56741   0.518  36.791   6.876
 4318POPC   C4A56742   0.575  36.789   7.304
 4318POPC   C1B56743   0.433  37.156   6.169
 4318POPC   C2B56744   0.331  37.240   6.617
 4318POPC   C3B56745   0.322  37.254   7.082
 4318POPC   C4B56746   0.506  37.275   7.528
 4319POPC   NC356747  17.944  36.844   5.242
 4319POPC   PO456748  18.452  37.249   5.154
 4319POPC   GL156749  18.371  37.001   5.544
 4319POPC   GL256750  18.404  37.221   5.806
 4319POPC   C1A56751  18.207  36.782   5.948
 4319POPC   D2A56752  18.000  36.729   6.372
 4319POPC   C3A56753  18.169  36.824   6.776
 4319POPC   C4A56754  18.025  36.865   7.199
 4319POPC   C1B56755  18.663  37.297   6.159
 4319POPC   C2B56756  18.439  37.187   6.508
 4319POPC   C3B56757  18.328  37.309   6.908
 4319POPC   C4B56758  18.400  37.207   7.303
 4320POPC   NC356759  36.789   9.203   5.357
 4320POPC   PO456760  37.262   8.764   5.393
 4320POPC   GL156761  37.061   8.912   5.776
 4320POPC   GL256762  37.164   9.253   5.753
 4320POPC   C1A56763  36.805   8.803   6.181
 4320POPC   D2A56764  36.809   9.001   6.610
 4320POPC   C3A56765  37.104   8.779   6.892
 4320POPC   C4A56766  37.300   8.759   7.302
 4320POPC   C1B56767  37.083   9.218   6.207
 4320POPC   C2B56768  37.299   9.219   6.611
 4320POPC   C3B56769  37.222   9.238   7.080
 4320POPC   C4B56770  37.288   9.222   7.549
 4321POPC   NC356771  29.774   0.820   5.241
 4321POPC   PO456772  30.076   0.134   5.429
 4321POPC   GL156773  29.898   0.394   5.777
 4321POPC   GL256774  30.000   0.745   5.802
 4321POPC   C1A56775  29.967   0.482   6.250
 4321POPC   D2A56776  29.706   0.406   6.633
 4321POPC   C3A56777  29.814   0.501   7.092
 4321POPC   C4A56778  29.906   0.484   7.563
 4321POPC   C1B56779  29.752   0.932   6.196
 4321POPC   C2B56780  29.782   0.921   6.651
 4321POPC   C3B56781  29.663   1.110   7.034
 4321POPC   C4B56782  29.726   0.936   7.422
 4322POPC   NC356783   1.836  24.882   5.044
 4322POPC   PO456784   2.128  24.436   5.096
 4322POPC   GL156785   2.166  24.369   5.596
 4322POPC   GL256786   1.870  24.201   5.754
 4322POPC   C1A56787   2.175  24.448   6.098
 4322POPC   D2A56788   2.227  24.543   6.588
 4322POPC   C3A56789   2.121  24.379   7.033
 4322POPC   C4A56790   1.798  24.414   7.357
 4322POPC   C1B56791   1.873  24.043   6.199
 4322POPC   C2B56792   1.904  24.103   6.652
 4322POPC   C3B56793   1.771  23.980   7.087
 4322POPC   C4B56794   1.985  23.959   7.499
 4323POPC   NC356795  15.845  28.638   4.997
 4323POPC   PO456796  16.273  28.188   5.308
 4323POPC   GL156797  16.297  28.199   5.797
 4323POPC   GL256798  16.012  28.053   5.966
 4323POPC   C1A56799  16.233  28.451   6.231
 4323POPC   D2A56800  16.226  28.424   6.724
 4323POPC   C3A56801  15.898  28.543   7.056
 4323POPC   C4A56802  15.894  28.854   7.405
 4323POPC   C1B56803  16.321  27.962   6.294
 4323POPC   C2B56804  16.175  27.908   6.712
 4323POPC   C3B56805  16.058  28.066   7.107
 4323POPC   C4B56806  15.782  28.019   7.459
 4324POPC   NC356807  10.840  29.500   5.458
 4324POPC   PO456808  10.416  28.972   5.466
 4324POPC   GL156809  10.496  28.924   5.869
 4324POPC   GL256810  10.386  29.242   5.941
 4324POPC   C1A56811  10.798  28.986   6.160
 4324POPC   D2A56812  10.915  29.248   6.486
 4324POPC   C3A56813  10.675  29.153   6.868
 4324POPC   C4A56814  10.684  29.021   7.280
 4324POPC   C1B56815  10.273  29.468   6.320
 4324POPC   C2B56816  10.533  29.606   6.671
 4324POPC   C3B56817  10.529  29.597   7.121
 4324POPC   C4B56818  10.176  29.436   7.357
 4325POPC   NC356819  42.348  33.221   5.427
 4325POPC   PO456820  41.845  32.850   5.745
 4325POPC   GL156821  42.130  33.200   5.908
 4325POPC   GL256822  42.534  33.253   5.897
 4325POPC   C1A56823  42.289  32.979   6.275
 4325POPC   D2A56824  42.312  32.537   6.459
 4325POPC   C3A56825  42.360  32.613   6.878
 4325POPC   C4A56826  42.099  32.850   7.129
 4325POPC   C1B56827  42.662  33.336   6.322
 4325POPC   C2B56828  42.416  33.269   6.708
 4325POPC   C3B56829  42.533  33.086   7.089
 4325POPC   C4B56830  42.577  33.269   7.486
 4326POPC   NC356831  15.695  36.381   5.226
 4326POPC   PO456832  15.930  36.947   5.470
 4326POPC   GL156833  15.866  36.780   5.807
 4326POPC   GL256834  15.495  36.805   5.784
 4326POPC   C1A56835  16.134  36.839   6.211
 4326POPC   D2A56836  16.078  36.676   6.641
 4326POPC   C3A56837  16.385  36.812   6.976
 4326POPC   C4A56838  16.219  37.033   7.324
 4326POPC   C1B56839  15.633  36.904   6.210
 4326POPC   C2B56840  15.813  37.145   6.545
 4326POPC   C3B56841  15.844  37.021   6.964
 4326POPC   C4B56842  15.517  36.773   7.156
 4327POPC   NC356843   2.925  40.105   5.335
 4327POPC   PO456844   2.604  39.677   5.708
 4327POPC   GL156845   2.709  40.099   5.841
 4327POPC   GL256846   3.050  40.261   5.801
 4327POPC   C1A56847   2.542  40.044   6.255
 4327POPC   D2A56848   2.604  40.112   6.650
 4327POPC   C3A56849   2.525  39.871   6.981
 4327POPC   C4A56850   2.556  40.194   7.275
 4327POPC   C1B56851   3.071  39.995   6.187
 4327POPC   C2B56852   3.064  39.918   6.626
 4327POPC   C3B56853   3.037  40.114   7.005
 4327POPC   C4B56854   3.249  40.201   7.376
 4328POPC   NC356855  33.550  40.392   5.322
 4328POPC   PO456856  33.043  40.880   5.495
 4328POPC   GL156857  33.040  40.598   5.803
 4328POPC   GL256858  33.378  40.593   5.851
 4328POPC   C1A56859  33.007  40.677   6.241
 4328POPC   D2A56860  33.197  40.773   6.644
 4328POPC   C3A56861  32.921  40.715   6.984
 4328POPC   C4A56862  33.009  40.931   7.333
 4328POPC   C1B56863  33.508  40.502   6.280
 4328POPC   C2B56864  33.596  40.425   6.717
 4328POPC   C3B56865  33.419  40.538   7.122
 4328POPC   C4B56866  33.232  40.476   7.537
 4329POPC   NC356867  25.834  29.650   5.352
 4329POPC   PO456868  25.937  30.293   5.404
 4329POPC   GL156869  25.825  30.034   5.772
 4329POPC   GL256870  26.117  29.820   5.783
 4329POPC   C1A56871  25.738  30.045   6.241
 4329POPC   D2A56872  26.012  29.952   6.635
 4329POPC   C3A56873  25.910  29.931   7.103
 4329POPC   C4A56874  25.918  30.161   7.517
 4329POPC   C1B56875  25.995  29.628   6.188
 4329POPC   C2B56876  26.235  29.484   6.515
 4329POPC   C3B56877  26.168  29.456   6.945
 4329POPC   C4B56878  26.222  29.612   7.376
 4330POPC   NC356879   0.846  19.043   5.510
 4330POPC   PO456880   1.462  18.845   5.536
 4330POPC   GL156881   1.236  18.752   5.912
 4330POPC   GL256882   0.913  18.596   5.850
 4330POPC   C1A56883   1.342  18.932   6.325
 4330POPC   D2A56884   1.499  18.814   6.739
 4330POPC   C3A56885   1.229  19.014   7.007
 4330POPC   C4A56886   1.292  19.285   7.328
 4330POPC   C1B56887   0.808  18.873   6.209
 4330POPC   C2B56888   0.807  18.986   6.650
 4330POPC   C3B56889   0.781  18.805   7.062
 4330POPC   C4B56890   0.921  18.959   7.431
 4331POPC   NC356891  15.631  39.618   5.530
 4331POPC   PO456892  14.958  39.379   5.439
 4331POPC   GL156893  15.098  39.212   5.884
 4331POPC   GL256894  15.389  39.023   5.925
 4331POPC   C1A56895  15.051  39.398   6.308
 4331POPC   D2A56896  15.128  39.357   6.732
 4331POPC   C3A56897  14.940  39.102   7.012
 4331POPC   C4A56898  15.111  39.349   7.302
 4331POPC   C1B56899  15.527  39.404   6.174
 4331POPC   C2B56900  15.473  39.677   6.561
 4331POPC   C3B56901  15.492  39.588   7.048
 4331POPC   C4B56902  15.417  39.654   7.546
 4332POPC   NC356903  26.619  10.948   5.219
 4332POPC   PO456904  27.124  11.394   5.399
 4332POPC   GL156905  26.864  11.153   5.657
 4332POPC   GL256906  26.628  11.426   5.709
 4332POPC   C1A56907  26.875  11.157   6.118
 4332POPC   D2A56908  26.897  11.337   6.535
 4332POPC   C3A56909  27.120  11.297   6.916
 4332POPC   C4A56910  27.021  11.305   7.351
 4332POPC   C1B56911  26.446  11.480   6.158
 4332POPC   C2B56912  26.435  11.529   6.625
 4332POPC   C3B56913  26.652  11.497   7.020
 4332POPC   C4B56914  26.483  11.392   7.415
 4333POPC   NC356915  43.055  30.621   5.194
 4333POPC   PO456916  42.469  30.784   5.580
 4333POPC   GL156917  42.467  30.545   5.890
 4333POPC   GL256918  42.131  30.423   5.855
 4333POPC   C1A56919  42.576  30.643   6.318
 4333POPC   D2A56920  42.763  30.832   6.664
 4333POPC   C3A56921  42.513  31.110   6.890
 4333POPC   C4A56922  42.372  30.980   7.323
 4333POPC   C1B56923  42.082  30.807   6.112
 4333POPC   C2B56924  42.176  30.911   6.537
 4333POPC   C3B56925  42.225  30.683   6.910
 4333POPC   C4B56926  41.935  30.632   7.218
 4334POPC   NC356927  39.670  24.029   5.220
 4334POPC   PO456928  39.157  23.770   5.473
 4334POPC   GL156929  38.963  23.793   5.855
 4334POPC   GL256930  38.916  23.430   5.784
 4334POPC   C1A56931  39.082  23.914   6.278
 4334POPC   D2A56932  39.502  23.735   6.399
 4334POPC   C3A56933  39.539  23.773   6.844
 4334POPC   C4A56934  39.245  23.848   7.199
 4334POPC   C1B56935  39.114  23.401   6.196
 4334POPC   C2B56936  39.134  23.500   6.640
 4334POPC   C3B56937  39.287  23.362   7.000
 4334POPC   C4B56938  39.017  23.396   7.310
 4335POPC   NC356939   1.405  39.426   5.259
 4335POPC   PO456940   1.053  38.938   5.448
 4335POPC   GL156941   0.948  39.151   5.781
 4335POPC   GL256942   1.108  39.427   5.706
 4335POPC   C1A56943   0.820  39.425   6.134
 4335POPC   D2A56944   0.877  39.411   6.569
 4335POPC   C3A56945   0.877  39.036   6.819
 4335POPC   C4A56946   1.093  39.137   7.192
 4335POPC   C1B56947   1.388  39.351   6.069
 4335POPC   C2B56948   1.746  39.497   6.344
 4335POPC   C3B56949   1.859  39.394   6.758
 4335POPC   C4B56950   1.562  39.296   7.092
 4336POPC   NC356951  11.018  24.404   5.485
 4336POPC   PO456952  11.531  24.773   5.286
 4336POPC   GL156953  11.509  24.740   5.742
 4336POPC   GL256954  11.525  24.387   5.794
 4336POPC   C1A56955  11.377  24.742   6.173
 4336POPC   D2A56956  11.338  24.523   6.577
 4336POPC   C3A56957  11.425  24.663   6.982
 4336POPC   C4A56958  11.320  24.500   7.375
 4336POPC   C1B56959  11.234  24.233   6.116
 4336POPC   C2B56960  11.156  24.063   6.522
 4336POPC   C3B56961  11.198  24.184   6.968
 4336POPC   C4B56962  11.439  24.013   7.318
 4337POPC   NC356963  38.281  23.491   5.245
 4337POPC   PO456964  38.445  24.155   5.155
 4337POPC   GL156965  38.521  23.758   5.572
 4337POPC   GL256966  38.191  23.700   5.695
 4337POPC   C1A56967  38.533  23.610   6.045
 4337POPC   D2A56968  38.681  23.627   6.455
 4337POPC   C3A56969  38.673  23.473   6.899
 4337POPC   C4A56970  38.701  23.797   7.231
 4337POPC   C1B56971  38.036  23.738   6.106
 4337POPC   C2B56972  37.945  23.698   6.523
 4337POPC   C3B56973  38.196  23.680   6.899
 4337POPC   C4B56974  38.196  23.337   7.168
 4338POPC   NC356975  27.913  25.179   5.365
 4338POPC   PO456976  28.516  24.944   5.368
 4338POPC   GL156977  28.358  25.145   5.801
 4338POPC   GL256978  27.997  25.352   5.865
 4338POPC   C1A56979  28.533  25.037   6.229
 4338POPC   D2A56980  28.730  25.125   6.654
 4338POPC   C3A56981  28.431  25.073   6.989
 4338POPC   C4A56982  28.433  25.128   7.432
 4338POPC   C1B56983  28.236  25.488   6.189
 4338POPC   C2B56984  28.297  25.378   6.593
 4338POPC   C3B56985  28.129  25.537   6.961
 4338POPC   C4B56986  28.179  25.572   7.389
 4339POPC   NC356987   0.610  15.065   5.457
 4339POPC   PO456988   0.161  15.628   5.607
 4339POPC   GL156989   0.296  15.245   5.831
 4339POPC   GL256990   0.222  14.872   5.739
 4339POPC   C1A56991   0.522  15.074   6.200
 4339POPC   D2A56992   0.612  15.280   6.607
 4339POPC   C3A56993   0.673  15.167   7.055
 4339POPC   C4A56994   0.605  14.815   7.324
 4339POPC   C1B56995   0.012  14.943   6.129
 4339POPC   C2B56996   0.089  15.223   6.461
 4339POPC   C3B56997   0.197  15.077   6.840
 4339POPC   C4B56998   0.193  15.106   7.247
 4340POPC   NC356999  38.064  24.168   5.503
 4340POPC   PO457000  37.806  23.552   5.375
 4340POPC   GL157001  37.669  23.650   5.776
 4340POPC   GL257002  37.383  23.805   5.854
 4340POPC   C1A57003  37.578  23.482   6.200
 4340POPC   D2A57004  37.383  23.594   6.604
 4340POPC   C3A57005  37.672  23.637   6.962
 4340POPC   C4A57006  37.765  23.484   7.385
 4340POPC   C1B57007  37.459  23.994   6.257
 4340POPC   C2B57008  37.619  24.071   6.648
 4340POPC   C3B57009  37.416  24.118   7.005
 4340POPC   C4B57010  37.418  23.880   7.348
 4341POPC   NC357011  44.850  43.771   5.678
 4341POPC   PO457012  44.219  43.846   5.499
 4341POPC   GL157013  44.408  43.908   5.915
 4341POPC   GL257014  44.679  44.164   6.006
 4341POPC   C1A57015  44.476  43.817   6.377
 4341POPC   D2A57016  44.725  44.013   6.731
 4341POPC   C3A57017  44.663  43.883   7.171
 4341POPC   C4A57018  44.835  44.019   7.561
 4341POPC   C1B57019  44.311  44.337   6.217
 4341POPC   C2B57020  44.237  44.217   6.652
 4341POPC   C3B57021  44.416  44.324   7.027
 4341POPC   C4B57022  44.435  44.342   7.494
 4342POPC   NC357023   4.112   8.665   5.676
 4342POPC   PO457024   3.708   8.409   5.294
 4342POPC   GL157025   3.563   8.559   5.753
 4342POPC   GL257026   3.544   8.920   5.831
 4342POPC   C1A57027   3.449   8.579   6.240
 4342POPC   D2A57028   3.320   8.860   6.623
 4342POPC   C3A57029   3.401   8.741   7.101
 4342POPC   C4A57030   3.372   8.826   7.581
 4342POPC   C1B57031   3.815   8.916   6.235
 4342POPC   C2B57032   3.820   8.799   6.673
 4342POPC   C3B57033   3.793   9.062   7.059
 4342POPC   C4B57034   3.709   9.213   7.517
 4343POPC   NC357035  21.107  23.154   5.463
 4343POPC   PO457036  21.598  22.758   5.090
 4343POPC   GL157037  21.482  22.818   5.589
 4343POPC   GL257038  21.141  22.699   5.741
 4343POPC   C1A57039  21.399  23.031   6.043
 4343POPC   D2A57040  21.268  22.984   6.517
 4343POPC   C3A57041  21.381  23.027   6.988
 4343POPC   C4A57042  21.491  23.037   7.432
 4343POPC   C1B57043  20.939  22.760   6.168
 4343POPC   C2B57044  20.844  22.722   6.616
 4343POPC   C3B57045  21.136  22.577   6.956
 4343POPC   C4B57046  21.268  22.600   7.439
 4344POPC   NC357047   6.793  34.083   5.393
 4344POPC   PO457048   6.444  33.512   5.551
 4344POPC   GL157049   6.592  33.934   5.830
 4344POPC   GL257050   6.451  34.313   5.683
 4344POPC   C1A57051   6.865  33.912   6.200
 4344POPC   D2A57052   6.866  33.566   6.519
 4344POPC   C3A57053   6.504  33.559   6.828
 4344POPC   C4A57054   6.444  33.472   7.277
 4344POPC   C1B57055   6.397  34.382   6.094
 4344POPC   C2B57056   6.471  34.116   6.435
 4344POPC   C3B57057   6.750  34.014   6.767
 4344POPC   C4B57058   6.614  33.940   7.171
 4345POPC   NC357059  28.653  35.851   5.369
 4345POPC   PO457060  28.402  36.518   5.430
 4345POPC   GL157061  28.271  36.391   5.840
 4345POPC   GL257062  28.393  36.021   5.828
 4345POPC   C1A57063  28.453  36.365   6.267
 4345POPC   D2A57064  28.401  36.091   6.625
 4345POPC   C3A57065  28.516  36.229   7.020
 4345POPC   C4A57066  28.093  36.266   7.113
 4345POPC   C1B57067  28.633  35.880   6.199
 4345POPC   C2B57068  28.732  35.678   6.623
 4345POPC   C3B57069  28.529  35.603   7.047
 4345POPC   C4B57070  28.614  35.547   7.532
 4346POPC   NC357071   8.775   3.248   5.078
 4346POPC   PO457072   9.174   3.722   5.406
 4346POPC   GL157073   9.117   3.583   5.835
 4346POPC   GL257074   8.765   3.594   5.910
 4346POPC   C1A57075   9.134   3.590   6.300
 4346POPC   D2A57076   9.072   3.471   6.711
 4346POPC   C3A57077   9.060   3.814   6.998
 4346POPC   C4A57078   9.088   3.762   7.429
 4346POPC   C1B57079   8.712   3.302   6.279
 4346POPC   C2B57080   8.604   3.201   6.733
 4346POPC   C3B57081   8.716   3.437   7.129
 4346POPC   C4B57082   8.679   3.302   7.560
 4347POPC   NC357083  26.182  25.640   5.261
 4347POPC   PO457084  25.865  25.108   5.441
 4347POPC   GL157085  26.144  25.140   5.803
 4347POPC   GL257086  26.349  25.405   5.727
 4347POPC   C1A57087  26.238  25.096   6.243
 4347POPC   D2A57088  26.078  25.278   6.617
 4347POPC   C3A57089  25.940  25.088   6.977
 4347POPC   C4A57090  25.627  25.233   7.231
 4347POPC   C1B57091  26.566  25.490   6.134
 4347POPC   C2B57092  26.450  25.617   6.591
 4347POPC   C3B57093  26.396  25.428   7.004
 4347POPC   C4B57094  26.134  25.496   7.365
 4348POPC   NC357095  41.408   6.395   5.443
 4348POPC   PO457096  40.746   6.625   5.473
 4348POPC   GL157097  41.040   6.679   5.806
 4348POPC   GL257098  41.177   6.336   5.917
 4348POPC   C1A57099  41.034   6.974   6.163
 4348POPC   D2A57100  40.902   6.860   6.567
 4348POPC   C3A57101  40.739   7.073   6.897
 4348POPC   C4A57102  40.650   6.849   7.262
 4348POPC   C1B57103  40.861   6.446   6.250
 4348POPC   C2B57104  40.601   6.410   6.634
 4348POPC   C3B57105  40.717   6.286   7.060
 4348POPC   C4B57106  40.976   6.442   7.397
 4349POPC   NC357107  40.049  40.259   5.565
 4349POPC   PO457108  39.973  40.894   5.341
 4349POPC   GL157109  40.084  40.753   5.725
 4349POPC   GL257110  39.787  40.629   5.815
 4349POPC   C1A57111  40.174  40.788   6.170
 4349POPC   D2A57112  40.035  41.142   6.454
 4349POPC   C3A57113  40.253  41.212   6.845
 4349POPC   C4A57114  40.107  40.919   7.134
 4349POPC   C1B57115  39.667  40.899   6.154
 4349POPC   C2B57116  39.648  40.759   6.575
 4349POPC   C3B57117  39.880  40.523   6.887
 4349POPC   C4B57118  39.721  40.608   7.293
 4350POPC   NC357119  43.671  18.110   5.289
 4350POPC   PO457120  44.099  18.570   5.271
 4350POPC   GL157121  43.775  18.460   5.643
 4350POPC   GL257122  43.750  18.125   5.802
 4350POPC   C1A57123  43.775  18.551   6.109
 4350POPC   D2A57124  44.068  18.535   6.483
 4350POPC   C3A57125  43.939  18.505   6.931
 4350POPC   C4A57126  44.118  18.514   7.352
 4350POPC   C1B57127  43.689  18.034   6.243
 4350POPC   C2B57128  43.984  17.960   6.600
 4350POPC   C3B57129  44.182  18.025   7.013
 4350POPC   C4B57130  43.929  17.839   7.366
 4351POPC   NC357131  15.334  11.687   5.411
 4351POPC   PO457132  15.416  12.367   5.334
 4351POPC   GL157133  15.363  12.102   5.715
 4351POPC   GL257134  15.003  12.030   5.664
 4351POPC   C1A57135  15.439  12.116   6.175
 4351POPC   D2A57136  15.573  12.270   6.596
 4351POPC   C3A57137  15.361  12.178   6.981
 4351POPC   C4A57138  15.381  12.259   7.429
 4351POPC   C1B57139  15.050  11.795   6.045
 4351POPC   C2B57140  15.075  11.865   6.498
 4351POPC   C3B57141  14.866  11.751   6.879
 4351POPC   C4B57142  14.938  11.998   7.249
 4352POPC   NC357143  44.241  38.672   5.370
 4352POPC   PO457144  43.602  38.358   5.397
 4352POPC   GL157145  43.922  38.393   5.687
 4352POPC   GL257146  43.656  38.544   5.890
 4352POPC   C1A57147  44.094  38.453   6.107
 4352POPC   D2A57148  44.025  38.571   6.540
 4352POPC   C3A57149  44.305  38.497   6.869
 4352POPC   C4A57150  44.164  38.594   7.291
 4352POPC   C1B57151  43.508  38.568   6.293
 4352POPC   C2B57152  43.538  38.475   6.715
 4352POPC   C3B57153  43.809  38.374   7.008
 4352POPC   C4B57154  43.668  38.329   7.389
 4353POPC   NC357155   5.969   0.324   5.461
 4353POPC   PO457156   5.476   0.471   5.636
 4353POPC   GL157157   5.824   0.327   5.964
 4353POPC   GL257158   6.087   0.027   5.966
 4353POPC   C1A57159   6.043   0.346   6.379
 4353POPC   D2A57160   6.056   0.212   6.818
 4353POPC   C3A57161   6.098   0.534   7.138
 4353POPC   C4A57162   5.957   0.579   7.568
 4353POPC   C1B57163   5.867  44.867   6.381
 4353POPC   C2B57164   5.584   0.116   6.701
 4353POPC   C3B57165   5.650   0.274   7.159
 4353POPC   C4B57166   5.799   0.037   7.542
 4354POPC   NC357167  42.535   9.228   5.695
 4354POPC   PO457168  42.150   9.586   5.314
 4354POPC   GL157169  42.321   9.708   5.723
 4354POPC   GL257170  42.677   9.792   5.788
 4354POPC   C1A57171  42.273   9.663   6.184
 4354POPC   D2A57172  42.266   9.339   6.507
 4354POPC   C3A57173  42.291   9.540   6.901
 4354POPC   C4A57174  42.174   9.927   7.101
 4354POPC   C1B57175  42.722   9.919   6.256
 4354POPC   C2B57176  42.516   9.982   6.698
 4354POPC   C3B57177  42.663   9.821   7.144
 4354POPC   C4B57178  42.630   9.678   7.609
 4355POPC   NC357179   7.000  19.888   5.485
 4355POPC   PO457180   6.485  19.544   5.173
 4355POPC   GL157181   6.504  19.785   5.664
 4355POPC   GL257182   6.344  20.097   5.773
 4355POPC   C1A57183   6.495  19.721   6.169
 4355POPC   D2A57184   6.616  19.401   6.535
 4355POPC   C3A57185   6.675  19.618   6.933
 4355POPC   C4A57186   6.928  20.013   7.039
 4355POPC   C1B57187   6.165  20.192   6.194
 4355POPC   C2B57188   6.326  20.088   6.643
 4355POPC   C3B57189   6.396  20.037   7.102
 4355POPC   C4B57190   6.341  19.865   7.514
 4356POPC   NC357191  38.682  39.430   5.264
 4356POPC   PO457192  37.997  39.367   5.312
 4356POPC   GL157193  38.347  39.276   5.671
 4356POPC   GL257194  38.721  39.131   5.719
 4356POPC   C1A57195  38.345  39.350   6.134
 4356POPC   D2A57196  38.283  39.091   6.493
 4356POPC   C3A57197  38.370  39.181   6.920
 4356POPC   C4A57198  38.088  38.974   7.167
 4356POPC   C1B57199  38.854  39.309   6.143
 4356POPC   C2B57200  38.687  39.479   6.538
 4356POPC   C3B57201  38.825  39.422   6.959
 4356POPC   C4B57202  38.723  39.279   7.348
 4357POPC   NC357203  11.012   7.528   5.473
 4357POPC   PO457204  10.289   7.323   5.393
 4357POPC   GL157205  10.558   7.481   5.715
 4357POPC   GL257206  10.800   7.223   5.827
 4357POPC   C1A57207  10.519   7.545   6.164
 4357POPC   D2A57208  10.257   7.692   6.494
 4357POPC   C3A57209  10.388   7.807   6.903
 4357POPC   C4A57210  10.612   7.651   7.275
 4357POPC   C1B57211  10.416   7.055   6.040
 4357POPC   C2B57212  10.350   7.173   6.475
 4357POPC   C3B57213  10.516   7.302   6.881
 4357POPC   C4B57214  10.199   7.387   7.200
 4358POPC   NC357215   6.356  16.058   5.406
 4358POPC   PO457216   5.760  16.178   5.400
 4358POPC   GL157217   5.952  16.084   5.791
 4358POPC   GL257218   6.115  15.731   5.824
 4358POPC   C1A57219   5.780  16.005   6.205
 4358POPC   D2A57220   5.530  16.161   6.574
 4358POPC   C3A57221   5.759  16.003   6.929
 4358POPC   C4A57222   5.769  16.079   7.361
 4358POPC   C1B57223   6.390  15.689   6.203
 4358POPC   C2B57224   6.316  15.746   6.654
 4358POPC   C3B57225   5.999  15.535   6.915
 4358POPC   C4B57226   5.730  15.585   7.264
 4359POPC   NC357227  33.844  39.321   5.334
 4359POPC   PO457228  33.229  39.270   5.451
 4359POPC   GL157229  33.514  39.276   5.782
 4359POPC   GL257230  33.861  39.173   5.806
 4359POPC   C1A57231  33.548  39.100   6.189
 4359POPC   D2A57232  33.677  39.222   6.590
 4359POPC   C3A57233  33.497  38.964   6.911
 4359POPC   C4A57234  33.688  39.200   7.193
 4359POPC   C1B57235  34.038  39.277   6.229
 4359POPC   C2B57236  34.182  39.445   6.606
 4359POPC   C3B57237  34.165  39.341   7.042
 4359POPC   C4B57238  34.083  39.346   7.490
 4360POPC   NC357239  35.872  18.956   5.133
 4360POPC   PO457240  35.496  19.502   5.060
 4360POPC   GL157241  35.417  19.387   5.546
 4360POPC   GL257242  35.413  19.010   5.670
 4360POPC   C1A57243  35.400  19.350   6.027
 4360POPC   D2A57244  35.326  19.259   6.476
 4360POPC   C3A57245  35.440  19.085   6.924
 4360POPC   C4A57246  35.408  19.289   7.329
 4360POPC   C1B57247  35.181  18.884   6.094
 4360POPC   C2B57248  35.264  18.768   6.556
 4360POPC   C3B57249  35.048  18.715   6.981
 4360POPC   C4B57250  35.052  18.606   7.433
 4361POPC   NC357251  41.752  27.582   5.554
 4361POPC   PO457252  41.294  27.336   5.149
 4361POPC   GL157253  41.327  27.308   5.653
 4361POPC   GL257254  41.381  27.657   5.876
 4361POPC   C1A57255  41.513  27.225   6.091
 4361POPC   D2A57256  41.639  27.550   6.414
 4361POPC   C3A57257  41.580  27.437   6.866
 4361POPC   C4A57258  41.595  27.440   7.345
 4361POPC   C1B57259  41.186  27.823   6.262
 4361POPC   C2B57260  41.365  27.896   6.685
 4361POPC   C3B57261  41.412  27.868   7.132
 4361POPC   C4B57262  41.557  27.897   7.563
 4362POPC   NC357263  34.130  36.224   5.402
 4362POPC   PO457264  33.494  35.998   5.438
 4362POPC   GL157265  33.603  36.161   5.844
 4362POPC   GL257266  33.940  36.309   5.854
 4362POPC   C1A57267  33.720  36.144   6.286
 4362POPC   D2A57268  33.580  36.015   6.690
 4362POPC   C3A57269  33.671  36.296   7.002
 4362POPC   C4A57270  33.750  36.319   7.420
 4362POPC   C1B57271  34.214  36.303   6.202
 4362POPC   C2B57272  34.039  36.397   6.616
 4362POPC   C3B57273  34.089  36.587   7.028
 4362POPC   C4B57274  34.245  36.499   7.426
 4363POPC   NC357275   9.910   6.580   5.205
 4363POPC   PO457276   9.394   6.281   5.510
 4363POPC   GL157277   9.483   6.555   5.821
 4363POPC   GL257278   9.651   6.840   5.654
 4363POPC   C1A57279   9.527   6.679   6.245
 4363POPC   D2A57280   9.433   6.567   6.655
 4363POPC   C3A57281   9.806   6.584   6.881
 4363POPC   C4A57282   9.674   6.698   7.229
 4363POPC   C1B57283   9.972   6.755   5.991
 4363POPC   C2B57284  10.005   6.803   6.463
 4363POPC   C3B57285  10.239   6.862   6.887
 4363POPC   C4B57286  10.111   6.912   7.317
 4364POPC   NC357287  11.991  44.399   5.562
 4364POPC   PO457288  12.316  44.967   5.418
 4364POPC   GL157289  12.323  44.773   5.849
 4364POPC   GL257290  12.506  44.445   5.835
 4364POPC   C1A57291  12.047  44.866   6.236
 4364POPC   D2A57292  11.820   0.094   6.587
 4364POPC   C3A57293  11.761  44.871   6.982
 4364POPC   C4A57294  12.142  44.702   7.183
 4364POPC   C1B57295  12.328  44.434   6.277
 4364POPC   C2B57296  12.464  44.508   6.732
 4364POPC   C3B57297  12.428  44.287   7.139
 4364POPC   C4B57298  12.111  44.279   7.488
 4365POPC   NC357299  27.367  19.212   5.718
 4365POPC   PO457300  27.789  19.501   5.282
 4365POPC   GL157301  27.744  19.580   5.734
 4365POPC   GL257302  27.390  19.736   5.790
 4365POPC   C1A57303  27.691  19.521   6.199
 4365POPC   D2A57304  27.738  19.770   6.562
 4365POPC   C3A57305  27.977  19.664   6.912
 4365POPC   C4A57306  27.742  19.595   7.277
 4365POPC   C1B57307  27.437  19.986   6.184
 4365POPC   C2B57308  27.310  20.090   6.605
 4365POPC   C3B57309  27.324  19.922   7.012
 4365POPC   C4B57310  27.543  20.047   7.371
 4366POPC   NC357311  37.958  20.319   5.442
 4366POPC   PO457312  37.794  20.983   5.238
 4366POPC   GL157313  37.801  20.753   5.631
 4366POPC   GL257314  38.166  20.793   5.708
 4366POPC   C1A57315  37.514  20.646   6.008
 4366POPC   D2A57316  37.237  20.529   6.349
 4366POPC   C3A57317  37.316  20.718   6.756
 4366POPC   C4A57318  37.430  20.601   7.165
 4366POPC   C1B57319  38.016  20.599   6.083
 4366POPC   C2B57320  37.778  20.609   6.470
 4366POPC   C3B57321  37.901  20.456   6.858
 4366POPC   C4B57322  37.911  20.438   7.276
 4367POPC   NC357323   6.222  42.885   5.547
 4367POPC   PO457324   5.530  42.745   5.410
 4367POPC   GL157325   5.750  42.995   5.755
 4367POPC   GL257326   5.958  43.313   5.777
 4367POPC   C1A57327   5.810  43.066   6.205
 4367POPC   D2A57328   5.973  43.005   6.582
 4367POPC   C3A57329   5.798  43.092   6.972
 4367POPC   C4A57330   5.990  42.910   7.333
 4367POPC   C1B57331   6.075  43.493   6.203
 4367POPC   C2B57332   6.224  43.433   6.666
 4367POPC   C3B57333   6.157  43.443   7.134
 4367POPC   C4B57334   5.854  43.548   7.447
 4368POPC   NC357335  21.806  35.584   5.653
 4368POPC   PO457336  22.301  35.317   5.276
 4368POPC   GL157337  22.221  35.266   5.740
 4368POPC   GL257338  21.921  35.122   5.898
 4368POPC   C1A57339  22.300  35.428   6.177
 4368POPC   D2A57340  22.599  35.362   6.544
 4368POPC   C3A57341  22.466  35.292   6.995
 4368POPC   C4A57342  22.518  35.439   7.450
 4368POPC   C1B57343  21.774  35.318   6.259
 4368POPC   C2B57344  21.918  35.681   6.511
 4368POPC   C3B57345  22.096  35.656   6.932
 4368POPC   C4B57346  22.019  35.426   7.340
 4369POPC   NC357347  11.283   5.630   5.253
 4369POPC   PO457348  11.326   6.242   5.259
 4369POPC   GL157349  11.288   6.026   5.698
 4369POPC   GL257350  11.141   5.682   5.731
 4369POPC   C1A57351  11.400   6.100   6.157
 4369POPC   D2A57352  11.328   6.287   6.532
 4369POPC   C3A57353  11.363   6.023   6.875
 4369POPC   C4A57354  11.317   6.123   7.305
 4369POPC   C1B57355  11.049   5.719   6.148
 4369POPC   C2B57356  10.981   5.833   6.560
 4369POPC   C3B57357  11.041   5.634   6.947
 4369POPC   C4B57358  11.438   5.621   7.209
 4370POPC   NC357359  20.693  39.500   5.590
 4370POPC   PO457360  20.210  38.974   5.456
 4370POPC   GL157361  20.257  39.279   5.807
 4370POPC   GL257362  20.570  39.253   6.005
 4370POPC   C1A57363  20.219  39.499   6.232
 4370POPC   D2A57364  20.534  39.274   6.506
 4370POPC   C3A57365  20.523  39.111   6.867
 4370POPC   C4A57366  20.436  39.134   7.267
 4370POPC   C1B57367  20.898  39.519   6.259
 4370POPC   C2B57368  21.072  39.246   6.527
 4370POPC   C3B57369  21.065  39.221   6.957
 4370POPC   C4B57370  21.270  39.021   7.295
 4371POPC   NC357371  39.577  34.782   5.585
 4371POPC   PO457372  38.875  34.555   5.460
 4371POPC   GL157373  39.120  34.660   5.812
 4371POPC   GL257374  39.384  34.398   5.871
 4371POPC   C1A57375  39.189  34.765   6.250
 4371POPC   D2A57376  39.144  35.043   6.621
 4371POPC   C3A57377  39.140  34.696   6.885
 4371POPC   C4A57378  39.504  34.639   7.081
 4371POPC   C1B57379  39.004  34.203   6.054
 4371POPC   C2B57380  38.848  34.255   6.459
 4371POPC   C3B57381  39.182  34.220   6.754
 4371POPC   C4B57382  39.183  34.245   7.197
 4372POPC   NC357383   5.065  35.749   5.497
 4372POPC   PO457384   4.882  35.082   5.403
 4372POPC   GL157385   5.032  35.321   5.781
 4372POPC   GL257386   5.383  35.519   5.805
 4372POPC   C1A57387   4.948  35.195   6.210
 4372POPC   D2A57388   4.680  35.400   6.527
 4372POPC   C3A57389   4.737  35.207   6.916
 4372POPC   C4A57390   4.875  34.934   7.247
 4372POPC   C1B57391   5.186  35.629   6.211
 4372POPC   C2B57392   5.196  35.432   6.630
 4372POPC   C3B57393   5.254  35.189   7.013
 4372POPC   C4B57394   5.168  35.314   7.459
 4373POPC   NC357395  38.926   8.563   5.269
 4373POPC   PO457396  39.271   8.025   5.177
 4373POPC   GL157397  39.368   8.093   5.722
 4373POPC   GL257398  39.282   7.838   5.945
 4373POPC   C1A57399  39.259   8.311   6.141
 4373POPC   D2A57400  39.237   8.174   6.588
 4373POPC   C3A57401  39.407   8.408   6.952
 4373POPC   C4A57402  39.425   8.323   7.402
 4373POPC   C1B57403  38.906   7.917   6.226
 4373POPC   C2B57404  38.780   7.963   6.680
 4373POPC   C3B57405  38.697   7.732   7.039
 4373POPC   C4B57406  39.077   7.956   7.188
 4374POPC   NC357407  29.633  26.158   5.546
 4374POPC   PO457408  28.930  25.910   5.544
 4374POPC   GL157409  29.220  26.000   5.842
 4374POPC   GL257410  29.303  26.348   5.900
 4374POPC   C1A57411  29.281  25.820   6.246
 4374POPC   D2A57412  29.506  25.849   6.645
 4374POPC   C3A57413  29.251  25.767   7.004
 4374POPC   C4A57414  29.421  25.840   7.404
 4374POPC   C1B57415  29.053  26.282   6.246
 4374POPC   C2B57416  29.062  26.111   6.649
 4374POPC   C3B57417  29.201  26.266   7.052
 4374POPC   C4B57418  28.939  26.046   7.335
 4375POPC   NC357419  41.554  36.549   5.352
 4375POPC   PO457420  41.258  37.079   5.582
 4375POPC   GL157421  41.508  37.010   5.920
 4375POPC   GL257422  41.590  36.657   5.882
 4375POPC   C1A57423  41.521  36.972   6.365
 4375POPC   D2A57424  41.221  36.925   6.684
 4375POPC   C3A57425  41.518  36.891   7.012
 4375POPC   C4A57426  41.588  37.163   7.338
 4375POPC   C1B57427  41.892  36.658   6.219
 4375POPC   C2B57428  41.932  36.756   6.673
 4375POPC   C3B57429  41.983  36.687   7.120
 4375POPC   C4B57430  41.881  36.819   7.561
 4376POPC   NC357431  16.450   5.942   5.534
 4376POPC   PO457432  16.736   6.561   5.334
 4376POPC   GL157433  16.872   6.656   5.767
 4376POPC   GL257434  16.543   6.763   5.850
 4376POPC   C1A57435  16.760   6.483   6.212
 4376POPC   D2A57436  16.505   6.528   6.589
 4376POPC   C3A57437  16.651   6.490   7.021
 4376POPC   C4A57438  16.740   6.745   7.396
 4376POPC   C1B57439  16.572   6.992   6.234
 4376POPC   C2B57440  16.609   7.192   6.619
 4376POPC   C3B57441  16.344   6.963   6.856
 4376POPC   C4B57442  16.227   6.741   7.189
 4377POPC   NC357443  17.899   7.476   5.490
 4377POPC   PO457444  17.286   7.731   5.362
 4377POPC   GL157445  17.414   7.443   5.736
 4377POPC   GL257446  17.342   7.064   5.775
 4377POPC   C1A57447  17.299   7.412   6.169
 4377POPC   D2A57448  17.267   7.664   6.542
 4377POPC   C3A57449  17.451   7.556   6.954
 4377POPC   C4A57450  17.811   7.369   7.148
 4377POPC   C1B57451  17.580   6.994   6.156
 4377POPC   C2B57452  17.593   7.204   6.577
 4377POPC   C3B57453  17.478   7.023   6.975
 4377POPC   C4B57454  17.483   7.006   7.382
 4378POPC   NC357455  17.826  28.134   5.601
 4378POPC   PO457456  17.193  28.472   5.464
 4378POPC   GL157457  17.275  28.436   5.904
 4378POPC   GL257458  17.632  28.405   6.005
 4378POPC   C1A57459  17.284  28.186   6.271
 4378POPC   D2A57460  17.586  28.218   6.555
 4378POPC   C3A57461  17.339  28.288   6.887
 4378POPC   C4A57462  17.431  28.358   7.282
 4378POPC   C1B57463  17.892  28.634   6.311
 4378POPC   C2B57464  17.888  28.604   6.727
 4378POPC   C3B57465  17.948  28.315   6.956
 4378POPC   C4B57466  17.934  28.460   7.318
 4379POPC   NC357467  35.760  26.250   5.229
 4379POPC   PO457468  36.330  25.871   5.404
 4379POPC   GL157469  36.415  25.957   5.834
 4379POPC   GL257470  36.281  25.620   5.875
 4379POPC   C1A57471  36.298  26.216   6.219
 4379POPC   D2A57472  36.033  26.113   6.601
 4379POPC   C3A57473  36.106  26.313   6.994
 4379POPC   C4A57474  36.070  26.111   7.420
 4379POPC   C1B57475  36.233  25.711   6.297
 4379POPC   C2B57476  36.513  25.871   6.602
 4379POPC   C3B57477  36.405  25.901   7.021
 4379POPC   C4B57478  36.318  25.685   7.368
 4380POPC   NC357479  38.105  41.760   5.399
 4380POPC   PO457480  37.388  41.753   5.129
 4380POPC   GL157481  37.532  41.561   5.581
 4380POPC   GL257482  37.724  41.792   5.775
 4380POPC   C1A57483  37.457  41.347   6.011
 4380POPC   D2A57484  37.563  41.311   6.485
 4380POPC   C3A57485  37.279  41.307   6.848
 4380POPC   C4A57486  37.373  41.426   7.302
 4380POPC   C1B57487  37.679  41.748   6.214
 4380POPC   C2B57488  37.492  41.799   6.617
 4380POPC   C3B57489  37.686  41.624   6.939
 4380POPC   C4B57490  37.700  41.831   7.326
 4381POPC   NC357491  28.015  24.223   5.640
 4381POPC   PO457492  28.629  24.228   5.441
 4381POPC   GL157493  28.586  24.314   5.809
 4381POPC   GL257494  28.402  24.619   5.789
 4381POPC   C1A57495  28.724  24.166   6.185
 4381POPC   D2A57496  28.513  24.304   6.510
 4381POPC   C3A57497  28.454  24.262   6.908
 4381POPC   C4A57498  28.585  24.600   7.189
 4381POPC   C1B57499  28.204  24.559   6.208
 4381POPC   C2B57500  28.233  24.686   6.671
 4381POPC   C3B57501  28.072  24.558   7.091
 4381POPC   C4B57502  28.143  24.684   7.513
 4382POPC   NC357503  21.007  11.221   5.361
 4382POPC   PO457504  21.619  11.402   5.420
 4382POPC   GL157505  21.475  11.295   5.835
 4382POPC   GL257506  21.774  11.142   5.971
 4382POPC   C1A57507  21.196  11.367   6.227
 4382POPC   D2A57508  21.078  11.070   6.566
 4382POPC   C3A57509  21.195  11.229   6.945
 4382POPC   C4A57510  21.127  11.012   7.283
 4382POPC   C1B57511  21.721  11.481   6.263
 4382POPC   C2B57512  21.664  11.560   6.719
 4382POPC   C3B57513  21.649  11.367   7.136
 4382POPC   C4B57514  21.716  11.427   7.587
 4383POPC   NC357515  12.613  41.915   5.333
 4383POPC   PO457516  12.738  41.287   5.595
 4383POPC   GL157517  12.957  41.637   5.783
 4383POPC   GL257518  13.308  41.566   5.734
 4383POPC   C1A57519  12.944  41.757   6.216
 4383POPC   D2A57520  12.732  41.677   6.611
 4383POPC   C3A57521  12.789  41.868   6.999
 4383POPC   C4A57522  12.937  41.858   7.384
 4383POPC   C1B57523  13.214  41.317   6.107
 4383POPC   C2B57524  13.219  41.314   6.529
 4383POPC   C3B57525  13.069  41.453   6.921
 4383POPC   C4B57526  13.192  41.410   7.313
 4384POPC   NC357527   3.043  13.472   5.287
 4384POPC   PO457528   3.689  13.701   5.260
 4384POPC   GL157529   3.805  13.710   5.720
 4384POPC   GL257530   3.863  14.072   5.853
 4384POPC   C1A57531   3.613  13.421   6.086
 4384POPC   D2A57532   3.329  13.345   6.473
 4384POPC   C3A57533   3.476  13.502   6.883
 4384POPC   C4A57534   3.625  13.404   7.286
 4384POPC   C1B57535   3.463  13.907   6.041
 4384POPC   C2B57536   3.557  13.813   6.469
 4384POPC   C3B57537   3.865  13.846   6.817
 4384POPC   C4B57538   3.764  13.932   7.253
 4385POPC   NC357539  18.134  39.770   5.469
 4385POPC   PO457540  18.455  40.295   5.349
 4385POPC   GL157541  18.262  40.181   5.761
 4385POPC   GL257542  17.888  40.105   5.780
 4385POPC   C1A57543  18.204  40.122   6.211
 4385POPC   D2A57544  17.958  40.213   6.579
 4385POPC   C3A57545  18.182  40.231   6.950
 4385POPC   C4A57546  18.216  39.975   7.312
 4385POPC   C1B57547  17.898  39.738   6.108
 4385POPC   C2B57548  18.048  39.716   6.548
 4385POPC   C3B57549  17.897  39.807   6.937
 4385POPC   C4B57550  17.869  39.607   7.301
 4386POPC   NC357551  27.448  25.578   5.573
 4386POPC   PO457552  27.527  24.961   5.227
 4386POPC   GL157553  27.620  25.015   5.736
 4386POPC   GL257554  27.934  24.855   5.886
 4386POPC   C1A57555  27.585  25.221   6.167
 4386POPC   D2A57556  27.787  25.423   6.562
 4386POPC   C3A57557  27.462  25.382   6.873
 4386POPC   C4A57558  27.307  25.559   7.285
 4386POPC   C1B57559  28.021  25.021   6.313
 4386POPC   C2B57560  27.814  24.953   6.724
 4386POPC   C3B57561  27.937  25.046   7.113
 4386POPC   C4B57562  27.748  25.337   7.281
 4387POPC   NC357563  17.526   1.809   5.393
 4387POPC   PO457564  17.610   2.483   5.415
 4387POPC   GL157565  17.545   2.200   5.790
 4387POPC   GL257566  17.302   1.960   5.846
 4387POPC   C1A57567  17.697   1.995   6.181
 4387POPC   D2A57568  17.577   2.040   6.618
 4387POPC   C3A57569  17.463   1.891   7.038
 4387POPC   C4A57570  17.581   1.945   7.475
 4387POPC   C1B57571  17.237   2.246   6.215
 4387POPC   C2B57572  17.283   2.436   6.659
 4387POPC   C3B57573  17.154   2.305   7.091
 4387POPC   C4B57574  17.190   2.262   7.533
 4388POPC   NC357575  10.797  23.547   5.590
 4388POPC   PO457576  10.166  23.591   5.410
 4388POPC   GL157577  10.196  23.543   5.834
 4388POPC   GL257578  10.491  23.346   5.977
 4388POPC   C1A57579  10.295  23.769   6.193
 4388POPC   D2A57580  10.361  23.513   6.501
 4388POPC   C3A57581  10.285  23.739   6.856
 4388POPC   C4A57582  10.576  23.947   7.087
 4388POPC   C1B57583  10.795  23.646   6.223
 4388POPC   C2B57584  10.752  23.807   6.623
 4388POPC   C3B57585  10.735  23.500   6.902
 4388POPC   C4B57586  10.673  23.345   7.266
 4389POPC   NC357587  37.662  39.842   5.383
 4389POPC   PO457588  38.077  40.333   5.557
 4389POPC   GL157589  37.776  40.160   5.827
 4389POPC   GL257590  38.056  39.960   5.973
 4389POPC   C1A57591  37.582  39.917   6.172
 4389POPC   D2A57592  37.452  39.994   6.582
 4389POPC   C3A57593  37.601  39.809   6.950
 4389POPC   C4A57594  37.481  39.875   7.388
 4389POPC   C1B57595  37.965  40.197   6.363
 4389POPC   C2B57596  38.019  40.087   6.797
 4389POPC   C3B57597  38.000  39.979   7.231
 4389POPC   C4B57598  37.843  40.186   7.590
 4390POPC   NC357599   8.922  43.711   5.105
 4390POPC   PO457600   9.055  44.366   5.428
 4390POPC   GL157601   9.140  44.156   5.852
 4390POPC   GL257602   9.452  43.925   5.820
 4390POPC   C1A57603   8.934  44.059   6.288
 4390POPC   D2A57604   8.771  43.851   6.704
 4390POPC   C3A57605   8.868  44.073   7.097
 4390POPC   C4A57606   9.104  44.257   7.461
 4390POPC   C1B57607   9.263  43.664   6.147
 4390POPC   C2B57608   9.179  43.568   6.588
 4390POPC   C3B57609   9.199  43.665   7.060
 4390POPC   C4B57610   9.161  43.634   7.535
 4391POPC   NC357611  29.616  21.568   5.614
 4391POPC   PO457612  30.256  21.410   5.426
 4391POPC   GL157613  30.198  21.353   5.846
 4391POPC   GL257614  30.254  21.702   5.895
 4391POPC   C1A57615  30.022  21.213   6.259
 4391POPC   D2A57616  29.823  21.260   6.669
 4391POPC   C3A57617  30.088  21.278   7.027
 4391POPC   C4A57618  30.140  21.022   7.426
 4391POPC   C1B57619  29.973  21.727   6.224
 4391POPC   C2B57620  29.695  21.750   6.577
 4391POPC   C3B57621  29.697  21.660   7.016
 4391POPC   C4B57622  30.044  21.820   7.232
 4392POPC   NC357623  31.197  44.179   5.584
 4392POPC   PO457624  31.654  44.590   5.265
 4392POPC   GL157625  31.556  44.673   5.734
 4392POPC   GL257626  31.442  44.440   5.931
 4392POPC   C1A57627  31.559  44.871   6.186
 4392POPC   D2A57628  31.719  44.820   6.635
 4392POPC   C3A57629  31.408  44.841   6.986
 4392POPC   C4A57630  31.390   0.008   7.422
 4392POPC   C1B57631  31.527  44.383   6.348
 4392POPC   C2B57632  31.623  44.329   6.779
 4392POPC   C3B57633  31.718  44.477   7.169
 4392POPC   C4B57634  31.549  44.533   7.539
 4393POPC   NC357635  12.703  23.077   5.377
 4393POPC   PO457636  13.279  23.375   5.248
 4393POPC   GL157637  12.979  23.307   5.714
 4393POPC   GL257638  12.882  22.890   5.808
 4393POPC   C1A57639  12.793  23.212   6.157
 4393POPC   D2A57640  12.486  22.971   6.388
 4393POPC   C3A57641  12.684  22.958   6.778
 4393POPC   C4A57642  12.651  22.849   7.183
 4393POPC   C1B57643  13.153  22.834   6.200
 4393POPC   C2B57644  13.182  22.913   6.602
 4393POPC   C3B57645  13.196  22.883   7.026
 4393POPC   C4B57646  13.008  23.208   7.238
 4394POPC   NC357647  14.585  37.324   5.504
 4394POPC   PO457648  14.107  37.758   5.393
 4394POPC   GL157649  14.311  37.868   5.818
 4394POPC   GL257650  14.649  37.729   5.827
 4394POPC   C1A57651  14.361  37.711   6.278
 4394POPC   D2A57652  14.083  37.562   6.648
 4394POPC   C3A57653  14.152  37.730   7.072
 4394POPC   C4A57654  14.504  37.802   7.345
 4394POPC   C1B57655  14.763  37.417   6.140
 4394POPC   C2B57656  14.555  37.268   6.519
 4394POPC   C3B57657  14.556  37.424   6.927
 4394POPC   C4B57658  14.950  37.489   7.069
 4395POPC   NC357659  21.399  24.694   5.312
 4395POPC   PO457660  21.660  24.132   5.394
 4395POPC   GL157661  21.557  24.396   5.774
 4395POPC   GL257662  21.495  24.762   5.790
 4395POPC   C1A57663  21.676  24.575   6.235
 4395POPC   D2A57664  21.829  24.549   6.696
 4395POPC   C3A57665  21.517  24.341   6.984
 4395POPC   C4A57666  21.089  24.372   7.190
 4395POPC   C1B57667  21.240  24.832   6.171
 4395POPC   C2B57668  21.318  24.667   6.604
 4395POPC   C3B57669  21.464  24.845   7.004
 4395POPC   C4B57670  21.160  24.899   7.321
 4396POPC   NC357671   9.302  17.632   5.291
 4396POPC   PO457672   8.763  17.491   5.540
 4396POPC   GL157673   9.008  17.644   5.868
 4396POPC   GL257674   9.356  17.673   5.816
 4396POPC   C1A57675   9.029  17.711   6.296
 4396POPC   D2A57676   8.897  17.542   6.666
 4396POPC   C3A57677   8.836  17.861   6.928
 4396POPC   C4A57678   8.754  17.892   7.311
 4396POPC   C1B57679   9.307  17.303   6.115
 4396POPC   C2B57680   9.311  17.202   6.588
 4396POPC   C3B57681   9.302  17.446   6.989
 4396POPC   C4B57682   9.311  17.883   7.174
 4397POPC   NC357683  21.423  40.133   5.306
 4397POPC   PO457684  21.062  39.522   5.295
 4397POPC   GL157685  21.379  39.754   5.664
 4397POPC   GL257686  21.517  40.144   5.796
 4397POPC   C1A57687  21.329  39.866   6.156
 4397POPC   D2A57688  21.471  40.079   6.574
 4397POPC   C3A57689  21.297  40.028   6.992
 4397POPC   C4A57690  21.189  39.663   7.219
 4397POPC   C1B57691  21.793  40.140   6.189
 4397POPC   C2B57692  21.885  40.355   6.637
 4397POPC   C3B57693  21.734  40.271   7.079
 4397POPC   C4B57694  21.568  39.965   7.432
 4398POPC   NC357695  33.408  19.543   5.330
 4398POPC   PO457696  32.850  20.035   5.385
 4398POPC   GL157697  33.066  20.010   5.744
 4398POPC   GL257698  33.067  19.658   5.713
 4398POPC   C1A57699  32.922  19.884   6.162
 4398POPC   D2A57700  32.699  19.772   6.549
 4398POPC   C3A57701  32.944  19.834   6.937
 4398POPC   C4A57702  33.078  20.130   7.231
 4398POPC   C1B57703  33.312  19.563   6.091
 4398POPC   C2B57704  33.260  19.720   6.521
 4398POPC   C3B57705  33.319  19.486   6.874
 4398POPC   C4B57706  33.408  19.685   7.233
 4399POPC   NC357707  40.912   4.727   5.548
 4399POPC   PO457708  40.795   4.088   5.420
 4399POPC   GL157709  40.880   4.228   5.763
 4399POPC   GL257710  41.135   3.998   5.829
 4399POPC   C1A57711  40.654   4.405   6.092
 4399POPC   D2A57712  40.562   4.299   6.494
 4399POPC   C3A57713  40.785   4.547   6.747
 4399POPC   C4A57714  40.840   4.573   7.178
 4399POPC   C1B57715  40.906   3.943   6.199
 4399POPC   C2B57716  40.859   3.924   6.619
 4399POPC   C3B57717  40.784   4.098   6.996
 4399POPC   C4B57718  41.150   4.168   7.187
 4400POPC   NC357719  41.608   5.632   5.140
 4400POPC   PO457720  41.652   6.036   5.620
 4400POPC   GL157721  41.641   5.845   5.990
 4400POPC   GL257722  41.279   5.816   5.907
 4400POPC   C1A57723  41.765   5.872   6.431
 4400POPC   D2A57724  41.518   6.085   6.715
 4400POPC   C3A57725  41.292   6.112   7.107
 4400POPC   C4A57726  41.600   6.247   7.413
 4400POPC   C1B57727  41.270   5.702   6.357
 4400POPC   C2B57728  41.573   5.428   6.602
 4400POPC   C3B57729  41.784   5.428   6.972
 4400POPC   C4B57730  41.699   5.821   7.134
 4401POPC   NC357731  31.112  18.566   5.574
 4401POPC   PO457732  31.457  19.176   5.311
 4401POPC   GL157733  31.576  19.217   5.714
 4401POPC   GL257734  31.566  18.867   5.789
 4401POPC   C1A57735  31.349  19.261   6.097
 4401POPC   D2A57736  31.118  19.275   6.499
 4401POPC   C3A57737  31.356  19.083   6.820
 4401POPC   C4A57738  31.553  19.197   7.201
 4401POPC   C1B57739  31.811  19.022   6.142
 4401POPC   C2B57740  31.766  18.852   6.558
 4401POPC   C3B57741  31.937  18.937   6.949
 4401POPC   C4B57742  31.843  18.812   7.351
 4402POPC   NC357743  25.328  31.090   5.673
 4402POPC   PO457744  24.974  31.554   5.405
 4402POPC   GL157745  25.212  31.656   5.792
 4402POPC   GL257746  25.587  31.624   5.767
 4402POPC   C1A57747  25.319  31.575   6.223
 4402POPC   D2A57748  25.205  31.647   6.640
 4402POPC   C3A57749  25.262  31.291   6.911
 4402POPC   C4A57750  25.135  31.364   7.316
 4402POPC   C1B57751  25.782  31.384   6.130
 4402POPC   C2B57752  25.657  31.355   6.548
 4402POPC   C3B57753  25.672  31.596   6.888
 4402POPC   C4B57754  25.652  31.395   7.286
 4403POPC   NC357755  25.150  13.929   5.417
 4403POPC   PO457756  25.625  13.531   5.482
 4403POPC   GL157757  25.318  13.504   5.834
 4403POPC   GL257758  24.998  13.568   5.791
 4403POPC   C1A57759  25.099  13.758   6.243
 4403POPC   D2A57760  24.924  13.700   6.654
 4403POPC   C3A57761  25.171  13.796   7.014
 4403POPC   C4A57762  25.261  13.557   7.366
 4403POPC   C1B57763  25.058  13.264   6.200
 4403POPC   C2B57764  25.236  13.295   6.604
 4403POPC   C3B57765  25.044  13.242   6.999
 4403POPC   C4B57766  24.843  13.183   7.383
 4404POPC   NC357767  42.685   3.440   5.162
 4404POPC   PO457768  43.311   3.547   5.518
 4404POPC   GL157769  43.330   3.774   5.869
 4404POPC   GL257770  42.996   3.812   5.920
 4404POPC   C1A57771  43.388   3.589   6.294
 4404POPC   D2A57772  43.183   3.404   6.650
 4404POPC   C3A57773  43.290   3.519   7.061
 4404POPC   C4A57774  43.202   3.807   7.347
 4404POPC   C1B57775  42.870   3.664   6.311
 4404POPC   C2B57776  42.854   3.778   6.742
 4404POPC   C3B57777  42.782   3.551   7.100
 4404POPC   C4B57778  42.489   3.444   7.400
 4405POPC   NC357779  36.957   0.511   5.392
 4405POPC   PO457780  37.319  44.940   5.441
 4405POPC   GL157781  37.147   0.173   5.795
 4405POPC   GL257782  37.210   0.526   5.858
 4405POPC   C1A57783  37.059   0.158   6.245
 4405POPC   D2A57784  37.081   0.320   6.714
 4405POPC   C3A57785  36.889   0.220   7.158
 4405POPC   C4A57786  36.942   0.190   7.654
 4405POPC   C1B57787  37.063   0.673   6.285
 4405POPC   C2B57788  36.951   0.838   6.718
 4405POPC   C3B57789  36.778   0.732   7.119
 4405POPC   C4B57790  36.571   0.514   7.473
 4406POPC   NC357791  20.824  30.447   5.094
 4406POPC   PO457792  20.538  30.956   5.509
 4406POPC   GL157793  20.574  30.728   5.896
 4406POPC   GL257794  20.416  30.375   5.861
 4406POPC   C1A57795  20.586  30.880   6.315
 4406POPC   D2A57796  20.895  30.957   6.618
 4406POPC   C3A57797  20.718  30.849   7.010
 4406POPC   C4A57798  20.892  30.672   7.368
 4406POPC   C1B57799  20.655  30.359   6.245
 4406POPC   C2B57800  20.683  30.489   6.639
 4406POPC   C3B57801  20.697  30.336   7.022
 4406POPC   C4B57802  20.719  30.030   7.274
 4407POPC   NC357803  30.377   0.493   5.436
 4407POPC   PO457804  30.804  44.968   5.381
 4407POPC   GL157805  30.722   0.154   5.820
 4407POPC   GL257806  30.370   0.235   5.913
 4407POPC   C1A57807  30.711   0.483   6.182
 4407POPC   D2A57808  30.492   0.444   6.588
 4407POPC   C3A57809  30.727   0.263   6.935
 4407POPC   C4A57810  30.834   0.608   7.224
 4407POPC   C1B57811  30.233   0.074   6.356
 4407POPC   C2B57812  30.143   0.173   6.828
 4407POPC   C3B57813  30.306   0.442   7.178
 4407POPC   C4B57814  30.447   0.338   7.578
 4408POPC   NC357815  12.982   3.697   5.380
 4408POPC   PO457816  12.545   3.252   5.492
 4408POPC   GL157817  12.749   3.401   5.900
 4408POPC   GL257818  12.965   3.701   5.886
 4408POPC   C1A57819  12.852   3.375   6.389
 4408POPC   D2A57820  12.765   3.216   6.830
 4408POPC   C3A57821  12.853   3.496   7.194
 4408POPC   C4A57822  12.811   3.869   7.441
 4408POPC   C1B57823  13.245   3.646   6.251
 4408POPC   C2B57824  13.134   3.674   6.717
 4408POPC   C3B57825  13.291   3.781   7.129
 4408POPC   C4B57826  13.299   3.744   7.597
 4409POPC   NC357827  11.402  39.502   5.363
 4409POPC   PO457828  11.468  38.907   5.496
 4409POPC   GL157829  11.620  39.204   5.814
 4409POPC   GL257830  11.515  39.566   5.852
 4409POPC   C1A57831  11.680  39.358   6.267
 4409POPC   D2A57832  11.520  39.519   6.653
 4409POPC   C3A57833  11.429  39.235   7.010
 4409POPC   C4A57834  11.552  38.818   7.145
 4409POPC   C1B57835  11.188  39.439   6.199
 4409POPC   C2B57836  11.029  39.359   6.655
 4409POPC   C3B57837  10.951  39.374   7.116
 4409POPC   C4B57838  11.234  39.506   7.454
 4410POPC   NC357839  18.467   4.401   5.418
 4410POPC   PO457840  17.802   4.279   5.317
 4410POPC   GL157841  18.024   4.181   5.697
 4410POPC   GL257842  18.373   4.142   5.830
 4410POPC   C1A57843  18.018   3.954   6.109
 4410POPC   D2A57844  18.391   3.897   6.375
 4410POPC   C3A57845  18.408   4.031   6.820
 4410POPC   C4A57846  18.234   4.285   7.181
 4410POPC   C1B57847  18.586   4.368   6.132
 4410POPC   C2B57848  18.566   4.547   6.535
 4410POPC   C3B57849  18.648   4.477   6.952
 4410POPC   C4B57850  18.535   4.668   7.330
 4411POPC   NC357851  26.212  35.699   5.264
 4411POPC   PO457852  25.807  35.216   5.350
 4411POPC   GL157853  25.921  35.198   5.745
 4411POPC   GL257854  26.130  35.490   5.742
 4411POPC   C1A57855  25.924  35.300   6.179
 4411POPC   D2A57856  26.168  35.166   6.515
 4411POPC   C3A57857  26.001  35.189   6.900
 4411POPC   C4A57858  25.963  35.542   7.160
 4411POPC   C1B57859  26.371  35.524   6.128
 4411POPC   C2B57860  26.344  35.674   6.553
 4411POPC   C3B57861  26.437  35.475   6.933
 4411POPC   C4B57862  26.437  35.642   7.336
 4412POPC   NC357863   7.349  14.017   5.453
 4412POPC   PO457864   7.652  14.601   5.366
 4412POPC   GL157865   7.571  14.476   5.759
 4412POPC   GL257866   7.766  14.170   5.818
 4412POPC   C1A57867   7.480  14.624   6.180
 4412POPC   D2A57868   7.605  14.358   6.525
 4412POPC   C3A57869   7.567  14.554   6.879
 4412POPC   C4A57870   7.230  14.627   7.076
 4412POPC   C1B57871   7.405  14.123   6.118
 4412POPC   C2B57872   7.221  13.977   6.502
 4412POPC   C3B57873   7.290  14.112   6.916
 4412POPC   C4B57874   7.595  14.117   7.210
 4413POPC   NC357875  24.476  26.163   5.297
 4413POPC   PO457876  23.926  26.261   5.553
 4413POPC   GL157877  24.301  26.268   5.853
 4413POPC   GL257878  24.594  26.070   5.780
 4413POPC   C1A57879  24.436  26.104   6.277
 4413POPC   D2A57880  24.530  26.117   6.721
 4413POPC   C3A57881  24.208  25.906   6.960
 4413POPC   C4A57882  24.069  25.944   7.382
 4413POPC   C1B57883  24.766  25.751   6.075
 4413POPC   C2B57884  24.766  25.697   6.526
 4413POPC   C3B57885  24.883  25.836   6.965
 4413POPC   C4B57886  24.606  26.010   7.283
 4414POPC   NC357887  21.996  42.027   5.212
 4414POPC   PO457888  22.238  42.739   5.267
 4414POPC   GL157889  22.113  42.518   5.644
 4414POPC   GL257890  21.748  42.534   5.758
 4414POPC   C1A57891  22.295  42.411   6.036
 4414POPC   D2A57892  22.301  42.226   6.438
 4414POPC   C3A57893  22.203  42.371   6.846
 4414POPC   C4A57894  22.254  42.131   7.210
 4414POPC   C1B57895  21.859  42.149   6.026
 4414POPC   C2B57896  21.823  42.003   6.460
 4414POPC   C3B57897  21.730  42.161   6.869
 4414POPC   C4B57898  21.751  41.960   7.239
 4415POPC   NC357899  29.509  36.539   5.549
 4415POPC   PO457900  29.003  36.158   5.275
 4415POPC   GL157901  28.930  36.065   5.761
 4415POPC   GL257902  28.775  36.373   5.849
 4415POPC   C1A57903  29.134  35.883   6.193
 4415POPC   D2A57904  29.385  35.660   6.517
 4415POPC   C3A57905  29.339  35.811   6.960
 4415POPC   C4A57906  28.962  35.777   7.199
 4415POPC   C1B57907  29.017  36.382   6.207
 4415POPC   C2B57908  28.893  36.199   6.577
 4415POPC   C3B57909  29.038  36.224   6.968
 4415POPC   C4B57910  29.306  36.493   7.150
 4416POPC   NC357911  19.959  21.658   5.560
 4416POPC   PO457912  19.561  21.074   5.514
 4416POPC   GL157913  19.825  21.288   5.880
 4416POPC   GL257914  19.819  21.694   6.031
 4416POPC   C1A57915  20.038  21.332   6.276
 4416POPC   D2A57916  19.729  21.418   6.591
 4416POPC   C3A57917  19.988  21.465   6.900
 4416POPC   C4A57918  20.085  21.526   7.286
 4416POPC   C1B57919  19.560  21.863   6.352
 4416POPC   C2B57920  19.654  21.917   6.789
 4416POPC   C3B57921  19.623  21.684   7.176
 4416POPC   C4B57922  19.574  21.685   7.633
 4417POPC   NC357923  43.997  28.867   4.898
 4417POPC   PO457924  43.727  29.168   5.546
 4417POPC   GL157925  43.880  29.248   5.919
 4417POPC   GL257926  44.143  29.393   5.756
 4417POPC   C1A57927  43.711  29.150   6.333
 4417POPC   D2A57928  43.950  28.887   6.629
 4417POPC   C3A57929  44.000  28.967   7.096
 4417POPC   C4A57930  43.767  28.985   7.509
 4417POPC   C1B57931  44.236  29.494   6.208
 4417POPC   C2B57932  44.426  29.655   6.601
 4417POPC   C3B57933  44.458  29.618   7.032
 4417POPC   C4B57934  44.198  29.475   7.356
 4418POPC   NC357935  26.330  36.325   5.521
 4418POPC   PO457936  25.803  35.966   5.302
 4418POPC   GL157937  25.941  35.971   5.724
 4418POPC   GL257938  26.025  36.300   5.904
 4418POPC   C1A57939  26.016  35.878   6.174
 4418POPC   D2A57940  26.108  36.156   6.522
 4418POPC   C3A57941  26.001  35.995   6.924
 4418POPC   C4A57942  26.056  35.985   7.389
 4418POPC   C1B57943  26.282  36.564   6.184
 4418POPC   C2B57944  26.431  36.582   6.596
 4418POPC   C3B57945  26.282  36.419   6.948
 4418POPC   C4B57946  26.019  36.466   7.282
 4419POPC   NC357947  34.467  21.919   5.295
 4419POPC   PO457948  34.885  22.458   5.376
 4419POPC   GL157949  34.693  22.238   5.775
 4419POPC   GL257950  34.442  21.968   5.813
 4419POPC   C1A57951  34.541  22.259   6.249
 4419POPC   D2A57952  34.625  22.247   6.735
 4419POPC   C3A57953  34.420  22.474   7.123
 4419POPC   C4A57954  34.280  22.393   7.558
 4419POPC   C1B57955  34.513  21.748   6.218
 4419POPC   C2B57956  34.576  21.712   6.680
 4419POPC   C3B57957  34.449  21.923   7.090
 4419POPC   C4B57958  34.611  22.019   7.518
 4420POPC   NC357959  10.368   1.909   5.426
 4420POPC   PO457960  10.940   2.039   5.115
 4420POPC   GL157961  10.819   1.889   5.621
 4420POPC   GL257962  10.603   1.667   5.827
 4420POPC   C1A57963  10.594   2.138   6.016
 4420POPC   D2A57964  10.540   1.975   6.448
 4420POPC   C3A57965  10.336   2.205   6.787
 4420POPC   C4A57966  10.407   2.139   7.224
 4420POPC   C1B57967  10.949   1.801   6.139
 4420POPC   C2B57968  11.001   1.694   6.586
 4420POPC   C3B57969  10.696   1.792   6.917
 4420POPC   C4B57970  10.616   1.614   7.330
 4421POPC   NC357971  24.869  21.559   5.393
 4421POPC   PO457972  24.177  21.406   5.470
 4421POPC   GL157973  24.313  21.413   5.872
 4421POPC   GL257974  24.578  21.623   5.840
 4421POPC   C1A57975  24.478  21.346   6.284
 4421POPC   D2A57976  24.431  21.090   6.626
 4421POPC   C3A57977  24.174  21.345   6.855
 4421POPC   C4A57978  24.243  21.296   7.282
 4421POPC   C1B57979  24.491  21.853   6.226
 4421POPC   C2B57980  24.413  21.752   6.654
 4421POPC   C3B57981  24.637  21.512   6.980
 4421POPC   C4B57982  24.799  21.629   7.413
 4422POPC   NC357983  11.459  44.022   5.229
 4422POPC   PO457984  12.216  44.011   5.458
 4422POPC   GL157985  12.140  44.067   5.912
 4422POPC   GL257986  11.828  44.257   6.019
 4422POPC   C1A57987  12.341  43.920   6.265
 4422POPC   D2A57988  12.258  44.044   6.672
 4422POPC   C3A57989  12.367  43.740   6.965
 4422POPC   C4A57990  12.334  43.834   7.375
 4422POPC   C1B57991  11.814  43.900   6.299
 4422POPC   C2B57992  11.818  43.756   6.730
 4422POPC   C3B57993  11.925  43.964   7.097
 4422POPC   C4B57994  11.831  43.856   7.531
 4423POPC   NC357995   9.526  21.717   5.597
 4423POPC   PO457996   9.939  21.225   5.338
 4423POPC   GL157997   9.811  21.331   5.765
 4423POPC   GL257998   9.972  21.677   5.868
 4423POPC   C1A57999   9.650  21.122   6.135
 4423POPC   D2A58000   9.850  21.085   6.547
 4423POPC   C3A58001   9.631  21.094   6.919
 4423POPC   C4A58002   9.773  21.113   7.325
 4423POPC   C1B58003   9.695  21.634   6.240
 4423POPC   C2B58004   9.536  21.514   6.639
 4423POPC   C3B58005   9.714  21.582   7.030
 4423POPC   C4B58006   9.752  21.593   7.452
 4424POPC   NC358007  43.278  16.376   5.231
 4424POPC   PO458008  42.679  16.522   5.412
 4424POPC   GL158009  42.945  16.218   5.706
 4424POPC   GL258010  43.313  16.230   5.757
 4424POPC   C1A58011  43.062  16.065   6.173
 4424POPC   D2A58012  43.296  16.094   6.594
 4424POPC   C3A58013  43.167  15.962   7.029
 4424POPC   C4A58014  43.030  15.826   7.457
 4424POPC   C1B58015  43.526  16.331   6.179
 4424POPC   C2B58016  43.712  16.388   6.613
 4424POPC   C3B58017  43.650  16.142   6.998
 4424POPC   C4B58018  43.496  16.096   7.424
 4425POPC   NC358019  20.284  11.789   5.340
 4425POPC   PO458020  20.338  12.362   5.605
 4425POPC   GL158021  20.425  11.959   5.865
 4425POPC   GL258022  20.275  11.603   5.806
 4425POPC   C1A58023  20.619  11.868   6.305
 4425POPC   D2A58024  20.507  12.024   6.743
 4425POPC   C3A58025  20.780  11.861   7.086
 4425POPC   C4A58026  20.769  11.702   7.502
 4425POPC   C1B58027  20.156  11.709   6.222
 4425POPC   C2B58028  20.325  11.561   6.603
 4425POPC   C3B58029  20.338  11.627   7.047
 4425POPC   C4B58030  20.321  11.943   7.391
 4426POPC   NC358031  12.504  10.356   5.363
 4426POPC   PO458032  12.041  10.821   5.553
 4426POPC   GL158033  12.062  10.685   5.914
 4426POPC   GL258034  12.181  10.391   5.782
 4426POPC   C1A58035  11.851  10.708   6.271
 4426POPC   D2A58036  12.065  10.559   6.611
 4426POPC   C3A58037  12.063  10.712   7.036
 4426POPC   C4A58038  12.483  10.760   7.216
 4426POPC   C1B58039  11.964  10.187   6.094
 4426POPC   C2B58040  11.989  10.046   6.524
 4426POPC   C3B58041  11.988  10.206   6.958
 4426POPC   C4B58042  11.951  10.042   7.385
 4427POPC   NC358043  26.957  25.079   5.048
 4427POPC   PO458044  26.741  25.597   5.456
 4427POPC   GL158045  26.996  25.367   5.750
 4427POPC   GL258046  27.142  25.083   5.562
 4427POPC   C1A58047  27.074  25.354   6.190
 4427POPC   D2A58048  26.804  25.236   6.525
 4427POPC   C3A58049  26.937  25.406   6.886
 4427POPC   C4A58050  26.830  25.376   7.284
 4427POPC   C1B58051  27.196  24.908   5.981
 4427POPC   C2B58052  27.160  24.870   6.415
 4427POPC   C3B58053  27.092  24.864   6.848
 4427POPC   C4B58054  27.251  25.053   7.213
 4428POPC   NC358055  34.779  27.896   5.357
 4428POPC   PO458056  34.847  27.198   5.528
 4428POPC   GL158057  34.573  27.428   5.828
 4428POPC   GL258058  34.545  27.795   5.827
 4428POPC   C1A58059  34.450  27.540   6.256
 4428POPC   D2A58060  34.711  27.566   6.615
 4428POPC   C3A58061  34.572  27.407   7.001
 4428POPC   C4A58062  34.430  27.659   7.349
 4428POPC   C1B58063  34.842  27.883   6.218
 4428POPC   C2B58064  35.083  27.926   6.618
 4428POPC   C3B58065  34.833  27.903   7.019
 4428POPC   C4B58066  34.798  28.030   7.438
 4429POPC   NC358067   7.293   3.060   5.438
 4429POPC   PO458068   6.920   2.589   5.507
 4429POPC   GL158069   7.333   2.562   5.768
 4429POPC   GL258070   7.647   2.804   5.766
 4429POPC   C1A58071   7.560   2.567   6.202
 4429POPC   D2A58072   7.642   2.722   6.639
 4429POPC   C3A58073   7.336   2.756   6.981
 4429POPC   C4A58074   7.279   2.928   7.388
 4429POPC   C1B58075   7.702   3.062   6.210
 4429POPC   C2B58076   7.678   3.239   6.685
 4429POPC   C3B58077   7.499   3.370   7.139
 4429POPC   C4B58078   7.351   3.383   7.603
 4430POPC   NC358079  28.245  27.099   5.283
 4430POPC   PO458080  28.421  26.493   5.477
 4430POPC   GL158081  28.177  26.733   5.777
 4430POPC   GL258082  28.107  27.127   5.765
 4430POPC   C1A58083  28.297  26.603   6.196
 4430POPC   D2A58084  28.096  26.432   6.532
 4430POPC   C3A58085  28.252  26.595   6.888
 4430POPC   C4A58086  28.096  26.747   7.285
 4430POPC   C1B58087  28.372  27.112   6.124
 4430POPC   C2B58088  28.536  26.977   6.524
 4430POPC   C3B58089  28.446  27.072   6.954
 4430POPC   C4B58090  28.571  26.932   7.358
 4431POPC   NC358091   5.379  16.253   5.149
 4431POPC   PO458092   4.853  16.564   5.477
 4431POPC   GL158093   5.085  16.691   5.798
 4431POPC   GL258094   4.990  16.388   5.948
 4431POPC   C1A58095   5.318  16.796   6.161
 4431POPC   D2A58096   5.165  16.831   6.570
 4431POPC   C3A58097   5.296  16.734   6.976
 4431POPC   C4A58098   5.583  16.972   7.242
 4431POPC   C1B58099   4.817  16.453   6.312
 4431POPC   C2B58100   4.910  16.386   6.719
 4431POPC   C3B58101   4.726  16.508   7.087
 4431POPC   C4B58102   5.036  16.558   7.391
 4432POPC   NC358103   6.426   9.452   5.264
 4432POPC   PO458104   6.837   9.057   5.592
 4432POPC   GL158105   6.543   9.099   5.914
 4432POPC   GL258106   6.295   9.237   5.736
 4432POPC   C1A58107   6.543   8.978   6.350
 4432POPC   D2A58108   6.706   8.595   6.608
 4432POPC   C3A58109   6.635   8.676   7.037
 4432POPC   C4A58110   6.438   9.105   7.082
 4432POPC   C1B58111   6.166   9.412   6.129
 4432POPC   C2B58112   6.241   9.343   6.567
 4432POPC   C3B58113   6.180   9.565   6.961
 4432POPC   C4B58114   6.334   9.532   7.359
 4433POPC   NC358115  26.888   6.414   5.504
 4433POPC   PO458116  26.749   7.030   5.528
 4433POPC   GL158117  26.944   6.833   5.890
 4433POPC   GL258118  27.144   6.461   5.936
 4433POPC   C1A58119  26.752   6.979   6.308
 4433POPC   D2A58120  26.647   7.128   6.758
 4433POPC   C3A58121  26.666   6.808   7.115
 4433POPC   C4A58122  26.442   6.537   7.438
 4433POPC   C1B58123  26.795   6.477   6.224
 4433POPC   C2B58124  26.675   6.557   6.655
 4433POPC   C3B58125  26.681   6.305   7.035
 4433POPC   C4B58126  26.861   6.249   7.464
 4434POPC   NC358127  21.850  21.953   5.051
 4434POPC   PO458128  21.200  21.895   5.403
 4434POPC   GL158129  21.376  22.037   5.790
 4434POPC   GL258130  21.746  21.948   5.842
 4434POPC   C1A58131  21.158  22.288   6.110
 4434POPC   D2A58132  21.042  22.247   6.540
 4434POPC   C3A58133  21.350  22.102   6.847
 4434POPC   C4A58134  21.224  22.122   7.268
 4434POPC   C1B58135  21.650  22.175   6.269
 4434POPC   C2B58136  21.572  22.518   6.616
 4434POPC   C3B58137  21.637  22.587   7.074
 4434POPC   C4B58138  21.685  22.323   7.458
 4435POPC   NC358139  37.206  33.370   4.973
 4435POPC   PO458140  37.025  32.876   5.370
 4435POPC   GL158141  36.846  33.030   5.767
 4435POPC   GL258142  37.041  33.282   5.849
 4435POPC   C1A58143  36.768  33.090   6.230
 4435POPC   D2A58144  36.989  32.975   6.601
 4435POPC   C3A58145  36.781  33.039   7.001
 4435POPC   C4A58146  37.035  32.811   7.280
 4435POPC   C1B58147  37.269  33.238   6.225
 4435POPC   C2B58148  37.255  33.467   6.613
 4435POPC   C3B58149  37.261  33.258   7.003
 4435POPC   C4B58150  37.089  33.320   7.387
 4436POPC   NC358151  11.130  21.072   5.595
 4436POPC   PO458152  11.436  20.557   5.519
 4436POPC   GL158153  11.404  20.776   5.879
 4436POPC   GL258154  11.051  20.623   5.881
 4436POPC   C1A58155  11.180  20.917   6.256
 4436POPC   D2A58156  11.143  20.654   6.590
 4436POPC   C3A58157  11.100  20.843   6.957
 4436POPC   C4A58158  11.268  20.671   7.321
 4436POPC   C1B58159  11.299  20.368   6.163
 4436POPC   C2B58160  11.498  20.273   6.517
 4436POPC   C3B58161  11.474  20.401   6.929
 4436POPC   C4B58162  11.401  20.182   7.286
 4437POPC   NC358163   6.255  34.712   5.373
 4437POPC   PO458164   6.922  34.537   5.457
 4437POPC   GL158165   6.877  34.555   5.879
 4437POPC   GL258166   6.610  34.779   5.870
 4437POPC   C1A58167   6.836  34.473   6.320
 4437POPC   D2A58168   6.611  34.506   6.705
 4437POPC   C3A58169   6.914  34.445   7.025
 4437POPC   C4A58170   6.965  34.671   7.384
 4437POPC   C1B58171   6.466  34.852   6.291
 4437POPC   C2B58172   6.399  34.968   6.703
 4437POPC   C3B58173   6.532  34.848   7.088
 4437POPC   C4B58174   6.442  34.412   7.190
 4438POPC   NC358175  13.746  40.137   5.565
 4438POPC   PO458176  13.515  39.476   5.429
 4438POPC   GL158177  13.474  39.750   5.793
 4438POPC   GL258178  13.330  40.094   5.878
 4438POPC   C1A58179  13.652  39.794   6.194
 4438POPC   D2A58180  13.398  39.878   6.533
 4438POPC   C3A58181  13.537  40.030   6.902
 4438POPC   C4A58182  13.805  40.176   7.191
 4438POPC   C1B58183  13.544  40.320   6.225
 4438POPC   C2B58184  13.588  40.481   6.645
 4438POPC   C3B58185  13.423  40.518   7.062
 4438POPC   C4B58186  13.356  40.463   7.492
 4439POPC   NC358187  30.544  42.194   5.391
 4439POPC   PO458188  29.986  42.503   5.160
 4439POPC   GL158189  29.982  42.254   5.573
 4439POPC   GL258190  30.174  41.975   5.660
 4439POPC   C1A58191  29.691  42.161   5.952
 4439POPC   D2A58192  29.650  42.084   6.425
 4439POPC   C3A58193  29.880  42.249   6.780
 4439POPC   C4A58194  29.877  42.521   7.148
 4439POPC   C1B58195  30.137  41.977   6.137
 4439POPC   C2B58196  30.292  41.966   6.591
 4439POPC   C3B58197  30.074  41.811   6.986
 4439POPC   C4B58198  30.210  41.680   7.394
 4440POPC   NC358199  43.293  42.776   5.466
 4440POPC   PO458200  42.967  43.354   5.568
 4440POPC   GL158201  43.233  43.203   5.864
 4440POPC   GL258202  43.012  42.919   5.865
 4440POPC   C1A58203  43.285  43.251   6.317
 4440POPC   D2A58204  43.177  43.301   6.752
 4440POPC   C3A58205  43.352  43.002   7.026
 4440POPC   C4A58206  43.165  43.090   7.391
 4440POPC   C1B58207  43.301  42.754   6.177
 4440POPC   C2B58208  43.092  42.812   6.584
 4440POPC   C3B58209  42.905  42.768   7.004
 4440POPC   C4B58210  42.952  42.581   7.414
 4441POPC   NC358211  10.907  32.402   5.379
 4441POPC   PO458212  10.431  31.968   5.189
 4441POPC   GL158213  10.628  32.071   5.668
 4441POPC   GL258214  10.399  32.203   5.914
 4441POPC   C1A58215  10.836  32.064   6.145
 4441POPC   D2A58216  10.999  32.049   6.623
 4441POPC   C3A58217  10.733  32.249   6.983
 4441POPC   C4A58218  10.629  32.161   7.444
 4441POPC   C1B58219  10.449  32.427   6.293
 4441POPC   C2B58220  10.447  32.591   6.716
 4441POPC   C3B58221  10.210  32.588   7.107
 4441POPC   C4B58222  10.231  32.638   7.581
 4442POPC   NC358223  10.844  10.067   5.406
 4442POPC   PO458224  10.331   9.550   5.487
 4442POPC   GL158225  10.539   9.702   5.825
 4442POPC   GL258226  10.437  10.029   5.773
 4442POPC   C1A58227  10.676   9.609   6.247
 4442POPC   D2A58228  10.476   9.533   6.637
 4442POPC   C3A58229  10.652   9.514   7.046
 4442POPC   C4A58230  10.527   9.710   7.470
 4442POPC   C1B58231  10.285  10.022   6.192
 4442POPC   C2B58232  10.305  10.015   6.640
 4442POPC   C3B58233  10.477  10.032   7.063
 4442POPC   C4B58234  10.206  10.081   7.416
 4443POPC   NC358235  44.771   8.365   5.349
 4443POPC   PO458236   0.183   8.000   5.713
 4443POPC   GL158237  44.839   8.212   5.900
 4443POPC   GL258238  44.762   8.530   5.863
 4443POPC   C1A58239  44.524   8.168   6.235
 4443POPC   D2A58240  44.520   7.806   6.526
 4443POPC   C3A58241  44.671   7.885   6.956
 4443POPC   C4A58242  44.405   7.859   7.341
 4443POPC   C1B58243  44.861   8.589   6.294
 4443POPC   C2B58244  44.592   8.590   6.683
 4443POPC   C3B58245  44.454   8.348   7.070
 4443POPC   C4B58246  44.490   8.317   7.533
 4444POPC   NC358247  38.353  19.997   5.249
 4444POPC   PO458248  38.192  19.483   5.534
 4444POPC   GL158249  38.370  19.790   5.800
 4444POPC   GL258250  38.694  19.698   5.772
 4444POPC   C1A58251  38.330  19.954   6.243
 4444POPC   D2A58252  38.143  20.015   6.677
 4444POPC   C3A58253  38.390  20.200   7.039
 4444POPC   C4A58254  38.507  19.982   7.440
 4444POPC   C1B58255  38.656  19.549   6.203
 4444POPC   C2B58256  38.508  19.600   6.642
 4444POPC   C3B58257  38.674  19.466   7.056
 4444POPC   C4B58258  38.799  19.564   7.500
 4445POPC   NC358259  33.662  35.577   5.362
 4445POPC   PO458260  33.910  34.891   5.459
 4445POPC   GL158261  33.772  35.270   5.775
 4445POPC   GL258262  33.523  35.593   5.840
 4445POPC   C1A58263  33.779  35.342   6.228
 4445POPC   D2A58264  33.700  35.057   6.571
 4445POPC   C3A58265  33.665  35.133   7.033
 4445POPC   C4A58266  33.990  35.172   7.346
 4445POPC   C1B58267  33.938  35.770   5.964
 4445POPC   C2B58268  34.123  35.813   6.367
 4445POPC   C3B58269  34.083  35.896   6.822
 4445POPC   C4B58270  33.884  35.844   7.232
 4446POPC   NC358271  34.730  41.814   5.490
 4446POPC   PO458272  34.785  41.093   5.522
 4446POPC   GL158273  34.546  41.393   5.797
 4446POPC   GL258274  34.656  41.730   5.973
 4446POPC   C1A58275  34.434  41.365   6.236
 4446POPC   D2A58276  34.672  41.237   6.604
 4446POPC   C3A58277  34.580  41.427   7.002
 4446POPC   C4A58278  34.198  41.614   7.135
 4446POPC   C1B58279  34.944  41.850   6.299
 4446POPC   C2B58280  34.857  41.785   6.748
 4446POPC   C3B58281  34.590  41.933   7.119
 4446POPC   C4B58282  34.767  42.004   7.533
 4447POPC   NC358283   6.001  35.527   5.318
 4447POPC   PO458284   6.438  35.100   5.532
 4447POPC   GL158285   6.171  35.097   5.875
 4447POPC   GL258286   5.860  35.270   5.775
 4447POPC   C1A58287   6.126  35.227   6.310
 4447POPC   D2A58288   6.234  35.436   6.688
 4447POPC   C3A58289   6.099  35.215   7.067
 4447POPC   C4A58290   6.194  35.193   7.513
 4447POPC   C1B58291   5.640  35.346   6.213
 4447POPC   C2B58292   5.723  35.394   6.675
 4447POPC   C3B58293   5.605  35.544   7.118
 4447POPC   C4B58294   5.632  35.466   7.590
 4448POPC   NC358295  34.916  29.147   5.205
 4448POPC   PO458296  34.252  29.053   5.376
 4448POPC   GL158297  34.480  29.061   5.780
 4448POPC   GL258298  34.830  29.175   5.732
 4448POPC   C1A58299  34.472  28.915   6.231
 4448POPC   D2A58300  34.367  28.636   6.580
 4448POPC   C3A58301  34.500  28.858   6.947
 4448POPC   C4A58302  34.791  28.964   7.279
 4448POPC   C1B58303  34.694  29.351   6.166
 4448POPC   C2B58304  34.504  29.352   6.591
 4448POPC   C3B58305  34.484  29.354   7.046
 4448POPC   C4B58306  34.542  29.600   7.398
 4449POPC   NC358307  28.099  19.861   5.319
 4449POPC   PO458308  28.571  19.382   5.471
 4449POPC   GL158309  28.553  19.707   5.796
 4449POPC   GL258310  28.220  19.806   5.812
 4449POPC   C1A58311  28.522  19.935   6.213
 4449POPC   D2A58312  28.233  19.963   6.569
 4449POPC   C3A58313  28.464  19.875   6.956
 4449POPC   C4A58314  28.370  19.622   7.300
 4449POPC   C1B58315  27.959  19.995   6.126
 4449POPC   C2B58316  27.804  20.274   6.463
 4449POPC   C3B58317  27.781  20.170   6.907
 4449POPC   C4B58318  28.052  20.029   7.265
 4450POPC   NC358319   4.442  18.765   5.461
 4450POPC   PO458320   4.037  19.204   5.160
 4450POPC   GL158321   4.174  19.328   5.664
 4450POPC   GL258322   4.296  19.068   5.906
 4450POPC   C1A58323   4.468  19.470   6.104
 4450POPC   D2A58324   4.536  19.253   6.562
 4450POPC   C3A58325   4.367  19.185   7.014
 4450POPC   C4A58326   4.333  19.298   7.471
 4450POPC   C1B58327   4.013  19.086   6.288
 4450POPC   C2B58328   3.884  19.184   6.731
 4450POPC   C3B58329   3.939  18.878   7.063
 4450POPC   C4B58330   4.118  18.849   7.447
 4451POPC   NC358331  43.434   4.860   5.458
 4451POPC   PO458332  42.931   5.318   5.352
 4451POPC   GL158333  42.949   5.050   5.701
 4451POPC   GL258334  43.254   5.166   5.831
 4451POPC   C1A58335  42.866   5.039   6.162
 4451POPC   D2A58336  43.031   5.254   6.560
 4451POPC   C3A58337  42.941   5.123   6.962
 4451POPC   C4A58338  42.944   5.311   7.331
 4451POPC   C1B58339  43.369   5.048   6.241
 4451POPC   C2B58340  43.536   5.157   6.657
 4451POPC   C3B58341  43.438   5.062   7.075
 4451POPC   C4B58342  43.256   4.715   7.295
 4452POPC   NC358343  41.851  25.998   5.326
 4452POPC   PO458344  41.247  25.610   5.421
 4452POPC   GL158345  41.480  25.916   5.699
 4452POPC   GL258346  41.740  25.749   5.777
 4452POPC   C1A58347  41.572  26.138   6.106
 4452POPC   D2A58348  41.470  26.306   6.538
 4452POPC   C3A58349  41.532  26.148   6.983
 4452POPC   C4A58350  41.277  26.006   7.343
 4452POPC   C1B58351  41.937  25.766   6.168
 4452POPC   C2B58352  41.904  25.982   6.558
 4452POPC   C3B58353  41.958  25.843   6.980
 4452POPC   C4B58354  41.742  25.771   7.337
 4453POPC   NC358355  18.132   6.213   5.494
 4453POPC   PO458356  18.479   5.654   5.411
 4453POPC   GL158357  18.600   5.827   5.830
 4453POPC   GL258358  18.452   6.154   5.891
 4453POPC   C1A58359  18.534   5.819   6.291
 4453POPC   D2A58360  18.439   6.063   6.667
 4453POPC   C3A58361  18.616   5.809   7.019
 4453POPC   C4A58362  18.364   5.532   7.276
 4453POPC   C1B58363  18.084   6.069   6.188
 4453POPC   C2B58364  17.961   5.877   6.596
 4453POPC   C3B58365  18.097   5.913   7.032
 4453POPC   C4B58366  17.919   6.161   7.336
 4454POPC   NC358367  30.654  22.562   5.275
 4454POPC   PO458368  31.002  23.089   5.566
 4454POPC   GL158369  30.630  23.009   5.811
 4454POPC   GL258370  30.499  22.677   5.868
 4454POPC   C1A58371  30.648  22.953   6.280
 4454POPC   D2A58372  30.843  22.850   6.694
 4454POPC   C3A58373  30.861  23.172   7.013
 4454POPC   C4A58374  30.726  23.157   7.434
 4454POPC   C1B58375  30.488  22.462   6.305
 4454POPC   C2B58376  30.515  22.457   6.767
 4454POPC   C3B58377  30.556  22.717   7.154
 4454POPC   C4B58378  30.596  22.703   7.613
 4455POPC   NC358379  24.521   1.786   5.412
 4455POPC   PO458380  24.103   2.308   5.292
 4455POPC   GL158381  24.442   2.219   5.668
 4455POPC   GL258382  24.369   1.938   5.933
 4455POPC   C1A58383  24.720   2.293   6.044
 4455POPC   D2A58384  24.652   2.301   6.507
 4455POPC   C3A58385  24.285   2.105   6.760
 4455POPC   C4A58386  24.223   2.123   7.245
 4455POPC   C1B58387  24.744   1.832   6.268
 4455POPC   C2B58388  24.918   1.916   6.690
 4455POPC   C3B58389  24.667   1.913   7.058
 4455POPC   C4B58390  24.462   1.678   7.359
 4456POPC   NC358391   8.785   1.471   5.216
 4456POPC   PO458392   8.803   0.837   5.405
 4456POPC   GL158393   8.946   1.026   5.785
 4456POPC   GL258394   8.873   1.373   5.728
 4456POPC   C1A58395   9.114   1.191   6.188
 4456POPC   D2A58396   8.906   1.140   6.550
 4456POPC   C3A58397   8.990   0.899   6.869
 4456POPC   C4A58398   8.949   1.046   7.272
 4456POPC   C1B58399   8.704   1.481   6.135
 4456POPC   C2B58400   8.839   1.646   6.538
 4456POPC   C3B58401   8.917   1.471   6.949
 4456POPC   C4B58402   8.795   1.554   7.352
 4457POPC   NC358403  14.640   6.760   5.254
 4457POPC   PO458404  14.237   7.065   5.684
 4457POPC   GL158405  14.285   6.655   5.899
 4457POPC   GL258406  14.119   6.340   5.781
 4457POPC   C1A58407  14.553   6.608   6.266
 4457POPC   D2A58408  14.735   6.913   6.542
 4457POPC   C3A58409  14.595   6.738   6.911
 4457POPC   C4A58410  14.432   6.452   7.198
 4457POPC   C1B58411  14.126   6.294   6.239
 4457POPC   C2B58412  14.240   6.415   6.674
 4457POPC   C3B58413  13.989   6.270   7.034
 4457POPC   C4B58414  14.015   6.343   7.475
 4458POPC   NC358415  23.478  23.351   5.317
 4458POPC   PO458416  23.504  24.017   5.184
 4458POPC   GL158417  23.630  23.854   5.678
 4458POPC   GL258418  23.566  23.493   5.791
 4458POPC   C1A58419  23.807  23.944   6.141
 4458POPC   D2A58420  23.745  24.107   6.599
 4458POPC   C3A58421  23.748  23.873   7.027
 4458POPC   C4A58422  23.808  23.838   7.508
 4458POPC   C1B58423  23.420  23.604   6.196
 4458POPC   C2B58424  23.648  23.594   6.577
 4458POPC   C3B58425  23.710  23.343   6.942
 4458POPC   C4B58426  23.519  23.472   7.302
 4459POPC   NC358427  14.728   1.528   5.467
 4459POPC   PO458428  14.240   1.139   5.275
 4459POPC   GL158429  14.272   1.328   5.725
 4459POPC   GL258430  14.567   1.502   5.945
 4459POPC   C1A58431  14.196   1.280   6.179
 4459POPC   D2A58432  14.481   1.452   6.504
 4459POPC   C3A58433  14.387   1.384   6.928
 4459POPC   C4A58434  14.183   1.117   7.210
 4459POPC   C1B58435  14.679   1.099   6.143
 4459POPC   C2B58436  14.902   1.074   6.542
 4459POPC   C3B58437  14.723   1.011   6.947
 4459POPC   C4B58438  14.649   0.905   7.360
 4460POPC   NC358439  16.193   7.687   5.526
 4460POPC   PO458440  15.841   6.992   5.420
 4460POPC   GL158441  16.021   7.240   5.709
 4460POPC   GL258442  16.368   7.225   5.720
 4460POPC   C1A58443  15.824   7.445   6.069
 4460POPC   D2A58444  15.615   7.577   6.437
 4460POPC   C3A58445  15.515   7.400   6.807
 4460POPC   C4A58446  15.666   7.445   7.176
 4460POPC   C1B58447  16.345   7.436   6.119
 4460POPC   C2B58448  16.131   7.394   6.505
 4460POPC   C3B58449  16.157   7.429   6.940
 4460POPC   C4B58450  16.111   7.219   7.323
 4461POPC   NC358451   0.619  28.499   5.539
 4461POPC   PO458452   0.006  28.159   5.481
 4461POPC   GL158453   0.328  28.160   5.786
 4461POPC   GL258454   0.138  28.405   5.922
 4461POPC   C1A58455   0.563  28.329   6.183
 4461POPC   D2A58456   0.286  28.539   6.496
 4461POPC   C3A58457   0.334  28.530   6.980
 4461POPC   C4A58458   0.592  28.366   7.338
 4461POPC   C1B58459   0.185  28.010   6.231
 4461POPC   C2B58460   0.319  28.039   6.673
 4461POPC   C3B58461   0.128  28.066   7.089
 4461POPC   C4B58462   0.227  28.053   7.527
 4462POPC   NC358463   9.730  23.420   5.294
 4462POPC   PO458464   9.943  22.770   5.440
 4462POPC   GL158465   9.729  22.922   5.757
 4462POPC   GL258466   9.763  23.247   5.780
 4462POPC   C1A58467   9.513  22.935   6.129
 4462POPC   D2A58468   9.530  23.180   6.447
 4462POPC   C3A58469   9.691  22.996   6.818
 4462POPC   C4A58470   9.660  22.784   7.234
 4462POPC   C1B58471  10.018  23.112   6.148
 4462POPC   C2B58472  10.192  23.011   6.546
 4462POPC   C3B58473  10.268  23.228   6.922
 4462POPC   C4B58474   9.933  23.221   7.209
 4463POPC   NC358475   6.083  21.048   5.201
 4463POPC   PO458476   5.685  21.627   5.411
 4463POPC   GL158477   5.827  21.315   5.706
 4463POPC   GL258478   6.162  21.230   5.781
 4463POPC   C1A58479   5.725  21.256   6.120
 4463POPC   D2A58480   5.569  21.424   6.530
 4463POPC   C3A58481   5.800  21.496   6.915
 4463POPC   C4A58482   5.526  21.323   7.241
 4463POPC   C1B58483   6.269  21.240   6.196
 4463POPC   C2B58484   6.258  21.313   6.627
 4463POPC   C3B58485   6.273  21.065   6.981
 4463POPC   C4B58486   6.020  21.191   7.303
 4464POPC   NC358487  18.900  31.205   5.472
 4464POPC   PO458488  19.268  31.803   5.426
 4464POPC   GL158489  19.388  31.667   5.836
 4464POPC   GL258490  19.170  31.418   5.843
 4464POPC   C1A58491  19.220  31.721   6.277
 4464POPC   D2A58492  18.997  31.995   6.572
 4464POPC   C3A58493  19.082  31.886   7.017
 4464POPC   C4A58494  19.219  31.657   7.386
 4464POPC   C1B58495  19.006  31.263   6.245
 4464POPC   C2B58496  18.915  31.459   6.671
 4464POPC   C3B58497  18.856  31.410   7.124
 4464POPC   C4B58498  19.108  31.177   7.445
 4465POPC   NC358499  11.914   5.646   5.425
 4465POPC   PO458500  11.771   6.198   5.633
 4465POPC   GL158501  12.010   5.977   5.885
 4465POPC   GL258502  12.079   5.613   5.908
 4465POPC   C1A58503  11.921   5.913   6.289
 4465POPC   D2A58504  12.266   5.926   6.509
 4465POPC   C3A58505  12.284   5.875   6.936
 4465POPC   C4A58506  12.259   5.704   7.346
 4465POPC   C1B58507  11.589   5.656   5.991
 4465POPC   C2B58508  11.481   5.660   6.444
 4465POPC   C3B58509  11.767   5.710   6.798
 4465POPC   C4B58510  11.825   5.959   7.174
 4466POPC   NC358511  23.380  25.073   5.569
 4466POPC   PO458512  23.119  25.729   5.508
 4466POPC   GL158513  22.881  25.402   5.825
 4466POPC   GL258514  22.595  25.136   5.758
 4466POPC   C1A58515  23.028  25.269   6.266
 4466POPC   D2A58516  23.205  25.422   6.710
 4466POPC   C3A58517  22.962  25.550   7.064
 4466POPC   C4A58518  22.742  25.404   7.396
 4466POPC   C1B58519  22.489  25.288   6.192
 4466POPC   C2B58520  22.665  25.250   6.621
 4466POPC   C3B58521  22.882  25.056   6.946
 4466POPC   C4B58522  22.700  24.863   7.289
 4467POPC   NC358523  35.430  43.473   5.444
 4467POPC   PO458524  35.451  42.847   5.384
 4467POPC   GL158525  35.391  43.093   5.794
 4467POPC   GL258526  35.076  43.267   5.895
 4467POPC   C1A58527  35.431  43.195   6.247
 4467POPC   D2A58528  35.200  43.264   6.626
 4467POPC   C3A58529  35.496  43.103   6.906
 4467POPC   C4A58530  35.515  42.880   7.290
 4467POPC   C1B58531  34.948  42.943   6.203
 4467POPC   C2B58532  34.923  42.810   6.661
 4467POPC   C3B58533  35.021  42.983   7.083
 4467POPC   C4B58534  35.099  42.961   7.564
 4468POPC   NC358535   5.472   5.916   5.492
 4468POPC   PO458536   6.108   5.987   5.423
 4468POPC   GL158537   5.916   6.012   5.791
 4468POPC   GL258538   5.807   5.696   5.817
 4468POPC   C1A58539   5.748   6.134   6.183
 4468POPC   D2A58540   5.903   5.943   6.552
 4468POPC   C3A58541   5.641   5.740   6.811
 4468POPC   C4A58542   5.355   5.783   7.149
 4468POPC   C1B58543   5.690   5.617   6.224
 4468POPC   C2B58544   5.930   5.399   6.532
 4468POPC   C3B58545   6.008   5.375   6.970
 4468POPC   C4B58546   5.839   5.656   7.273
 4469POPC   NC358547  38.129  11.058   5.155
 4469POPC   PO458548  38.367  11.640   5.367
 4469POPC   GL158549  38.197  11.323   5.761
 4469POPC   GL258550  38.456  11.079   5.913
 4469POPC   C1A58551  38.141  11.240   6.271
 4469POPC   D2A58552  38.290  11.063   6.703
 4469POPC   C3A58553  38.222  11.271   7.093
 4469POPC   C4A58554  38.223  11.590   7.400
 4469POPC   C1B58555  38.691  10.956   6.324
 4469POPC   C2B58556  38.820  11.008   6.759
 4469POPC   C3B58557  38.738  11.221   7.144
 4469POPC   C4B58558  38.499  11.128   7.510
 4470POPC   NC358559  36.949   9.933   5.118
 4470POPC   PO458560  36.755  10.501   5.317
 4470POPC   GL158561  36.627  10.506   5.769
 4470POPC   GL258562  36.969  10.570   5.915
 4470POPC   C1A58563  36.655  10.269   6.195
 4470POPC   D2A58564  36.570  10.430   6.625
 4470POPC   C3A58565  36.699  10.247   7.028
 4470POPC   C4A58566  36.525  10.535   7.330
 4470POPC   C1B58567  37.006  10.609   6.389
 4470POPC   C2B58568  37.081  10.570   6.826
 4470POPC   C3B58569  36.929  10.826   7.151
 4470POPC   C4B58570  37.047  10.872   7.586
 4471POPC   NC358571  24.640  23.804   5.543
 4471POPC   PO458572  24.162  23.373   5.573
 4471POPC   GL158573  24.481  23.488   5.900
 4471POPC   GL258574  24.861  23.436   5.850
 4471POPC   C1A58575  24.512  23.857   6.177
 4471POPC   D2A58576  24.237  23.946   6.489
 4471POPC   C3A58577  24.429  23.827   6.862
 4471POPC   C4A58578  24.242  23.794   7.220
 4471POPC   C1B58579  24.744  23.235   6.235
 4471POPC   C2B58580  24.558  23.443   6.549
 4471POPC   C3B58581  24.615  23.351   6.973
 4471POPC   C4B58582  24.761  23.648   7.213
 4472POPC   NC358583  17.392  39.041   5.500
 4472POPC   PO458584  17.949  39.355   5.445
 4472POPC   GL158585  17.705  39.341   5.831
 4472POPC   GL258586  17.362  39.516   5.750
 4472POPC   C1A58587  17.799  39.255   6.301
 4472POPC   D2A58588  17.707  39.371   6.755
 4472POPC   C3A58589  17.902  39.136   7.087
 4472POPC   C4A58590  17.881  38.934   7.509
 4472POPC   C1B58591  17.387  39.550   6.186
 4472POPC   C2B58592  17.279  39.246   6.511
 4472POPC   C3B58593  17.216  39.152   6.937
 4472POPC   C4B58594  17.460  39.286   7.288
 4473POPC   NC358595  19.833  23.016   5.354
 4473POPC   PO458596  20.026  23.366   5.834
 4473POPC   GL158597  19.843  22.885   5.855
 4473POPC   GL258598  19.480  22.751   5.775
 4473POPC   C1A58599  19.890  22.715   6.257
 4473POPC   D2A58600  19.970  23.114   6.433
 4473POPC   C3A58601  19.938  23.160   6.873
 4473POPC   C4A58602  20.026  22.864   7.190
 4473POPC   C1B58603  19.401  22.890   6.211
 4473POPC   C2B58604  19.556  22.889   6.637
 4473POPC   C3B58605  19.517  22.847   7.057
 4473POPC   C4B58606  19.592  22.611   7.402
 4474POPC   NC358607  35.529  28.346   5.335
 4474POPC   PO458608  34.931  28.185   5.668
 4474POPC   GL158609  35.184  28.211   6.027
 4474POPC   GL258610  35.468  28.309   5.863
 4474POPC   C1A58611  35.514  28.189   6.369
 4474POPC   D2A58612  35.525  28.332   6.800
 4474POPC   C3A58613  35.267  28.159   7.105
 4474POPC   C4A58614  35.346  28.165   7.541
 4474POPC   C1B58615  35.417  28.642   6.185
 4474POPC   C2B58616  35.409  28.890   6.569
 4474POPC   C3B58617  35.653  28.806   6.944
 4474POPC   C4B58618  35.528  28.571   7.314
 4475POPC   NC358619  13.599  16.240   5.492
 4475POPC   PO458620  13.394  16.913   5.420
 4475POPC   GL158621  13.462  16.702   5.788
 4475POPC   GL258622  13.798  16.777   5.937
 4475POPC   C1A58623  13.423  16.529   6.199
 4475POPC   D2A58624  13.548  16.460   6.612
 4475POPC   C3A58625  13.320  16.593   6.975
 4475POPC   C4A58626  13.441  16.738   7.372
 4475POPC   C1B58627  13.958  16.502   6.289
 4475POPC   C2B58628  14.037  16.567   6.747
 4475POPC   C3B58629  13.799  16.467   7.149
 4475POPC   C4B58630  13.777  16.464   7.628
 4476POPC   NC358631  39.827  33.957   5.298
 4476POPC   PO458632  40.112  33.475   5.154
 4476POPC   GL158633  39.970  33.626   5.633
 4476POPC   GL258634  40.262  33.830   5.684
 4476POPC   C1A58635  39.889  33.792   6.066
 4476POPC   D2A58636  40.123  33.697   6.448
 4476POPC   C3A58637  40.106  33.737   6.884
 4476POPC   C4A58638  39.800  33.632   7.165
 4476POPC   C1B58639  40.388  33.947   6.101
 4476POPC   C2B58640  40.143  34.201   6.414
 4476POPC   C3B58641  40.171  34.272   6.835
 4476POPC   C4B58642  40.203  34.110   7.233
 4477POPC   NC358643  23.673  17.420   5.323
 4477POPC   PO458644  23.927  18.026   5.380
 4477POPC   GL158645  23.873  17.695   5.737
 4477POPC   GL258646  23.801  17.307   5.796
 4477POPC   C1A58647  23.763  17.714   6.180
 4477POPC   D2A58648  23.631  17.439   6.512
 4477POPC   C3A58649  23.592  17.640   6.892
 4477POPC   C4A58650  23.959  17.766   7.081
 4477POPC   C1B58651  24.062  17.023   6.044
 4477POPC   C2B58652  23.994  17.044   6.479
 4477POPC   C3B58653  24.031  17.333   6.823
 4477POPC   C4B58654  24.162  17.314   7.243
 4478POPC   NC358655  29.711  23.247   5.384
 4478POPC   PO458656  30.330  22.916   5.286
 4478POPC   GL158657  30.119  23.039   5.687
 4478POPC   GL258658  29.775  22.907   5.758
 4478POPC   C1A58659  30.136  22.900   6.148
 4478POPC   D2A58660  30.057  22.617   6.525
 4478POPC   C3A58661  30.109  22.841   6.925
 4478POPC   C4A58662  30.349  23.192   7.101
 4478POPC   C1B58663  29.690  22.642   6.107
 4478POPC   C2B58664  29.577  22.775   6.519
 4478POPC   C3B58665  29.640  22.647   6.923
 4478POPC   C4B58666  29.582  22.811   7.313
 4479POPC   NC358667  14.744  25.401   5.527
 4479POPC   PO458668  15.404  25.180   5.266
 4479POPC   GL158669  15.477  25.379   5.715
 4479POPC   GL258670  15.143  25.419   5.846
 4479POPC   C1A58671  15.513  25.251   6.171
 4479POPC   D2A58672  15.261  24.994   6.477
 4479POPC   C3A58673  15.227  25.131   6.914
 4479POPC   C4A58674  15.032  25.104   7.316
 4479POPC   C1B58675  14.998  25.374   6.273
 4479POPC   C2B58676  15.122  25.561   6.674
 4479POPC   C3B58677  14.964  25.567   7.111
 4479POPC   C4B58678  14.991  25.530   7.612
 4480POPC   NC358679  36.185  38.998   5.580
 4480POPC   PO458680  35.786  39.491   5.320
 4480POPC   GL158681  35.993  39.444   5.737
 4480POPC   GL258682  36.311  39.619   5.712
 4480POPC   C1A58683  35.962  39.294   6.170
 4480POPC   D2A58684  36.219  39.124   6.533
 4480POPC   C3A58685  36.223  39.303   6.957
 4480POPC   C4A58686  36.132  39.175   7.400
 4480POPC   C1B58687  36.435  39.459   6.120
 4480POPC   C2B58688  36.513  39.581   6.537
 4480POPC   C3B58689  36.689  39.553   6.958
 4480POPC   C4B58690  36.617  39.296   7.314
 4481POPC   NC358691  43.170  32.653   5.381
 4481POPC   PO458692  43.248  32.022   5.399
 4481POPC   GL158693  43.089  32.217   5.763
 4481POPC   GL258694  42.862  32.486   5.738
 4481POPC   C1A58695  42.948  32.283   6.203
 4481POPC   D2A58696  43.164  32.136   6.586
 4481POPC   C3A58697  43.034  32.259   6.960
 4481POPC   C4A58698  43.253  32.380   7.314
 4481POPC   C1B58699  43.232  32.671   6.027
 4481POPC   C2B58700  43.186  32.689   6.488
 4481POPC   C3B58701  43.340  32.680   6.924
 4481POPC   C4B58702  43.579  32.769   7.297
 4482POPC   NC358703   6.980  29.609   5.500
 4482POPC   PO458704   6.542  30.006   5.236
 4482POPC   GL158705   6.539  29.812   5.687
 4482POPC   GL258706   6.489  30.044   5.965
 4482POPC   C1A58707   6.781  29.673   6.100
 4482POPC   D2A58708   6.615  29.600   6.486
 4482POPC   C3A58709   6.825  29.795   6.824
 4482POPC   C4A58710   6.705  29.722   7.251
 4482POPC   C1B58711   6.756  30.135   6.345
 4482POPC   C2B58712   6.598  30.328   6.703
 4482POPC   C3B58713   6.534  30.176   7.094
 4482POPC   C4B58714   6.686  30.337   7.455
 4483POPC   NC358715  34.969  15.085   5.325
 4483POPC   PO458716  34.416  15.453   5.384
 4483POPC   GL158717  34.557  15.128   5.702
 4483POPC   GL258718  34.810  15.343   5.761
 4483POPC   C1A58719  34.706  14.996   6.157
 4483POPC   D2A58720  34.795  15.133   6.622
 4483POPC   C3A58721  34.561  15.089   7.027
 4483POPC   C4A58722  34.297  15.423   7.241
 4483POPC   C1B58723  34.962  15.421   6.172
 4483POPC   C2B58724  34.867  15.632   6.563
 4483POPC   C3B58725  34.763  15.541   6.971
 4483POPC   C4B58726  35.041  15.219   7.133
 4484POPC   NC358727  23.748  35.400   5.369
 4484POPC   PO458728  23.162  35.595   5.621
 4484POPC   GL158729  23.537  35.446   5.853
 4484POPC   GL258730  23.908  35.605   5.808
 4484POPC   C1A58731  23.508  35.243   6.273
 4484POPC   D2A58732  23.452  35.441   6.685
 4484POPC   C3A58733  23.470  35.190   7.060
 4484POPC   C4A58734  23.839  35.056   7.299
 4484POPC   C1B58735  23.906  35.566   6.233
 4484POPC   C2B58736  23.948  35.279   6.564
 4484POPC   C3B58737  23.904  35.437   6.954
 4484POPC   C4B58738  23.999  35.564   7.357
 4485POPC   NC358739  10.483  30.191   5.669
 4485POPC   PO458740  10.332  29.600   5.419
 4485POPC   GL158741  10.443  29.719   5.836
 4485POPC   GL258742  10.121  29.828   5.947
 4485POPC   C1A58743  10.741  29.692   6.209
 4485POPC   D2A58744  10.844  30.022   6.521
 4485POPC   C3A58745  10.515  30.091   6.820
 4485POPC   C4A58746  10.539  30.115   7.254
 4485POPC   C1B58747  10.264  30.050   6.334
 4485POPC   C2B58748  10.067  30.391   6.608
 4485POPC   C3B58749  10.176  30.414   7.014
 4485POPC   C4B58750  10.058  30.030   7.247
 4486POPC   NC358751  13.603  22.610   5.475
 4486POPC   PO458752  13.186  22.105   5.251
 4486POPC   GL158753  13.340  21.962   5.711
 4486POPC   GL258754  13.718  21.887   5.690
 4486POPC   C1A58755  13.370  22.136   6.184
 4486POPC   D2A58756  13.327  22.400   6.610
 4486POPC   C3A58757  13.291  22.177   7.047
 4486POPC   C4A58758  13.339  21.816   7.358
 4486POPC   C1B58759  13.848  21.904   6.144
 4486POPC   C2B58760  13.737  22.059   6.559
 4486POPC   C3B58761  13.694  21.856   6.947
 4486POPC   C4B58762  13.914  22.044   7.260
 4487POPC   NC358763  18.321  18.715   5.185
 4487POPC   PO458764  18.156  18.137   5.209
 4487POPC   GL158765  18.173  18.193   5.695
 4487POPC   GL258766  18.109  18.529   5.840
 4487POPC   C1A58767  18.215  18.149   6.189
 4487POPC   D2A58768  18.245  18.344   6.639
 4487POPC   C3A58769  18.372  18.189   7.079
 4487POPC   C4A58770  18.226  18.243   7.497
 4487POPC   C1B58771  17.880  18.596   6.262
 4487POPC   C2B58772  17.739  18.544   6.721
 4487POPC   C3B58773  18.033  18.574   7.062
 4487POPC   C4B58774  18.463  18.707   7.035
 4488POPC   NC358775  32.853   7.647   5.403
 4488POPC   PO458776  33.454   7.433   5.241
 4488POPC   GL158777  33.235   7.643   5.723
 4488POPC   GL258778  32.994   7.460   5.925
 4488POPC   C1A58779  32.990   7.879   6.146
 4488POPC   D2A58780  32.856   7.717   6.529
 4488POPC   C3A58781  32.983   7.785   6.927
 4488POPC   C4A58782  32.795   7.701   7.331
 4488POPC   C1B58783  32.849   7.158   6.235
 4488POPC   C2B58784  32.936   7.081   6.646
 4488POPC   C3B58785  32.958   7.254   7.027
 4488POPC   C4B58786  33.075   7.046   7.374
 4489POPC   NC358787   8.187  32.400   5.136
 4489POPC   PO458788   8.309  32.192   5.760
 4489POPC   GL158789   8.016  32.257   6.020
 4489POPC   GL258790   7.778  32.007   5.931
 4489POPC   C1A58791   8.173  32.266   6.442
 4489POPC   D2A58792   8.029  32.250   6.840
 4489POPC   C3A58793   8.243  32.251   7.231
 4489POPC   C4A58794   8.244  32.581   7.522
 4489POPC   C1B58795   7.697  32.125   6.389
 4489POPC   C2B58796   7.771  31.840   6.715
 4489POPC   C3B58797   7.779  31.957   7.184
 4489POPC   C4B58798   7.954  31.923   7.641
 4490POPC   NC358799  38.592   3.727   5.311
 4490POPC   PO458800  38.122   3.300   5.503
 4490POPC   GL158801  38.270   3.447   5.850
 4490POPC   GL258802  38.611   3.464   5.774
 4490POPC   C1A58803  38.238   3.412   6.291
 4490POPC   D2A58804  38.368   3.694   6.593
 4490POPC   C3A58805  38.209   3.706   7.015
 4490POPC   C4A58806  38.410   3.625   7.410
 4490POPC   C1B58807  38.737   3.502   6.217
 4490POPC   C2B58808  38.705   3.309   6.636
 4490POPC   C3B58809  38.707   3.577   6.980
 4490POPC   C4B58810  38.916   3.655   7.347
 4491POPC   NC358811   5.089  42.633   5.248
 4491POPC   PO458812   5.197  42.024   5.357
 4491POPC   GL158813   5.208  42.368   5.691
 4491POPC   GL258814   4.881  42.442   5.811
 4491POPC   C1A58815   5.443  42.427   6.093
 4491POPC   D2A58816   5.341  42.311   6.520
 4491POPC   C3A58817   5.617  42.206   6.854
 4491POPC   C4A58818   5.510  42.315   7.250
 4491POPC   C1B58819   5.002  42.608   6.245
 4491POPC   C2B58820   4.960  42.597   6.677
 4491POPC   C3B58821   5.021  42.590   7.098
 4491POPC   C4B58822   4.972  42.894   7.363
 4492POPC   NC358823  27.318   3.647   5.329
 4492POPC   PO458824  27.759   3.263   5.476
 4492POPC   GL158825  27.557   3.508   5.762
 4492POPC   GL258826  27.396   3.257   5.868
 4492POPC   C1A58827  27.484   3.644   6.198
 4492POPC   D2A58828  27.664   3.525   6.579
 4492POPC   C3A58829  27.453   3.611   6.971
 4492POPC   C4A58830  27.423   3.756   7.410
 4492POPC   C1B58831  27.730   3.187   6.169
 4492POPC   C2B58832  27.721   3.012   6.599
 4492POPC   C3B58833  27.755   3.143   7.050
 4492POPC   C4B58834  27.841   3.476   7.354
 4493POPC   NC358835  21.741  20.996   5.201
 4493POPC   PO458836  21.315  20.441   5.311
 4493POPC   GL158837  21.365  20.751   5.666
 4493POPC   GL258838  21.186  20.469   5.821
 4493POPC   C1A58839  21.184  20.905   6.072
 4493POPC   D2A58840  21.346  20.744   6.462
 4493POPC   C3A58841  21.098  20.652   6.794
 4493POPC   C4A58842  21.258  20.650   7.171
 4493POPC   C1B58843  20.983  20.466   6.244
 4493POPC   C2B58844  21.105  20.190   6.570
 4493POPC   C3B58845  21.193  20.168   7.019
 4493POPC   C4B58846  20.992  20.327   7.437
 4494POPC   NC358847   5.497  18.305   5.521
 4494POPC   PO458848   6.191  18.088   5.349
 4494POPC   GL158849   5.933  18.109   5.706
 4494POPC   GL258850   5.949  18.462   5.761
 4494POPC   C1A58851   5.636  18.059   6.093
 4494POPC   D2A58852   5.550  18.219   6.487
 4494POPC   C3A58853   5.893  18.260   6.747
 4494POPC   C4A58854   5.884  18.330   7.181
 4494POPC   C1B58855   6.122  18.292   6.151
 4494POPC   C2B58856   6.336  18.478   6.495
 4494POPC   C3B58857   6.289  18.560   6.885
 4494POPC   C4B58858   6.377  18.244   7.194
 4495POPC   NC358859   4.104   9.716   4.994
 4495POPC   PO458860   4.504   9.291   5.324
 4495POPC   GL158861   4.240   9.556   5.622
 4495POPC   GL258862   4.472   9.765   5.834
 4495POPC   C1A58863   4.026   9.610   6.043
 4495POPC   D2A58864   4.104   9.810   6.457
 4495POPC   C3A58865   3.769   9.752   6.757
 4495POPC   C4A58866   3.768   9.583   7.155
 4495POPC   C1B58867   4.498   9.520   6.249
 4495POPC   C2B58868   4.600   9.408   6.664
 4495POPC   C3B58869   4.282   9.589   6.924
 4495POPC   C4B58870   4.154  10.024   6.963
 4496POPC   NC358871   7.764  15.450   5.559
 4496POPC   PO458872   8.017  16.033   5.431
 4496POPC   GL158873   8.250  15.980   5.826
 4496POPC   GL258874   8.441  15.669   5.781
 4496POPC   C1A58875   8.179  16.148   6.283
 4496POPC   D2A58876   7.861  16.295   6.635
 4496POPC   C3A58877   7.816  16.037   7.044
 4496POPC   C4A58878   7.994  16.176   7.466
 4496POPC   C1B58879   8.192  15.625   6.195
 4496POPC   C2B58880   8.028  15.774   6.614
 4496POPC   C3B58881   8.233  15.753   7.022
 4496POPC   C4B58882   8.384  15.840   7.425
 4497POPC   NC358883  25.335  28.132   5.404
 4497POPC   PO458884  25.090  28.720   5.459
 4497POPC   GL158885  25.017  28.482   5.857
 4497POPC   GL258886  24.990  28.100   5.836
 4497POPC   C1A58887  25.081  28.518   6.322
 4497POPC   D2A58888  24.874  28.485   6.718
 4497POPC   C3A58889  25.222  28.623   6.962
 4497POPC   C4A58890  25.501  28.861   7.187
 4497POPC   C1B58891  25.290  28.064   6.219
 4497POPC   C2B58892  25.298  28.185   6.674
 4497POPC   C3B58893  25.144  28.157   7.103
 4497POPC   C4B58894  25.281  28.127   7.567
 4498POPC   NC358895  28.583  35.052   5.128
 4498POPC   PO458896  28.130  34.518   5.358
 4498POPC   GL158897  28.350  34.604   5.738
 4498POPC   GL258898  28.027  34.655   5.854
 4498POPC   C1A58899  28.398  34.452   6.173
 4498POPC   D2A58900  28.635  34.311   6.557
 4498POPC   C3A58901  28.465  34.470   6.952
 4498POPC   C4A58902  28.102  34.508   7.220
 4498POPC   C1B58903  28.005  34.844   6.208
 4498POPC   C2B58904  28.180  34.729   6.567
 4498POPC   C3B58905  28.196  34.916   6.930
 4498POPC   C4B58906  27.973  34.999   7.275
 4499POPC   NC358907  21.532  43.725   5.418
 4499POPC   PO458908  21.394  43.015   5.380
 4499POPC   GL158909  21.289  43.092   5.755
 4499POPC   GL258910  21.203  43.439   5.714
 4499POPC   C1A58911  21.292  42.893   6.164
 4499POPC   D2A58912  21.444  42.916   6.578
 4499POPC   C3A58913  21.143  42.859   6.928
 4499POPC   C4A58914  21.006  43.011   7.334
 4499POPC   C1B58915  21.437  43.421   6.115
 4499POPC   C2B58916  21.596  43.430   6.543
 4499POPC   C3B58917  21.477  43.288   6.947
 4499POPC   C4B58918  21.338  43.524   7.274
 4500POPC   NC358919   0.798  23.322   5.368
 4500POPC   PO458920   1.355  23.796   5.382
 4500POPC   GL158921   1.085  23.723   5.787
 4500POPC   GL258922   0.926  23.408   5.854
 4500POPC   C1A58923   1.060  23.638   6.289
 4500POPC   D2A58924   1.232  23.571   6.726
 4500POPC   C3A58925   1.243  23.897   7.054
 4500POPC   C4A58926   0.942  24.032   7.368
 4500POPC   C1B58927   0.657  23.320   6.238
 4500POPC   C2B58928   0.769  23.317   6.708
 4500POPC   C3B58929   0.868  23.556   7.104
 4500POPC   C4B58930   0.961  23.562   7.588
 4501POPC   NC358931  33.503  22.878   5.383
 4501POPC   PO458932  33.997  22.248   5.304
 4501POPC   GL158933  34.020  22.279   5.760
 4501POPC   GL258934  33.726  22.179   5.859
 4501POPC   C1A58935  34.009  22.280   6.251
 4501POPC   D2A58936  33.734  22.233   6.624
 4501POPC   C3A58937  33.988  22.247   6.977
 4501POPC   C4A58938  34.007  22.032   7.360
 4501POPC   C1B58939  33.541  21.991   6.222
 4501POPC   C2B58940  33.624  21.685   6.565
 4501POPC   C3B58941  33.472  21.667   6.971
 4501POPC   C4B58942  33.531  22.065   7.084
 4502POPC   NC358943  43.285  31.592   5.267
 4502POPC   PO458944  42.881  31.058   5.323
 4502POPC   GL158945  43.128  31.287   5.635
 4502POPC   GL258946  42.991  31.648   5.694
 4502POPC   C1A58947  43.243  31.324   6.064
 4502POPC   D2A58948  43.334  31.242   6.495
 4502POPC   C3A58949  43.025  31.255   6.800
 4502POPC   C4A58950  43.150  31.388   7.190
 4502POPC   C1B58951  43.178  31.824   6.091
 4502POPC   C2B58952  43.035  31.660   6.473
 4502POPC   C3B58953  42.937  31.754   6.891
 4502POPC   C4B58954  43.221  31.880   7.247
 4503POPC   NC358955   0.629  43.402   5.486
 4503POPC   PO458956   0.368  42.853   5.479
 4503POPC   GL158957   0.651  42.918   5.860
 4503POPC   GL258958   0.526  43.223   5.963
 4503POPC   C1A58959   0.613  42.932   6.349
 4503POPC   D2A58960   0.236  43.202   6.485
 4503POPC   C3A58961   0.188  43.185   6.935
 4503POPC   C4A58962   0.473  43.019   7.233
 4503POPC   C1B58963   0.638  43.485   6.345
 4503POPC   C2B58964   0.545  43.528   6.778
 4503POPC   C3B58965   0.487  43.523   7.225
 4503POPC   C4B58966   0.427  43.344   7.632
 4504POPC   NC358967  23.650  37.406   5.161
 4504POPC   PO458968  24.069  37.764   5.592
 4504POPC   GL158969  23.865  37.439   5.857
 4504POPC   GL258970  23.541  37.369   5.683
 4504POPC   C1A58971  24.005  37.395   6.283
 4504POPC   D2A58972  23.922  37.676   6.604
 4504POPC   C3A58973  23.871  37.514   7.005
 4504POPC   C4A58974  23.712  37.744   7.328
 4504POPC   C1B58975  23.383  37.680   5.996
 4504POPC   C2B58976  23.374  37.832   6.439
 4504POPC   C3B58977  23.427  37.877   6.910
 4504POPC   C4B58978  23.209  37.869   7.372
 4505POPC   NC358979   7.124  10.081   5.166
 4505POPC   PO458980   7.704   9.837   5.420
 4505POPC   GL158981   7.484   9.758   5.799
 4505POPC   GL258982   7.161   9.906   5.726
 4505POPC   C1A58983   7.596   9.586   6.229
 4505POPC   D2A58984   7.398   9.357   6.575
 4505POPC   C3A58985   7.635   9.425   6.952
 4505POPC   C4A58986   7.639   9.718   7.288
 4505POPC   C1B58987   7.115   9.715   6.157
 4505POPC   C2B58988   7.039   9.724   6.621
 4505POPC   C3B58989   7.180   9.763   7.058
 4505POPC   C4B58990   7.232   9.924   7.501
 4506POPC   NC358991  18.867  37.248   5.377
 4506POPC   PO458992  19.120  36.569   5.457
 4506POPC   GL158993  19.177  36.883   5.799
 4506POPC   GL258994  18.833  36.942   5.827
 4506POPC   C1A58995  19.140  36.800   6.268
 4506POPC   D2A58996  19.137  36.563   6.667
 4506POPC   C3A58997  19.353  36.835   6.977
 4506POPC   C4A58998  19.317  36.848   7.434
 4506POPC   C1B58999  18.634  36.760   6.227
 4506POPC   C2B59000  18.668  36.754   6.696
 4506POPC   C3B59001  18.820  37.011   7.038
 4506POPC   C4B59002  18.805  37.476   7.037
 4507POPC   NC359003  24.110  37.313   5.430
 4507POPC   PO459004  23.606  36.956   5.370
 4507POPC   GL159005  23.816  36.927   5.735
 4507POPC   GL259006  23.478  36.902   5.907
 4507POPC   C1A59007  23.946  36.886   6.168
 4507POPC   D2A59008  23.832  36.999   6.599
 4507POPC   C3A59009  23.667  36.703   6.897
 4507POPC   C4A59010  23.883  36.825   7.253
 4507POPC   C1B59011  23.533  37.224   6.211
 4507POPC   C2B59012  23.498  37.390   6.653
 4507POPC   C3B59013  23.508  37.154   7.034
 4507POPC   C4B59014  23.321  36.820   7.316
 4508POPC   NC359015  20.844  30.419   5.611
 4508POPC   PO459016  21.220  30.794   5.167
 4508POPC   GL159017  21.283  30.712   5.634
 4508POPC   GL259018  21.026  30.969   5.668
 4508POPC   C1A59019  21.534  30.599   6.045
 4508POPC   D2A59020  21.649  30.752   6.497
 4508POPC   C3A59021  21.680  30.536   6.918
 4508POPC   C4A59022  21.444  30.774   7.218
 4508POPC   C1B59023  21.058  30.821   6.098
 4508POPC   C2B59024  21.158  30.536   6.419
 4508POPC   C3B59025  21.153  30.545   6.862
 4508POPC   C4B59026  21.222  30.311   7.239
 4509POPC   NC359027  36.490   7.673   5.549
 4509POPC   PO459028  35.883   7.268   5.448
 4509POPC   GL159029  36.038   7.462   5.825
 4509POPC   GL259030  36.355   7.293   5.880
 4509POPC   C1A59031  36.161   7.563   6.262
 4509POPC   D2A59032  36.230   7.358   6.663
 4509POPC   C3A59033  36.234   7.540   7.074
 4509POPC   C4A59034  35.986   7.809   7.378
 4509POPC   C1B59035  36.548   7.076   6.222
 4509POPC   C2B59036  36.677   7.157   6.640
 4509POPC   C3B59037  36.450   7.046   7.003
 4509POPC   C4B59038  36.491   7.190   7.416
 4510POPC   NC359039  42.785  17.872   5.621
 4510POPC   PO459040  43.371  17.552   5.217
 4510POPC   GL159041  43.193  17.575   5.616
 4510POPC   GL259042  43.278  17.924   5.741
 4510POPC   C1A59043  43.026  17.396   6.008
 4510POPC   D2A59044  42.896  17.472   6.452
 4510POPC   C3A59045  43.137  17.538   6.819
 4510POPC   C4A59046  43.044  17.455   7.249
 4510POPC   C1B59047  43.182  17.852   6.198
 4510POPC   C2B59048  43.292  17.983   6.616
 4510POPC   C3B59049  43.549  17.816   6.985
 4510POPC   C4B59050  43.404  17.777   7.440
 4511POPC   NC359051  10.163  36.137   5.425
 4511POPC   PO459052   9.486  36.254   5.574
 4511POPC   GL159053   9.796  36.004   5.858
 4511POPC   GL259054  10.185  35.925   5.869
 4511POPC   C1A59055   9.751  35.918   6.318
 4511POPC   D2A59056   9.468  36.027   6.675
 4511POPC   C3A59057   9.619  36.317   6.997
 4511POPC   C4A59058   9.883  36.380   7.387
 4511POPC   C1B59059  10.373  35.605   6.092
 4511POPC   C2B59060  10.117  35.533   6.437
 4511POPC   C3B59061  10.026  35.832   6.777
 4511POPC   C4B59062   9.873  35.884   7.195
 4512POPC   NC359063  24.447  29.422   4.945
 4512POPC   PO459064  24.472  30.058   5.290
 4512POPC   GL159065  24.343  30.079   5.728
 4512POPC   GL259066  24.317  29.730   5.817
 4512POPC   C1A59067  24.464  30.028   6.193
 4512POPC   D2A59068  24.608  29.768   6.532
 4512POPC   C3A59069  24.542  29.911   6.956
 4512POPC   C4A59070  24.654  30.212   7.264
 4512POPC   C1B59071  24.168  29.608   6.255
 4512POPC   C2B59072  24.146  29.579   6.727
 4512POPC   C3B59073  24.236  29.537   7.164
 4512POPC   C4B59074  24.455  29.744   7.489
 4513POPC   NC359075  24.631  28.784   5.430
 4513POPC   PO459076  24.248  29.411   5.383
 4513POPC   GL159077  24.475  29.247   5.723
 4513POPC   GL259078  24.404  28.924   5.881
 4513POPC   C1A59079  24.633  29.411   6.107
 4513POPC   D2A59080  24.479  29.256   6.490
 4513POPC   C3A59081  24.651  29.376   6.877
 4513POPC   C4A59082  24.721  29.360   7.299
 4513POPC   C1B59083  24.348  28.743   6.316
 4513POPC   C2B59084  24.463  28.830   6.756
 4513POPC   C3B59085  24.367  28.986   7.142
 4513POPC   C4B59086  24.136  28.750   7.462
 4514POPC   NC359087   7.540  22.979   5.458
 4514POPC   PO459088   7.272  22.316   5.401
 4514POPC   GL159089   7.506  22.466   5.754
 4514POPC   GL259090   7.355  22.778   5.903
 4514POPC   C1A59091   7.734  22.567   6.142
 4514POPC   D2A59092   7.956  22.609   6.534
 4514POPC   C3A59093   7.705  22.622   6.884
 4514POPC   C4A59094   7.689  22.998   7.141
 4514POPC   C1B59095   7.532  23.008   6.302
 4514POPC   C2B59096   7.389  23.028   6.740
 4514POPC   C3B59097   7.211  23.187   7.150
 4514POPC   C4B59098   6.892  23.026   7.457
 4515POPC   NC359099  32.796  39.209   5.302
 4515POPC   PO459100  33.181  38.761   5.298
 4515POPC   GL159101  32.934  38.939   5.707
 4515POPC   GL259102  32.851  39.306   5.807
 4515POPC   C1A59103  33.034  38.979   6.154
 4515POPC   D2A59104  33.174  39.128   6.543
 4515POPC   C3A59105  32.912  39.214   6.877
 4515POPC   C4A59106  32.764  39.187   7.284
 4515POPC   C1B59107  33.167  39.476   6.109
 4515POPC   C2B59108  33.259  39.636   6.517
 4515POPC   C3B59109  33.347  39.486   6.902
 4515POPC   C4B59110  33.209  39.450   7.288
 4516POPC   NC359111   1.403  34.222   5.077
 4516POPC   PO459112   1.645  34.479   5.511
 4516POPC   GL159113   1.363  34.605   5.882
 4516POPC   GL259114   1.096  34.369   5.941
 4516POPC   C1A59115   1.177  34.773   6.317
 4516POPC   D2A59116   1.395  34.976   6.711
 4516POPC   C3A59117   1.269  34.811   7.131
 4516POPC   C4A59118   1.436  34.682   7.542
 4516POPC   C1B59119   1.389  34.299   6.295
 4516POPC   C2B59120   1.460  34.476   6.707
 4516POPC   C3B59121   1.588  34.398   7.129
 4516POPC   C4B59122   1.558  34.169   7.531
 4517POPC   NC359123  30.302  18.776   5.390
 4517POPC   PO459124  29.827  19.155   5.172
 4517POPC   GL159125  29.754  19.095   5.666
 4517POPC   GL259126  29.937  18.808   5.769
 4517POPC   C1A59127  29.631  18.994   6.130
 4517POPC   D2A59128  29.783  19.150   6.534
 4517POPC   C3A59129  29.724  18.936   6.934
 4517POPC   C4A59130  29.801  19.008   7.354
 4517POPC   C1B59131  30.115  18.838   6.219
 4517POPC   C2B59132  30.158  18.808   6.677
 4517POPC   C3B59133  30.246  19.006   7.055
 4517POPC   C4B59134  30.283  18.918   7.497
 4518POPC   NC359135  37.559  16.101   5.259
 4518POPC   PO459136  38.173  16.319   5.331
 4518POPC   GL159137  37.873  16.097   5.685
 4518POPC   GL259138  37.493  15.965   5.770
 4518POPC   C1A59139  37.777  16.072   6.163
 4518POPC   D2A59140  37.458  15.995   6.493
 4518POPC   C3A59141  37.609  15.877   6.882
 4518POPC   C4A59142  37.604  16.004   7.306
 4518POPC   C1B59143  37.312  15.663   6.147
 4518POPC   C2B59144  37.280  15.525   6.651
 4518POPC   C3B59145  37.320  15.546   7.139
 4518POPC   C4B59146  37.358  15.667   7.614
 4519POPC   NC359147  20.713  44.130   5.296
 4519POPC   PO459148  20.748  43.536   5.480
 4519POPC   GL159149  20.524  43.860   5.751
 4519POPC   GL259150  20.658  44.193   5.799
 4519POPC   C1A59151  20.475  43.875   6.216
 4519POPC   D2A59152  20.760  43.691   6.555
 4519POPC   C3A59153  20.717  43.819   6.975
 4519POPC   C4A59154  20.390  43.756   7.221
 4519POPC   C1B59155  20.291  44.318   6.004
 4519POPC   C2B59156  20.287  44.350   6.429
 4519POPC   C3B59157  20.342  44.132   6.798
 4519POPC   C4B59158  20.375  44.257   7.210
 4520POPC   NC359159  26.325  28.988   5.612
 4520POPC   PO459160  25.814  29.193   5.276
 4520POPC   GL159161  25.963  29.313   5.756
 4520POPC   GL259162  26.316  29.364   5.945
 4520POPC   C1A59163  25.982  29.088   6.194
 4520POPC   D2A59164  25.835  29.163   6.600
 4520POPC   C3A59165  25.956  28.984   6.970
 4520POPC   C4A59166  25.823  29.279   7.279
 4520POPC   C1B59167  26.490  29.097   6.255
 4520POPC   C2B59168  26.365  28.979   6.651
 4520POPC   C3B59169  26.476  28.922   7.061
 4520POPC   C4B59170  26.317  29.123   7.372
 4521POPC   NC359171  18.507   8.707   5.459
 4521POPC   PO459172  18.145   8.200   5.157
 4521POPC   GL159173  18.167   8.378   5.625
 4521POPC   GL259174  18.512   8.308   5.822
 4521POPC   C1A59175  18.132   8.458   6.083
 4521POPC   D2A59176  18.198   8.569   6.486
 4521POPC   C3A59177  17.931   8.437   6.774
 4521POPC   C4A59178  18.164   8.257   7.097
 4521POPC   C1B59179  18.609   8.162   6.257
 4521POPC   C2B59180  18.428   8.108   6.675
 4521POPC   C3B59181  18.649   8.132   7.065
 4521POPC   C4B59182  18.843   8.174   7.462
 4522POPC   NC359183  25.680  17.995   5.460
 4522POPC   PO459184  26.186  18.428   5.344
 4522POPC   GL159185  26.022  18.400   5.768
 4522POPC   GL259186  25.881  18.695   5.880
 4522POPC   C1A59187  26.205  18.395   6.204
 4522POPC   D2A59188  26.363  18.289   6.631
 4522POPC   C3A59189  26.196  18.108   7.021
 4522POPC   C4A59190  26.265  18.053   7.490
 4522POPC   C1B59191  25.649  18.750   6.263
 4522POPC   C2B59192  25.890  18.553   6.583
 4522POPC   C3B59193  25.814  18.441   6.968
 4522POPC   C4B59194  25.591  18.662   7.267
 4523POPC   NC359195   5.629  42.256   5.413
 4523POPC   PO459196   6.164  41.980   5.521
 4523POPC   GL159197   6.071  42.396   5.697
 4523POPC   GL259198   5.855  42.212   5.901
 4523POPC   C1A59199   6.020  42.638   6.104
 4523POPC   D2A59200   5.794  42.543   6.488
 4523POPC   C3A59201   5.939  42.610   6.916
 4523POPC   C4A59202   5.996  42.398   7.253
 4523POPC   C1B59203   6.123  42.184   6.291
 4523POPC   C2B59204   6.144  42.166   6.757
 4523POPC   C3B59205   6.030  41.918   7.137
 4523POPC   C4B59206   6.101  42.026   7.601
 4524POPC   NC359207  18.726  35.414   5.487
 4524POPC   PO459208  19.385  35.213   5.457
 4524POPC   GL159209  19.073  35.190   5.845
 4524POPC   GL259210  18.676  35.150   5.911
 4524POPC   C1A59211  18.961  35.396   6.256
 4524POPC   D2A59212  19.212  35.509   6.613
 4524POPC   C3A59213  19.158  35.345   7.022
 4524POPC   C4A59214  19.309  35.641   7.335
 4524POPC   C1B59215  18.464  35.546   6.131
 4524POPC   C2B59216  18.643  35.765   6.504
 4524POPC   C3B59217  18.830  35.745   6.927
 4524POPC   C4B59218  18.791  35.518   7.336
 4525POPC   NC359219  17.748  25.672   5.400
 4525POPC   PO459220  17.303  25.198   5.543
 4525POPC   GL159221  17.452  25.215   5.931
 4525POPC   GL259222  17.391  25.543   5.923
 4525POPC   C1A59223  17.497  25.279   6.374
 4525POPC   D2A59224  17.742  25.289   6.692
 4525POPC   C3A59225  17.583  25.004   6.980
 4525POPC   C4A59226  17.593  25.056   7.407
 4525POPC   C1B59227  17.323  25.738   6.291
 4525POPC   C2B59228  17.215  25.621   6.702
 4525POPC   C3B59229  17.481  25.521   7.052
 4525POPC   C4B59230  17.431  25.522   7.506
 4526POPC   NC359231   0.210  19.181   5.090
 4526POPC   PO459232  44.630  19.285   5.535
 4526POPC   GL159233  44.681  18.999   5.832
 4526POPC   GL259234  44.956  19.153   6.012
 4526POPC   C1A59235  44.634  18.834   6.250
 4526POPC   D2A59236  44.789  19.068   6.588
 4526POPC   C3A59237  44.802  18.892   6.976
 4526POPC   C4A59238  44.431  18.921   7.189
 4526POPC   C1B59239  44.572  19.362   6.213
 4526POPC   C2B59240  44.506  19.513   6.639
 4526POPC   C3B59241  44.694  19.385   7.047
 4526POPC   C4B59242   0.108  19.240   7.229
 4527POPC   NC359243   4.848  40.739   5.491
 4527POPC   PO459244   5.090  40.226   5.525
 4527POPC   GL159245   4.803  40.411   5.892
 4527POPC   GL259246   4.926  40.752   5.986
 4527POPC   C1A59247   4.874  40.441   6.382
 4527POPC   D2A59248   5.132  40.724   6.678
 4527POPC   C3A59249   5.016  40.704   7.121
 4527POPC   C4A59250   4.895  40.377   7.364
 4527POPC   C1B59251   5.000  41.078   6.296
 4527POPC   C2B59252   5.160  41.257   6.693
 4527POPC   C3B59253   5.286  41.148   7.132
 4527POPC   C4B59254   5.017  41.092   7.493
 4528POPC   NC359255  43.984  34.529   5.180
 4528POPC   PO459256  43.718  35.046   5.384
 4528POPC   GL159257  43.903  34.730   5.676
 4528POPC   GL259258  43.778  34.377   5.716
 4528POPC   C1A59259  44.037  34.702   6.111
 4528POPC   D2A59260  44.197  34.908   6.476
 4528POPC   C3A59261  43.990  34.949   6.836
 4528POPC   C4A59262  44.056  34.711   7.168
 4528POPC   C1B59263  43.548  34.637   6.059
 4528POPC   C2B59264  43.633  34.775   6.484
 4528POPC   C3B59265  43.660  34.509   6.855
 4528POPC   C4B59266  43.553  34.571   7.262
 4529POPC   NC359267  12.425  29.955   5.426
 4529POPC   PO459268  11.837  29.822   5.378
 4529POPC   GL159269  11.979  29.897   5.811
 4529POPC   GL259270  12.168  29.603   5.818
 4529POPC   C1A59271  11.726  29.864   6.244
 4529POPC   D2A59272  11.719  29.723   6.704
 4529POPC   C3A59273  11.851  29.939   7.101
 4529POPC   C4A59274  12.094  30.261   7.324
 4529POPC   C1B59275  12.174  29.620   6.283
 4529POPC   C2B59276  12.222  29.746   6.752
 4529POPC   C3B59277  12.334  29.801   7.205
 4529POPC   C4B59278  12.388  29.542   7.570
 4530POPC   NC359279   4.725  10.784   5.624
 4530POPC   PO459280   5.054  11.217   5.201
 4530POPC   GL159281   5.036  11.314   5.704
 4530POPC   GL259282   5.302  11.563   5.861
 4530POPC   C1A59283   4.863  11.174   6.125
 4530POPC   D2A59284   4.834  11.299   6.565
 4530POPC   C3A59285   4.926  11.149   6.977
 4530POPC   C4A59286   4.930  11.355   7.371
 4530POPC   C1B59287   5.289  11.392   6.292
 4530POPC   C2B59288   5.385  11.272   6.729
 4530POPC   C3B59289   5.400  11.275   7.185
 4530POPC   C4B59290   5.392  11.528   7.589
 4531POPC   NC359291  42.372   6.481   5.194
 4531POPC   PO459292  42.385   6.977   5.551
 4531POPC   GL159293  42.468   6.735   5.863
 4531POPC   GL259294  42.300   6.474   5.866
 4531POPC   C1A59295  42.697   6.523   6.182
 4531POPC   D2A59296  42.441   6.530   6.545
 4531POPC   C3A59297  42.587   6.678   6.947
 4531POPC   C4A59298  42.438   6.751   7.386
 4531POPC   C1B59299  42.058   6.722   6.190
 4531POPC   C2B59300  41.885   6.760   6.613
 4531POPC   C3B59301  42.071   6.665   7.015
 4531POPC   C4B59302  41.931   6.638   7.447
 4532POPC   NC359303  28.795  39.200   5.335
 4532POPC   PO459304  29.390  39.533   5.300
 4532POPC   GL159305  29.410  39.306   5.720
 4532POPC   GL259306  29.113  39.102   5.727
 4532POPC   C1A59307  29.366  39.165   6.200
 4532POPC   D2A59308  28.940  39.220   6.429
 4532POPC   C3A59309  28.913  39.273   6.898
 4532POPC   C4A59310  29.345  39.342   7.115
 4532POPC   C1B59311  28.986  38.829   6.074
 4532POPC   C2B59312  29.059  38.726   6.485
 4532POPC   C3B59313  29.228  38.879   6.866
 4532POPC   C4B59314  29.050  38.881   7.254
 4533POPC   NC359315  44.971  11.993   5.461
 4533POPC   PO459316  44.381  12.208   5.150
 4533POPC   GL159317  44.464  12.021   5.572
 4533POPC   GL259318  44.468  11.647   5.621
 4533POPC   C1A59319  44.497  12.058   6.041
 4533POPC   D2A59320  44.767  12.220   6.374
 4533POPC   C3A59321  44.695  12.093   6.791
 4533POPC   C4A59322  44.954  12.061   7.166
 4533POPC   C1B59323  44.327  11.568   6.032
 4533POPC   C2B59324  44.496  11.687   6.425
 4533POPC   C3B59325  44.369  11.687   6.843
 4533POPC   C4B59326  44.451  11.909   7.217
 4534POPC   NC359327  25.522  32.378   5.321
 4534POPC   PO459328  24.868  32.244   5.315
 4534POPC   GL159329  25.108  32.502   5.615
 4534POPC   GL259330  25.298  32.234   5.763
 4534POPC   C1A59331  25.111  32.588   6.101
 4534POPC   D2A59332  25.327  32.457   6.513
 4534POPC   C3A59333  25.127  32.493   6.929
 4534POPC   C4A59334  25.152  32.279   7.357
 4534POPC   C1B59335  25.250  32.072   6.163
 4534POPC   C2B59336  25.556  31.988   6.496
 4534POPC   C3B59337  25.449  32.065   6.907
 4534POPC   C4B59338  25.352  31.817   7.259
 4535POPC   NC359339  11.691  41.882   5.339
 4535POPC   PO459340  11.041  41.918   5.367
 4535POPC   GL159341  11.364  41.756   5.710
 4535POPC   GL259342  11.691  41.872   5.839
 4535POPC   C1A59343  11.408  41.499   6.096
 4535POPC   D2A59344  11.571  41.343   6.503
 4535POPC   C3A59345  11.342  41.377   6.882
 4535POPC   C4A59346  11.520  41.426   7.289
 4535POPC   C1B59347  11.478  41.999   6.185
 4535POPC   C2B59348  11.328  41.855   6.559
 4535POPC   C3B59349  11.529  41.849   6.928
 4535POPC   C4B59350  11.416  41.934   7.326
 4536POPC   NC359351  18.553  42.923   5.410
 4536POPC   PO459352  18.158  43.458   5.381
 4536POPC   GL159353  18.434  43.317   5.735
 4536POPC   GL259354  18.253  42.993   5.812
 4536POPC   C1A59355  18.529  43.200   6.182
 4536POPC   D2A59356  18.294  43.272   6.548
 4536POPC   C3A59357  18.537  43.210   6.898
 4536POPC   C4A59358  18.402  43.361   7.248
 4536POPC   C1B59359  18.028  43.001   6.200
 4536POPC   C2B59360  17.838  43.026   6.622
 4536POPC   C3B59361  18.041  43.115   6.973
 4536POPC   C4B59362  18.022  43.062   7.377
 4537POPC   NC359363  35.477  35.499   4.965
 4537POPC   PO459364  34.860  35.452   5.311
 4537POPC   GL159365  35.159  35.360   5.738
 4537POPC   GL259366  35.351  35.122   5.974
 4537POPC   C1A59367  35.342  35.582   6.160
 4537POPC   D2A59368  35.524  35.825   6.525
 4537POPC   C3A59369  35.302  35.731   6.936
 4537POPC   C4A59370  35.210  35.556   7.357
 4537POPC   C1B59371  35.387  35.021   6.404
 4537POPC   C2B59372  35.478  35.334   6.681
 4537POPC   C3B59373  35.585  35.334   7.103
 4537POPC   C4B59374  35.714  34.974   7.297
 4538POPC   NC359375  20.332  32.412   5.356
 4538POPC   PO459376  20.935  32.199   5.278
 4538POPC   GL159377  20.758  32.134   5.706
 4538POPC   GL259378  20.807  31.760   5.782
 4538POPC   C1A59379  20.688  32.133   6.177
 4538POPC   D2A59380  20.763  32.393   6.569
 4538POPC   C3A59381  20.578  32.299   6.954
 4538POPC   C4A59382  20.251  31.980   7.022
 4538POPC   C1B59383  21.064  31.751   6.150
 4538POPC   C2B59384  21.044  31.971   6.532
 4538POPC   C3B59385  21.055  32.043   6.976
 4538POPC   C4B59386  20.991  32.346   7.339
 4539POPC   NC359387  36.950  10.166   5.575
 4539POPC   PO459388  37.154   9.530   5.263
 4539POPC   GL159389  36.927   9.677   5.657
 4539POPC   GL259390  37.235   9.831   5.820
 4539POPC   C1A59391  36.890   9.692   6.148
 4539POPC   D2A59392  36.877   9.528   6.579
 4539POPC   C3A59393  36.846   9.732   6.973
 4539POPC   C4A59394  36.936   9.556   7.380
 4539POPC   C1B59395  37.155  10.118   6.185
 4539POPC   C2B59396  36.997  10.108   6.598
 4539POPC   C3B59397  37.233  10.079   6.980
 4539POPC   C4B59398  37.103  10.038   7.387
 4540POPC   NC359399  15.007  21.587   5.373
 4540POPC   PO459400  15.018  20.947   5.424
 4540POPC   GL159401  15.010  21.264   5.795
 4540POPC   GL259402  14.817  21.588   5.911
 4540POPC   C1A59403  15.208  21.432   6.195
 4540POPC   D2A59404  15.047  21.476   6.623
 4540POPC   C3A59405  15.391  21.432   6.933
 4540POPC   C4A59406  15.657  21.793   7.016
 4540POPC   C1B59407  14.708  21.272   6.226
 4540POPC   C2B59408  14.821  20.987   6.551
 4540POPC   C3B59409  14.877  21.032   6.965
 4540POPC   C4B59410  14.918  21.418   7.117
 4541POPC   NC359411  11.759  11.925   5.414
 4541POPC   PO459412  11.050  12.069   5.506
 4541POPC   GL159413  11.389  12.009   5.813
 4541POPC   GL259414  11.579  11.690   5.850
 4541POPC   C1A59415  11.439  12.101   6.256
 4541POPC   D2A59416  11.306  12.241   6.669
 4541POPC   C3A59417  11.581  12.113   6.985
 4541POPC   C4A59418  11.575  11.761   7.236
 4541POPC   C1B59419  11.192  11.659   6.147
 4541POPC   C2B59420  11.042  11.819   6.539
 4541POPC   C3B59421  11.154  11.727   6.952
 4541POPC   C4B59422  10.932  11.657   7.354
 4542POPC   NC359423  16.179  23.404   5.262
 4542POPC   PO459424  16.766  23.825   5.165
 4542POPC   GL159425  16.870  23.903   5.656
 4542POPC   GL259426  16.890  23.597   5.869
 4542POPC   C1A59427  17.064  24.006   6.113
 4542POPC   D2A59428  17.251  23.798   6.491
 4542POPC   C3A59429  16.990  23.661   6.820
 4542POPC   C4A59430  16.834  23.704   7.209
 4542POPC   C1B59431  16.575  23.866   6.132
 4542POPC   C2B59432  16.359  23.798   6.516
 4542POPC   C3B59433  16.411  23.761   6.934
 4542POPC   C4B59434  16.260  24.086   7.205
 4543POPC   NC359435  42.529  21.944   5.332
 4543POPC   PO459436  41.884  22.196   5.423
 4543POPC   GL159437  41.985  22.078   5.807
 4543POPC   GL259438  42.328  22.088   5.786
 4543POPC   C1A59439  41.956  22.069   6.238
 4543POPC   D2A59440  42.219  22.060   6.607
 4543POPC   C3A59441  42.032  22.023   7.018
 4543POPC   C4A59442  42.216  22.153   7.415
 4543POPC   C1B59443  42.456  22.265   6.186
 4543POPC   C2B59444  42.746  22.167   6.540
 4543POPC   C3B59445  42.700  22.227   6.971
 4543POPC   C4B59446  42.722  22.147   7.407
 4544POPC   NC359447  21.120  28.832   5.414
 4544POPC   PO459448  21.543  29.268   5.271
 4544POPC   GL159449  21.522  28.966   5.702
 4544POPC   GL259450  21.216  29.093   5.878
 4544POPC   C1A59451  21.477  28.764   6.168
 4544POPC   D2A59452  21.366  28.995   6.581
 4544POPC   C3A59453  21.517  28.951   7.038
 4544POPC   C4A59454  21.506  28.869   7.503
 4544POPC   C1B59455  20.911  29.348   6.145
 4544POPC   C2B59456  20.902  29.527   6.570
 4544POPC   C3B59457  21.125  29.344   6.918
 4544POPC   C4B59458  21.482  29.492   7.120
 4545POPC   NC359459  23.308  26.788   5.412
 4545POPC   PO459460  22.628  26.751   5.384
 4545POPC   GL159461  22.913  26.662   5.686
 4545POPC   GL259462  22.994  26.979   5.787
 4545POPC   C1A59463  22.975  26.581   6.118
 4545POPC   D2A59464  22.737  26.609   6.507
 4545POPC   C3A59465  22.882  26.434   6.894
 4545POPC   C4A59466  22.986  26.669   7.263
 4545POPC   C1B59467  23.312  27.000   6.117
 4545POPC   C2B59468  23.357  27.175   6.550
 4545POPC   C3B59469  23.221  27.021   6.965
 4545POPC   C4B59470  23.303  27.016   7.437
 4546POPC   NC359471  11.836   4.870   5.331
 4546POPC   PO459472  12.131   5.459   5.064
 4546POPC   GL159473  12.157   5.226   5.550
 4546POPC   GL259474  11.822   5.201   5.738
 4546POPC   C1A59475  12.217   5.047   6.041
 4546POPC   D2A59476  12.450   5.048   6.486
 4546POPC   C3A59477  12.352   4.891   6.911
 4546POPC   C4A59478  12.015   4.746   7.183
 4546POPC   C1B59479  11.772   5.242   6.184
 4546POPC   C2B59480  12.063   5.441   6.428
 4546POPC   C3B59481  12.128   5.352   6.823
 4546POPC   C4B59482  12.084   5.253   7.228
 4547POPC   NC359483  14.860   2.280   5.503
 4547POPC   PO459484  15.449   1.890   5.391
 4547POPC   GL159485  15.400   1.716   5.804
 4547POPC   GL259486  15.049   1.814   5.873
 4547POPC   C1A59487  15.433   1.841   6.234
 4547POPC   D2A59488  15.367   2.096   6.587
 4547POPC   C3A59489  15.131   1.947   6.894
 4547POPC   C4A59490  15.063   1.849   7.312
 4547POPC   C1B59491  14.990   2.160   6.189
 4547POPC   C2B59492  14.917   2.353   6.606
 4547POPC   C3B59493  14.846   2.334   7.049
 4547POPC   C4B59494  14.910   2.304   7.478
 4548POPC   NC359495  35.795  27.359   5.143
 4548POPC   PO459496  36.362  27.344   5.651
 4548POPC   GL159497  35.973  27.560   5.768
 4548POPC   GL259498  35.816  27.903   5.852
 4548POPC   C1A59499  35.846  27.515   6.189
 4548POPC   D2A59500  36.081  27.592   6.551
 4548POPC   C3A59501  36.071  27.342   6.897
 4548POPC   C4A59502  36.301  27.370   7.268
 4548POPC   C1B59503  36.017  28.001   6.238
 4548POPC   C2B59504  35.959  28.099   6.659
 4548POPC   C3B59505  36.009  27.864   7.011
 4548POPC   C4B59506  35.750  27.987   7.290
 4549POPC   NC359507  43.048  24.922   5.456
 4549POPC   PO459508  43.175  24.302   5.197
 4549POPC   GL159509  43.125  24.429   5.663
 4549POPC   GL259510  43.006  24.116   5.845
 4549POPC   C1A59511  43.193  24.608   6.134
 4549POPC   D2A59512  43.462  24.829   6.528
 4549POPC   C3A59513  43.391  24.768   7.031
 4549POPC   C4A59514  43.417  24.818   7.523
 4549POPC   C1B59515  43.251  24.093   6.254
 4549POPC   C2B59516  43.341  24.331   6.651
 4549POPC   C3B59517  43.064  24.338   7.035
 4549POPC   C4B59518  42.973  24.619   7.383
 4550POPC   NC359519   4.212  35.975   5.642
 4550POPC   PO459520   4.754  36.048   5.179
 4550POPC   GL159521   4.636  36.294   5.642
 4550POPC   GL259522   4.356  36.501   5.754
 4550POPC   C1A59523   4.495  36.208   6.153
 4550POPC   D2A59524   4.252  36.141   6.513
 4550POPC   C3A59525   4.508  36.206   6.853
 4550POPC   C4A59526   4.679  36.010   7.209
 4550POPC   C1B59527   4.039  36.436   6.141
 4550POPC   C2B59528   3.826  36.451   6.588
 4550POPC   C3B59529   4.048  36.372   7.005
 4550POPC   C4B59530   4.167  35.953   7.205
 4551POPC   NC359531  11.530  43.226   5.348
 4551POPC   PO459532  11.033  42.855   5.476
 4551POPC   GL159533  11.237  43.077   5.829
 4551POPC   GL259534  11.556  43.302   5.869
 4551POPC   C1A59535  11.285  43.020   6.280
 4551POPC   D2A59536  11.128  42.902   6.676
 4551POPC   C3A59537  11.393  42.867   7.019
 4551POPC   C4A59538  11.454  42.947   7.425
 4551POPC   C1B59539  11.632  43.398   6.341
 4551POPC   C2B59540  11.487  43.338   6.784
 4551POPC   C3B59541  11.485  43.407   7.262
 4551POPC   C4B59542  11.704  43.319   7.686
 4552POPC   NC359543  43.158  40.509   5.478
 4552POPC   PO459544  42.746  40.992   5.341
 4552POPC   GL159545  42.902  40.851   5.728
 4552POPC   GL259546  43.252  40.992   5.697
 4552POPC   C1A59547  42.779  40.653   6.140
 4552POPC   D2A59548  42.758  40.852   6.564
 4552POPC   C3A59549  42.873  40.609   6.940
 4552POPC   C4A59550  42.821  40.657   7.386
 4552POPC   C1B59551  43.288  40.730   6.088
 4552POPC   C2B59552  43.330  40.727   6.541
 4552POPC   C3B59553  43.579  40.785   6.926
 4552POPC   C4B59554  43.347  40.708   7.288
 4553POPC   NC359555  23.793  29.203   5.366
 4553POPC   PO459556  23.972  28.529   5.367
 4553POPC   GL159557  23.770  28.719   5.716
 4553POPC   GL259558  23.542  28.980   5.781
 4553POPC   C1A59559  23.935  28.926   6.089
 4553POPC   D2A59560  23.938  29.164   6.462
 4553POPC   C3A59561  23.957  28.972   6.848
 4553POPC   C4A59562  23.907  29.144   7.256
 4553POPC   C1B59563  23.428  28.900   6.205
 4553POPC   C2B59564  23.434  28.924   6.626
 4553POPC   C3B59565  23.503  29.190   6.956
 4553POPC   C4B59566  23.424  29.098   7.380
 4554POPC   NC359567  22.373  31.038   5.722
 4554POPC   PO459568  21.948  30.916   5.215
 4554POPC   GL159569  21.997  30.627   5.675
 4554POPC   GL259570  22.120  30.282   5.679
 4554POPC   C1A59571  22.045  30.740   6.177
 4554POPC   D2A59572  22.192  30.955   6.549
 4554POPC   C3A59573  21.890  31.016   6.884
 4554POPC   C4A59574  21.965  30.831   7.271
 4554POPC   C1B59575  21.952  30.264   6.113
 4554POPC   C2B59576  22.077  30.424   6.551
 4554POPC   C3B59577  22.247  30.551   6.934
 4554POPC   C4B59578  22.159  30.306   7.290
 4555POPC   NC359579  26.011  22.462   5.386
 4555POPC   PO459580  25.920  21.799   5.530
 4555POPC   GL159581  26.258  21.977   5.803
 4555POPC   GL259582  26.181  22.345   5.840
 4555POPC   C1A59583  26.426  22.165   6.217
 4555POPC   D2A59584  26.260  22.475   6.493
 4555POPC   C3A59585  26.182  22.254   6.874
 4555POPC   C4A59586  26.416  21.961   7.123
 4555POPC   C1B59587  25.896  22.188   6.174
 4555POPC   C2B59588  25.742  22.364   6.570
 4555POPC   C3B59589  25.687  22.281   7.017
 4555POPC   C4B59590  25.925  22.403   7.395
 4556POPC   NC359591  36.801  20.062   5.272
 4556POPC   PO459592  37.490  20.195   5.515
 4556POPC   GL159593  37.285  19.944   5.865
 4556POPC   GL259594  36.897  19.844   5.894
 4556POPC   C1A59595  37.121  20.027   6.301
 4556POPC   D2A59596  36.880  19.832   6.638
 4556POPC   C3A59597  37.174  19.783   6.970
 4556POPC   C4A59598  37.169  19.930   7.380
 4556POPC   C1B59599  37.132  19.544   6.149
 4556POPC   C2B59600  37.099  19.370   6.580
 4556POPC   C3B59601  36.884  19.373   6.969
 4556POPC   C4B59602  37.041  19.419   7.400
 4557POPC   NC359603  20.513  29.485   5.478
 4557POPC   PO459604  20.638  30.097   5.351
 4557POPC   GL159605  20.563  29.905   5.777
 4557POPC   GL259606  20.216  29.866   5.783
 4557POPC   C1A59607  20.469  29.618   6.149
 4557POPC   D2A59608  20.377  29.452   6.561
 4557POPC   C3A59609  20.543  29.709   6.909
 4557POPC   C4A59610  20.794  29.542   7.244
 4557POPC   C1B59611  20.219  30.068   6.222
 4557POPC   C2B59612  20.284  30.169   6.684
 4557POPC   C3B59613  20.237  30.115   7.150
 4557POPC   C4B59614  20.192  30.017   7.611
 4558POPC   NC359615   1.483  38.842   5.651
 4558POPC   PO459616   1.710  38.219   5.673
 4558POPC   GL159617   1.233  38.267   5.833
 4558POPC   GL259618   1.004  38.601   5.849
 4558POPC   C1A59619   1.012  38.275   6.246
 4558POPC   D2A59620   0.975  38.551   6.605
 4558POPC   C3A59621   1.120  38.338   6.984
 4558POPC   C4A59622   1.296  38.330   7.409
 4558POPC   C1B59623   1.051  38.935   6.222
 4558POPC   C2B59624   1.331  39.116   6.539
 4558POPC   C3B59625   1.375  38.832   6.863
 4558POPC   C4B59626   1.455  38.776   7.256
 4559POPC   NC359627  32.591  40.977   5.482
 4559POPC   PO459628  32.435  41.659   5.338
 4559POPC   GL159629  32.475  41.722   5.758
 4559POPC   GL259630  32.358  41.380   5.789
 4559POPC   C1A59631  32.314  41.704   6.197
 4559POPC   D2A59632  31.940  41.913   6.357
 4559POPC   C3A59633  31.932  41.889   6.794
 4559POPC   C4A59634  31.959  41.840   7.218
 4559POPC   C1B59635  31.967  41.330   6.059
 4559POPC   C2B59636  31.994  41.404   6.500
 4559POPC   C3B59637  32.316  41.541   6.792
 4559POPC   C4B59638  32.230  41.403   7.207
 4560POPC   NC359639  28.104  26.158   5.430
 4560POPC   PO459640  28.216  25.514   5.453
 4560POPC   GL159641  28.249  25.810   5.790
 4560POPC   GL259642  28.486  26.054   5.761
 4560POPC   C1A59643  28.120  26.093   6.135
 4560POPC   D2A59644  28.195  25.883   6.518
 4560POPC   C3A59645  28.205  26.071   6.907
 4560POPC   C4A59646  28.497  25.889   7.149
 4560POPC   C1B59647  28.617  26.014   6.183
 4560POPC   C2B59648  28.574  26.249   6.546
 4560POPC   C3B59649  28.699  26.337   6.955
 4560POPC   C4B59650  28.458  26.367   7.300
 4561POPC   NC359651  24.868  44.523   5.419
 4561POPC   PO459652  24.193  44.788   5.420
 4561POPC   GL159653  24.539  44.805   5.730
 4561POPC   GL259654  24.360   0.101   5.805
 4561POPC   C1A59655  24.643  44.591   6.140
 4561POPC   D2A59656  24.510  44.237   6.446
 4561POPC   C3A59657  24.490  44.374   6.891
 4561POPC   C4A59658  24.586  44.363   7.350
 4561POPC   C1B59659  24.304   0.018   6.211
 4561POPC   C2B59660  24.542  44.903   6.558
 4561POPC   C3B59661  24.441  44.904   6.968
 4561POPC   C4B59662  24.081   0.046   7.182
 4562POPC   NC359663  19.286   7.810   5.574
 4562POPC   PO459664  18.846   8.335   5.458
 4562POPC   GL159665  19.084   8.226   5.827
 4562POPC   GL259666  19.055   8.552   5.903
 4562POPC   C1A59667  19.168   7.994   6.232
 4562POPC   D2A59668  18.970   8.068   6.660
 4562POPC   C3A59669  19.133   7.902   7.077
 4562POPC   C4A59670  19.329   8.052   7.478
 4562POPC   C1B59671  19.061   8.471   6.335
 4562POPC   C2B59672  19.165   8.600   6.724
 4562POPC   C3B59673  19.089   8.410   7.079
 4562POPC   C4B59674  19.109   8.619   7.440
 4563POPC   NC359675  26.204  40.708   5.379
 4563POPC   PO459676  25.505  40.509   5.481
 4563POPC   GL159677  25.734  40.775   5.795
 4563POPC   GL259678  26.116  40.882   5.845
 4563POPC   C1A59679  25.808  40.829   6.237
 4563POPC   D2A59680  25.765  41.088   6.571
 4563POPC   C3A59681  25.899  40.831   6.874
 4563POPC   C4A59682  25.838  40.795   7.284
 4563POPC   C1B59683  26.174  41.179   6.235
 4563POPC   C2B59684  26.294  41.099   6.673
 4563POPC   C3B59685  26.285  41.027   7.135
 4563POPC   C4B59686  26.332  40.655   7.365
 4564POPC   NC359687  39.848  29.171   5.407
 4564POPC   PO459688  40.521  28.896   5.294
 4564POPC   GL159689  40.342  28.880   5.722
 4564POPC   GL259690  40.253  29.213   5.743
 4564POPC   C1A59691  40.206  28.944   6.180
 4564POPC   D2A59692  39.843  29.014   6.460
 4564POPC   C3A59693  39.818  28.867   6.895
 4564POPC   C4A59694  39.937  28.997   7.303
 4564POPC   C1B59695  40.173  29.475   6.070
 4564POPC   C2B59696  40.179  29.419   6.501
 4564POPC   C3B59697  40.171  29.243   6.898
 4564POPC   C4B59698  40.265  29.383   7.307
 4565POPC   NC359699  21.210  20.001   5.185
 4565POPC   PO459700  21.620  19.463   5.354
 4565POPC   GL159701  21.322  19.557   5.708
 4565POPC   GL259702  21.239  19.924   5.691
 4565POPC   C1A59703  21.327  19.633   6.184
 4565POPC   D2A59704  21.375  19.764   6.664
 4565POPC   C3A59705  21.341  19.625   7.128
 4565POPC   C4A59706  21.150  19.558   7.587
 4565POPC   C1B59707  21.461  20.124   6.068
 4565POPC   C2B59708  21.589  20.285   6.467
 4565POPC   C3B59709  21.675  20.135   6.887
 4565POPC   C4B59710  21.817  20.175   7.310
 4566POPC   NC359711  10.167  32.216   5.477
 4566POPC   PO459712   9.513  32.354   5.276
 4566POPC   GL159713   9.483  32.311   5.718
 4566POPC   GL259714   9.794  32.187   5.833
 4566POPC   C1A59715   9.389  32.185   6.147
 4566POPC   D2A59716   9.512  32.337   6.542
 4566POPC   C3A59717   9.598  32.060   6.880
 4566POPC   C4A59718   9.653  32.267   7.257
 4566POPC   C1B59719   9.959  32.099   6.243
 4566POPC   C2B59720  10.032  32.280   6.635
 4566POPC   C3B59721  10.094  32.094   7.007
 4566POPC   C4B59722  10.125  32.170   7.418
 4567POPC   NC359723  10.107   4.426   5.462
 4567POPC   PO459724   9.391   4.528   5.420
 4567POPC   GL159725   9.655   4.222   5.705
 4567POPC   GL259726   9.772   3.860   5.819
 4567POPC   C1A59727   9.762   4.285   6.157
 4567POPC   D2A59728   9.601   4.452   6.549
 4567POPC   C3A59729   9.844   4.389   6.895
 4567POPC   C4A59730   9.917   4.252   7.300
 4567POPC   C1B59731   9.417   3.937   6.093
 4567POPC   C2B59732   9.364   3.988   6.576
 4567POPC   C3B59733   9.524   4.024   7.022
 4567POPC   C4B59734   9.482   4.068   7.493
 4568POPC   NC359735  24.518  42.710   5.339
 4568POPC   PO459736  24.523  43.467   5.322
 4568POPC   GL159737  24.489  43.280   5.710
 4568POPC   GL259738  24.432  42.943   5.778
 4568POPC   C1A59739  24.398  43.269   6.149
 4568POPC   D2A59740  24.238  43.158   6.533
 4568POPC   C3A59741  24.562  43.276   6.813
 4568POPC   C4A59742  24.497  43.372   7.227
 4568POPC   C1B59743  24.530  42.770   6.223
 4568POPC   C2B59744  24.519  42.742   6.680
 4568POPC   C3B59745  24.352  42.881   7.065
 4568POPC   C4B59746  24.556  42.801   7.475
 4569POPC   NC359747  22.650  40.373   5.070
 4569POPC   PO459748  23.113  39.865   5.247
 4569POPC   GL159749  23.044  40.046   5.683
 4569POPC   GL259750  22.759  40.297   5.708
 4569POPC   C1A59751  22.868  39.944   6.119
 4569POPC   D2A59752  22.683  39.779   6.517
 4569POPC   C3A59753  22.927  39.923   6.871
 4569POPC   C4A59754  23.343  40.025   7.055
 4569POPC   C1B59755  22.599  40.407   6.138
 4569POPC   C2B59756  22.674  40.320   6.566
 4569POPC   C3B59757  22.609  40.336   6.990
 4569POPC   C4B59758  22.909  40.265   7.288
 4570POPC   NC359759   7.126  11.079   5.221
 4570POPC   PO459760   7.653  11.436   5.456
 4570POPC   GL159761   7.633  11.255   5.830
 4570POPC   GL259762   7.311  11.134   5.713
 4570POPC   C1A59763   7.637  11.388   6.275
 4570POPC   D2A59764   7.268  11.443   6.560
 4570POPC   C3A59765   7.296  11.730   6.912
 4570POPC   C4A59766   7.609  11.743   7.216
 4570POPC   C1B59767   7.229  11.105   6.141
 4570POPC   C2B59768   7.446  10.939   6.498
 4570POPC   C3B59769   7.430  11.053   6.920
 4570POPC   C4B59770   7.605  11.245   7.278
 4571POPC   NC359771  10.679  14.583   5.538
 4571POPC   PO459772  10.115  14.183   5.398
 4571POPC   GL159773  10.317  14.161   5.845
 4571POPC   GL259774  10.577  14.376   5.983
 4571POPC   C1A59775  10.169  14.280   6.253
 4571POPC   D2A59776  10.329  14.396   6.646
 4571POPC   C3A59777  10.179  14.205   7.013
 4571POPC   C4A59778  10.478  14.371   7.282
 4571POPC   C1B59779  10.933  14.542   6.200
 4571POPC   C2B59780  11.062  14.415   6.568
 4571POPC   C3B59781  10.908  14.468   6.986
 4571POPC   C4B59782  11.203  14.750   7.128
 4572POPC   NC359783   1.742   9.228   5.141
 4572POPC   PO459784   2.237   8.924   5.411
 4572POPC   GL159785   2.015   8.792   5.818
 4572POPC   GL259786   1.665   8.685   5.804
 4572POPC   C1A59787   1.910   8.958   6.237
 4572POPC   D2A59788   1.968   9.179   6.637
 4572POPC   C3A59789   1.940   9.057   7.059
 4572POPC   C4A59790   2.279   9.296   7.230
 4572POPC   C1B59791   1.610   8.557   6.234
 4572POPC   C2B59792   1.759   8.643   6.645
 4572POPC   C3B59793   1.548   8.712   7.029
 4572POPC   C4B59794   1.625   8.793   7.469
 4573POPC   NC359795  23.561  21.081   5.138
 4573POPC   PO459796  22.889  21.347   5.147
 4573POPC   GL159797  22.896  21.432   5.646
 4573POPC   GL259798  22.950  21.747   5.703
 4573POPC   C1A59799  23.081  21.385   6.106
 4573POPC   D2A59800  23.294  21.489   6.536
 4573POPC   C3A59801  23.262  21.247   6.944
 4573POPC   C4A59802  22.989  21.214   7.261
 4573POPC   C1B59803  22.772  21.789   6.089
 4573POPC   C2B59804  22.791  21.618   6.487
 4573POPC   C3B59805  22.810  21.542   6.910
 4573POPC   C4B59806  22.837  21.707   7.307
 4574POPC   NC359807  17.758   4.629   4.989
 4574POPC   PO459808  17.296   4.187   5.154
 4574POPC   GL159809  17.445   4.282   5.656
 4574POPC   GL259810  17.187   4.131   5.788
 4574POPC   C1A59811  17.770   4.402   6.075
 4574POPC   D2A59812  18.085   4.328   6.446
 4574POPC   C3A59813  17.877   4.218   6.826
 4574POPC   C4A59814  17.735   4.528   7.136
 4574POPC   C1B59815  17.272   4.424   6.140
 4574POPC   C2B59816  17.456   4.398   6.567
 4574POPC   C3B59817  17.264   4.398   6.991
 4574POPC   C4B59818  17.175   4.676   7.327
 4575POPC   NC359819  16.965  43.831   5.560
 4575POPC   PO459820  17.521  44.228   5.334
 4575POPC   GL159821  17.777  44.139   5.743
 4575POPC   GL259822  17.437  44.054   5.842
 4575POPC   C1A59823  17.809  43.873   6.149
 4575POPC   D2A59824  17.637  43.699   6.547
 4575POPC   C3A59825  17.682  44.007   6.856
 4575POPC   C4A59826  17.751  43.969   7.265
 4575POPC   C1B59827  17.281  43.944   6.254
 4575POPC   C2B59828  17.214  44.131   6.665
 4575POPC   C3B59829  17.243  44.011   7.128
 4575POPC   C4B59830  16.957  44.000   7.471
 4576POPC   NC359831   6.978   5.702   5.566
 4576POPC   PO459832   6.676   6.183   5.243
 4576POPC   GL159833   6.561   6.001   5.680
 4576POPC   GL259834   6.400   5.674   5.735
 4576POPC   C1A59835   6.687   5.956   6.133
 4576POPC   D2A59836   7.006   5.854   6.472
 4576POPC   C3A59837   6.818   5.833   6.909
 4576POPC   C4A59838   6.721   5.711   7.366
 4576POPC   C1B59839   6.220   5.697   6.172
 4576POPC   C2B59840   6.367   5.663   6.623
 4576POPC   C3B59841   6.315   5.778   7.061
 4576POPC   C4B59842   6.232   5.848   7.498
 4577POPC   NC359843   2.212  44.023   5.449
 4577POPC   PO459844   1.705  43.665   5.390
 4577POPC   GL159845   1.838  43.698   5.783
 4577POPC   GL259846   1.820  44.041   5.821
 4577POPC   C1A59847   1.859  43.761   6.225
 4577POPC   D2A59848   1.945  43.984   6.622
 4577POPC   C3A59849   1.905  43.818   7.035
 4577POPC   C4A59850   2.015  43.750   7.467
 4577POPC   C1B59851   2.019  44.238   6.179
 4577POPC   C2B59852   2.316  44.320   6.516
 4577POPC   C3B59853   2.254  44.240   6.956
 4577POPC   C4B59854   2.089  44.247   7.350
 4578POPC   NC359855  29.265   2.496   5.201
 4578POPC   PO459856  29.160   1.838   5.393
 4578POPC   GL159857  29.127   2.036   5.829
 4578POPC   GL259858  29.358   2.336   5.791
 4578POPC   C1A59859  29.041   2.098   6.284
 4578POPC   D2A59860  29.254   1.899   6.636
 4578POPC   C3A59861  29.158   2.022   7.067
 4578POPC   C4A59862  29.050   1.905   7.496
 4578POPC   C1B59863  29.380   2.489   6.239
 4578POPC   C2B59864  29.260   2.413   6.701
 4578POPC   C3B59865  29.427   2.469   7.133
 4578POPC   C4B59866  29.266   2.362   7.519
 4579POPC   NC359867  22.337  16.824   5.389
 4579POPC   PO459868  22.213  16.226   5.564
 4579POPC   GL159869  22.472  16.563   5.821
 4579POPC   GL259870  22.371  16.942   5.877
 4579POPC   C1A59871  22.478  16.679   6.288
 4579POPC   D2A59872  22.433  17.037   6.574
 4579POPC   C3A59873  22.488  16.897   7.004
 4579POPC   C4A59874  22.261  16.756   7.405
 4579POPC   C1B59875  22.061  17.087   6.205
 4579POPC   C2B59876  21.958  17.227   6.646
 4579POPC   C3B59877  22.000  17.077   7.088
 4579POPC   C4B59878  21.937  17.150   7.561
 4580POPC   NC359879   9.221  36.425   5.250
 4580POPC   PO459880   8.793  36.868   5.330
 4580POPC   GL159881   9.038  36.892   5.716
 4580POPC   GL259882   9.153  36.571   5.854
 4580POPC   C1A59883   8.917  37.005   6.138
 4580POPC   D2A59884   8.861  36.912   6.594
 4580POPC   C3A59885   9.140  37.083   6.903
 4580POPC   C4A59886   9.114  37.361   7.267
 4580POPC   C1B59887   9.013  36.520   6.287
 4580POPC   C2B59888   9.209  36.552   6.715
 4580POPC   C3B59889   9.049  36.633   7.123
 4580POPC   C4B59890   8.878  36.401   7.466
 4581POPC   NC359891  44.938  37.956   5.385
 4581POPC   PO459892  44.772  37.316   5.446
 4581POPC   GL159893  44.562  37.530   5.790
 4581POPC   GL259894  44.286  37.796   5.688
 4581POPC   C1A59895  44.599  37.679   6.251
 4581POPC   D2A59896  44.498  37.529   6.661
 4581POPC   C3A59897  44.756  37.527   7.044
 4581POPC   C4A59898  44.646  37.819   7.348
 4581POPC   C1B59899  44.224  37.981   6.129
 4581POPC   C2B59900  44.285  38.027   6.606
 4581POPC   C3B59901  44.224  38.016   7.087
 4581POPC   C4B59902  44.227  38.108   7.565
 4582POPC   NC359903   2.310   8.488   5.501
 4582POPC   PO459904   1.972   7.960   5.435
 4582POPC   GL159905   1.965   8.256   5.785
 4582POPC   GL259906   2.265   8.082   5.892
 4582POPC   C1A59907   2.082   8.406   6.229
 4582POPC   D2A59908   2.124   8.267   6.671
 4582POPC   C3A59909   2.088   8.521   7.064
 4582POPC   C4A59910   2.081   8.329   7.497
 4582POPC   C1B59911   1.852   7.949   6.148
 4582POPC   C2B59912   1.661   8.107   6.496
 4582POPC   C3B59913   1.681   8.212   6.940
 4582POPC   C4B59914   1.573   8.306   7.355
 4583POPC   NC359915  28.242  32.430   5.521
 4583POPC   PO459916  28.789  32.068   5.449
 4583POPC   GL159917  28.623  32.211   5.816
 4583POPC   GL259918  28.255  32.155   5.940
 4583POPC   C1A59919  28.652  32.075   6.220
 4583POPC   D2A59920  28.367  32.070   6.550
 4583POPC   C3A59921  28.540  32.108   6.963
 4583POPC   C4A59922  28.284  32.140   7.294
 4583POPC   C1B59923  28.406  32.540   6.162
 4583POPC   C2B59924  28.427  32.584   6.585
 4583POPC   C3B59925  28.126  32.433   6.878
 4583POPC   C4B59926  28.142  32.623   7.264
 4584POPC   NC359927  25.556  23.991   5.196
 4584POPC   PO459928  25.218  24.530   5.433
 4584POPC   GL159929  25.415  24.579   5.849
 4584POPC   GL259930  25.114  24.425   5.925
 4584POPC   C1A59931  25.361  24.540   6.342
 4584POPC   D2A59932  25.152  24.466   6.751
 4584POPC   C3A59933  25.424  24.372   7.154
 4584POPC   C4A59934  25.505  24.360   7.612
 4584POPC   C1B59935  24.928  24.219   6.262
 4584POPC   C2B59936  24.695  24.161   6.588
 4584POPC   C3B59937  24.754  24.271   6.995
 4584POPC   C4B59938  24.967  24.507   7.348
 4585POPC   NC359939  27.760   5.476   5.393
 4585POPC   PO459940  27.647   4.775   5.216
 4585POPC   GL159941  27.629   4.985   5.664
 4585POPC   GL259942  27.858   5.265   5.837
 4585POPC   C1A59943  27.592   4.847   6.116
 4585POPC   D2A59944  27.407   4.822   6.566
 4585POPC   C3A59945  27.643   4.955   6.929
 4585POPC   C4A59946  27.488   5.038   7.360
 4585POPC   C1B59947  27.731   5.325   6.253
 4585POPC   C2B59948  27.426   5.332   6.600
 4585POPC   C3B59949  27.488   5.425   7.033
 4585POPC   C4B59950  27.909   5.319   7.225
 4586POPC   NC359951   0.837  36.642   5.620
 4586POPC   PO459952   1.263  36.174   5.408
 4586POPC   GL159953   1.050  36.221   5.789
 4586POPC   GL259954   1.245  36.529   5.907
 4586POPC   C1A59955   0.823  36.274   6.174
 4586POPC   D2A59956   1.005  36.091   6.554
 4586POPC   C3A59957   0.895  36.106   6.996
 4586POPC   C4A59958   0.866  35.893   7.404
 4586POPC   C1B59959   1.204  36.558   6.358
 4586POPC   C2B59960   1.096  36.550   6.789
 4586POPC   C3B59961   1.340  36.404   7.121
 4586POPC   C4B59962   1.354  36.104   7.442
 4587POPC   NC359963  38.289  18.386   5.398
 4587POPC   PO459964  38.616  17.829   5.410
 4587POPC   GL159965  38.571  18.180   5.801
 4587POPC   GL259966  38.250  18.381   5.886
 4587POPC   C1A59967  38.617  18.440   6.242
 4587POPC   D2A59968  38.796  18.703   6.579
 4587POPC   C3A59969  38.722  18.572   7.003
 4587POPC   C4A59970  38.532  18.247   7.236
 4587POPC   C1B59971  38.061  18.410   6.301
 4587POPC   C2B59972  38.310  18.489   6.682
 4587POPC   C3B59973  38.202  18.609   7.100
 4587POPC   C4B59974  38.082  18.577   7.545
 4588POPC   NC359975  25.660  40.053   5.463
 4588POPC   PO459976  26.278  40.247   5.260
 4588POPC   GL159977  26.366  40.346   5.698
 4588POPC   GL259978  26.006  40.354   5.732
 4588POPC   C1A59979  26.370  40.287   6.148
 4588POPC   D2A59980  26.186  39.927   6.412
 4588POPC   C3A59981  26.113  39.770   6.863
 4588POPC   C4A59982  26.225  39.844   7.312
 4588POPC   C1B59983  25.857  40.328   6.172
 4588POPC   C2B59984  26.085  40.441   6.578
 4588POPC   C3B59985  26.087  40.305   7.035
 4588POPC   C4B59986  25.760  40.030   7.245
 4589POPC   NC359987  38.032   6.789   5.179
 4589POPC   PO459988  38.568   6.441   5.441
 4589POPC   GL159989  38.409   6.525   5.807
 4589POPC   GL259990  38.748   6.501   5.929
 4589POPC   C1A59991  38.378   6.778   6.169
 4589POPC   D2A59992  38.426   6.612   6.573
 4589POPC   C3A59993  38.311   6.864   6.921
 4589POPC   C4A59994  38.057   6.846   7.260
 4589POPC   C1B59995  38.867   6.691   6.296
 4589POPC   C2B59996  38.990   6.974   6.567
 4589POPC   C3B59997  38.819   6.748   6.868
 4589POPC   C4B59998  38.847   6.677   7.251
 4590POPC   NC359999  24.652  18.429   5.051
 4590POPC   PO460000  24.833  18.039   5.567
 4590POPC   GL160001  24.541  18.212   5.862
 4590POPC   GL260002  24.242  18.020   5.909
 4590POPC   C1A60003  24.565  18.257   6.282
 4590POPC   D2A60004  24.858  18.376   6.588
 4590POPC   C3A60005  24.622  18.423   6.951
 4590POPC   C4A60006  24.615  18.203   7.321
 4590POPC   C1B60007  24.052  18.212   6.279
 4590POPC   C2B60008  24.115  18.399   6.688
 4590POPC   C3B60009  24.146  18.260   7.119
 4590POPC   C4B60010  24.046  18.026   7.497
 4591POPC   NC360011   8.667  35.663   5.140
 4591POPC   PO460012   8.141  35.315   5.296
 4591POPC   GL160013   8.041  35.275   5.743
 4591POPC   GL260014   7.792  35.053   5.733
 4591POPC   C1A60015   8.059  35.379   6.207
 4591POPC   D2A60016   8.386  35.386   6.561
 4591POPC   C3A60017   8.299  35.512   7.007
 4591POPC   C4A60018   8.511  35.345   7.370
 4591POPC   C1B60019   7.922  34.891   6.115
 4591POPC   C2B60020   8.030  34.975   6.546
 4591POPC   C3B60021   7.987  35.090   6.968
 4591POPC   C4B60022   7.958  34.867   7.313
 4592POPC   NC360023  24.980  20.676   5.773
 4592POPC   PO460024  24.370  20.431   5.576
 4592POPC   GL160025  24.504  20.530   5.981
 4592POPC   GL260026  24.527  20.897   6.035
 4592POPC   C1A60027  24.701  20.520   6.391
 4592POPC   D2A60028  24.753  20.686   6.799
 4592POPC   C3A60029  24.523  20.519   7.127
 4592POPC   C4A60030  24.134  20.420   7.301
 4592POPC   C1B60031  24.888  21.028   6.331
 4592POPC   C2B60032  24.928  21.168   6.745
 4592POPC   C3B60033  24.694  21.042   7.158
 4592POPC   C4B60034  24.821  20.729   7.491
 4593POPC   NC360035  23.087  24.138   5.370
 4593POPC   PO460036  23.058  24.749   5.699
 4593POPC   GL160037  22.848  24.372   5.807
 4593POPC   GL260038  22.512  24.503   5.916
 4593POPC   C1A60039  23.065  24.107   6.142
 4593POPC   D2A60040  23.197  23.918   6.553
 4593POPC   C3A60041  23.039  24.163   6.924
 4593POPC   C4A60042  23.108  24.611   7.095
 4593POPC   C1B60043  22.688  24.465   6.293
 4593POPC   C2B60044  22.851  24.644   6.624
 4593POPC   C3B60045  22.655  24.505   6.933
 4593POPC   C4B60046  22.697  24.344   7.317
 4594POPC   NC360047  14.932  27.344   5.461
 4594POPC   PO460048  15.648  27.525   5.562
 4594POPC   GL160049  15.340  27.288   5.850
 4594POPC   GL260050  15.164  27.599   5.860
 4594POPC   C1A60051  15.061  27.338   6.266
 4594POPC   D2A60052  15.039  27.414   6.728
 4594POPC   C3A60053  15.075  27.715   7.070
 4594POPC   C4A60054  15.033  27.608   7.508
 4594POPC   C1B60055  15.466  27.646   6.244
 4594POPC   C2B60056  15.574  27.719   6.714
 4594POPC   C3B60057  15.489  28.047   7.049
 4594POPC   C4B60058  15.256  28.057   7.464
 4595POPC   NC360059  11.468  31.598   5.337
 4595POPC   PO460060  10.855  31.247   5.278
 4595POPC   GL160061  11.003  31.412   5.700
 4595POPC   GL260062  11.046  31.777   5.750
 4595POPC   C1A60063  10.871  31.463   6.153
 4595POPC   D2A60064  11.083  31.483   6.547
 4595POPC   C3A60065  10.922  31.585   6.941
 4595POPC   C4A60066  11.112  31.496   7.370
 4595POPC   C1B60067  11.333  31.692   6.117
 4595POPC   C2B60068  11.500  31.770   6.551
 4595POPC   C3B60069  11.431  31.541   6.966
 4595POPC   C4B60070  11.659  31.330   7.326
 4596POPC   NC360071  26.524  12.456   5.503
 4596POPC   PO460072  26.711  13.059   5.383
 4596POPC   GL160073  26.828  13.018   5.790
 4596POPC   GL260074  26.757  12.702   5.862
 4596POPC   C1A60075  26.744  12.997   6.244
 4596POPC   D2A60076  26.923  13.080   6.607
 4596POPC   C3A60077  26.718  12.901   6.929
 4596POPC   C4A60078  26.867  12.739   7.271
 4596POPC   C1B60079  26.579  12.495   6.237
 4596POPC   C2B60080  26.668  12.468   6.669
 4596POPC   C3B60081  26.526  12.401   7.094
 4596POPC   C4B60082  26.416  12.578   7.522
 4597POPC   NC360083  44.802  13.615   5.262
 4597POPC   PO460084  44.310  13.179   5.373
 4597POPC   GL160085  44.451  13.513   5.728
 4597POPC   GL260086  44.838  13.565   5.776
 4597POPC   C1A60087  44.570  13.622   6.190
 4597POPC   D2A60088  44.841  13.422   6.511
 4597POPC   C3A60089  44.681  13.456   6.945
 4597POPC   C4A60090  44.460  13.817   7.120
 4597POPC   C1B60091   0.096  13.814   6.087
 4597POPC   C2B60092   0.185  13.831   6.529
 4597POPC   C3B60093   0.024  13.876   6.954
 4597POPC   C4B60094   0.190  14.025   7.367
 4598POPC   NC360095  29.997  19.572   5.079
 4598POPC   PO460096  30.105  20.186   5.437
 4598POPC   GL160097  29.803  19.903   5.721
 4598POPC   GL260098  29.528  19.599   5.690
 4598POPC   C1A60099  29.859  19.746   6.160
 4598POPC   D2A60100  29.979  19.952   6.561
 4598POPC   C3A60101  30.114  19.646   6.868
 4598POPC   C4A60102  30.068  19.452   7.279
 4598POPC   C1B60103  29.428  19.464   6.148
 4598POPC   C2B60104  29.327  19.377   6.626
 4598POPC   C3B60105  29.570  19.520   7.031
 4598POPC   C4B60106  29.618  19.439   7.506
 4599POPC   NC360107  20.309  28.919   5.432
 4599POPC   PO460108  20.946  29.273   5.476
 4599POPC   GL160109  20.731  28.982   5.734
 4599POPC   GL260110  20.480  29.165   5.887
 4599POPC   C1A60111  20.853  28.824   6.132
 4599POPC   D2A60112  20.816  29.006   6.541
 4599POPC   C3A60113  21.002  28.847   6.907
 4599POPC   C4A60114  20.803  29.039   7.233
 4599POPC   C1B60115  20.315  28.817   6.108
 4599POPC   C2B60116  20.319  28.743   6.532
 4599POPC   C3B60117  20.382  29.011   6.871
 4599POPC   C4B60118  20.285  28.898   7.260
 4600POPC   NC360119  13.556  11.719   5.338
 4600POPC   PO460120  13.763  12.392   5.287
 4600POPC   GL160121  13.408  12.277   5.618
 4600POPC   GL260122  13.364  11.931   5.742
 4600POPC   C1A60123  13.365  12.264   6.108
 4600POPC   D2A60124  13.668  12.075   6.407
 4600POPC   C3A60125  13.557  12.138   6.836
 4600POPC   C4A60126  13.779  12.324   7.183
 4600POPC   C1B60127  13.325  11.641   6.084
 4600POPC   C2B60128  13.415  11.650   6.527
 4600POPC   C3B60129  13.173  11.781   6.873
 4600POPC   C4B60130  13.457  11.802   7.212
 4601POPC   NC360131  43.270   4.047   5.382
 4601POPC   PO460132  43.439   4.512   5.748
 4601POPC   GL160133  43.112   4.299   5.895
 4601POPC   GL260134  42.864   4.566   5.919
 4601POPC   C1A60135  43.214   4.079   6.291
 4601POPC   D2A60136  43.423   4.194   6.667
 4601POPC   C3A60137  43.183   4.230   7.052
 4601POPC   C4A60138  43.196   4.257   7.531
 4601POPC   C1B60139  43.120   4.598   6.313
 4601POPC   C2B60140  43.180   4.709   6.734
 4601POPC   C3B60141  42.857   4.620   7.024
 4601POPC   C4B60142  42.821   4.554   7.460
 4602POPC   NC360143  42.784  28.233   5.010
 4602POPC   PO460144  43.322  28.384   5.334
 4602POPC   GL160145  43.250  28.501   5.768
 4602POPC   GL260146  42.924  28.587   5.895
 4602POPC   C1A60147  43.354  28.621   6.180
 4602POPC   D2A60148  43.469  28.702   6.594
 4602POPC   C3A60149  43.311  28.386   6.872
 4602POPC   C4A60150  43.118  28.257   7.229
 4602POPC   C1B60151  42.969  28.213   6.206
 4602POPC   C2B60152  42.822  28.102   6.652
 4602POPC   C3B60153  42.697  28.008   7.110
 4602POPC   C4B60154  42.831  28.044   7.597
 4603POPC   NC360155  34.153  26.172   5.627
 4603POPC   PO460156  33.418  26.321   5.473
 4603POPC   GL160157  33.485  26.036   5.815
 4603POPC   GL260158  33.806  25.847   5.856
 4603POPC   C1A60159  33.568  26.084   6.245
 4603POPC   D2A60160  33.714  25.934   6.623
 4603POPC   C3A60161  33.640  26.252   6.908
 4603POPC   C4A60162  33.548  26.170   7.306
 4603POPC   C1B60163  34.083  25.945   6.237
 4603POPC   C2B60164  34.234  25.987   6.663
 4603POPC   C3B60165  34.131  26.213   7.047
 4603POPC   C4B60166  34.016  26.233   7.478
 4604POPC   NC360167  36.893  38.618   5.394
 4604POPC   PO460168  36.402  38.159   5.312
 4604POPC   GL160169  36.601  38.277   5.753
 4604POPC   GL260170  36.623  38.635   5.856
 4604POPC   C1A60171  36.686  38.218   6.243
 4604POPC   D2A60172  36.645  38.064   6.706
 4604POPC   C3A60173  36.679  38.368   7.062
 4604POPC   C4A60174  36.916  38.334   7.434
 4604POPC   C1B60175  37.059  38.516   6.039
 4604POPC   C2B60176  37.191  38.398   6.465
 4604POPC   C3B60177  37.177  38.358   6.908
 4604POPC   C4B60178  37.223  38.657   7.220
 4605POPC   NC360179   5.477  20.912   5.374
 4605POPC   PO460180   5.079  20.347   5.314
 4605POPC   GL160181   4.956  20.422   5.749
 4605POPC   GL260182   4.969  20.762   5.790
 4605POPC   C1A60183   5.127  20.521   6.203
 4605POPC   D2A60184   4.929  20.700   6.588
 4605POPC   C3A60185   4.965  20.401   6.929
 4605POPC   C4A60186   5.076  20.389   7.374
 4605POPC   C1B60187   5.349  20.919   6.005
 4605POPC   C2B60188   5.357  20.958   6.453
 4605POPC   C3B60189   5.416  20.639   6.787
 4605POPC   C4B60190   5.369  20.795   7.209
 4606POPC   NC360191   7.599  16.297   5.400
 4606POPC   PO460192   7.337  15.550   5.377
 4606POPC   GL160193   7.512  15.864   5.693
 4606POPC   GL260194   7.264  16.081   5.795
 4606POPC   C1A60195   7.674  15.983   6.130
 4606POPC   D2A60196   7.443  15.998   6.537
 4606POPC   C3A60197   7.361  15.795   6.941
 4606POPC   C4A60198   7.444  15.878   7.385
 4606POPC   C1B60199   7.206  16.312   6.184
 4606POPC   C2B60200   7.315  16.518   6.571
 4606POPC   C3B60201   7.370  16.300   6.966
 4606POPC   C4B60202   7.065  16.192   7.302
 4607POPC   NC360203  27.035  13.802   5.401
 4607POPC   PO460204  26.440  14.107   5.426
 4607POPC   GL160205  26.674  13.903   5.753
 4607POPC   GL260206  26.719  13.513   5.655
 4607POPC   C1A60207  26.875  13.958   6.160
 4607POPC   D2A60208  26.884  13.715   6.539
 4607POPC   C3A60209  27.024  13.788   6.929
 4607POPC   C4A60210  26.679  13.875   7.146
 4607POPC   C1B60211  26.774  13.463   6.089
 4607POPC   C2B60212  26.517  13.392   6.492
 4607POPC   C3B60213  26.658  13.404   6.933
 4607POPC   C4B60214  27.063  13.250   7.108
 4608POPC   NC360215  31.520  39.791   5.328
 4608POPC   PO460216  31.351  40.462   5.231
 4608POPC   GL160217  31.310  40.191   5.619
 4608POPC   GL260218  31.633  40.190   5.806
 4608POPC   C1A60219  31.188  40.200   6.077
 4608POPC   D2A60220  31.462  40.208   6.443
 4608POPC   C3A60221  31.301  40.150   6.859
 4608POPC   C4A60222  31.417  39.977   7.267
 4608POPC   C1B60223  31.575  39.829   6.119
 4608POPC   C2B60224  31.679  39.727   6.591
 4608POPC   C3B60225  31.926  39.713   7.007
 4608POPC   C4B60226  31.952  39.775   7.482
 4609POPC   NC360227   9.787   2.755   5.331
 4609POPC   PO460228  10.335   2.983   5.583
 4609POPC   GL160229   9.979   2.818   5.808
 4609POPC   GL260230  10.223   2.806   6.044
 4609POPC   C1A60231   9.641   2.820   6.142
 4609POPC   D2A60232   9.390   2.593   6.495
 4609POPC   C3A60233   9.485   2.675   6.951
 4609POPC   C4A60234   9.366   2.781   7.407
 4609POPC   C1B60235  10.103   2.567   6.354
 4609POPC   C2B60236   9.854   2.813   6.611
 4609POPC   C3B60237   9.839   3.054   6.950
 4609POPC   C4B60238   9.945   2.762   7.287
 4610POPC   NC360239  18.684   1.473   5.478
 4610POPC   PO460240  18.848   2.099   5.306
 4610POPC   GL160241  18.883   1.915   5.737
 4610POPC   GL260242  18.656   1.707   5.938
 4610POPC   C1A60243  18.992   1.958   6.184
 4610POPC   D2A60244  18.761   1.939   6.552
 4610POPC   C3A60245  19.025   2.157   6.866
 4610POPC   C4A60246  19.256   2.268   7.276
 4610POPC   C1B60247  18.692   1.473   6.298
 4610POPC   C2B60248  18.643   1.382   6.711
 4610POPC   C3B60249  18.739   1.516   7.087
 4610POPC   C4B60250  18.999   1.823   7.228
 4611POPC   NC360251  35.346   0.008   5.422
 4611POPC   PO460252  35.062  44.442   5.535
 4611POPC   GL160253  35.369  44.494   5.889
 4611POPC   GL260254  35.439  44.820   5.891
 4611POPC   C1A60255  35.585  44.461   6.295
 4611POPC   D2A60256  35.307  44.474   6.656
 4611POPC   C3A60257  35.389  44.588   7.094
 4611POPC   C4A60258  35.070  44.775   7.317
 4611POPC   C1B60259  35.244  44.842   6.293
 4611POPC   C2B60260  35.489  44.943   6.682
 4611POPC   C3B60261  35.507   0.075   7.129
 4611POPC   C4B60262  35.446   0.016   7.580
 4612POPC   NC360263   1.780  19.222   5.572
 4612POPC   PO460264   2.370  19.070   5.866
 4612POPC   GL160265   1.982  19.175   6.035
 4612POPC   GL260266   1.737  18.898   5.964
 4612POPC   C1A60267   1.817  19.295   6.410
 4612POPC   D2A60268   1.494  19.325   6.690
 4612POPC   C3A60269   1.715  19.190   7.036
 4612POPC   C4A60270   2.125  19.211   7.156
 4612POPC   C1B60271   1.844  18.776   6.350
 4612POPC   C2B60272   2.116  18.682   6.655
 4612POPC   C3B60273   1.985  18.733   7.056
 4612POPC   C4B60274   1.594  18.743   7.261
 4613POPC   NC360275  32.571  29.306   5.372
 4613POPC   PO460276  31.919  29.032   5.549
 4613POPC   GL160277  32.286  29.157   5.770
 4613POPC   GL260278  32.227  29.528   5.741
 4613POPC   C1A60279  32.522  29.239   6.187
 4613POPC   D2A60280  32.568  28.975   6.583
 4613POPC   C3A60281  32.324  29.087   6.971
 4613POPC   C4A60282  32.537  29.128   7.386
 4613POPC   C1B60283  32.029  29.387   6.146
 4613POPC   C2B60284  32.112  29.397   6.598
 4613POPC   C3B60285  31.936  29.465   7.001
 4613POPC   C4B60286  32.020  29.265   7.389
 4614POPC   NC360287  41.579  23.415   5.541
 4614POPC   PO460288  41.627  24.107   5.449
 4614POPC   GL160289  41.620  23.917   5.886
 4614POPC   GL260290  41.586  23.561   6.007
 4614POPC   C1A60291  41.693  23.916   6.343
 4614POPC   D2A60292  41.931  24.113   6.641
 4614POPC   C3A60293  41.938  23.882   6.987
 4614POPC   C4A60294  41.762  23.909   7.360
 4614POPC   C1B60295  41.277  23.300   6.201
 4614POPC   C2B60296  41.264  23.239   6.658
 4614POPC   C3B60297  41.472  23.410   7.013
 4614POPC   C4B60298  41.742  23.397   7.371
 4615POPC   NC360299  10.086  33.656   5.454
 4615POPC   PO460300   9.469  33.924   5.496
 4615POPC   GL160301   9.622  33.771   5.873
 4615POPC   GL260302   9.909  33.572   5.915
 4615POPC   C1A60303   9.608  33.710   6.305
 4615POPC   D2A60304   9.359  33.752   6.680
 4615POPC   C3A60305   9.456  33.640   7.105
 4615POPC   C4A60306   9.653  33.821   7.466
 4615POPC   C1B60307   9.968  33.335   6.297
 4615POPC   C2B60308   9.843  33.465   6.725
 4615POPC   C3B60309  10.006  33.649   7.131
 4615POPC   C4B60310  10.091  33.598   7.607
 4616POPC   NC360311  20.868  14.896   5.372
 4616POPC   PO460312  21.300  14.535   5.317
 4616POPC   GL160313  21.634  14.481   5.698
 4616POPC   GL260314  21.539  14.705   5.968
 4616POPC   C1A60315  21.788  14.282   6.139
 4616POPC   D2A60316  21.746  14.142   6.626
 4616POPC   C3A60317  21.726  14.388   7.048
 4616POPC   C4A60318  21.557  14.345   7.475
 4616POPC   C1B60319  21.529  14.605   6.441
 4616POPC   C2B60320  21.291  14.404   6.785
 4616POPC   C3B60321  21.149  14.499   7.198
 4616POPC   C4B60322  21.256  14.769   7.525
 4617POPC   NC360323  24.954  26.610   5.152
 4617POPC   PO460324  25.500  26.886   5.381
 4617POPC   GL160325  25.409  26.831   5.832
 4617POPC   GL260326  25.730  26.744   5.932
 4617POPC   C1A60327  25.326  26.871   6.323
 4617POPC   D2A60328  25.246  27.064   6.771
 4617POPC   C3A60329  25.097  26.858   7.196
 4617POPC   C4A60330  25.093  26.976   7.655
 4617POPC   C1B60331  25.770  26.605   6.315
 4617POPC   C2B60332  25.668  26.697   6.699
 4617POPC   C3B60333  25.594  26.790   7.069
 4617POPC   C4B60334  25.486  26.430   7.291
 4618POPC   NC360335  41.948   5.114   5.707
 4618POPC   PO460336  41.317   4.948   5.493
 4618POPC   GL160337  41.462   4.932   5.897
 4618POPC   GL260338  41.465   5.314   5.910
 4618POPC   C1A60339  41.566   4.743   6.327
 4618POPC   D2A60340  41.689   4.943   6.733
 4618POPC   C3A60341  41.632   4.944   7.174
 4618POPC   C4A60342  41.663   4.928   7.614
 4618POPC   C1B60343  41.259   5.188   6.295
 4618POPC   C2B60344  41.039   5.342   6.682
 4618POPC   C3B60345  41.274   5.528   7.031
 4618POPC   C4B60346  41.505   5.384   7.393
 4619POPC   NC360347  38.106  26.829   5.613
 4619POPC   PO460348  37.653  27.156   5.279
 4619POPC   GL160349  37.618  26.993   5.732
 4619POPC   GL260350  37.506  26.648   5.826
 4619POPC   C1A60351  37.730  27.051   6.181
 4619POPC   D2A60352  37.766  27.321   6.549
 4619POPC   C3A60353  37.811  27.072   6.906
 4619POPC   C4A60354  37.634  26.801   7.178
 4619POPC   C1B60355  37.776  26.535   6.199
 4619POPC   C2B60356  37.827  26.622   6.650
 4619POPC   C3B60357  37.771  26.357   7.012
 4619POPC   C4B60358  37.488  26.372   7.407
 4620POPC   NC360359  32.454  40.104   5.015
 4620POPC   PO460360  31.966  39.921   5.458
 4620POPC   GL160361  32.178  40.021   5.822
 4620POPC   GL260362  32.112  40.380   5.887
 4620POPC   C1A60363  32.353  39.753   6.161
 4620POPC   D2A60364  32.200  39.598   6.540
 4620POPC   C3A60365  32.365  39.904   6.814
 4620POPC   C4A60366  32.431  39.864   7.228
 4620POPC   C1B60367  31.977  40.126   6.285
 4620POPC   C2B60368  31.892  40.172   6.745
 4620POPC   C3B60369  32.047  40.195   7.171
 4620POPC   C4B60370  32.461  40.338   7.375
 4621POPC   NC360371   7.904  29.383   5.496
 4621POPC   PO460372   7.873  28.724   5.387
 4621POPC   GL160373   8.159  28.917   5.775
 4621POPC   GL260374   8.332  29.264   5.804
 4621POPC   C1A60375   8.206  29.009   6.227
 4621POPC   D2A60376   8.141  29.295   6.570
 4621POPC   C3A60377   8.224  29.039   6.908
 4621POPC   C4A60378   8.207  28.805   7.288
 4621POPC   C1B60379   8.625  29.315   6.194
 4621POPC   C2B60380   8.660  29.258   6.653
 4621POPC   C3B60381   8.491  29.470   6.997
 4621POPC   C4B60382   8.424  29.346   7.425
 4622POPC   NC360383   0.176  23.767   5.381
 4622POPC   PO460384   0.833  23.767   5.281
 4622POPC   GL160385   0.604  23.854   5.651
 4622POPC   GL260386   0.448  23.553   5.767
 4622POPC   C1A60387   0.652  23.898   6.096
 4622POPC   D2A60388   0.582  23.762   6.524
 4622POPC   C3A60389   0.733  23.983   6.871
 4622POPC   C4A60390   0.461  23.947   7.215
 4622POPC   C1B60391   0.225  23.613   6.167
 4622POPC   C2B60392   0.234  23.368   6.559
 4622POPC   C3B60393   0.357  23.471   6.993
 4622POPC   C4B60394   0.494  23.485   7.427
 4623POPC   NC360395  27.467  32.076   5.415
 4623POPC   PO460396  28.062  31.971   5.493
 4623POPC   GL160397  27.802  32.311   5.742
 4623POPC   GL260398  27.457  32.330   5.865
 4623POPC   C1A60399  27.861  32.478   6.162
 4623POPC   D2A60400  27.774  32.248   6.528
 4623POPC   C3A60401  27.528  32.288   6.908
 4623POPC   C4A60402  27.778  32.288   7.257
 4623POPC   C1B60403  27.359  32.089   6.250
 4623POPC   C2B60404  27.462  31.803   6.577
 4623POPC   C3B60405  27.309  31.827   6.970
 4623POPC   C4B60406  27.373  32.003   7.335
 4624POPC   NC360407   2.386  21.010   5.375
 4624POPC   PO460408   2.011  21.560   5.350
 4624POPC   GL160409   2.080  21.584   5.747
 4624POPC   GL260410   1.886  21.297   5.799
 4624POPC   C1A60411   1.938  21.620   6.165
 4624POPC   D2A60412   1.900  21.280   6.434
 4624POPC   C3A60413   1.875  21.427   6.833
 4624POPC   C4A60414   2.073  21.628   7.164
 4624POPC   C1B60415   2.057  20.944   6.010
 4624POPC   C2B60416   2.230  20.864   6.404
 4624POPC   C3B60417   2.155  20.999   6.819
 4624POPC   C4B60418   1.987  21.101   7.214
 4625POPC   NC360419   0.793  12.426   5.453
 4625POPC   PO460420   1.513  12.461   5.356
 4625POPC   GL160421   1.412  12.621   5.793
 4625POPC   GL260422   1.046  12.678   5.884
 4625POPC   C1A60423   1.447  12.674   6.235
 4625POPC   D2A60424   1.150  12.595   6.576
 4625POPC   C3A60425   1.218  12.627   7.033
 4625POPC   C4A60426   1.425  12.457   7.432
 4625POPC   C1B60427   0.941  12.972   6.256
 4625POPC   C2B60428   0.878  13.157   6.710
 4625POPC   C3B60429   0.903  13.048   7.169
 4625POPC   C4B60430   0.726  13.077   7.591
 4626POPC   NC360431  30.934  33.734   5.487
 4626POPC   PO460432  30.333  34.132   5.571
 4626POPC   GL160433  30.572  34.000   5.966
 4626POPC   GL260434  30.926  33.966   5.933
 4626POPC   C1A60435  30.698  33.882   6.409
 4626POPC   D2A60436  30.915  34.150   6.729
 4626POPC   C3A60437  30.816  34.074   7.141
 4626POPC   C4A60438  30.490  33.861   7.216
 4626POPC   C1B60439  31.049  33.608   6.151
 4626POPC   C2B60440  31.102  33.618   6.577
 4626POPC   C3B60441  30.967  33.407   6.926
 4626POPC   C4B60442  30.917  33.597   7.288
 4627POPC   NC360443  15.121  22.546   5.309
 4627POPC   PO460444  14.767  21.976   5.281
 4627POPC   GL160445  15.051  22.013   5.684
 4627POPC   GL260446  15.133  22.358   5.785
 4627POPC   C1A60447  15.051  21.958   6.171
 4627POPC   D2A60448  15.255  22.056   6.588
 4627POPC   C3A60449  15.149  21.878   6.992
 4627POPC   C4A60450  15.030  22.049   7.385
 4627POPC   C1B60451  15.288  22.424   6.205
 4627POPC   C2B60452  15.370  22.561   6.625
 4627POPC   C3B60453  15.280  22.400   7.042
 4627POPC   C4B60454  14.949  22.562   7.338
 4628POPC   NC360455  15.688   5.973   5.030
 4628POPC   PO460456  16.219   5.636   5.245
 4628POPC   GL160457  15.975   5.818   5.653
 4628POPC   GL260458  15.656   6.016   5.575
 4628POPC   C1A60459  16.029   5.852   6.145
 4628POPC   D2A60460  16.195   6.003   6.580
 4628POPC   C3A60461  16.204   5.672   6.913
 4628POPC   C4A60462  16.075   5.644   7.344
 4628POPC   C1B60463  15.635   6.158   6.020
 4628POPC   C2B60464  15.706   6.171   6.474
 4628POPC   C3B60465  15.751   5.954   6.877
 4628POPC   C4B60466  15.697   6.030   7.319
 4629POPC   NC360467   6.632  31.386   5.413
 4629POPC   PO460468   6.525  32.033   5.376
 4629POPC   GL160469   6.611  31.779   5.775
 4629POPC   GL260470   6.894  31.902   5.943
 4629POPC   C1A60471   6.674  31.425   6.118
 4629POPC   D2A60472   6.622  31.396   6.600
 4629POPC   C3A60473   6.495  31.361   7.059
 4629POPC   C4A60474   6.778  31.321   7.450
 4629POPC   C1B60475   6.643  31.873   6.340
 4629POPC   C2B60476   6.705  31.880   6.791
 4629POPC   C3B60477   6.699  31.791   7.242
 4629POPC   C4B60478   6.939  31.763   7.647
 4630POPC   NC360479  27.365  16.164   5.237
 4630POPC   PO460480  26.645  16.259   5.382
 4630POPC   GL160481  27.038  16.172   5.622
 4630POPC   GL260482  27.178  16.516   5.670
 4630POPC   C1A60483  27.127  15.915   5.997
 4630POPC   D2A60484  26.878  15.927   6.368
 4630POPC   C3A60485  26.992  15.932   6.789
 4630POPC   C4A60486  26.699  16.048   7.072
 4630POPC   C1B60487  26.987  16.408   6.079
 4630POPC   C2B60488  27.041  16.421   6.537
 4630POPC   C3B60489  27.105  16.388   6.991
 4630POPC   C4B60490  27.096  16.186   7.392
 4631POPC   NC360491   8.431  34.760   5.284
 4631POPC   PO460492   7.900  34.347   5.372
 4631POPC   GL160493   8.126  34.576   5.725
 4631POPC   GL260494   8.349  34.868   5.763
 4631POPC   C1A60495   8.295  34.525   6.148
 4631POPC   D2A60496   8.184  34.329   6.487
 4631POPC   C3A60497   8.242  34.557   6.879
 4631POPC   C4A60498   8.339  34.330   7.259
 4631POPC   C1B60499   8.433  35.017   6.163
 4631POPC   C2B60500   8.531  34.861   6.554
 4631POPC   C3B60501   8.490  35.032   6.932
 4631POPC   C4B60502   8.444  34.827   7.285
 4632POPC   NC360503  28.862   4.869   5.319
 4632POPC   PO460504  29.097   5.554   5.295
 4632POPC   GL160505  29.111   5.228   5.652
 4632POPC   GL260506  28.886   4.967   5.800
 4632POPC   C1A60507  29.139   5.259   6.133
 4632POPC   D2A60508  29.021   5.444   6.544
 4632POPC   C3A60509  29.318   5.271   6.907
 4632POPC   C4A60510  29.265   5.295   7.364
 4632POPC   C1B60511  29.040   4.759   6.168
 4632POPC   C2B60512  29.103   4.936   6.578
 4632POPC   C3B60513  28.991   4.872   7.027
 4632POPC   C4B60514  28.924   4.924   7.475
 4633POPC   NC360515  42.488  34.941   5.538
 4633POPC   PO460516  42.069  34.502   5.430
 4633POPC   GL160517  42.168  34.435   5.842
 4633POPC   GL260518  42.458  34.624   5.953
 4633POPC   C1A60519  42.024  34.531   6.255
 4633POPC   D2A60520  42.412  34.601   6.494
 4633POPC   C3A60521  42.328  34.662   6.914
 4633POPC   C4A60522  42.485  34.527   7.305
 4633POPC   C1B60523  42.626  34.975   6.247
 4633POPC   C2B60524  42.690  34.982   6.695
 4633POPC   C3B60525  42.673  34.971   7.159
 4633POPC   C4B60526  42.812  34.897   7.594
 4634POPC   NC360527  41.034   1.516   5.518
 4634POPC   PO460528  40.547   1.147   5.215
 4634POPC   GL160529  40.677   1.175   5.655
 4634POPC   GL260530  40.527   0.925   5.832
 4634POPC   C1A60531  40.721   1.273   6.130
 4634POPC   D2A60532  40.687   0.961   6.475
 4634POPC   C3A60533  40.595   1.111   6.878
 4634POPC   C4A60534  40.637   0.958   7.260
 4634POPC   C1B60535  40.967   0.813   6.034
 4634POPC   C2B60536  41.152   0.669   6.458
 4634POPC   C3B60537  41.014   0.794   6.890
 4634POPC   C4B60538  41.067   1.191   7.147
 4635POPC   NC360539  12.390  17.246   5.022
 4635POPC   PO460540  11.760  17.415   5.224
 4635POPC   GL160541  11.924  17.603   5.642
 4635POPC   GL260542  12.239  17.488   5.818
 4635POPC   C1A60543  11.851  17.551   6.120
 4635POPC   D2A60544  12.143  17.657   6.435
 4635POPC   C3A60545  12.082  17.608   6.859
 4635POPC   C4A60546  12.065  17.791   7.259
 4635POPC   C1B60547  12.135  17.128   6.141
 4635POPC   C2B60548  12.147  17.160   6.571
 4635POPC   C3B60549  12.011  17.099   7.001
 4635POPC   C4B60550  12.101  17.149   7.458
 4636POPC   NC360551   0.013  20.325   5.244
 4636POPC   PO460552  44.538  20.823   5.232
 4636POPC   GL160553  44.509  20.796   5.665
 4636POPC   GL260554  44.813  20.606   5.646
 4636POPC   C1A60555  44.623  20.860   6.099
 4636POPC   D2A60556  44.372  20.704   6.444
 4636POPC   C3A60557  44.498  20.765   6.868
 4636POPC   C4A60558  44.313  20.776   7.268
 4636POPC   C1B60559  44.797  20.385   6.016
 4636POPC   C2B60560  44.869  20.476   6.446
 4636POPC   C3B60561  44.860  20.389   6.884
 4636POPC   C4B60562  44.801  20.564   7.299
 4637POPC   NC360563  19.352  40.959   5.671
 4637POPC   PO460564  19.124  40.484   5.371
 4637POPC   GL160565  18.937  40.488   5.806
 4637POPC   GL260566  19.237  40.551   6.004
 4637POPC   C1A60567  18.822  40.691   6.242
 4637POPC   D2A60568  19.026  40.897   6.611
 4637POPC   C3A60569  18.781  40.843   6.990
 4637POPC   C4A60570  18.479  41.069   7.233
 4637POPC   C1B60571  19.252  40.458   6.476
 4637POPC   C2B60572  19.225  40.493   6.915
 4637POPC   C3B60573  19.286  40.891   7.069
 4637POPC   C4B60574  19.678  41.126   7.119
 4638POPC   NC360575  36.024   6.227   5.333
 4638POPC   PO460576  36.407   5.686   5.327
 4638POPC   GL160577  36.311   5.932   5.729
 4638POPC   GL260578  36.610   6.097   5.885
 4638POPC   C1A60579  36.079   6.129   6.116
 4638POPC   D2A60580  36.046   6.324   6.578
 4638POPC   C3A60581  35.947   6.148   7.040
 4638POPC   C4A60582  36.041   5.802   7.397
 4638POPC   C1B60583  36.539   6.230   6.309
 4638POPC   C2B60584  36.565   6.148   6.736
 4638POPC   C3B60585  36.405   5.909   7.066
 4638POPC   C4B60586  36.475   5.489   7.252
 4639POPC   NC360587   1.209  11.177   5.271
 4639POPC   PO460588   1.254  10.495   5.305
 4639POPC   GL160589   1.152  10.470   5.807
 4639POPC   GL260590   1.255  10.199   6.076
 4639POPC   C1A60591   1.071  10.643   6.237
 4639POPC   D2A60592   1.230  10.463   6.623
 4639POPC   C3A60593   1.074  10.541   7.020
 4639POPC   C4A60594   1.179  10.353   7.419
 4639POPC   C1B60595   1.568  10.569   6.239
 4639POPC   C2B60596   1.720  10.712   6.646
 4639POPC   C3B60597   1.603  10.552   7.055
 4639POPC   C4B60598   1.688  10.416   7.468
 4640POPC   NC360599  40.249  43.302   5.615
 4640POPC   PO460600  40.745  43.359   5.061
 4640POPC   GL160601  40.739  43.179   5.572
 4640POPC   GL260602  40.898  42.899   5.642
 4640POPC   C1A60603  40.762  43.201   6.077
 4640POPC   D2A60604  40.986  43.358   6.500
 4640POPC   C3A60605  40.829  43.395   6.967
 4640POPC   C4A60606  40.750  43.260   7.439
 4640POPC   C1B60607  40.889  42.708   6.039
 4640POPC   C2B60608  40.883  42.833   6.459
 4640POPC   C3B60609  41.097  42.953   6.830
 4640POPC   C4B60610  40.936  42.845   7.207
 4641POPC   NC360611  39.549   2.133   5.445
 4641POPC   PO460612  39.011   1.634   5.429
 4641POPC   GL160613  39.331   1.784   5.762
 4641POPC   GL260614  39.349   2.146   5.914
 4641POPC   C1A60615  39.352   1.685   6.191
 4641POPC   D2A60616  38.983   1.724   6.462
 4641POPC   C3A60617  39.028   1.932   6.866
 4641POPC   C4A60618  39.044   2.387   6.871
 4641POPC   C1B60619  39.283   2.173   6.355
 4641POPC   C2B60620  39.469   1.904   6.652
 4641POPC   C3B60621  39.490   2.124   7.031
 4641POPC   C4B60622  39.468   2.427   7.349
 4642POPC   NC360623   9.895   7.557   5.433
 4642POPC   PO460624   9.297   7.204   5.420
 4642POPC   GL160625   9.572   7.364   5.769
 4642POPC   GL260626   9.548   7.762   5.779
 4642POPC   C1A60627   9.696   7.172   6.162
 4642POPC   D2A60628   9.508   7.091   6.558
 4642POPC   C3A60629   9.797   7.126   6.889
 4642POPC   C4A60630   9.686   7.216   7.290
 4642POPC   C1B60631   9.848   7.664   6.122
 4642POPC   C2B60632   9.773   7.551   6.555
 4642POPC   C3B60633   9.873   7.709   6.964
 4642POPC   C4B60634   9.836   7.679   7.408
 4643POPC   NC360635  12.396  27.011   5.322
 4643POPC   PO460636  12.185  27.732   5.284
 4643POPC   GL160637  12.166  27.626   5.731
 4643POPC   GL260638  12.443  27.809   5.817
 4643POPC   C1A60639  12.082  27.404   6.148
 4643POPC   D2A60640  11.823  27.317   6.565
 4643POPC   C3A60641  12.072  27.320   6.951
 4643POPC   C4A60642  12.229  27.544   7.328
 4643POPC   C1B60643  12.174  27.912   6.164
 4643POPC   C2B60644  12.100  27.735   6.547
 4643POPC   C3B60645  12.080  27.841   6.932
 4643POPC   C4B60646  12.398  27.997   7.214
 4644POPC   NC360647  23.942  44.395   5.407
 4644POPC   PO460648  23.460  44.832   5.237
 4644POPC   GL160649  23.662  44.793   5.663
 4644POPC   GL260650  23.590  44.440   5.772
 4644POPC   C1A60651  23.525  44.822   6.118
 4644POPC   D2A60652  23.597  44.543   6.502
 4644POPC   C3A60653  23.515  44.732   6.906
 4644POPC   C4A60654  23.706  44.719   7.304
 4644POPC   C1B60655  23.920  44.455   6.086
 4644POPC   C2B60656  24.127  44.586   6.467
 4644POPC   C3B60657  24.015  44.596   6.891
 4644POPC   C4B60658  24.087  44.346   7.239
 4645POPC   NC360659   4.582  16.398   5.134
 4645POPC   PO460660   4.218  15.867   5.466
 4645POPC   GL160661   4.122  15.851   5.849
 4645POPC   GL260662   4.015  16.191   5.848
 4645POPC   C1A60663   4.287  15.626   6.203
 4645POPC   D2A60664   4.135  15.394   6.563
 4645POPC   C3A60665   4.264  15.603   6.942
 4645POPC   C4A60666   4.437  15.824   7.289
 4645POPC   C1B60667   4.244  16.207   6.219
 4645POPC   C2B60668   4.395  16.378   6.605
 4645POPC   C3B60669   4.278  16.227   7.011
 4645POPC   C4B60670   3.892  16.356   7.206
 4646POPC   NC360671  29.557   7.011   5.313
 4646POPC   PO460672  29.757   6.345   5.386
 4646POPC   GL160673  29.872   6.673   5.724
 4646POPC   GL260674  30.237   6.843   5.742
 4646POPC   C1A60675  29.799   6.472   6.138
 4646POPC   D2A60676  29.668   6.196   6.495
 4646POPC   C3A60677  29.779   6.392   6.881
 4646POPC   C4A60678  29.642   6.650   7.186
 4646POPC   C1B60679  30.248   6.683   6.188
 4646POPC   C2B60680  29.972   6.745   6.549
 4646POPC   C3B60681  30.059   6.859   6.953
 4646POPC   C4B60682  30.253   6.736   7.322
 4647POPC   NC360683  37.431  21.582   5.665
 4647POPC   PO460684  38.051  21.554   5.323
 4647POPC   GL160685  38.043  21.360   5.731
 4647POPC   GL260686  37.748  21.210   5.812
 4647POPC   C1A60687  37.961  21.484   6.186
 4647POPC   D2A60688  37.532  21.597   6.382
 4647POPC   C3A60689  37.558  21.587   6.830
 4647POPC   C4A60690  37.887  21.447   7.077
 4647POPC   C1B60691  37.620  21.095   6.246
 4647POPC   C2B60692  37.868  21.101   6.635
 4647POPC   C3B60693  37.790  20.945   7.040
 4647POPC   C4B60694  37.378  21.137   7.133
 4648POPC   NC360695   7.429  14.998   5.274
 4648POPC   PO460696   8.036  15.059   5.553
 4648POPC   GL160697   7.624  15.019   5.814
 4648POPC   GL260698   7.329  15.295   5.810
 4648POPC   C1A60699   7.497  15.160   6.253
 4648POPC   D2A60700   7.570  15.412   6.616
 4648POPC   C3A60701   7.651  15.067   6.876
 4648POPC   C4A60702   7.588  14.911   7.282
 4648POPC   C1B60703   7.286  15.633   6.158
 4648POPC   C2B60704   7.064  15.581   6.579
 4648POPC   C3B60705   7.159  15.319   6.967
 4648POPC   C4B60706   7.516  15.403   7.239
 4649POPC   NC360707  36.053   8.542   5.502
 4649POPC   PO460708  36.333   9.125   5.310
 4649POPC   GL160709  36.181   9.044   5.703
 4649POPC   GL260710  36.541   9.058   5.825
 4649POPC   C1A60711  36.125   9.022   6.148
 4649POPC   D2A60712  35.952   8.841   6.525
 4649POPC   C3A60713  36.149   8.975   6.917
 4649POPC   C4A60714  36.057   9.341   7.169
 4649POPC   C1B60715  36.546   9.305   6.228
 4649POPC   C2B60716  36.378   9.416   6.661
 4649POPC   C3B60717  36.596   9.241   7.034
 4649POPC   C4B60718  36.628   8.772   7.067
 4650POPC   NC360719   2.856   5.853   5.333
 4650POPC   PO460720   2.285   5.488   5.487
 4650POPC   GL160721   2.442   5.810   5.796
 4650POPC   GL260722   2.621   6.108   5.724
 4650POPC   C1A60723   2.725   5.859   6.172
 4650POPC   D2A60724   2.991   5.803   6.546
 4650POPC   C3A60725   2.759   5.864   6.930
 4650POPC   C4A60726   2.658   5.761   7.344
 4650POPC   C1B60727   3.064   6.167   5.969
 4650POPC   C2B60728   3.184   6.242   6.403
 4650POPC   C3B60729   3.168   6.177   6.862
 4650POPC   C4B60730   2.993   6.162   7.286
 4651POPC   NC360731  34.089  32.452   5.307
 4651POPC   PO460732  33.788  31.934   5.152
 4651POPC   GL160733  33.773  32.266   5.641
 4651POPC   GL260734  34.072  32.253   5.786
 4651POPC   C1A60735  33.739  32.218   6.150
 4651POPC   D2A60736  33.819  32.416   6.583
 4651POPC   C3A60737  33.708  32.395   7.035
 4651POPC   C4A60738  33.594  32.017   7.214
 4651POPC   C1B60739  34.169  32.648   5.990
 4651POPC   C2B60740  34.195  32.727   6.440
 4651POPC   C3B60741  34.258  32.450   6.832
 4651POPC   C4B60742  34.156  32.494   7.284
 4652POPC   NC360743  33.394  36.901   5.441
 4652POPC   PO460744  34.037  36.741   5.367
 4652POPC   GL160745  33.826  36.805   5.771
 4652POPC   GL260746  33.489  36.673   5.888
 4652POPC   C1A60747  33.889  36.705   6.212
 4652POPC   D2A60748  33.677  36.780   6.591
 4652POPC   C3A60749  33.788  36.986   6.962
 4652POPC   C4A60750  33.706  36.815   7.375
 4652POPC   C1B60751  33.530  37.067   6.168
 4652POPC   C2B60752  33.759  37.291   6.505
 4652POPC   C3B60753  33.519  37.425   6.844
 4652POPC   C4B60754  33.423  37.223   7.245
 4653POPC   NC360755  30.331  24.103   5.463
 4653POPC   PO460756  30.012  23.564   5.209
 4653POPC   GL160757  30.078  23.601   5.652
 4653POPC   GL260758  29.951  23.938   5.763
 4653POPC   C1A60759  30.095  23.536   6.119
 4653POPC   D2A60760  29.995  23.669   6.558
 4653POPC   C3A60761  30.053  23.615   7.025
 4653POPC   C4A60762  29.863  23.242   7.214
 4653POPC   C1B60763  29.700  23.927   6.152
 4653POPC   C2B60764  29.713  24.081   6.575
 4653POPC   C3B60765  29.644  23.923   6.966
 4653POPC   C4B60766  29.834  24.075   7.352
 4654POPC   NC360767  28.295   2.727   5.276
 4654POPC   PO460768  28.285   2.140   5.562
 4654POPC   GL160769  28.209   2.571   5.782
 4654POPC   GL260770  28.482   2.841   5.733
 4654POPC   C1A60771  28.244   2.821   6.198
 4654POPC   D2A60772  28.345   2.634   6.594
 4654POPC   C3A60773  28.127   2.778   6.918
 4654POPC   C4A60774  28.159   2.941   7.297
 4654POPC   C1B60775  28.623   3.132   6.050
 4654POPC   C2B60776  28.593   3.114   6.503
 4654POPC   C3B60777  28.642   2.957   6.923
 4654POPC   C4B60778  28.613   3.152   7.310
 4655POPC   NC360779  38.106  11.992   5.470
 4655POPC   PO460780  37.462  11.895   5.469
 4655POPC   GL160781  37.666  11.848   5.897
 4655POPC   GL260782  37.910  12.087   5.934
 4655POPC   C1A60783  37.780  11.713   6.360
 4655POPC   D2A60784  37.585  11.741   6.784
 4655POPC   C3A60785  37.849  11.930   7.116
 4655POPC   C4A60786  37.837  11.891   7.559
 4655POPC   C1B60787  37.672  12.197   6.284
 4655POPC   C2B60788  37.737  12.224   6.692
 4655POPC   C3B60789  37.786  12.475   7.049
 4655POPC   C4B60790  37.594  12.421   7.436
 4656POPC   NC360791  26.605  43.589   5.212
 4656POPC   PO460792  27.119  43.934   5.403
 4656POPC   GL160793  26.854  43.696   5.688
 4656POPC   GL260794  27.067  43.574   5.937
 4656POPC   C1A60795  26.622  43.724   6.108
 4656POPC   D2A60796  26.701  43.880   6.537
 4656POPC   C3A60797  26.924  43.655   6.859
 4656POPC   C4A60798  26.783  43.837   7.210
 4656POPC   C1B60799  27.100  43.941   6.200
 4656POPC   C2B60800  27.260  43.975   6.623
 4656POPC   C3B60801  27.150  44.123   7.020
 4656POPC   C4B60802  27.104  44.325   7.387
 4657POPC   NC360803  15.057  24.860   5.185
 4657POPC   PO460804  15.237  24.260   5.580
 4657POPC   GL160805  15.108  24.629   5.753
 4657POPC   GL260806  15.283  24.906   5.680
 4657POPC   C1A60807  14.955  24.708   6.154
 4657POPC   D2A60808  14.768  24.468   6.499
 4657POPC   C3A60809  14.988  24.374   6.880
 4657POPC   C4A60810  14.827  24.390   7.297
 4657POPC   C1B60811  15.489  24.747   6.062
 4657POPC   C2B60812  15.404  24.490   6.430
 4657POPC   C3B60813  15.412  24.658   6.838
 4657POPC   C4B60814  15.363  24.526   7.249
 4658POPC   NC360815  43.947  38.028   5.277
 4658POPC   PO460816  43.815  37.394   5.240
 4658POPC   GL160817  43.900  37.459   5.636
 4658POPC   GL260818  43.678  37.747   5.655
 4658POPC   C1A60819  43.971  37.562   6.046
 4658POPC   D2A60820  43.711  37.623   6.384
 4658POPC   C3A60821  43.959  37.458   6.717
 4658POPC   C4A60822  43.858  37.388   7.120
 4658POPC   C1B60823  43.694  38.038   6.006
 4658POPC   C2B60824  43.796  38.134   6.419
 4658POPC   C3B60825  43.790  37.923   6.806
 4658POPC   C4B60826  43.751  37.864   7.238
 4659POPC   NC360827  23.052  20.994   5.461
 4659POPC   PO460828  22.620  20.473   5.320
 4659POPC   GL160829  22.844  20.563   5.675
 4659POPC   GL260830  23.190  20.437   5.637
 4659POPC   C1A60831  22.912  20.629   6.120
 4659POPC   D2A60832  23.002  20.530   6.560
 4659POPC   C3A60833  22.891  20.863   6.858
 4659POPC   C4A60834  22.627  20.860   7.211
 4659POPC   C1B60835  23.344  20.312   6.068
 4659POPC   C2B60836  23.485  20.304   6.523
 4659POPC   C3B60837  23.325  20.385   6.967
 4659POPC   C4B60838  23.243  20.761   7.232
 4660POPC   NC360839  33.024  35.973   5.388
 4660POPC   PO460840  33.016  36.624   5.453
 4660POPC   GL160841  33.076  36.294   5.814
 4660POPC   GL260842  32.930  35.907   5.865
 4660POPC   C1A60843  33.246  36.354   6.242
 4660POPC   D2A60844  33.289  36.482   6.691
 4660POPC   C3A60845  33.164  36.179   7.000
 4660POPC   C4A60846  33.375  35.824   7.169
 4660POPC   C1B60847  32.777  36.090   6.223
 4660POPC   C2B60848  32.831  36.297   6.589
 4660POPC   C3B60849  32.680  36.359   6.986
 4660POPC   C4B60850  32.683  36.103   7.309
 4661POPC   NC360851  20.552  33.386   5.402
 4661POPC   PO460852  20.582  32.788   5.152
 4661POPC   GL160853  20.650  32.739   5.701
 4661POPC   GL260854  20.842  33.007   5.957
 4661POPC   C1A60855  20.544  32.718   6.217
 4661POPC   D2A60856  20.735  32.903   6.643
 4661POPC   C3A60857  20.420  32.891   7.015
 4661POPC   C4A60858  20.418  33.102   7.439
 4661POPC   C1B60859  20.592  33.280   6.248
 4661POPC   C2B60860  20.609  33.524   6.643
 4661POPC   C3B60861  20.687  33.329   7.041
 4661POPC   C4B60862  20.924  32.913   7.156
 4662POPC   NC360863  24.289  11.011   5.468
 4662POPC   PO460864  24.712  10.406   5.413
 4662POPC   GL160865  24.595  10.693   5.752
 4662POPC   GL260866  24.272  10.560   5.723
 4662POPC   C1A60867  24.360  10.885   6.119
 4662POPC   D2A60868  24.220  10.754   6.527
 4662POPC   C3A60869  24.553  10.757   6.814
 4662POPC   C4A60870  24.597  10.645   7.226
 4662POPC   C1B60871  24.446  10.321   6.058
 4662POPC   C2B60872  24.542  10.279   6.478
 4662POPC   C3B60873  24.492  10.253   6.895
 4662POPC   C4B60874  24.470  10.142   7.315
 4663POPC   NC360875   7.532  12.441   5.548
 4663POPC   PO460876   7.261  13.001   5.453
 4663POPC   GL160877   7.477  12.930   5.829
 4663POPC   GL260878   7.775  13.114   5.814
 4663POPC   C1A60879   7.375  12.801   6.253
 4663POPC   D2A60880   7.350  12.996   6.654
 4663POPC   C3A60881   7.349  12.737   7.004
 4663POPC   C4A60882   6.983  12.613   7.221
 4663POPC   C1B60883   7.701  13.232   6.232
 4663POPC   C2B60884   7.856  13.346   6.617
 4663POPC   C3B60885   7.734  13.114   6.976
 4663POPC   C4B60886   7.504  13.224   7.314
 4664POPC   NC360887  13.633   8.056   5.367
 4664POPC   PO460888  13.262   8.715   5.432
 4664POPC   GL160889  13.533   8.464   5.695
 4664POPC   GL260890  13.316   8.580   5.935
 4664POPC   C1A60891  13.640   8.206   6.104
 4664POPC   D2A60892  13.681   8.314   6.583
 4664POPC   C3A60893  13.733   8.114   7.045
 4664POPC   C4A60894  13.854   8.229   7.489
 4664POPC   C1B60895  13.208   8.388   6.318
 4664POPC   C2B60896  13.081   8.553   6.681
 4664POPC   C3B60897  13.393   8.487   6.974
 4664POPC   C4B60898  13.385   8.342   7.402
 4665POPC   NC360899  42.450  26.799   5.302
 4665POPC   PO460900  41.919  27.223   5.329
 4665POPC   GL160901  42.214  27.022   5.692
 4665POPC   GL260902  42.228  26.644   5.746
 4665POPC   C1A60903  42.403  27.052   6.161
 4665POPC   D2A60904  42.374  26.822   6.603
 4665POPC   C3A60905  42.484  26.969   7.058
 4665POPC   C4A60906  42.257  26.869   7.460
 4665POPC   C1B60907  42.535  26.506   6.092
 4665POPC   C2B60908  42.750  26.479   6.508
 4665POPC   C3B60909  42.624  26.462   6.929
 4665POPC   C4B60910  42.480  26.418   7.328
 4666POPC   NC360911  17.741   8.403   5.150
 4666POPC   PO460912  18.080   8.993   5.373
 4666POPC   GL160913  18.152   8.912   5.798
 4666POPC   GL260914  17.839   9.053   5.894
 4666POPC   C1A60915  18.287   9.020   6.221
 4666POPC   D2A60916  18.485   8.986   6.615
 4666POPC   C3A60917  18.288   8.759   6.978
 4666POPC   C4A60918  18.181   8.930   7.411
 4666POPC   C1B60919  17.821   8.826   6.233
 4666POPC   C2B60920  17.933   8.998   6.619
 4666POPC   C3B60921  17.806   8.906   6.993
 4666POPC   C4B60922  17.841   8.602   7.265
 4667POPC   NC360923  40.286  43.453   5.104
 4667POPC   PO460924  39.940  42.947   5.488
 4667POPC   GL160925  39.796  43.076   5.880
 4667POPC   GL260926  39.514  42.840   5.780
 4667POPC   C1A60927  40.021  43.131   6.292
 4667POPC   D2A60928  40.451  43.147   6.533
 4667POPC   C3A60929  40.456  43.012   6.984
 4667POPC   C4A60930  40.097  43.070   7.272
 4667POPC   C1B60931  39.398  42.875   6.209
 4667POPC   C2B60932  39.541  43.128   6.552
 4667POPC   C3B60933  39.701  43.186   6.958
 4667POPC   C4B60934  39.621  42.922   7.321
 4668POPC   NC360935  21.237  42.590   5.538
 4668POPC   PO460936  21.560  42.022   5.428
 4668POPC   GL160937  21.366  42.177   5.828
 4668POPC   GL260938  21.014  42.224   5.838
 4668POPC   C1A60939  21.465  42.386   6.251
 4668POPC   D2A60940  21.818  42.550   6.534
 4668POPC   C3A60941  21.644  42.672   6.977
 4668POPC   C4A60942  21.358  42.597   7.357
 4668POPC   C1B60943  21.044  42.070   6.244
 4668POPC   C2B60944  21.247  42.116   6.656
 4668POPC   C3B60945  21.259  42.159   7.112
 4668POPC   C4B60946  21.040  42.129   7.527
 4669POPC   NC360947  30.400  26.900   5.448
 4669POPC   PO460948  31.027  26.641   5.651
 4669POPC   GL160949  30.691  26.806   5.853
 4669POPC   GL260950  30.382  26.586   5.853
 4669POPC   C1A60951  30.666  26.721   6.268
 4669POPC   D2A60952  30.580  26.864   6.667
 4669POPC   C3A60953  30.950  26.785   6.862
 4669POPC   C4A60954  31.137  27.033   7.137
 4669POPC   C1B60955  30.206  26.537   6.280
 4669POPC   C2B60956  30.514  26.350   6.576
 4669POPC   C3B60957  30.592  26.440   6.996
 4669POPC   C4B60958  30.589  26.861   7.226
 4670POPC   NC360959  21.468  44.375   5.494
 4670POPC   PO460960  21.302   0.025   5.440
 4670POPC   GL160961  21.309  44.775   5.788
 4670POPC   GL260962  21.046  44.532   5.768
 4670POPC   C1A60963  21.556  44.583   6.118
 4670POPC   D2A60964  21.738  44.317   6.441
 4670POPC   C3A60965  21.787  44.546   6.833
 4670POPC   C4A60966  21.702  44.579   7.284
 4670POPC   C1B60967  21.164  44.257   6.149
 4670POPC   C2B60968  21.276  44.256   6.633
 4670POPC   C3B60969  21.280  44.506   7.018
 4670POPC   C4B60970  21.041  44.872   7.167
 4671POPC   NC360971  20.056  31.003   5.413
 4671POPC   PO460972  19.852  30.401   5.210
 4671POPC   GL160973  19.800  30.549   5.677
 4671POPC   GL260974  20.072  30.719   5.819
 4671POPC   C1A60975  19.663  30.737   6.095
 4671POPC   D2A60976  19.812  30.984   6.466
 4671POPC   C3A60977  19.603  30.888   6.844
 4671POPC   C4A60978  19.723  30.763   7.242
 4671POPC   C1B60979  20.158  30.593   6.267
 4671POPC   C2B60980  20.215  30.714   6.725
 4671POPC   C3B60981  20.260  30.619   7.180
 4671POPC   C4B60982  20.486  30.410   7.514
 4672POPC   NC360983   8.462  25.415   5.433
 4672POPC   PO460984   7.825  25.683   5.433
 4672POPC   GL160985   8.079  25.438   5.766
 4672POPC   GL260986   8.384  25.607   5.911
 4672POPC   C1A60987   8.231  25.149   6.099
 4672POPC   D2A60988   8.458  25.014   6.486
 4672POPC   C3A60989   8.269  25.072   6.933
 4672POPC   C4A60990   7.917  24.975   7.203
 4672POPC   C1B60991   8.566  25.498   6.310
 4672POPC   C2B60992   8.303  25.482   6.641
 4672POPC   C3B60993   8.211  25.651   7.037
 4672POPC   C4B60994   8.198  25.564   7.458
 4673POPC   NC360995  27.528   4.453   5.535
 4673POPC   PO460996  27.029   3.997   5.325
 4673POPC   GL160997  27.289   4.005   5.738
 4673POPC   GL260998  27.658   4.002   5.820
 4673POPC   C1A60999  27.372   4.160   6.193
 4673POPC   D2A61000  27.616   4.062   6.604
 4673POPC   C3A61001  27.369   4.147   7.002
 4673POPC   C4A61002  27.335   4.596   7.137
 4673POPC   C1B61003  27.852   4.327   6.124
 4673POPC   C2B61004  27.847   4.602   6.483
 4673POPC   C3B61005  27.785   4.466   6.897
 4673POPC   C4B61006  28.062   4.444   7.212
 4674POPC   NC361007  11.392   2.468   5.288
 4674POPC   PO461008  11.035   3.031   5.201
 4674POPC   GL161009  11.189   2.818   5.625
 4674POPC   GL261010  11.552   2.754   5.737
 4674POPC   C1A61011  11.193   2.707   6.100
 4674POPC   D2A61012  11.412   2.907   6.478
 4674POPC   C3A61013  11.279   2.832   6.914
 4674POPC   C4A61014  11.344   3.033   7.289
 4674POPC   C1B61015  11.678   2.555   6.182
 4674POPC   C2B61016  11.495   2.412   6.645
 4674POPC   C3B61017  11.471   2.401   7.148
 4674POPC   C4B61018  11.759   2.293   7.506
 4675POPC   NC361019  25.808   3.804   5.433
 4675POPC   PO461020  26.282   3.333   5.377
 4675POPC   GL161021  26.231   3.317   5.838
 4675POPC   GL261022  26.479   3.101   6.004
 4675POPC   C1A61023  26.084   3.528   6.234
 4675POPC   D2A61024  25.982   3.807   6.606
 4675POPC   C3A61025  25.797   3.569   6.960
 4675POPC   C4A61026  25.775   3.626   7.409
 4675POPC   C1B61027  26.387   3.061   6.434
 4675POPC   C2B61028  26.143   3.290   6.706
 4675POPC   C3B61029  26.323   3.630   6.936
 4675POPC   C4B61030  26.472   3.627   7.332
 4676POPC   NC361031  33.453  31.403   5.499
 4676POPC   PO461032  32.755  31.399   5.533
 4676POPC   GL161033  32.804  31.698   5.820
 4676POPC   GL261034  33.155  31.730   5.744
 4676POPC   C1A61035  32.814  31.624   6.231
 4676POPC   D2A61036  32.795  31.313   6.560
 4676POPC   C3A61037  32.824  31.506   6.941
 4676POPC   C4A61038  32.645  31.418   7.306
 4676POPC   C1B61039  33.319  31.783   6.165
 4676POPC   C2B61040  33.184  31.689   6.583
 4676POPC   C3B61041  33.327  31.605   6.989
 4676POPC   C4B61042  33.185  31.329   7.298
 4677POPC   NC361043  16.231   3.948   5.666
 4677POPC   PO461044  16.895   3.836   5.435
 4677POPC   GL161045  16.876   3.667   5.862
 4677POPC   GL261046  17.206   3.634   5.935
 4677POPC   C1A61047  16.577   3.618   6.216
 4677POPC   D2A61048  16.331   3.557   6.615
 4677POPC   C3A61049  16.542   3.663   7.022
 4677POPC   C4A61050  16.619   3.844   7.443
 4677POPC   C1B61051  17.072   3.280   6.191
 4677POPC   C2B61052  16.774   3.248   6.547
 4677POPC   C3B61053  16.777   3.215   6.987
 4677POPC   C4B61054  16.906   3.432   7.352
 4678POPC   NC361055   8.651  26.831   5.502
 4678POPC   PO461056   9.110  26.557   5.047
 4678POPC   GL161057   9.117  26.542   5.558
 4678POPC   GL261058   9.101  26.897   5.710
 4678POPC   C1A61059   8.979  26.509   6.030
 4678POPC   D2A61060   8.742  26.742   6.366
 4678POPC   C3A61061   8.841  26.685   6.826
 4678POPC   C4A61062   9.023  26.606   7.235
 4678POPC   C1B61063   9.067  27.075   6.124
 4678POPC   C2B61064   9.287  27.023   6.512
 4678POPC   C3B61065   9.262  26.953   6.940
 4678POPC   C4B61066   8.933  27.122   7.160
 4679POPC   NC361067  26.246  21.493   5.448
 4679POPC   PO461068  26.875  21.484   5.316
 4679POPC   GL161069  26.697  21.599   5.723
 4679POPC   GL261070  26.877  21.342   5.908
 4679POPC   C1A61071  26.519  21.660   6.151
 4679POPC   D2A61072  26.643  21.840   6.565
 4679POPC   C3A61073  26.728  21.604   6.945
 4679POPC   C4A61074  27.092  21.692   7.210
 4679POPC   C1B61075  26.617  21.176   6.278
 4679POPC   C2B61076  26.394  21.330   6.641
 4679POPC   C3B61077  26.550  21.099   7.008
 4679POPC   C4B61078  26.944  21.187   7.150
 4680POPC   NC361079  33.273  25.817   5.396
 4680POPC   PO461080  32.772  26.165   5.217
 4680POPC   GL161081  32.956  26.104   5.666
 4680POPC   GL261082  32.726  25.850   5.673
 4680POPC   C1A61083  33.084  25.924   6.117
 4680POPC   D2A61084  33.180  26.042   6.591
 4680POPC   C3A61085  33.160  25.917   7.050
 4680POPC   C4A61086  33.083  26.126   7.492
 4680POPC   C1B61087  32.640  25.678   6.076
 4680POPC   C2B61088  32.802  25.650   6.507
 4680POPC   C3B61089  32.677  25.702   6.920
 4680POPC   C4B61090  32.769  25.753   7.359
 4681POPC   NC361091  30.487   7.141   5.298
 4681POPC   PO461092  30.748   7.712   5.617
 4681POPC   GL161093  30.616   7.315   5.757
 4681POPC   GL261094  30.903   7.168   5.601
 4681POPC   C1A61095  30.470   7.133   6.144
 4681POPC   D2A61096  30.454   6.958   6.581
 4681POPC   C3A61097  30.421   7.232   6.918
 4681POPC   C4A61098  30.342   7.220   7.322
 4681POPC   C1B61099  31.002   7.146   6.049
 4681POPC   C2B61100  31.040   7.062   6.511
 4681POPC   C3B61101  30.945   7.227   6.912
 4681POPC   C4B61102  30.995   7.493   7.296
 4682POPC   NC361103  15.728  23.002   5.480
 4682POPC   PO461104  16.323  22.943   5.268
 4682POPC   GL161105  16.168  22.853   5.736
 4682POPC   GL261106  15.881  22.631   5.841
 4682POPC   C1A61107  16.038  22.961   6.193
 4682POPC   D2A61108  15.790  22.839   6.562
 4682POPC   C3A61109  15.886  22.859   7.005
 4682POPC   C4A61110  15.798  23.163   7.328
 4682POPC   C1B61111  15.988  22.443   6.274
 4682POPC   C2B61112  16.262  22.632   6.618
 4682POPC   C3B61113  16.312  22.590   7.065
 4682POPC   C4B61114  16.143  22.678   7.457
 4683POPC   NC361115   0.508  20.079   5.434
 4683POPC   PO461116   0.578  19.412   5.462
 4683POPC   GL161117   0.431  19.643   5.864
 4683POPC   GL261118   0.243  19.947   5.850
 4683POPC   C1A61119   0.511  19.807   6.316
 4683POPC   D2A61120   0.787  19.936   6.679
 4683POPC   C3A61121   0.640  19.869   7.100
 4683POPC   C4A61122   0.425  19.725   7.457
 4683POPC   C1B61123   0.277  20.264   6.150
 4683POPC   C2B61124   0.354  20.236   6.578
 4683POPC   C3B61125   0.360  20.301   6.989
 4683POPC   C4B61126   0.106  20.126   7.249
 4684POPC   NC361127  35.406  15.759   5.421
 4684POPC   PO461128  34.831  16.125   5.299
 4684POPC   GL161129  35.050  16.073   5.709
 4684POPC   GL261130  35.118  15.746   5.824
 4684POPC   C1A61131  35.201  16.280   6.108
 4684POPC   D2A61132  35.474  16.245   6.477
 4684POPC   C3A61133  35.295  16.279   6.914
 4684POPC   C4A61134  35.330  16.060   7.334
 4684POPC   C1B61135  35.287  15.799   6.252
 4684POPC   C2B61136  35.419  15.797   6.681
 4684POPC   C3B61137  35.255  15.664   7.036
 4684POPC   C4B61138  35.275  15.558   7.479
 4685POPC   NC361139  32.786   9.220   5.432
 4685POPC   PO461140  33.331   8.804   5.406
 4685POPC   GL161141  33.211   8.697   5.808
 4685POPC   GL261142  32.889   8.838   5.785
 4685POPC   C1A61143  33.238   8.787   6.253
 4685POPC   D2A61144  33.221   9.168   6.500
 4685POPC   C3A61145  33.436   9.248   6.881
 4685POPC   C4A61146  33.286   9.113   7.266
 4685POPC   C1B61147  32.849   9.133   6.114
 4685POPC   C2B61148  32.728   9.272   6.520
 4685POPC   C3B61149  32.889   9.199   6.935
 4685POPC   C4B61150  32.806   9.217   7.384
 4686POPC   NC361151  28.731  30.932   4.988
 4686POPC   PO461152  29.218  31.165   5.425
 4686POPC   GL161153  29.159  30.869   5.810
 4686POPC   GL261154  29.350  30.547   5.765
 4686POPC   C1A61155  29.137  30.647   6.251
 4686POPC   D2A61156  28.989  30.499   6.667
 4686POPC   C3A61157  29.018  30.744   7.043
 4686POPC   C4A61158  28.956  30.699   7.465
 4686POPC   C1B61159  29.549  30.342   6.133
 4686POPC   C2B61160  29.454  30.211   6.576
 4686POPC   C3B61161  29.400  30.402   6.997
 4686POPC   C4B61162  29.445  30.720   7.332
 4687POPC   NC361163  35.816  36.455   5.244
 4687POPC   PO461164  36.312  35.989   5.420
 4687POPC   GL161165  36.127  36.069   5.831
 4687POPC   GL261166  36.398  36.165   6.022
 4687POPC   C1A61167  35.966  35.848   6.229
 4687POPC   D2A61168  35.992  35.618   6.644
 4687POPC   C3A61169  35.831  35.838   7.031
 4687POPC   C4A61170  35.753  36.225   7.308
 4687POPC   C1B61171  36.107  36.336   6.319
 4687POPC   C2B61172  35.922  36.358   6.721
 4687POPC   C3B61173  36.178  36.357   7.083
 4687POPC   C4B61174  36.251  36.172   7.506
 4688POPC   NC361175   6.810   6.618   5.132
 4688POPC   PO461176   6.399   6.843   5.642
 4688POPC   GL161177   6.705   6.719   5.980
 4688POPC   GL261178   6.580   6.432   5.939
 4688POPC   C1A61179   6.717   6.408   6.422
 4688POPC   D2A61180   6.731   6.373   6.894
 4688POPC   C3A61181   6.709   6.781   7.161
 4688POPC   C4A61182   7.051   6.962   7.418
 4688POPC   C1B61183   6.319   6.702   6.287
 4688POPC   C2B61184   6.441   6.777   6.698
 4688POPC   C3B61185   6.270   6.579   7.054
 4688POPC   C4B61186   6.107   6.816   7.391
 4689POPC   NC361187   8.095  30.856   5.413
 4689POPC   PO461188   8.590  30.502   5.207
 4689POPC   GL161189   8.418  30.566   5.702
 4689POPC   GL261190   8.127  30.319   5.737
 4689POPC   C1A61191   8.219  30.723   6.150
 4689POPC   D2A61192   8.106  30.941   6.603
 4689POPC   C3A61193   8.062  30.769   7.021
 4689POPC   C4A61194   7.990  30.535   7.396
 4689POPC   C1B61195   8.121  30.219   6.182
 4689POPC   C2B61196   8.146  30.414   6.605
 4689POPC   C3B61197   8.121  30.231   7.022
 4689POPC   C4B61198   8.358  30.189   7.436
 4690POPC   NC361199  12.431  31.403   5.331
 4690POPC   PO461200  11.852  31.311   5.294
 4690POPC   GL161201  12.002  31.383   5.743
 4690POPC   GL261202  12.120  31.068   5.874
 4690POPC   C1A61203  11.908  31.464   6.228
 4690POPC   D2A61204  11.840  31.391   6.697
 4690POPC   C3A61205  11.907  31.719   7.038
 4690POPC   C4A61206  12.070  31.623   7.454
 4690POPC   C1B61207  12.340  31.160   6.281
 4690POPC   C2B61208  12.333  31.236   6.733
 4690POPC   C3B61209  12.124  31.222   7.123
 4690POPC   C4B61210  12.230  31.076   7.510
 4691POPC   NC361211  17.589   9.102   5.464
 4691POPC   PO461212  17.293   8.510   5.335
 4691POPC   GL161213  17.266   8.771   5.730
 4691POPC   GL261214  17.282   9.101   5.873
 4691POPC   C1A61215  17.317   8.671   6.178
 4691POPC   D2A61216  17.499   8.710   6.601
 4691POPC   C3A61217  17.271   8.821   6.934
 4691POPC   C4A61218  17.403   8.889   7.303
 4691POPC   C1B61219  17.446   9.168   6.288
 4691POPC   C2B61220  17.462   9.461   6.617
 4691POPC   C3B61221  17.523   9.323   7.004
 4691POPC   C4B61222  17.853   9.313   7.303
 4692POPC   NC361223   9.516  26.404   5.236
 4692POPC   PO461224  10.054  26.764   5.302
 4692POPC   GL161225   9.904  26.729   5.726
 4692POPC   GL261226   9.587  26.774   5.645
 4692POPC   C1A61227   9.939  26.943   6.132
 4692POPC   D2A61228  10.054  26.772   6.520
 4692POPC   C3A61229   9.695  26.747   6.766
 4692POPC   C4A61230   9.739  26.951   7.154
 4692POPC   C1B61231   9.457  26.739   6.082
 4692POPC   C2B61232   9.312  26.504   6.450
 4692POPC   C3B61233   9.297  26.347   6.869
 4692POPC   C4B61234   9.534  26.465   7.226
 4693POPC   NC361235   3.154  43.957   5.410
 4693POPC   PO461236   2.524  43.630   5.434
 4693POPC   GL161237   2.335  43.599   5.878
 4693POPC   GL261238   2.372  43.944   5.933
 4693POPC   C1A61239   2.342  43.718   6.371
 4693POPC   D2A61240   2.554  43.881   6.730
 4693POPC   C3A61241   2.422  43.786   7.149
 4693POPC   C4A61242   2.477  43.996   7.562
 4693POPC   C1B61243   2.781  43.723   6.110
 4693POPC   C2B61244   2.930  43.569   6.541
 4693POPC   C3B61245   2.998  43.753   6.976
 4693POPC   C4B61246   2.809  44.121   7.185
 4694POPC   NC361247  39.643  22.470   5.642
 4694POPC   PO461248  39.431  21.883   5.349
 4694POPC   GL161249  39.427  22.029   5.796
 4694POPC   GL261250  39.777  21.960   5.867
 4694POPC   C1A61251  39.266  22.311   6.169
 4694POPC   D2A61252  39.104  22.557   6.541
 4694POPC   C3A61253  39.200  22.496   6.987
 4694POPC   C4A61254  39.003  22.398   7.395
 4694POPC   C1B61255  39.625  21.946   6.301
 4694POPC   C2B61256  39.382  22.014   6.690
 4694POPC   C3B61257  39.397  22.058   7.160
 4694POPC   C4B61258  39.769  22.004   7.417
 4695POPC   NC361259  40.547  24.506   5.269
 4695POPC   PO461260  41.072  24.934   5.537
 4695POPC   GL161261  40.855  24.572   5.692
 4695POPC   GL261262  41.023  24.222   5.742
 4695POPC   C1A61263  40.498  24.581   5.982
 4695POPC   D2A61264  40.339  24.645   6.409
 4695POPC   C3A61265  40.555  24.499   6.767
 4695POPC   C4A61266  40.600  24.644   7.174
 4695POPC   C1B61267  41.117  24.387   6.146
 4695POPC   C2B61268  41.023  24.704   6.455
 4695POPC   C3B61269  41.034  24.670   6.883
 4695POPC   C4B61270  41.091  24.323   7.156
 4696POPC   NC361271  28.767  35.031   5.617
 4696POPC   PO461272  28.280  35.506   5.387
 4696POPC   GL161273  28.461  35.437   5.801
 4696POPC   GL261274  28.293  35.118   5.857
 4696POPC   C1A61275  28.373  35.429   6.277
 4696POPC   D2A61276  28.131  35.644   6.611
 4696POPC   C3A61277  28.065  35.423   7.000
 4696POPC   C4A61278  28.110  35.461   7.454
 4696POPC   C1B61279  28.531  34.937   6.212
 4696POPC   C2B61280  28.683  34.833   6.608
 4696POPC   C3B61281  28.648  35.130   6.899
 4696POPC   C4B61282  28.471  35.120   7.314
 4697POPC   NC361283   0.186  26.835   5.452
 4697POPC   PO461284   0.773  27.248   5.373
 4697POPC   GL161285   0.547  27.142   5.784
 4697POPC   GL261286   0.496  26.797   5.842
 4697POPC   C1A61287   0.406  27.114   6.244
 4697POPC   D2A61288   0.118  27.074   6.613
 4697POPC   C3A61289   0.390  27.124   6.953
 4697POPC   C4A61290   0.645  26.899   7.265
 4697POPC   C1B61291   0.659  26.663   6.194
 4697POPC   C2B61292   0.642  26.795   6.615
 4697POPC   C3B61293   0.408  26.599   6.928
 4697POPC   C4B61294   0.499  26.394   7.293
 4698POPC   NC361295  30.203   5.444   5.486
 4698POPC   PO461296  30.678   5.044   5.277
 4698POPC   GL161297  30.634   5.227   5.683
 4698POPC   GL261298  30.419   4.961   5.821
 4698POPC   C1A61299  30.740   5.276   6.139
 4698POPC   D2A61300  30.819   5.067   6.554
 4698POPC   C3A61301  30.795   5.200   6.983
 4698POPC   C4A61302  31.076   5.122   7.389
 4698POPC   C1B61303  30.306   5.042   6.277
 4698POPC   C2B61304  30.315   5.018   6.730
 4698POPC   C3B61305  30.313   4.990   7.147
 4698POPC   C4B61306  30.651   4.846   7.334
 4699POPC   NC361307  22.008  37.357   5.287
 4699POPC   PO461308  22.374  37.876   5.170
 4699POPC   GL161309  22.274  37.646   5.612
 4699POPC   GL261310  21.901  37.564   5.748
 4699POPC   C1A61311  22.279  37.639   6.092
 4699POPC   D2A61312  22.492  37.568   6.501
 4699POPC   C3A61313  22.225  37.631   6.841
 4699POPC   C4A61314  22.284  37.901   7.190
 4699POPC   C1B61315  21.704  37.424   6.166
 4699POPC   C2B61316  21.724  37.320   6.639
 4699POPC   C3B61317  21.821  37.409   7.092
 4699POPC   C4B61318  21.937  37.657   7.523
 4700POPC   NC361319  41.011  34.517   5.672
 4700POPC   PO461320  40.732  34.925   5.149
 4700POPC   GL161321  40.633  34.885   5.676
 4700POPC   GL261322  40.531  34.575   5.818
 4700POPC   C1A61323  40.739  34.880   6.177
 4700POPC   D2A61324  40.913  34.843   6.618
 4700POPC   C3A61325  41.008  34.499   6.901
 4700POPC   C4A61326  40.986  34.618   7.289
 4700POPC   C1B61327  40.553  34.409   6.192
 4700POPC   C2B61328  40.611  34.413   6.599
 4700POPC   C3B61329  40.517  34.659   6.947
 4700POPC   C4B61330  40.481  34.538   7.354
 4701POPC   NC361331  40.373   6.350   5.503
 4701POPC   PO461332  39.751   6.664   5.570
 4701POPC   GL161333  40.078   6.545   5.905
 4701POPC   GL261334  40.480   6.592   5.936
 4701POPC   C1A61335  40.024   6.551   6.370
 4701POPC   D2A61336  39.839   6.834   6.670
 4701POPC   C3A61337  39.791   6.812   7.100
 4701POPC   C4A61338  39.808   6.529   7.407
 4701POPC   C1B61339  40.371   6.214   6.179
 4701POPC   C2B61340  40.166   6.103   6.582
 4701POPC   C3B61341  40.145   6.433   6.913
 4701POPC   C4B61342  40.313   6.472   7.318
 4702POPC   NC361343  14.087  25.061   5.368
 4702POPC   PO461344  14.772  24.952   5.523
 4702POPC   GL161345  14.435  25.065   5.792
 4702POPC   GL261346  14.286  25.372   5.774
 4702POPC   C1A61347  14.527  25.156   6.208
 4702POPC   D2A61348  14.735  24.979   6.527
 4702POPC   C3A61349  14.716  25.221   6.846
 4702POPC   C4A61350  14.460  25.228   7.182
 4702POPC   C1B61351  14.116  25.494   6.177
 4702POPC   C2B61352  14.123  25.632   6.578
 4702POPC   C3B61353  14.016  25.460   6.964
 4702POPC   C4B61354  14.091  25.540   7.373
 4703POPC   NC361355  29.498  44.928   4.883
 4703POPC   PO461356  29.910  44.531   5.272
 4703POPC   GL161357  30.011  44.553   5.730
 4703POPC   GL261358  30.034  44.873   5.861
 4703POPC   C1A61359  29.792  44.526   6.143
 4703POPC   D2A61360  29.813  44.305   6.529
 4703POPC   C3A61361  29.931  44.527   6.874
 4703POPC   C4A61362  29.797  44.495   7.257
 4703POPC   C1B61363  29.730   0.034   6.153
 4703POPC   C2B61364  29.782  44.900   6.558
 4703POPC   C3B61365  29.685  44.992   6.965
 4703POPC   C4B61366  29.903   0.024   7.352
 4704POPC   NC361367   4.841  18.264   5.090
 4704POPC   PO461368   5.251  17.913   5.468
 4704POPC   GL161369   5.042  18.138   5.799
 4704POPC   GL261370   5.154  18.464   5.896
 4704POPC   C1A61371   5.104  18.092   6.253
 4704POPC   D2A61372   5.055  18.248   6.674
 4704POPC   C3A61373   5.394  18.288   6.970
 4704POPC   C4A61374   5.312  18.215   7.393
 4704POPC   C1B61375   4.941  18.591   6.282
 4704POPC   C2B61376   4.797  18.681   6.712
 4704POPC   C3B61377   4.959  18.551   7.124
 4704POPC   C4B61378   4.887  18.446   7.544
 4705POPC   NC361379   4.531  20.990   5.448
 4705POPC   PO461380   4.632  21.664   5.463
 4705POPC   GL161381   4.449  21.372   5.802
 4705POPC   GL261382   4.617  21.099   5.964
 4705POPC   C1A61383   4.407  21.453   6.265
 4705POPC   D2A61384   4.468  21.441   6.718
 4705POPC   C3A61385   4.167  21.427   7.075
 4705POPC   C4A61386   3.993  21.711   7.384
 4705POPC   C1B61387   4.512  20.966   6.379
 4705POPC   C2B61388   4.518  20.950   6.823
 4705POPC   C3B61389   4.628  21.239   7.160
 4705POPC   C4B61390   4.514  21.540   7.489
 4706POPC   NC361391  44.928  44.700   5.316
 4706POPC   PO461392   0.139  44.139   5.719
 4706POPC   GL161393  44.966  44.565   5.838
 4706POPC   GL261394  44.623  44.708   5.832
 4706POPC   C1A61395  44.885  44.694   6.265
 4706POPC   D2A61396  44.667  44.506   6.561
 4706POPC   C3A61397  44.789  44.685   6.927
 4706POPC   C4A61398  44.879  44.376   7.211
 4706POPC   C1B61399  44.423  44.899   6.233
 4706POPC   C2B61400  44.355  44.870   6.686
 4706POPC   C3B61401  44.355  44.838   7.144
 4706POPC   C4B61402  44.236  44.807   7.567
 4707POPC   NC361403   4.185   7.072   5.511
 4707POPC   PO461404   4.559   6.551   5.333
 4707POPC   GL161405   4.486   6.636   5.797
 4707POPC   GL261406   4.128   6.623   5.858
 4707POPC   C1A61407   4.382   6.880   6.220
 4707POPC   D2A61408   4.515   6.829   6.667
 4707POPC   C3A61409   4.306   6.916   7.062
 4707POPC   C4A61410   4.395   6.768   7.517
 4707POPC   C1B61411   4.048   6.476   6.326
 4707POPC   C2B61412   4.110   6.491   6.791
 4707POPC   C3B61413   4.087   6.482   7.237
 4707POPC   C4B61414   3.956   6.269   7.612
 4708POPC   NC361415  27.084  41.173   5.282
 4708POPC   PO461416  26.668  40.665   5.429
 4708POPC   GL161417  26.623  40.796   5.830
 4708POPC   GL261418  26.907  41.002   5.778
 4708POPC   C1A61419  26.482  40.782   6.257
 4708POPC   D2A61420  26.785  40.869   6.570
 4708POPC   C3A61421  26.667  40.769   6.959
 4708POPC   C4A61422  26.820  40.794   7.371
 4708POPC   C1B61423  27.099  40.972   6.168
 4708POPC   C2B61424  27.298  40.854   6.568
 4708POPC   C3B61425  27.184  40.850   6.996
 4708POPC   C4B61426  27.215  41.160   7.323
 4709POPC   NC361427  23.186  19.258   5.198
 4709POPC   PO461428  22.573  18.980   5.400
 4709POPC   GL161429  22.821  19.115   5.800
 4709POPC   GL261430  23.124  19.289   5.704
 4709POPC   C1A61431  22.866  19.001   6.262
 4709POPC   D2A61432  23.005  18.849   6.681
 4709POPC   C3A61433  22.824  19.089   7.047
 4709POPC   C4A61434  22.741  19.146   7.517
 4709POPC   C1B61435  23.203  19.399   6.133
 4709POPC   C2B61436  23.032  19.403   6.575
 4709POPC   C3B61437  23.165  19.474   6.999
 4709POPC   C4B61438  23.556  19.416   7.163
 4710POPC   NC361439  25.701  33.917   5.562
 4710POPC   PO461440  25.094  33.609   5.491
 4710POPC   GL161441  25.375  33.587   5.824
 4710POPC   GL261442  25.286  33.957   5.836
 4710POPC   C1A61443  25.309  33.654   6.279
 4710POPC   D2A61444  24.952  33.639   6.593
 4710POPC   C3A61445  25.055  33.540   7.028
 4710POPC   C4A61446  25.441  33.459   7.263
 4710POPC   C1B61447  25.493  34.139   6.160
 4710POPC   C2B61448  25.298  34.115   6.540
 4710POPC   C3B61449  25.076  34.035   6.904
 4710POPC   C4B61450  25.063  33.929   7.378
 4711POPC   NC361451  23.185  44.092   5.368
 4711POPC   PO461452  22.792  43.524   5.544
 4711POPC   GL161453  22.829  43.939   5.730
 4711POPC   GL261454  23.179  43.927   5.872
 4711POPC   C1A61455  22.759  44.178   6.111
 4711POPC   D2A61456  22.639  44.038   6.500
 4711POPC   C3A61457  22.898  43.963   6.855
 4711POPC   C4A61458  22.723  44.004   7.266
 4711POPC   C1B61459  22.914  43.686   6.189
 4711POPC   C2B61460  22.841  43.536   6.606
 4711POPC   C3B61461  22.999  43.472   7.042
 4711POPC   C4B61462  22.852  43.540   7.485
 4712POPC   NC361463  12.600  12.006   5.399
 4712POPC   PO461464  11.978  12.240   5.174
 4712POPC   GL161465  12.103  12.269   5.656
 4712POPC   GL261466  12.445  12.394   5.712
 4712POPC   C1A61467  11.967  12.074   6.081
 4712POPC   D2A61468  11.846  11.986   6.544
 4712POPC   C3A61469  12.087  11.998   6.935
 4712POPC   C4A61470  11.965  12.072   7.372
 4712POPC   C1B61471  12.346  12.410   6.151
 4712POPC   C2B61472  12.260  12.324   6.582
 4712POPC   C3B61473  12.444  12.342   7.002
 4712POPC   C4B61474  12.408  12.627   7.328
 4713POPC   NC361475  42.408  41.260   5.497
 4713POPC   PO461476  42.587  41.863   5.396
 4713POPC   GL161477  42.306  41.796   5.782
 4713POPC   GL261478  42.206  41.483   5.882
 4713POPC   C1A61479  42.191  41.886   6.236
 4713POPC   D2A61480  42.005  41.731   6.657
 4713POPC   C3A61481  42.293  41.539   6.969
 4713POPC   C4A61482  42.428  41.431   7.402
 4713POPC   C1B61483  42.575  41.522   6.147
 4713POPC   C2B61484  42.662  41.384   6.551
 4713POPC   C3B61485  42.822  41.471   6.943
 4713POPC   C4B61486  42.694  41.791   7.186
 4714POPC   NC361487   6.737  19.128   5.193
 4714POPC   PO461488   6.913  19.491   5.704
 4714POPC   GL161489   6.702  19.080   5.804
 4714POPC   GL261490   6.353  18.919   5.672
 4714POPC   C1A61491   6.694  18.961   6.245
 4714POPC   D2A61492   6.704  18.826   6.656
 4714POPC   C3A61493   6.915  19.058   6.951
 4714POPC   C4A61494   6.865  19.175   7.359
 4714POPC   C1B61495   6.201  18.817   6.111
 4714POPC   C2B61496   6.226  19.015   6.546
 4714POPC   C3B61497   6.386  19.131   6.951
 4714POPC   C4B61498   6.391  19.398   7.306
 4715POPC   NC361499  13.417   5.132   5.403
 4715POPC   PO461500  13.828   5.637   5.433
 4715POPC   GL161501  13.788   5.338   5.752
 4715POPC   GL261502  13.439   5.374   5.870
 4715POPC   C1A61503  13.805   5.159   6.181
 4715POPC   D2A61504  13.421   5.276   6.410
 4715POPC   C3A61505  13.427   5.342   6.850
 4715POPC   C4A61506  13.543   5.388   7.292
 4715POPC   C1B61507  13.367   4.932   6.039
 4715POPC   C2B61508  13.230   4.774   6.437
 4715POPC   C3B61509  13.377   4.831   6.834
 4715POPC   C4B61510  13.204   4.648   7.160
 4716POPC   NC361511  39.007  33.402   5.437
 4716POPC   PO461512  39.412  32.874   5.540
 4716POPC   GL161513  39.352  33.081   5.920
 4716POPC   GL261514  39.560  33.370   5.834
 4716POPC   C1A61515  39.035  33.202   6.261
 4716POPC   D2A61516  38.731  33.135   6.627
 4716POPC   C3A61517  38.967  32.815   6.864
 4716POPC   C4A61518  39.287  32.850   7.173
 4716POPC   C1B61519  39.481  33.516   6.270
 4716POPC   C2B61520  39.458  33.405   6.725
 4716POPC   C3B61521  39.322  33.354   7.164
 4716POPC   C4B61522  38.881  33.196   7.212
 4717POPC   NC361523  19.994   9.249   5.383
 4717POPC   PO461524  20.422   8.705   5.440
 4717POPC   GL161525  20.581   9.038   5.689
 4717POPC   GL261526  20.280   9.148   5.805
 4717POPC   C1A61527  20.667   8.974   6.145
 4717POPC   D2A61528  20.711   8.874   6.591
 4717POPC   C3A61529  20.970   9.092   6.909
 4717POPC   C4A61530  20.980   9.092   7.394
 4717POPC   C1B61531  20.110   8.933   6.168
 4717POPC   C2B61532  20.164   8.997   6.615
 4717POPC   C3B61533  20.440   9.132   6.961
 4717POPC   C4B61534  20.461   9.148   7.394
 4718POPC   NC361535  22.192  31.483   5.278
 4718POPC   PO461536  21.889  31.104   5.721
 4718POPC   GL161537  22.009  31.467   5.941
 4718POPC   GL261538  22.379  31.512   5.911
 4718POPC   C1A61539  22.046  31.439   6.394
 4718POPC   D2A61540  22.390  31.564   6.686
 4718POPC   C3A61541  22.358  31.246   6.951
 4718POPC   C4A61542  22.081  31.374   7.215
 4718POPC   C1B61543  22.350  31.806   6.251
 4718POPC   C2B61544  21.995  31.922   6.559
 4718POPC   C3B61545  22.071  31.846   6.989
 4718POPC   C4B61546  22.447  31.965   7.176
 4719POPC   NC361547  31.575  25.526   5.358
 4719POPC   PO461548  31.280  24.845   5.231
 4719POPC   GL161549  31.411  25.031   5.687
 4719POPC   GL261550  31.546  25.381   5.831
 4719POPC   C1A61551  31.296  25.098   6.138
 4719POPC   D2A61552  31.558  25.283   6.431
 4719POPC   C3A61553  31.373  25.149   6.813
 4719POPC   C4A61554  31.645  25.030   7.143
 4719POPC   C1B61555  31.299  25.636   6.144
 4719POPC   C2B61556  31.263  25.641   6.614
 4719POPC   C3B61557  31.491  25.579   7.021
 4719POPC   C4B61558  31.321  25.721   7.360
 4720POPC   NC361559  42.618  21.161   5.408
 4720POPC   PO461560  42.185  21.651   5.223
 4720POPC   GL161561  42.237  21.343   5.683
 4720POPC   GL261562  42.209  21.618   5.955
 4720POPC   C1A61563  42.417  21.217   6.143
 4720POPC   D2A61564  42.255  21.378   6.541
 4720POPC   C3A61565  42.401  21.270   6.958
 4720POPC   C4A61566  42.130  21.307   7.253
 4720POPC   C1B61567  42.545  21.732   6.298
 4720POPC   C2B61568  42.583  21.732   6.787
 4720POPC   C3B61569  42.458  21.719   7.249
 4720POPC   C4B61570  42.567  21.776   7.717
 4721POPC   NC361571  11.284   1.928   5.413
 4721POPC   PO461572  11.792   2.286   5.174
 4721POPC   GL161573  11.566   2.230   5.719
 4721POPC   GL261574  11.436   1.858   5.877
 4721POPC   C1A61575  11.323   2.208   6.184
 4721POPC   D2A61576  11.011   2.206   6.494
 4721POPC   C3A61577  11.162   2.073   6.898
 4721POPC   C4A61578  10.952   2.086   7.276
 4721POPC   C1B61579  11.708   1.741   6.192
 4721POPC   C2B61580  11.530   1.868   6.567
 4721POPC   C3B61581  11.474   1.648   6.951
 4721POPC   C4B61582  11.097   1.601   7.178
 4722POPC   NC361583  25.570  21.566   5.337
 4722POPC   PO461584  25.168  21.032   5.534
 4722POPC   GL161585  25.440  21.254   5.721
 4722POPC   GL261586  25.204  21.518   5.782
 4722POPC   C1A61587  25.570  21.362   6.128
 4722POPC   D2A61588  25.340  21.406   6.491
 4722POPC   C3A61589  25.468  21.172   6.796
 4722POPC   C4A61590  25.525  21.245   7.183
 4722POPC   C1B61591  24.962  21.582   6.187
 4722POPC   C2B61592  24.964  21.719   6.640
 4722POPC   C3B61593  25.130  21.519   7.046
 4722POPC   C4B61594  25.321  21.587   7.485
 4723POPC   NC361595  33.319  15.653   5.408
 4723POPC   PO461596  32.650  15.882   5.427
 4723POPC   GL161597  32.896  16.056   5.779
 4723POPC   GL261598  32.771  15.825   5.966
 4723POPC   C1A61599  33.120  16.170   6.183
 4723POPC   D2A61600  33.365  16.155   6.580
 4723POPC   C3A61601  33.218  16.000   6.989
 4723POPC   C4A61602  32.773  15.951   7.129
 4723POPC   C1B61603  32.965  15.700   6.316
 4723POPC   C2B61604  32.907  15.678   6.735
 4723POPC   C3B61605  33.077  15.532   7.157
 4723POPC   C4B61606  32.989  15.382   7.577
 4724POPC   NC361607  42.472   0.183   5.637
 4724POPC   PO461608  42.073   0.672   5.335
 4724POPC   GL161609  42.156   0.622   5.748
 4724POPC   GL261610  41.974   0.331   5.857
 4724POPC   C1A61611  42.250   0.757   6.181
 4724POPC   D2A61612  42.257   0.542   6.580
 4724POPC   C3A61613  42.438   0.775   6.941
 4724POPC   C4A61614  42.802   0.715   7.213
 4724POPC   C1B61615  41.990  44.976   6.179
 4724POPC   C2B61616  42.191  44.983   6.604
 4724POPC   C3B61617  42.347   0.209   6.974
 4724POPC   C4B61618  42.066   0.284   7.286
 4725POPC   NC361619  13.104  17.292   5.473
 4725POPC   PO461620  12.480  17.605   5.330
 4725POPC   GL161621  12.726  17.658   5.713
 4725POPC   GL261622  12.716  17.320   5.786
 4725POPC   C1A61623  12.918  17.669   6.166
 4725POPC   D2A61624  13.002  17.761   6.639
 4725POPC   C3A61625  12.969  17.476   7.023
 4725POPC   C4A61626  12.885  17.566   7.480
 4725POPC   C1B61627  12.630  17.228   6.159
 4725POPC   C2B61628  12.596  17.442   6.506
 4725POPC   C3B61629  12.532  17.297   6.855
 4725POPC   C4B61630  12.447  17.420   7.211
 4726POPC   NC361631  20.554  10.077   5.424
 4726POPC   PO461632  20.876  10.733   5.408
 4726POPC   GL161633  20.797  10.473   5.771
 4726POPC   GL261634  20.468  10.407   5.814
 4726POPC   C1A61635  20.889  10.360   6.214
 4726POPC   D2A61636  20.977  10.272   6.659
 4726POPC   C3A61637  20.964  10.666   6.933
 4726POPC   C4A61638  20.708  10.735   7.289
 4726POPC   C1B61639  20.480  10.696   6.184
 4726POPC   C2B61640  20.563  10.659   6.627
 4726POPC   C3B61641  20.315  10.701   6.985
 4726POPC   C4B61642  20.111  10.661   7.375
 4727POPC   NC361643  22.718  25.980   5.400
 4727POPC   PO461644  23.335  26.317   5.347
 4727POPC   GL161645  23.101  26.181   5.759
 4727POPC   GL261646  22.825  25.915   5.879
 4727POPC   C1A61647  23.151  26.107   6.207
 4727POPC   D2A61648  23.279  26.172   6.623
 4727POPC   C3A61649  23.200  25.998   7.023
 4727POPC   C4A61650  23.079  26.188   7.404
 4727POPC   C1B61651  22.823  25.727   6.285
 4727POPC   C2B61652  22.830  25.887   6.694
 4727POPC   C3B61653  22.680  26.010   7.116
 4727POPC   C4B61654  22.687  25.894   7.542
 4728POPC   NC361655  36.626  22.771   5.489
 4728POPC   PO461656  36.240  23.259   5.386
 4728POPC   GL161657  36.251  23.013   5.750
 4728POPC   GL261658  36.543  23.185   5.880
 4728POPC   C1A61659  36.097  22.777   6.131
 4728POPC   D2A61660  36.045  22.923   6.568
 4728POPC   C3A61661  36.112  22.703   6.960
 4728POPC   C4A61662  36.106  22.712   7.404
 4728POPC   C1B61663  36.249  23.247   6.213
 4728POPC   C2B61664  36.262  23.392   6.595
 4728POPC   C3B61665  36.372  23.135   6.917
 4728POPC   C4B61666  36.388  23.157   7.336
 4729POPC   NC361667  28.921  27.726   5.320
 4729POPC   PO461668  29.529  27.503   5.391
 4729POPC   GL161669  29.281  27.590   5.761
 4729POPC   GL261670  28.957  27.431   5.753
 4729POPC   C1A61671  29.321  27.505   6.204
 4729POPC   D2A61672  29.431  27.784   6.539
 4729POPC   C3A61673  29.158  27.757   6.890
 4729POPC   C4A61674  29.378  27.696   7.259
 4729POPC   C1B61675  28.858  27.293   6.180
 4729POPC   C2B61676  28.826  27.424   6.610
 4729POPC   C3B61677  28.895  27.332   7.059
 4729POPC   C4B61678  28.953  27.544   7.462
 4730POPC   NC361679  17.619   2.866   5.162
 4730POPC   PO461680  17.447   3.378   5.566
 4730POPC   GL161681  17.466   2.944   5.783
 4730POPC   GL261682  17.766   2.657   5.874
 4730POPC   C1A61683  17.567   2.988   6.207
 4730POPC   D2A61684  17.369   2.941   6.565
 4730POPC   C3A61685  17.578   3.031   6.926
 4730POPC   C4A61686  17.489   2.804   7.270
 4730POPC   C1B61687  17.679   2.498   6.295
 4730POPC   C2B61688  17.767   2.573   6.720
 4730POPC   C3B61689  17.670   2.367   7.101
 4730POPC   C4B61690  17.667   2.437   7.566
 4731POPC   NC361691  36.065  38.219   4.999
 4731POPC   PO461692  36.025  37.678   5.426
 4731POPC   GL161693  35.867  37.547   5.825
 4731POPC   GL261694  35.769  37.201   5.823
 4731POPC   C1A61695  36.044  37.624   6.245
 4731POPC   D2A61696  36.344  37.608   6.602
 4731POPC   C3A61697  36.252  37.722   7.032
 4731POPC   C4A61698  36.383  38.039   7.325
 4731POPC   C1B61699  35.776  37.187   6.244
 4731POPC   C2B61700  35.944  37.274   6.637
 4731POPC   C3B61701  35.811  37.439   6.997
 4731POPC   C4B61702  35.883  37.482   7.425
 4732POPC   NC361703   9.082   5.952   5.409
 4732POPC   PO461704   8.606   5.547   5.584
 4732POPC   GL161705   8.790   5.890   5.832
 4732POPC   GL261706   9.184   5.982   5.896
 4732POPC   C1A61707   8.797   6.094   6.210
 4732POPC   D2A61708   9.136   6.161   6.510
 4732POPC   C3A61709   8.970   6.158   6.921
 4732POPC   C4A61710   9.157   5.976   7.302
 4732POPC   C1B61711   9.108   5.690   6.209
 4732POPC   C2B61712   8.883   5.711   6.566
 4732POPC   C3B61713   8.904   5.661   6.974
 4732POPC   C4B61714   8.764   5.603   7.339
 4733POPC   NC361715  21.767   0.141   5.369
 4733POPC   PO461716  22.510   0.103   5.393
 4733POPC   GL161717  22.240   0.319   5.734
 4733POPC   GL261718  21.898   0.465   5.795
 4733POPC   C1A61719  22.088   0.199   6.187
 4733POPC   D2A61720  22.224   0.322   6.591
 4733POPC   C3A61721  22.063   0.198   7.014
 4733POPC   C4A61722  22.223   0.354   7.433
 4733POPC   C1B61723  22.222   0.690   6.107
 4733POPC   C2B61724  22.397   0.810   6.544
 4733POPC   C3B61725  22.326   0.658   6.971
 4733POPC   C4B61726  21.912   0.689   7.208
 4734POPC   NC361727  13.890  40.932   5.501
 4734POPC   PO461728  13.388  40.463   5.526
 4734POPC   GL161729  13.630  40.634   5.823
 4734POPC   GL261730  13.502  40.991   5.832
 4734POPC   C1A61731  13.809  40.798   6.201
 4734POPC   D2A61732  13.608  40.989   6.546
 4734POPC   C3A61733  13.813  40.887   6.891
 4734POPC   C4A61734  13.898  40.674   7.235
 4734POPC   C1B61735  13.303  40.795   6.185
 4734POPC   C2B61736  13.128  40.748   6.569
 4734POPC   C3B61737  13.252  40.973   6.931
 4734POPC   C4B61738  13.496  41.008   7.261
 4735POPC   NC361739  10.651  35.476   5.154
 4735POPC   PO461740  10.253  34.911   5.343
 4735POPC   GL161741  10.412  35.171   5.713
 4735POPC   GL261742  10.717  35.390   5.729
 4735POPC   C1A61743  10.560  35.125   6.157
 4735POPC   D2A61744  10.665  35.322   6.545
 4735POPC   C3A61745  10.410  35.433   6.875
 4735POPC   C4A61746  10.547  35.317   7.261
 4735POPC   C1B61747  10.884  35.557   6.151
 4735POPC   C2B61748  11.025  35.707   6.574
 4735POPC   C3B61749  10.872  35.650   7.018
 4735POPC   C4B61750  10.812  35.689   7.493
 4736POPC   NC361751   1.558  20.790   5.128
 4736POPC   PO461752   2.243  20.592   5.255
 4736POPC   GL161753   1.924  20.572   5.578
 4736POPC   GL261754   1.743  20.864   5.590
 4736POPC   C1A61755   1.891  20.466   6.042
 4736POPC   D2A61756   2.139  20.357   6.433
 4736POPC   C3A61757   1.942  20.549   6.798
 4736POPC   C4A61758   1.964  20.444   7.220
 4736POPC   C1B61759   1.553  20.880   6.007
 4736POPC   C2B61760   1.687  20.808   6.424
 4736POPC   C3B61761   1.627  20.959   6.846
 4736POPC   C4B61762   1.582  20.790   7.227
 4737POPC   NC361763  23.171  12.813   5.415
 4737POPC   PO461764  22.660  12.326   5.516
 4737POPC   GL161765  22.963  12.565   5.806
 4737POPC   GL261766  22.856  12.930   5.793
 4737POPC   C1A61767  23.114  12.782   6.196
 4737POPC   D2A61768  23.050  13.128   6.494
 4737POPC   C3A61769  23.031  13.033   6.919
 4737POPC   C4A61770  23.077  12.614   7.103
 4737POPC   C1B61771  22.648  13.003   6.195
 4737POPC   C2B61772  22.536  13.133   6.630
 4737POPC   C3B61773  22.512  13.208   7.070
 4737POPC   C4B61774  22.822  13.161   7.373
 4738POPC   NC361775   2.285  18.111   5.334
 4738POPC   PO461776   1.661  17.898   5.442
 4738POPC   GL161777   1.821  18.069   5.796
 4738POPC   GL261778   2.000  18.381   5.711
 4738POPC   C1A61779   1.745  18.315   6.161
 4738POPC   D2A61780   1.617  18.346   6.584
 4738POPC   C3A61781   1.945  18.246   6.881
 4738POPC   C4A61782   1.825  18.285   7.274
 4738POPC   C1B61783   2.249  18.173   6.058
 4738POPC   C2B61784   2.374  18.149   6.517
 4738POPC   C3B61785   2.513  18.429   6.860
 4738POPC   C4B61786   2.318  18.395   7.242
 4739POPC   NC361787  35.326  25.533   5.267
 4739POPC   PO461788  35.526  24.961   5.127
 4739POPC   GL161789  35.564  25.034   5.612
 4739POPC   GL261790  35.288  25.283   5.752
 4739POPC   C1A61791  35.523  24.986   6.088
 4739POPC   D2A61792  35.388  25.237   6.445
 4739POPC   C3A61793  35.608  25.120   6.797
 4739POPC   C4A61794  35.656  25.286   7.203
 4739POPC   C1B61795  35.385  25.616   6.088
 4739POPC   C2B61796  35.272  25.740   6.504
 4739POPC   C3B61797  35.315  25.526   6.886
 4739POPC   C4B61798  35.256  25.600   7.307
 4740POPC   NC361799  26.516   3.660   5.133
 4740POPC   PO461800  27.006   3.294   5.405
 4740POPC   GL161801  26.997   3.564   5.725
 4740POPC   GL261802  26.675   3.528   5.759
 4740POPC   C1A61803  27.018   3.783   6.108
 4740POPC   D2A61804  27.154   3.870   6.536
 4740POPC   C3A61805  26.956   3.820   6.880
 4740POPC   C4A61806  26.959   3.449   7.070
 4740POPC   C1B61807  26.576   3.572   6.205
 4740POPC   C2B61808  26.681   3.442   6.631
 4740POPC   C3B61809  26.537   3.173   7.019
 4740POPC   C4B61810  26.522   3.033   7.484
 4741POPC   NC361811  29.265  16.654   5.259
 4741POPC   PO461812  28.577  16.702   5.193
 4741POPC   GL161813  28.913  16.793   5.616
 4741POPC   GL261814  29.284  16.912   5.688
 4741POPC   C1A61815  29.061  16.729   6.108
 4741POPC   D2A61816  29.016  16.864   6.569
 4741POPC   C3A61817  29.070  16.691   7.003
 4741POPC   C4A61818  29.188  16.528   7.439
 4741POPC   C1B61819  29.341  17.173   6.054
 4741POPC   C2B61820  29.512  17.202   6.460
 4741POPC   C3B61821  29.343  17.152   6.857
 4741POPC   C4B61822  29.457  16.976   7.236
 4742POPC   NC361823  43.363  43.615   5.535
 4742POPC   PO461824  42.889  44.079   5.432
 4742POPC   GL161825  42.966  43.852   5.798
 4742POPC   GL261826  43.264  44.054   5.805
 4742POPC   C1A61827  42.951  43.728   6.236
 4742POPC   D2A61828  42.953  44.039   6.551
 4742POPC   C3A61829  42.785  43.950   6.942
 4742POPC   C4A61830  42.936  43.563   7.167
 4742POPC   C1B61831  43.433  43.875   6.150
 4742POPC   C2B61832  43.396  43.714   6.547
 4742POPC   C3B61833  43.296  43.854   6.928
 4742POPC   C4B61834  43.158  44.103   7.240
 4743POPC   NC361835  16.500  19.715   5.401
 4743POPC   PO461836  16.848  20.225   5.195
 4743POPC   GL161837  16.888  19.942   5.708
 4743POPC   GL261838  16.723  19.643   5.830
 4743POPC   C1A61839  16.745  20.027   6.159
 4743POPC   D2A61840  16.511  19.916   6.498
 4743POPC   C3A61841  16.715  19.952   6.898
 4743POPC   C4A61842  16.515  19.976   7.298
 4743POPC   C1B61843  16.850  19.437   6.180
 4743POPC   C2B61844  16.883  19.543   6.574
 4743POPC   C3B61845  16.919  19.439   6.962
 4743POPC   C4B61846  16.629  19.464   7.267
 4744POPC   NC361847  39.774   8.537   5.353
 4744POPC   PO461848  40.156   9.076   5.417
 4744POPC   GL161849  39.789   9.101   5.696
 4744POPC   GL261850  39.829   8.739   5.846
 4744POPC   C1A61851  39.796   9.205   6.152
 4744POPC   D2A61852  40.159   9.185   6.479
 4744POPC   C3A61853  40.146   9.134   6.944
 4744POPC   C4A61854  40.138   9.211   7.401
 4744POPC   C1B61855  40.199   8.527   6.108
 4744POPC   C2B61856  40.263   8.356   6.560
 4744POPC   C3B61857  40.262   8.496   7.014
 4744POPC   C4B61858  40.345   8.746   7.384
 4745POPC   NC361859  19.534  24.915   5.775
 4745POPC   PO461860  19.822  25.119   5.247
 4745POPC   GL161861  19.851  25.312   5.670
 4745POPC   GL261862  19.999  25.600   5.756
 4745POPC   C1A61863  19.768  25.400   6.144
 4745POPC   D2A61864  19.784  25.196   6.536
 4745POPC   C3A61865  19.675  25.450   6.878
 4745POPC   C4A61866  19.371  25.363   7.183
 4745POPC   C1B61867  20.171  25.733   6.123
 4745POPC   C2B61868  20.039  25.671   6.552
 4745POPC   C3B61869  20.087  25.729   6.997
 4745POPC   C4B61870  19.839  25.579   7.381
 4746POPC   NC361871  21.551  31.066   5.390
 4746POPC   PO461872  21.175  31.637   5.417
 4746POPC   GL161873  21.481  31.573   5.771
 4746POPC   GL261874  21.350  31.284   5.922
 4746POPC   C1A61875  21.579  31.661   6.239
 4746POPC   D2A61876  21.385  31.624   6.669
 4746POPC   C3A61877  21.615  31.489   7.044
 4746POPC   C4A61878  21.648  31.194   7.402
 4746POPC   C1B61879  21.342  31.166   6.364
 4746POPC   C2B61880  21.359  31.099   6.808
 4746POPC   C3B61881  21.103  31.363   7.070
 4746POPC   C4B61882  20.731  31.268   7.287
 4747POPC   NC361883  43.577  17.193   4.952
 4747POPC   PO461884  43.935  16.748   5.406
 4747POPC   GL161885  43.887  16.865   5.824
 4747POPC   GL261886  44.080  17.119   5.790
 4747POPC   C1A61887  43.819  17.094   6.232
 4747POPC   D2A61888  43.628  16.876   6.592
 4747POPC   C3A61889  43.749  16.877   7.025
 4747POPC   C4A61890  43.673  16.549   7.312
 4747POPC   C1B61891  44.276  16.833   6.127
 4747POPC   C2B61892  44.120  16.809   6.559
 4747POPC   C3B61893  44.220  16.659   6.955
 4747POPC   C4B61894  44.160  16.765   7.391
 4748POPC   NC361895  33.561  31.590   4.956
 4748POPC   PO461896  33.718  31.779   5.627
 4748POPC   GL161897  33.872  31.419   5.867
 4748POPC   GL261898  34.133  31.151   5.758
 4748POPC   C1A61899  33.750  31.344   6.308
 4748POPC   D2A61900  33.709  31.683   6.626
 4748POPC   C3A61901  33.829  31.587   7.049
 4748POPC   C4A61902  33.639  31.575   7.462
 4748POPC   C1B61903  34.248  31.270   6.191
 4748POPC   C2B61904  34.191  31.436   6.623
 4748POPC   C3B61905  34.146  31.201   7.014
 4748POPC   C4B61906  34.138  31.145   7.469
 4749POPC   NC361907  18.775   6.011   5.365
 4749POPC   PO461908  19.371   5.903   5.370
 4749POPC   GL161909  19.116   5.889   5.738
 4749POPC   GL261910  18.958   6.222   5.813
 4749POPC   C1A61911  19.060   5.836   6.192
 4749POPC   D2A61912  19.048   5.625   6.609
 4749POPC   C3A61913  19.169   5.767   7.036
 4749POPC   C4A61914  19.071   5.534   7.405
 4749POPC   C1B61915  18.798   6.260   6.267
 4749POPC   C2B61916  18.930   6.134   6.715
 4749POPC   C3B61917  18.730   6.308   7.120
 4749POPC   C4B61918  18.731   6.505   7.565
 4750POPC   NC361919  13.167  12.630   5.319
 4750POPC   PO461920  13.055  11.865   5.321
 4750POPC   GL161921  12.876  11.795   5.785
 4750POPC   GL261922  12.530  11.906   5.887
 4750POPC   C1A61923  12.931  11.942   6.234
 4750POPC   D2A61924  12.771  12.212   6.587
 4750POPC   C3A61925  13.020  12.267   6.980
 4750POPC   C4A61926  13.310  12.287   7.337
 4750POPC   C1B61927  12.408  11.893   6.292
 4750POPC   C2B61928  12.649  11.703   6.604
 4750POPC   C3B61929  12.656  11.878   6.983
 4750POPC   C4B61930  12.467  11.963   7.388
 4751POPC   NC361931  16.878  42.214   5.471
 4751POPC   PO461932  16.407  42.683   5.444
 4751POPC   GL161933  16.568  42.450   5.784
 4751POPC   GL261934  16.485  42.082   5.810
 4751POPC   C1A61935  16.917  42.459   6.094
 4751POPC   D2A61936  16.902  42.559   6.521
 4751POPC   C3A61937  17.017  42.340   6.878
 4751POPC   C4A61938  16.971  42.261   7.304
 4751POPC   C1B61939  16.473  42.242   6.237
 4751POPC   C2B61940  16.648  42.115   6.594
 4751POPC   C3B61941  16.475  42.256   6.943
 4751POPC   C4B61942  16.462  42.276   7.348
 4752POPC   NC361943   0.130  12.670   5.278
 4752POPC   PO461944   0.771  12.937   5.428
 4752POPC   GL161945   0.593  12.915   5.823
 4752POPC   GL261946   0.374  12.662   5.731
 4752POPC   C1A61947   0.556  12.650   6.208
 4752POPC   D2A61948   0.648  12.692   6.646
 4752POPC   C3A61949   0.433  12.843   7.021
 4752POPC   C4A61950   0.440  12.678   7.468
 4752POPC   C1B61951   0.141  12.917   6.065
 4752POPC   C2B61952   0.146  12.816   6.507
 4752POPC   C3B61953   0.005  12.515   6.799
 4752POPC   C4B61954   0.024  12.568   7.214
 4753POPC   NC361955  30.051  37.971   5.469
 4753POPC   PO461956  29.767  38.608   5.267
 4753POPC   GL161957  29.859  38.419   5.650
 4753POPC   GL261958  29.597  38.141   5.678
 4753POPC   C1A61959  30.021  38.627   6.024
 4753POPC   D2A61960  30.277  38.706   6.366
 4753POPC   C3A61961  30.041  38.747   6.764
 4753POPC   C4A61962  30.006  38.605   7.199
 4753POPC   C1B61963  29.722  38.224   6.103
 4753POPC   C2B61964  29.885  38.357   6.468
 4753POPC   C3B61965  29.984  38.205   6.845
 4753POPC   C4B61966  29.745  38.148   7.221
 4754POPC   NC361967  12.766  43.813   5.324
 4754POPC   PO461968  13.050  44.354   5.327
 4754POPC   GL161969  13.106  44.063   5.653
 4754POPC   GL261970  13.219  43.712   5.569
 4754POPC   C1A61971  12.833  44.012   6.028
 4754POPC   D2A61972  12.757  44.183   6.442
 4754POPC   C3A61973  12.818  43.912   6.790
 4754POPC   C4A61974  12.807  43.969   7.234
 4754POPC   C1B61975  13.297  43.767   6.037
 4754POPC   C2B61976  13.269  43.927   6.481
 4754POPC   C3B61977  13.293  43.743   6.921
 4754POPC   C4B61978  12.996  43.503   7.188
 4755POPC   NC361979   6.521   4.817   5.477
 4755POPC   PO461980   7.051   4.480   5.353
 4755POPC   GL161981   6.902   4.611   5.792
 4755POPC   GL261982   7.036   4.895   5.909
 4755POPC   C1A61983   6.763   4.458   6.232
 4755POPC   D2A61984   6.788   4.156   6.624
 4755POPC   C3A61985   6.697   4.344   7.056
 4755POPC   C4A61986   6.413   4.364   7.436
 4755POPC   C1B61987   7.221   4.694   6.237
 4755POPC   C2B61988   7.083   4.555   6.643
 4755POPC   C3B61989   7.125   4.632   7.088
 4755POPC   C4B61990   6.836   4.650   7.467
 4756POPC   NC361991  25.426  24.956   5.422
 4756POPC   PO461992  24.941  25.484   5.495
 4756POPC   GL161993  25.102  25.338   5.859
 4756POPC   GL261994  25.078  24.969   5.841
 4756POPC   C1A61995  25.007  25.299   6.289
 4756POPC   D2A61996  25.068  24.999   6.590
 4756POPC   C3A61997  25.264  25.289   6.842
 4756POPC   C4A61998  25.184  25.491   7.192
 4756POPC   C1B61999  25.423  25.017   6.174
 4756POPC   C2B62000  25.573  24.919   6.630
 4756POPC   C3B62001  25.340  24.846   7.041
 4756POPC   C4B62002  25.276  24.943   7.473
 4757POPC   NC362003  11.962   1.435   5.381
 4757POPC   PO462004  11.869   0.830   5.652
 4757POPC   GL162005  12.164   1.104   5.887
 4757POPC   GL262006  12.175   1.490   5.847
 4757POPC   C1A62007  11.983   1.167   6.311
 4757POPC   D2A62008  11.886   1.490   6.640
 4757POPC   C3A62009  11.922   1.398   7.083
 4757POPC   C4A62010  11.748   1.433   7.518
 4757POPC   C1B62011  12.325   1.540   6.270
 4757POPC   C2B62012  12.354   1.284   6.659
 4757POPC   C3B62013  12.357   1.629   6.938
 4757POPC   C4B62014  12.472   1.774   7.312
 4758POPC   NC362015  10.962  10.806   5.266
 4758POPC   PO462016  10.510  10.382   5.403
 4758POPC   GL162017  10.535  10.536   5.806
 4758POPC   GL262018  10.897  10.591   5.728
 4758POPC   C1A62019  10.242  10.558   6.169
 4758POPC   D2A62020  10.041  10.492   6.600
 4758POPC   C3A62021  10.409  10.495   6.844
 4758POPC   C4A62022  10.586  10.510   7.251
 4758POPC   C1B62023  10.941  10.657   6.158
 4758POPC   C2B62024  10.848  10.811   6.580
 4758POPC   C3B62025  10.991  10.648   6.955
 4758POPC   C4B62026  10.993  10.225   7.126
 4759POPC   NC362027  34.561   7.931   5.400
 4759POPC   PO462028  34.764   8.476   5.724
 4759POPC   GL162029  34.381   8.221   5.861
 4759POPC   GL262030  34.238   7.846   5.802
 4759POPC   C1A62031  34.367   8.341   6.298
 4759POPC   D2A62032  34.714   8.493   6.588
 4759POPC   C3A62033  34.682   8.359   7.017
 4759POPC   C4A62034  34.245   8.164   7.138
 4759POPC   C1B62035  34.449   7.820   6.217
 4759POPC   C2B62036  34.545   7.987   6.658
 4759POPC   C3B62037  34.664   7.859   7.096
 4759POPC   C4B62038  34.548   8.001   7.520
 4760POPC   NC362039  22.646   0.527   5.210
 4760POPC   PO462040  23.267   0.353   5.477
 4760POPC   GL162041  23.204   0.192   5.872
 4760POPC   GL262042  22.852   0.130   5.768
 4760POPC   C1A62043  23.116   0.302   6.327
 4760POPC   D2A62044  22.865   0.604   6.557
 4760POPC   C3A62045  22.923   0.584   6.985
 4760POPC   C4A62046  22.975   0.256   7.259
 4760POPC   C1B62047  22.605   0.204   6.138
 4760POPC   C2B62048  22.696   0.094   6.556
 4760POPC   C3B62049  22.565   0.174   6.972
 4760POPC   C4B62050  22.568  44.984   7.377
 4761POPC   NC362051  32.333  17.306   5.363
 4761POPC   PO462052  31.823  17.745   5.419
 4761POPC   GL162053  32.143  17.730   5.766
 4761POPC   GL262054  32.493  17.611   5.747
 4761POPC   C1A62055  32.342  17.775   6.201
 4761POPC   D2A62056  32.391  17.737   6.633
 4761POPC   C3A62057  32.074  17.886   6.891
 4761POPC   C4A62058  32.020  17.711   7.280
 4761POPC   C1B62059  32.286  17.301   6.054
 4761POPC   C2B62060  32.298  17.191   6.507
 4761POPC   C3B62061  32.214  17.341   6.920
 4761POPC   C4B62062  32.294  17.237   7.330
 4762POPC   NC362063  40.485   8.705   5.457
 4762POPC   PO462064  41.113   9.066   5.281
 4762POPC   GL162065  41.076   9.016   5.717
 4762POPC   GL262066  41.087   9.375   5.734
 4762POPC   C1A62067  40.902   8.793   6.110
 4762POPC   D2A62068  40.544   8.795   6.431
 4762POPC   C3A62069  40.638   8.853   6.875
 4762POPC   C4A62070  40.603   9.157   7.193
 4762POPC   C1B62071  41.110   9.308   6.152
 4762POPC   C2B62072  40.988   9.080   6.527
 4762POPC   C3B62073  41.063   9.171   6.952
 4762POPC   C4B62074  41.068   9.358   7.334
 4763POPC   NC362075  44.274   2.576   5.496
 4763POPC   PO462076  44.822   2.901   5.430
 4763POPC   GL162077  44.726   2.764   5.850
 4763POPC   GL262078  44.405   2.635   5.974
 4763POPC   C1A62079  44.783   2.847   6.283
 4763POPC   D2A62080  44.622   2.746   6.696
 4763POPC   C3A62081  44.814   2.876   7.083
 4763POPC   C4A62082   0.045   2.644   7.399
 4763POPC   C1B62083  44.265   2.873   6.322
 4763POPC   C2B62084  44.135   2.852   6.764
 4763POPC   C3B62085  44.332   2.589   7.130
 4763POPC   C4B62086  44.205   2.391   7.557
 4764POPC   NC362087  34.521  35.120   5.387
 4764POPC   PO462088  34.195  35.756   5.294
 4764POPC   GL162089  34.268  35.488   5.662
 4764POPC   GL262090  34.630  35.497   5.756
 4764POPC   C1A62091  34.287  35.358   6.107
 4764POPC   D2A62092  34.354  35.100   6.483
 4764POPC   C3A62093  34.516  35.348   6.826
 4764POPC   C4A62094  34.331  35.541   7.214
 4764POPC   C1B62095  34.847  35.343   6.140
 4764POPC   C2B62096  34.992  35.504   6.541
 4764POPC   C3B62097  35.026  35.319   6.929
 4764POPC   C4B62098  34.772  35.304   7.268
 4765POPC   NC362099  17.914   3.814   5.278
 4765POPC   PO462100  18.613   3.885   5.454
 4765POPC   GL162101  18.415   3.623   5.826
 4765POPC   GL262102  18.430   3.240   5.801
 4765POPC   C1A62103  18.142   3.474   6.176
 4765POPC   D2A62104  17.922   3.683   6.542
 4765POPC   C3A62105  17.959   3.494   6.940
 4765POPC   C4A62106  18.028   3.820   7.209
 4765POPC   C1B62107  18.606   3.314   6.233
 4765POPC   C2B62108  18.375   3.390   6.643
 4765POPC   C3B62109  18.477   3.565   7.069
 4765POPC   C4B62110  18.467   3.340   7.463
 4766POPC   NC362111  12.471  18.065   5.364
 4766POPC   PO462112  13.083  18.418   5.427
 4766POPC   GL162113  12.820  18.492   5.800
 4766POPC   GL262114  12.640  18.186   5.821
 4766POPC   C1A62115  12.770  18.399   6.273
 4766POPC   D2A62116  12.575  18.436   6.693
 4766POPC   C3A62117  12.820  18.292   7.072
 4766POPC   C4A62118  13.079  17.954   7.159
 4766POPC   C1B62119  12.424  17.908   6.071
 4766POPC   C2B62120  12.563  17.955   6.467
 4766POPC   C3B62121  12.546  17.831   6.879
 4766POPC   C4B62122  12.558  17.902   7.294
 4767POPC   NC362123  34.089  29.513   5.321
 4767POPC   PO462124  34.689  29.826   5.141
 4767POPC   GL162125  34.656  29.673   5.604
 4767POPC   GL262126  34.322  29.806   5.695
 4767POPC   C1A62127  34.795  29.824   6.061
 4767POPC   D2A62128  34.867  29.713   6.541
 4767POPC   C3A62129  34.717  29.877   6.982
 4767POPC   C4A62130  34.706  30.091   7.420
 4767POPC   C1B62131  34.301  29.721   6.146
 4767POPC   C2B62132  34.366  29.868   6.565
 4767POPC   C3B62133  34.202  29.768   6.969
 4767POPC   C4B62134  34.218  30.014   7.308
 4768POPC   NC362135  25.036  23.168   5.425
 4768POPC   PO462136  25.555  22.729   5.480
 4768POPC   GL162137  25.491  22.850   5.891
 4768POPC   GL262138  25.377  23.177   5.830
 4768POPC   C1A62139  25.500  22.779   6.342
 4768POPC   D2A62140  25.474  22.985   6.703
 4768POPC   C3A62141  25.479  22.778   7.064
 4768POPC   C4A62142  25.074  22.755   7.303
 4768POPC   C1B62143  25.244  23.223   6.247
 4768POPC   C2B62144  25.058  23.281   6.653
 4768POPC   C3B62145  25.111  23.190   7.088
 4768POPC   C4B62146  25.432  23.079   7.458
 4769POPC   NC362147  10.089  15.339   5.550
 4769POPC   PO462148   9.420  14.893   5.508
 4769POPC   GL162149   9.607  14.868   5.905
 4769POPC   GL262150   9.907  15.068   5.930
 4769POPC   C1A62151   9.521  15.039   6.314
 4769POPC   D2A62152   9.477  14.905   6.724
 4769POPC   C3A62153   9.547  15.186   7.081
 4769POPC   C4A62154   9.553  15.014   7.528
 4769POPC   C1B62155   9.951  15.319   6.267
 4769POPC   C2B62156   9.908  15.189   6.677
 4769POPC   C3B62157  10.147  14.949   6.954
 4769POPC   C4B62158  10.004  15.153   7.321
 4770POPC   NC362159  23.927   2.442   4.894
 4770POPC   PO462160  23.689   2.760   5.382
 4770POPC   GL162161  23.719   2.564   5.769
 4770POPC   GL262162  23.984   2.367   5.796
 4770POPC   C1A62163  23.803   2.678   6.203
 4770POPC   D2A62164  23.795   2.864   6.634
 4770POPC   C3A62165  23.576   2.658   6.973
 4770POPC   C4A62166  23.447   2.745   7.401
 4770POPC   C1B62167  24.222   2.377   6.190
 4770POPC   C2B62168  24.235   2.590   6.583
 4770POPC   C3B62169  24.101   2.648   6.989
 4770POPC   C4B62170  23.933   2.549   7.349
 4771POPC   NC362171  15.372   2.937   4.950
 4771POPC   PO462172  14.921   2.738   5.447
 4771POPC   GL162173  15.157   2.585   5.807
 4771POPC   GL262174  15.301   2.251   5.753
 4771POPC   C1A62175  15.101   2.672   6.244
 4771POPC   D2A62176  15.162   2.928   6.611
 4771POPC   C3A62177  14.873   2.831   6.908
 4771POPC   C4A62178  15.000   2.779   7.307
 4771POPC   C1B62179  15.488   2.346   6.141
 4771POPC   C2B62180  15.541   2.585   6.517
 4771POPC   C3B62181  15.314   2.520   6.902
 4771POPC   C4B62182  15.397   2.452   7.321
 4772POPC   NC362183  22.528  27.161   5.568
 4772POPC   PO462184  22.007  27.669   5.384
 4772POPC   GL162185  22.118  27.875   5.756
 4772POPC   GL262186  22.316  27.585   5.818
 4772POPC   C1A62187  22.043  27.782   6.215
 4772POPC   D2A62188  22.100  27.525   6.582
 4772POPC   C3A62189  21.965  27.744   6.930
 4772POPC   C4A62190  22.155  27.664   7.302
 4772POPC   C1B62191  22.379  27.351   6.186
 4772POPC   C2B62192  22.647  27.361   6.530
 4772POPC   C3B62193  22.482  27.430   6.933
 4772POPC   C4B62194  22.458  27.259   7.342
 4773POPC   NC362195  33.069  24.938   5.507
 4773POPC   PO462196  33.338  24.287   5.584
 4773POPC   GL162197  32.991  24.561   5.847
 4773POPC   GL262198  33.125  24.757   6.118
 4773POPC   C1A62199  32.644  24.663   6.186
 4773POPC   D2A62200  32.791  24.683   6.617
 4773POPC   C3A62201  32.789  24.292   6.808
 4773POPC   C4A62202  32.811  24.117   7.205
 4773POPC   C1B62203  33.087  24.353   6.344
 4773POPC   C2B62204  33.293  24.382   6.758
 4773POPC   C3B62205  33.142  24.518   7.172
 4773POPC   C4B62206  33.240  24.690   7.569
 4774POPC   NC362207  26.273  30.637   5.465
 4774POPC   PO462208  25.752  31.154   5.515
 4774POPC   GL162209  25.757  30.898   5.909
 4774POPC   GL262210  25.861  30.547   5.872
 4774POPC   C1A62211  25.654  30.814   6.357
 4774POPC   D2A62212  25.880  30.676   6.745
 4774POPC   C3A62213  25.811  30.905   7.143
 4774POPC   C4A62214  25.962  31.093   7.549
 4774POPC   C1B62215  26.052  30.447   6.293
 4774POPC   C2B62216  26.310  30.373   6.674
 4774POPC   C3B62217  26.187  30.404   7.113
 4774POPC   C4B62218  26.140  30.617   7.524
 4775POPC   NC362219  34.131  34.439   5.528
 4775POPC   PO462220  34.763  34.718   5.469
 4775POPC   GL162221  34.558  34.505   5.790
 4775POPC   GL262222  34.770  34.358   5.972
 4775POPC   C1A62223  34.346  34.445   6.208
 4775POPC   D2A62224  34.526  34.609   6.611
 4775POPC   C3A62225  34.290  34.469   7.008
 4775POPC   C4A62226  34.354  34.503   7.467
 4775POPC   C1B62227  34.665  34.844   6.143
 4775POPC   C2B62228  34.866  35.005   6.542
 4775POPC   C3B62229  34.794  34.868   6.966
 4775POPC   C4B62230  34.399  34.943   7.173
 4776POPC   NC362231  20.970  20.765   5.380
 4776POPC   PO462232  20.334  20.580   5.447
 4776POPC   GL162233  20.427  20.818   5.801
 4776POPC   GL262234  20.729  20.687   5.850
 4776POPC   C1A62235  20.459  20.971   6.209
 4776POPC   D2A62236  20.801  20.965   6.508
 4776POPC   C3A62237  20.613  20.802   6.920
 4776POPC   C4A62238  20.707  20.812   7.380
 4776POPC   C1B62239  20.478  20.365   6.088
 4776POPC   C2B62240  20.587  20.150   6.463
 4776POPC   C3B62241  20.709  20.248   6.881
 4776POPC   C4B62242  20.516  20.362   7.241
 4777POPC   NC362243  31.694  19.608   5.382
 4777POPC   PO462244  31.066  19.920   5.440
 4777POPC   GL162245  31.346  19.735   5.774
 4777POPC   GL262246  31.688  19.892   5.808
 4777POPC   C1A62247  31.337  19.750   6.238
 4777POPC   D2A62248  31.371  19.884   6.663
 4777POPC   C3A62249  31.386  19.738   7.065
 4777POPC   C4A62250  31.670  20.081   7.215
 4777POPC   C1B62251  31.797  19.551   6.091
 4777POPC   C2B62252  31.666  19.394   6.514
 4777POPC   C3B62253  31.865  19.478   6.925
 4777POPC   C4B62254  31.793  19.611   7.364
 4778POPC   NC362255  24.678  38.833   5.534
 4778POPC   PO462256  24.213  38.433   5.320
 4778POPC   GL162257  24.395  38.459   5.731
 4778POPC   GL262258  24.240  38.184   5.849
 4778POPC   C1A62259  24.351  38.650   6.150
 4778POPC   D2A62260  24.531  38.733   6.551
 4778POPC   C3A62261  24.538  38.596   6.976
 4778POPC   C4A62262  24.716  38.815   7.324
 4778POPC   C1B62263  24.507  38.151   6.184
 4778POPC   C2B62264  24.429  38.182   6.624
 4778POPC   C3B62265  24.700  38.081   6.952
 4778POPC   C4B62266  24.519  38.183   7.326
 4779POPC   NC362267   5.467  17.817   5.057
 4779POPC   PO462268   5.664  17.245   5.238
 4779POPC   GL162269   5.807  17.572   5.568
 4779POPC   GL262270   5.974  17.314   5.720
 4779POPC   C1A62271   5.994  17.708   6.025
 4779POPC   D2A62272   5.852  17.651   6.481
 4779POPC   C3A62273   5.868  17.801   6.941
 4779POPC   C4A62274   5.515  17.756   7.222
 4779POPC   C1B62275   6.086  17.186   6.142
 4779POPC   C2B62276   6.022  17.173   6.579
 4779POPC   C3B62277   5.801  17.302   6.926
 4779POPC   C4B62278   5.894  17.430   7.339
 4780POPC   NC362279  13.187  19.730   5.391
 4780POPC   PO462280  12.631  19.976   5.459
 4780POPC   GL162281  12.721  19.755   5.773
 4780POPC   GL262282  13.020  19.918   5.853
 4780POPC   C1A62283  12.618  19.706   6.173
 4780POPC   D2A62284  12.825  19.798   6.574
 4780POPC   C3A62285  12.533  19.957   6.895
 4780POPC   C4A62286  12.465  20.137   7.307
 4780POPC   C1B62287  13.230  19.914   6.245
 4780POPC   C2B62288  13.208  20.120   6.649
 4780POPC   C3B62289  13.051  20.008   7.035
 4780POPC   C4B62290  13.178  19.901   7.431
 4781POPC   NC362291  37.686   3.389   5.567
 4781POPC   PO462292  37.851   2.683   5.360
 4781POPC   GL162293  37.916   2.883   5.726
 4781POPC   GL262294  37.606   2.771   5.846
 4781POPC   C1A62295  38.047   2.944   6.158
 4781POPC   D2A62296  37.869   3.144   6.554
 4781POPC   C3A62297  37.919   2.951   6.972
 4781POPC   C4A62298  37.641   3.019   7.295
 4781POPC   C1B62299  37.573   2.782   6.328
 4781POPC   C2B62300  37.455   2.800   6.801
 4781POPC   C3B62301  37.352   2.621   7.235
 4781POPC   C4B62302  37.450   2.751   7.687
 4782POPC   NC362303   7.680   0.416   4.922
 4782POPC   PO462304   7.222   0.415   5.431
 4782POPC   GL162305   7.455   0.320   5.814
 4782POPC   GL262306   7.824   0.269   5.876
 4782POPC   C1A62307   7.536   0.459   6.236
 4782POPC   D2A62308   7.468   0.228   6.563
 4782POPC   C3A62309   7.423   0.390   6.966
 4782POPC   C4A62310   7.343   0.160   7.342
 4782POPC   C1B62311   7.953   0.127   6.316
 4782POPC   C2B62312   7.894   0.073   6.771
 4782POPC   C3B62313   7.829   0.199   7.206
 4782POPC   C4B62314   7.691  44.997   7.672
 4783POPC   NC362315  15.412   7.190   5.307
 4783POPC   PO462316  15.047   7.804   5.236
 4783POPC   GL162317  15.082   7.644   5.661
 4783POPC   GL262318  14.811   7.710   5.884
 4783POPC   C1A62319  15.277   7.463   6.059
 4783POPC   D2A62320  15.217   7.177   6.444
 4783POPC   C3A62321  15.014   7.298   6.849
 4783POPC   C4A62322  15.231   7.161   7.240
 4783POPC   C1B62323  15.041   7.883   6.263
 4783POPC   C2B62324  15.185   7.775   6.657
 4783POPC   C3B62325  15.117   7.850   7.089
 4783POPC   C4B62326  14.950   7.566   7.363
 4784POPC   NC362327  11.945  42.624   5.557
 4784POPC   PO462328  12.587  42.554   5.425
 4784POPC   GL162329  12.361  42.371   5.761
 4784POPC   GL262330  12.105  42.150   5.692
 4784POPC   C1A62331  12.193  42.482   6.166
 4784POPC   D2A62332  12.318  42.454   6.583
 4784POPC   C3A62333  12.043  42.357   6.920
 4784POPC   C4A62334  11.846  42.623   7.215
 4784POPC   C1B62335  12.107  41.984   6.113
 4784POPC   C2B62336  12.313  41.953   6.510
 4784POPC   C3B62337  12.280  41.891   6.932
 4784POPC   C4B62338  12.271  42.105   7.336
 4785POPC   NC362339  32.471  33.476   5.437
 4785POPC   PO462340  32.188  34.113   5.398
 4785POPC   GL162341  32.286  33.923   5.830
 4785POPC   GL262342  32.245  33.584   5.896
 4785POPC   C1A62343  32.591  33.821   6.200
 4785POPC   D2A62344  32.530  33.708   6.642
 4785POPC   C3A62345  32.234  33.988   6.855
 4785POPC   C4A62346  32.197  34.214   7.240
 4785POPC   C1B62347  32.088  33.665   6.351
 4785POPC   C2B62348  32.043  33.508   6.802
 4785POPC   C3B62349  32.017  33.701   7.226
 4785POPC   C4B62350  31.957  33.511   7.684
 4786POPC   NC362351  39.995  18.833   5.397
 4786POPC   PO462352  39.681  19.498   5.388
 4786POPC   GL162353  39.875  19.245   5.704
 4786POPC   GL262354  40.236  19.173   5.710
 4786POPC   C1A62355  39.947  19.124   6.130
 4786POPC   D2A62356  39.744  19.179   6.503
 4786POPC   C3A62357  39.990  19.093   6.841
 4786POPC   C4A62358  39.834  19.176   7.269
 4786POPC   C1B62359  40.457  19.242   6.094
 4786POPC   C2B62360  40.497  19.045   6.486
 4786POPC   C3B62361  40.499  19.156   6.875
 4786POPC   C4B62362  40.312  18.982   7.231
 4787POPC   NC362363  43.624  42.006   4.978
 4787POPC   PO462364  44.030  42.270   5.494
 4787POPC   GL162365  43.892  42.210   5.880
 4787POPC   GL262366  44.097  41.898   5.918
 4787POPC   C1A62367  43.691  42.408   6.270
 4787POPC   D2A62368  43.825  42.346   6.709
 4787POPC   C3A62369  43.770  42.544   7.101
 4787POPC   C4A62370  44.066  42.741   7.359
 4787POPC   C1B62371  44.108  42.093   6.306
 4787POPC   C2B62372  44.305  42.287   6.578
 4787POPC   C3B62373  44.202  42.025   6.903
 4787POPC   C4B62374  44.098  42.175   7.257
 4788POPC   NC362375  33.366  37.645   5.521
 4788POPC   PO462376  32.690  37.402   5.468
 4788POPC   GL162377  32.928  37.631   5.811
 4788POPC   GL262378  33.228  37.458   5.978
 4788POPC   C1A62379  32.973  37.860   6.224
 4788POPC   D2A62380  32.898  38.055   6.648
 4788POPC   C3A62381  32.843  37.774   7.020
 4788POPC   C4A62382  32.932  37.591   7.432
 4788POPC   C1B62383  33.523  37.658   6.211
 4788POPC   C2B62384  33.385  37.926   6.511
 4788POPC   C3B62385  33.340  37.930   6.889
 4788POPC   C4B62386  33.409  37.737   7.228
 4789POPC   NC362387  41.845   2.939   5.373
 4789POPC   PO462388  41.320   2.594   5.442
 4789POPC   GL162389  41.440   2.902   5.738
 4789POPC   GL262390  41.786   2.943   5.872
 4789POPC   C1A62391  41.367   2.932   6.179
 4789POPC   D2A62392  41.090   2.938   6.522
 4789POPC   C3A62393  41.428   2.930   6.861
 4789POPC   C4A62394  41.421   2.790   7.284
 4789POPC   C1B62395  41.827   2.664   6.214
 4789POPC   C2B62396  41.850   2.696   6.647
 4789POPC   C3B62397  41.886   2.712   7.106
 4789POPC   C4B62398  41.855   2.870   7.550
 4790POPC   NC362399   3.254  28.460   5.481
 4790POPC   PO462400   3.607  27.982   5.453
 4790POPC   GL162401   3.537  28.249   5.855
 4790POPC   GL262402   3.589  28.613   5.864
 4790POPC   C1A62403   3.304  28.349   6.246
 4790POPC   D2A62404   3.099  28.222   6.661
 4790POPC   C3A62405   3.300  28.296   7.090
 4790POPC   C4A62406   3.506  28.219   7.510
 4790POPC   C1B62407   3.792  28.435   6.277
 4790POPC   C2B62408   3.615  28.357   6.693
 4790POPC   C3B62409   3.804  28.411   7.096
 4790POPC   C4B62410   4.247  28.541   7.140
 4791POPC   NC362411  23.512  11.135   5.450
 4791POPC   PO462412  23.961  11.554   5.524
 4791POPC   GL162413  23.886  11.156   5.817
 4791POPC   GL262414  23.537  11.070   5.951
 4791POPC   C1A62415  23.910  11.122   6.286
 4791POPC   D2A62416  23.578  11.198   6.594
 4791POPC   C3A62417  23.628  11.088   7.040
 4791POPC   C4A62418  23.750  11.179   7.487
 4791POPC   C1B62419  23.597  11.504   6.101
 4791POPC   C2B62420  23.600  11.707   6.490
 4791POPC   C3B62421  23.494  11.585   6.915
 4791POPC   C4B62422  23.412  11.544   7.353
 4792POPC   NC362423  10.952   4.944   5.329
 4792POPC   PO462424  11.572   5.274   5.307
 4792POPC   GL162425  11.300   5.200   5.655
 4792POPC   GL262426  11.191   4.864   5.766
 4792POPC   C1A62427  11.243   5.248   6.113
 4792POPC   D2A62428  11.102   5.311   6.550
 4792POPC   C3A62429  11.437   5.265   6.844
 4792POPC   C4A62430  11.584   5.103   7.256
 4792POPC   C1B62431  10.967   4.774   6.139
 4792POPC   C2B62432  11.164   4.767   6.552
 4792POPC   C3B62433  11.138   4.817   6.999
 4792POPC   C4B62434  10.762   4.665   7.209
 4793POPC   NC362435  19.896  12.415   5.617
 4793POPC   PO462436  19.835  11.869   5.365
 4793POPC   GL162437  19.842  11.937   5.853
 4793POPC   GL262438  19.565  12.184   5.950
 4793POPC   C1A62439  19.670  11.804   6.309
 4793POPC   D2A62440  19.860  11.688   6.735
 4793POPC   C3A62441  20.001  12.030   6.998
 4793POPC   C4A62442  19.864  12.189   7.409
 4793POPC   C1B62443  19.354  12.200   6.375
 4793POPC   C2B62444  19.524  12.080   6.778
 4793POPC   C3B62445  19.479  11.903   7.197
 4793POPC   C4B62446  19.438  12.035   7.666
 4794POPC   NC362447  19.337  37.805   5.465
 4794POPC   PO462448  18.617  37.595   5.564
 4794POPC   GL162449  18.940  37.668   5.802
 4794POPC   GL262450  19.112  37.390   5.833
 4794POPC   C1A62451  19.032  37.687   6.253
 4794POPC   D2A62452  19.237  37.531   6.645
 4794POPC   C3A62453  19.231  37.804   7.027
 4794POPC   C4A62454  18.964  38.141   7.247
 4794POPC   C1B62455  19.408  37.231   6.163
 4794POPC   C2B62456  19.701  37.279   6.533
 4794POPC   C3B62457  19.575  37.312   6.976
 4794POPC   C4B62458  19.227  37.302   7.233
 4795POPC   NC362459  25.148  11.524   5.473
 4795POPC   PO462460  25.469  10.871   5.430
 4795POPC   GL162461  25.430  11.182   5.754
 4795POPC   GL262462  25.092  11.203   5.891
 4795POPC   C1A62463  25.505  11.408   6.151
 4795POPC   D2A62464  25.472  11.212   6.555
 4795POPC   C3A62465  25.258  11.375   6.941
 4795POPC   C4A62466  24.916  11.128   7.170
 4795POPC   C1B62467  25.037  11.623   6.129
 4795POPC   C2B62468  24.960  11.633   6.584
 4795POPC   C3B62469  24.788  11.621   7.032
 4795POPC   C4B62470  24.602  11.446   7.425
 4796POPC   NC362471  40.598  21.153   5.417
 4796POPC   PO462472  41.237  21.363   5.355
 4796POPC   GL162473  40.945  21.353   5.748
 4796POPC   GL262474  40.686  21.600   5.829
 4796POPC   C1A62475  40.992  21.384   6.202
 4796POPC   D2A62476  40.769  21.349   6.597
 4796POPC   C3A62477  40.971  21.463   6.961
 4796POPC   C4A62478  40.863  21.583   7.378
 4796POPC   C1B62479  40.456  21.422   6.211
 4796POPC   C2B62480  40.251  21.369   6.636
 4796POPC   C3B62481  40.471  21.428   7.044
 4796POPC   C4B62482  40.425  21.348   7.501
 4797POPC   NC362483  19.314  42.247   5.162
 4797POPC   PO462484  18.938  42.659   5.466
 4797POPC   GL162485  19.015  42.379   5.826
 4797POPC   GL262486  19.237  42.073   5.783
 4797POPC   C1A62487  18.766  42.243   6.181
 4797POPC   D2A62488  18.722  42.448   6.578
 4797POPC   C3A62489  18.680  42.219   6.922
 4797POPC   C4A62490  18.933  42.327   7.226
 4797POPC   C1B62491  19.272  42.135   6.255
 4797POPC   C2B62492  19.130  42.098   6.701
 4797POPC   C3B62493  19.117  41.868   7.124
 4797POPC   C4B62494  19.354  41.949   7.516
 4798POPC   NC362495  11.803  10.546   5.286
 4798POPC   PO462496  11.182  10.385   5.284
 4798POPC   GL162497  11.399  10.651   5.580
 4798POPC   GL262498  11.651  10.427   5.745
 4798POPC   C1A62499  11.427  10.819   5.987
 4798POPC   D2A62500  11.347  10.858   6.433
 4798POPC   C3A62501  11.586  10.838   6.823
 4798POPC   C4A62502  11.369  10.866   7.225
 4798POPC   C1B62503  11.470  10.340   6.141
 4798POPC   C2B62504  11.581  10.394   6.549
 4798POPC   C3B62505  11.455  10.349   6.932
 4798POPC   C4B62506  11.667  10.462   7.259
 4799POPC   NC362507  28.861  36.611   5.410
 4799POPC   PO462508  29.440  37.014   5.471
 4799POPC   GL162509  29.229  37.078   5.853
 4799POPC   GL262510  29.009  36.829   5.866
 4799POPC   C1A62511  29.301  36.864   6.275
 4799POPC   D2A62512  29.154  36.668   6.660
 4799POPC   C3A62513  29.221  36.960   7.016
 4799POPC   C4A62514  29.038  36.951   7.437
 4799POPC   C1B62515  28.773  36.823   6.265
 4799POPC   C2B62516  28.610  36.675   6.664
 4799POPC   C3B62517  28.805  36.665   7.060
 4799POPC   C4B62518  28.868  36.463   7.424
 4800POPC   NC362519   8.947  23.623   5.386
 4800POPC   PO462520   8.558  24.164   5.559
 4800POPC   GL162521   8.760  23.970   5.886
 4800POPC   GL262522   9.094  23.839   5.810
 4800POPC   C1A62523   8.834  23.696   6.235
 4800POPC   D2A62524   8.945  23.826   6.633
 4800POPC   C3A62525   8.918  23.578   6.978
 4800POPC   C4A62526   8.956  23.265   7.233
 4800POPC   C1B62527   9.317  23.617   6.126
 4800POPC   C2B62528   9.442  23.682   6.542
 4800POPC   C3B62529   9.407  23.452   6.918
 4800POPC   C4B62530   9.341  23.741   7.263
 4801POPC   NC362531  24.023  25.103   5.115
 4801POPC   PO462532  23.724  25.428   5.587
 4801POPC   GL162533  23.642  25.500   5.997
 4801POPC   GL262534  23.289  25.643   6.006
 4801POPC   C1A62535  23.538  25.221   6.333
 4801POPC   D2A62536  23.270  24.935   6.583
 4801POPC   C3A62537  23.443  24.967   6.971
 4801POPC   C4A62538  23.834  25.123   7.074
 4801POPC   C1B62539  23.446  25.735   6.397
 4801POPC   C2B62540  23.746  25.618   6.692
 4801POPC   C3B62541  23.774  25.627   7.092
 4801POPC   C4B62542  23.442  25.435   7.209
 4802POPC   NC362543  28.507  40.820   5.375
 4802POPC   PO462544  27.892  40.424   5.513
 4802POPC   GL162545  28.124  40.865   5.732
 4802POPC   GL262546  28.488  41.077   5.825
 4802POPC   C1A62547  28.113  41.043   6.158
 4802POPC   D2A62548  28.366  40.830   6.485
 4802POPC   C3A62549  28.214  40.790   6.891
 4802POPC   C4A62550  28.019  40.548   7.185
 4802POPC   C1B62551  28.558  41.268   6.280
 4802POPC   C2B62552  28.507  41.234   6.770
 4802POPC   C3B62553  28.586  41.011   7.175
 4802POPC   C4B62554  28.524  40.588   7.263
 4803POPC   NC362555   6.890  42.929   5.202
 4803POPC   PO462556   6.390  43.318   5.503
 4803POPC   GL162557   6.518  43.159   5.862
 4803POPC   GL262558   6.792  43.000   5.716
 4803POPC   C1A62559   6.356  43.057   6.242
 4803POPC   D2A62560   6.573  43.088   6.608
 4803POPC   C3A62561   6.330  43.002   6.958
 4803POPC   C4A62562   6.492  42.961   7.384
 4803POPC   C1B62563   6.864  42.908   6.172
 4803POPC   C2B62564   6.840  42.671   6.598
 4803POPC   C3B62565   6.864  42.843   7.016
 4803POPC   C4B62566   7.195  42.866   7.327
 4804POPC   NC362567   1.609  10.218   5.184
 4804POPC   PO462568   1.087  10.019   5.600
 4804POPC   GL162569   1.210   9.695   5.883
 4804POPC   GL262570   1.047   9.409   5.772
 4804POPC   C1A62571   1.296   9.696   6.307
 4804POPC   D2A62572   1.014   9.886   6.555
 4804POPC   C3A62573   1.146  10.029   6.952
 4804POPC   C4A62574   1.521  10.021   7.191
 4804POPC   C1B62575   0.960   9.305   6.209
 4804POPC   C2B62576   1.046   9.371   6.645
 4804POPC   C3B62577   1.072   9.479   7.071
 4804POPC   C4B62578   0.935   9.325   7.463
 4805POPC   NC362579  10.908  25.874   5.538
 4805POPC   PO462580  10.278  26.157   5.406
 4805POPC   GL162581  10.477  26.031   5.799
 4805POPC   GL262582  10.415  25.663   5.784
 4805POPC   C1A62583  10.699  25.932   6.220
 4805POPC   D2A62584  10.810  26.116   6.663
 4805POPC   C3A62585  10.822  26.021   7.122
 4805POPC   C4A62586  10.512  26.080   7.448
 4805POPC   C1B62587  10.209  25.789   6.171
 4805POPC   C2B62588  10.294  25.967   6.560
 4805POPC   C3B62589  10.309  26.069   6.980
 4805POPC   C4B62590   9.997  26.080   7.298
 4806POPC   NC362591  42.206   9.080   5.163
 4806POPC   PO462592  42.459   8.679   5.601
 4806POPC   GL162593  42.298   8.841   5.870
 4806POPC   GL262594  42.053   9.024   5.690
 4806POPC   C1A62595  42.378   8.825   6.276
 4806POPC   D2A62596  42.677   9.022   6.492
 4806POPC   C3A62597  42.515   9.061   6.889
 4806POPC   C4A62598  42.655   9.325   7.222
 4806POPC   C1B62599  41.878   8.803   6.088
 4806POPC   C2B62600  41.861   8.836   6.522
 4806POPC   C3B62601  41.948   9.117   6.858
 4806POPC   C4B62602  42.145   9.191   7.243
 4807POPC   NC362603  34.328  17.032   5.285
 4807POPC   PO462604  33.630  16.943   5.367
 4807POPC   GL162605  33.718  16.900   5.780
 4807POPC   GL262606  33.976  17.132   5.869
 4807POPC   C1A62607  33.540  16.747   6.166
 4807POPC   D2A62608  33.696  16.555   6.526
 4807POPC   C3A62609  33.577  16.678   6.913
 4807POPC   C4A62610  33.511  16.566   7.326
 4807POPC   C1B62611  34.084  16.718   6.081
 4807POPC   C2B62612  34.193  16.635   6.496
 4807POPC   C3B62613  34.071  16.557   6.908
 4807POPC   C4B62614  33.977  16.786   7.289
 4808POPC   NC362615  29.377  29.480   5.413
 4808POPC   PO462616  28.967  28.955   5.406
 4808POPC   GL162617  29.080  29.166   5.808
 4808POPC   GL262618  28.894  28.879   5.931
 4808POPC   C1A62619  29.083  29.177   6.298
 4808POPC   D2A62620  29.219  29.108   6.733
 4808POPC   C3A62621  29.035  29.255   7.105
 4808POPC   C4A62622  28.951  29.657   7.201
 4808POPC   C1B62623  29.335  28.792   6.053
 4808POPC   C2B62624  29.580  28.976   6.378
 4808POPC   C3B62625  29.743  29.153   6.760
 4808POPC   C4B62626  29.529  29.128   7.140
 4809POPC   NC362627  36.303  10.414   5.351
 4809POPC   PO462628  35.639  10.398   5.328
 4809POPC   GL162629  35.955  10.313   5.716
 4809POPC   GL262630  36.083  10.616   5.844
 4809POPC   C1A62631  36.143  10.232   6.164
 4809POPC   D2A62632  35.973  10.269   6.606
 4809POPC   C3A62633  36.170  10.347   7.004
 4809POPC   C4A62634  36.224  10.128   7.423
 4809POPC   C1B62635  35.829  10.642   6.237
 4809POPC   C2B62636  35.987  10.780   6.644
 4809POPC   C3B62637  35.967  10.822   7.088
 4809POPC   C4B62638  36.134  10.789   7.522
 4810POPC   NC362639  39.220  22.290   5.193
 4810POPC   PO462640  38.506  22.262   5.329
 4810POPC   GL162641  38.632  22.322   5.709
 4810POPC   GL262642  39.008  22.390   5.686
 4810POPC   C1A62643  38.480  22.100   6.096
 4810POPC   D2A62644  38.400  21.899   6.506
 4810POPC   C3A62645  38.280  22.192   6.855
 4810POPC   C4A62646  38.058  22.452   7.184
 4810POPC   C1B62647  38.946  21.975   5.934
 4810POPC   C2B62648  38.937  21.973   6.390
 4810POPC   C3B62649  38.897  22.070   6.840
 4810POPC   C4B62650  38.644  22.115   7.193
 4811POPC   NC362651  20.422  24.653   5.398
 4811POPC   PO462652  21.032  24.354   5.370
 4811POPC   GL162653  21.054  24.447   5.815
 4811POPC   GL262654  20.833  24.728   5.828
 4811POPC   C1A62655  20.986  24.389   6.275
 4811POPC   D2A62656  20.623  24.295   6.548
 4811POPC   C3A62657  20.634  24.187   7.001
 4811POPC   C4A62658  20.642  24.262   7.483
 4811POPC   C1B62659  20.502  24.672   6.170
 4811POPC   C2B62660  20.352  24.714   6.617
 4811POPC   C3B62661  20.484  24.670   7.058
 4811POPC   C4B62662  20.226  24.896   7.301
 4812POPC   NC362663   1.565  12.054   5.156
 4812POPC   PO462664   0.971  11.907   5.415
 4812POPC   GL162665   1.127  12.165   5.732
 4812POPC   GL262666   1.462  12.111   5.722
 4812POPC   C1A62667   1.182  12.254   6.158
 4812POPC   D2A62668   1.203  11.923   6.426
 4812POPC   C3A62669   1.281  11.976   6.846
 4812POPC   C4A62670   1.107  12.099   7.239
 4812POPC   C1B62671   1.651  12.077   6.130
 4812POPC   C2B62672   1.601  12.280   6.527
 4812POPC   C3B62673   1.629  12.317   6.961
 4812POPC   C4B62674   1.644  12.018   7.256
 4813POPC   NC362675   8.431  16.305   5.372
 4813POPC   PO462676   8.049  16.895   5.545
 4813POPC   GL162677   8.385  16.812   5.819
 4813POPC   GL262678   8.381  16.473   5.870
 4813POPC   C1A62679   8.405  16.901   6.241
 4813POPC   D2A62680   8.442  16.706   6.637
 4813POPC   C3A62681   8.326  16.972   6.993
 4813POPC   C4A62682   7.925  17.012   7.204
 4813POPC   C1B62683   8.630  16.403   6.234
 4813POPC   C2B62684   8.595  16.192   6.646
 4813POPC   C3B62685   8.292  16.273   6.976
 4813POPC   C4B62686   8.305  16.560   7.312
 4814POPC   NC362687  29.666  25.178   5.349
 4814POPC   PO462688  29.898  25.751   5.217
 4814POPC   GL162689  29.975  25.364   5.683
 4814POPC   GL262690  30.051  24.992   5.752
 4814POPC   C1A62691  29.923  25.328   6.168
 4814POPC   D2A62692  29.951  25.572   6.587
 4814POPC   C3A62693  29.860  25.373   6.997
 4814POPC   C4A62694  30.133  25.330   7.348
 4814POPC   C1B62695  30.133  24.828   6.191
 4814POPC   C2B62696  30.028  25.035   6.607
 4814POPC   C3B62697  29.943  24.868   7.047
 4814POPC   C4B62698  29.488  24.871   7.207
 4815POPC   NC362699   6.550  10.145   5.574
 4815POPC   PO462700   6.956   9.670   5.303
 4815POPC   GL162701   6.774   9.556   5.745
 4815POPC   GL262702   6.471   9.700   5.801
 4815POPC   C1A62703   6.666   9.493   6.235
 4815POPC   D2A62704   6.740   9.314   6.668
 4815POPC   C3A62705   6.712   9.561   7.021
 4815POPC   C4A62706   6.775   9.767   7.415
 4815POPC   C1B62707   6.325   9.897   6.194
 4815POPC   C2B62708   6.471   9.855   6.639
 4815POPC   C3B62709   6.448  10.010   7.102
 4815POPC   C4B62710   6.319   9.986   7.555
 4816POPC   NC362711  14.561   3.014   5.494
 4816POPC   PO462712  14.411   2.338   5.334
 4816POPC   GL162713  14.454   2.458   5.772
 4816POPC   GL262714  14.681   2.750   5.922
 4816POPC   C1A62715  14.377   2.444   6.205
 4816POPC   D2A62716  14.550   2.706   6.521
 4816POPC   C3A62717  14.369   2.668   6.911
 4816POPC   C4A62718  14.505   2.596   7.310
 4816POPC   C1B62719  14.388   3.030   6.160
 4816POPC   C2B62720  14.187   3.168   6.550
 4816POPC   C3B62721  14.263   3.169   6.988
 4816POPC   C4B62722  14.577   3.081   7.253
 4817POPC   NC362723   3.680  17.758   5.398
 4817POPC   PO462724   3.795  17.125   5.565
 4817POPC   GL162725   3.607  17.464   5.852
 4817POPC   GL262726   3.405  17.767   5.836
 4817POPC   C1A62727   3.573  17.479   6.310
 4817POPC   D2A62728   3.801  17.209   6.612
 4817POPC   C3A62729   3.615  17.219   7.011
 4817POPC   C4A62730   3.184  17.219   7.124
 4817POPC   C1B62731   3.252  17.937   6.240
 4817POPC   C2B62732   3.260  17.841   6.713
 4817POPC   C3B62733   3.468  17.716   7.116
 4817POPC   C4B62734   3.822  17.553   7.355
 4818POPC   NC362735  34.223  25.248   5.355
 4818POPC   PO462736  34.918  25.365   5.391
 4818POPC   GL162737  34.741  25.146   5.784
 4818POPC   GL262738  34.430  25.338   5.839
 4818POPC   C1A62739  34.552  25.064   6.245
 4818POPC   D2A62740  34.300  25.032   6.654
 4818POPC   C3A62741  34.601  25.114   6.999
 4818POPC   C4A62742  34.903  25.226   7.342
 4818POPC   C1B62743  34.466  25.575   6.248
 4818POPC   C2B62744  34.415  25.522   6.704
 4818POPC   C3B62745  34.327  25.675   7.110
 4818POPC   C4B62746  34.403  25.370   7.431
 4819POPC   NC362747  41.180   3.778   5.381
 4819POPC   PO462748  40.518   3.667   5.209
 4819POPC   GL162749  40.750   3.607   5.645
 4819POPC   GL262750  41.012   3.386   5.702
 4819POPC   C1A62751  40.608   3.524   6.101
 4819POPC   D2A62752  40.785   3.434   6.529
 4819POPC   C3A62753  40.673   3.596   6.972
 4819POPC   C4A62754  40.865   3.729   7.362
 4819POPC   C1B62755  41.123   3.380   6.124
 4819POPC   C2B62756  41.295   3.390   6.541
 4819POPC   C3B62757  41.055   3.247   6.925
 4819POPC   C4B62758  41.214   3.277   7.301
 4820POPC   NC362759  31.189  27.093   5.567
 4820POPC   PO462760  31.547  26.652   5.188
 4820POPC   GL162761  31.620  26.819   5.624
 4820POPC   GL262762  31.761  27.158   5.694
 4820POPC   C1A62763  31.685  26.680   6.060
 4820POPC   D2A62764  31.873  26.733   6.477
 4820POPC   C3A62765  31.772  26.479   6.831
 4820POPC   C4A62766  31.433  26.636   7.070
 4820POPC   C1B62767  31.668  27.267   6.145
 4820POPC   C2B62768  31.712  27.236   6.609
 4820POPC   C3B62769  31.681  27.122   7.064
 4820POPC   C4B62770  31.516  27.057   7.457
 4821POPC   NC362771  41.475  25.151   5.405
 4821POPC   PO462772  42.109  25.557   5.487
 4821POPC   GL162773  41.829  25.251   5.795
 4821POPC   GL262774  41.435  25.329   5.870
 4821POPC   C1A62775  41.762  25.274   6.268
 4821POPC   D2A62776  41.985  25.459   6.637
 4821POPC   C3A62777  41.776  25.350   7.025
 4821POPC   C4A62778  41.450  25.197   7.288
 4821POPC   C1B62779  41.422  25.657   6.177
 4821POPC   C2B62780  41.516  25.658   6.605
 4821POPC   C3B62781  41.359  25.646   6.998
 4821POPC   C4B62782  41.037  25.535   7.265
 4822POPC   NC362783  38.770  43.372   5.540
 4822POPC   PO462784  38.292  43.750   5.114
 4822POPC   GL162785  38.370  43.831   5.590
 4822POPC   GL262786  38.735  43.856   5.726
 4822POPC   C1A62787  38.350  43.983   6.050
 4822POPC   D2A62788  38.505  44.055   6.496
 4822POPC   C3A62789  38.274  43.953   6.886
 4822POPC   C4A62790  38.410  43.820   7.319
 4822POPC   C1B62791  38.723  43.617   6.131
 4822POPC   C2B62792  38.617  43.486   6.536
 4822POPC   C3B62793  38.698  43.674   6.896
 4822POPC   C4B62794  38.797  43.449   7.216
 4823POPC   NC362795  30.106   6.240   5.092
 4823POPC   PO462796  29.834   5.654   5.285
 4823POPC   GL162797  29.909   5.868   5.697
 4823POPC   GL262798  29.883   5.573   5.879
 4823POPC   C1A62799  29.995   5.976   6.156
 4823POPC   D2A62800  30.062   5.774   6.571
 4823POPC   C3A62801  29.765   5.881   6.894
 4823POPC   C4A62802  29.631   5.681   7.257
 4823POPC   C1B62803  30.280   5.541   6.135
 4823POPC   C2B62804  30.488   5.461   6.546
 4823POPC   C3B62805  30.348   5.492   6.959
 4823POPC   C4B62806  30.191   5.864   7.136
 4824POPC   NC362807  35.646  29.136   5.411
 4824POPC   PO462808  35.153  28.736   5.316
 4824POPC   GL162809  35.279  28.862   5.736
 4824POPC   GL262810  35.647  28.783   5.767
 4824POPC   C1A62811  35.049  28.973   6.152
 4824POPC   D2A62812  34.856  28.949   6.572
 4824POPC   C3A62813  34.969  29.280   6.878
 4824POPC   C4A62814  35.239  29.268   7.251
 4824POPC   C1B62815  35.637  29.106   6.122
 4824POPC   C2B62816  35.769  29.302   6.538
 4824POPC   C3B62817  35.701  29.311   7.007
 4824POPC   C4B62818  35.695  29.052   7.388
 4825POPC   NC362819  14.797  17.387   5.532
 4825POPC   PO462820  15.510  17.618   5.430
 4825POPC   GL162821  15.310  17.499   5.794
 4825POPC   GL262822  15.056  17.693   5.889
 4825POPC   C1A62823  15.326  17.385   6.208
 4825POPC   D2A62824  15.325  17.270   6.617
 4825POPC   C3A62825  15.207  17.571   6.878
 4825POPC   C4A62826  15.293  17.542   7.301
 4825POPC   C1B62827  14.834  17.514   6.225
 4825POPC   C2B62828  14.729  17.304   6.604
 4825POPC   C3B62829  14.772  17.303   7.045
 4825POPC   C4B62830  14.806  17.724   7.177
 4826POPC   NC362831  16.998  25.561   5.585
 4826POPC   PO462832  16.517  25.158   5.258
 4826POPC   GL162833  16.586  25.237   5.728
 4826POPC   GL262834  16.926  25.147   5.862
 4826POPC   C1A62835  16.517  25.429   6.184
 4826POPC   D2A62836  16.683  25.575   6.596
 4826POPC   C3A62837  16.591  25.372   7.003
 4826POPC   C4A62838  16.335  25.017   7.127
 4826POPC   C1B62839  17.005  25.310   6.246
 4826POPC   C2B62840  16.891  25.118   6.619
 4826POPC   C3B62841  17.082  25.207   7.013
 4826POPC   C4B62842  17.027  25.620   7.222
 4827POPC   NC362843  25.306   8.727   5.259
 4827POPC   PO462844  25.430   8.151   5.309
 4827POPC   GL162845  25.375   8.437   5.676
 4827POPC   GL262846  25.360   8.152   5.896
 4827POPC   C1A62847  25.263   8.600   6.100
 4827POPC   D2A62848  25.509   8.417   6.439
 4827POPC   C3A62849  25.405   8.447   6.881
 4827POPC   C4A62850  25.639   8.332   7.242
 4827POPC   C1B62851  25.157   8.078   6.304
 4827POPC   C2B62852  25.317   7.964   6.727
 4827POPC   C3B62853  25.284   7.980   7.179
 4827POPC   C4B62854  25.112   8.057   7.589
 4828POPC   NC362855  11.541  28.811   5.276
 4828POPC   PO462856  11.312  29.433   5.311
 4828POPC   GL162857  11.445  29.257   5.734
 4828POPC   GL262858  11.663  29.508   5.818
 4828POPC   C1A62859  11.307  29.049   6.174
 4828POPC   D2A62860  11.201  28.828   6.591
 4828POPC   C3A62861  11.176  29.055   6.992
 4828POPC   C4A62862  11.226  28.985   7.451
 4828POPC   C1B62863  11.714  29.345   6.225
 4828POPC   C2B62864  11.463  29.287   6.623
 4828POPC   C3B62865  11.477  29.467   7.078
 4828POPC   C4B62866  11.523  29.371   7.547
 4829POPC   NC362867  40.268  35.942   5.304
 4829POPC   PO462868  39.668  36.275   5.410
 4829POPC   GL162869  40.087  36.271   5.667
 4829POPC   GL262870  40.238  35.936   5.787
 4829POPC   C1A62871  40.153  36.325   6.128
 4829POPC   D2A62872  39.954  36.453   6.533
 4829POPC   C3A62873  40.177  36.447   6.944
 4829POPC   C4A62874  40.029  36.281   7.355
 4829POPC   C1B62875  40.089  35.806   6.157
 4829POPC   C2B62876  40.106  35.959   6.558
 4829POPC   C3B62877  40.002  35.965   6.974
 4829POPC   C4B62878  40.307  35.842   7.290
 4830POPC   NC362879  20.895   9.473   5.505
 4830POPC   PO462880  20.240   9.684   5.341
 4830POPC   GL162881  20.463   9.649   5.737
 4830POPC   GL262882  20.723   9.881   5.875
 4830POPC   C1A62883  20.530   9.457   6.129
 4830POPC   D2A62884  20.425   9.477   6.565
 4830POPC   C3A62885  20.765   9.679   6.805
 4830POPC   C4A62886  20.969   9.528   7.150
 4830POPC   C1B62887  20.720   9.887   6.331
 4830POPC   C2B62888  20.491  10.150   6.603
 4830POPC   C3B62889  20.607  10.267   7.024
 4830POPC   C4B62890  20.696   9.933   7.305
 4831POPC   NC362891  43.601  18.813   5.286
 4831POPC   PO462892  42.998  19.100   5.293
 4831POPC   GL162893  43.298  19.016   5.628
 4831POPC   GL262894  43.383  19.310   5.806
 4831POPC   C1A62895  43.363  18.847   6.036
 4831POPC   D2A62896  43.096  18.793   6.389
 4831POPC   C3A62897  43.221  18.746   6.804
 4831POPC   C4A62898  43.102  18.897   7.171
 4831POPC   C1B62899  43.149  19.287   6.207
 4831POPC   C2B62900  43.137  19.252   6.671
 4831POPC   C3B62901  43.157  19.387   7.105
 4831POPC   C4B62902  43.229  19.565   7.513
 4832POPC   NC362903  12.575  15.748   5.493
 4832POPC   PO462904  13.122  16.121   5.336
 4832POPC   GL162905  13.071  15.997   5.777
 4832POPC   GL262906  12.839  15.735   5.907
 4832POPC   C1A62907  13.208  15.873   6.206
 4832POPC   D2A62908  12.922  15.881   6.536
 4832POPC   C3A62909  13.069  16.048   6.910
 4832POPC   C4A62910  12.945  15.875   7.304
 4832POPC   C1B62911  12.528  15.681   6.250
 4832POPC   C2B62912  12.295  15.605   6.657
 4832POPC   C3B62913  12.472  15.455   7.084
 4832POPC   C4B62914  12.704  15.459   7.522
 4833POPC   NC362915   8.925  31.352   5.272
 4833POPC   PO462916   9.237  31.904   5.524
 4833POPC   GL162917   9.139  31.478   5.729
 4833POPC   GL262918   8.749  31.380   5.754
 4833POPC   C1A62919   9.042  31.379   6.172
 4833POPC   D2A62920   8.891  31.634   6.528
 4833POPC   C3A62921   9.157  31.597   6.859
 4833POPC   C4A62922   9.290  31.788   7.213
 4833POPC   C1B62923   8.544  31.484   6.174
 4833POPC   C2B62924   8.502  31.290   6.599
 4833POPC   C3B62925   8.658  31.491   6.985
 4833POPC   C4B62926   8.629  31.481   7.439
 4834POPC   NC362927  37.395  24.842   5.666
 4834POPC   PO462928  37.863  24.550   5.334
 4834POPC   GL162929  37.835  24.541   5.800
 4834POPC   GL262930  37.710  24.214   5.879
 4834POPC   C1A62931  37.714  24.657   6.244
 4834POPC   D2A62932  37.851  24.559   6.687
 4834POPC   C3A62933  37.736  24.739   7.098
 4834POPC   C4A62934  37.479  24.789   7.471
 4834POPC   C1B62935  37.967  24.211   6.269
 4834POPC   C2B62936  38.134  24.143   6.688
 4834POPC   C3B62937  37.926  24.085   7.104
 4834POPC   C4B62938  37.679  24.326   7.405
 4835POPC   NC362939  18.151  34.898   5.336
 4835POPC   PO462940  18.270  35.497   5.384
 4835POPC   GL162941  18.187  35.271   5.758
 4835POPC   GL262942  17.956  35.563   5.785
 4835POPC   C1A62943  18.268  35.081   6.201
 4835POPC   D2A62944  18.301  35.320   6.605
 4835POPC   C3A62945  18.631  35.224   6.921
 4835POPC   C4A62946  18.483  35.117   7.354
 4835POPC   C1B62947  17.917  35.452   6.182
 4835POPC   C2B62948  17.781  35.410   6.554
 4835POPC   C3B62949  17.907  35.536   6.935
 4835POPC   C4B62950  18.287  35.510   7.142
 4836POPC   NC362951  30.352  44.753   5.372
 4836POPC   PO462952  30.772  44.272   5.445
 4836POPC   GL162953  30.733  44.600   5.739
 4836POPC   GL262954  31.043  44.739   5.803
 4836POPC   C1A62955  30.483  44.713   6.090
 4836POPC   D2A62956  30.227  44.584   6.451
 4836POPC   C3A62957  30.408  44.730   6.843
 4836POPC   C4A62958  30.413  44.945   7.240
 4836POPC   C1B62959  31.024  44.609   6.229
 4836POPC   C2B62960  30.872  44.822   6.616
 4836POPC   C3B62961  30.896  44.709   7.056
 4836POPC   C4B62962  31.204  44.372   7.122
 4837POPC   NC362963   2.058  38.350   5.399
 4837POPC   PO462964   1.906  38.989   5.510
 4837POPC   GL162965   2.215  38.723   5.806
 4837POPC   GL262966   2.246  38.326   5.848
 4837POPC   C1A62967   2.160  38.580   6.272
 4837POPC   D2A62968   1.745  38.616   6.542
 4837POPC   C3A62969   1.708  38.425   6.966
 4837POPC   C4A62970   2.071  38.499   7.240
 4837POPC   C1B62971   2.225  38.063   6.197
 4837POPC   C2B62972   2.040  38.176   6.590
 4837POPC   C3B62973   1.996  38.002   6.981
 4837POPC   C4B62974   2.294  37.980   7.280
 4838POPC   NC362975  11.344  40.944   5.327
 4838POPC   PO462976  10.804  41.220   5.408
 4838POPC   GL162977  11.155  41.108   5.773
 4838POPC   GL262978  11.186  40.742   5.804
 4838POPC   C1A62979  11.450  40.990   6.161
 4838POPC   D2A62980  11.346  40.900   6.637
 4838POPC   C3A62981  11.512  40.943   7.092
 4838POPC   C4A62982  11.434  40.665   7.453
 4838POPC   C1B62983  10.959  40.868   6.213
 4838POPC   C2B62984  10.838  40.830   6.668
 4838POPC   C3B62985  11.017  40.802   7.098
 4838POPC   C4B62986  11.125  41.105   7.413
 4839POPC   NC362987  37.537   9.158   5.352
 4839POPC   PO462988  37.796   8.480   5.416
 4839POPC   GL162989  37.547   8.691   5.787
 4839POPC   GL262990  37.600   9.013   5.841
 4839POPC   C1A62991  37.341   8.761   6.214
 4839POPC   D2A62992  37.551   8.770   6.638
 4839POPC   C3A62993  37.749   8.671   7.058
 4839POPC   C4A62994  37.760   8.837   7.498
 4839POPC   C1B62995  37.747   9.078   6.242
 4839POPC   C2B62996  37.821   9.367   6.550
 4839POPC   C3B62997  37.731   9.169   6.920
 4839POPC   C4B62998  37.731   9.282   7.308
 4840POPC   NC362999  28.644  33.169   5.332
 4840POPC   PO463000  29.306  33.119   5.327
 4840POPC   GL163001  29.117  32.974   5.680
 4840POPC   GL263002  28.949  33.243   5.747
 4840POPC   C1A63003  29.089  32.867   6.121
 4840POPC   D2A63004  28.899  32.793   6.506
 4840POPC   C3A63005  29.097  32.978   6.825
 4840POPC   C4A63006  29.105  32.942   7.241
 4840POPC   C1B63007  29.239  33.348   6.053
 4840POPC   C2B63008  29.155  33.335   6.464
 4840POPC   C3B63009  29.377  33.413   6.843
 4840POPC   C4B63010  29.078  33.518   7.171
 4841POPC   NC363011  10.021  30.293   5.132
 4841POPC   PO463012  10.461  30.596   5.438
 4841POPC   GL163013  10.345  30.843   5.758
 4841POPC   GL263014  10.601  31.077   5.700
 4841POPC   C1A63015  10.282  30.645   6.182
 4841POPC   D2A63016  10.551  30.489   6.487
 4841POPC   C3A63017  10.577  30.725   6.871
 4841POPC   C4A63018  10.672  30.593   7.272
 4841POPC   C1B63019  10.734  30.909   6.108
 4841POPC   C2B63020  10.810  31.043   6.530
 4841POPC   C3B63021  10.975  31.074   6.953
 4841POPC   C4B63022  10.934  30.999   7.380
 4842POPC   NC363023   0.056  29.304   5.352
 4842POPC   PO463024   0.540  28.959   5.532
 4842POPC   GL163025   0.292  29.114   5.903
 4842POPC   GL263026   0.406  28.812   6.053
 4842POPC   C1A63027   0.143  29.235   6.361
 4842POPC   D2A63028   0.237  28.983   6.745
 4842POPC   C3A63029   0.143  29.013   7.187
 4842POPC   C4A63030   0.261  29.309   7.495
 4842POPC   C1B63031   0.632  29.080   6.320
 4842POPC   C2B63032   0.567  29.360   6.663
 4842POPC   C3B63033   0.620  29.219   7.078
 4842POPC   C4B63034   0.991  28.960   7.228
 4843POPC   NC363035  21.070  26.195   5.352
 4843POPC   PO463036  20.509  25.841   5.323
 4843POPC   GL163037  20.784  25.944   5.699
 4843POPC   GL263038  20.967  25.668   5.836
 4843POPC   C1A63039  20.743  26.111   6.138
 4843POPC   D2A63040  20.435  26.003   6.459
 4843POPC   C3A63041  20.459  26.087   6.909
 4843POPC   C4A63042  20.461  26.344   7.292
 4843POPC   C1B63043  20.668  25.599   6.204
 4843POPC   C2B63044  20.533  25.561   6.671
 4843POPC   C3B63045  20.706  25.586   7.060
 4843POPC   C4B63046  20.754  25.931   7.308
 4844POPC   NC363047  41.528   7.674   5.482
 4844POPC   PO463048  41.385   6.998   5.555
 4844POPC   GL163049  41.518   7.281   5.869
 4844POPC   GL263050  41.769   7.548   6.003
 4844POPC   C1A63051  41.358   7.402   6.220
 4844POPC   D2A63052  41.549   7.589   6.581
 4844POPC   C3A63053  41.401   7.441   6.965
 4844POPC   C4A63054  41.352   7.252   7.380
 4844POPC   C1B63055  41.869   7.245   6.354
 4844POPC   C2B63056  41.956   7.322   6.816
 4844POPC   C3B63057  41.813   7.522   7.233
 4844POPC   C4B63058  41.898   7.889   7.491
 4845POPC   NC363059  12.103  37.925   5.097
 4845POPC   PO463060  11.854  37.335   5.455
 4845POPC   GL163061  12.094  37.426   5.837
 4845POPC   GL263062  11.961  37.269   6.060
 4845POPC   C1A63063  12.159  37.741   6.193
 4845POPC   D2A63064  12.128  37.595   6.610
 4845POPC   C3A63065  12.155  37.840   6.980
 4845POPC   C4A63066  12.180  38.081   7.329
 4845POPC   C1B63067  11.852  37.191   6.472
 4845POPC   C2B63068  11.739  37.397   6.845
 4845POPC   C3B63069  12.031  37.353   7.122
 4845POPC   C4B63070  12.296  37.136   7.318
 4846POPC   NC363071  43.363  26.394   5.343
 4846POPC   PO463072  43.087  25.751   5.404
 4846POPC   GL163073  42.896  25.997   5.736
 4846POPC   GL263074  43.190  26.190   5.787
 4846POPC   C1A63075  42.855  26.074   6.198
 4846POPC   D2A63076  43.140  26.131   6.512
 4846POPC   C3A63077  43.104  26.292   6.846
 4846POPC   C4A63078  42.921  26.119   7.185
 4846POPC   C1B63079  43.448  26.197   6.146
 4846POPC   C2B63080  43.588  26.352   6.607
 4846POPC   C3B63081  43.561  26.274   7.089
 4846POPC   C4B63082  43.379  26.246   7.539
 4847POPC   NC363083   6.111  18.582   5.298
 4847POPC   PO463084   5.822  19.209   5.471
 4847POPC   GL163085   5.791  18.989   5.822
 4847POPC   GL263086   5.522  18.782   5.769
 4847POPC   C1A63087   5.808  19.163   6.236
 4847POPC   D2A63088   5.609  19.143   6.626
 4847POPC   C3A63089   5.858  19.250   6.983
 4847POPC   C4A63090   5.610  19.194   7.383
 4847POPC   C1B63091   5.657  18.582   6.140
 4847POPC   C2B63092   5.849  18.687   6.485
 4847POPC   C3B63093   5.829  18.758   6.910
 4847POPC   C4B63094   6.051  18.897   7.301
 4848POPC   NC363095  32.618  40.288   5.669
 4848POPC   PO463096  32.183  40.750   5.506
 4848POPC   GL163097  32.220  40.898   5.894
 4848POPC   GL263098  32.554  40.737   5.940
 4848POPC   C1A63099  32.424  41.133   6.238
 4848POPC   D2A63100  32.662  40.934   6.545
 4848POPC   C3A63101  32.484  41.054   6.908
 4848POPC   C4A63102  32.504  40.917   7.296
 4848POPC   C1B63103  32.311  40.617   6.300
 4848POPC   C2B63104  32.099  40.849   6.614
 4848POPC   C3B63105  32.166  40.658   7.009
 4848POPC   C4B63106  32.099  40.675   7.460
 4849POPC   NC363107  18.996   2.536   5.295
 4849POPC   PO463108  19.152   3.171   5.478
 4849POPC   GL163109  19.224   2.784   5.788
 4849POPC   GL263110  19.098   2.412   5.775
 4849POPC   C1A63111  19.256   2.601   6.239
 4849POPC   D2A63112  19.212   2.658   6.706
 4849POPC   C3A63113  19.052   2.925   7.047
 4849POPC   C4A63114  18.992   2.663   7.419
 4849POPC   C1B63115  18.733   2.384   6.040
 4849POPC   C2B63116  18.815   2.445   6.478
 4849POPC   C3B63117  18.718   2.553   6.926
 4849POPC   C4B63118  18.563   2.351   7.297
 4850POPC   NC363119  11.640  35.848   5.212
 4850POPC   PO463120  11.113  35.346   5.248
 4850POPC   GL163121  11.266  35.297   5.705
 4850POPC   GL263122  11.516  35.608   5.737
 4850POPC   C1A63123  11.087  35.080   6.100
 4850POPC   D2A63124  11.179  35.212   6.546
 4850POPC   C3A63125  10.962  35.137   6.943
 4850POPC   C4A63126  11.060  35.291   7.356
 4850POPC   C1B63127  11.398  35.493   6.163
 4850POPC   C2B63128  11.544  35.575   6.579
 4850POPC   C3B63129  11.368  35.505   6.977
 4850POPC   C4B63130  11.275  35.792   7.318
 4851POPC   NC363131   8.559  33.203   5.602
 4851POPC   PO463132   8.108  32.938   5.126
 4851POPC   GL163133   8.134  32.912   5.628
 4851POPC   GL263134   8.088  33.219   5.872
 4851POPC   C1A63135   8.099  32.780   6.129
 4851POPC   D2A63136   8.299  32.750   6.573
 4851POPC   C3A63137   8.206  32.911   7.000
 4851POPC   C4A63138   7.848  33.076   7.237
 4851POPC   C1B63139   8.286  33.238   6.317
 4851POPC   C2B63140   8.541  33.314   6.707
 4851POPC   C3B63141   8.583  33.334   7.183
 4851POPC   C4B63142   8.554  33.523   7.622
 4852POPC   NC363143   8.803  11.611   5.438
 4852POPC   PO463144   9.092  10.987   5.555
 4852POPC   GL163145   8.840  11.248   5.792
 4852POPC   GL263146   9.063  11.505   5.870
 4852POPC   C1A63147   8.623  11.365   6.146
 4852POPC   D2A63148   8.654  11.138   6.541
 4852POPC   C3A63149   8.815  11.236   6.963
 4852POPC   C4A63150   8.895  10.986   7.322
 4852POPC   C1B63151   9.104  11.329   6.286
 4852POPC   C2B63152   9.247  11.300   6.693
 4852POPC   C3B63153   9.321  11.074   7.054
 4852POPC   C4B63154   9.299  11.239   7.450
 4853POPC   NC363155  28.860  41.693   5.382
 4853POPC   PO463156  28.256  41.279   5.368
 4853POPC   GL163157  28.139  41.449   5.766
 4853POPC   GL263158  28.475  41.626   5.809
 4853POPC   C1A63159  28.134  41.586   6.206
 4853POPC   D2A63160  28.379  41.730   6.569
 4853POPC   C3A63161  28.137  41.566   6.905
 4853POPC   C4A63162  28.123  41.224   7.161
 4853POPC   C1B63163  28.740  41.733   6.185
 4853POPC   C2B63164  28.890  41.853   6.587
 4853POPC   C3B63165  28.751  41.645   6.981
 4853POPC   C4B63166  28.424  41.768   7.250
 4854POPC   NC363167  11.507   9.133   5.475
 4854POPC   PO463168  11.415   8.546   5.158
 4854POPC   GL163169  11.288   8.755   5.730
 4854POPC   GL263170  11.039   8.940   5.674
 4854POPC   C1A63171  11.456   8.815   6.203
 4854POPC   D2A63172  11.488   9.034   6.653
 4854POPC   C3A63173  11.562   8.973   7.155
 4854POPC   C4A63174  11.692   9.166   7.615
 4854POPC   C1B63175  10.961   8.918   6.122
 4854POPC   C2B63176  11.024   8.655   6.501
 4854POPC   C3B63177  11.118   8.796   6.912
 4854POPC   C4B63178  11.083   9.203   7.054
 4855POPC   NC363179   0.824  37.553   5.413
 4855POPC   PO463180   0.360  38.067   5.202
 4855POPC   GL163181   0.358  37.886   5.657
 4855POPC   GL263182   0.101  37.632   5.734
 4855POPC   C1A63183   0.492  37.704   6.079
 4855POPC   D2A63184   0.801  37.719   6.426
 4855POPC   C3A63185   0.718  37.523   6.826
 4855POPC   C4A63186   0.616  37.663   7.221
 4855POPC   C1B63187   0.032  37.462   6.135
 4855POPC   C2B63188   0.005  37.631   6.571
 4855POPC   C3B63189   0.211  37.762   6.950
 4855POPC   C4B63190   0.157  37.717   7.445
 4856POPC   NC363191  36.525  36.366   5.533
 4856POPC   PO463192  37.126  36.655   5.383
 4856POPC   GL163193  37.023  36.333   5.717
 4856POPC   GL263194  37.023  35.942   5.771
 4856POPC   C1A63195  36.864  36.316   6.127
 4856POPC   D2A63196  36.896  36.120   6.513
 4856POPC   C3A63197  36.962  36.343   6.845
 4856POPC   C4A63198  37.111  36.231   7.215
 4856POPC   C1B63199  36.746  35.801   6.122
 4856POPC   C2B63200  36.464  35.841   6.495
 4856POPC   C3B63201  36.536  36.045   6.917
 4856POPC   C4B63202  36.693  35.956   7.356
 4857POPC   NC363203  11.421  29.964   5.282
 4857POPC   PO463204  10.878  29.948   5.629
 4857POPC   GL163205  11.220  29.745   5.733
 4857POPC   GL263206  11.471  29.988   5.785
 4857POPC   C1A63207  11.255  29.557   6.125
 4857POPC   D2A63208  11.252  29.714   6.513
 4857POPC   C3A63209  11.033  29.581   6.834
 4857POPC   C4A63210  10.946  29.901   7.053
 4857POPC   C1B63211  11.258  30.079   6.168
 4857POPC   C2B63212  11.391  30.202   6.587
 4857POPC   C3B63213  11.399  30.124   7.018
 4857POPC   C4B63214  11.583  30.281   7.431
 4858POPC   NC363215  41.944   3.611   5.306
 4858POPC   PO463216  41.385   3.309   5.377
 4858POPC   GL163217  41.591   3.409   5.722
 4858POPC   GL263218  41.597   3.757   5.736
 4858POPC   C1A63219  41.673   3.356   6.159
 4858POPC   D2A63220  41.840   3.628   6.494
 4858POPC   C3A63221  41.656   3.516   6.891
 4858POPC   C4A63222  41.704   3.220   7.211
 4858POPC   C1B63223  41.425   3.794   6.175
 4858POPC   C2B63224  41.389   3.885   6.598
 4858POPC   C3B63225  41.195   3.729   6.951
 4858POPC   C4B63226  41.400   3.739   7.326
 4859POPC   NC363227  38.276  36.654   5.560
 4859POPC   PO463228  38.725  37.135   5.261
 4859POPC   GL163229  38.494  37.158   5.714
 4859POPC   GL263230  38.135  37.102   5.783
 4859POPC   C1A63231  38.389  37.154   6.203
 4859POPC   D2A63232  38.330  36.988   6.634
 4859POPC   C3A63233  38.517  37.117   7.035
 4859POPC   C4A63234  38.782  36.732   7.160
 4859POPC   C1B63235  38.024  36.797   6.200
 4859POPC   C2B63236  37.980  36.615   6.649
 4859POPC   C3B63237  38.170  36.741   7.080
 4859POPC   C4B63238  37.902  36.838   7.462
 4860POPC   NC363239  18.707  40.667   5.333
 4860POPC   PO463240  18.065  40.979   5.385
 4860POPC   GL163241  18.078  40.694   5.706
 4860POPC   GL263242  17.977  40.949   5.948
 4860POPC   C1A63243  18.344  40.598   6.063
 4860POPC   D2A63244  18.395  40.505   6.509
 4860POPC   C3A63245  18.292  40.763   6.860
 4860POPC   C4A63246  18.282  40.590   7.298
 4860POPC   C1B63247  18.206  41.029   6.356
 4860POPC   C2B63248  17.971  41.182   6.749
 4860POPC   C3B63249  17.943  41.154   7.216
 4860POPC   C4B63250  18.163  41.069   7.642
 4861POPC   NC363251  32.623  16.355   5.463
 4861POPC   PO463252  31.905  16.145   5.419
 4861POPC   GL163253  32.030  16.062   5.812
 4861POPC   GL263254  32.365  16.096   5.814
 4861POPC   C1A63255  32.149  15.907   6.228
 4861POPC   D2A63256  32.439  15.987   6.560
 4861POPC   C3A63257  32.293  16.043   6.981
 4861POPC   C4A63258  32.308  15.848   7.376
 4861POPC   C1B63259  32.613  16.265   6.171
 4861POPC   C2B63260  32.826  16.296   6.607
 4861POPC   C3B63261  32.639  16.426   7.033
 4861POPC   C4B63262  32.541  16.276   7.464
 4862POPC   NC363263   3.397  22.210   5.217
 4862POPC   PO463264   2.734  22.001   5.396
 4862POPC   GL163265   2.777  21.924   5.838
 4862POPC   GL263266   2.597  21.635   5.792
 4862POPC   C1A63267   2.861  22.026   6.299
 4862POPC   D2A63268   2.632  22.031   6.704
 4862POPC   C3A63269   2.751  22.228   7.109
 4862POPC   C4A63270   2.834  22.364   7.538
 4862POPC   C1B63271   2.827  21.528   6.183
 4862POPC   C2B63272   2.864  21.572   6.636
 4862POPC   C3B63273   2.765  21.704   7.082
 4862POPC   C4B63274   3.011  21.881   7.399
 4863POPC   NC363275  13.982  36.576   5.477
 4863POPC   PO463276  13.468  36.995   5.293
 4863POPC   GL163277  13.590  37.032   5.706
 4863POPC   GL263278  13.426  37.351   5.683
 4863POPC   C1A63279  13.763  36.908   6.115
 4863POPC   D2A63280  13.627  36.841   6.578
 4863POPC   C3A63281  13.851  36.984   6.915
 4863POPC   C4A63282  13.887  36.774   7.283
 4863POPC   C1B63283  13.472  37.325   6.131
 4863POPC   C2B63284  13.586  37.359   6.561
 4863POPC   C3B63285  13.384  37.182   6.931
 4863POPC   C4B63286  13.430  37.007   7.339
 4864POPC   NC363287  43.615  35.509   5.375
 4864POPC   PO463288  44.180  35.838   5.368
 4864POPC   GL163289  44.017  35.626   5.747
 4864POPC   GL263290  44.001  35.251   5.771
 4864POPC   C1A63291  44.016  35.576   6.216
 4864POPC   D2A63292  44.166  35.400   6.617
 4864POPC   C3A63293  43.950  35.470   7.006
 4864POPC   C4A63294  43.881  35.820   7.261
 4864POPC   C1B63295  43.683  35.176   6.124
 4864POPC   C2B63296  43.651  35.341   6.565
 4864POPC   C3B63297  43.552  35.151   6.963
 4864POPC   C4B63298  43.716  35.036   7.352
 4865POPC   NC363299  28.800   8.986   4.996
 4865POPC   PO463300  29.223   8.815   5.503
 4865POPC   GL163301  29.251   8.835   5.913
 4865POPC   GL263302  29.118   9.175   5.981
 4865POPC   C1A63303  29.293   8.865   6.359
 4865POPC   D2A63304  29.223   9.180   6.631
 4865POPC   C3A63305  29.254   8.961   6.976
 4865POPC   C4A63306  29.218   8.728   7.337
 4865POPC   C1B63307  29.548   9.239   6.118
 4865POPC   C2B63308  29.725   9.318   6.526
 4865POPC   C3B63309  29.564   9.405   6.947
 4865POPC   C4B63310  29.272   9.363   7.258
 4866POPC   NC363311   4.520  35.369   5.471
 4866POPC   PO463312   3.906  35.655   5.512
 4866POPC   GL163313   4.179  35.524   5.890
 4866POPC   GL263314   4.543  35.435   5.990
 4866POPC   C1A63315   4.222  35.626   6.339
 4866POPC   D2A63316   4.316  35.697   6.781
 4866POPC   C3A63317   4.305  35.402   7.124
 4866POPC   C4A63318   4.649  35.384   7.403
 4866POPC   C1B63319   4.457  35.041   6.222
 4866POPC   C2B63320   4.540  34.833   6.617
 4866POPC   C3B63321   4.382  34.840   7.041
 4866POPC   C4B63322   4.404  34.930   7.460
 4867POPC   NC363323  28.985   3.884   5.196
 4867POPC   PO463324  29.431   3.423   5.393
 4867POPC   GL163325  29.351   3.551   5.812
 4867POPC   GL263326  29.143   3.851   5.705
 4867POPC   C1A63327  29.359   3.423   6.266
 4867POPC   D2A63328  29.571   3.237   6.653
 4867POPC   C3A63329  29.398   3.356   7.049
 4867POPC   C4A63330  29.632   3.335   7.429
 4867POPC   C1B63331  28.969   3.748   6.105
 4867POPC   C2B63332  28.871   3.590   6.483
 4867POPC   C3B63333  28.673   3.660   6.855
 4867POPC   C4B63334  28.916   3.511   7.156
 4868POPC   NC363335  31.546  22.117   5.348
 4868POPC   PO463336  30.886  22.157   5.502
 4868POPC   GL163337  31.272  22.213   5.780
 4868POPC   GL263338  31.444  21.912   5.815
 4868POPC   C1A63339  31.498  22.362   6.161
 4868POPC   D2A63340  31.586  22.224   6.598
 4868POPC   C3A63341  31.520  22.500   6.904
 4868POPC   C4A63342  31.512  22.475   7.332
 4868POPC   C1B63343  31.446  21.856   6.258
 4868POPC   C2B63344  31.265  21.838   6.690
 4868POPC   C3B63345  31.220  22.061   7.090
 4868POPC   C4B63346  31.282  22.069   7.521
 4869POPC   NC363347  36.601  24.519   5.435
 4869POPC   PO463348  37.247  24.392   5.666
 4869POPC   GL163349  36.876  24.430   5.884
 4869POPC   GL263350  36.658  24.181   5.814
 4869POPC   C1A63351  36.948  24.463   6.309
 4869POPC   D2A63352  37.331  24.484   6.574
 4869POPC   C3A63353  37.245  24.595   6.997
 4869POPC   C4A63354  36.824  24.566   7.102
 4869POPC   C1B63355  36.474  24.229   6.214
 4869POPC   C2B63356  36.567  24.363   6.647
 4869POPC   C3B63357  36.537  24.118   7.007
 4869POPC   C4B63358  36.675  24.164   7.401
 4870POPC   NC363359  10.020  25.690   5.421
 4870POPC   PO463360   9.371  26.005   5.411
 4870POPC   GL163361   9.608  26.257   5.778
 4870POPC   GL263362   9.932  26.059   5.828
 4870POPC   C1A63363   9.845  26.420   6.204
 4870POPC   D2A63364   9.897  26.277   6.690
 4870POPC   C3A63365  10.057  26.538   7.084
 4870POPC   C4A63366   9.916  26.510   7.554
 4870POPC   C1B63367   9.734  25.933   6.264
 4870POPC   C2B63368   9.503  25.890   6.681
 4870POPC   C3B63369   9.516  25.921   7.153
 4870POPC   C4B63370   9.426  25.665   7.547
 4871POPC   NC363371   3.384  16.900   5.486
 4871POPC   PO463372   3.365  16.235   5.413
 4871POPC   GL163373   3.606  16.489   5.712
 4871POPC   GL263374   3.320  16.615   5.921
 4871POPC   C1A63375   3.842  16.660   6.079
 4871POPC   D2A63376   3.592  16.767   6.449
 4871POPC   C3A63377   3.770  16.748   6.874
 4871POPC   C4A63378   3.570  16.765   7.257
 4871POPC   C1B63379   3.242  17.014   6.142
 4871POPC   C2B63380   3.241  17.152   6.575
 4871POPC   C3B63381   3.270  16.809   6.861
 4871POPC   C4B63382   3.059  16.705   7.269
 4872POPC   NC363383  38.465  10.271   5.568
 4872POPC   PO463384  38.083  10.683   5.422
 4872POPC   GL163385  38.231  10.622   5.888
 4872POPC   GL263386  38.296  10.284   6.030
 4872POPC   C1A63387  38.252  10.717   6.336
 4872POPC   D2A63388  38.480  10.578   6.708
 4872POPC   C3A63389  38.502  10.766   7.117
 4872POPC   C4A63390  38.660  10.479   7.434
 4872POPC   C1B63391  38.674  10.431   6.241
 4872POPC   C2B63392  38.979  10.552   6.577
 4872POPC   C3B63393  39.005  10.615   7.039
 4872POPC   C4B63394  38.999  10.878   7.421
 4873POPC   NC363395  12.217   2.275   5.341
 4873POPC   PO463396  11.720   1.804   5.487
 4873POPC   GL163397  12.009   1.983   5.770
 4873POPC   GL263398  12.367   1.973   5.738
 4873POPC   C1A63399  12.048   2.165   6.180
 4873POPC   D2A63400  12.072   1.957   6.571
 4873POPC   C3A63401  11.814   2.064   6.935
 4873POPC   C4A63402  11.945   1.861   7.287
 4873POPC   C1B63403  12.572   2.065   6.147
 4873POPC   C2B63404  12.511   2.244   6.571
 4873POPC   C3B63405  12.310   2.177   6.984
 4873POPC   C4B63406  12.260   2.224   7.452
 4874POPC   NC363407   9.202  13.031   5.452
 4874POPC   PO463408   8.796  12.537   5.285
 4874POPC   GL163409   8.949  12.667   5.709
 4874POPC   GL263410   8.725  12.940   5.766
 4874POPC   C1A63411   9.023  12.853   6.158
 4874POPC   D2A63412   8.986  12.645   6.566
 4874POPC   C3A63413   8.899  12.779   6.979
 4874POPC   C4A63414   9.229  12.991   7.161
 4874POPC   C1B63415   8.652  13.225   6.151
 4874POPC   C2B63416   8.683  13.092   6.606
 4874POPC   C3B63417   8.613  13.254   7.058
 4874POPC   C4B63418   8.785  13.044   7.431
 4875POPC   NC363419  36.049   9.506   5.356
 4875POPC   PO463420  36.552   9.996   5.391
 4875POPC   GL163421  36.312   9.897   5.750
 4875POPC   GL263422  36.359   9.534   5.767
 4875POPC   C1A63423  36.404   9.802   6.202
 4875POPC   D2A63424  36.514   9.929   6.595
 4875POPC   C3A63425  36.271   9.847   6.943
 4875POPC   C4A63426  36.430   9.658   7.288
 4875POPC   C1B63427  35.984   9.566   6.060
 4875POPC   C2B63428  35.963   9.783   6.477
 4875POPC   C3B63429  35.784   9.681   6.896
 4875POPC   C4B63430  35.858   9.784   7.333
 4876POPC   NC363431  28.127  41.749   5.336
 4876POPC   PO463432  27.474  41.452   5.388
 4876POPC   GL163433  27.640  41.646   5.766
 4876POPC   GL263434  27.893  41.924   5.771
 4876POPC   C1A63435  27.611  41.606   6.213
 4876POPC   D2A63436  27.752  41.384   6.601
 4876POPC   C3A63437  27.626  41.447   7.039
 4876POPC   C4A63438  27.367  41.650   7.348
 4876POPC   C1B63439  27.842  42.069   6.194
 4876POPC   C2B63440  27.886  41.879   6.593
 4876POPC   C3B63441  27.789  41.923   7.049
 4876POPC   C4B63442  27.936  41.639   7.430
 4877POPC   NC363443   0.588  44.149   5.118
 4877POPC   PO463444   0.218  43.607   5.453
 4877POPC   GL163445   0.370  43.691   5.864
 4877POPC   GL263446   0.749  43.682   5.889
 4877POPC   C1A63447   0.175  43.682   6.267
 4877POPC   D2A63448   0.279  43.939   6.599
 4877POPC   C3A63449   0.149  43.836   6.997
 4877POPC   C4A63450   0.275  44.106   7.316
 4877POPC   C1B63451   0.828  43.957   6.228
 4877POPC   C2B63452   0.921  43.850   6.628
 4877POPC   C3B63453   0.664  43.993   6.982
 4877POPC   C4B63454   0.719  43.923   7.413
 4878POPC   NC363455  14.007   9.587   5.169
 4878POPC   PO463456  13.623  10.254   5.278
 4878POPC   GL163457  13.772  10.042   5.738
 4878POPC   GL263458  13.773   9.687   5.848
 4878POPC   C1A63459  13.505   9.979   6.183
 4878POPC   D2A63460  13.400  10.048   6.630
 4878POPC   C3A63461  13.577   9.818   6.984
 4878POPC   C4A63462  13.947   9.978   7.162
 4878POPC   C1B63463  13.734   9.532   6.307
 4878POPC   C2B63464  13.539   9.330   6.684
 4878POPC   C3B63465  13.605   9.334   7.148
 4878POPC   C4B63466  13.742   9.632   7.479
 4879POPC   NC363467  38.903  18.316   5.383
 4879POPC   PO463468  39.537  18.716   5.377
 4879POPC   GL163469  39.271  18.497   5.746
 4879POPC   GL263470  39.095  18.166   5.839
 4879POPC   C1A63471  39.144  18.596   6.185
 4879POPC   D2A63472  39.196  18.382   6.572
 4879POPC   C3A63473  39.248  18.596   6.947
 4879POPC   C4A63474  39.506  18.426   7.264
 4879POPC   C1B63475  38.844  18.013   6.231
 4879POPC   C2B63476  38.759  18.145   6.700
 4879POPC   C3B63477  39.020  18.139   7.091
 4879POPC   C4B63478  39.199  18.069   7.518
 4880POPC   NC363479  20.163  44.494   5.408
 4880POPC   PO463480  19.571  44.729   5.474
 4880POPC   GL163481  19.823  44.543   5.786
 4880POPC   GL263482  19.892  44.878   5.858
 4880POPC   C1A63483  19.813  44.492   6.222
 4880POPC   D2A63484  19.950  44.686   6.615
 4880POPC   C3A63485  19.947  44.465   6.997
 4880POPC   C4A63486  20.041  44.588   7.439
 4880POPC   C1B63487  19.653  44.988   6.237
 4880POPC   C2B63488  19.458  44.820   6.611
 4880POPC   C3B63489  19.553  44.870   7.042
 4880POPC   C4B63490  19.547  44.523   7.319
 4881POPC   NC363491  24.630  35.747   5.463
 4881POPC   PO463492  24.377  36.360   5.596
 4881POPC   GL163493  24.613  36.123   5.836
 4881POPC   GL263494  24.356  35.874   5.858
 4881POPC   C1A63495  24.746  36.250   6.213
 4881POPC   D2A63496  24.525  36.363   6.583
 4881POPC   C3A63497  24.592  36.255   7.028
 4881POPC   C4A63498  24.758  36.025   7.426
 4881POPC   C1B63499  24.311  35.923   6.257
 4881POPC   C2B63500  24.232  35.718   6.634
 4881POPC   C3B63501  24.187  35.881   7.001
 4881POPC   C4B63502  24.263  36.017   7.389
 4882POPC   NC363503  34.013  22.695   5.403
 4882POPC   PO463504  33.598  23.318   5.447
 4882POPC   GL163505  33.838  23.090   5.787
 4882POPC   GL263506  33.721  22.727   5.836
 4882POPC   C1A63507  33.856  22.965   6.262
 4882POPC   D2A63508  33.833  22.753   6.673
 4882POPC   C3A63509  33.708  23.056   6.993
 4882POPC   C4A63510  33.516  23.214   7.365
 4882POPC   C1B63511  33.559  22.528   6.211
 4882POPC   C2B63512  33.351  22.574   6.606
 4882POPC   C3B63513  33.512  22.570   7.051
 4882POPC   C4B63514  33.387  22.738   7.464
 4883POPC   NC363515  10.991  42.386   5.414
 4883POPC   PO463516  11.630  42.296   5.531
 4883POPC   GL163517  11.388  42.521   5.778
 4883POPC   GL263518  11.187  42.222   5.840
 4883POPC   C1A63519  11.418  42.522   6.239
 4883POPC   D2A63520  11.664  42.283   6.564
 4883POPC   C3A63521  11.503  42.354   6.965
 4883POPC   C4A63522  11.381  42.446   7.374
 4883POPC   C1B63523  10.989  42.221   6.230
 4883POPC   C2B63524  11.107  42.347   6.636
 4883POPC   C3B63525  11.057  42.105   7.014
 4883POPC   C4B63526  10.886  41.937   7.396
 4884POPC   NC363527   8.106   3.698   5.077
 4884POPC   PO463528   8.436   3.271   5.405
 4884POPC   GL163529   8.302   3.372   5.821
 4884POPC   GL263530   8.268   3.732   5.749
 4884POPC   C1A63531   8.195   3.240   6.275
 4884POPC   D2A63532   8.158   3.491   6.649
 4884POPC   C3A63533   8.007   3.418   7.060
 4884POPC   C4A63534   8.255   3.551   7.411
 4884POPC   C1B63535   8.123   3.761   6.185
 4884POPC   C2B63536   8.109   4.021   6.580
 4884POPC   C3B63537   8.115   3.926   7.022
 4884POPC   C4B63538   7.761   3.831   7.276
 4885POPC   NC363539  28.856   7.139   5.467
 4885POPC   PO463540  28.509   7.726   5.206
 4885POPC   GL163541  28.504   7.588   5.710
 4885POPC   GL263542  28.262   7.306   5.837
 4885POPC   C1A63543  28.558   7.453   6.202
 4885POPC   D2A63544  28.572   7.213   6.601
 4885POPC   C3A63545  28.521   7.500   6.956
 4885POPC   C4A63546  28.765   7.823   7.202
 4885POPC   C1B63547  28.257   7.012   6.241
 4885POPC   C2B63548  28.138   6.932   6.689
 4885POPC   C3B63549  28.199   7.123   7.109
 4885POPC   C4B63550  28.234   7.427   7.460
 4886POPC   NC363551  22.541  32.103   5.329
 4886POPC   PO463552  23.240  32.265   5.308
 4886POPC   GL163553  22.988  32.145   5.665
 4886POPC   GL263554  22.792  32.402   5.687
 4886POPC   C1A63555  22.980  32.014   6.134
 4886POPC   D2A63556  22.834  31.875   6.552
 4886POPC   C3A63557  22.960  32.187   6.837
 4886POPC   C4A63558  22.911  32.257   7.252
 4886POPC   C1B63559  22.802  32.487   6.102
 4886POPC   C2B63560  22.800  32.569   6.529
 4886POPC   C3B63561  22.968  32.720   6.912
 4886POPC   C4B63562  22.779  32.805   7.283
 4887POPC   NC363563  20.572  18.567   5.481
 4887POPC   PO463564  20.274  17.938   5.459
 4887POPC   GL163565  20.349  18.236   5.806
 4887POPC   GL263566  20.671  18.371   5.929
 4887POPC   C1A63567  20.257  18.464   6.206
 4887POPC   D2A63568  20.560  18.446   6.533
 4887POPC   C3A63569  20.548  18.400   6.977
 4887POPC   C4A63570  20.932  18.392   7.205
 4887POPC   C1B63571  20.566  18.030   6.231
 4887POPC   C2B63572  20.763  17.949   6.616
 4887POPC   C3B63573  20.730  17.920   7.051
 4887POPC   C4B63574  20.966  17.873   7.424
 4888POPC   NC363575  44.402  28.040   5.598
 4888POPC   PO463576  44.871  27.705   5.230
 4888POPC   GL163577  44.847  27.730   5.733
 4888POPC   GL263578  44.785  28.017   5.922
 4888POPC   C1A63579  44.743  27.611   6.228
 4888POPC   D2A63580  44.632  27.312   6.637
 4888POPC   C3A63581  44.804  27.283   7.107
 4888POPC   C4A63582  44.763  27.300   7.594
 4888POPC   C1B63583  44.404  28.061   6.234
 4888POPC   C2B63584  44.326  28.059   6.673
 4888POPC   C3B63585  44.553  27.845   7.021
 4888POPC   C4B63586  44.408  27.547   7.317
 4889POPC   NC363587   4.773   7.741   5.653
 4889POPC   PO463588   4.498   8.417   5.436
 4889POPC   GL163589   4.335   8.192   5.731
 4889POPC   GL263590   4.259   7.888   5.630
 4889POPC   C1A63591   4.393   8.284   6.137
 4889POPC   D2A63592   4.236   8.180   6.499
 4889POPC   C3A63593   4.322   8.385   6.861
 4889POPC   C4A63594   4.450   8.162   7.219
 4889POPC   C1B63595   4.085   7.844   6.064
 4889POPC   C2B63596   3.908   7.802   6.489
 4889POPC   C3B63597   4.066   7.902   6.916
 4889POPC   C4B63598   4.134   7.751   7.345
 4890POPC   NC363599  29.893  37.154   5.386
 4890POPC   PO463600  29.971  36.484   5.412
 4890POPC   GL163601  30.017  36.731   5.762
 4890POPC   GL263602  29.716  36.862   5.895
 4890POPC   C1A63603  30.022  36.577   6.196
 4890POPC   D2A63604  29.781  36.586   6.598
 4890POPC   C3A63605  29.967  36.643   7.037
 4890POPC   C4A63606  29.656  36.769   7.365
 4890POPC   C1B63607  30.025  37.143   6.117
 4890POPC   C2B63608  30.028  37.379   6.519
 4890POPC   C3B63609  30.035  37.214   6.949
 4890POPC   C4B63610  29.872  37.223   7.377
 4891POPC   NC363611   4.412  12.600   5.075
 4891POPC   PO463612   4.372  13.160   5.397
 4891POPC   GL163613   4.483  12.923   5.794
 4891POPC   GL263614   4.521  12.567   5.933
 4891POPC   C1A63615   4.284  12.899   6.215
 4891POPC   D2A63616   4.321  13.074   6.588
 4891POPC   C3A63617   4.474  12.897   6.928
 4891POPC   C4A63618   4.397  13.075   7.303
 4891POPC   C1B63619   4.227  12.398   6.234
 4891POPC   C2B63620   4.203  12.551   6.625
 4891POPC   C3B63621   3.985  12.466   6.973
 4891POPC   C4B63622   4.153  12.630   7.324
 4892POPC   NC363623  42.586  38.867   5.065
 4892POPC   PO463624  42.170  39.344   5.324
 4892POPC   GL163625  42.307  39.305   5.761
 4892POPC   GL263626  42.620  39.354   5.845
 4892POPC   C1A63627  42.186  39.200   6.199
 4892POPC   D2A63628  42.396  39.308   6.595
 4892POPC   C3A63629  42.163  39.168   6.936
 4892POPC   C4A63630  42.066  39.308   7.336
 4892POPC   C1B63631  42.689  39.084   6.205
 4892POPC   C2B63632  42.615  38.841   6.567
 4892POPC   C3B63633  42.750  38.894   6.986
 4892POPC   C4B63634  42.525  38.938   7.337
 4893POPC   NC363635  22.746  17.725   5.541
 4893POPC   PO463636  23.226  17.351   5.415
 4893POPC   GL163637  23.053  17.394   5.834
 4893POPC   GL263638  23.354  17.450   6.036
 4893POPC   C1A63639  22.906  17.601   6.212
 4893POPC   D2A63640  23.196  17.758   6.551
 4893POPC   C3A63641  23.088  17.710   6.994
 4893POPC   C4A63642  23.317  17.650   7.380
 4893POPC   C1B63643  23.176  17.250   6.426
 4893POPC   C2B63644  22.828  17.369   6.672
 4893POPC   C3B63645  22.852  17.250   7.079
 4893POPC   C4B63646  23.181  17.150   7.391
 4894POPC   NC363647  42.814   6.742   5.513
 4894POPC   PO463648  43.222   6.228   5.307
 4894POPC   GL163649  43.244   6.472   5.722
 4894POPC   GL263650  43.286   6.851   5.744
 4894POPC   C1A63651  43.233   6.525   6.186
 4894POPC   D2A63652  43.438   6.316   6.563
 4894POPC   C3A63653  43.295   6.207   7.011
 4894POPC   C4A63654  43.179   6.437   7.405
 4894POPC   C1B63655  43.027   7.004   6.121
 4894POPC   C2B63656  42.908   6.841   6.543
 4894POPC   C3B63657  43.110   6.697   6.930
 4894POPC   C4B63658  42.923   6.862   7.291
 4895POPC   NC363659  34.918  26.730   5.472
 4895POPC   PO463660  35.500  27.007   5.273
 4895POPC   GL163661  35.414  26.796   5.662
 4895POPC   GL263662  35.164  26.959   5.880
 4895POPC   C1A63663  35.520  26.668   6.101
 4895POPC   D2A63664  35.316  26.827   6.495
 4895POPC   C3A63665  35.246  26.604   6.887
 4895POPC   C4A63666  34.956  26.483   7.175
 4895POPC   C1B63667  35.465  27.186   6.152
 4895POPC   C2B63668  35.666  27.196   6.589
 4895POPC   C3B63669  35.403  27.084   6.942
 4895POPC   C4B63670  35.341  27.208   7.358
 4896POPC   NC363671  44.099  28.897   5.616
 4896POPC   PO463672  44.632  29.225   5.209
 4896POPC   GL163673  44.595  29.177   5.625
 4896POPC   GL263674  44.857  28.925   5.701
 4896POPC   C1A63675  44.706  29.299   6.045
 4896POPC   D2A63676  44.616  29.180   6.477
 4896POPC   C3A63677  44.843  29.316   6.866
 4896POPC   C4A63678  44.697  29.260   7.320
 4896POPC   C1B63679  44.917  28.832   6.163
 4896POPC   C2B63680  44.816  28.734   6.604
 4896POPC   C3B63681  44.708  28.831   7.014
 4896POPC   C4B63682  44.735  28.762   7.475
 4897POPC   NC363683  42.288  19.589   5.429
 4897POPC   PO463684  42.745  20.008   5.455
 4897POPC   GL163685  42.394  20.068   5.761
 4897POPC   GL263686  42.343  19.719   5.939
 4897POPC   C1A63687  42.299  20.165   6.210
 4897POPC   D2A63688  42.293  19.854   6.561
 4897POPC   C3A63689  42.058  19.935   6.942
 4897POPC   C4A63690  42.051  19.766   7.368
 4897POPC   C1B63691  42.619  19.485   6.268
 4897POPC   C2B63692  42.701  19.553   6.714
 4897POPC   C3B63693  42.390  19.547   7.045
 4897POPC   C4B63694  42.410  19.366   7.454
 4898POPC   NC363695  10.475  31.508   5.262
 4898POPC   PO463696  10.072  31.791   5.656
 4898POPC   GL163697  10.223  31.419   5.793
 4898POPC   GL263698  10.533  31.586   5.802
 4898POPC   C1A63699  10.391  31.279   6.194
 4898POPC   D2A63700  10.551  31.477   6.569
 4898POPC   C3A63701  10.466  31.254   6.898
 4898POPC   C4A63702  10.597  31.340   7.272
 4898POPC   C1B63703  10.403  31.798   6.211
 4898POPC   C2B63704  10.478  31.988   6.633
 4898POPC   C3B63705  10.496  31.807   7.087
 4898POPC   C4B63706  10.244  31.676   7.465
 4899POPC   NC363707  41.497  34.891   5.412
 4899POPC   PO463708  41.367  34.271   5.513
 4899POPC   GL163709  41.638  34.444   5.825
 4899POPC   GL263710  41.802  34.768   5.798
 4899POPC   C1A63711  41.528  34.338   6.251
 4899POPC   D2A63712  41.423  34.579   6.618
 4899POPC   C3A63713  41.570  34.496   7.044
 4899POPC   C4A63714  41.961  34.568   7.298
 4899POPC   C1B63715  41.569  34.847   6.186
 4899POPC   C2B63716  41.383  35.088   6.540
 4899POPC   C3B63717  41.287  34.944   6.965
 4899POPC   C4B63718  41.518  34.905   7.350
 4900POPC   NC363719  19.706  27.286   5.470
 4900POPC   PO463720  20.249  27.779   5.430
 4900POPC   GL163721  20.022  27.679   5.840
 4900POPC   GL263722  19.647  27.575   5.937
 4900POPC   C1A63723  20.086  27.480   6.253
 4900POPC   D2A63724  19.842  27.392   6.617
 4900POPC   C3A63725  19.966  27.500   7.043
 4900POPC   C4A63726  19.908  27.277   7.395
 4900POPC   C1B63727  19.353  27.885   6.166
 4900POPC   C2B63728  19.413  28.019   6.578
 4900POPC   C3B63729  19.554  27.807   6.923
 4900POPC   C4B63730  19.380  27.691   7.304
 4901POPC   NC363731  18.554  25.889   5.437
 4901POPC   PO463732  17.905  26.231   5.345
 4901POPC   GL163733  18.166  26.131   5.735
 4901POPC   GL263734  18.483  26.261   5.774
 4901POPC   C1A63735  18.145  26.079   6.186
 4901POPC   D2A63736  18.251  25.881   6.588
 4901POPC   C3A63737  18.284  26.180   6.925
 4901POPC   C4A63738  18.093  26.210   7.339
 4901POPC   C1B63739  18.666  26.062   6.157
 4901POPC   C2B63740  18.745  26.138   6.593
 4901POPC   C3B63741  18.683  25.816   6.877
 4901POPC   C4B63742  18.343  25.686   7.138
 4902POPC   NC363743  31.674  43.955   5.005
 4902POPC   PO463744  31.155  43.686   5.424
 4902POPC   GL163745  31.195  43.745   5.870
 4902POPC   GL263746  31.428  43.936   5.973
 4902POPC   C1A63747  31.011  43.910   6.264
 4902POPC   D2A63748  31.134  44.190   6.596
 4902POPC   C3A63749  31.302  43.929   6.871
 4902POPC   C4A63750  31.136  43.726   7.221
 4902POPC   C1B63751  31.522  43.878   6.404
 4902POPC   C2B63752  31.900  43.913   6.635
 4902POPC   C3B63753  31.970  44.031   7.057
 4902POPC   C4B63754  31.582  44.012   7.273
 4903POPC   NC363755  39.881   9.491   5.327
 4903POPC   PO463756  40.473   9.813   5.156
 4903POPC   GL163757  40.279   9.680   5.613
 4903POPC   GL263758  39.926   9.709   5.778
 4903POPC   C1A63759  40.241   9.546   6.107
 4903POPC   D2A63760  40.234   9.682   6.575
 4903POPC   C3A63761  39.913   9.631   6.932
 4903POPC   C4A63762  39.697   9.991   7.127
 4903POPC   C1B63763  39.914   9.922   6.207
 4903POPC   C2B63764  39.937  10.092   6.641
 4903POPC   C3B63765  40.198  10.053   7.016
 4903POPC   C4B63766  40.093  10.181   7.428
 4904POPC   NC363767   9.204  15.669   5.221
 4904POPC   PO463768   8.843  16.179   5.157
 4904POPC   GL163769   9.039  16.034   5.598
 4904POPC   GL263770   8.773  16.091   5.832
 4904POPC   C1A63771   9.253  15.916   6.061
 4904POPC   D2A63772   9.056  15.846   6.508
 4904POPC   C3A63773   9.269  15.760   6.905
 4904POPC   C4A63774   9.153  15.913   7.304
 4904POPC   C1B63775   8.641  15.873   6.210
 4904POPC   C2B63776   8.564  15.665   6.620
 4904POPC   C3B63777   8.744  15.811   7.009
 4904POPC   C4B63778   8.706  16.191   7.277
 4905POPC   NC363779  43.024  11.824   5.422
 4905POPC   PO463780  43.699  11.636   5.582
 4905POPC   GL163781  43.416  11.714   5.915
 4905POPC   GL263782  43.148  11.936   5.911
 4905POPC   C1A63783  43.341  11.699   6.371
 4905POPC   D2A63784  43.259  11.974   6.708
 4905POPC   C3A63785  43.307  11.868   7.124
 4905POPC   C4A63786  42.972  11.986   7.395
 4905POPC   C1B63787  42.914  12.055   6.307
 4905POPC   C2B63788  42.892  12.354   6.689
 4905POPC   C3B63789  43.117  12.392   7.101
 4905POPC   C4B63790  43.325  12.658   7.427
 4906POPC   NC363791  18.053  29.485   5.317
 4906POPC   PO463792  18.263  28.803   5.258
 4906POPC   GL163793  18.292  29.068   5.688
 4906POPC   GL263794  18.565  29.313   5.627
 4906POPC   C1A63795  18.233  29.078   6.191
 4906POPC   D2A63796  18.268  28.933   6.649
 4906POPC   C3A63797  18.049  29.049   7.043
 4906POPC   C4A63798  18.058  28.929   7.500
 4906POPC   C1B63799  18.582  29.458   6.067
 4906POPC   C2B63800  18.573  29.333   6.514
 4906POPC   C3B63801  18.586  29.180   6.971
 4906POPC   C4B63802  18.341  29.364   7.330
 4907POPC   NC363803  24.619  33.356   5.378
 4907POPC   PO463804  24.542  33.989   5.159
 4907POPC   GL163805  24.514  33.957   5.652
 4907POPC   GL263806  24.227  34.106   5.802
 4907POPC   C1A63807  24.425  33.694   6.068
 4907POPC   D2A63808  24.272  33.421   6.457
 4907POPC   C3A63809  24.506  33.508   6.847
 4907POPC   C4A63810  24.636  33.867   7.068
 4907POPC   C1B63811  24.372  34.230   6.187
 4907POPC   C2B63812  24.569  34.032   6.536
 4907POPC   C3B63813  24.216  33.918   6.760
 4907POPC   C4B63814  24.117  33.906   7.171
 4908POPC   NC363815  34.945  33.529   5.545
 4908POPC   PO463816  34.470  34.067   5.542
 4908POPC   GL163817  34.642  33.793   5.862
 4908POPC   GL263818  34.993  33.901   5.907
 4908POPC   C1A63819  34.840  33.549   6.235
 4908POPC   D2A63820  34.673  33.507   6.650
 4908POPC   C3A63821  34.751  33.728   7.052
 4908POPC   C4A63822  34.495  34.023   7.311
 4908POPC   C1B63823  34.676  34.018   6.320
 4908POPC   C2B63824  34.634  34.148   6.784
 4908POPC   C3B63825  34.831  34.366   7.163
 4908POPC   C4B63826  34.816  34.312   7.651
 4909POPC   NC363827   6.272  32.441   5.400
 4909POPC   PO463828   6.895  32.627   5.438
 4909POPC   GL163829   6.792  32.404   5.810
 4909POPC   GL263830   6.468  32.276   5.850
 4909POPC   C1A63831   6.832  32.321   6.241
 4909POPC   D2A63832   6.682  32.404   6.647
 4909POPC   C3A63833   6.950  32.296   6.968
 4909POPC   C4A63834   6.939  32.210   7.407
 4909POPC   C1B63835   6.308  32.281   6.275
 4909POPC   C2B63836   6.194  31.936   6.581
 4909POPC   C3B63837   6.247  31.957   7.012
 4909POPC   C4B63838   6.472  32.246   7.233
 4910POPC   NC363839   8.621   0.420   5.260
 4910POPC   PO463840   9.247   0.336   5.277
 4910POPC   GL163841   9.109   0.192   5.687
 4910POPC   GL263842   9.212   0.447   5.832
 4910POPC   C1A63843   8.938   0.202   6.149
 4910POPC   D2A63844   8.716   0.468   6.405
 4910POPC   C3A63845   8.809   0.424   6.848
 4910POPC   C4A63846   9.027   0.103   7.081
 4910POPC   C1B63847   9.135   0.692   6.158
 4910POPC   C2B63848   9.208   0.550   6.526
 4910POPC   C3B63849   9.330   0.478   6.904
 4910POPC   C4B63850   9.138   0.567   7.265
 4911POPC   NC363851  13.494   4.143   5.271
 4911POPC   PO463852  13.876   4.640   5.437
 4911POPC   GL163853  13.556   4.366   5.736
 4911POPC   GL263854  13.450   3.987   5.752
 4911POPC   C1A63855  13.398   4.354   6.160
 4911POPC   D2A63856  13.636   4.461   6.512
 4911POPC   C3A63857  13.533   4.340   6.927
 4911POPC   C4A63858  13.732   4.565   7.252
 4911POPC   C1B63859  13.657   3.915   6.132
 4911POPC   C2B63860  13.527   3.955   6.558
 4911POPC   C3B63861  13.762   3.895   6.926
 4911POPC   C4B63862  13.679   4.060   7.351
 4912POPC   NC363863  24.734  20.098   5.486
 4912POPC   PO463864  24.389  19.488   5.581
 4912POPC   GL163865  24.668  19.678   5.810
 4912POPC   GL263866  24.449  19.969   5.876
 4912POPC   C1A63867  24.635  19.657   6.249
 4912POPC   D2A63868  24.388  19.743   6.613
 4912POPC   C3A63869  24.682  19.770   6.906
 4912POPC   C4A63870  24.772  20.077   7.182
 4912POPC   C1B63871  24.349  20.131   6.276
 4912POPC   C2B63872  24.312  20.282   6.707
 4912POPC   C3B63873  24.268  20.012   7.056
 4912POPC   C4B63874  24.408  19.736   7.360
 4913POPC   NC363875  11.989  24.748   5.232
 4913POPC   PO463876  12.028  25.435   5.374
 4913POPC   GL163877  11.991  25.381   5.899
 4913POPC   GL263878  12.216  25.079   6.074
 4913POPC   C1A63879  11.998  25.413   6.363
 4913POPC   D2A63880  12.175  25.143   6.671
 4913POPC   C3A63881  12.146  25.359   7.059
 4913POPC   C4A63882  12.244  25.174   7.452
 4913POPC   C1B63883  11.832  24.934   6.315
 4913POPC   C2B63884  11.645  25.027   6.706
 4913POPC   C3B63885  11.852  24.924   7.132
 4913POPC   C4B63886  11.823  24.925   7.612
 4914POPC   NC363887   4.995  31.324   5.387
 4914POPC   PO463888   5.339  30.824   5.557
 4914POPC   GL163889   5.208  31.192   5.842
 4914POPC   GL263890   5.270  31.553   5.800
 4914POPC   C1A63891   5.141  31.321   6.275
 4914POPC   D2A63892   5.157  31.527   6.687
 4914POPC   C3A63893   5.061  31.389   7.126
 4914POPC   C4A63894   5.015  31.141   7.526
 4914POPC   C1B63895   5.398  31.777   6.215
 4914POPC   C2B63896   5.459  31.917   6.670
 4914POPC   C3B63897   5.241  31.869   7.103
 4914POPC   C4B63898   5.044  32.042   7.492
 4915POPC   NC363899   5.687  32.747   5.417
 4915POPC   PO463900   5.478  33.288   5.404
 4915POPC   GL163901   5.672  33.214   5.812
 4915POPC   GL263902   6.009  33.134   5.847
 4915POPC   C1A63903   5.699  33.139   6.287
 4915POPC   D2A63904   5.780  32.894   6.698
 4915POPC   C3A63905   5.561  33.032   7.094
 4915POPC   C4A63906   5.484  32.988   7.553
 4915POPC   C1B63907   6.157  33.358   6.226
 4915POPC   C2B63908   6.038  33.336   6.646
 4915POPC   C3B63909   5.974  33.373   7.070
 4915POPC   C4B63910   5.982  33.029   7.380
 4916POPC   NC363911  34.511   7.042   5.549
 4916POPC   PO463912  34.276   7.578   5.335
 4916POPC   GL163913  34.600   7.506   5.727
 4916POPC   GL263914  34.362   7.338   5.929
 4916POPC   C1A63915  34.780   7.412   6.187
 4916POPC   D2A63916  34.882   7.597   6.613
 4916POPC   C3A63917  34.792   7.368   7.038
 4916POPC   C4A63918  34.728   7.074   7.370
 4916POPC   C1B63919  34.268   7.170   6.324
 4916POPC   C2B63920  34.177   7.017   6.738
 4916POPC   C3B63921  34.314   7.223   7.108
 4916POPC   C4B63922  34.267   7.607   7.339
 4917POPC   NC363923  44.051  42.745   5.500
 4917POPC   PO463924  43.620  43.213   5.468
 4917POPC   GL163925  43.726  43.032   5.817
 4917POPC   GL263926  44.045  43.153   5.829
 4917POPC   C1A63927  43.775  42.957   6.242
 4917POPC   D2A63928  43.625  42.821   6.622
 4917POPC   C3A63929  43.863  43.017   6.949
 4917POPC   C4A63930  43.724  43.128   7.372
 4917POPC   C1B63931  44.239  43.358   6.162
 4917POPC   C2B63932  44.370  43.315   6.585
 4917POPC   C3B63933  44.324  43.624   6.880
 4917POPC   C4B63934  44.056  43.605   7.238
 4918POPC   NC363935  12.076  17.718   5.124
 4918POPC   PO463936  12.090  18.361   5.328
 4918POPC   GL163937  12.130  18.266   5.758
 4918POPC   GL263938  11.798  18.123   5.745
 4918POPC   C1A63939  12.260  18.388   6.207
 4918POPC   D2A63940  12.132  18.161   6.617
 4918POPC   C3A63941  12.269  18.255   7.048
 4918POPC   C4A63942  12.487  18.650   7.187
 4918POPC   C1B63943  11.906  18.036   6.170
 4918POPC   C2B63944  11.694  17.898   6.547
 4918POPC   C3B63945  11.768  18.088   6.951
 4918POPC   C4B63946  11.835  18.272   7.334
 4919POPC   NC363947  36.941  16.887   5.254
 4919POPC   PO463948  36.436  16.431   5.379
 4919POPC   GL163949  36.625  16.637   5.797
 4919POPC   GL263950  36.697  16.994   5.794
 4919POPC   C1A63951  36.962  16.726   6.186
 4919POPC   D2A63952  37.223  16.888   6.603
 4919POPC   C3A63953  37.081  16.701   7.017
 4919POPC   C4A63954  36.764  16.419   7.210
 4919POPC   C1B63955  36.492  17.161   6.179
 4919POPC   C2B63956  36.376  17.119   6.609
 4919POPC   C3B63957  36.593  16.891   6.958
 4919POPC   C4B63958  36.795  16.973   7.359
 4920POPC   NC363959   6.304   6.430   5.440
 4920POPC   PO463960   5.736   7.013   5.423
 4920POPC   GL163961   5.827   6.766   5.813
 4920POPC   GL263962   6.073   6.491   5.891
 4920POPC   C1A63963   5.758   6.654   6.249
 4920POPC   D2A63964   5.925   6.485   6.604
 4920POPC   C3A63965   5.935   6.863   6.799
 4920POPC   C4A63966   5.772   7.094   7.098
 4920POPC   C1B63967   6.245   6.206   6.243
 4920POPC   C2B63968   6.322   6.167   6.699
 4920POPC   C3B63969   5.979   6.152   7.019
 4920POPC   C4B63970   5.756   6.523   7.126
 4921POPC   NC363971  42.165  42.229   5.529
 4921POPC   PO463972  42.803  42.638   5.427
 4921POPC   GL163973  42.544  42.522   5.756
 4921POPC   GL263974  42.623  42.195   5.796
 4921POPC   C1A63975  42.362  42.459   6.190
 4921POPC   D2A63976  42.545  42.707   6.557
 4921POPC   C3A63977  42.449  42.554   6.953
 4921POPC   C4A63978  42.098  42.456   7.195
 4921POPC   C1B63979  42.707  42.021   6.202
 4921POPC   C2B63980  42.541  41.905   6.627
 4921POPC   C3B63981  42.295  42.055   6.942
 4921POPC   C4B63982  42.117  41.950   7.323
 4922POPC   NC363983  18.878  10.871   5.526
 4922POPC   PO463984  19.236  10.364   5.102
 4922POPC   GL163985  19.099  10.347   5.588
 4922POPC   GL263986  18.765  10.260   5.646
 4922POPC   C1A63987  19.269  10.308   6.078
 4922POPC   D2A63988  19.143  10.237   6.532
 4922POPC   C3A63989  19.142  10.548   6.854
 4922POPC   C4A63990  19.348  10.724   7.199
 4922POPC   C1B63991  18.766  10.387   6.122
 4922POPC   C2B63992  18.590  10.363   6.539
 4922POPC   C3B63993  18.742  10.222   6.934
 4922POPC   C4B63994  18.848  10.304   7.376
 4923POPC   NC363995   7.693  25.242   5.449
 4923POPC   PO463996   7.126  24.984   5.584
 4923POPC   GL163997   7.455  25.179   5.896
 4923POPC   GL263998   7.594  25.532   5.890
 4923POPC   C1A63999   7.740  25.090   6.267
 4923POPC   D2A64000   7.762  24.996   6.728
 4923POPC   C3A64001   7.393  25.147   7.035
 4923POPC   C4A64002   7.036  25.132   7.382
 4923POPC   C1B64003   7.916  25.570   6.270
 4923POPC   C2B64004   7.802  25.511   6.736
 4923POPC   C3B64005   7.762  25.455   7.190
 4923POPC   C4B64006   7.426  25.440   7.482
 4924POPC   NC364007   3.018  29.303   5.439
 4924POPC   PO464008   2.530  28.959   5.220
 4924POPC   GL164009   2.721  28.988   5.747
 4924POPC   GL264010   3.043  29.153   5.933
 4924POPC   C1A64011   2.683  29.042   6.274
 4924POPC   D2A64012   2.795  29.115   6.771
 4924POPC   C3A64013   2.607  28.878   7.165
 4924POPC   C4A64014   2.427  29.031   7.573
 4924POPC   C1B64015   3.300  28.906   6.261
 4924POPC   C2B64016   3.259  28.713   6.682
 4924POPC   C3B64017   3.133  28.804   7.102
 4924POPC   C4B64018   3.301  29.163   7.367
 4925POPC   NC364019  32.445  37.744   5.279
 4925POPC   PO464020  31.796  37.468   5.317
 4925POPC   GL164021  31.997  37.758   5.613
 4925POPC   GL264022  32.325  37.639   5.775
 4925POPC   C1A64023  31.945  37.843   6.071
 4925POPC   D2A64024  32.058  37.565   6.437
 4925POPC   C3A64025  32.013  37.702   6.878
 4925POPC   C4A64026  32.269  37.798   7.223
 4925POPC   C1B64027  32.461  37.783   6.193
 4925POPC   C2B64028  32.424  37.879   6.650
 4925POPC   C3B64029  32.523  38.164   7.006
 4925POPC   C4B64030  32.653  38.052   7.437
 4926POPC   NC364031  10.723  34.097   5.050
 4926POPC   PO464032  10.548  33.555   5.479
 4926POPC   GL164033  10.379  33.764   5.856
 4926POPC   GL264034  10.163  34.036   5.855
 4926POPC   C1A64035  10.214  33.798   6.321
 4926POPC   D2A64036  10.518  33.912   6.702
 4926POPC   C3A64037  10.488  33.857   7.163
 4926POPC   C4A64038  10.561  33.504   7.421
 4926POPC   C1B64039  10.571  34.113   6.157
 4926POPC   C2B64040  10.766  34.315   6.503
 4926POPC   C3B64041  10.663  34.404   6.917
 4926POPC   C4B64042  10.694  34.300   7.348
 4927POPC   NC364043  44.074  26.553   5.510
 4927POPC   PO464044  43.529  26.929   5.420
 4927POPC   GL164045  43.766  26.870   5.771
 4927POPC   GL264046  43.587  26.558   5.790
 4927POPC   C1A64047  44.069  26.767   6.146
 4927POPC   D2A64048  44.078  26.512   6.525
 4927POPC   C3A64049  43.983  26.570   6.968
 4927POPC   C4A64050  44.106  26.773   7.353
 4927POPC   C1B64051  43.569  26.697   6.193
 4927POPC   C2B64052  43.687  26.851   6.562
 4927POPC   C3B64053  43.499  26.784   6.946
 4927POPC   C4B64054  43.597  26.722   7.339
 4928POPC   NC364055  16.301  10.514   5.484
 4928POPC   PO464056  15.792  10.228   5.242
 4928POPC   GL164057  15.688  10.470   5.688
 4928POPC   GL264058  15.978  10.530   5.901
 4928POPC   C1A64059  15.588  10.408   6.181
 4928POPC   D2A64060  15.529  10.557   6.654
 4928POPC   C3A64061  15.885  10.463   6.988
 4928POPC   C4A64062  16.220  10.122   7.146
 4928POPC   C1B64063  16.234  10.493   6.301
 4928POPC   C2B64064  16.292  10.363   6.692
 4928POPC   C3B64065  16.419  10.592   7.047
 4928POPC   C4B64066  16.294  10.831   7.363
 4929POPC   NC364067  36.608  14.557   5.306
 4929POPC   PO464068  37.176  14.796   5.411
 4929POPC   GL164069  36.934  14.561   5.773
 4929POPC   GL264070  36.653  14.752   5.897
 4929POPC   C1A64071  36.878  14.414   6.248
 4929POPC   D2A64072  36.641  14.421   6.681
 4929POPC   C3A64073  36.784  14.250   7.121
 4929POPC   C4A64074  36.966  14.070   7.524
 4929POPC   C1B64075  36.700  14.888   6.356
 4929POPC   C2B64076  36.613  14.907   6.811
 4929POPC   C3B64077  36.747  14.767   7.236
 4929POPC   C4B64078  36.678  14.960   7.653
 4930POPC   NC364079  41.505   2.308   5.129
 4930POPC   PO464080  41.487   1.712   5.452
 4930POPC   GL164081  41.770   2.056   5.596
 4930POPC   GL264082  41.692   2.425   5.748
 4930POPC   C1A64083  41.818   2.035   6.033
 4930POPC   D2A64084  41.756   2.189   6.432
 4930POPC   C3A64085  41.580   1.947   6.760
 4930POPC   C4A64086  41.697   1.939   7.184
 4930POPC   C1B64087  41.406   2.416   6.120
 4930POPC   C2B64088  41.388   2.534   6.524
 4930POPC   C3B64089  41.507   2.419   6.938
 4930POPC   C4B64090  41.225   2.295   7.248
 4931POPC   NC364091  29.301  22.017   5.203
 4931POPC   PO464092  28.736  22.071   5.218
 4931POPC   GL164093  28.980  22.020   5.613
 4931POPC   GL264094  29.123  22.348   5.726
 4931POPC   C1A64095  29.043  21.975   6.063
 4931POPC   D2A64096  29.235  21.966   6.493
 4931POPC   C3A64097  29.025  22.051   6.889
 4931POPC   C4A64098  29.226  21.974   7.291
 4931POPC   C1B64099  29.241  22.418   6.211
 4931POPC   C2B64100  29.221  22.464   6.681
 4931POPC   C3B64101  29.194  22.474   7.144
 4931POPC   C4B64102  29.085  22.466   7.582
 4932POPC   NC364103  42.436  44.953   5.162
 4932POPC   PO464104  42.224  44.328   5.268
 4932POPC   GL164105  42.280  44.595   5.658
 4932POPC   GL264106  42.195  44.330   5.888
 4932POPC   C1A64107  42.466  44.697   6.106
 4932POPC   D2A64108  42.664  44.984   6.403
 4932POPC   C3A64109  42.646  44.804   6.825
 4932POPC   C4A64110  42.502  44.801   7.268
 4932POPC   C1B64111  41.995  44.393   6.300
 4932POPC   C2B64112  41.840  44.619   6.666
 4932POPC   C3B64113  42.018  44.737   7.072
 4932POPC   C4B64114  42.134  44.462   7.427
 4933POPC   NC364115  18.697  36.281   5.568
 4933POPC   PO464116  18.021  36.379   5.393
 4933POPC   GL164117  18.215  36.266   5.774
 4933POPC   GL264118  18.333  35.915   5.766
 4933POPC   C1A64119  18.304  36.348   6.226
 4933POPC   D2A64120  18.062  36.290   6.640
 4933POPC   C3A64121  18.210  36.401   7.052
 4933POPC   C4A64122  18.502  36.669   7.272
 4933POPC   C1B64123  18.045  35.933   6.126
 4933POPC   C2B64124  18.120  35.800   6.540
 4933POPC   C3B64125  18.336  35.933   6.914
 4933POPC   C4B64126  18.342  35.992   7.386
 4934POPC   NC364127  36.696  23.407   5.453
 4934POPC   PO464128  37.068  22.792   5.369
 4934POPC   GL164129  36.982  22.922   5.806
 4934POPC   GL264130  36.944  22.578   5.846
 4934POPC   C1A64131  36.799  22.967   6.254
 4934POPC   D2A64132  36.785  23.284   6.596
 4934POPC   C3A64133  36.873  23.150   7.017
 4934POPC   C4A64134  36.899  22.834   7.321
 4934POPC   C1B64135  36.572  22.521   6.084
 4934POPC   C2B64136  36.465  22.611   6.496
 4934POPC   C3B64137  36.630  22.672   6.891
 4934POPC   C4B64138  36.531  22.466   7.261
 4935POPC   NC364139  24.027  43.556   5.310
 4935POPC   PO464140  23.638  44.035   5.448
 4935POPC   GL164141  23.701  43.939   5.852
 4935POPC   GL264142  23.642  43.614   5.802
 4935POPC   C1A64143  23.571  44.081   6.257
 4935POPC   D2A64144  23.488  43.956   6.678
 4935POPC   C3A64145  23.644  44.209   7.005
 4935POPC   C4A64146  23.692  43.970   7.357
 4935POPC   C1B64147  23.428  43.582   6.209
 4935POPC   C2B64148  23.360  43.453   6.636
 4935POPC   C3B64149  23.530  43.552   7.048
 4935POPC   C4B64150  23.374  43.486   7.478
 4936POPC   NC364151  24.797  41.237   5.456
 4936POPC   PO464152  24.249  41.636   5.341
 4936POPC   GL164153  24.438  41.499   5.741
 4936POPC   GL264154  24.740  41.733   5.773
 4936POPC   C1A64155  24.236  41.307   6.153
 4936POPC   D2A64156  24.264  41.104   6.598
 4936POPC   C3A64157  24.461  41.309   6.968
 4936POPC   C4A64158  24.215  41.621   7.184
 4936POPC   C1B64159  24.461  41.786   6.159
 4936POPC   C2B64160  24.372  41.676   6.579
 4936POPC   C3B64161  24.600  41.819   6.917
 4936POPC   C4B64162  24.566  41.961   7.315
 4937POPC   NC364163  35.191  23.869   5.380
 4937POPC   PO464164  35.780  23.563   5.485
 4937POPC   GL164165  35.410  23.602   5.802
 4937POPC   GL264166  35.190  23.887   5.899
 4937POPC   C1A64167  35.206  23.494   6.224
 4937POPC   D2A64168  35.092  23.590   6.666
 4937POPC   C3A64169  35.449  23.572   6.968
 4937POPC   C4A64170  35.681  23.895   7.211
 4937POPC   C1B64171  35.501  23.953   6.263
 4937POPC   C2B64172  35.508  24.071   6.732
 4937POPC   C3B64173  35.186  24.003   7.080
 4937POPC   C4B64174  35.270  23.984   7.556
 4938POPC   NC364175  24.932  34.105   5.384
 4938POPC   PO464176  25.685  34.355   5.438
 4938POPC   GL164177  25.332  34.498   5.743
 4938POPC   GL264178  25.187  34.864   5.736
 4938POPC   C1A64179  25.250  34.587   6.195
 4938POPC   D2A64180  25.561  34.559   6.530
 4938POPC   C3A64181  25.440  34.409   6.939
 4938POPC   C4A64182  25.048  34.431   7.205
 4938POPC   C1B64183  25.522  35.005   6.042
 4938POPC   C2B64184  25.597  35.090   6.513
 4938POPC   C3B64185  25.407  34.931   6.899
 4938POPC   C4B64186  25.410  34.752   7.308
 4939POPC   NC364187  41.088  44.033   5.244
 4939POPC   PO464188  40.570  43.645   5.454
 4939POPC   GL164189  40.817  43.807   5.771
 4939POPC   GL264190  41.152  44.007   5.747
 4939POPC   C1A64191  40.709  43.703   6.187
 4939POPC   D2A64192  40.746  43.830   6.597
 4939POPC   C3A64193  40.460  43.866   6.899
 4939POPC   C4A64194  40.657  43.870   7.271
 4939POPC   C1B64195  41.060  44.076   6.180
 4939POPC   C2B64196  41.016  44.275   6.566
 4939POPC   C3B64197  40.992  44.116   6.972
 4939POPC   C4B64198  41.052  44.379   7.323
 4940POPC   NC364199  38.841  42.563   5.463
 4940POPC   PO464200  39.327  42.093   5.389
 4940POPC   GL164201  39.074  42.202   5.738
 4940POPC   GL264202  39.115  42.528   5.900
 4940POPC   C1A64203  39.048  42.100   6.180
 4940POPC   D2A64204  39.009  42.297   6.594
 4940POPC   C3A64205  38.998  42.055   6.978
 4940POPC   C4A64206  39.180  42.103   7.381
 4940POPC   C1B64207  38.816  42.662   6.216
 4940POPC   C2B64208  38.611  42.612   6.643
 4940POPC   C3B64209  38.843  42.586   7.057
 4940POPC   C4B64210  38.914  42.515   7.514
 4941POPC   NC364211   0.098  11.006   5.362
 4941POPC   PO464212   0.746  11.224   5.237
 4941POPC   GL164213   0.493  11.245   5.606
 4941POPC   GL264214   0.683  11.054   5.822
 4941POPC   C1A64215   0.448  11.468   6.023
 4941POPC   D2A64216   0.487  11.752   6.402
 4941POPC   C3A64217   0.409  11.535   6.806
 4941POPC   C4A64218   0.550  11.400   7.234
 4941POPC   C1B64219   0.856  11.112   6.248
 4941POPC   C2B64220   0.857  10.865   6.660
 4941POPC   C3B64221   0.774  10.970   7.090
 4941POPC   C4B64222   0.370  10.933   7.364
 4942POPC   NC364223  19.345   9.406   5.530
 4942POPC   PO464224  19.707   8.841   5.419
 4942POPC   GL164225  19.739   9.175   5.805
 4942POPC   GL264226  19.953   9.533   5.788
 4942POPC   C1A64227  19.609   9.099   6.228
 4942POPC   D2A64228  19.610   8.820   6.585
 4942POPC   C3A64229  19.791   8.929   6.983
 4942POPC   C4A64230  20.064   8.787   7.311
 4942POPC   C1B64231  20.015   9.439   6.203
 4942POPC   C2B64232  19.833   9.397   6.587
 4942POPC   C3B64233  20.012   9.410   6.951
 4942POPC   C4B64234  19.806   9.357   7.291
 4943POPC   NC364235  23.021  27.947   5.195
 4943POPC   PO464236  22.954  27.351   5.433
 4943POPC   GL164237  22.934  27.731   5.676
 4943POPC   GL264238  22.646  27.942   5.675
 4943POPC   C1A64239  22.826  27.691   6.112
 4943POPC   D2A64240  23.015  27.822   6.494
 4943POPC   C3A64241  23.020  27.523   6.842
 4943POPC   C4A64242  22.952  27.330   7.255
 4943POPC   C1B64243  22.457  28.040   6.086
 4943POPC   C2B64244  22.488  27.843   6.483
 4943POPC   C3B64245  22.457  27.945   6.901
 4943POPC   C4B64246  22.718  27.780   7.215
 4944POPC   NC364247  22.686  20.047   5.476
 4944POPC   PO464248  23.260  19.707   5.389
 4944POPC   GL164249  23.149  19.866   5.819
 4944POPC   GL264250  22.888  20.120   5.919
 4944POPC   C1A64251  23.076  19.866   6.297
 4944POPC   D2A64252  23.078  20.043   6.681
 4944POPC   C3A64253  22.843  19.897   6.981
 4944POPC   C4A64254  22.689  19.560   7.209
 4944POPC   C1B64255  22.608  20.241   6.233
 4944POPC   C2B64256  22.577  20.175   6.626
 4944POPC   C3B64257  22.639  20.413   6.946
 4944POPC   C4B64258  22.904  20.373   7.259
 4945POPC   NC364259  34.228  37.099   5.609
 4945POPC   PO464260  34.947  37.148   5.453
 4945POPC   GL164261  34.737  36.815   5.765
 4945POPC   GL264262  34.378  36.628   5.780
 4945POPC   C1A64263  34.891  36.767   6.200
 4945POPC   D2A64264  35.093  36.783   6.611
 4945POPC   C3A64265  34.798  36.857   6.925
 4945POPC   C4A64266  34.853  37.179   7.209
 4945POPC   C1B64267  34.376  36.842   6.198
 4945POPC   C2B64268  34.194  36.942   6.619
 4945POPC   C3B64269  34.330  37.044   7.061
 4945POPC   C4B64270  34.168  37.020   7.476
 4946POPC   NC364271  30.841  28.704   5.606
 4946POPC   PO464272  30.463  28.122   5.405
 4946POPC   GL164273  30.533  28.312   5.805
 4946POPC   GL264274  30.295  28.581   5.789
 4946POPC   C1A64275  30.769  28.306   6.225
 4946POPC   D2A64276  30.979  28.254   6.648
 4946POPC   C3A64277  30.868  28.409   7.047
 4946POPC   C4A64278  30.658  28.220   7.395
 4946POPC   C1B64279  30.344  28.605   6.223
 4946POPC   C2B64280  30.330  28.318   6.570
 4946POPC   C3B64281  30.363  28.320   6.987
 4946POPC   C4B64282  30.332  28.608   7.319
 4947POPC   NC364283  42.899  30.776   5.698
 4947POPC   PO464284  43.459  30.756   5.404
 4947POPC   GL164285  43.365  30.867   5.838
 4947POPC   GL264286  43.273  30.492   5.907
 4947POPC   C1A64287  43.130  30.824   6.283
 4947POPC   D2A64288  43.198  30.534   6.627
 4947POPC   C3A64289  43.165  30.790   7.004
 4947POPC   C4A64290  42.860  30.975   7.227
 4947POPC   C1B64291  42.965  30.321   6.197
 4947POPC   C2B64292  42.804  30.174   6.584
 4947POPC   C3B64293  42.828  30.399   6.963
 4947POPC   C4B64294  42.576  30.533   7.270
 4948POPC   NC364295  34.930  22.917   5.378
 4948POPC   PO464296  34.250  23.087   5.326
 4948POPC   GL164297  34.466  23.197   5.700
 4948POPC   GL264298  34.317  23.465   5.871
 4948POPC   C1A64299  34.781  23.168   6.021
 4948POPC   D2A64300  34.782  23.210   6.467
 4948POPC   C3A64301  34.687  22.867   6.777
 4948POPC   C4A64302  34.755  22.868   7.219
 4948POPC   C1B64303  34.295  23.243   6.253
 4948POPC   C2B64304  34.162  23.167   6.695
 4948POPC   C3B64305  34.233  23.072   7.132
 4948POPC   C4B64306  34.013  23.168   7.531
 4949POPC   NC364307  39.750   7.131   5.552
 4949POPC   PO464308  40.382   7.445   5.463
 4949POPC   GL164309  40.180   7.323   5.792
 4949POPC   GL264310  40.241   6.986   5.696
 4949POPC   C1A64311  40.119   7.447   6.212
 4949POPC   D2A64312  39.998   7.320   6.617
 4949POPC   C3A64313  39.922   7.605   6.948
 4949POPC   C4A64314  39.894   7.380   7.349
 4949POPC   C1B64315  40.232   6.967   6.166
 4949POPC   C2B64316  40.357   6.871   6.589
 4949POPC   C3B64317  40.233   7.014   6.979
 4949POPC   C4B64318  40.168   6.950   7.419
 4950POPC   NC364319  38.745   2.042   5.407
 4950POPC   PO464320  38.204   1.573   5.335
 4950POPC   GL164321  38.430   1.714   5.716
 4950POPC   GL264322  38.415   2.092   5.790
 4950POPC   C1A64323  38.524   1.755   6.185
 4950POPC   D2A64324  38.372   1.661   6.626
 4950POPC   C3A64325  38.552   1.838   6.996
 4950POPC   C4A64326  38.792   2.166   7.255
 4950POPC   C1B64327  38.792   2.181   6.095
 4950POPC   C2B64328  38.687   2.133   6.544
 4950POPC   C3B64329  38.455   2.325   6.891
 4950POPC   C4B64330  38.287   2.243   7.325
 4951POPC   NC364331   7.627  33.536   5.461
 4951POPC   PO464332   7.257  34.041   5.308
 4951POPC   GL164333   7.217  33.904   5.749
 4951POPC   GL264334   7.534  34.074   5.815
 4951POPC   C1A64335   7.286  33.610   6.149
 4951POPC   D2A64336   7.376  33.464   6.601
 4951POPC   C3A64337   7.093  33.592   6.985
 4951POPC   C4A64338   7.070  33.534   7.459
 4951POPC   C1B64339   7.327  34.131   6.221
 4951POPC   C2B64340   7.252  33.958   6.637
 4951POPC   C3B64341   7.505  34.008   7.030
 4951POPC   C4B64342   7.493  34.215   7.472
 4952POPC   NC364343  26.741  40.234   5.302
 4952POPC   PO464344  27.085  39.846   5.695
 4952POPC   GL164345  26.854  40.155   5.838
 4952POPC   GL264346  27.029  40.467   5.750
 4952POPC   C1A64347  26.773  40.000   6.260
 4952POPC   D2A64348  26.630  39.767   6.606
 4952POPC   C3A64349  26.551  40.018   6.922
 4952POPC   C4A64350  26.719  39.977   7.284
 4952POPC   C1B64351  26.897  40.503   6.192
 4952POPC   C2B64352  26.669  40.380   6.571
 4952POPC   C3B64353  26.948  40.359   6.900
 4952POPC   C4B64354  27.050  40.357   7.310
 4953POPC   NC364355   0.850  16.087   5.378
 4953POPC   PO464356   0.249  16.189   5.176
 4953POPC   GL164357   0.459  16.047   5.678
 4953POPC   GL264358   0.664  15.713   5.748
 4953POPC   C1A64359   0.418  16.157   6.147
 4953POPC   D2A64360   0.603  16.093   6.597
 4953POPC   C3A64361   0.294  16.101   6.953
 4953POPC   C4A64362   0.243  15.940   7.386
 4953POPC   C1B64363   0.459  15.598   6.193
 4953POPC   C2B64364   0.304  15.683   6.614
 4953POPC   C3B64365   0.232  15.568   7.038
 4953POPC   C4B64366   0.514  15.504   7.423
 4954POPC   NC364367  29.489  40.714   5.505
 4954POPC   PO464368  29.042  41.205   5.437
 4954POPC   GL164369  29.297  41.083   5.800
 4954POPC   GL264370  29.611  41.196   5.869
 4954POPC   C1A64371  29.273  40.851   6.187
 4954POPC   D2A64372  28.900  40.884   6.488
 4954POPC   C3A64373  28.852  40.671   6.881
 4954POPC   C4A64374  29.053  40.708   7.290
 4954POPC   C1B64375  29.627  41.235   6.313
 4954POPC   C2B64376  29.374  41.103   6.607
 4954POPC   C3B64377  29.345  40.795   6.860
 4954POPC   C4B64378  29.460  41.065   7.184
 4955POPC   NC364379  43.103  10.032   5.517
 4955POPC   PO464380  43.399  10.691   5.446
 4955POPC   GL164381  43.286  10.461   5.778
 4955POPC   GL264382  43.535  10.255   5.717
 4955POPC   C1A64383  43.108  10.470   6.172
 4955POPC   D2A64384  43.123  10.752   6.545
 4955POPC   C3A64385  43.087  10.604   6.946
 4955POPC   C4A64386  42.898  10.590   7.352
 4955POPC   C1B64387  43.644  10.247   6.151
 4955POPC   C2B64388  43.426  10.309   6.524
 4955POPC   C3B64389  43.489  10.293   6.935
 4955POPC   C4B64390  43.418  10.500   7.322
 4956POPC   NC364391   0.900   7.066   5.347
 4956POPC   PO464392   1.084   7.686   5.426
 4956POPC   GL164393   1.253   7.461   5.807
 4956POPC   GL264394   1.429   7.189   5.622
 4956POPC   C1A64395   1.157   7.389   6.293
 4956POPC   D2A64396   1.070   7.146   6.724
 4956POPC   C3A64397   1.045   7.409   7.100
 4956POPC   C4A64398   0.796   7.762   7.257
 4956POPC   C1B64399   1.502   7.069   6.055
 4956POPC   C2B64400   1.516   7.019   6.489
 4956POPC   C3B64401   1.548   7.113   6.934
 4956POPC   C4B64402   1.306   7.010   7.305
 4957POPC   NC364403  40.771  22.686   5.214
 4957POPC   PO464404  41.164  23.222   5.478
 4957POPC   GL164405  40.838  22.946   5.686
 4957POPC   GL264406  40.566  22.634   5.665
 4957POPC   C1A64407  40.657  22.932   6.065
 4957POPC   D2A64408  40.920  22.966   6.394
 4957POPC   C3A64409  40.807  22.812   6.777
 4957POPC   C4A64410  40.738  23.112   7.058
 4957POPC   C1B64411  40.490  22.434   6.061
 4957POPC   C2B64412  40.446  22.301   6.487
 4957POPC   C3B64413  40.479  22.419   6.909
 4957POPC   C4B64414  40.550  22.667   7.282
 4958POPC   NC364415  21.502  36.501   5.397
 4958POPC   PO464416  21.442  35.800   5.444
 4958POPC   GL164417  21.382  36.132   5.716
 4958POPC   GL264418  21.580  35.987   5.921
 4958POPC   C1A64419  21.351  36.440   6.077
 4958POPC   D2A64420  21.100  36.450   6.474
 4958POPC   C3A64421  21.284  36.514   6.889
 4958POPC   C4A64422  21.312  36.320   7.271
 4958POPC   C1B64423  21.688  36.107   6.275
 4958POPC   C2B64424  21.474  36.114   6.622
 4958POPC   C3B64425  21.401  35.907   6.976
 4958POPC   C4B64426  21.729  35.864   7.233
 4959POPC   NC364427  18.123  31.382   5.127
 4959POPC   PO464428  18.618  31.588   5.418
 4959POPC   GL164429  18.669  31.553   5.861
 4959POPC   GL264430  18.423  31.803   5.953
 4959POPC   C1A64431  18.533  31.448   6.313
 4959POPC   D2A64432  18.228  31.528   6.669
 4959POPC   C3A64433  18.325  31.397   7.113
 4959POPC   C4A64434  18.117  31.126   7.461
 4959POPC   C1B64435  18.511  31.946   6.399
 4959POPC   C2B64436  18.598  31.819   6.838
 4959POPC   C3B64437  18.613  31.851   7.257
 4959POPC   C4B64438  18.426  32.141   7.528
 4960POPC   NC364439   3.682  39.753   5.116
 4960POPC   PO464440   3.701  39.076   5.342
 4960POPC   GL164441   3.690  39.113   5.754
 4960POPC   GL264442   3.326  39.188   5.764
 4960POPC   C1A64443   3.673  39.326   6.137
 4960POPC   D2A64444   3.711  39.586   6.482
 4960POPC   C3A64445   3.664  39.353   6.846
 4960POPC   C4A64446   3.649  39.179   7.261
 4960POPC   C1B64447   3.242  39.048   6.181
 4960POPC   C2B64448   3.202  39.258   6.565
 4960POPC   C3B64449   3.223  39.120   6.976
 4960POPC   C4B64450   3.004  38.958   7.293
 4961POPC   NC364451  35.968  22.109   5.207
 4961POPC   PO464452  36.598  22.326   5.419
 4961POPC   GL164453  36.262  22.196   5.725
 4961POPC   GL264454  35.962  21.940   5.696
 4961POPC   C1A64455  36.119  22.274   6.138
 4961POPC   D2A64456  36.007  22.390   6.530
 4961POPC   C3A64457  36.264  22.237   6.853
 4961POPC   C4A64458  36.017  22.248   7.200
 4961POPC   C1B64459  36.054  21.784   6.111
 4961POPC   C2B64460  36.226  21.850   6.516
 4961POPC   C3B64461  36.044  21.763   6.921
 4961POPC   C4B64462  35.848  21.787   7.317
 4962POPC   NC364463  13.044  14.800   5.504
 4962POPC   PO464464  12.890  15.425   5.442
 4962POPC   GL164465  12.938  15.197   5.838
 4962POPC   GL264466  12.713  14.909   5.882
 4962POPC   C1A64467  12.936  15.376   6.241
 4962POPC   D2A64468  12.755  15.396   6.629
 4962POPC   C3A64469  12.999  15.525   6.939
 4962POPC   C4A64470  13.145  15.336   7.308
 4962POPC   C1B64471  12.895  14.871   6.280
 4962POPC   C2B64472  13.114  15.024   6.618
 4962POPC   C3B64473  12.931  15.003   6.995
 4962POPC   C4B64474  12.853  14.914   7.409
 4963POPC   NC364475  16.839  38.777   5.386
 4963POPC   PO464476  16.461  38.230   5.083
 4963POPC   GL164477  16.567  38.349   5.593
 4963POPC   GL264478  16.918  38.406   5.756
 4963POPC   C1A64479  16.572  38.202   6.075
 4963POPC   D2A64480  16.710  38.129   6.542
 4963POPC   C3A64481  16.495  38.301   6.912
 4963POPC   C4A64482  16.605  38.517   7.311
 4963POPC   C1B64483  16.861  38.619   6.192
 4963POPC   C2B64484  16.843  38.603   6.662
 4963POPC   C3B64485  16.992  38.715   7.063
 4963POPC   C4B64486  16.759  39.016   7.347
 4964POPC   NC364487  14.029   3.779   5.601
 4964POPC   PO464488  13.456   3.668   5.343
 4964POPC   GL164489  13.411   3.456   5.733
 4964POPC   GL264490  13.142   3.238   5.645
 4964POPC   C1A64491  13.681   3.377   6.116
 4964POPC   D2A64492  13.853   3.565   6.507
 4964POPC   C3A64493  13.780   3.379   6.907
 4964POPC   C4A64494  13.705   3.562   7.332
 4964POPC   C1B64495  13.219   3.149   6.108
 4964POPC   C2B64496  13.346   3.216   6.565
 4964POPC   C3B64497  13.289   3.276   7.037
 4964POPC   C4B64498  13.343   3.224   7.508
 4965POPC   NC364499  29.443  34.325   5.407
 4965POPC   PO464500  28.820  34.681   5.325
 4965POPC   GL164501  29.037  34.623   5.728
 4965POPC   GL264502  29.378  34.763   5.692
 4965POPC   C1A64503  28.904  34.559   6.151
 4965POPC   D2A64504  29.137  34.589   6.534
 4965POPC   C3A64505  28.982  34.464   6.924
 4965POPC   C4A64506  28.855  34.779   7.241
 4965POPC   C1B64507  29.431  34.550   6.097
 4965POPC   C2B64508  29.606  34.392   6.511
 4965POPC   C3B64509  29.514  34.317   6.954
 4965POPC   C4B64510  29.323  34.549   7.298
 4966POPC   NC364511  24.177  26.643   5.528
 4966POPC   PO464512  23.676  27.103   5.377
 4966POPC   GL164513  23.722  26.822   5.747
 4966POPC   GL264514  23.531  26.505   5.780
 4966POPC   C1A64515  23.808  26.893   6.205
 4966POPC   D2A64516  23.727  26.688   6.623
 4966POPC   C3A64517  23.723  26.922   6.989
 4966POPC   C4A64518  24.144  26.895   7.095
 4966POPC   C1B64519  23.482  26.494   6.217
 4966POPC   C2B64520  23.239  26.667   6.581
 4966POPC   C3B64521  23.391  26.510   7.008
 4966POPC   C4B64522  23.445  26.529   7.470
 4967POPC   NC364523  17.205  23.954   5.250
 4967POPC   PO464524  17.716  23.557   5.455
 4967POPC   GL164525  17.408  23.612   5.745
 4967POPC   GL264526  17.387  23.949   5.733
 4967POPC   C1A64527  17.363  23.440   6.150
 4967POPC   D2A64528  17.691  23.457   6.472
 4967POPC   C3A64529  17.498  23.497   6.857
 4967POPC   C4A64530  17.334  23.586   7.253
 4967POPC   C1B64531  17.628  23.885   6.133
 4967POPC   C2B64532  17.685  24.044   6.577
 4967POPC   C3B64533  17.689  23.930   7.019
 4967POPC   C4B64534  17.710  24.191   7.363
 4968POPC   NC364535   2.861  43.279   5.293
 4968POPC   PO464536   2.386  42.933   5.374
 4968POPC   GL164537   2.552  43.128   5.769
 4968POPC   GL264538   2.930  43.118   5.787
 4968POPC   C1A64539   2.589  43.265   6.234
 4968POPC   D2A64540   2.474  43.323   6.678
 4968POPC   C3A64541   2.698  43.345   7.082
 4968POPC   C4A64542   2.852  43.146   7.489
 4968POPC   C1B64543   3.124  43.122   6.209
 4968POPC   C2B64544   2.996  43.079   6.649
 4968POPC   C3B64545   2.932  42.904   7.035
 4968POPC   C4B64546   3.127  42.693   7.375
 4969POPC   NC364547   7.417  34.470   5.338
 4969POPC   PO464548   7.347  35.142   5.296
 4969POPC   GL164549   7.312  34.824   5.709
 4969POPC   GL264550   7.610  34.586   5.792
 4969POPC   C1A64551   7.296  34.650   6.180
 4969POPC   D2A64552   7.249  34.467   6.617
 4969POPC   C3A64553   7.369  34.694   6.994
 4969POPC   C4A64554   7.476  34.693   7.429
 4969POPC   C1B64555   7.756  34.425   6.213
 4969POPC   C2B64556   7.756  34.530   6.677
 4969POPC   C3B64557   7.797  34.441   7.128
 4969POPC   C4B64558   7.938  34.443   7.597
 4970POPC   NC364559  10.768  27.572   5.484
 4970POPC   PO464560  10.318  27.132   5.624
 4970POPC   GL164561  10.536  27.405   5.903
 4970POPC   GL264562  10.890  27.332   5.923
 4970POPC   C1A64563  10.604  27.712   6.198
 4970POPC   D2A64564  10.375  27.683   6.549
 4970POPC   C3A64565  10.550  27.900   6.897
 4970POPC   C4A64566  10.688  28.179   7.241
 4970POPC   C1B64567  10.863  27.281   6.363
 4970POPC   C2B64568  10.795  27.462   6.753
 4970POPC   C3B64569  10.689  27.457   7.185
 4970POPC   C4B64570  10.878  27.408   7.607
 4971POPC   NC364571  31.259  44.829   5.346
 4971POPC   PO464572  31.767   0.119   5.603
 4971POPC   GL164573  31.348   0.165   5.787
 4971POPC   GL264574  31.390   0.518   5.901
 4971POPC   C1A64575  31.140   0.185   6.207
 4971POPC   D2A64576  31.353   0.208   6.613
 4971POPC   C3A64577  31.287   0.355   7.051
 4971POPC   C4A64578  31.674   0.421   7.327
 4971POPC   C1B64579  31.371   0.686   6.328
 4971POPC   C2B64580  31.523   0.708   6.748
 4971POPC   C3B64581  31.456   0.868   7.166
 4971POPC   C4B64582  31.585   0.897   7.617
 4972POPC   NC364583   8.811  21.017   5.558
 4972POPC   PO464584   9.068  21.651   5.585
 4972POPC   GL164585   9.142  21.322   5.848
 4972POPC   GL264586   8.793  21.338   5.987
 4972POPC   C1A64587   9.216  21.365   6.270
 4972POPC   D2A64588   8.988  21.513   6.610
 4972POPC   C3A64589   9.124  21.231   6.910
 4972POPC   C4A64590   9.328  21.330   7.283
 4972POPC   C1B64591   8.722  21.808   6.152
 4972POPC   C2B64592   8.771  22.002   6.560
 4972POPC   C3B64593   8.680  21.825   6.952
 4972POPC   C4B64594   8.817  21.506   7.203
 4973POPC   NC364595  25.065  27.103   5.517
 4973POPC   PO464596  25.380  27.688   5.315
 4973POPC   GL164597  25.167  27.626   5.670
 4973POPC   GL264598  25.434  27.378   5.742
 4973POPC   C1A64599  25.170  27.576   6.128
 4973POPC   D2A64600  25.455  27.537   6.479
 4973POPC   C3A64601  25.322  27.708   6.872
 4973POPC   C4A64602  25.218  27.713   7.306
 4973POPC   C1B64603  25.654  27.228   6.085
 4973POPC   C2B64604  25.785  27.129   6.483
 4973POPC   C3B64605  25.677  27.328   6.898
 4973POPC   C4B64606  25.425  27.253   7.257
 4974POPC   NC364607  20.880  22.321   5.441
 4974POPC   PO464608  20.344  21.848   5.336
 4974POPC   GL164609  20.615  21.958   5.712
 4974POPC   GL264610  20.579  22.308   5.863
 4974POPC   C1A64611  20.811  21.885   6.129
 4974POPC   D2A64612  20.641  21.881   6.558
 4974POPC   C3A64613  20.864  21.937   6.926
 4974POPC   C4A64614  20.698  22.031   7.310
 4974POPC   C1B64615  20.586  22.359   6.316
 4974POPC   C2B64616  20.531  22.326   6.775
 4974POPC   C3B64617  20.383  22.404   7.164
 4974POPC   C4B64618  20.786  22.514   7.301
 4975POPC   NC364619  38.531  17.396   5.505
 4975POPC   PO464620  37.910  17.160   5.640
 4975POPC   GL164621  38.227  17.409   5.891
 4975POPC   GL264622  38.249  17.754   5.738
 4975POPC   C1A64623  38.533  17.577   6.197
 4975POPC   D2A64624  38.481  17.570   6.645
 4975POPC   C3A64625  38.716  17.673   6.998
 4975POPC   C4A64626  38.633  17.379   7.349
 4975POPC   C1B64627  38.168  17.939   6.085
 4975POPC   C2B64628  38.342  18.015   6.446
 4975POPC   C3B64629  38.289  17.997   6.873
 4975POPC   C4B64630  38.288  17.758   7.251
 4976POPC   NC364631  33.544  26.775   5.481
 4976POPC   PO464632  34.143  26.635   5.713
 4976POPC   GL164633  33.759  26.831   5.935
 4976POPC   GL264634  33.516  27.133   5.830
 4976POPC   C1A64635  33.709  26.574   6.287
 4976POPC   D2A64636  34.004  26.429   6.570
 4976POPC   C3A64637  33.983  26.707   6.908
 4976POPC   C4A64638  33.790  26.643   7.266
 4976POPC   C1B64639  33.567  27.216   6.246
 4976POPC   C2B64640  33.576  26.968   6.602
 4976POPC   C3B64641  33.453  26.915   6.993
 4976POPC   C4B64642  33.776  27.166   7.127
 4977POPC   NC364643  26.788  10.344   5.484
 4977POPC   PO464644  26.260  10.086   5.750
 4977POPC   GL164645  26.612  10.296   5.960
 4977POPC   GL264646  26.713  10.663   5.875
 4977POPC   C1A64647  26.924  10.224   6.214
 4977POPC   D2A64648  27.025  10.334   6.606
 4977POPC   C3A64649  26.693  10.511   6.820
 4977POPC   C4A64650  26.812  10.490   7.237
 4977POPC   C1B64651  26.802  10.699   6.326
 4977POPC   C2B64652  27.024  10.855   6.697
 4977POPC   C3B64653  26.762  10.970   7.074
 4977POPC   C4B64654  26.466  10.854   7.410
 4978POPC   NC364655  43.837  33.856   5.425
 4978POPC   PO464656  44.200  33.331   5.651
 4978POPC   GL164657  43.969  33.644   5.915
 4978POPC   GL264658  43.665  33.888   5.907
 4978POPC   C1A64659  43.829  33.699   6.344
 4978POPC   D2A64660  43.912  33.942   6.665
 4978POPC   C3A64661  43.713  33.962   6.995
 4978POPC   C4A64662  43.836  33.746   7.319
 4978POPC   C1B64663  43.799  34.221   6.226
 4978POPC   C2B64664  44.068  34.409   6.561
 4978POPC   C3B64665  44.186  34.255   6.985
 4978POPC   C4B64666  43.948  34.243   7.341
 4979POPC   NC364667  15.299  20.590   5.371
 4979POPC   PO464668  15.982  20.685   5.391
 4979POPC   GL164669  15.886  20.589   5.786
 4979POPC   GL264670  16.205  20.487   5.870
 4979POPC   C1A64671  15.907  20.760   6.203
 4979POPC   D2A64672  16.024  20.599   6.602
 4979POPC   C3A64673  15.809  20.617   6.997
 4979POPC   C4A64674  15.933  20.774   7.420
 4979POPC   C1B64675  16.408  20.411   6.272
 4979POPC   C2B64676  16.454  20.371   6.724
 4979POPC   C3B64677  16.316  20.560   7.088
 4979POPC   C4B64678  16.436  20.450   7.500
 4980POPC   NC364679  34.278  18.030   5.479
 4980POPC   PO464680  34.862  18.324   5.342
 4980POPC   GL164681  34.607  18.329   5.741
 4980POPC   GL264682  34.824  18.591   5.849
 4980POPC   C1A64683  34.373  18.123   6.159
 4980POPC   D2A64684  34.328  17.950   6.643
 4980POPC   C3A64685  34.391  18.248   7.010
 4980POPC   C4A64686  34.578  18.624   7.240
 4980POPC   C1B64687  34.914  18.256   6.124
 4980POPC   C2B64688  35.034  18.329   6.505
 4980POPC   C3B64689  34.911  18.221   6.885
 4980POPC   C4B64690  34.852  18.175   7.277
 4981POPC   NC364691  17.786  20.861   5.476
 4981POPC   PO464692  17.511  20.273   5.550
 4981POPC   GL164693  17.540  20.597   5.837
 4981POPC   GL264694  17.332  20.873   5.719
 4981POPC   C1A64695  17.554  20.644   6.253
 4981POPC   D2A64696  17.437  20.397   6.572
 4981POPC   C3A64697  17.517  20.591   6.926
 4981POPC   C4A64698  17.579  20.438   7.281
 4981POPC   C1B64699  17.249  21.020   6.110
 4981POPC   C2B64700  17.150  20.889   6.518
 4981POPC   C3B64701  17.187  21.004   6.944
 4981POPC   C4B64702  17.200  20.744   7.315
 4982POPC   NC364703  41.556  22.071   5.140
 4982POPC   PO464704  41.479  21.847   5.739
 4982POPC   GL164705  41.498  22.296   5.835
 4982POPC   GL264706  41.772  22.522   5.968
 4982POPC   C1A64707  41.387  22.269   6.273
 4982POPC   D2A64708  41.574  22.022   6.600
 4982POPC   C3A64709  41.386  22.068   6.993
 4982POPC   C4A64710  41.618  22.074   7.375
 4982POPC   C1B64711  41.787  22.549   6.416
 4982POPC   C2B64712  41.728  22.454   6.848
 4982POPC   C3B64713  41.892  22.482   7.243
 4982POPC   C4B64714  41.873  22.409   7.721
 4983POPC   NC364715  44.925  21.109   5.208
 4983POPC   PO464716  44.628  21.685   5.440
 4983POPC   GL164717  44.567  21.329   5.727
 4983POPC   GL264718  44.883  21.129   5.726
 4983POPC   C1A64719  44.497  21.350   6.193
 4983POPC   D2A64720  44.691  21.542   6.586
 4983POPC   C3A64721  44.495  21.495   7.007
 4983POPC   C4A64722  44.297  21.701   7.343
 4983POPC   C1B64723   0.015  21.260   6.142
 4983POPC   C2B64724   0.151  21.217   6.566
 4983POPC   C3B64725   0.020  21.293   6.993
 4983POPC   C4B64726  44.711  21.083   7.216
 4984POPC   NC364727  29.554  30.147   5.449
 4984POPC   PO464728  28.970  29.768   5.357
 4984POPC   GL164729  28.999  29.696   5.775
 4984POPC   GL264730  29.291  29.901   5.826
 4984POPC   C1A64731  28.881  29.623   6.201
 4984POPC   D2A64732  28.976  29.573   6.665
 4984POPC   C3A64733  29.080  29.997   6.847
 4984POPC   C4A64734  28.921  30.226   7.216
 4984POPC   C1B64735  29.392  29.537   6.074
 4984POPC   C2B64736  29.455  29.492   6.505
 4984POPC   C3B64737  29.410  29.606   6.947
 4984POPC   C4B64738  29.365  29.947   7.271
 4985POPC   NC364739  40.169  39.505   5.572
 4985POPC   PO464740  39.858  38.922   5.254
 4985POPC   GL164741  39.863  38.989   5.726
 4985POPC   GL264742  40.184  38.901   5.846
 4985POPC   C1A64743  39.890  39.181   6.180
 4985POPC   D2A64744  39.727  39.447   6.567
 4985POPC   C3A64745  39.901  39.400   7.000
 4985POPC   C4A64746  39.788  39.153   7.366
 4985POPC   C1B64747  40.356  38.972   6.278
 4985POPC   C2B64748  40.394  39.114   6.710
 4985POPC   C3B64749  40.216  39.014   7.107
 4985POPC   C4B64750  40.385  39.070   7.511
 4986POPC   NC364751  16.987   3.376   5.477
 4986POPC   PO464752  16.676   2.816   5.286
 4986POPC   GL164753  16.655   2.713   5.734
 4986POPC   GL264754  16.941   2.945   5.779
 4986POPC   C1A64755  16.706   2.445   6.138
 4986POPC   D2A64756  16.845   2.237   6.531
 4986POPC   C3A64757  16.680   2.423   6.906
 4986POPC   C4A64758  16.546   2.778   7.152
 4986POPC   C1B64759  17.110   2.753   6.146
 4986POPC   C2B64760  16.901   2.748   6.542
 4986POPC   C3B64761  17.060   2.792   6.955
 4986POPC   C4B64762  17.020   2.934   7.353
 4987POPC   NC364763  33.557   8.418   5.496
 4987POPC   PO464764  34.137   8.148   5.390
 4987POPC   GL164765  33.859   8.169   5.808
 4987POPC   GL264766  33.693   7.879   5.808
 4987POPC   C1A64767  33.869   8.113   6.288
 4987POPC   D2A64768  33.991   8.457   6.616
 4987POPC   C3A64769  33.801   8.455   7.029
 4987POPC   C4A64770  33.660   8.225   7.396
 4987POPC   C1B64771  33.475   7.784   6.166
 4987POPC   C2B64772  33.368   7.945   6.572
 4987POPC   C3B64773  33.610   7.973   6.940
 4987POPC   C4B64774  33.775   7.740   7.306
 4988POPC   NC364775  21.360  29.666   5.413
 4988POPC   PO464776  21.197  30.293   5.343
 4988POPC   GL164777  21.192  30.052   5.734
 4988POPC   GL264778  21.026  29.706   5.789
 4988POPC   C1A64779  21.392  30.095   6.138
 4988POPC   D2A64780  21.594  30.243   6.498
 4988POPC   C3A64781  21.590  29.990   6.853
 4988POPC   C4A64782  21.584  29.976   7.282
 4988POPC   C1B64783  20.903  29.912   6.191
 4988POPC   C2B64784  21.008  30.067   6.632
 4988POPC   C3B64785  21.124  29.860   7.029
 4988POPC   C4B64786  21.147  29.791   7.511
 4989POPC   NC364787  27.154   9.416   5.412
 4989POPC   PO464788  27.646   9.800   5.148
 4989POPC   GL164789  27.535   9.802   5.628
 4989POPC   GL264790  27.431   9.496   5.826
 4989POPC   C1A64791  27.712   9.824   6.087
 4989POPC   D2A64792  27.518   9.903   6.494
 4989POPC   C3A64793  27.622   9.636   6.836
 4989POPC   C4A64794  27.769   9.724   7.229
 4989POPC   C1B64795  27.183   9.768   6.132
 4989POPC   C2B64796  27.014   9.841   6.570
 4989POPC   C3B64797  27.236   9.960   6.971
 4989POPC   C4B64798  27.275   9.671   7.318
 4990POPC   NC364799  28.503  18.011   5.642
 4990POPC   PO464800  29.065  18.180   5.264
 4990POPC   GL164801  29.081  18.257   5.717
 4990POPC   GL264802  28.903  18.535   5.870
 4990POPC   C1A64803  29.270  18.124   6.111
 4990POPC   D2A64804  29.389  18.241   6.540
 4990POPC   C3A64805  29.224  18.125   6.956
 4990POPC   C4A64806  29.542  18.151   7.284
 4990POPC   C1B64807  28.760  18.648   6.290
 4990POPC   C2B64808  28.940  18.527   6.679
 4990POPC   C3B64809  28.781  18.543   7.073
 4990POPC   C4B64810  28.472  18.838   7.268
 4991POPC   NC364811   7.828  20.446   5.534
 4991POPC   PO464812   7.368  20.068   5.255
 4991POPC   GL164813   7.428  20.067   5.696
 4991POPC   GL264814   7.411  20.373   5.838
 4991POPC   C1A64815   7.426  19.784   6.047
 4991POPC   D2A64816   7.113  19.718   6.354
 4991POPC   C3A64817   7.290  19.639   6.733
 4991POPC   C4A64818   7.147  19.520   7.090
 4991POPC   C1B64819   7.731  20.187   6.141
 4991POPC   C2B64820   7.665  19.938   6.519
 4991POPC   C3B64821   7.544  20.010   6.966
 4991POPC   C4B64822   7.603  20.264   7.308
 4992POPC   NC364823  13.036  37.638   5.314
 4992POPC   PO464824  12.343  37.676   5.394
 4992POPC   GL164825  12.599  37.529   5.760
 4992POPC   GL264826  12.945  37.505   5.782
 4992POPC   C1A64827  12.502  37.377   6.161
 4992POPC   D2A64828  12.619  37.611   6.522
 4992POPC   C3A64829  12.523  37.499   6.936
 4992POPC   C4A64830  12.640  37.870   7.210
 4992POPC   C1B64831  13.002  37.499   6.189
 4992POPC   C2B64832  13.071  37.383   6.585
 4992POPC   C3B64833  13.030  37.599   6.962
 4992POPC   C4B64834  13.270  37.541   7.291
 4993POPC   NC364835  25.526  20.807   5.340
 4993POPC   PO464836  25.166  20.293   5.580
 4993POPC   GL164837  25.416  20.385   5.910
 4993POPC   GL264838  25.501  20.744   5.864
 4993POPC   C1A64839  25.419  20.334   6.355
 4993POPC   D2A64840  25.589  20.297   6.772
 4993POPC   C3A64841  25.311  20.394   7.138
 4993POPC   C4A64842  25.079  20.285   7.515
 4993POPC   C1B64843  25.410  20.890   6.283
 4993POPC   C2B64844  25.244  20.733   6.670
 4993POPC   C3B64845  25.170  20.874   7.098
 4993POPC   C4B64846  25.457  20.804   7.430
 4994POPC   NC364847  21.458  26.485   5.609
 4994POPC   PO464848  21.307  25.809   5.439
 4994POPC   GL164849  21.325  26.029   5.815
 4994POPC   GL264850  21.707  26.060   5.843
 4994POPC   C1A64851  21.192  25.871   6.226
 4994POPC   D2A64852  21.415  25.693   6.553
 4994POPC   C3A64853  21.208  25.774   6.947
 4994POPC   C4A64854  21.445  25.800   7.309
 4994POPC   C1B64855  21.563  26.203   6.255
 4994POPC   C2B64856  21.157  26.364   6.445
 4994POPC   C3B64857  20.988  26.427   6.875
 4994POPC   C4B64858  21.184  26.227   7.228
 4995POPC   NC364859  21.225  23.927   5.419
 4995POPC   PO464860  21.555  23.322   5.470
 4995POPC   GL164861  21.340  23.549   5.831
 4995POPC   GL264862  21.297  23.922   5.903
 4995POPC   C1A64863  21.435  23.608   6.295
 4995POPC   D2A64864  21.447  23.439   6.705
 4995POPC   C3A64865  21.619  23.484   7.122
 4995POPC   C4A64866  21.224  23.465   7.313
 4995POPC   C1B64867  21.579  24.082   6.181
 4995POPC   C2B64868  21.361  24.096   6.563
 4995POPC   C3B64869  21.302  23.880   6.971
 4995POPC   C4B64870  21.433  24.018   7.398
 4996POPC   NC364871  39.892  21.036   5.565
 4996POPC   PO464872  40.376  21.563   5.417
 4996POPC   GL164873  40.206  21.385   5.776
 4996POPC   GL264874  40.277  21.047   5.921
 4996POPC   C1A64875  39.960  21.529   6.128
 4996POPC   D2A64876  39.722  21.479   6.496
 4996POPC   C3A64877  39.824  21.614   6.904
 4996POPC   C4A64878  39.998  21.339   7.197
 4996POPC   C1B64879  40.002  21.014   6.301
 4996POPC   C2B64880  39.821  21.020   6.739
 4996POPC   C3B64881  39.544  21.175   7.069
 4996POPC   C4B64882  39.547  21.155   7.551
 4997POPC   NC364883  16.247   0.720   5.262
 4997POPC   PO464884  16.003   1.347   5.300
 4997POPC   GL164885  16.050   1.385   5.746
 4997POPC   GL264886  15.766   1.220   5.809
 4997POPC   C1A64887  16.062   1.263   6.224
 4997POPC   D2A64888  15.834   1.282   6.604
 4997POPC   C3A64889  16.008   1.234   6.973
 4997POPC   C4A64890  16.343   1.084   7.184
 4997POPC   C1B64891  15.562   1.342   6.182
 4997POPC   C2B64892  15.363   1.477   6.602
 4997POPC   C3B64893  15.412   1.525   7.050
 4997POPC   C4B64894  15.695   1.333   7.346
 4998POPC   NC364895  23.485  10.436   5.319
 4998POPC   PO464896  22.854  10.596   5.386
 4998POPC   GL164897  22.909  10.612   5.842
 4998POPC   GL264898  23.266  10.661   5.777
 4998POPC   C1A64899  22.658  10.520   6.255
 4998POPC   D2A64900  22.682  10.363   6.680
 4998POPC   C3A64901  22.765  10.610   7.058
 4998POPC   C4A64902  22.829  10.474   7.490
 4998POPC   C1B64903  23.279  10.716   6.231
 4998POPC   C2B64904  23.162  10.590   6.659
 4998POPC   C3B64905  23.283  10.635   7.104
 4998POPC   C4B64906  23.290  10.594   7.573
 4999POPC   NC364907  21.994  32.604   5.178
 4999POPC   PO464908  22.107  31.933   5.207
 4999POPC   GL164909  22.169  31.910   5.670
 4999POPC   GL264910  22.487  32.027   5.832
 4999POPC   C1A64911  21.924  32.037   6.060
 4999POPC   D2A64912  21.867  32.420   6.362
 4999POPC   C3A64913  21.934  32.380   6.821
 4999POPC   C4A64914  22.043  32.297   7.244
 4999POPC   C1B64915  22.355  32.301   6.218
 4999POPC   C2B64916  22.421  32.204   6.664
 4999POPC   C3B64917  22.494  32.455   7.028
 4999POPC   C4B64918  22.485  32.434   7.505
 5000POPC   NC364919  21.286  19.139   5.296
 5000POPC   PO464920  21.873  18.843   5.212
 5000POPC   GL164921  21.576  19.096   5.688
 5000POPC   GL264922  21.244  18.994   5.788
 5000POPC   C1A64923  21.523  19.129   6.195
 5000POPC   D2A64924  21.184  19.274   6.511
 5000POPC   C3A64925  21.076  19.225   6.927
 5000POPC   C4A64926  21.275  19.143   7.318
 5000POPC   C1B64927  21.091  18.844   6.179
 5000POPC   C2B64928  21.343  18.777   6.573
 5000POPC   C3B64929  21.246  18.743   6.995
 5000POPC   C4B64930  21.328  18.645   7.415
 5001POPC   NC364931  14.842  26.384   5.568
 5001POPC   PO464932  15.179  26.941   5.481
 5001POPC   GL164933  15.116  26.733   5.835
 5001POPC   GL264934  15.300  26.408   5.870
 5001POPC   C1A64935  14.894  26.874   6.177
 5001POPC   D2A64936  15.081  26.915   6.554
 5001POPC   C3A64937  14.954  26.956   6.917
 5001POPC   C4A64938  15.172  27.210   7.208
 5001POPC   C1B64939  15.024  26.401   6.249
 5001POPC   C2B64940  14.845  26.492   6.684
 5001POPC   C3B64941  15.047  26.488   7.119
 5001POPC   C4B64942  15.379  26.331   7.429
 5002POPC   NC364943  34.696  12.352   5.181
 5002POPC   PO464944  34.562  11.700   5.316
 5002POPC   GL164945  34.646  12.056   5.619
 5002POPC   GL264946  34.887  12.332   5.662
 5002POPC   C1A64947  34.645  12.113   6.083
 5002POPC   D2A64948  34.611  11.860   6.475
 5002POPC   C3A64949  34.582  12.122   6.840
 5002POPC   C4A64950  34.488  12.061   7.251
 5002POPC   C1B64951  35.123  12.287   6.068
 5002POPC   C2B64952  34.976  12.235   6.495
 5002POPC   C3B64953  35.048  12.324   6.922
 5002POPC   C4B64954  34.898  12.310   7.384
 5003POPC   NC364955  41.232  35.530   5.637
 5003POPC   PO464956  41.420  36.106   5.412
 5003POPC   GL164957  41.440  35.978   5.847
 5003POPC   GL264958  41.685  35.703   5.856
 5003POPC   C1A64959  41.575  36.230   6.221
 5003POPC   D2A64960  41.489  36.493   6.568
 5003POPC   C3A64961  41.607  36.371   6.977
 5003POPC   C4A64962  41.432  36.221   7.338
 5003POPC   C1B64963  41.546  35.736   6.306
 5003POPC   C2B64964  41.657  35.934   6.704
 5003POPC   C3B64965  41.622  35.799   7.143
 5003POPC   C4B64966  41.778  35.770   7.595
 5004POPC   NC364967  20.494  35.132   5.065
 5004POPC   PO464968  20.757  35.715   5.269
 5004POPC   GL164969  20.632  35.422   5.664
 5004POPC   GL264970  20.906  35.266   5.831
 5004POPC   C1A64971  20.503  35.287   6.131
 5004POPC   D2A64972  20.481  35.622   6.487
 5004POPC   C3A64973  20.525  35.506   6.946
 5004POPC   C4A64974  20.507  35.157   7.240
 5004POPC   C1B64975  20.928  35.534   6.180
 5004POPC   C2B64976  20.959  35.388   6.594
 5004POPC   C3B64977  21.041  35.535   7.008
 5004POPC   C4B64978  20.878  35.437   7.433
 5005POPC   NC364979   1.606  16.028   5.366
 5005POPC   PO464980   1.063  15.635   5.351
 5005POPC   GL164981   1.179  15.913   5.742
 5005POPC   GL264982   0.945  16.208   5.858
 5005POPC   C1A64983   1.332  15.886   6.215
 5005POPC   D2A64984   1.124  16.129   6.577
 5005POPC   C3A64985   1.191  15.902   6.969
 5005POPC   C4A64986   1.519  15.578   7.090
 5005POPC   C1B64987   0.849  15.915   6.171
 5005POPC   C2B64988   0.915  15.674   6.539
 5005POPC   C3B64989   0.724  15.671   6.924
 5005POPC   C4B64990   0.721  15.963   7.208
 5006POPC   NC364991  12.573   5.583   5.191
 5006POPC   PO464992  12.953   5.023   5.415
 5006POPC   GL164993  12.962   5.125   5.790
 5006POPC   GL264994  12.614   5.179   5.786
 5006POPC   C1A64995  12.871   5.041   6.194
 5006POPC   D2A64996  12.943   5.209   6.565
 5006POPC   C3A64997  12.885   4.995   6.888
 5006POPC   C4A64998  13.092   5.174   7.191
 5006POPC   C1B64999  12.521   5.458   6.165
 5006POPC   C2B65000  12.569   5.540   6.620
 5006POPC   C3B65001  12.570   5.365   7.063
 5006POPC   C4B65002  12.709   5.433   7.485
 5007POPC   NC365003  17.355   3.804   5.386
 5007POPC   PO465004  17.826   3.318   5.210
 5007POPC   GL165005  17.893   3.537   5.715
 5007POPC   GL265006  17.664   3.825   5.781
 5007POPC   C1A65007  17.644   3.488   6.165
 5007POPC   D2A65008  17.385   3.453   6.571
 5007POPC   C3A65009  17.455   3.518   7.040
 5007POPC   C4A65010  17.409   3.325   7.445
 5007POPC   C1B65011  17.497   3.973   6.208
 5007POPC   C2B65012  17.247   3.943   6.600
 5007POPC   C3B65013  17.125   3.906   7.026
 5007POPC   C4B65014  17.541   4.014   7.189
 5008POPC   NC365015  10.674   2.756   5.358
 5008POPC   PO465016  11.072   2.308   5.584
 5008POPC   GL165017  10.756   2.609   5.828
 5008POPC   GL265018  10.762   3.017   5.827
 5008POPC   C1A65019  10.676   2.703   6.241
 5008POPC   D2A65020  10.934   2.711   6.572
 5008POPC   C3A65021  10.807   2.472   6.932
 5008POPC   C4A65022  10.553   2.628   7.265
 5008POPC   C1B65023  10.502   3.209   6.188
 5008POPC   C2B65024  10.354   2.984   6.550
 5008POPC   C3B65025  10.347   2.992   6.986
 5008POPC   C4B65026  10.425   3.085   7.441
 5009POPC   NC365027  24.080  40.821   4.898
 5009POPC   PO465028  23.789  40.960   5.525
 5009POPC   GL165029  24.191  40.841   5.821
 5009POPC   GL265030  24.553  40.998   5.835
 5009POPC   C1A65031  24.391  40.718   6.237
 5009POPC   D2A65032  24.242  40.552   6.629
 5009POPC   C3A65033  24.277  40.765   7.026
 5009POPC   C4A65034  24.232  41.054   7.372
 5009POPC   C1B65035  24.706  41.146   6.253
 5009POPC   C2B65036  24.744  40.972   6.662
 5009POPC   C3B65037  24.752  40.874   7.085
 5009POPC   C4B65038  24.746  41.092   7.467
 5010POPC   NC365039   0.680  10.227   5.554
 5010POPC   PO465040   0.112   9.913   5.404
 5010POPC   GL165041   0.425   9.815   5.746
 5010POPC   GL265042   0.383  10.121   5.952
 5010POPC   C1A65043   0.672   9.755   6.147
 5010POPC   D2A65044   0.489   9.901   6.548
 5010POPC   C3A65045   0.686   9.757   6.913
 5010POPC   C4A65046   0.519   9.571   7.263
 5010POPC   C1B65047   0.286  10.374   6.326
 5010POPC   C2B65048   0.151  10.247   6.737
 5010POPC   C3B65049   0.278   9.999   7.055
 5010POPC   C4B65050   0.356  10.003   7.523
 5011POPC   NC365051  24.896  43.567   5.632
 5011POPC   PO465052  24.606  44.132   5.337
 5011POPC   GL165053  24.494  43.861   5.708
 5011POPC   GL265054  24.169  43.706   5.798
 5011POPC   C1A65055  24.534  43.759   6.163
 5011POPC   D2A65056  24.360  43.710   6.579
 5011POPC   C3A65057  24.624  43.866   6.905
 5011POPC   C4A65058  24.968  43.622   7.039
 5011POPC   C1B65059  24.072  43.965   6.209
 5011POPC   C2B65060  24.024  44.093   6.662
 5011POPC   C3B65061  24.120  43.865   7.068
 5011POPC   C4B65062  24.158  43.941   7.552
 5012POPC   NC365063  31.597   5.904   5.240
 5012POPC   PO465064  31.118   5.482   5.298
 5012POPC   GL165065  31.270   5.800   5.653
 5012POPC   GL265066  31.614   5.932   5.745
 5012POPC   C1A65067  31.269   5.898   6.122
 5012POPC   D2A65068  31.508   5.912   6.522
 5012POPC   C3A65069  31.294   5.833   6.927
 5012POPC   C4A65070  31.216   6.073   7.298
 5012POPC   C1B65071  31.741   5.681   6.113
 5012POPC   C2B65072  31.977   5.725   6.537
 5012POPC   C3B65073  31.797   5.676   6.958
 5012POPC   C4B65074  31.681   5.923   7.318
 5013POPC   NC365075   1.849  44.990   5.527
 5013POPC   PO465076   1.902  44.357   5.433
 5013POPC   GL165077   1.852  44.564   5.830
 5013POPC   GL265078   1.509  44.478   5.827
 5013POPC   C1A65079   2.062  44.744   6.239
 5013POPC   D2A65080   2.170  44.922   6.670
 5013POPC   C3A65081   2.298  44.736   7.077
 5013POPC   C4A65082   2.142  44.802   7.524
 5013POPC   C1B65083   1.592  44.546   6.281
 5013POPC   C2B65084   1.855  44.504   6.654
 5013POPC   C3B65085   1.805  44.713   7.043
 5013POPC   C4B65086   1.716  44.553   7.443
 5014POPC   NC365087   4.944   6.776   5.459
 5014POPC   PO465088   5.153   6.221   5.607
 5014POPC   GL165089   5.008   6.500   5.940
 5014POPC   GL265090   5.059   6.856   5.939
 5014POPC   C1A65091   5.258   6.561   6.338
 5014POPC   D2A65092   5.419   6.679   6.759
 5014POPC   C3A65093   5.020   6.717   7.013
 5014POPC   C4A65094   4.608   6.509   7.091
 5014POPC   C1B65095   4.883   6.974   6.308
 5014POPC   C2B65096   4.735   7.290   6.583
 5014POPC   C3B65097   4.755   7.156   7.009
 5014POPC   C4B65098   4.830   7.004   7.426
 5015POPC   NC365099  36.018  18.626   5.577
 5015POPC   PO465100  36.265  17.995   5.470
 5015POPC   GL165101  36.332  18.264   5.845
 5015POPC   GL265102  36.404  18.633   5.937
 5015POPC   C1A65103  36.034  18.308   6.194
 5015POPC   D2A65104  35.836  17.953   6.419
 5015POPC   C3A65105  35.840  18.039   6.845
 5015POPC   C4A65106  35.857  18.254   7.228
 5015POPC   C1B65107  36.060  18.861   6.209
 5015POPC   C2B65108  35.798  18.886   6.606
 5015POPC   C3B65109  36.026  18.700   6.984
 5015POPC   C4B65110  36.350  18.415   7.193
 5016POPC   NC365111  17.110   1.214   5.370
 5016POPC   PO465112  17.703   0.969   5.456
 5016POPC   GL165113  17.393   1.077   5.788
 5016POPC   GL265114  17.317   1.451   5.781
 5016POPC   C1A65115  17.348   0.895   6.212
 5016POPC   D2A65116  17.338   1.020   6.630
 5016POPC   C3A65117  17.675   1.029   6.934
 5016POPC   C4A65118  17.597   1.056   7.365
 5016POPC   C1B65119  17.382   1.563   6.241
 5016POPC   C2B65120  17.509   1.503   6.705
 5016POPC   C3B65121  17.311   1.395   7.120
 5016POPC   C4B65122  17.393   1.472   7.580
 5017POPC   NC365123  31.229  40.890   5.094
 5017POPC   PO465124  30.513  41.004   5.165
 5017POPC   GL165125  30.527  40.861   5.658
 5017POPC   GL265126  30.769  40.648   5.892
 5017POPC   C1A65127  30.430  40.968   6.107
 5017POPC   D2A65128  30.602  40.936   6.523
 5017POPC   C3A65129  30.401  40.841   6.878
 5017POPC   C4A65130  30.660  40.695   7.198
 5017POPC   C1B65131  30.947  41.012   6.157
 5017POPC   C2B65132  31.044  41.210   6.576
 5017POPC   C3B65133  30.840  41.147   7.003
 5017POPC   C4B65134  30.832  41.093   7.499
 5018POPC   NC365135  18.112  37.437   5.400
 5018POPC   PO465136  17.988  38.097   5.411
 5018POPC   GL165137  17.956  37.833   5.832
 5018POPC   GL265138  17.968  37.481   5.865
 5018POPC   C1A65139  18.163  37.693   6.273
 5018POPC   D2A65140  18.564  37.697   6.525
 5018POPC   C3A65141  18.604  37.942   6.917
 5018POPC   C4A65142  18.469  37.753   7.294
 5018POPC   C1B65143  17.865  37.154   6.120
 5018POPC   C2B65144  17.920  37.227   6.549
 5018POPC   C3B65145  17.960  37.627   6.773
 5018POPC   C4B65146  17.980  37.631   7.226
 5019POPC   NC365147  37.266   7.521   5.344
 5019POPC   PO465148  36.723   7.265   5.530
 5019POPC   GL165149  36.879   7.323   5.890
 5019POPC   GL265150  37.131   7.047   5.860
 5019POPC   C1A65151  36.713   7.555   6.269
 5019POPC   D2A65152  36.577   7.716   6.671
 5019POPC   C3A65153  36.740   7.534   7.057
 5019POPC   C4A65154  36.955   7.765   7.392
 5019POPC   C1B65155  37.104   7.207   6.310
 5019POPC   C2B65156  37.105   7.447   6.684
 5019POPC   C3B65157  37.208   7.340   7.088
 5019POPC   C4B65158  36.942   7.038   7.215
 5020POPC   NC365159  28.042  33.245   5.498
 5020POPC   PO465160  28.617  32.752   5.529
 5020POPC   GL165161  28.334  32.915   5.794
 5020POPC   GL265162  28.447  33.232   5.810
 5020POPC   C1A65163  28.082  32.986   6.159
 5020POPC   D2A65164  27.968  32.827   6.556
 5020POPC   C3A65165  28.234  32.956   6.883
 5020POPC   C4A65166  28.158  33.128   7.265
 5020POPC   C1B65167  28.620  33.085   6.189
 5020POPC   C2B65168  28.642  33.253   6.606
 5020POPC   C3B65169  28.685  33.181   7.037
 5020POPC   C4B65170  28.609  32.796   7.240
 5021POPC   NC365171  16.639   9.414   5.482
 5021POPC   PO465172  16.900  10.065   5.478
 5021POPC   GL165173  16.740   9.805   5.813
 5021POPC   GL265174  16.976   9.535   5.852
 5021POPC   C1A65175  16.458   9.730   6.209
 5021POPC   D2A65176  16.345   9.845   6.669
 5021POPC   C3A65177  16.590   9.679   7.039
 5021POPC   C4A65178  16.615   9.400   7.405
 5021POPC   C1B65179  16.960   9.718   6.259
 5021POPC   C2B65180  16.965   9.691   6.684
 5021POPC   C3B65181  17.103   9.753   7.087
 5021POPC   C4B65182  17.022   9.710   7.536
 5022POPC   NC365183  44.444  42.009   5.551
 5022POPC   PO465184   0.016  42.335   5.403
 5022POPC   GL165185  44.801  42.448   5.798
 5022POPC   GL265186  44.437  42.324   5.931
 5022POPC   C1A65187  44.847  42.361   6.226
 5022POPC   D2A65188  44.768  42.473   6.623
 5022POPC   C3A65189   0.044  42.248   6.837
 5022POPC   C4A65190   0.020  42.114   7.228
 5022POPC   C1B65191  44.153  42.596   6.166
 5022POPC   C2B65192  44.162  42.815   6.558
 5022POPC   C3B65193  44.358  42.687   6.926
 5022POPC   C4B65194  44.575  42.324   7.109
 5023POPC   NC365195   3.192  12.484   5.300
 5023POPC   PO465196   2.751  11.973   5.482
 5023POPC   GL165197   2.838  12.030   5.865
 5023POPC   GL265198   3.128  12.241   5.780
 5023POPC   C1A65199   2.728  11.935   6.291
 5023POPC   D2A65200   2.747  11.949   6.734
 5023POPC   C3A65201   2.502  12.111   7.001
 5023POPC   C4A65202   2.735  12.052   7.367
 5023POPC   C1B65203   3.274  12.364   6.186
 5023POPC   C2B65204   3.159  12.219   6.597
 5023POPC   C3B65205   2.989  12.345   7.019
 5023POPC   C4B65206   3.079  12.538   7.451
 5024POPC   NC365207  25.768   3.066   5.430
 5024POPC   PO465208  25.942   2.438   5.620
 5024POPC   GL165209  26.276   2.658   5.771
 5024POPC   GL265210  26.014   2.871   5.914
 5024POPC   C1A65211  26.377   2.592   6.189
 5024POPC   D2A65212  26.088   2.636   6.526
 5024POPC   C3A65213  26.163   2.802   6.933
 5024POPC   C4A65214  25.970   2.531   7.217
 5024POPC   C1B65215  25.891   3.055   6.308
 5024POPC   C2B65216  25.704   2.938   6.709
 5024POPC   C3B65217  25.748   3.044   7.128
 5024POPC   C4B65218  26.096   3.256   7.243
 5025POPC   NC365219  10.401  26.653   5.628
 5025POPC   PO465220  11.005  26.655   5.233
 5025POPC   GL165221  10.828  26.879   5.704
 5025POPC   GL265222  10.815  26.674   5.984
 5025POPC   C1A65223  10.502  26.970   6.186
 5025POPC   D2A65224  10.436  27.126   6.575
 5025POPC   C3A65225  10.691  26.957   6.863
 5025POPC   C4A65226  10.446  26.986   7.221
 5025POPC   C1B65227  10.533  26.435   6.273
 5025POPC   C2B65228  10.444  26.491   6.706
 5025POPC   C3B65229  10.597  26.495   7.120
 5025POPC   C4B65230  10.415  26.562   7.529
 5026POPC   NC365231  39.666  34.909   5.038
 5026POPC   PO465232  40.004  35.512   5.367
 5026POPC   GL165233  39.934  35.502   5.767
 5026POPC   GL265234  39.731  35.235   5.745
 5026POPC   C1A65235  40.026  35.301   6.164
 5026POPC   D2A65236  39.945  35.458   6.556
 5026POPC   C3A65237  40.255  35.550   6.853
 5026POPC   C4A65238  40.000  35.471   7.178
 5026POPC   C1B65239  39.560  35.091   6.141
 5026POPC   C2B65240  39.644  34.946   6.516
 5026POPC   C3B65241  39.638  35.166   6.881
 5026POPC   C4B65242  39.773  35.031   7.261
 5027POPC   NC365243  19.391   0.955   5.550
 5027POPC   PO465244  18.708   1.018   5.370
 5027POPC   GL165245  18.937   0.967   5.774
 5027POPC   GL265246  18.954   1.282   5.883
 5027POPC   C1A65247  19.106   0.923   6.231
 5027POPC   D2A65248  19.037   1.105   6.585
 5027POPC   C3A65249  19.113   1.193   6.992
 5027POPC   C4A65250  18.949   1.156   7.408
 5027POPC   C1B65251  19.195   1.449   6.217
 5027POPC   C2B65252  19.137   1.615   6.621
 5027POPC   C3B65253  19.385   1.628   6.965
 5027POPC   C4B65254  19.348   1.479   7.399
 5028POPC   NC365255  14.589   7.752   5.370
 5028POPC   PO465256  14.150   7.373   5.142
 5028POPC   GL165257  14.152   7.574   5.640
 5028POPC   GL265258  14.310   7.914   5.792
 5028POPC   C1A65259  14.271   7.520   6.134
 5028POPC   D2A65260  14.185   7.467   6.606
 5028POPC   C3A65261  14.460   7.227   6.850
 5028POPC   C4A65262  14.683   7.141   7.215
 5028POPC   C1B65263  14.518   7.945   6.221
 5028POPC   C2B65264  14.669   7.633   6.531
 5028POPC   C3B65265  14.657   7.674   6.967
 5028POPC   C4B65266  14.436   7.603   7.340
 5029POPC   NC365267  13.062  34.863   5.351
 5029POPC   PO465268  12.437  34.671   5.452
 5029POPC   GL165269  12.822  34.651   5.757
 5029POPC   GL265270  12.984  34.984   5.834
 5029POPC   C1A65271  12.990  34.579   6.206
 5029POPC   D2A65272  13.053  34.536   6.679
 5029POPC   C3A65273  12.707  34.633   7.011
 5029POPC   C4A65274  12.751  34.549   7.463
 5029POPC   C1B65275  12.652  34.947   6.131
 5029POPC   C2B65276  12.882  34.998   6.525
 5029POPC   C3B65277  13.070  34.977   6.931
 5029POPC   C4B65278  13.030  35.157   7.312
 5030POPC   NC365279  30.870  27.846   5.519
 5030POPC   PO465280  30.777  27.178   5.380
 5030POPC   GL165281  30.721  27.396   5.770
 5030POPC   GL265282  30.402  27.245   5.852
 5030POPC   C1A65283  30.803  27.693   6.157
 5030POPC   D2A65284  30.614  27.910   6.531
 5030POPC   C3A65285  30.776  27.873   6.968
 5030POPC   C4A65286  31.024  27.867   7.339
 5030POPC   C1B65287  30.616  27.213   6.238
 5030POPC   C2B65288  30.633  27.416   6.620
 5030POPC   C3B65289  30.545  27.379   7.037
 5030POPC   C4B65290  30.852  27.382   7.342
 5031POPC   NC365291  18.885  40.094   5.463
 5031POPC   PO465292  19.576  39.746   5.492
 5031POPC   GL165293  19.275  40.026   5.797
 5031POPC   GL265294  18.981  39.789   5.872
 5031POPC   C1A65295  19.011  40.135   6.198
 5031POPC   D2A65296  18.993  39.840   6.548
 5031POPC   C3A65297  19.157  39.979   6.910
 5031POPC   C4A65298  19.343  39.719   7.195
 5031POPC   C1B65299  18.616  39.803   6.212
 5031POPC   C2B65300  18.495  39.992   6.624
 5031POPC   C3B65301  18.656  40.028   7.063
 5031POPC   C4B65302  18.976  40.019   7.396
 5032POPC   NC365303  28.873  24.640   5.353
 5032POPC   PO465304  29.204  24.102   5.155
 5032POPC   GL165305  29.131  24.265   5.645
 5032POPC   GL265306  29.225  24.616   5.727
 5032POPC   C1A65307  29.256  24.266   6.126
 5032POPC   D2A65308  29.321  24.420   6.576
 5032POPC   C3A65309  28.952  24.286   6.847
 5032POPC   C4A65310  28.809  24.129   7.287
 5032POPC   C1B65311  28.887  24.655   6.036
 5032POPC   C2B65312  28.875  24.663   6.476
 5032POPC   C3B65313  29.071  24.783   6.877
 5032POPC   C4B65314  28.896  25.020   7.192
 5033POPC   NC365315  39.811  26.964   5.191
 5033POPC   PO465316  40.304  26.557   5.342
 5033POPC   GL165317  40.115  26.545   5.724
 5033POPC   GL265318  39.848  26.804   5.693
 5033POPC   C1A65319  40.088  26.653   6.144
 5033POPC   D2A65320  39.983  26.517   6.541
 5033POPC   C3A65321  40.137  26.794   6.860
 5033POPC   C4A65322  40.076  26.596   7.248
 5033POPC   C1B65323  39.739  27.105   6.025
 5033POPC   C2B65324  39.779  27.199   6.479
 5033POPC   C3B65325  39.642  27.179   6.928
 5033POPC   C4B65326  39.924  27.101   7.267
 5034POPC   NC365327  13.623  35.115   5.276
 5034POPC   PO465328  13.403  34.610   5.203
 5034POPC   GL165329  13.459  34.766   5.649
 5034POPC   GL265330  13.800  34.887   5.721
 5034POPC   C1A65331  13.450  34.790   6.115
 5034POPC   D2A65332  13.566  34.913   6.561
 5034POPC   C3A65333  13.505  34.656   6.943
 5034POPC   C4A65334  13.223  34.643   7.290
 5034POPC   C1B65335  13.900  35.063   6.157
 5034POPC   C2B65336  14.085  34.994   6.598
 5034POPC   C3B65337  14.008  34.831   7.051
 5034POPC   C4B65338  14.220  34.670   7.476
 5035POPC   NC365339  35.142  24.907   5.379
 5035POPC   PO465340  35.572  24.279   5.467
 5035POPC   GL165341  35.389  24.353   5.849
 5035POPC   GL265342  35.219  24.655   5.813
 5035POPC   C1A65343  35.441  24.479   6.268
 5035POPC   D2A65344  35.705  24.553   6.592
 5035POPC   C3A65345  35.505  24.596   6.935
 5035POPC   C4A65346  35.460  24.371   7.273
 5035POPC   C1B65347  35.025  24.815   6.176
 5035POPC   C2B65348  35.187  24.807   6.583
 5035POPC   C3B65349  35.135  25.014   6.947
 5035POPC   C4B65350  35.339  24.901   7.309
 5036POPC   NC365351  12.358  37.206   5.466
 5036POPC   PO465352  12.531  36.583   5.510
 5036POPC   GL165353  12.312  36.723   5.885
 5036POPC   GL265354  12.045  36.876   5.731
 5036POPC   C1A65355  12.283  36.931   6.307
 5036POPC   D2A65356  12.231  37.045   6.756
 5036POPC   C3A65357  12.218  36.687   7.015
 5036POPC   C4A65358  12.553  36.729   7.278
 5036POPC   C1B65359  11.821  36.774   6.129
 5036POPC   C2B65360  11.887  36.696   6.566
 5036POPC   C3B65361  11.753  36.900   6.941
 5036POPC   C4B65362  11.876  36.836   7.352
 5037POPC   NC365363   9.359  35.833   5.420
 5037POPC   PO465364   8.966  35.323   5.244
 5037POPC   GL165365   9.143  35.291   5.654
 5037POPC   GL265366   8.839  35.156   5.852
 5037POPC   C1A65367   9.112  35.552   6.032
 5037POPC   D2A65368   8.804  35.690   6.385
 5037POPC   C3A65369   8.920  35.689   6.845
 5037POPC   C4A65370   9.028  35.522   7.240
 5037POPC   C1B65371   8.896  35.179   6.335
 5037POPC   C2B65372   8.963  35.193   6.792
 5037POPC   C3B65373   8.923  35.021   7.213
 5037POPC   C4B65374   8.757  34.982   7.643
 5038POPC   NC365375   0.449   5.496   5.336
 5038POPC   PO465376   0.147   4.785   5.337
 5038POPC   GL165377   0.330   4.988   5.708
 5038POPC   GL265378   0.445   5.324   5.816
 5038POPC   C1A65379   0.287   5.033   6.192
 5038POPC   D2A65380   0.295   5.331   6.579
 5038POPC   C3A65381   0.349   5.119   6.982
 5038POPC   C4A65382   0.219   4.772   7.258
 5038POPC   C1B65383   0.702   5.308   6.221
 5038POPC   C2B65384   0.786   5.353   6.659
 5038POPC   C3B65385   0.776   5.387   7.085
 5038POPC   C4B65386   1.011   5.240   7.398
 5039POPC   NC365387  19.228  25.796   5.414
 5039POPC   PO465388  18.893  26.373   5.401
 5039POPC   GL165389  19.007  26.211   5.808
 5039POPC   GL265390  19.335  26.138   5.810
 5039POPC   C1A65391  19.128  26.297   6.275
 5039POPC   D2A65392  19.285  26.224   6.719
 5039POPC   C3A65393  19.033  26.160   7.092
 5039POPC   C4A65394  18.627  26.094   7.305
 5039POPC   C1B65395  19.233  25.818   6.092
 5039POPC   C2B65396  19.039  25.725   6.481
 5039POPC   C3B65397  19.256  25.746   6.848
 5039POPC   C4B65398  19.491  25.877   7.167
 5040POPC   NC365399  16.770  18.062   5.405
 5040POPC   PO465400  16.369  18.682   5.360
 5040POPC   GL165401  16.459  18.386   5.695
 5040POPC   GL265402  16.810  18.344   5.807
 5040POPC   C1A65403  16.369  18.314   6.140
 5040POPC   D2A65404  16.323  18.112   6.537
 5040POPC   C3A65405  16.416  18.075   6.973
 5040POPC   C4A65406  16.792  18.125   7.224
 5040POPC   C1B65407  16.874  18.434   6.210
 5040POPC   C2B65408  16.807  18.318   6.627
 5040POPC   C3B65409  16.953  18.591   6.919
 5040POPC   C4B65410  17.064  18.542   7.320
 5041POPC   NC365411  23.380  28.556   5.390
 5041POPC   PO465412  22.725  28.301   5.219
 5041POPC   GL165413  22.973  28.305   5.581
 5041POPC   GL265414  22.904  28.643   5.615
 5041POPC   C1A65415  22.922  28.214   6.033
 5041POPC   D2A65416  22.747  28.294   6.489
 5041POPC   C3A65417  22.950  28.123   6.889
 5041POPC   C4A65418  23.246  28.249   7.213
 5041POPC   C1B65419  22.911  28.747   6.061
 5041POPC   C2B65420  22.934  28.808   6.503
 5041POPC   C3B65421  22.925  28.629   6.900
 5041POPC   C4B65422  23.104  28.717   7.282
 5042POPC   NC365423  35.243  18.101   5.225
 5042POPC   PO465424  35.600  18.646   5.364
 5042POPC   GL165425  35.379  18.497   5.748
 5042POPC   GL265426  35.227  18.154   5.739
 5042POPC   C1A65427  35.579  18.586   6.159
 5042POPC   D2A65428  35.659  18.410   6.548
 5042POPC   C3A65429  35.523  18.529   6.948
 5042POPC   C4A65430  35.346  18.198   7.185
 5042POPC   C1B65431  35.401  18.093   6.188
 5042POPC   C2B65432  35.367  18.001   6.668
 5042POPC   C3B65433  35.133  17.757   6.962
 5042POPC   C4B65434  35.163  17.776   7.408
 5043POPC   NC365435  29.258  33.566   5.435
 5043POPC   PO465436  29.042  34.157   5.555
 5043POPC   GL165437  28.816  34.059   5.875
 5043POPC   GL265438  28.787  33.725   5.726
 5043POPC   C1A65439  29.032  34.064   6.259
 5043POPC   D2A65440  29.328  33.813   6.477
 5043POPC   C3A65441  29.210  33.908   6.854
 5043POPC   C4A65442  29.155  34.058   7.241
 5043POPC   C1B65443  28.799  33.582   6.152
 5043POPC   C2B65444  28.798  33.740   6.581
 5043POPC   C3B65445  28.712  33.952   6.966
 5043POPC   C4B65446  28.689  33.786   7.384
 5044POPC   NC365447  15.793   2.189   5.273
 5044POPC   PO465448  16.428   2.087   5.444
 5044POPC   GL165449  16.076   1.908   5.672
 5044POPC   GL265450  15.785   2.098   5.766
 5044POPC   C1A65451  15.940   1.745   6.094
 5044POPC   D2A65452  16.133   1.723   6.498
 5044POPC   C3A65453  15.866   1.739   6.855
 5044POPC   C4A65454  16.025   1.828   7.245
 5044POPC   C1B65455  15.981   2.257   6.131
 5044POPC   C2B65456  15.863   2.180   6.550
 5044POPC   C3B65457  15.775   2.258   6.976
 5044POPC   C4B65458  15.538   1.982   7.214
 5045POPC   NC365459  15.838   9.132   5.371
 5045POPC   PO465460  15.666   8.512   5.541
 5045POPC   GL165461  15.917   8.768   5.855
 5045POPC   GL265462  15.936   9.127   5.894
 5045POPC   C1A65463  16.026   8.882   6.311
 5045POPC   D2A65464  16.131   8.928   6.737
 5045POPC   C3A65465  15.803   8.834   7.018
 5045POPC   C4A65466  15.492   8.727   7.280
 5045POPC   C1B65467  16.372   9.220   6.142
 5045POPC   C2B65468  16.561   9.358   6.561
 5045POPC   C3B65469  16.555   9.139   6.954
 5045POPC   C4B65470  16.201   9.096   7.235
 5046POPC   NC365471   8.897   7.496   5.415
 5046POPC   PO465472   8.704   7.944   5.810
 5046POPC   GL165473   8.766   7.517   5.930
 5046POPC   GL265474   9.084   7.367   5.889
 5046POPC   C1A65475   8.824   7.367   6.347
 5046POPC   D2A65476   8.617   7.553   6.695
 5046POPC   C3A65477   8.864   7.493   7.042
 5046POPC   C4A65478   8.865   7.091   7.215
 5046POPC   C1B65479   9.327   7.553   6.249
 5046POPC   C2B65480   9.271   7.565   6.720
 5046POPC   C3B65481   9.364   7.632   7.185
 5046POPC   C4B65482   9.392   7.842   7.610
 5047POPC   NC365483  27.039  27.090   5.518
 5047POPC   PO465484  27.745  26.927   5.301
 5047POPC   GL165485  27.673  26.872   5.724
 5047POPC   GL265486  27.489  27.174   5.790
 5047POPC   C1A65487  27.782  26.682   6.138
 5047POPC   D2A65488  27.607  26.569   6.556
 5047POPC   C3A65489  27.448  26.733   6.946
 5047POPC   C4A65490  27.483  26.776   7.372
 5047POPC   C1B65491  27.789  27.192   6.151
 5047POPC   C2B65492  28.015  26.966   6.481
 5047POPC   C3B65493  27.907  26.974   6.881
 5047POPC   C4B65494  28.012  27.271   7.193
 5048POPC   NC365495  15.196  35.548   5.463
 5048POPC   PO465496  14.765  35.037   5.431
 5048POPC   GL165497  14.961  35.267   5.839
 5048POPC   GL265498  15.207  35.556   5.959
 5048POPC   C1A65499  14.766  35.543   6.197
 5048POPC   D2A65500  14.950  35.757   6.510
 5048POPC   C3A65501  15.121  35.568   6.899
 5048POPC   C4A65502  14.909  35.205   7.087
 5048POPC   C1B65503  15.409  35.553   6.354
 5048POPC   C2B65504  15.588  35.334   6.693
 5048POPC   C3B65505  15.435  35.193   7.080
 5048POPC   C4B65506  15.395  35.454   7.412
 5049POPC   NC365507  14.735   3.923   5.115
 5049POPC   PO465508  15.222   3.517   5.338
 5049POPC   GL165509  15.149   3.488   5.780
 5049POPC   GL265510  15.084   3.119   5.760
 5049POPC   C1A65511  15.287   3.680   6.182
 5049POPC   D2A65512  15.242   3.446   6.574
 5049POPC   C3A65513  15.343   3.672   6.934
 5049POPC   C4A65514  15.196   3.635   7.333
 5049POPC   C1B65515  15.011   3.173   6.190
 5049POPC   C2B65516  14.720   3.201   6.546
 5049POPC   C3B65517  14.867   3.357   6.928
 5049POPC   C4B65518  15.227   3.187   7.076
 5050POPC   NC365519  12.447  42.882   5.143
 5050POPC   PO465520  12.917  43.363   5.343
 5050POPC   GL165521  12.942  43.337   5.809
 5050POPC   GL265522  12.946  43.016   5.995
 5050POPC   C1A65523  12.876  43.524   6.254
 5050POPC   D2A65524  12.988  43.353   6.675
 5050POPC   C3A65525  12.676  43.170   6.948
 5050POPC   C4A65526  12.461  43.338   7.285
 5050POPC   C1B65527  13.296  43.258   6.169
 5050POPC   C2B65528  13.472  43.411   6.541
 5050POPC   C3B65529  13.425  43.216   6.931
 5050POPC   C4B65530  13.230  43.071   7.290
 5051POPC   NC365531   7.392  27.161   5.566
 5051POPC   PO465532   7.491  26.494   5.540
 5051POPC   GL165533   7.455  26.784   5.912
 5051POPC   GL265534   7.759  26.955   5.896
 5051POPC   C1A65535   7.426  27.057   6.305
 5051POPC   D2A65536   7.641  27.008   6.723
 5051POPC   C3A65537   7.459  26.905   7.119
 5051POPC   C4A65538   7.339  26.519   7.347
 5051POPC   C1B65539   7.824  26.747   6.313
 5051POPC   C2B65540   7.905  26.524   6.700
 5051POPC   C3B65541   7.823  26.466   7.134
 5051POPC   C4B65542   7.745  26.298   7.568
 5052POPC   NC365543  20.859   0.085   5.555
 5052POPC   PO465544  20.315   0.221   5.340
 5052POPC   GL165545  20.476   0.338   5.772
 5052POPC   GL265546  20.738   0.599   5.786
 5052POPC   C1A65547  20.588   0.302   6.219
 5052POPC   D2A65548  20.412   0.502   6.595
 5052POPC   C3A65549  20.492   0.257   6.968
 5052POPC   C4A65550  20.706   0.240   7.366
 5052POPC   C1B65551  20.612   0.795   6.191
 5052POPC   C2B65552  20.868   0.780   6.586
 5052POPC   C3B65553  20.849   0.653   7.017
 5052POPC   C4B65554  20.505   0.793   7.255
 5053POPC   NC365555  13.677  23.233   5.485
 5053POPC   PO465556  13.793  23.907   5.415
 5053POPC   GL165557  13.733  23.667   5.776
 5053POPC   GL265558  13.415  23.517   5.844
 5053POPC   C1A65559  13.744  23.655   6.227
 5053POPC   D2A65560  13.649  23.908   6.561
 5053POPC   C3A65561  13.536  23.779   6.940
 5053POPC   C4A65562  13.832  23.826   7.252
 5053POPC   C1B65563  13.356  23.300   6.253
 5053POPC   C2B65564  13.481  23.329   6.684
 5053POPC   C3B65565  13.548  23.295   7.117
 5053POPC   C4B65566  13.367  23.615   7.388
 5054POPC   NC365567  30.866  40.380   5.442
 5054POPC   PO465568  30.997  39.675   5.424
 5054POPC   GL165569  30.869  39.898   5.804
 5054POPC   GL265570  30.565  40.095   5.845
 5054POPC   C1A65571  30.716  39.772   6.234
 5054POPC   D2A65572  30.616  39.876   6.670
 5054POPC   C3A65573  30.714  39.652   7.061
 5054POPC   C4A65574  31.014  39.638   7.420
 5054POPC   C1B65575  30.667  40.294   6.256
 5054POPC   C2B65576  30.591  40.403   6.686
 5054POPC   C3B65577  30.524  40.214   7.055
 5054POPC   C4B65578  30.904  40.141   7.241
 5055POPC   NC365579  20.278  23.876   5.371
 5055POPC   PO465580  20.852  23.550   5.489
 5055POPC   GL165581  20.803  23.688   5.875
 5055POPC   GL265582  20.434  23.721   5.943
 5055POPC   C1A65583  20.878  23.842   6.278
 5055POPC   D2A65584  20.551  23.792   6.582
 5055POPC   C3A65585  20.678  23.676   6.949
 5055POPC   C4A65586  20.422  23.813   7.274
 5055POPC   C1B65587  20.520  23.396   6.263
 5055POPC   C2B65588  20.429  23.255   6.677
 5055POPC   C3B65589  20.360  23.319   7.117
 5055POPC   C4B65590  20.715  23.397   7.378
 5056POPC   NC365591  37.378  30.452   5.346
 5056POPC   PO465592  37.762  30.996   5.453
 5056POPC   GL165593  37.549  30.752   5.788
 5056POPC   GL265594  37.710  30.441   5.781
 5056POPC   C1A65595  37.495  30.553   6.226
 5056POPC   D2A65596  37.468  30.486   6.693
 5056POPC   C3A65597  37.451  30.880   6.986
 5056POPC   C4A65598  37.452  30.900   7.498
 5056POPC   C1B65599  37.964  30.305   6.169
 5056POPC   C2B65600  38.000  30.268   6.635
 5056POPC   C3B65601  37.801  30.317   7.055
 5056POPC   C4B65602  37.393  30.449   7.223
 5057POPC   NC365603  25.089   1.468   5.257
 5057POPC   PO465604  25.451   0.872   5.219
 5057POPC   GL165605  25.429   1.183   5.600
 5057POPC   GL265606  25.120   1.376   5.767
 5057POPC   C1A65607  25.487   1.186   6.070
 5057POPC   D2A65608  25.304   1.017   6.463
 5057POPC   C3A65609  25.455   1.108   6.879
 5057POPC   C4A65610  25.649   1.236   7.276
 5057POPC   C1B65611  24.922   1.223   6.181
 5057POPC   C2B65612  24.643   1.136   6.558
 5057POPC   C3B65613  24.698   0.908   6.951
 5057POPC   C4B65614  25.074   1.014   7.196
 5058POPC   NC365615  11.599  36.558   5.521
 5058POPC   PO465616  11.079  36.953   5.369
 5058POPC   GL165617  11.252  36.904   5.787
 5058POPC   GL265618  11.567  37.037   5.776
 5058POPC   C1A65619  11.259  36.745   6.247
 5058POPC   D2A65620  11.389  36.665   6.652
 5058POPC   C3A65621  11.150  36.643   7.019
 5058POPC   C4A65622  11.381  36.780   7.379
 5058POPC   C1B65623  11.467  37.182   6.164
 5058POPC   C2B65624  11.360  37.190   6.572
 5058POPC   C3B65625  11.304  37.144   7.001
 5058POPC   C4B65626  11.576  37.238   7.337
 5059POPC   NC365627  31.738  30.249   5.446
 5059POPC   PO465628  31.266  30.857   5.495
 5059POPC   GL165629  31.489  30.837   5.860
 5059POPC   GL265630  31.500  30.489   5.911
 5059POPC   C1A65631  31.496  31.046   6.249
 5059POPC   D2A65632  31.294  31.018   6.679
 5059POPC   C3A65633  31.512  30.841   7.066
 5059POPC   C4A65634  31.559  31.004   7.485
 5059POPC   C1B65635  31.285  30.602   6.321
 5059POPC   C2B65636  31.337  30.483   6.738
 5059POPC   C3B65637  31.110  30.520   7.124
 5059POPC   C4B65638  31.141  30.240   7.509
 5060POPC   NC365639  39.196  29.278   5.339
 5060POPC   PO465640  39.590  28.795   5.470
 5060POPC   GL165641  39.460  29.157   5.753
 5060POPC   GL265642  39.082  29.213   5.836
 5060POPC   C1A65643  39.490  29.300   6.163
 5060POPC   D2A65644  39.339  29.089   6.516
 5060POPC   C3A65645  39.470  29.248   6.876
 5060POPC   C4A65646  39.244  29.193   7.225
 5060POPC   C1B65647  38.955  29.339   6.277
 5060POPC   C2B65648  38.995  29.431   6.755
 5060POPC   C3B65649  39.091  29.667   7.177
 5060POPC   C4B65650  39.085  29.448   7.639
 5061POPC   NC365651  39.455   3.735   5.373
 5061POPC   PO465652  38.873   3.287   5.330
 5061POPC   GL165653  39.121   3.294   5.749
 5061POPC   GL265654  39.474   3.436   5.814
 5061POPC   C1A65655  39.180   3.233   6.199
 5061POPC   D2A65656  39.164   3.491   6.586
 5061POPC   C3A65657  39.120   3.302   7.012
 5061POPC   C4A65658  39.175   3.140   7.451
 5061POPC   C1B65659  39.621   3.603   6.226
 5061POPC   C2B65660  39.521   3.847   6.624
 5061POPC   C3B65661  39.243   3.830   6.975
 5061POPC   C4B65662  39.421   3.598   7.314
 5062POPC   NC365663  44.447  26.206   5.217
 5062POPC   PO465664  44.942  25.777   5.201
 5062POPC   GL165665  44.776  25.875   5.667
 5062POPC   GL265666  44.729  26.246   5.755
 5062POPC   C1A65667  44.780  25.880   6.162
 5062POPC   D2A65668  44.980  26.046   6.578
 5062POPC   C3A65669  44.718  25.919   6.937
 5062POPC   C4A65670  44.855  25.570   7.184
 5062POPC   C1B65671  44.689  26.404   6.211
 5062POPC   C2B65672  44.523  26.280   6.624
 5062POPC   C3B65673  44.504  26.446   7.047
 5062POPC   C4B65674  44.437  26.376   7.485
 5063POPC   NC365675  34.408  15.909   5.283
 5063POPC   PO465676  34.338  16.585   5.437
 5063POPC   GL165677  34.355  16.190   5.743
 5063POPC   GL265678  34.585  15.853   5.752
 5063POPC   C1A65679  34.361  16.226   6.199
 5063POPC   D2A65680  34.466  15.963   6.560
 5063POPC   C3A65681  34.357  16.146   6.942
 5063POPC   C4A65682  34.377  15.940   7.303
 5063POPC   C1B65683  34.795  15.956   6.150
 5063POPC   C2B65684  34.988  16.105   6.535
 5063POPC   C3B65685  34.854  16.048   6.941
 5063POPC   C4B65686  34.895  16.312   7.294
 5064POPC   NC365687  27.770  34.823   5.434
 5064POPC   PO465688  27.342  34.250   5.374
 5064POPC   GL165689  27.571  34.420   5.703
 5064POPC   GL265690  27.796  34.204   5.841
 5064POPC   C1A65691  27.530  34.619   6.101
 5064POPC   D2A65692  27.541  34.816   6.507
 5064POPC   C3A65693  27.716  34.705   6.903
 5064POPC   C4A65694  27.521  34.798   7.317
 5064POPC   C1B65695  27.912  34.330   6.278
 5064POPC   C2B65696  27.985  34.290   6.718
 5064POPC   C3B65697  27.725  34.220   7.060
 5064POPC   C4B65698  27.492  34.318   7.442
 5065POPC   NC365699  37.832  38.951   5.483
 5065POPC   PO465700  37.494  39.529   5.674
 5065POPC   GL165701  37.392  39.321   6.016
 5065POPC   GL265702  37.508  39.000   5.890
 5065POPC   C1A65703  37.457  39.461   6.441
 5065POPC   D2A65704  37.869  39.662   6.515
 5065POPC   C3A65705  38.056  39.579   6.898
 5065POPC   C4A65706  37.786  39.412   7.220
 5065POPC   C1B65707  37.782  39.072   6.270
 5065POPC   C2B65708  37.806  39.166   6.731
 5065POPC   C3B65709  37.584  38.973   7.082
 5065POPC   C4B65710  37.540  38.940   7.542
 5066POPC   NC365711   8.972  18.500   5.435
 5066POPC   PO465712   9.281  18.028   5.066
 5066POPC   GL165713   9.194  18.061   5.532
 5066POPC   GL265714   8.824  18.035   5.607
 5066POPC   C1A65715   9.198  18.132   5.992
 5066POPC   D2A65716   8.998  18.368   6.346
 5066POPC   C3A65717   9.127  18.248   6.774
 5066POPC   C4A65718   9.050  18.334   7.210
 5066POPC   C1B65719   8.686  18.022   6.054
 5066POPC   C2B65720   8.604  18.057   6.500
 5066POPC   C3B65721   8.619  18.381   6.812
 5066POPC   C4B65722   8.544  18.345   7.231
 5067POPC   NC365723  40.294  30.117   5.460
 5067POPC   PO465724  40.094  29.547   5.398
 5067POPC   GL165725  39.795  29.643   5.726
 5067POPC   GL265726  39.826  30.016   5.704
 5067POPC   C1A65727  39.771  29.784   6.192
 5067POPC   D2A65728  40.092  29.925   6.535
 5067POPC   C3A65729  40.007  29.737   6.963
 5067POPC   C4A65730  39.740  29.476   7.240
 5067POPC   C1B65731  40.035  30.209   6.087
 5067POPC   C2B65732  40.010  30.438   6.492
 5067POPC   C3B65733  40.055  30.299   6.915
 5067POPC   C4B65734  39.953  30.127   7.304
 5068POPC   NC365735   4.435  19.407   5.228
 5068POPC   PO465736   4.397  20.134   5.233
 5068POPC   GL165737   4.395  20.157   5.703
 5068POPC   GL265738   4.341  19.809   5.719
 5068POPC   C1A65739   4.623  20.002   6.109
 5068POPC   D2A65740   4.593  19.784   6.513
 5068POPC   C3A65741   4.582  19.979   6.932
 5068POPC   C4A65742   4.314  20.037   7.282
 5068POPC   C1B65743   4.005  19.651   6.029
 5068POPC   C2B65744   4.117  19.564   6.464
 5068POPC   C3B65745   4.156  19.642   6.908
 5068POPC   C4B65746   3.925  19.570   7.297
 5069POPC   NC365747  19.292   1.943   5.425
 5069POPC   PO465748  20.021   1.872   5.366
 5069POPC   GL165749  19.889   2.029   5.762
 5069POPC   GL265750  19.715   1.716   5.758
 5069POPC   C1A65751  19.971   2.049   6.239
 5069POPC   D2A65752  20.269   2.041   6.613
 5069POPC   C3A65753  20.045   2.054   7.001
 5069POPC   C4A65754  19.821   2.367   7.277
 5069POPC   C1B65755  19.488   1.876   6.105
 5069POPC   C2B65756  19.379   2.115   6.484
 5069POPC   C3B65757  19.550   2.140   6.890
 5069POPC   C4B65758  19.640   1.909   7.285
 5070POPC   NC365759  27.327  23.500   5.439
 5070POPC   PO465760  27.837  23.954   5.315
 5070POPC   GL165761  27.774  23.798   5.787
 5070POPC   GL265762  27.945  23.511   5.938
 5070POPC   C1A65763  27.700  23.807   6.261
 5070POPC   D2A65764  27.563  23.944   6.645
 5070POPC   C3A65765  27.670  23.682   6.951
 5070POPC   C4A65766  27.534  23.843   7.327
 5070POPC   C1B65767  27.558  23.327   6.170
 5070POPC   C2B65768  27.359  23.346   6.629
 5070POPC   C3B65769  27.433  23.255   7.097
 5070POPC   C4B65770  27.775  23.376   7.382
 5071POPC   NC365771  30.892  29.422   5.373
 5071POPC   PO465772  30.450  28.989   5.483
 5071POPC   GL165773  30.567  29.013   5.916
 5071POPC   GL265774  30.859  29.176   5.830
 5071POPC   C1A65775  30.804  28.826   6.287
 5071POPC   D2A65776  30.643  28.704   6.703
 5071POPC   C3A65777  30.561  29.002   7.067
 5071POPC   C4A65778  30.476  29.093   7.515
 5071POPC   C1B65779  30.951  29.307   6.237
 5071POPC   C2B65780  31.151  29.250   6.645
 5071POPC   C3B65781  31.060  29.127   7.069
 5071POPC   C4B65782  30.975  29.306   7.451
 5072POPC   NC365783  22.670  42.729   5.441
 5072POPC   PO465784  23.174  42.359   5.191
 5072POPC   GL165785  22.892  42.280   5.638
 5072POPC   GL265786  22.543  42.167   5.616
 5072POPC   C1A65787  22.800  42.466   6.115
 5072POPC   D2A65788  22.745  42.523   6.615
 5072POPC   C3A65789  23.099  42.413   6.914
 5072POPC   C4A65790  23.337  42.641   7.242
 5072POPC   C1B65791  22.605  41.987   6.041
 5072POPC   C2B65792  22.778  42.051   6.447
 5072POPC   C3B65793  22.652  42.089   6.882
 5072POPC   C4B65794  22.641  42.478   7.147
 5073POPC   NC365795   1.885  41.694   5.212
 5073POPC   PO465796   2.431  41.169   5.310
 5073POPC   GL165797   2.152  41.264   5.679
 5073POPC   GL265798   1.796  41.153   5.591
 5073POPC   C1A65799   2.048  41.570   6.059
 5073POPC   D2A65800   1.851  41.765   6.454
 5073POPC   C3A65801   1.927  41.580   6.867
 5073POPC   C4A65802   2.036  41.754   7.266
 5073POPC   C1B65803   1.794  41.138   6.049
 5073POPC   C2B65804   1.779  41.240   6.483
 5073POPC   C3B65805   1.520  41.179   6.850
 5073POPC   C4B65806   1.550  41.339   7.261
 5074POPC   NC365807  17.194  19.005   5.443
 5074POPC   PO465808  17.890  18.788   5.413
 5074POPC   GL165809  17.886  19.001   5.867
 5074POPC   GL265810  17.630  19.249   5.850
 5074POPC   C1A65811  17.840  19.114   6.319
 5074POPC   D2A65812  17.483  18.955   6.545
 5074POPC   C3A65813  17.359  18.963   6.967
 5074POPC   C4A65814  17.548  18.677   7.207
 5074POPC   C1B65815  17.360  19.335   6.235
 5074POPC   C2B65816  17.385  19.440   6.703
 5074POPC   C3B65817  17.364  19.431   7.191
 5074POPC   C4B65818  17.111  19.383   7.563
 5075POPC   NC365819  39.653  41.772   5.512
 5075POPC   PO465820  40.243  41.750   5.181
 5075POPC   GL165821  40.084  41.494   5.731
 5075POPC   GL265822  39.809  41.217   5.755
 5075POPC   C1A65823  39.981  41.574   6.172
 5075POPC   D2A65824  40.128  41.653   6.593
 5075POPC   C3A65825  39.920  41.665   6.949
 5075POPC   C4A65826  40.003  41.397   7.294
 5075POPC   C1B65827  39.510  41.381   6.112
 5075POPC   C2B65828  39.626  41.508   6.546
 5075POPC   C3B65829  39.718  41.208   6.876
 5075POPC   C4B65830  39.574  41.079   7.273
 5076POPC   NC365831  43.645  37.216   4.856
 5076POPC   PO465832  43.713  36.720   5.311
 5076POPC   GL165833  43.843  36.953   5.659
 5076POPC   GL265834  44.123  36.916   5.840
 5076POPC   C1A65835  43.737  37.121   6.088
 5076POPC   D2A65836  43.594  37.133   6.535
 5076POPC   C3A65837  43.860  36.921   6.884
 5076POPC   C4A65838  43.836  36.572   7.216
 5076POPC   C1B65839  44.326  36.718   6.196
 5076POPC   C2B65840  44.221  36.542   6.600
 5076POPC   C3B65841  44.307  36.671   7.022
 5076POPC   C4B65842  44.267  36.629   7.494
 5077POPC   NC365843  33.307   6.099   5.306
 5077POPC   PO465844  32.640   6.190   5.460
 5077POPC   GL165845  32.907   6.213   5.847
 5077POPC   GL265846  33.219   6.378   5.817
 5077POPC   C1A65847  32.926   5.903   6.180
 5077POPC   D2A65848  32.869   5.656   6.563
 5077POPC   C3A65849  32.995   5.854   6.945
 5077POPC   C4A65850  32.811   6.196   7.156
 5077POPC   C1B65851  33.312   6.230   6.273
 5077POPC   C2B65852  33.362   5.831   6.551
 5077POPC   C3B65853  33.486   5.732   7.005
 5077POPC   C4B65854  33.725   5.936   7.351
 5078POPC   NC365855  17.052  40.491   5.388
 5078POPC   PO465856  16.408  40.715   5.339
 5078POPC   GL165857  16.693  40.699   5.717
 5078POPC   GL265858  16.420  40.654   5.932
 5078POPC   C1A65859  16.905  40.735   6.158
 5078POPC   D2A65860  17.069  40.963   6.545
 5078POPC   C3A65861  17.029  40.830   6.997
 5078POPC   C4A65862  16.957  40.678   7.428
 5078POPC   C1B65863  16.291  40.772   6.321
 5078POPC   C2B65864  16.531  40.887   6.653
 5078POPC   C3B65865  16.535  40.725   7.043
 5078POPC   C4B65866  16.406  40.897   7.417
 5079POPC   NC365867  43.643  41.105   5.234
 5079POPC   PO465868  43.618  40.484   5.412
 5079POPC   GL165869  43.910  40.655   5.711
 5079POPC   GL265870  43.780  40.968   5.704
 5079POPC   C1A65871  44.027  40.835   6.149
 5079POPC   D2A65872  43.995  41.074   6.556
 5079POPC   C3A65873  44.115  40.852   6.941
 5079POPC   C4A65874  44.000  40.659   7.348
 5079POPC   C1B65875  43.603  41.132   6.082
 5079POPC   C2B65876  43.601  41.402   6.423
 5079POPC   C3B65877  43.606  41.287   6.843
 5079POPC   C4B65878  43.640  41.484   7.220
 5080POPC   NC365879  26.925  11.816   5.464
 5080POPC   PO465880  26.997  12.436   5.476
 5080POPC   GL165881  26.831  12.201   5.873
 5080POPC   GL265882  26.787  11.840   5.949
 5080POPC   C1A65883  26.927  12.128   6.340
 5080POPC   D2A65884  26.877  11.825   6.668
 5080POPC   C3A65885  26.838  12.002   7.055
 5080POPC   C4A65886  27.005  12.265   7.379
 5080POPC   C1B65887  26.449  11.988   6.198
 5080POPC   C2B65888  26.416  12.037   6.618
 5080POPC   C3B65889  26.329  11.899   6.997
 5080POPC   C4B65890  26.425  11.929   7.399
 5081POPC   NC365891  43.660   6.331   5.173
 5081POPC   PO465892  44.013   6.840   5.340
 5081POPC   GL165893  43.849   6.780   5.743
 5081POPC   GL265894  43.774   6.435   5.685
 5081POPC   C1A65895  43.603   6.956   6.138
 5081POPC   D2A65896  43.415   6.859   6.537
 5081POPC   C3A65897  43.621   6.926   6.926
 5081POPC   C4A65898  43.934   6.859   7.235
 5081POPC   C1B65899  43.748   6.473   6.131
 5081POPC   C2B65900  43.867   6.616   6.516
 5081POPC   C3B65901  43.848   6.444   6.912
 5081POPC   C4B65902  43.690   6.404   7.318
 5082POPC   NC365903  42.876   3.438   5.624
 5082POPC   PO465904  42.276   3.210   5.289
 5082POPC   GL165905  42.122   3.322   5.695
 5082POPC   GL265906  42.382   3.607   5.728
 5082POPC   C1A65907  42.183   3.375   6.142
 5082POPC   D2A65908  42.402   3.547   6.490
 5082POPC   C3A65909  42.207   3.437   6.851
 5082POPC   C4A65910  42.040   3.610   7.210
 5082POPC   C1B65911  42.240   3.893   6.093
 5082POPC   C2B65912  42.195   4.015   6.551
 5082POPC   C3B65913  42.400   3.894   6.959
 5082POPC   C4B65914  42.727   4.070   7.236
 5083POPC   NC365915  29.644  44.042   5.322
 5083POPC   PO465916  29.765  43.422   5.487
 5083POPC   GL165917  29.786  43.704   5.835
 5083POPC   GL265918  29.880  44.052   5.791
 5083POPC   C1A65919  29.924  43.736   6.255
 5083POPC   D2A65920  29.840  43.779   6.669
 5083POPC   C3A65921  29.905  43.531   7.038
 5083POPC   C4A65922  29.505  43.554   7.279
 5083POPC   C1B65923  30.158  44.173   6.141
 5083POPC   C2B65924  30.258  44.047   6.583
 5083POPC   C3B65925  30.085  44.062   7.029
 5083POPC   C4B65926  30.216  44.209   7.440
 5084POPC   NC365927  13.321  23.805   5.436
 5084POPC   PO465928  12.644  23.616   5.311
 5084POPC   GL165929  12.799  23.802   5.733
 5084POPC   GL265930  12.491  24.026   5.762
 5084POPC   C1A65931  13.017  23.671   6.141
 5084POPC   D2A65932  12.959  23.462   6.583
 5084POPC   C3A65933  13.016  23.679   6.998
 5084POPC   C4A65934  12.867  23.631   7.451
 5084POPC   C1B65935  12.444  24.149   6.164
 5084POPC   C2B65936  12.618  23.980   6.508
 5084POPC   C3B65937  12.715  24.096   6.892
 5084POPC   C4B65938  12.562  23.919   7.217
 5085POPC   NC365939  22.210   2.196   5.311
 5085POPC   PO465940  22.387   1.598   5.275
 5085POPC   GL165941  22.182   1.675   5.672
 5085POPC   GL265942  21.889   1.865   5.574
 5085POPC   C1A65943  22.313   1.624   6.121
 5085POPC   D2A65944  22.443   1.762   6.549
 5085POPC   C3A65945  22.384   1.611   6.980
 5085POPC   C4A65946  22.252   1.890   7.336
 5085POPC   C1B65947  22.043   2.091   5.960
 5085POPC   C2B65948  22.008   2.166   6.411
 5085POPC   C3B65949  22.045   2.124   6.883
 5085POPC   C4B65950  22.160   2.387   7.246
 5086POPC   NC365951  16.026  27.817   5.503
 5086POPC   PO465952  16.137  27.179   5.318
 5086POPC   GL165953  16.026  27.281   5.789
 5086POPC   GL265954  16.191  27.572   5.926
 5086POPC   C1A65955  15.735  27.202   6.162
 5086POPC   D2A65956  15.486  27.217   6.546
 5086POPC   C3A65957  15.622  27.260   6.976
 5086POPC   C4A65958  15.545  27.597   7.277
 5086POPC   C1B65959  15.973  27.613   6.308
 5086POPC   C2B65960  16.008  27.419   6.682
 5086POPC   C3B65961  16.041  27.550   7.113
 5086POPC   C4B65962  16.338  27.452   7.424
 5087POPC   NC365963  30.287  25.712   5.507
 5087POPC   PO465964  30.623  26.214   5.164
 5087POPC   GL165965  30.595  26.158   5.623
 5087POPC   GL265966  30.725  25.826   5.750
 5087POPC   C1A65967  30.675  26.217   6.086
 5087POPC   D2A65968  30.890  25.944   6.407
 5087POPC   C3A65969  30.766  25.969   6.836
 5087POPC   C4A65970  30.877  26.034   7.254
 5087POPC   C1B65971  30.489  25.738   6.143
 5087POPC   C2B65972  30.460  25.639   6.585
 5087POPC   C3B65973  30.427  25.632   7.030
 5087POPC   C4B65974  30.379  25.933   7.333
 5088POPC   NC365975   4.887  28.782   5.341
 5088POPC   PO465976   5.502  28.919   5.397
 5088POPC   GL165977   5.206  29.001   5.738
 5088POPC   GL265978   5.114  28.678   5.812
 5088POPC   C1A65979   5.101  29.063   6.201
 5088POPC   D2A65980   5.343  29.208   6.589
 5088POPC   C3A65981   5.140  29.149   6.998
 5088POPC   C4A65982   4.733  29.287   7.144
 5088POPC   C1B65983   5.244  28.577   6.240
 5088POPC   C2B65984   5.084  28.756   6.635
 5088POPC   C3B65985   5.240  28.647   7.032
 5088POPC   C4B65986   5.318  28.893   7.415
 5089POPC   NC365987  17.561  28.780   5.510
 5089POPC   PO465988  17.599  29.407   5.331
 5089POPC   GL165989  17.622  29.248   5.788
 5089POPC   GL265990  17.829  28.979   5.906
 5089POPC   C1A65991  17.717  29.309   6.257
 5089POPC   D2A65992  17.729  29.066   6.625
 5089POPC   C3A65993  17.614  29.302   7.009
 5089POPC   C4A65994  17.332  29.266   7.362
 5089POPC   C1B65995  17.467  28.868   6.156
 5089POPC   C2B65996  17.378  28.677   6.523
 5089POPC   C3B65997  17.396  28.800   6.939
 5089POPC   C4B65998  17.613  28.852   7.282
 5090POPC   NC365999  42.958  10.823   5.440
 5090POPC   PO466000  43.024  11.395   5.223
 5090POPC   GL166001  43.151  11.326   5.675
 5090POPC   GL266002  43.202  10.973   5.862
 5090POPC   C1A66003  43.022  11.394   6.123
 5090POPC   D2A66004  43.050  11.268   6.586
 5090POPC   C3A66005  42.950  11.504   6.992
 5090POPC   C4A66006  42.905  11.486   7.456
 5090POPC   C1B66007  42.826  10.900   6.136
 5090POPC   C2B66008  42.636  10.944   6.546
 5090POPC   C3B66009  42.766  11.000   6.980
 5090POPC   C4B66010  43.124  11.061   7.257
 5091POPC   NC366011  25.746  23.176   5.481
 5091POPC   PO466012  26.209  22.849   5.232
 5091POPC   GL166013  26.077  22.844   5.704
 5091POPC   GL266014  26.078  23.151   5.875
 5091POPC   C1A66015  25.958  22.712   6.129
 5091POPC   D2A66016  25.973  22.912   6.548
 5091POPC   C3A66017  26.007  22.749   6.977
 5091POPC   C4A66018  25.977  22.927   7.416
 5091POPC   C1B66019  25.750  23.222   6.186
 5091POPC   C2B66020  25.723  23.410   6.614
 5091POPC   C3B66021  25.753  23.236   7.061
 5091POPC   C4B66022  25.744  23.454   7.456
 5092POPC   NC366023  13.826  37.316   5.337
 5092POPC   PO466024  13.435  37.865   5.223
 5092POPC   GL166025  13.520  37.856   5.690
 5092POPC   GL266026  13.816  37.665   5.819
 5092POPC   C1A66027  13.416  37.844   6.149
 5092POPC   D2A66028  13.314  37.861   6.607
 5092POPC   C3A66029  13.602  37.698   6.944
 5092POPC   C4A66030  13.774  37.393   7.228
 5092POPC   C1B66031  13.919  37.950   6.180
 5092POPC   C2B66032  13.803  38.041   6.623
 5092POPC   C3B66033  13.830  38.136   7.101
 5092POPC   C4B66034  14.082  38.054   7.509
 5093POPC   NC366035  44.901   3.354   5.425
 5093POPC   PO466036  44.464   3.833   5.378
 5093POPC   GL166037  44.675   3.677   5.750
 5093POPC   GL266038   0.033   3.654   5.843
 5093POPC   C1A66039  44.702   3.353   6.093
 5093POPC   D2A66040  44.554   3.242   6.509
 5093POPC   C3A66041  44.601   3.495   6.838
 5093POPC   C4A66042  44.748   3.438   7.226
 5093POPC   C1B66043  44.788   3.878   6.191
 5093POPC   C2B66044  44.682   3.952   6.619
 5093POPC   C3B66045  44.849   3.921   7.058
 5093POPC   C4B66046   0.073   3.752   7.442
 5094POPC   NC366047  20.418   1.840   5.139
 5094POPC   PO466048  21.012   1.953   5.473
 5094POPC   GL166049  20.727   1.936   5.835
 5094POPC   GL266050  20.380   1.828   5.745
 5094POPC   C1A66051  20.674   2.169   6.218
 5094POPC   D2A66052  20.684   2.339   6.620
 5094POPC   C3A66053  20.702   2.129   7.016
 5094POPC   C4A66054  20.649   2.040   7.486
 5094POPC   C1B66055  20.415   1.739   6.207
 5094POPC   C2B66056  20.516   1.586   6.660
 5094POPC   C3B66057  20.417   1.714   7.119
 5094POPC   C4B66058  20.173   1.893   7.477
 5095POPC   NC366059  36.992  25.429   5.299
 5095POPC   PO466060  36.493  24.984   5.382
 5095POPC   GL166061  36.650  25.207   5.766
 5095POPC   GL266062  36.759  25.577   5.726
 5095POPC   C1A66063  36.829  25.042   6.203
 5095POPC   D2A66064  36.896  24.845   6.640
 5095POPC   C3A66065  37.018  25.057   7.018
 5095POPC   C4A66066  37.050  25.033   7.496
 5095POPC   C1B66067  36.720  25.550   6.201
 5095POPC   C2B66068  36.849  25.397   6.634
 5095POPC   C3B66069  36.646  25.432   7.057
 5095POPC   C4B66070  36.710  25.421   7.528
 5096POPC   NC366071  44.462  11.140   5.348
 5096POPC   PO466072   0.056  11.501   5.396
 5096POPC   GL166073  44.816  11.249   5.703
 5096POPC   GL266074   0.084  11.124   5.893
 5096POPC   C1A66075  44.620  11.160   6.112
 5096POPC   D2A66076  44.778  11.261   6.507
 5096POPC   C3A66077  44.486  11.193   6.828
 5096POPC   C4A66078  44.588  11.339   7.224
 5096POPC   C1B66079  44.943  11.565   6.091
 5096POPC   C2B66080  44.991  11.768   6.498
 5096POPC   C3B66081  44.888  11.624   6.901
 5096POPC   C4B66082   0.073  11.544   7.296
 5097POPC   NC366083  25.904  39.562   5.363
 5097POPC   PO466084  26.418  39.150   5.431
 5097POPC   GL166085  26.299  38.944   5.884
 5097POPC   GL266086  25.992  39.149   5.952
 5097POPC   C1A66087  26.190  38.902   6.362
 5097POPC   D2A66088  25.992  39.251   6.616
 5097POPC   C3A66089  26.092  39.240   7.054
 5097POPC   C4A66090  26.391  38.930   7.283
 5097POPC   C1B66091  26.327  39.374   6.220
 5097POPC   C2B66092  26.506  39.282   6.638
 5097POPC   C3B66093  26.521  39.499   7.063
 5097POPC   C4B66094  26.400  39.381   7.486
 5098POPC   NC366095  38.976  26.546   5.458
 5098POPC   PO466096  39.408  27.070   5.381
 5098POPC   GL166097  39.325  26.892   5.789
 5098POPC   GL266098  39.405  26.544   5.759
 5098POPC   C1A66099  39.250  27.043   6.242
 5098POPC   D2A66100  39.002  26.963   6.645
 5098POPC   C3A66101  39.181  26.861   7.048
 5098POPC   C4A66102  38.936  26.798   7.468
 5098POPC   C1B66103  39.575  26.633   6.174
 5098POPC   C2B66104  39.508  26.766   6.598
 5098POPC   C3B66105  39.668  26.627   6.953
 5098POPC   C4B66106  39.678  26.261   7.251
 5099POPC   NC366107  43.472  28.816   5.427
 5099POPC   PO466108  42.954  29.384   5.444
 5099POPC   GL166109  43.145  29.105   5.739
 5099POPC   GL266110  43.377  29.303   5.893
 5099POPC   C1A66111  43.042  29.028   6.187
 5099POPC   D2A66112  42.982  29.146   6.627
 5099POPC   C3A66113  43.060  28.836   6.958
 5099POPC   C4A66114  43.486  28.858   7.104
 5099POPC   C1B66115  43.263  29.502   6.266
 5099POPC   C2B66116  43.419  29.525   6.698
 5099POPC   C3B66117  43.212  29.321   7.062
 5099POPC   C4B66118  42.971  29.538   7.375
 5100POPC   NC366119  14.659   3.901   5.696
 5100POPC   PO466120  14.257   3.377   5.557
 5100POPC   GL166121  14.360   3.541   5.934
 5100POPC   GL266122  14.660   3.395   5.915
 5100POPC   C1A66123  14.312   3.711   6.340
 5100POPC   D2A66124  14.438   3.584   6.753
 5100POPC   C3A66125  14.179   3.672   7.118
 5100POPC   C4A66126  14.102   3.820   7.544
 5100POPC   C1B66127  14.803   3.637   6.293
 5100POPC   C2B66128  14.896   3.832   6.689
 5100POPC   C3B66129  14.706   3.913   7.057
 5100POPC   C4B66130  14.643   3.606   7.317
 5101POPC   NC366131  39.955  44.778   5.208
 5101POPC   PO466132  40.519  44.537   5.417
 5101POPC   GL166133  40.134  44.576   5.663
 5101POPC   GL266134  40.135  44.288   5.902
 5101POPC   C1A66135  39.845  44.719   6.005
 5101POPC   D2A66136  39.879  44.455   6.366
 5101POPC   C3A66137  39.753  44.543   6.768
 5101POPC   C4A66138  39.692  44.563   7.193
 5101POPC   C1B66139  40.332  44.634   6.164
 5101POPC   C2B66140  40.235  44.770   6.601
 5101POPC   C3B66141  40.185  44.658   7.044
 5101POPC   C4B66142  40.384  44.677   7.444
 5102POPC   NC366143   2.349  39.145   5.432
 5102POPC   PO466144   1.776  39.628   5.435
 5102POPC   GL166145   1.892  39.388   5.846
 5102POPC   GL266146   2.249  39.326   5.887
 5102POPC   C1A66147   1.927  39.041   6.202
 5102POPC   D2A66148   2.164  38.946   6.619
 5102POPC   C3A66149   1.900  38.910   6.969
 5102POPC   C4A66150   1.885  39.019   7.389
 5102POPC   C1B66151   2.327  39.334   6.317
 5102POPC   C2B66152   2.408  39.365   6.778
 5102POPC   C3B66153   2.225  39.302   7.111
 5102POPC   C4B66154   1.960  39.529   7.301
 5103POPC   NC366155   2.339  12.210   5.522
 5103POPC   PO466156   1.844  11.748   5.367
 5103POPC   GL166157   1.959  11.942   5.749
 5103POPC   GL266158   1.911  12.341   5.775
 5103POPC   C1A66159   2.198  11.928   6.127
 5103POPC   D2A66160   2.286  12.059   6.524
 5103POPC   C3A66161   2.011  11.969   6.854
 5103POPC   C4A66162   2.123  11.882   7.263
 5103POPC   C1B66163   2.028  12.416   6.233
 5103POPC   C2B66164   2.063  12.482   6.701
 5103POPC   C3B66165   2.083  12.388   7.168
 5103POPC   C4B66166   1.886  12.340   7.586
 5104POPC   NC366167  38.792   6.845   5.546
 5104POPC   PO466168  38.499   7.409   5.335
 5104POPC   GL166169  38.563   7.629   5.723
 5104POPC   GL266170  38.885   7.498   5.857
 5104POPC   C1A66171  38.354   7.566   6.135
 5104POPC   D2A66172  38.421   7.631   6.568
 5104POPC   C3A66173  38.208   7.509   6.952
 5104POPC   C4A66174  38.306   7.511   7.381
 5104POPC   C1B66175  38.743   7.177   6.138
 5104POPC   C2B66176  38.511   7.132   6.519
 5104POPC   C3B66177  38.641   7.241   6.926
 5104POPC   C4B66178  38.563   7.079   7.342
 5105POPC   NC366179  26.847  28.070   5.454
 5105POPC   PO466180  26.645  28.702   5.481
 5105POPC   GL166181  26.706  28.393   5.817
 5105POPC   GL266182  27.038  28.360   5.835
 5105POPC   C1A66183  26.727  28.215   6.239
 5105POPC   D2A66184  26.609  28.403   6.633
 5105POPC   C3A66185  26.803  28.525   6.996
 5105POPC   C4A66186  26.821  28.345   7.404
 5105POPC   C1B66187  27.126  28.532   6.240
 5105POPC   C2B66188  27.122  28.233   6.588
 5105POPC   C3B66189  27.065  28.098   6.998
 5105POPC   C4B66190  27.252  28.100   7.416
 5106POPC   NC366191  16.074  25.292   5.343
 5106POPC   PO466192  16.555  25.739   5.551
 5106POPC   GL166193  16.183  25.561   5.835
 5106POPC   GL266194  15.966  25.257   5.834
 5106POPC   C1A66195  16.001  25.466   6.295
 5106POPC   D2A66196  16.140  25.302   6.731
 5106POPC   C3A66197  15.900  25.391   7.150
 5106POPC   C4A66198  15.823  25.455   7.641
 5106POPC   C1B66199  15.974  24.943   6.177
 5106POPC   C2B66200  15.771  24.975   6.558
 5106POPC   C3B66201  15.861  24.879   6.976
 5106POPC   C4B66202  15.568  24.994   7.268
 5107POPC   NC366203   3.706  14.148   5.376
 5107POPC   PO466204   3.248  14.576   5.461
 5107POPC   GL166205   3.456  14.416   5.818
 5107POPC   GL266206   3.578  14.730   5.874
 5107POPC   C1A66207   3.591  14.332   6.264
 5107POPC   D2A66208   3.316  14.244   6.640
 5107POPC   C3A66209   3.495  14.327   7.056
 5107POPC   C4A66210   3.860  14.514   7.268
 5107POPC   C1B66211   3.560  14.837   6.296
 5107POPC   C2B66212   3.649  14.645   6.668
 5107POPC   C3B66213   3.578  14.864   7.005
 5107POPC   C4B66214   3.577  15.133   7.367
 5108POPC   NC366215  13.830  15.269   5.430
 5108POPC   PO466216  13.394  14.885   5.206
 5108POPC   GL166217  13.436  15.058   5.692
 5108POPC   GL266218  13.767  15.016   5.857
 5108POPC   C1A66219  13.366  15.124   6.166
 5108POPC   D2A66220  13.344  15.469   6.520
 5108POPC   C3A66221  13.472  15.328   6.916
 5108POPC   C4A66222  13.787  15.147   7.210
 5108POPC   C1B66223  13.781  14.813   6.220
 5108POPC   C2B66224  13.659  14.983   6.600
 5108POPC   C3B66225  13.439  14.835   6.978
 5108POPC   C4B66226  13.363  14.881   7.449
 5109POPC   NC366227  27.697  38.985   5.426
 5109POPC   PO466228  28.097  39.448   5.579
 5109POPC   GL166229  27.731  39.322   5.824
 5109POPC   GL266230  27.364  39.384   5.781
 5109POPC   C1A66231  27.756  38.979   6.113
 5109POPC   D2A66232  28.027  38.865   6.466
 5109POPC   C3A66233  27.857  39.100   6.819
 5109POPC   C4A66234  27.774  38.999   7.232
 5109POPC   C1B66235  27.226  39.155   6.165
 5109POPC   C2B66236  27.386  39.010   6.548
 5109POPC   C3B66237  27.325  38.984   6.984
 5109POPC   C4B66238  27.333  39.316   7.311
 5110POPC   NC366239  26.588   4.650   5.256
 5110POPC   PO466240  26.257   3.998   5.356
 5110POPC   GL166241  26.228   3.836   5.791
 5110POPC   GL266242  25.985   4.084   5.851
 5110POPC   C1A66243  26.300   4.001   6.233
 5110POPC   D2A66244  26.188   4.357   6.467
 5110POPC   C3A66245  26.160   4.313   6.913
 5110POPC   C4A66246  26.043   3.976   7.159
 5110POPC   C1B66247  25.774   4.123   6.259
 5110POPC   C2B66248  25.708   4.289   6.687
 5110POPC   C3B66249  25.660   4.309   7.133
 5110POPC   C4B66250  25.621   4.609   7.508
 5111POPC   NC366251   7.453   4.259   5.280
 5111POPC   PO466252   7.673   4.852   5.500
 5111POPC   GL166253   7.466   4.596   5.804
 5111POPC   GL266254   7.313   4.292   5.789
 5111POPC   C1A66255   7.648   4.416   6.205
 5111POPC   D2A66256   7.582   4.555   6.649
 5111POPC   C3A66257   7.613   4.315   7.058
 5111POPC   C4A66258   7.835   4.394   7.438
 5111POPC   C1B66259   7.195   4.181   6.238
 5111POPC   C2B66260   7.318   4.108   6.673
 5111POPC   C3B66261   7.152   4.105   7.094
 5111POPC   C4B66262   7.264   3.843   7.429
 5112POPC   NC366263  17.117  34.530   5.529
 5112POPC   PO466264  17.772  34.630   5.361
 5112POPC   GL166265  17.539  34.653   5.791
 5112POPC   GL266266  17.436  34.311   5.880
 5112POPC   C1A66267  17.390  34.659   6.240
 5112POPC   D2A66268  17.579  34.523   6.624
 5112POPC   C3A66269  17.593  34.774   6.997
 5112POPC   C4A66270  17.489  34.784   7.446
 5112POPC   C1B66271  17.213  34.180   6.279
 5112POPC   C2B66272  17.130  34.247   6.727
 5112POPC   C3B66273  17.175  34.502   7.103
 5112POPC   C4B66274  17.182  34.395   7.525
 5113POPC   NC366275  28.597  34.259   5.429
 5113POPC   PO466276  28.410  33.559   5.382
 5113POPC   GL166277  28.287  33.709   5.799
 5113POPC   GL266278  28.292  34.075   5.809
 5113POPC   C1A66279  28.288  33.478   6.230
 5113POPC   D2A66280  28.131  33.386   6.635
 5113POPC   C3A66281  28.329  33.541   7.033
 5113POPC   C4A66282  28.179  33.615   7.484
 5113POPC   C1B66283  28.455  33.956   6.228
 5113POPC   C2B66284  28.293  33.887   6.644
 5113POPC   C3B66285  28.222  34.027   7.097
 5113POPC   C4B66286  28.275  34.118   7.525
 5114POPC   NC366287  13.318  35.917   5.125
 5114POPC   PO466288  13.813  36.102   5.570
 5114POPC   GL166289  13.441  36.203   5.860
 5114POPC   GL266290  13.391  36.559   5.837
 5114POPC   C1A66291  13.442  35.959   6.284
 5114POPC   D2A66292  13.880  35.912   6.505
 5114POPC   C3A66293  13.891  36.117   6.915
 5114POPC   C4A66294  13.524  36.056   7.202
 5114POPC   C1B66295  13.607  36.442   6.257
 5114POPC   C2B66296  13.460  36.317   6.671
 5114POPC   C3B66297  13.493  36.547   7.055
 5114POPC   C4B66298  13.480  36.508   7.518
 5115POPC   NC366299   2.163  13.893   5.268
 5115POPC   PO466300   1.840  13.338   5.509
 5115POPC   GL166301   2.036  13.438   5.869
 5115POPC   GL266302   2.146  13.799   5.819
 5115POPC   C1A66303   1.819  13.370   6.258
 5115POPC   D2A66304   1.780  13.291   6.691
 5115POPC   C3A66305   1.988  13.587   6.861
 5115POPC   C4A66306   1.922  13.780   7.227
 5115POPC   C1B66307   2.214  13.738   6.264
 5115POPC   C2B66308   2.512  13.741   6.585
 5115POPC   C3B66309   2.480  13.658   7.000
 5115POPC   C4B66310   2.326  13.344   7.196
 5116POPC   NC366311  26.662  44.164   5.535
 5116POPC   PO466312  27.096  44.718   5.422
 5116POPC   GL166313  26.946  44.647   5.790
 5116POPC   GL266314  27.104  44.313   5.831
 5116POPC   C1A66315  26.878  44.949   6.143
 5116POPC   D2A66316  27.100  44.899   6.544
 5116POPC   C3A66317  26.874  44.858   6.959
 5116POPC   C4A66318  26.876  44.772   7.439
 5116POPC   C1B66319  26.847  44.413   6.229
 5116POPC   C2B66320  26.860  44.396   6.694
 5116POPC   C3B66321  26.664  44.400   7.125
 5116POPC   C4B66322  26.637  44.198   7.552
 5117POPC   NC366323   7.632  28.371   5.206
 5117POPC   PO466324   7.226  28.215   5.725
 5117POPC   GL166325   7.370  28.527   5.945
 5117POPC   GL266326   7.707  28.504   5.827
 5117POPC   C1A66327   7.487  28.356   6.344
 5117POPC   D2A66328   7.674  28.446   6.731
 5117POPC   C3A66329   7.399  28.492   7.088
 5117POPC   C4A66330   7.259  28.311   7.493
 5117POPC   C1B66331   7.750  28.773   6.204
 5117POPC   C2B66332   7.732  28.949   6.591
 5117POPC   C3B66333   7.767  28.842   7.030
 5117POPC   C4B66334   7.710  28.820   7.458
 5118POPC   NC366335  30.942  38.488   5.153
 5118POPC   PO466336  31.561  38.396   5.357
 5118POPC   GL166337  31.385  38.492   5.761
 5118POPC   GL266338  31.630  38.724   5.809
 5118POPC   C1A66339  31.307  38.504   6.229
 5118POPC   D2A66340  31.294  38.269   6.632
 5118POPC   C3A66341  31.440  38.368   7.063
 5118POPC   C4A66342  31.252  38.191   7.433
 5118POPC   C1B66343  31.681  38.836   6.256
 5118POPC   C2B66344  31.495  38.748   6.685
 5118POPC   C3B66345  31.612  38.838   7.129
 5118POPC   C4B66346  31.680  38.910   7.566
 5119POPC   NC366347  15.787  12.634   5.274
 5119POPC   PO466348  16.414  12.352   5.381
 5119POPC   GL166349  16.171  12.306   5.815
 5119POPC   GL266350  16.237  12.645   5.915
 5119POPC   C1A66351  15.878  12.417   6.208
 5119POPC   D2A66352  15.946  12.616   6.660
 5119POPC   C3A66353  15.680  12.583   7.046
 5119POPC   C4A66354  15.610  12.740   7.478
 5119POPC   C1B66355  16.358  12.524   6.334
 5119POPC   C2B66356  16.421  12.489   6.791
 5119POPC   C3B66357  16.196  12.602   7.167
 5119POPC   C4B66358  16.108  12.787   7.590
 5120POPC   NC366359   1.649  12.911   5.435
 5120POPC   PO466360   2.370  12.738   5.442
 5120POPC   GL166361   2.236  12.731   5.877
 5120POPC   GL266362   1.887  12.874   5.915
 5120POPC   C1A66363   2.390  12.858   6.293
 5120POPC   D2A66364   2.270  13.224   6.537
 5120POPC   C3A66365   2.127  12.982   6.873
 5120POPC   C4A66366   2.203  12.864   7.278
 5120POPC   C1B66367   1.884  12.882   6.380
 5120POPC   C2B66368   1.638  12.763   6.725
 5120POPC   C3B66369   1.705  12.806   7.133
 5120POPC   C4B66370   1.825  13.225   7.226
 5121POPC   NC366371  12.670   4.647   5.529
 5121POPC   PO466372  13.042   4.142   5.390
 5121POPC   GL166373  13.015   4.239   5.815
 5121POPC   GL266374  13.059   4.590   5.852
 5121POPC   C1A66375  12.962   4.067   6.248
 5121POPC   D2A66376  13.127   4.279   6.607
 5121POPC   C3A66377  12.976   4.166   7.005
 5121POPC   C4A66378  13.197   4.212   7.391
 5121POPC   C1B66379  12.808   4.543   6.230
 5121POPC   C2B66380  12.699   4.561   6.674
 5121POPC   C3B66381  12.702   4.589   7.130
 5121POPC   C4B66382  12.730   4.382   7.518
 5122POPC   NC366383  39.122  44.864   5.289
 5122POPC   PO466384  39.683  44.449   5.399
 5122POPC   GL166385  39.425  44.697   5.691
 5122POPC   GL266386  39.071  44.631   5.752
 5122POPC   C1A66387  39.341  44.854   6.129
 5122POPC   D2A66388  39.298  44.649   6.537
 5122POPC   C3A66389  39.336  44.858   6.946
 5122POPC   C4A66390  39.268  44.752   7.392
 5122POPC   C1B66391  38.954  44.459   6.191
 5122POPC   C2B66392  38.786  44.486   6.634
 5122POPC   C3B66393  38.872  44.648   7.065
 5122POPC   C4B66394  38.833  44.444   7.485
 5123POPC   NC366395  19.919  33.252   5.243
 5123POPC   PO466396  20.034  32.699   5.589
 5123POPC   GL166397  19.844  33.039   5.781
 5123POPC   GL266398  19.734  33.385   5.707
 5123POPC   C1A66399  20.082  33.159   6.158
 5123POPC   D2A66400  20.251  33.039   6.555
 5123POPC   C3A66401  20.036  32.665   6.723
 5123POPC   C4A66402  19.695  32.698   7.018
 5123POPC   C1B66403  19.572  33.246   6.152
 5123POPC   C2B66404  19.736  33.069   6.573
 5123POPC   C3B66405  19.944  33.149   6.991
 5123POPC   C4B66406  19.767  33.358   7.403
 5124POPC   NC366407  36.420  44.743   5.489
 5124POPC   PO466408  35.762  44.796   5.480
 5124POPC   GL166409  35.894  44.499   5.826
 5124POPC   GL266410  36.186  44.272   5.732
 5124POPC   C1A66411  36.086  44.477   6.249
 5124POPC   D2A66412  35.934  44.356   6.689
 5124POPC   C3A66413  35.885  44.708   7.005
 5124POPC   C4A66414  35.977   0.043   7.347
 5124POPC   C1B66415  36.416  44.115   6.096
 5124POPC   C2B66416  36.444  44.235   6.538
 5124POPC   C3B66417  36.359  44.261   6.981
 5124POPC   C4B66418  36.665  44.300   7.310
 5125POPC   NC366419   4.845  13.180   5.515
 5125POPC   PO466420   4.697  12.556   5.443
 5125POPC   GL166421   4.995  12.750   5.763
 5125POPC   GL266422   5.282  13.029   5.769
 5125POPC   C1A66423   4.851  12.875   6.161
 5125POPC   D2A66424   4.699  12.646   6.506
 5125POPC   C3A66425   4.958  12.696   6.877
 5125POPC   C4A66426   4.872  12.859   7.283
 5125POPC   C1B66427   5.238  13.210   6.202
 5125POPC   C2B66428   4.918  13.165   6.584
 5125POPC   C3B66429   5.045  13.242   7.016
 5125POPC   C4B66430   5.194  13.254   7.472
 5126POPC   NC366431  22.754  38.616   5.425
 5126POPC   PO466432  23.250  38.229   5.255
 5126POPC   GL166433  23.154  38.396   5.715
 5126POPC   GL266434  23.003  38.730   5.846
 5126POPC   C1A66435  23.128  38.285   6.180
 5126POPC   D2A66436  23.257  38.302   6.632
 5126POPC   C3A66437  23.086  38.270   7.058
 5126POPC   C4A66438  23.140  38.351   7.555
 5126POPC   C1B66439  22.658  38.523   6.084
 5126POPC   C2B66440  22.748  38.439   6.512
 5126POPC   C3B66441  22.809  38.741   6.840
 5126POPC   C4B66442  22.872  38.681   7.276
 5127POPC   NC366443   1.491  37.823   5.618
 5127POPC   PO466444   0.862  37.973   5.584
 5127POPC   GL166445   0.996  37.813   5.952
 5127POPC   GL266446   1.124  37.502   5.848
 5127POPC   C1A66447   1.291  37.842   6.303
 5127POPC   D2A66448   1.569  37.989   6.645
 5127POPC   C3A66449   1.453  37.945   7.069
 5127POPC   C4A66450   1.057  37.881   7.295
 5127POPC   C1B66451   1.450  37.383   6.137
 5127POPC   C2B66452   1.494  37.453   6.575
 5127POPC   C3B66453   1.238  37.485   6.941
 5127POPC   C4B66454   0.980  37.319   7.278
 5128POPC   NC366455  13.001   7.726   5.361
 5128POPC   PO466456  13.362   7.138   5.251
 5128POPC   GL166457  13.174   7.283   5.733
 5128POPC   GL266458  13.027   7.598   5.854
 5128POPC   C1A66459  12.892   7.156   6.097
 5128POPC   D2A66460  12.812   7.322   6.529
 5128POPC   C3A66461  13.016   7.281   6.933
 5128POPC   C4A66462  12.808   6.963   7.137
 5128POPC   C1B66463  12.740   7.710   6.214
 5128POPC   C2B66464  12.502   7.712   6.650
 5128POPC   C3B66465  12.672   7.701   7.096
 5128POPC   C4B66466  12.642   7.782   7.550
 5129POPC   NC366467  38.361   9.382   5.365
 5129POPC   PO466468  38.753   9.941   5.444
 5129POPC   GL166469  38.410   9.761   5.735
 5129POPC   GL266470  38.618   9.472   5.811
 5129POPC   C1A66471  38.169   9.809   6.153
 5129POPC   D2A66472  38.359  10.078   6.503
 5129POPC   C3A66473  38.276   9.966   6.943
 5129POPC   C4A66474  38.027   9.578   7.027
 5129POPC   C1B66475  38.596   9.548   6.259
 5129POPC   C2B66476  38.379   9.554   6.650
 5129POPC   C3B66477  38.496   9.378   7.069
 5129POPC   C4B66478  38.655   9.145   7.415
 5130POPC   NC366479   0.877  35.864   5.441
 5130POPC   PO466480   0.479  36.432   5.425
 5130POPC   GL166481   0.291  36.307   5.781
 5130POPC   GL266482   0.513  36.026   5.813
 5130POPC   C1A66483   0.195  36.200   6.200
 5130POPC   D2A66484   0.460  36.277   6.541
 5130POPC   C3A66485   0.239  36.340   6.891
 5130POPC   C4A66486   0.460  36.282   7.223
 5130POPC   C1B66487   0.556  35.851   6.238
 5130POPC   C2B66488   0.587  35.800   6.695
 5130POPC   C3B66489   0.448  35.774   7.122
 5130POPC   C4B66490   0.377  35.911   7.570
 5131POPC   NC366491  12.198   6.284   5.485
 5131POPC   PO466492  11.837   6.864   5.519
 5131POPC   GL166493  12.016   6.611   5.865
 5131POPC   GL266494  12.409   6.600   5.819
 5131POPC   C1A66495  11.862   6.435   6.278
 5131POPC   D2A66496  11.821   6.214   6.681
 5131POPC   C3A66497  11.639   6.432   7.033
 5131POPC   C4A66498  11.773   6.368   7.476
 5131POPC   C1B66499  12.362   6.293   6.146
 5131POPC   C2B66500  12.382   6.419   6.584
 5131POPC   C3B66501  12.158   6.452   6.975
 5131POPC   C4B66502  12.261   6.219   7.331
 5132POPC   NC366503  31.760  16.670   5.423
 5132POPC   PO466504  32.451  16.862   5.430
 5132POPC   GL166505  32.219  16.581   5.715
 5132POPC   GL266506  32.083  16.857   5.879
 5132POPC   C1A66507  32.139  16.434   6.169
 5132POPC   D2A66508  32.369  16.526   6.584
 5132POPC   C3A66509  32.155  16.571   7.005
 5132POPC   C4A66510  32.004  16.811   7.384
 5132POPC   C1B66511  32.481  16.823   6.152
 5132POPC   C2B66512  32.728  16.907   6.563
 5132POPC   C3B66513  32.553  16.933   6.990
 5132POPC   C4B66514  32.511  16.775   7.421
 5133POPC   NC366515   9.070  34.181   5.418
 5133POPC   PO466516   8.861  33.501   5.388
 5133POPC   GL166517   9.021  33.755   5.760
 5133POPC   GL266518   8.846  34.068   5.863
 5133POPC   C1A66519   9.091  33.758   6.215
 5133POPC   D2A66520   8.832  33.748   6.596
 5133POPC   C3A66521   8.972  33.555   6.963
 5133POPC   C4A66522   8.995  33.679   7.395
 5133POPC   C1B66523   8.674  34.170   6.277
 5133POPC   C2B66524   8.597  34.178   6.723
 5133POPC   C3B66525   8.818  34.070   7.075
 5133POPC   C4B66526   8.717  34.081   7.505
 5134POPC   NC366527  13.133  24.785   5.485
 5134POPC   PO466528  12.438  24.523   5.334
 5134POPC   GL166529  12.489  24.570   5.805
 5134POPC   GL266530  12.823  24.453   5.789
 5134POPC   C1A66531  12.693  24.608   6.246
 5134POPC   D2A66532  12.942  24.444   6.588
 5134POPC   C3A66533  12.994  24.610   7.018
 5134POPC   C4A66534  13.107  25.002   7.166
 5134POPC   C1B66535  12.954  24.170   6.132
 5134POPC   C2B66536  13.138  23.975   6.534
 5134POPC   C3B66537  13.220  24.161   6.927
 5134POPC   C4B66538  13.045  24.115   7.311
 5135POPC   NC366539  40.390  28.464   5.413
 5135POPC   PO466540  39.886  28.071   5.522
 5135POPC   GL166541  40.024  28.291   5.831
 5135POPC   GL266542  40.303  28.072   5.943
 5135POPC   C1A66543  39.805  28.555   6.146
 5135POPC   D2A66544  39.530  28.585   6.496
 5135POPC   C3A66545  39.703  28.372   6.844
 5135POPC   C4A66546  39.868  28.481   7.253
 5135POPC   C1B66547  40.302  28.442   6.212
 5135POPC   C2B66548  40.149  28.603   6.599
 5135POPC   C3B66549  40.304  28.558   7.023
 5135POPC   C4B66550  40.291  28.650   7.486
 5136POPC   NC366551   7.616  27.979   5.634
 5136POPC   PO466552   7.093  27.528   5.602
 5136POPC   GL166553   7.454  27.564   5.883
 5136POPC   GL266554   7.353  27.850   6.064
 5136POPC   C1A66555   7.772  27.393   6.140
 5136POPC   D2A66556   7.883  27.398   6.507
 5136POPC   C3A66557   7.600  27.547   6.780
 5136POPC   C4A66558   7.626  27.521   7.207
 5136POPC   C1B66559   7.709  27.876   6.318
 5136POPC   C2B66560   7.881  27.981   6.715
 5136POPC   C3B66561   7.583  28.018   7.078
 5136POPC   C4B66562   7.626  27.950   7.540
 5137POPC   NC366563   0.761  21.042   5.528
 5137POPC   PO466564   0.441  20.489   5.192
 5137POPC   GL166565   0.335  20.543   5.651
 5137POPC   GL266566   0.621  20.672   5.854
 5137POPC   C1A66567   0.148  20.762   6.035
 5137POPC   D2A66568   0.308  20.735   6.467
 5137POPC   C3A66569   0.200  20.797   6.909
 5137POPC   C4A66570   0.586  20.751   7.122
 5137POPC   C1B66571   0.744  20.468   6.240
 5137POPC   C2B66572   0.744  20.554   6.671
 5137POPC   C3B66573   0.859  20.346   7.000
 5137POPC   C4B66574   0.736  20.276   7.438
 5138POPC   NC366575  18.546  25.070   5.411
 5138POPC   PO466576  18.194  25.650   5.579
 5138POPC   GL166577  18.415  25.358   5.825
 5138POPC   GL266578  18.163  25.083   5.844
 5138POPC   C1A66579  18.364  25.291   6.265
 5138POPC   D2A66580  18.249  25.360   6.682
 5138POPC   C3A66581  18.512  25.127   6.922
 5138POPC   C4A66582  18.634  25.303   7.293
 5138POPC   C1B66583  17.922  25.015   6.260
 5138POPC   C2B66584  18.028  24.880   6.701
 5138POPC   C3B66585  18.064  25.097   7.138
 5138POPC   C4B66586  18.050  24.956   7.603
 5139POPC   NC366587   1.482  40.248   5.340
 5139POPC   PO466588   1.018  39.702   5.261
 5139POPC   GL166589   1.221  39.908   5.621
 5139POPC   GL266590   1.065  40.177   5.747
 5139POPC   C1A66591   1.420  39.863   6.046
 5139POPC   D2A66592   1.282  39.694   6.460
 5139POPC   C3A66593   1.501  39.785   6.849
 5139POPC   C4A66594   1.593  39.854   7.279
 5139POPC   C1B66595   0.931  39.971   6.143
 5139POPC   C2B66596   0.831  39.954   6.588
 5139POPC   C3B66597   0.996  39.764   6.940
 5139POPC   C4B66598   1.107  39.928   7.342
 5140POPC   NC366599   5.290  34.824   5.334
 5140POPC   PO466600   5.275  34.183   5.211
 5140POPC   GL166601   5.315  34.428   5.665
 5140POPC   GL266602   5.125  34.275   5.900
 5140POPC   C1A66603   5.280  34.706   6.114
 5140POPC   D2A66604   5.046  34.816   6.549
 5140POPC   C3A66605   5.209  34.665   6.948
 5140POPC   C4A66606   5.605  34.795   7.153
 5140POPC   C1B66607   4.946  34.349   6.320
 5140POPC   C2B66608   4.859  34.312   6.756
 5140POPC   C3B66609   4.728  34.454   7.174
 5140POPC   C4B66610   4.839  34.567   7.613
 5141POPC   NC366611  25.994  34.747   5.392
 5141POPC   PO466612  26.508  34.241   5.473
 5141POPC   GL166613  26.114  34.316   5.768
 5141POPC   GL266614  25.842  34.593   5.862
 5141POPC   C1A66615  25.989  34.248   6.218
 5141POPC   D2A66616  26.226  34.200   6.611
 5141POPC   C3A66617  26.091  34.300   7.045
 5141POPC   C4A66618  25.753  34.326   7.357
 5141POPC   C1B66619  25.943  34.778   6.255
 5141POPC   C2B66620  26.028  34.694   6.694
 5141POPC   C3B66621  25.865  34.756   7.096
 5141POPC   C4B66622  25.766  35.096   7.374
 5142POPC   NC366623  29.919  32.053   5.177
 5142POPC   PO466624  30.061  32.699   5.227
 5142POPC   GL166625  30.066  32.599   5.703
 5142POPC   GL266626  29.949  32.254   5.764
 5142POPC   C1A66627  29.930  32.632   6.157
 5142POPC   D2A66628  29.623  32.514   6.476
 5142POPC   C3A66629  29.814  32.401   6.869
 5142POPC   C4A66630  29.964  32.344   7.299
 5142POPC   C1B66631  29.826  32.108   6.182
 5142POPC   C2B66632  29.790  31.863   6.574
 5142POPC   C3B66633  29.867  31.913   7.023
 5142POPC   C4B66634  29.496  32.045   7.275
 5143POPC   NC366635  34.556  13.402   5.051
 5143POPC   PO466636  34.422  13.131   5.554
 5143POPC   GL166637  34.611  13.509   5.777
 5143POPC   GL266638  34.780  13.845   5.855
 5143POPC   C1A66639  34.599  13.595   6.232
 5143POPC   D2A66640  34.946  13.602   6.512
 5143POPC   C3A66641  34.868  13.382   6.872
 5143POPC   C4A66642  34.497  13.478   7.121
 5143POPC   C1B66643  34.805  14.062   6.277
 5143POPC   C2B66644  34.857  14.175   6.706
 5143POPC   C3B66645  34.929  13.888   7.017
 5143POPC   C4B66646  34.734  13.864   7.417
 5144POPC   NC366647  34.437  21.203   5.346
 5144POPC   PO466648  34.863  21.799   5.526
 5144POPC   GL166649  34.672  21.475   5.765
 5144POPC   GL266650  34.313  21.470   5.784
 5144POPC   C1A66651  34.745  21.298   6.191
 5144POPC   D2A66652  34.611  21.073   6.576
 5144POPC   C3A66653  34.690  21.299   6.960
 5144POPC   C4A66654  34.717  21.545   7.316
 5144POPC   C1B66655  34.236  21.295   6.198
 5144POPC   C2B66656  34.162  21.332   6.657
 5144POPC   C3B66657  34.203  21.163   7.106
 5144POPC   C4B66658  34.156  21.108   7.585
 5145POPC   NC366659  17.245  24.749   5.604
 5145POPC   PO466660  17.639  24.308   5.235
 5145POPC   GL166661  17.628  24.395   5.725
 5145POPC   GL266662  17.658  24.733   5.919
 5145POPC   C1A66663  17.435  24.354   6.162
 5145POPC   D2A66664  17.655  24.591   6.473
 5145POPC   C3A66665  17.649  24.476   6.892
 5145POPC   C4A66666  17.873  24.647   7.234
 5145POPC   C1B66667  17.277  24.841   6.243
 5145POPC   C2B66668  17.226  24.758   6.704
 5145POPC   C3B66669  17.172  24.495   7.078
 5145POPC   C4B66670  17.212  24.064   7.156
 5146POPC   NC366671  19.216  41.550   5.586
 5146POPC   PO466672  18.879  40.978   5.646
 5146POPC   GL166673  18.840  41.347   5.932
 5146POPC   GL266674  18.881  41.735   5.991
 5146POPC   C1A66675  18.672  41.396   6.362
 5146POPC   D2A66676  18.792  41.320   6.805
 5146POPC   C3A66677  18.773  41.480   7.235
 5146POPC   C4A66678  18.626  41.309   7.691
 5146POPC   C1B66679  19.229  41.618   6.238
 5146POPC   C2B66680  19.350  41.633   6.652
 5146POPC   C3B66681  19.257  41.397   7.011
 5146POPC   C4B66682  19.427  41.463   7.397
 5147POPC   NC366683  23.019   0.010   5.271
 5147POPC   PO466684  22.741  44.323   5.372
 5147POPC   GL166685  22.838  44.587   5.762
 5147POPC   GL266686  23.158  44.705   5.698
 5147POPC   C1A66687  22.967  44.835   6.158
 5147POPC   D2A66688  23.166  44.825   6.535
 5147POPC   C3A66689  22.960  44.835   6.923
 5147POPC   C4A66690  23.185  44.806   7.304
 5147POPC   C1B66691  23.210  44.407   6.090
 5147POPC   C2B66692  23.133  44.298   6.537
 5147POPC   C3B66693  23.160  44.368   7.013
 5147POPC   C4B66694  23.315  44.343   7.472
 5148POPC   NC366695  44.261  41.125   5.559
 5148POPC   PO466696  44.803  40.861   5.162
 5148POPC   GL166697  44.959  40.847   5.633
 5148POPC   GL266698  44.960  41.199   5.680
 5148POPC   C1A66699  44.791  40.726   6.104
 5148POPC   D2A66700  44.466  40.773   6.486
 5148POPC   C3A66701  44.629  40.732   6.937
 5148POPC   C4A66702  44.454  40.418   7.251
 5148POPC   C1B66703   0.040  41.175   6.128
 5148POPC   C2B66704  44.910  41.005   6.551
 5148POPC   C3B66705  44.972  41.210   6.968
 5148POPC   C4B66706  44.951  41.032   7.371
 5149POPC   NC366707  26.851  42.667   5.360
 5149POPC   PO466708  27.004  43.360   5.305
 5149POPC   GL166709  26.922  43.132   5.691
 5149POPC   GL266710  26.644  42.888   5.772
 5149POPC   C1A66711  26.878  43.156   6.145
 5149POPC   D2A66712  26.731  43.341   6.506
 5149POPC   C3A66713  26.764  43.143   6.904
 5149POPC   C4A66714  26.696  43.328   7.291
 5149POPC   C1B66715  26.536  42.779   6.198
 5149POPC   C2B66716  26.727  42.706   6.603
 5149POPC   C3B66717  26.527  42.693   6.993
 5149POPC   C4B66718  26.659  42.819   7.377
 5150POPC   NC366719  21.696  41.027   5.345
 5150POPC   PO466720  21.278  40.546   5.480
 5150POPC   GL166721  21.202  40.808   5.877
 5150POPC   GL266722  21.545  40.842   5.968
 5150POPC   C1A66723  21.234  41.012   6.339
 5150POPC   D2A66724  21.460  41.187   6.735
 5150POPC   C3A66725  21.214  41.146   7.142
 5150POPC   C4A66726  21.093  40.843   7.494
 5150POPC   C1B66727  21.419  40.518   6.292
 5150POPC   C2B66728  21.160  40.474   6.702
 5150POPC   C3B66729  21.308  40.537   7.154
 5150POPC   C4B66730  21.606  40.451   7.551
 5151POPC   NC366731  17.056  43.050   5.341
 5151POPC   PO466732  17.349  43.579   5.631
 5151POPC   GL166733  17.529  43.257   5.840
 5151POPC   GL266734  17.265  43.023   5.827
 5151POPC   C1A66735  17.547  43.248   6.276
 5151POPC   D2A66736  17.324  43.198   6.673
 5151POPC   C3A66737  17.554  43.225   7.065
 5151POPC   C4A66738  17.766  43.485   7.386
 5151POPC   C1B66739  17.172  42.897   6.254
 5151POPC   C2B66740  17.358  42.704   6.675
 5151POPC   C3B66741  17.169  42.858   7.057
 5151POPC   C4B66742  17.140  42.734   7.486
 5152POPC   NC366743  15.210  18.827   5.551
 5152POPC   PO466744  15.077  19.413   5.451
 5152POPC   GL166745  15.117  19.180   5.889
 5152POPC   GL266746  14.797  18.999   5.892
 5152POPC   C1A66747  15.327  19.060   6.324
 5152POPC   D2A66748  15.109  19.026   6.715
 5152POPC   C3A66749  15.277  18.704   6.982
 5152POPC   C4A66750  15.583  18.892   7.260
 5152POPC   C1B66751  14.881  18.851   6.270
 5152POPC   C2B66752  14.711  18.720   6.655
 5152POPC   C3B66753  14.720  18.876   7.042
 5152POPC   C4B66754  15.066  19.084   7.241
 5153POPC   NC366755  40.535  18.334   5.246
 5153POPC   PO466756  41.073  18.314   5.603
 5153POPC   GL166757  40.837  18.577   5.910
 5153POPC   GL266758  40.492  18.681   5.804
 5153POPC   C1A66759  40.711  18.576   6.373
 5153POPC   D2A66760  40.735  18.322   6.735
 5153POPC   C3A66761  40.904  18.226   7.134
 5153POPC   C4A66762  40.935  18.434   7.492
 5153POPC   C1B66763  40.404  18.296   6.070
 5153POPC   C2B66764  40.297  18.159   6.533
 5153POPC   C3B66765  40.379  18.102   7.031
 5153POPC   C4B66766  40.521  18.025   7.473
 5154POPC   NC366767  42.503  37.970   5.498
 5154POPC   PO466768  42.188  37.410   5.425
 5154POPC   GL166769  42.330  37.395   5.826
 5154POPC   GL266770  42.595  37.539   5.818
 5154POPC   C1A66771  42.277  37.607   6.216
 5154POPC   D2A66772  42.325  37.841   6.574
 5154POPC   C3A66773  42.328  37.578   6.944
 5154POPC   C4A66774  42.288  37.765   7.317
 5154POPC   C1B66775  42.722  37.320   6.184
 5154POPC   C2B66776  42.695  37.482   6.596
 5154POPC   C3B66777  42.786  37.348   7.026
 5154POPC   C4B66778  42.611  37.381   7.452
 5155POPC   NC366779   6.153  43.700   5.442
 5155POPC   PO466780   5.491  43.741   5.389
 5155POPC   GL166781   5.712  43.770   5.781
 5155POPC   GL266782   5.922  44.054   5.791
 5155POPC   C1A66783   5.726  43.862   6.247
 5155POPC   D2A66784   6.012  43.870   6.609
 5155POPC   C3A66785   5.916  43.952   7.086
 5155POPC   C4A66786   5.831  44.044   7.570
 5155POPC   C1B66787   6.133  44.423   5.988
 5155POPC   C2B66788   6.235  44.423   6.417
 5155POPC   C3B66789   6.213  44.312   6.829
 5155POPC   C4B66790   6.014  44.456   7.191
 5156POPC   NC366791  30.336  18.142   5.108
 5156POPC   PO466792  30.289  18.429   5.707
 5156POPC   GL166793  30.504  18.202   5.993
 5156POPC   GL266794  30.811  18.264   5.867
 5156POPC   C1A66795  30.512  18.208   6.429
 5156POPC   D2A66796  30.572  18.536   6.730
 5156POPC   C3A66797  30.404  18.520   7.156
 5156POPC   C4A66798  30.586  18.192   7.419
 5156POPC   C1B66799  30.895  18.545   6.251
 5156POPC   C2B66800  31.067  18.633   6.696
 5156POPC   C3B66801  30.899  18.480   7.124
 5156POPC   C4B66802  31.023  18.448   7.600
 5157POPC   NC366803  12.305  18.829   5.319
 5157POPC   PO466804  11.923  19.318   5.537
 5157POPC   GL166805  12.179  19.081   5.777
 5157POPC   GL266806  11.973  18.763   5.742
 5157POPC   C1A66807  12.330  19.238   6.181
 5157POPC   D2A66808  12.057  19.295   6.518
 5157POPC   C3A66809  12.128  19.125   6.902
 5157POPC   C4A66810  12.453  19.161   7.160
 5157POPC   C1B66811  11.954  18.838   6.199
 5157POPC   C2B66812  12.093  18.678   6.600
 5157POPC   C3B66813  11.943  18.652   7.006
 5157POPC   C4B66814  12.078  18.877   7.370
 5158POPC   NC366815  29.640  20.357   5.427
 5158POPC   PO466816  29.135  20.652   5.064
 5158POPC   GL166817  29.231  20.735   5.585
 5158POPC   GL266818  28.887  20.720   5.808
 5158POPC   C1A66819  29.289  20.561   6.064
 5158POPC   D2A66820  29.074  20.380   6.454
 5158POPC   C3A66821  29.211  20.561   6.848
 5158POPC   C4A66822  29.444  20.471   7.218
 5158POPC   C1B66823  28.707  20.964   6.129
 5158POPC   C2B66824  28.550  20.891   6.549
 5158POPC   C3B66825  28.693  20.692   6.917
 5158POPC   C4B66826  28.941  20.658   7.271
 5159POPC   NC366827   0.956  16.932   5.494
 5159POPC   PO466828   1.291  16.375   5.386
 5159POPC   GL166829   1.262  16.603   5.794
 5159POPC   GL266830   1.439  16.903   5.870
 5159POPC   C1A66831   1.313  16.533   6.253
 5159POPC   D2A66832   1.100  16.633   6.641
 5159POPC   C3A66833   1.257  16.465   7.026
 5159POPC   C4A66834   1.060  16.289   7.397
 5159POPC   C1B66835   1.149  17.027   6.181
 5159POPC   C2B66836   1.270  17.118   6.593
 5159POPC   C3B66837   1.117  17.010   6.989
 5159POPC   C4B66838   0.882  17.249   7.280
 5160POPC   NC366839  17.750  43.725   5.449
 5160POPC   PO466840  18.210  44.131   5.426
 5160POPC   GL166841  18.241  43.832   5.745
 5160POPC   GL266842  18.591  43.905   5.812
 5160POPC   C1A66843  18.271  43.635   6.150
 5160POPC   D2A66844  18.222  43.795   6.561
 5160POPC   C3A66845  18.066  43.646   6.967
 5160POPC   C4A66846  18.202  43.793   7.398
 5160POPC   C1B66847  18.797  43.623   6.079
 5160POPC   C2B66848  18.698  43.567   6.521
 5160POPC   C3B66849  18.584  43.729   6.928
 5160POPC   C4B66850  18.650  43.987   7.284
 5161POPC   NC366851  23.153  31.341   5.513
 5161POPC   PO466852  22.594  31.645   5.439
 5161POPC   GL166853  22.874  31.655   5.802
 5161POPC   GL266854  23.273  31.732   5.824
 5161POPC   C1A66855  22.801  31.486   6.212
 5161POPC   D2A66856  22.703  31.191   6.540
 5161POPC   C3A66857  22.841  31.382   6.914
 5161POPC   C4A66858  22.906  31.758   7.136
 5161POPC   C1B66859  23.315  31.559   6.263
 5161POPC   C2B66860  23.290  31.617   6.718
 5161POPC   C3B66861  23.296  31.439   7.128
 5161POPC   C4B66862  23.020  31.181   7.370
 5162POPC   NC366863  14.156  38.222   5.382
 5162POPC   PO466864  14.810  38.491   5.405
 5162POPC   GL166865  14.527  38.434   5.786
 5162POPC   GL266866  14.455  38.792   5.895
 5162POPC   C1A66867  14.353  38.271   6.215
 5162POPC   D2A66868  14.314  38.064   6.656
 5162POPC   C3A66869  14.553  38.209   7.031
 5162POPC   C4A66870  14.540  38.317   7.474
 5162POPC   C1B66871  14.221  38.814   6.282
 5162POPC   C2B66872  14.297  38.918   6.696
 5162POPC   C3B66873  14.599  38.734   6.964
 5162POPC   C4B66874  14.675  38.824   7.393
 5163POPC   NC366875   7.827  21.138   5.434
 5163POPC   PO466876   8.520  21.215   5.271
 5163POPC   GL166877   8.353  21.303   5.680
 5163POPC   GL266878   8.241  21.006   5.804
 5163POPC   C1A66879   8.319  21.502   6.096
 5163POPC   D2A66880   8.469  21.507   6.539
 5163POPC   C3A66881   8.211  21.604   6.899
 5163POPC   C4A66882   8.301  21.669   7.311
 5163POPC   C1B66883   8.112  21.080   6.255
 5163POPC   C2B66884   8.035  21.170   6.680
 5163POPC   C3B66885   8.006  21.081   7.110
 5163POPC   C4B66886   8.036  21.217   7.541
 5164POPC   NC366887  39.441  25.788   5.707
 5164POPC   PO466888  39.324  25.271   5.351
 5164POPC   GL166889  39.298  25.072   5.791
 5164POPC   GL266890  38.968  24.851   5.863
 5164POPC   C1A66891  39.176  25.171   6.231
 5164POPC   D2A66892  38.993  25.441   6.566
 5164POPC   C3A66893  39.282  25.436   6.912
 5164POPC   C4A66894  39.467  25.257   7.267
 5164POPC   C1B66895  38.788  24.808   6.301
 5164POPC   C2B66896  38.991  24.933   6.684
 5164POPC   C3B66897  38.989  25.040   7.110
 5164POPC   C4B66898  38.804  24.880   7.500
 5165POPC   NC366899  18.867  23.421   5.528
 5165POPC   PO466900  18.928  22.735   5.485
 5165POPC   GL166901  18.715  22.805   5.856
 5165POPC   GL266902  18.601  23.161   5.914
 5165POPC   C1A66903  18.940  22.610   6.189
 5165POPC   D2A66904  19.124  22.610   6.573
 5165POPC   C3A66905  18.895  22.576   6.939
 5165POPC   C4A66906  19.097  22.541   7.323
 5165POPC   C1B66907  18.930  23.151   6.243
 5165POPC   C2B66908  19.079  23.124   6.676
 5165POPC   C3B66909  19.045  23.037   7.125
 5165POPC   C4B66910  19.268  22.999   7.528
 5166POPC   NC366911  15.411  43.276   5.464
 5166POPC   PO466912  14.901  42.777   5.240
 5166POPC   GL166913  15.049  42.960   5.711
 5166POPC   GL266914  15.348  42.842   5.994
 5166POPC   C1A66915  15.032  43.187   6.148
 5166POPC   D2A66916  15.096  42.875   6.489
 5166POPC   C3A66917  15.223  42.930   6.934
 5166POPC   C4A66918  15.114  43.318   7.159
 5166POPC   C1B66919  15.545  43.211   6.164
 5166POPC   C2B66920  15.422  43.263   6.584
 5166POPC   C3B66921  15.598  43.301   6.980
 5166POPC   C4B66922  15.835  43.565   7.214
 5167POPC   NC366923  20.264  20.118   5.486
 5167POPC   PO466924  20.804  19.728   5.216
 5167POPC   GL166925  20.658  19.816   5.645
 5167POPC   GL266926  20.756  20.171   5.705
 5167POPC   C1A66927  20.513  19.760   6.096
 5167POPC   D2A66928  20.213  19.799   6.459
 5167POPC   C3A66929  20.392  19.829   6.879
 5167POPC   C4A66930  20.410  19.682   7.319
 5167POPC   C1B66931  20.949  19.995   6.086
 5167POPC   C2B66932  20.897  19.741   6.445
 5167POPC   C3B66933  20.896  19.704   6.860
 5167POPC   C4B66934  20.874  19.860   7.243
 5168POPC   NC366935  41.947  35.729   5.306
 5168POPC   PO466936  42.581  35.406   5.453
 5168POPC   GL166937  42.417  35.359   5.861
 5168POPC   GL266938  42.070  35.343   5.776
 5168POPC   C1A66939  42.384  35.434   6.318
 5168POPC   D2A66940  42.686  35.509   6.664
 5168POPC   C3A66941  42.633  35.469   7.094
 5168POPC   C4A66942  42.915  35.382   7.379
 5168POPC   C1B66943  42.143  34.998   6.085
 5168POPC   C2B66944  42.141  35.022   6.518
 5168POPC   C3B66945  42.254  35.226   6.879
 5168POPC   C4B66946  42.179  35.028   7.257
 5169POPC   NC366947   8.833   9.853   5.249
 5169POPC   PO466948   9.365   9.491   5.188
 5169POPC   GL166949   9.142   9.639   5.633
 5169POPC   GL266950   8.793   9.843   5.736
 5169POPC   C1A66951   8.994   9.591   6.106
 5169POPC   D2A66952   8.732   9.690   6.492
 5169POPC   C3A66953   8.927   9.829   6.878
 5169POPC   C4A66954   9.130   9.641   7.245
 5169POPC   C1B66955   8.826  10.081   6.133
 5169POPC   C2B66956   8.903  10.254   6.542
 5169POPC   C3B66957   8.651  10.269   6.913
 5169POPC   C4B66958   8.696   9.997   7.290
 5170POPC   NC366959  19.606  24.736   5.087
 5170POPC   PO466960  20.035  24.273   5.373
 5170POPC   GL166961  19.919  24.490   5.760
 5170POPC   GL266962  20.064  24.838   5.752
 5170POPC   C1A66963  19.869  24.319   6.197
 5170POPC   D2A66964  20.105  24.124   6.555
 5170POPC   C3A66965  20.090  24.382   6.908
 5170POPC   C4A66966  19.767  24.564   7.172
 5170POPC   C1B66967  20.006  24.818   6.227
 5170POPC   C2B66968  19.747  24.668   6.598
 5170POPC   C3B66969  19.518  24.925   6.915
 5170POPC   C4B66970  19.786  25.092   7.223
 5171POPC   NC366971  27.335   0.138   5.512
 5171POPC   PO466972  27.760   0.745   5.461
 5171POPC   GL166973  27.596   0.454   5.824
 5171POPC   GL266974  27.737   0.102   5.876
 5171POPC   C1A66975  27.338   0.251   6.176
 5171POPC   D2A66976  27.421   0.355   6.578
 5171POPC   C3A66977  27.426   0.105   6.904
 5171POPC   C4A66978  27.559   0.286   7.297
 5171POPC   C1B66979  27.857   0.265   6.300
 5171POPC   C2B66980  27.903   0.251   6.766
 5171POPC   C3B66981  28.027   0.118   7.164
 5171POPC   C4B66982  27.798  44.869   7.515
 5172POPC   NC366983  37.566  36.489   5.370
 5172POPC   PO466984  38.080  36.048   5.476
 5172POPC   GL166985  37.856  36.328   5.780
 5172POPC   GL266986  37.517  36.141   5.850
 5172POPC   C1A66987  37.786  36.321   6.235
 5172POPC   D2A66988  37.951  35.979   6.488
 5172POPC   C3A66989  37.960  36.098   6.901
 5172POPC   C4A66990  37.767  36.452   7.135
 5172POPC   C1B66991  37.345  36.012   6.283
 5172POPC   C2B66992  37.414  36.058   6.756
 5172POPC   C3B66993  37.563  36.008   7.210
 5172POPC   C4B66994  37.379  36.115   7.621
 5173POPC   NC366995  14.915   9.461   5.569
 5173POPC   PO466996  15.430   9.354   5.087
 5173POPC   GL166997  15.340   9.142   5.544
 5173POPC   GL266998  15.030   8.956   5.678
 5173POPC   C1A66999  15.404   8.976   6.019
 5173POPC   D2A67000  15.534   8.945   6.483
 5173POPC   C3A67001  15.303   9.009   6.890
 5173POPC   C4A67002  15.305   9.206   7.327
 5173POPC   C1B67003  14.888   8.802   6.058
 5173POPC   C2B67004  15.042   8.783   6.471
 5173POPC   C3B67005  14.925   8.615   6.855
 5173POPC   C4B67006  14.951   8.847   7.224
 5174POPC   NC367007  17.735  12.116   4.799
 5174POPC   PO467008  17.300  11.981   5.315
 5174POPC   GL167009  17.463  11.824   5.724
 5174POPC   GL267010  17.366  12.134   5.859
 5174POPC   C1A67011  17.710  11.869   6.164
 5174POPC   D2A67012  17.531  11.774   6.614
 5174POPC   C3A67013  17.715  11.935   7.058
 5174POPC   C4A67014  17.782  11.854   7.535
 5174POPC   C1B67015  17.213  11.859   6.189
 5174POPC   C2B67016  17.046  11.916   6.606
 5174POPC   C3B67017  17.197  11.902   7.014
 5174POPC   C4B67018  17.287  11.922   7.419
 5175POPC   NC367019  26.602  18.613   5.481
 5175POPC   PO467020  26.995  19.247   5.432
 5175POPC   GL167021  26.843  18.972   5.800
 5175POPC   GL267022  26.525  18.795   5.966
 5175POPC   C1A67023  26.969  18.945   6.225
 5175POPC   D2A67024  27.236  19.171   6.501
 5175POPC   C3A67025  27.138  19.064   6.905
 5175POPC   C4A67026  27.028  18.753   7.217
 5175POPC   C1B67027  26.542  19.212   6.203
 5175POPC   C2B67028  26.720  19.229   6.629
 5175POPC   C3B67029  26.656  19.049   7.049
 5175POPC   C4B67030  26.420  18.968   7.433
 5176POPC   NC367031  41.268  33.835   5.399
 5176POPC   PO467032  41.914  33.515   5.465
 5176POPC   GL167033  41.587  33.586   5.805
 5176POPC   GL267034  41.592  33.934   5.838
 5176POPC   C1A67035  41.427  33.685   6.258
 5176POPC   D2A67036  41.423  33.421   6.657
 5176POPC   C3A67037  41.601  33.633   7.002
 5176POPC   C4A67038  41.830  33.618   7.357
 5176POPC   C1B67039  41.877  33.974   6.227
 5176POPC   C2B67040  41.728  34.053   6.685
 5176POPC   C3B67041  41.860  34.081   7.152
 5176POPC   C4B67042  41.795  34.197   7.629
 5177POPC   NC367043  10.767  17.057   5.595
 5177POPC   PO467044  10.202  16.693   5.444
 5177POPC   GL167045  10.351  16.844   5.829
 5177POPC   GL267046  10.492  16.515   5.864
 5177POPC   C1A67047  10.532  16.814   6.261
 5177POPC   D2A67048  10.713  17.023   6.606
 5177POPC   C3A67049  10.704  16.801   6.963
 5177POPC   C4A67050  10.635  16.984   7.348
 5177POPC   C1B67051  10.219  16.299   6.183
 5177POPC   C2B67052  10.224  16.192   6.645
 5177POPC   C3B67053  10.389  16.378   7.055
 5177POPC   C4B67054  10.465  16.536   7.487
 5178POPC   NC367055  34.711  20.496   5.553
 5178POPC   PO467056  34.140  20.739   5.397
 5178POPC   GL167057  34.299  20.693   5.805
 5178POPC   GL267058  34.524  20.975   5.844
 5178POPC   C1A67059  34.422  20.402   6.143
 5178POPC   D2A67060  34.230  20.344   6.542
 5178POPC   C3A67061  34.422  20.637   6.857
 5178POPC   C4A67062  34.615  20.518   7.263
 5178POPC   C1B67063  34.805  20.777   6.169
 5178POPC   C2B67064  34.982  20.690   6.577
 5178POPC   C3B67065  34.897  20.829   6.985
 5178POPC   C4B67066  35.110  20.792   7.393
 5179POPC   NC367067  16.539  34.775   5.253
 5179POPC   PO467068  17.069  35.003   5.536
 5179POPC   GL167069  16.729  34.717   5.767
 5179POPC   GL267070  16.924  34.477   5.981
 5179POPC   C1A67071  16.470  34.610   6.154
 5179POPC   D2A67072  16.717  34.408   6.473
 5179POPC   C3A67073  16.686  34.459   6.912
 5179POPC   C4A67074  16.699  34.479   7.352
 5179POPC   C1B67075  16.917  34.828   6.254
 5179POPC   C2B67076  17.048  34.765   6.678
 5179POPC   C3B67077  17.098  35.006   7.058
 5179POPC   C4B67078  16.975  34.886   7.477
 5180POPC   NC367079  20.046  37.546   5.387
 5180POPC   PO467080  19.414  37.290   5.425
 5180POPC   GL167081  19.623  37.507   5.785
 5180POPC   GL267082  19.950  37.628   5.882
 5180POPC   C1A67083  19.544  37.736   6.192
 5180POPC   D2A67084  19.617  37.958   6.600
 5180POPC   C3A67085  19.913  37.707   6.833
 5180POPC   C4A67086  20.068  37.296   7.026
 5180POPC   C1B67087  20.035  37.857   6.275
 5180POPC   C2B67088  20.350  37.956   6.565
 5180POPC   C3B67089  20.309  38.101   6.997
 5180POPC   C4B67090  20.128  37.806   7.285
 5181POPC   NC367091  12.645  27.813   5.281
 5181POPC   PO467092  12.843  27.177   5.221
 5181POPC   GL167093  12.711  27.387   5.616
 5181POPC   GL267094  12.968  27.633   5.737
 5181POPC   C1A67095  12.614  27.398   6.078
 5181POPC   D2A67096  12.591  27.693   6.434
 5181POPC   C3A67097  12.529  27.595   6.870
 5181POPC   C4A67098  12.725  27.461   7.262
 5181POPC   C1B67099  13.060  27.665   6.220
 5181POPC   C2B67100  13.044  27.577   6.698
 5181POPC   C3B67101  13.233  27.524   7.128
 5181POPC   C4B67102  13.199  27.755   7.543
 5182POPC   NC367103  32.831  22.265   5.390
 5182POPC   PO467104  33.508  22.434   5.479
 5182POPC   GL167105  33.245  22.362   5.814
 5182POPC   GL267106  33.240  22.026   5.804
 5182POPC   C1A67107  33.103  22.278   6.244
 5182POPC   D2A67108  33.217  22.076   6.635
 5182POPC   C3A67109  33.086  22.303   6.978
 5182POPC   C4A67110  33.213  22.254   7.419
 5182POPC   C1B67111  32.909  21.838   6.052
 5182POPC   C2B67112  32.749  21.897   6.444
 5182POPC   C3B67113  32.730  21.855   6.862
 5182POPC   C4B67114  33.030  21.847   7.170
 5183POPC   NC367115  11.835   0.387   5.554
 5183POPC   PO467116  12.115   0.697   5.095
 5183POPC   GL167117  12.315   0.630   5.624
 5183POPC   GL267118  12.268   0.304   5.822
 5183POPC   C1A67119  12.251   0.683   6.163
 5183POPC   D2A67120  12.168   0.495   6.607
 5183POPC   C3A67121  12.056   0.686   7.050
 5183POPC   C4A67122  12.015   0.440   7.467
 5183POPC   C1B67123  12.452   0.198   6.235
 5183POPC   C2B67124  12.364   0.018   6.642
 5183POPC   C3B67125  12.188   0.180   7.026
 5183POPC   C4B67126  12.450   0.152   7.382
 5184POPC   NC367127   8.855   3.187   5.577
 5184POPC   PO467128   9.302   2.735   5.307
 5184POPC   GL167129   9.161   2.802   5.739
 5184POPC   GL267130   9.334   3.099   5.752
 5184POPC   C1A67131   9.007   2.633   6.144
 5184POPC   D2A67132   8.949   2.859   6.542
 5184POPC   C3A67133   8.968   2.670   6.919
 5184POPC   C4A67134   8.880   2.968   7.230
 5184POPC   C1B67135   9.212   3.106   6.186
 5184POPC   C2B67136   9.428   3.114   6.593
 5184POPC   C3B67137   9.317   3.153   7.044
 5184POPC   C4B67138   9.201   3.285   7.473
 5185POPC   NC367139  35.929  25.929   5.659
 5185POPC   PO467140  35.350  26.013   5.265
 5185POPC   GL167141  35.304  26.035   5.719
 5185POPC   GL267142  35.132  26.365   5.768
 5185POPC   C1A67143  35.426  26.136   6.167
 5185POPC   D2A67144  35.585  26.390   6.536
 5185POPC   C3A67145  35.602  26.227   6.960
 5185POPC   C4A67146  35.686  25.831   7.131
 5185POPC   C1B67147  35.034  26.483   6.195
 5185POPC   C2B67148  35.098  26.238   6.565
 5185POPC   C3B67149  35.144  26.010   6.953
 5185POPC   C4B67150  35.113  26.070   7.392
 5186POPC   NC367151  17.600  22.444   5.381
 5186POPC   PO467152  17.071  21.934   5.466
 5186POPC   GL167153  17.329  22.187   5.769
 5186POPC   GL267154  17.663  22.136   5.800
 5186POPC   C1A67155  17.326  22.030   6.216
 5186POPC   D2A67156  17.196  21.877   6.638
 5186POPC   C3A67157  17.375  22.088   7.011
 5186POPC   C4A67158  17.305  22.487   7.229
 5186POPC   C1B67159  17.856  22.066   6.186
 5186POPC   C2B67160  17.720  22.087   6.617
 5186POPC   C3B67161  17.918  22.191   7.033
 5186POPC   C4B67162  17.677  22.160   7.428
 5187POPC   NC367163  24.786  36.554   5.489
 5187POPC   PO467164  24.264  36.885   5.336
 5187POPC   GL167165  24.342  36.919   5.772
 5187POPC   GL267166  24.572  36.671   5.945
 5187POPC   C1A67167  24.419  37.103   6.173
 5187POPC   D2A67168  24.358  36.861   6.521
 5187POPC   C3A67169  24.285  36.947   6.947
 5187POPC   C4A67170  24.401  36.693   7.312
 5187POPC   C1B67171  24.823  36.763   6.301
 5187POPC   C2B67172  24.829  36.755   6.740
 5187POPC   C3B67173  24.784  36.990   7.128
 5187POPC   C4B67174  24.740  36.961   7.602
 5188POPC   NC367175  19.226   8.609   5.391
 5188POPC   PO467176  18.779   9.096   5.392
 5188POPC   GL167177  18.995   9.036   5.758
 5188POPC   GL267178  18.674   8.973   5.892
 5188POPC   C1A67179  19.090   8.970   6.217
 5188POPC   D2A67180  19.004   9.064   6.659
 5188POPC   C3A67181  19.269   9.010   7.044
 5188POPC   C4A67182  19.303   9.352   7.347
 5188POPC   C1B67183  18.626   8.661   6.211
 5188POPC   C2B67184  18.680   8.536   6.681
 5188POPC   C3B67185  18.780   8.807   7.054
 5188POPC   C4B67186  18.689   8.960   7.471
 5189POPC   NC367187  29.308  31.649   5.378
 5189POPC   PO467188  28.690  31.353   5.192
 5189POPC   GL167189  28.871  31.535   5.651
 5189POPC   GL267190  29.202  31.437   5.836
 5189POPC   C1A67191  28.868  31.638   6.134
 5189POPC   D2A67192  28.949  31.777   6.575
 5189POPC   C3A67193  28.872  31.428   6.861
 5189POPC   C4A67194  28.838  31.187   7.259
 5189POPC   C1B67195  29.085  31.177   6.212
 5189POPC   C2B67196  29.151  31.016   6.635
 5189POPC   C3B67197  29.330  31.165   7.047
 5189POPC   C4B67198  29.325  31.184   7.523
 5190POPC   NC367199  18.870  26.807   5.199
 5190POPC   PO467200  19.489  26.906   5.264
 5190POPC   GL167201  19.108  26.986   5.621
 5190POPC   GL267202  19.112  26.706   5.845
 5190POPC   C1A67203  18.809  27.073   6.035
 5190POPC   D2A67204  18.913  27.177   6.519
 5190POPC   C3A67205  18.776  27.012   6.931
 5190POPC   C4A67206  18.744  26.955   7.388
 5190POPC   C1B67207  19.178  26.809   6.277
 5190POPC   C2B67208  19.151  26.713   6.733
 5190POPC   C3B67209  19.117  26.670   7.163
 5190POPC   C4B67210  18.867  26.480   7.510
 5191POPC   NC367211  44.504  33.647   5.752
 5191POPC   PO467212  44.240  34.193   5.366
 5191POPC   GL167213  44.215  34.095   5.813
 5191POPC   GL267214  44.583  34.118   5.893
 5191POPC   C1A67215  44.248  33.987   6.265
 5191POPC   D2A67216  44.421  33.922   6.674
 5191POPC   C3A67217  44.278  33.721   7.048
 5191POPC   C4A67218  44.618  33.470   7.256
 5191POPC   C1B67219  44.781  34.060   6.325
 5191POPC   C2B67220  44.905  34.041   6.787
 5191POPC   C3B67221  44.678  34.089   7.195
 5191POPC   C4B67222  44.757  34.156   7.674
 5192POPC   NC367223  24.249  10.164   5.309
 5192POPC   PO467224  23.840  10.766   5.378
 5192POPC   GL167225  23.772  10.639   5.743
 5192POPC   GL267226  23.842  10.293   5.661
 5192POPC   C1A67227  23.874  10.620   6.167
 5192POPC   D2A67228  23.685  10.700   6.570
 5192POPC   C3A67229  23.897  10.645   6.952
 5192POPC   C4A67230  23.733  10.686   7.359
 5192POPC   C1B67231  23.541  10.269   5.991
 5192POPC   C2B67232  23.530  10.235   6.409
 5192POPC   C3B67233  23.538  10.251   6.830
 5192POPC   C4B67234  23.536  10.196   7.246
 5193POPC   NC367235  24.573  32.578   5.175
 5193POPC   PO467236  24.248  33.078   5.448
 5193POPC   GL167237  24.337  33.235   5.826
 5193POPC   GL267238  24.019  33.325   6.002
 5193POPC   C1A67239  24.611  33.004   6.118
 5193POPC   D2A67240  24.747  33.145   6.503
 5193POPC   C3A67241  24.789  32.880   6.816
 5193POPC   C4A67242  24.727  33.150   7.132
 5193POPC   C1B67243  24.103  32.890   6.135
 5193POPC   C2B67244  24.312  32.781   6.515
 5193POPC   C3B67245  24.297  33.033   6.872
 5193POPC   C4B67246  24.100  33.025   7.267
 5194POPC   NC367247  15.928  22.036   5.358
 5194POPC   PO467248  15.560  22.564   5.439
 5194POPC   GL167249  15.624  22.192   5.745
 5194POPC   GL267250  15.993  22.120   5.859
 5194POPC   C1A67251  15.584  21.989   6.151
 5194POPC   D2A67252  15.777  21.978   6.548
 5194POPC   C3A67253  15.815  22.360   6.786
 5194POPC   C4A67254  15.782  22.390   7.225
 5194POPC   C1B67255  16.198  21.944   6.229
 5194POPC   C2B67256  16.257  22.116   6.632
 5194POPC   C3B67257  16.126  22.033   7.023
 5194POPC   C4B67258  16.239  22.175   7.383
 5195POPC   NC367259  22.148  34.884   5.378
 5195POPC   PO467260  21.679  34.297   5.284
 5195POPC   GL167261  21.836  34.338   5.740
 5195POPC   GL267262  22.068  34.632   5.813
 5195POPC   C1A67263  22.030  34.290   6.184
 5195POPC   D2A67264  22.122  34.601   6.526
 5195POPC   C3A67265  22.300  34.562   6.940
 5195POPC   C4A67266  22.085  34.517   7.333
 5195POPC   C1B67267  22.287  34.897   6.151
 5195POPC   C2B67268  22.140  35.114   6.567
 5195POPC   C3B67269  22.033  35.002   7.005
 5195POPC   C4B67270  22.323  34.969   7.377
 5196POPC   NC367271  25.762  18.991   5.487
 5196POPC   PO467272  26.350  19.041   5.573
 5196POPC   GL167273  26.091  19.164   5.910
 5196POPC   GL267274  25.706  19.191   5.952
 5196POPC   C1A67275  26.128  18.914   6.273
 5196POPC   D2A67276  26.391  18.817   6.588
 5196POPC   C3A67277  26.188  18.794   6.967
 5196POPC   C4A67278  26.196  18.527   7.303
 5196POPC   C1B67279  25.811  19.289   6.389
 5196POPC   C2B67280  26.205  19.329   6.599
 5196POPC   C3B67281  26.230  19.299   7.022
 5196POPC   C4B67282  25.866  19.143   7.208
 5197POPC   NC367283  38.598  41.088   5.494
 5197POPC   PO467284  38.151  40.634   5.101
 5197POPC   GL167285  38.190  40.813   5.576
 5197POPC   GL267286  38.453  40.650   5.763
 5197POPC   C1A67287  38.147  40.805   6.092
 5197POPC   D2A67288  38.384  41.063   6.403
 5197POPC   C3A67289  38.333  40.951   6.852
 5197POPC   C4A67290  38.514  41.080   7.240
 5197POPC   C1B67291  38.714  40.715   6.119
 5197POPC   C2B67292  38.951  40.664   6.501
 5197POPC   C3B67293  38.805  40.745   6.914
 5197POPC   C4B67294  38.693  40.600   7.305
 5198POPC   NC367295   6.411   8.751   5.533
 5198POPC   PO467296   6.762   8.197   5.331
 5198POPC   GL167297   6.593   8.302   5.756
 5198POPC   GL267298   6.759   8.618   5.898
 5198POPC   C1A67299   6.521   8.046   6.145
 5198POPC   D2A67300   6.672   7.977   6.559
 5198POPC   C3A67301   6.880   8.174   6.891
 5198POPC   C4A67302   6.729   7.988   7.249
 5198POPC   C1B67303   6.400   8.536   6.189
 5198POPC   C2B67304   6.246   8.295   6.540
 5198POPC   C3B67305   6.367   8.204   6.954
 5198POPC   C4B67306   6.356   8.372   7.375
 5199POPC   NC367307  12.726  24.077   5.316
 5199POPC   PO467308  12.014  23.901   5.366
 5199POPC   GL167309  12.108  23.676   5.761
 5199POPC   GL267310  12.409  23.456   5.730
 5199POPC   C1A67311  12.050  23.756   6.220
 5199POPC   D2A67312  12.060  24.093   6.514
 5199POPC   C3A67313  12.182  24.011   6.913
 5199POPC   C4A67314  12.140  23.645   7.186
 5199POPC   C1B67315  12.512  23.623   6.134
 5199POPC   C2B67316  12.411  23.490   6.577
 5199POPC   C3B67317  12.565  23.406   7.023
 5199POPC   C4B67318  12.505  23.249   7.465
 5200POPC   NC367319  27.538  16.980   5.441
 5200POPC   PO467320  26.858  17.195   5.467
 5200POPC   GL167321  26.913  16.942   5.858
 5200POPC   GL267322  27.254  17.045   5.876
 5200POPC   C1A67323  26.666  16.769   6.259
 5200POPC   D2A67324  26.531  16.446   6.586
 5200POPC   C3A67325  26.604  16.546   7.023
 5200POPC   C4A67326  26.561  16.349   7.446
 5200POPC   C1B67327  27.019  17.134   6.311
 5200POPC   C2B67328  26.816  16.995   6.710
 5200POPC   C3B67329  26.973  16.858   7.125
 5200POPC   C4B67330  26.947  16.673   7.547
 5201POPC   NC367331  39.740   5.485   5.103
 5201POPC   PO467332  40.239   5.939   5.333
 5201POPC   GL167333  40.092   5.838   5.720
 5201POPC   GL267334  39.765   5.899   5.653
 5201POPC   C1A67335  39.885   5.614   6.082
 5201POPC   D2A67336  39.783   5.722   6.501
 5201POPC   C3A67337  40.017   5.703   6.912
 5201POPC   C4A67338  40.315   5.955   7.169
 5201POPC   C1B67339  39.873   6.121   6.093
 5201POPC   C2B67340  39.639   6.243   6.480
 5201POPC   C3B67341  39.643   6.346   6.916
 5201POPC   C4B67342  39.784   6.046   7.214
 5202POPC   NC367343  35.042  40.704   5.521
 5202POPC   PO467344  35.644  41.015   5.440
 5202POPC   GL167345  35.504  40.757   5.771
 5202POPC   GL267346  35.287  41.051   5.827
 5202POPC   C1A67347  35.266  40.690   6.184
 5202POPC   D2A67348  34.933  40.809   6.498
 5202POPC   C3A67349  35.181  40.811   6.859
 5202POPC   C4A67350  35.409  40.563   7.169
 5202POPC   C1B67351  35.596  41.142   6.142
 5202POPC   C2B67352  35.761  41.063   6.558
 5202POPC   C3B67353  35.646  41.037   6.975
 5202POPC   C4B67354  35.339  41.056   7.280
 5203POPC   NC367355  30.405   4.657   5.301
 5203POPC   PO467356  30.814   4.083   5.342
 5203POPC   GL167357  30.538   4.117   5.716
 5203POPC   GL267358  30.409   3.804   5.846
 5203POPC   C1A67359  30.622   4.300   6.148
 5203POPC   D2A67360  30.572   4.633   6.461
 5203POPC   C3A67361  30.723   4.622   6.874
 5203POPC   C4A67362  30.686   4.357   7.229
 5203POPC   C1B67363  30.184   4.033   6.174
 5203POPC   C2B67364  30.348   4.175   6.598
 5203POPC   C3B67365  30.323   4.020   7.053
 5203POPC   C4B67366  30.412   4.062   7.524
 5204POPC   NC367367   4.195  41.035   5.499
 5204POPC   PO467368   4.454  40.447   5.466
 5204POPC   GL167369   4.257  40.627   5.831
 5204POPC   GL267370   4.446  40.912   5.918
 5204POPC   C1A67371   4.057  40.793   6.229
 5204POPC   D2A67372   4.162  40.708   6.648
 5204POPC   C3A67373   4.274  40.956   7.035
 5204POPC   C4A67374   4.101  40.752   7.424
 5204POPC   C1B67375   4.554  40.835   6.336
 5204POPC   C2B67376   4.641  40.707   6.771
 5204POPC   C3B67377   4.450  40.477   7.121
 5204POPC   C4B67378   4.406  40.319   7.546
 5205POPC   NC367379  40.696  32.862   5.225
 5205POPC   PO467380  40.309  33.257   5.621
 5205POPC   GL167381  40.665  32.983   5.753
 5205POPC   GL267382  40.480  32.713   5.937
 5205POPC   C1A67383  40.923  32.878   6.141
 5205POPC   D2A67384  40.927  33.065   6.541
 5205POPC   C3A67385  40.725  33.000   6.940
 5205POPC   C4A67386  40.934  33.190   7.283
 5205POPC   C1B67387  40.461  33.101   6.241
 5205POPC   C2B67388  40.469  33.365   6.624
 5205POPC   C3B67389  40.554  33.479   7.055
 5205POPC   C4B67390  40.481  33.228   7.484
 5206POPC   NC367391  41.821  40.710   5.272
 5206POPC   PO467392  41.199  40.468   5.402
 5206POPC   GL167393  41.406  40.535   5.846
 5206POPC   GL267394  41.782  40.599   5.796
 5206POPC   C1A67395  41.519  40.500   6.299
 5206POPC   D2A67396  41.420  40.773   6.686
 5206POPC   C3A67397  41.355  40.625   7.132
 5206POPC   C4A67398  41.424  40.467   7.636
 5206POPC   C1B67399  41.839  40.896   6.135
 5206POPC   C2B67400  41.946  40.769   6.542
 5206POPC   C3B67401  41.845  40.554   6.919
 5206POPC   C4B67402  41.803  40.709   7.355
 5207POPC   NC367403   9.769  13.855   5.426
 5207POPC   PO467404   9.812  13.237   5.347
 5207POPC   GL167405   9.848  13.373   5.754
 5207POPC   GL267406   9.592  13.603   5.851
 5207POPC   C1A67407   9.945  13.292   6.183
 5207POPC   D2A67408   9.983  13.513   6.575
 5207POPC   C3A67409   9.863  13.344   6.949
 5207POPC   C4A67410   9.497  13.439   7.169
 5207POPC   C1B67411   9.892  13.819   6.145
 5207POPC   C2B67412   9.828  14.047   6.536
 5207POPC   C3B67413   9.756  13.881   6.924
 5207POPC   C4B67414   9.915  13.733   7.298
 5208POPC   NC367415  37.256  41.281   5.271
 5208POPC   PO467416  36.855  41.774   5.477
 5208POPC   GL167417  37.075  41.704   5.853
 5208POPC   GL267418  37.008  41.398   5.806
 5208POPC   C1A67419  37.128  41.624   6.318
 5208POPC   D2A67420  36.816  41.561   6.686
 5208POPC   C3A67421  36.949  41.630   7.090
 5208POPC   C4A67422  37.267  41.903   7.088
 5208POPC   C1B67423  36.742  41.337   6.198
 5208POPC   C2B67424  36.853  41.084   6.544
 5208POPC   C3B67425  36.629  41.050   6.898
 5208POPC   C4B67426  36.547  41.363   7.226
 5209POPC   NC367427   6.909  35.141   5.484
 5209POPC   PO467428   6.433  35.519   5.148
 5209POPC   GL167429   6.385  35.551   5.717
 5209POPC   GL267430   6.697  35.326   5.898
 5209POPC   C1A67431   6.474  35.585   6.233
 5209POPC   D2A67432   6.700  35.317   6.488
 5209POPC   C3A67433   6.687  35.351   6.908
 5209POPC   C4A67434   6.477  35.576   7.175
 5209POPC   C1B67435   6.939  35.010   6.175
 5209POPC   C2B67436   6.946  34.888   6.660
 5209POPC   C3B67437   7.041  35.068   7.091
 5209POPC   C4B67438   6.729  35.182   7.428
 5210POPC   NC367439  38.526  34.267   5.581
 5210POPC   PO467440  37.881  34.456   5.525
 5210POPC   GL167441  38.171  34.609   5.825
 5210POPC   GL267442  38.428  34.877   5.723
 5210POPC   C1A67443  38.361  34.430   6.208
 5210POPC   D2A67444  38.329  34.212   6.601
 5210POPC   C3A67445  38.541  34.481   6.880
 5210POPC   C4A67446  38.763  34.522   7.226
 5210POPC   C1B67447  38.294  34.962   6.175
 5210POPC   C2B67448  38.204  34.748   6.580
 5210POPC   C3B67449  38.058  34.631   6.976
 5210POPC   C4B67450  38.353  34.849   7.253
 5211POPC   NC367451  17.407   8.125   5.579
 5211POPC   PO467452  18.013   7.897   5.661
 5211POPC   GL167453  17.787   8.114   5.930
 5211POPC   GL267454  17.533   7.871   6.027
 5211POPC   C1A67455  17.689   8.299   6.320
 5211POPC   D2A67456  17.362   8.217   6.607
 5211POPC   C3A67457  17.473   8.347   7.005
 5211POPC   C4A67458  17.723   8.062   7.220
 5211POPC   C1B67459  17.111   7.989   6.163
 5211POPC   C2B67460  16.889   8.050   6.549
 5211POPC   C3B67461  17.060   7.904   6.933
 5211POPC   C4B67462  17.233   7.999   7.301
 5212POPC   NC367463  41.728  38.268   5.418
 5212POPC   PO467464  41.439  38.873   5.344
 5212POPC   GL167465  41.325  38.678   5.732
 5212POPC   GL267466  41.667  38.675   5.786
 5212POPC   C1A67467  41.282  38.596   6.178
 5212POPC   D2A67468  41.541  38.642   6.553
 5212POPC   C3A67469  41.342  38.566   6.952
 5212POPC   C4A67470  41.459  38.230   7.218
 5212POPC   C1B67471  41.798  38.425   6.130
 5212POPC   C2B67472  41.928  38.304   6.541
 5212POPC   C3B67473  41.850  38.423   6.962
 5212POPC   C4B67474  42.099  38.248   7.309
 5213POPC   NC367475   0.144   8.655   5.571
 5213POPC   PO467476   0.210   8.114   5.197
 5213POPC   GL167477   0.524   8.353   5.638
 5213POPC   GL267478   0.325   8.422   5.972
 5213POPC   C1A67479   0.745   8.175   6.057
 5213POPC   D2A67480   0.711   8.333   6.509
 5213POPC   C3A67481   0.811   8.088   6.862
 5213POPC   C4A67482   0.567   8.218   7.200
 5213POPC   C1B67483   0.244   8.155   6.325
 5213POPC   C2B67484  44.921   8.152   6.583
 5213POPC   C3B67485  44.997   8.374   6.930
 5213POPC   C4B67486  44.926   8.216   7.284
 5214POPC   NC367487   7.756  17.273   5.548
 5214POPC   PO467488   7.347  16.758   5.366
 5214POPC   GL167489   7.341  16.603   5.756
 5214POPC   GL267490   7.005  16.537   5.777
 5214POPC   C1A67491   7.608  16.623   6.126
 5214POPC   D2A67492   7.834  16.868   6.436
 5214POPC   C3A67493   7.646  16.819   6.830
 5214POPC   C4A67494   7.807  16.528   7.130
 5214POPC   C1B67495   7.081  16.821   6.135
 5214POPC   C2B67496   7.051  17.081   6.510
 5214POPC   C3B67497   7.160  17.001   6.924
 5214POPC   C4B67498   7.324  16.719   7.231
 5215POPC   NC367499  35.916  40.635   5.390
 5215POPC   PO467500  36.623  40.821   5.382
 5215POPC   GL167501  36.331  40.630   5.730
 5215POPC   GL267502  36.055  40.853   5.849
 5215POPC   C1A67503  36.253  40.437   6.168
 5215POPC   D2A67504  36.115  40.639   6.558
 5215POPC   C3A67505  36.141  40.923   6.884
 5215POPC   C4A67506  36.317  40.932   7.282
 5215POPC   C1B67507  35.782  40.683   6.189
 5215POPC   C2B67508  35.615  40.552   6.618
 5215POPC   C3B67509  35.873  40.512   7.003
 5215POPC   C4B67510  35.814  40.792   7.376
 5216POPC   NC367511  16.179  11.245   5.567
 5216POPC   PO467512  15.647  10.948   5.214
 5216POPC   GL167513  15.777  11.001   5.732
 5216POPC   GL267514  15.557  10.897   5.993
 5216POPC   C1A67515  15.861  11.283   6.141
 5216POPC   D2A67516  15.706  11.272   6.572
 5216POPC   C3A67517  15.754  11.389   7.009
 5216POPC   C4A67518  15.823  11.040   7.317
 5216POPC   C1B67519  15.855  10.821   6.339
 5216POPC   C2B67520  16.198  11.030   6.583
 5216POPC   C3B67521  16.217  11.203   7.012
 5216POPC   C4B67522  16.412  11.363   7.399
 5217POPC   NC367523  41.421  18.024   5.640
 5217POPC   PO467524  41.726  18.676   5.563
 5217POPC   GL167525  41.569  18.429   5.902
 5217POPC   GL267526  41.269  18.298   6.066
 5217POPC   C1A67527  41.748  18.218   6.229
 5217POPC   D2A67528  41.594  18.285   6.595
 5217POPC   C3A67529  41.809  18.324   6.939
 5217POPC   C4A67530  41.882  18.226   7.337
 5217POPC   C1B67531  41.250  18.596   6.385
 5217POPC   C2B67532  41.222  18.517   6.855
 5217POPC   C3B67533  41.401  18.478   7.276
 5217POPC   C4B67534  41.423  18.233   7.646
 5218POPC   NC367535  24.652  16.006   5.484
 5218POPC   PO467536  24.075  16.064   5.843
 5218POPC   GL167537  24.331  15.777   6.055
 5218POPC   GL267538  24.663  15.827   5.959
 5218POPC   C1A67539  24.312  15.780   6.480
 5218POPC   D2A67540  24.496  16.153   6.686
 5218POPC   C3A67541  24.337  16.158   7.077
 5218POPC   C4A67542  24.291  15.718   7.123
 5218POPC   C1B67543  24.804  15.793   6.341
 5218POPC   C2B67544  24.729  15.681   6.765
 5218POPC   C3B67545  24.799  15.925   7.108
 5218POPC   C4B67546  24.604  16.041   7.510
 5219POPC   NC367547  19.507  29.024   5.525
 5219POPC   PO467548  20.012  29.124   5.159
 5219POPC   GL167549  19.934  28.934   5.762
 5219POPC   GL267550  19.989  29.228   6.067
 5219POPC   C1A67551  19.762  28.827   6.235
 5219POPC   D2A67552  19.869  28.998   6.673
 5219POPC   C3A67553  19.605  28.918   7.077
 5219POPC   C4A67554  19.724  28.958   7.563
 5219POPC   C1B67555  19.541  29.284   6.177
 5219POPC   C2B67556  19.401  29.166   6.599
 5219POPC   C3B67557  19.563  29.410   6.954
 5219POPC   C4B67558  19.950  29.279   7.177
 5220POPC   NC367559  10.138  12.983   5.103
 5220POPC   PO467560  10.554  12.583   5.489
 5220POPC   GL167561  10.605  12.904   5.784
 5220POPC   GL267562  10.770  12.695   6.024
 5220POPC   C1A67563  10.439  13.093   6.177
 5220POPC   D2A67564  10.200  13.025   6.572
 5220POPC   C3A67565  10.361  13.170   6.952
 5220POPC   C4A67566  10.554  12.970   7.345
 5220POPC   C1B67567  10.874  12.942   6.392
 5220POPC   C2B67568  10.799  12.957   6.817
 5220POPC   C3B67569  10.476  12.656   6.950
 5220POPC   C4B67570  10.581  12.442   7.306
 5221POPC   NC367571  14.300  18.512   5.378
 5221POPC   PO467572  14.661  17.879   5.594
 5221POPC   GL167573  14.362  18.125   5.907
 5221POPC   GL267574  14.473  18.497   5.855
 5221POPC   C1A67575  14.081  18.035   6.330
 5221POPC   D2A67576  14.046  18.058   6.836
 5221POPC   C3A67577  14.461  18.096   7.061
 5221POPC   C4A67578  14.691  18.110   7.489
 5221POPC   C1B67579  14.590  18.430   6.249
 5221POPC   C2B67580  14.383  18.344   6.592
 5221POPC   C3B67581  14.290  18.557   6.941
 5221POPC   C4B67582  14.459  18.540   7.351
 5222POPC   NC367583  35.492  29.965   5.219
 5222POPC   PO467584  35.241  29.383   5.422
 5222POPC   GL167585  35.312  29.799   5.683
 5222POPC   GL267586  35.179  30.109   5.880
 5222POPC   C1A67587  35.542  29.823   6.102
 5222POPC   D2A67588  35.397  29.664   6.517
 5222POPC   C3A67589  35.596  29.801   6.897
 5222POPC   C4A67590  35.496  29.716   7.332
 5222POPC   C1B67591  35.158  30.096   6.337
 5222POPC   C2B67592  35.170  30.063   6.786
 5222POPC   C3B67593  35.186  30.127   7.221
 5222POPC   C4B67594  35.131  30.125   7.696
 5223POPC   NC367595  42.107  30.668   5.336
 5223POPC   PO467596  41.522  30.491   5.426
 5223POPC   GL167597  41.714  30.737   5.721
 5223POPC   GL267598  41.626  30.487   5.962
 5223POPC   C1A67599  41.592  30.976   6.099
 5223POPC   D2A67600  41.412  30.776   6.475
 5223POPC   C3A67601  41.631  30.856   6.864
 5223POPC   C4A67602  41.480  30.877   7.302
 5223POPC   C1B67603  41.816  30.443   6.381
 5223POPC   C2B67604  41.815  30.299   6.830
 5223POPC   C3B67605  41.466  30.384   7.135
 5223POPC   C4B67606  41.286  30.255   7.537
 5224POPC   NC367607  37.535  25.812   5.470
 5224POPC   PO467608  37.798  26.518   5.434
 5224POPC   GL167609  37.726  26.182   5.792
 5224POPC   GL267610  37.877  25.814   5.832
 5224POPC   C1A67611  37.399  26.179   6.141
 5224POPC   D2A67612  37.562  26.164   6.582
 5224POPC   C3A67613  37.337  26.119   6.949
 5224POPC   C4A67614  37.324  25.918   7.310
 5224POPC   C1B67615  37.786  25.845   6.253
 5224POPC   C2B67616  37.805  25.663   6.655
 5224POPC   C3B67617  37.769  25.851   7.055
 5224POPC   C4B67618  37.951  26.098   7.410
 5225POPC   NC367619  34.244  23.549   5.370
 5225POPC   PO467620  34.775  24.044   5.239
 5225POPC   GL167621  34.561  23.902   5.613
 5225POPC   GL267622  34.776  23.634   5.731
 5225POPC   C1A67623  34.489  24.062   6.055
 5225POPC   D2A67624  34.573  24.183   6.515
 5225POPC   C3A67625  34.720  23.912   6.856
 5225POPC   C4A67626  34.388  23.747   7.120
 5225POPC   C1B67627  34.690  23.639   6.203
 5225POPC   C2B67628  34.431  23.599   6.590
 5225POPC   C3B67629  34.619  23.354   6.929
 5225POPC   C4B67630  34.984  23.429   7.163
 5226POPC   NC367631  20.370  36.292   5.365
 5226POPC   PO467632  19.802  35.980   5.405
 5226POPC   GL167633  20.094  36.066   5.760
 5226POPC   GL267634  20.071  36.440   5.776
 5226POPC   C1A67635  20.072  35.886   6.204
 5226POPC   D2A67636  19.736  35.965   6.523
 5226POPC   C3A67637  19.866  35.998   6.950
 5226POPC   C4A67638  19.736  35.988   7.379
 5226POPC   C1B67639  19.946  36.384   6.210
 5226POPC   C2B67640  20.127  36.403   6.626
 5226POPC   C3B67641  20.112  36.437   7.072
 5226POPC   C4B67642  20.067  36.374   7.512
 5227POPC   NC367643  37.373  33.199   5.485
 5227POPC   PO467644  37.920  32.775   5.518
 5227POPC   GL167645  37.695  32.988   5.840
 5227POPC   GL267646  37.347  32.840   5.878
 5227POPC   C1A67647  37.787  33.236   6.195
 5227POPC   D2A67648  37.650  33.143   6.595
 5227POPC   C3A67649  37.746  33.389   6.928
 5227POPC   C4A67650  37.652  33.310   7.398
 5227POPC   C1B67651  37.584  32.720   6.284
 5227POPC   C2B67652  37.498  32.677   6.739
 5227POPC   C3B67653  37.637  32.906   7.088
 5227POPC   C4B67654  37.857  32.842   7.473
 5228POPC   NC367655   0.366   1.535   5.560
 5228POPC   PO467656   0.189   1.044   5.053
 5228POPC   GL167657   0.126   0.928   5.603
 5228POPC   GL267658   0.221   1.157   5.882
 5228POPC   C1A67659  44.993   0.750   6.062
 5228POPC   D2A67660  44.994   0.969   6.509
 5228POPC   C3A67661   0.068   0.929   6.983
 5228POPC   C4A67662   0.272   1.268   7.219
 5228POPC   C1B67663   0.444   0.958   6.277
 5228POPC   C2B67664   0.552   1.050   6.760
 5228POPC   C3B67665   0.761   1.332   7.090
 5228POPC   C4B67666   0.661   1.462   7.520
 5229POPC   NC367667  19.756  31.687   5.371
 5229POPC   PO467668  19.540  31.013   5.483
 5229POPC   GL167669  19.796  31.325   5.717
 5229POPC   GL267670  19.900  31.155   5.971
 5229POPC   C1A67671  19.950  31.631   6.047
 5229POPC   D2A67672  19.797  31.604   6.485
 5229POPC   C3A67673  19.874  31.358   6.865
 5229POPC   C4A67674  20.037  31.576   7.241
 5229POPC   C1B67675  19.525  31.280   6.170
 5229POPC   C2B67676  19.393  31.316   6.593
 5229POPC   C3B67677  19.362  31.313   7.024
 5229POPC   C4B67678  19.646  31.265   7.367
 5230POPC   NC367679  37.001  34.907   5.416
 5230POPC   PO467680  36.475  34.520   5.245
 5230POPC   GL167681  36.692  34.589   5.678
 5230POPC   GL267682  36.680  34.932   5.833
 5230POPC   C1A67683  36.903  34.554   6.102
 5230POPC   D2A67684  36.971  34.426   6.546
 5230POPC   C3A67685  36.797  34.544   6.944
 5230POPC   C4A67686  37.098  34.529   7.286
 5230POPC   C1B67687  37.131  35.000   6.031
 5230POPC   C2B67688  37.302  34.767   6.361
 5230POPC   C3B67689  37.226  34.794   6.839
 5230POPC   C4B67690  37.521  34.805   7.189
 5231POPC   NC367691  16.010  43.724   5.453
 5231POPC   PO467692  15.811  44.374   5.301
 5231POPC   GL167693  15.790  44.127   5.720
 5231POPC   GL267694  16.118  44.073   5.827
 5231POPC   C1A67695  15.781  43.806   6.121
 5231POPC   D2A67696  15.701  43.690   6.559
 5231POPC   C3A67697  15.699  44.079   6.764
 5231POPC   C4A67698  15.873  44.065   7.147
 5231POPC   C1B67699  16.300  44.190   6.253
 5231POPC   C2B67700  16.243  44.112   6.716
 5231POPC   C3B67701  16.243  43.725   6.957
 5231POPC   C4B67702  16.365  43.399   7.260
 5232POPC   NC367703  20.542  17.813   5.104
 5232POPC   PO467704  20.852  17.301   5.362
 5232POPC   GL167705  20.660  17.515   5.780
 5232POPC   GL267706  20.805  17.871   5.814
 5232POPC   C1A67707  20.451  17.504   6.235
 5232POPC   D2A67708  20.405  17.293   6.659
 5232POPC   C3A67709  20.432  17.506   7.022
 5232POPC   C4A67710  20.241  17.843   7.241
 5232POPC   C1B67711  20.939  17.645   6.236
 5232POPC   C2B67712  20.888  17.465   6.707
 5232POPC   C3B67713  20.887  17.392   7.200
 5232POPC   C4B67714  20.914  17.430   7.683
 5233POPC   NC367715  36.760  36.726   5.084
 5233POPC   PO467716  36.966  37.338   5.400
 5233POPC   GL167717  36.772  37.142   5.794
 5233POPC   GL267718  36.746  36.790   5.727
 5233POPC   C1A67719  36.905  36.952   6.213
 5233POPC   D2A67720  36.995  36.809   6.632
 5233POPC   C3A67721  36.979  37.073   7.038
 5233POPC   C4A67722  37.062  36.996   7.534
 5233POPC   C1B67723  36.484  36.681   6.095
 5233POPC   C2B67724  36.567  36.531   6.507
 5233POPC   C3B67725  36.573  36.694   6.912
 5233POPC   C4B67726  36.644  36.458   7.265
 5234POPC   NC367727  23.625  34.005   5.209
 5234POPC   PO467728  24.102  33.726   5.461
 5234POPC   GL167729  23.848  33.771   5.793
 5234POPC   GL267730  23.641  34.052   5.716
 5234POPC   C1A67731  23.951  33.801   6.241
 5234POPC   D2A67732  23.759  33.677   6.618
 5234POPC   C3A67733  23.979  33.459   6.928
 5234POPC   C4A67734  23.734  33.567   7.254
 5234POPC   C1B67735  23.462  33.894   6.114
 5234POPC   C2B67736  23.314  34.021   6.512
 5234POPC   C3B67737  23.296  34.208   6.906
 5234POPC   C4B67738  23.597  34.063   7.201
 5235POPC   NC367739  23.769   1.181   5.108
 5235POPC   PO467740  24.179   1.494   5.543
 5235POPC   GL167741  24.077   1.325   5.918
 5235POPC   GL267742  23.852   1.072   5.944
 5235POPC   C1A67743  23.857   1.455   6.285
 5235POPC   D2A67744  23.963   1.433   6.708
 5235POPC   C3A67745  23.696   1.125   6.857
 5235POPC   C4A67746  23.401   1.261   7.146
 5235POPC   C1B67747  23.612   0.931   6.309
 5235POPC   C2B67748  23.396   0.701   6.686
 5235POPC   C3B67749  23.460   0.741   7.159
 5235POPC   C4B67750  23.804   1.005   7.367
 5236POPC   NC367751   6.152  14.378   5.373
 5236POPC   PO467752   5.507  14.239   5.518
 5236POPC   GL167753   5.836  14.378   5.780
 5236POPC   GL267754   6.131  14.115   5.798
 5236POPC   C1A67755   5.862  14.352   6.208
 5236POPC   D2A67756   5.672  14.138   6.576
 5236POPC   C3A67757   5.822  14.221   6.996
 5236POPC   C4A67758   5.912  14.548   7.278
 5236POPC   C1B67759   6.344  14.236   6.172
 5236POPC   C2B67760   6.210  14.206   6.588
 5236POPC   C3B67761   6.372  14.080   6.956
 5236POPC   C4B67762   6.219  14.096   7.337
 5237POPC   NC367763  23.105  34.655   5.551
 5237POPC   PO467764  23.731  34.456   5.169
 5237POPC   GL167765  23.612  34.572   5.586
 5237POPC   GL267766  23.923  34.497   5.727
 5237POPC   C1A67767  23.606  34.766   6.033
 5237POPC   D2A67768  23.890  34.728   6.408
 5237POPC   C3A67769  23.779  34.824   6.835
 5237POPC   C4A67770  23.615  34.611   7.219
 5237POPC   C1B67771  23.811  34.289   6.132
 5237POPC   C2B67772  23.806  34.213   6.593
 5237POPC   C3B67773  23.990  34.360   6.997
 5237POPC   C4B67774  23.938  34.294   7.487
 5238POPC   NC367775  41.264  24.441   5.360
 5238POPC   PO467776  41.855  24.815   5.404
 5238POPC   GL167777  41.705  24.550   5.740
 5238POPC   GL267778  41.386  24.647   5.808
 5238POPC   C1A67779  41.654  24.384   6.167
 5238POPC   D2A67780  41.445  24.429   6.577
 5238POPC   C3A67781  41.564  24.245   6.970
 5238POPC   C4A67782  41.602  24.395   7.390
 5238POPC   C1B67783  41.441  24.872   6.188
 5238POPC   C2B67784  41.555  24.955   6.622
 5238POPC   C3B67785  41.506  24.759   7.023
 5238POPC   C4B67786  41.216  24.745   7.396
 5239POPC   NC367787  12.747  29.011   5.491
 5239POPC   PO467788  12.699  28.265   5.323
 5239POPC   GL167789  12.798  28.159   5.780
 5239POPC   GL267790  13.124  28.092   5.906
 5239POPC   C1A67791  12.768  28.135   6.249
 5239POPC   D2A67792  12.799  28.466   6.593
 5239POPC   C3A67793  12.750  28.299   6.996
 5239POPC   C4A67794  12.888  27.903   7.108
 5239POPC   C1B67795  13.161  28.449   6.232
 5239POPC   C2B67796  13.314  28.559   6.661
 5239POPC   C3B67797  13.182  28.552   7.097
 5239POPC   C4B67798  12.832  28.677   7.406
 5240POPC   NC367799  35.671  41.480   5.482
 5240POPC   PO467800  35.178  41.939   5.408
 5240POPC   GL167801  35.159  41.806   5.815
 5240POPC   GL267802  35.053  41.492   5.746
 5240POPC   C1A67803  35.389  41.601   6.145
 5240POPC   D2A67804  35.732  41.566   6.445
 5240POPC   C3A67805  35.555  41.521   6.849
 5240POPC   C4A67806  35.554  41.512   7.295
 5240POPC   C1B67807  34.963  41.320   6.154
 5240POPC   C2B67808  35.224  41.245   6.518
 5240POPC   C3B67809  35.087  41.325   6.927
 5240POPC   C4B67810  35.021  41.655   7.223
 5241POPC   NC367811  19.560  10.147   5.511
 5241POPC   PO467812  20.200  10.382   5.366
 5241POPC   GL167813  20.019  10.656   5.717
 5241POPC   GL267814  19.735  10.487   5.828
 5241POPC   C1A67815  19.859  10.819   6.168
 5241POPC   D2A67816  19.586  10.677   6.519
 5241POPC   C3A67817  19.785  10.690   6.931
 5241POPC   C4A67818  19.702  10.359   7.226
 5241POPC   C1B67819  20.079  10.375   6.134
 5241POPC   C2B67820  20.087  10.481   6.552
 5241POPC   C3B67821  20.091  10.254   6.932
 5241POPC   C4B67822  20.234  10.164   7.369
 5242POPC   NC367823  15.201  42.397   5.170
 5242POPC   PO467824  15.534  42.824   5.533
 5242POPC   GL167825  15.201  42.453   5.722
 5242POPC   GL267826  14.808  42.359   5.761
 5242POPC   C1A67827  15.108  42.394   6.211
 5242POPC   D2A67828  15.032  42.422   6.690
 5242POPC   C3A67829  15.400  42.401   6.917
 5242POPC   C4A67830  15.568  42.208   7.271
 5242POPC   C1B67831  14.646  42.153   6.181
 5242POPC   C2B67832  14.579  42.093   6.656
 5242POPC   C3B67833  14.838  42.130   7.063
 5242POPC   C4B67834  15.010  42.533   7.236
 5243POPC   NC367835   3.522  37.856   5.557
 5243POPC   PO467836   3.881  37.350   5.481
 5243POPC   GL167837   3.664  37.491   5.903
 5243POPC   GL267838   3.300  37.485   5.818
 5243POPC   C1A67839   3.704  37.580   6.379
 5243POPC   D2A67840   3.475  37.856   6.681
 5243POPC   C3A67841   3.528  37.846   7.142
 5243POPC   C4A67842   3.627  37.490   7.431
 5243POPC   C1B67843   3.213  37.709   6.213
 5243POPC   C2B67844   2.976  37.711   6.622
 5243POPC   C3B67845   3.139  37.572   7.009
 5243POPC   C4B67846   3.161  37.684   7.444
 5244POPC   NC367847  20.698  16.980   5.635
 5244POPC   PO467848  20.284  16.540   5.678
 5244POPC   GL167849  20.354  16.812   5.985
 5244POPC   GL267850  20.263  17.150   5.894
 5244POPC   C1A67851  20.582  17.006   6.299
 5244POPC   D2A67852  20.792  16.955   6.698
 5244POPC   C3A67853  20.556  16.963   7.082
 5244POPC   C4A67854  20.498  16.591   7.391
 5244POPC   C1B67855  20.079  17.044   6.333
 5244POPC   C2B67856  20.263  16.789   6.681
 5244POPC   C3B67857  20.094  16.742   7.116
 5244POPC   C4B67858  20.111  16.874   7.575
 5245POPC   NC367859  31.123   5.054   5.445
 5245POPC   PO467860  31.460   4.558   5.566
 5245POPC   GL167861  31.420   4.964   5.863
 5245POPC   GL267862  31.499   5.326   5.692
 5245POPC   C1A67863  31.286   5.002   6.338
 5245POPC   D2A67864  31.204   4.780   6.767
 5245POPC   C3A67865  31.460   4.884   7.144
 5245POPC   C4A67866  31.843   5.056   7.361
 5245POPC   C1B67867  31.214   5.417   6.036
 5245POPC   C2B67868  31.105   5.518   6.492
 5245POPC   C3B67869  31.276   5.324   6.893
 5245POPC   C4B67870  31.493   5.425   7.291
 5246POPC   NC367871   9.595   1.632   5.370
 5246POPC   PO467872  10.026   2.209   5.377
 5246POPC   GL167873   9.872   2.007   5.743
 5246POPC   GL267874  10.007   1.686   5.705
 5246POPC   C1A67875   9.776   2.153   6.188
 5246POPC   D2A67876   9.786   2.295   6.645
 5246POPC   C3A67877   9.774   2.046   7.010
 5246POPC   C4A67878   9.564   2.305   7.296
 5246POPC   C1B67879  10.173   1.802   6.106
 5246POPC   C2B67880  10.036   1.863   6.526
 5246POPC   C3B67881  10.181   1.709   6.906
 5246POPC   C4B67882  10.111   1.710   7.321
 5247POPC   NC367883  44.637  34.447   5.322
 5247POPC   PO467884  44.717  35.072   5.354
 5247POPC   GL167885  44.407  34.933   5.662
 5247POPC   GL267886  44.394  34.577   5.763
 5247POPC   C1A67887  44.517  34.942   6.100
 5247POPC   D2A67888  44.723  34.842   6.507
 5247POPC   C3A67889  44.496  34.875   6.907
 5247POPC   C4A67890  44.515  34.937   7.355
 5247POPC   C1B67891  44.460  34.459   6.236
 5247POPC   C2B67892  44.568  34.405   6.679
 5247POPC   C3B67893  44.861  34.538   7.004
 5247POPC   C4B67894  44.902  34.597   7.453
 5248POPC   NC367895   3.636   9.336   5.441
 5248POPC   PO467896   3.717  10.047   5.450
 5248POPC   GL167897   3.522   9.894   5.835
 5248POPC   GL267898   3.358   9.574   5.863
 5248POPC   C1A67899   3.594   9.779   6.268
 5248POPC   D2A67900   3.295   9.620   6.560
 5248POPC   C3A67901   3.228   9.797   6.938
 5248POPC   C4A67902   3.421   9.967   7.288
 5248POPC   C1B67903   3.469   9.286   6.186
 5248POPC   C2B67904   3.642   9.269   6.608
 5248POPC   C3B67905   3.349   9.280   6.973
 5248POPC   C4B67906   3.278   9.485   7.362
 5249POPC   NC367907  27.117  36.504   5.086
 5249POPC   PO467908  27.518  36.126   5.450
 5249POPC   GL167909  27.421  36.196   5.852
 5249POPC   GL267910  27.163  36.427   5.808
 5249POPC   C1A67911  27.619  36.097   6.242
 5249POPC   D2A67912  27.825  36.118   6.645
 5249POPC   C3A67913  27.604  36.151   7.025
 5249POPC   C4A67914  27.842  35.840   7.216
 5249POPC   C1B67915  27.329  36.542   6.227
 5249POPC   C2B67916  27.463  36.497   6.654
 5249POPC   C3B67917  27.311  36.572   7.096
 5249POPC   C4B67918  27.470  36.372   7.492
 5250POPC   NC367919  40.958  40.142   5.166
 5250POPC   PO467920  40.391  39.928   5.533
 5250POPC   GL167921  40.714  39.968   5.859
 5250POPC   GL267922  41.057  40.090   5.728
 5250POPC   C1A67923  40.839  39.766   6.199
 5250POPC   D2A67924  40.853  40.037   6.528
 5250POPC   C3A67925  40.972  39.862   6.900
 5250POPC   C4A67926  40.806  39.782   7.280
 5250POPC   C1B67927  41.005  40.326   6.107
 5250POPC   C2B67928  40.948  40.548   6.503
 5250POPC   C3B67929  40.915  40.383   6.916
 5250POPC   C4B67930  41.098  40.233   7.301
 5251POPC   NC367931   0.687  39.345   5.354
 5251POPC   PO467932   0.077  39.039   5.257
 5251POPC   GL167933   0.245  38.988   5.668
 5251POPC   GL267934   0.448  39.253   5.789
 5251POPC   C1A67935   0.233  38.930   6.123
 5251POPC   D2A67936   0.508  39.080   6.445
 5251POPC   C3A67937   0.330  39.043   6.873
 5251POPC   C4A67938   0.575  39.059   7.256
 5251POPC   C1B67939   0.206  39.448   6.092
 5251POPC   C2B67940   0.208  39.476   6.522
 5251POPC   C3B67941   0.472  39.540   6.850
 5251POPC   C4B67942   0.245  39.447   7.209
 5252POPC   NC367943  21.114  35.448   5.404
 5252POPC   PO467944  21.747  35.178   5.439
 5252POPC   GL167945  21.430  35.260   5.777
 5252POPC   GL267946  21.341  35.549   5.881
 5252POPC   C1A67947  21.285  35.133   6.187
 5252POPC   D2A67948  21.361  34.868   6.552
 5252POPC   C3A67949  21.202  35.054   6.933
 5252POPC   C4A67950  21.296  35.108   7.384
 5252POPC   C1B67951  21.408  35.669   6.303
 5252POPC   C2B67952  21.467  35.457   6.671
 5252POPC   C3B67953  21.576  35.400   7.078
 5252POPC   C4B67954  21.353  35.603   7.418
 5253POPC   NC367955  40.747   7.105   5.479
 5253POPC   PO467956  40.924   7.672   5.142
 5253POPC   GL167957  40.873   7.627   5.674
 5253POPC   GL267958  40.544   7.701   5.863
 5253POPC   C1A67959  40.948   7.717   6.166
 5253POPC   D2A67960  41.010   7.446   6.565
 5253POPC   C3A67961  40.919   7.546   6.967
 5253POPC   C4A67962  40.869   7.307   7.340
 5253POPC   C1B67963  40.618   7.329   6.105
 5253POPC   C2B67964  40.517   7.348   6.518
 5253POPC   C3B67965  40.423   7.502   6.893
 5253POPC   C4B67966  40.393   7.388   7.284
 5254POPC   NC367967  14.933   0.663   5.324
 5254POPC   PO467968  15.586   0.359   5.403
 5254POPC   GL167969  15.475   0.369   5.819
 5254POPC   GL267970  15.130   0.448   5.774
 5254POPC   C1A67971  15.415   0.311   6.264
 5254POPC   D2A67972  15.157   0.055   6.566
 5254POPC   C3A67973  15.124   0.184   7.018
 5254POPC   C4A67974  14.796   0.420   7.219
 5254POPC   C1B67975  15.103   0.737   6.116
 5254POPC   C2B67976  15.055   0.577   6.528
 5254POPC   C3B67977  15.115   0.696   6.915
 5254POPC   C4B67978  15.357   0.628   7.250
 5255POPC   NC367979   2.460   5.071   5.464
 5255POPC   PO467980   2.825   5.440   5.162
 5255POPC   GL167981   2.769   5.438   5.667
 5255POPC   GL267982   2.824   5.119   5.845
 5255POPC   C1A67983   2.504   5.405   6.109
 5255POPC   D2A67984   2.554   5.543   6.569
 5255POPC   C3A67985   2.563   5.364   7.020
 5255POPC   C4A67986   2.361   5.341   7.459
 5255POPC   C1B67987   2.991   5.368   6.229
 5255POPC   C2B67988   3.017   5.319   6.692
 5255POPC   C3B67989   3.060   5.475   7.115
 5255POPC   C4B67990   2.868   5.338   7.513
 5256POPC   NC367991  11.998  11.215   5.290
 5256POPC   PO467992  12.203  11.805   5.512
 5256POPC   GL167993  12.115  11.577   5.845
 5256POPC   GL267994  11.966  11.263   5.804
 5256POPC   C1A67995  11.952  11.593   6.233
 5256POPC   D2A67996  12.163  11.556   6.592
 5256POPC   C3A67997  11.902  11.530   6.901
 5256POPC   C4A67998  12.089  11.593   7.252
 5256POPC   C1B67999  12.131  11.128   6.202
 5256POPC   C2B68000  12.014  11.076   6.638
 5256POPC   C3B68001  12.252  11.177   7.015
 5256POPC   C4B68002  12.294  11.124   7.487
 5257POPC   NC368003  38.523  25.573   5.374
 5257POPC   PO468004  38.371  25.054   5.140
 5257POPC   GL168005  38.398  25.134   5.603
 5257POPC   GL268006  38.224  25.418   5.753
 5257POPC   C1A68007  38.579  25.203   6.043
 5257POPC   D2A68008  38.423  25.116   6.468
 5257POPC   C3A68009  38.595  25.260   6.844
 5257POPC   C4A68010  38.508  25.233   7.270
 5257POPC   C1B68011  38.171  25.503   6.193
 5257POPC   C2B68012  38.318  25.645   6.594
 5257POPC   C3B68013  38.190  25.559   7.031
 5257POPC   C4B68014  38.374  25.744   7.406
 5258POPC   NC368015  25.525  35.586   5.396
 5258POPC   PO468016  24.935  35.404   5.506
 5258POPC   GL168017  25.249  35.389   5.825
 5258POPC   GL268018  25.575  35.566   5.889
 5258POPC   C1A68019  25.182  35.357   6.262
 5258POPC   D2A68020  25.130  35.575   6.649
 5258POPC   C3A68021  24.984  35.290   6.952
 5258POPC   C4A68022  25.103  35.158   7.336
 5258POPC   C1B68023  25.579  35.662   6.307
 5258POPC   C2B68024  25.793  35.564   6.648
 5258POPC   C3B68025  25.511  35.415   7.006
 5258POPC   C4B68026  25.505  35.499   7.468
 5259POPC   NC368027  32.721  18.110   4.912
 5259POPC   PO468028  33.111  18.391   5.400
 5259POPC   GL168029  33.320  18.357   5.831
 5259POPC   GL268030  32.993  18.367   5.932
 5259POPC   C1A68031  33.335  18.470   6.282
 5259POPC   D2A68032  32.997  18.442   6.578
 5259POPC   C3A68033  33.143  18.394   6.995
 5259POPC   C4A68034  32.792  18.425   7.255
 5259POPC   C1B68035  32.961  18.042   6.239
 5259POPC   C2B68036  32.871  17.862   6.628
 5259POPC   C3B68037  32.962  17.923   7.051
 5259POPC   C4B68038  33.198  18.037   7.426
 5260POPC   NC368039  25.607  37.118   5.581
 5260POPC   PO468040  26.162  36.750   5.553
 5260POPC   GL168041  25.868  36.811   5.886
 5260POPC   GL268042  25.586  36.591   5.841
 5260POPC   C1A68043  25.790  37.024   6.299
 5260POPC   D2A68044  26.122  37.013   6.589
 5260POPC   C3A68045  26.101  36.936   7.016
 5260POPC   C4A68046  26.309  37.228   7.278
 5260POPC   C1B68047  25.777  36.528   6.281
 5260POPC   C2B68048  25.862  36.574   6.709
 5260POPC   C3B68049  25.615  36.367   6.996
 5260POPC   C4B68050  25.499  36.376   7.441
 5261POPC   NC368051  13.353  25.537   5.584
 5261POPC   PO468052  13.627  24.892   5.440
 5261POPC   GL168053  13.508  25.078   5.799
 5261POPC   GL268054  13.860  25.077   5.871
 5261POPC   C1A68055  13.476  25.044   6.250
 5261POPC   D2A68056  13.259  25.026   6.655
 5261POPC   C3A68057  13.559  25.222   6.939
 5261POPC   C4A68058  13.730  25.177   7.350
 5261POPC   C1B68059  14.052  25.000   6.240
 5261POPC   C2B68060  14.224  25.116   6.646
 5261POPC   C3B68061  14.067  24.939   7.039
 5261POPC   C4B68062  14.155  24.962   7.506
 5262POPC   NC368063  18.337  33.403   5.306
 5262POPC   PO468064  18.442  34.068   5.255
 5262POPC   GL168065  18.330  33.916   5.643
 5262POPC   GL268066  18.169  34.246   5.744
 5262POPC   C1A68067  18.512  33.635   5.976
 5262POPC   D2A68068  18.621  33.552   6.429
 5262POPC   C3A68069  18.483  33.662   6.852
 5262POPC   C4A68070  18.295  33.621   7.262
 5262POPC   C1B68071  18.381  34.114   6.153
 5262POPC   C2B68072  18.598  34.108   6.554
 5262POPC   C3B68073  18.472  34.193   6.972
 5262POPC   C4B68074  18.293  34.228   7.408
 5263POPC   NC368075  14.438  42.198   5.390
 5263POPC   PO468076  14.357  42.761   5.653
 5263POPC   GL168077  14.284  42.414   5.923
 5263POPC   GL268078  14.183  42.085   5.849
 5263POPC   C1A68079  14.174  42.319   6.360
 5263POPC   D2A68080  14.130  42.584   6.723
 5263POPC   C3A68081  14.463  42.481   6.989
 5263POPC   C4A68082  14.506  42.409   7.411
 5263POPC   C1B68083  14.121  41.805   6.244
 5263POPC   C2B68084  14.132  41.834   6.730
 5263POPC   C3B68085  14.336  42.012   7.130
 5263POPC   C4B68086  14.352  41.881   7.614
 5264POPC   NC368087  17.335   5.620   5.379
 5264POPC   PO468088  17.660   6.226   5.446
 5264POPC   GL168089  17.443   6.002   5.800
 5264POPC   GL268090  17.549   5.641   5.870
 5264POPC   C1A68091  17.561   5.993   6.253
 5264POPC   D2A68092  17.543   6.199   6.657
 5264POPC   C3A68093  17.590   5.944   6.996
 5264POPC   C4A68094  17.558   5.805   7.403
 5264POPC   C1B68095  17.311   5.356   6.183
 5264POPC   C2B68096  17.239   5.335   6.623
 5264POPC   C3B68097  17.398   5.466   7.029
 5264POPC   C4B68098  17.848   5.458   7.178
 5265POPC   NC368099   7.454   5.903   5.132
 5265POPC   PO468100   7.076   6.153   5.608
 5265POPC   GL168101   7.342   5.923   5.893
 5265POPC   GL268102   7.666   6.092   5.977
 5265POPC   C1A68103   7.486   5.699   6.255
 5265POPC   D2A68104   7.461   5.489   6.652
 5265POPC   C3A68105   7.374   5.746   7.004
 5265POPC   C4A68106   7.237   5.661   7.407
 5265POPC   C1B68107   7.417   6.255   6.317
 5265POPC   C2B68108   7.265   6.211   6.744
 5265POPC   C3B68109   7.552   6.253   7.116
 5265POPC   C4B68110   7.495   6.088   7.528
 5266POPC   NC368111  21.874  44.171   5.147
 5266POPC   PO468112  21.209  44.041   5.289
 5266POPC   GL168113  21.102  43.954   5.690
 5266POPC   GL268114  21.422  43.899   5.892
 5266POPC   C1A68115  20.967  43.772   6.080
 5266POPC   D2A68116  21.257  43.799   6.409
 5266POPC   C3A68117  21.223  43.769   6.833
 5266POPC   C4A68118  21.144  44.009   7.202
 5266POPC   C1B68119  21.740  43.847   6.246
 5266POPC   C2B68120  21.731  43.891   6.738
 5266POPC   C3B68121  21.799  43.702   7.168
 5266POPC   C4B68122  21.661  43.558   7.651
 5267POPC   NC368123  24.165  40.462   5.452
 5267POPC   PO468124  24.653  40.011   5.644
 5267POPC   GL168125  24.407  40.224   5.915
 5267POPC   GL268126  24.668  40.494   5.859
 5267POPC   C1A68127  24.353  39.947   6.302
 5267POPC   D2A68128  24.546  39.689   6.662
 5267POPC   C3A68129  24.326  39.788   7.058
 5267POPC   C4A68130  24.115  39.898   7.445
 5267POPC   C1B68131  24.791  40.232   6.253
 5267POPC   C2B68132  24.620  40.205   6.674
 5267POPC   C3B68133  24.570  40.337   7.089
 5267POPC   C4B68134  24.566  40.119   7.474
 5268POPC   NC368135   2.835  14.453   5.311
 5268POPC   PO468136   2.316  14.216   5.554
 5268POPC   GL168137   2.520  14.529   5.783
 5268POPC   GL268138   2.889  14.557   5.828
 5268POPC   C1A68139   2.416  14.672   6.176
 5268POPC   D2A68140   2.650  14.628   6.532
 5268POPC   C3A68141   2.449  14.540   6.901
 5268POPC   C4A68142   2.627  14.566   7.282
 5268POPC   C1B68143   3.113  14.547   6.216
 5268POPC   C2B68144   3.142  14.748   6.609
 5268POPC   C3B68145   3.073  14.629   7.015
 5268POPC   C4B68146   3.302  14.700   7.385
 5269POPC   NC368147  28.760  15.690   5.543
 5269POPC   PO468148  29.204  16.151   5.368
 5269POPC   GL168149  28.993  16.141   5.774
 5269POPC   GL268150  29.125  15.831   5.883
 5269POPC   C1A68151  29.037  16.227   6.239
 5269POPC   D2A68152  29.241  16.311   6.643
 5269POPC   C3A68153  29.135  16.167   7.076
 5269POPC   C4A68154  28.910  16.054   7.473
 5269POPC   C1B68155  29.305  15.804   6.312
 5269POPC   C2B68156  29.021  15.840   6.685
 5269POPC   C3B68157  28.959  15.678   7.125
 5269POPC   C4B68158  29.167  15.605   7.545
 5270POPC   NC368159   1.551  10.716   5.606
 5270POPC   PO468160   2.033  10.313   5.363
 5270POPC   GL168161   1.973  10.475   5.769
 5270POPC   GL268162   1.676  10.277   5.814
 5270POPC   C1A68163   2.147  10.663   6.142
 5270POPC   D2A68164   2.173  10.972   6.483
 5270POPC   C3A68165   2.222  10.766   6.854
 5270POPC   C4A68166   2.106  10.631   7.243
 5270POPC   C1B68167   1.890  10.185   6.219
 5270POPC   C2B68168   2.072  10.359   6.555
 5270POPC   C3B68169   2.278  10.242   6.897
 5270POPC   C4B68170   2.020  10.132   7.171
 5271POPC   NC368171  44.527   5.846   5.171
 5271POPC   PO468172  44.149   6.046   5.664
 5271POPC   GL168173  44.585   5.888   5.738
 5271POPC   GL268174  44.567   5.539   5.592
 5271POPC   C1A68175  44.761   5.928   6.189
 5271POPC   D2A68176  44.687   6.131   6.637
 5271POPC   C3A68177  44.688   6.015   7.125
 5271POPC   C4A68178  44.924   5.837   7.499
 5271POPC   C1B68179  44.517   5.478   6.057
 5271POPC   C2B68180  44.397   5.446   6.510
 5271POPC   C3B68181  44.338   5.737   6.858
 5271POPC   C4B68182  44.166   6.082   7.121
 5272POPC   NC368183  36.182  30.522   5.282
 5272POPC   PO468184  36.624  30.135   5.542
 5272POPC   GL168185  36.400  30.482   5.800
 5272POPC   GL268186  36.033  30.565   5.769
 5272POPC   C1A68187  36.409  30.792   6.183
 5272POPC   D2A68188  36.492  31.067   6.577
 5272POPC   C3A68189  36.466  30.790   6.957
 5272POPC   C4A68190  36.258  30.804   7.361
 5272POPC   C1B68191  35.894  30.649   6.193
 5272POPC   C2B68192  36.080  30.735   6.603
 5272POPC   C3B68193  35.907  30.652   6.995
 5272POPC   C4B68194  35.630  30.302   7.033
 5273POPC   NC368195  36.698  34.129   5.381
 5273POPC   PO468196  37.044  33.519   5.373
 5273POPC   GL168197  36.840  33.741   5.769
 5273POPC   GL268198  36.702  34.079   5.884
 5273POPC   C1A68199  36.868  33.594   6.219
 5273POPC   D2A68200  36.728  33.434   6.639
 5273POPC   C3A68201  36.907  33.635   7.006
 5273POPC   C4A68202  37.069  34.068   7.085
 5273POPC   C1B68203  37.056  34.064   6.166
 5273POPC   C2B68204  36.934  33.929   6.596
 5273POPC   C3B68205  36.599  34.079   6.873
 5273POPC   C4B68206  36.560  34.170   7.317
 5274POPC   NC368207  15.660   6.553   5.478
 5274POPC   PO468208  15.114   6.818   5.271
 5274POPC   GL168209  15.286   6.854   5.705
 5274POPC   GL268210  15.586   6.998   5.862
 5274POPC   C1A68211  15.143   6.762   6.135
 5274POPC   D2A68212  15.051   6.508   6.490
 5274POPC   C3A68213  15.110   6.771   6.873
 5274POPC   C4A68214  14.962   6.710   7.273
 5274POPC   C1B68215  15.650   6.662   6.169
 5274POPC   C2B68216  15.523   6.643   6.599
 5274POPC   C3B68217  15.385   6.326   6.873
 5274POPC   C4B68218  15.307   6.350   7.281
 5275POPC   NC368219  34.322  40.993   5.499
 5275POPC   PO468220  34.634  40.381   5.504
 5275POPC   GL168221  34.573  40.706   5.821
 5275POPC   GL268222  34.842  40.858   5.973
 5275POPC   C1A68223  34.435  40.854   6.251
 5275POPC   D2A68224  34.362  40.742   6.675
 5275POPC   C3A68225  34.599  40.915   7.001
 5275POPC   C4A68226  34.368  41.074   7.363
 5275POPC   C1B68227  34.769  40.435   6.185
 5275POPC   C2B68228  34.632  40.321   6.586
 5275POPC   C3B68229  34.820  40.458   6.948
 5275POPC   C4B68230  35.012  40.286   7.283
 5276POPC   NC368231  44.579  30.485   5.282
 5276POPC   PO468232  44.512  30.993   5.605
 5276POPC   GL168233  44.536  30.747   5.951
 5276POPC   GL268234  44.813  30.897   6.090
 5276POPC   C1A68235  44.519  30.598   6.416
 5276POPC   D2A68236  44.862  30.626   6.730
 5276POPC   C3A68237  44.957  30.336   7.084
 5276POPC   C4A68238  44.840  30.354   7.516
 5276POPC   C1B68239  44.473  31.151   6.287
 5276POPC   C2B68240  44.366  31.258   6.731
 5276POPC   C3B68241  44.588  31.014   7.022
 5276POPC   C4B68242  44.539  30.614   7.121
 5277POPC   NC368243  42.458  36.600   5.290
 5277POPC   PO468244  42.370  35.903   5.178
 5277POPC   GL168245  42.358  35.842   5.669
 5277POPC   GL268246  42.584  36.111   5.812
 5277POPC   C1A68247  42.288  35.930   6.161
 5277POPC   D2A68248  42.220  36.317   6.431
 5277POPC   C3A68249  42.095  36.251   6.833
 5277POPC   C4A68250  42.020  36.119   7.237
 5277POPC   C1B68251  42.627  36.421   6.148
 5277POPC   C2B68252  42.718  36.533   6.599
 5277POPC   C3B68253  42.519  36.482   7.026
 5277POPC   C4B68254  42.674  36.279   7.425
 5278POPC   NC368255  33.626  43.325   5.511
 5278POPC   PO468256  33.710  42.662   5.456
 5278POPC   GL168257  33.907  42.953   5.776
 5278POPC   GL268258  34.066  43.309   5.822
 5278POPC   C1A68259  33.664  42.966   6.168
 5278POPC   D2A68260  33.643  42.733   6.544
 5278POPC   C3A68261  33.653  42.898   6.959
 5278POPC   C4A68262  33.987  42.883   7.255
 5278POPC   C1B68263  34.062  43.240   6.278
 5278POPC   C2B68264  33.767  43.268   6.625
 5278POPC   C3B68265  33.831  43.367   7.075
 5278POPC   C4B68266  34.268  43.350   7.233
 5279POPC   NC368267  39.698  30.105   5.084
 5279POPC   PO468268  39.128  29.728   5.305
 5279POPC   GL168269  39.321  29.871   5.668
 5279POPC   GL268270  39.108  30.153   5.684
 5279POPC   C1A68271  39.250  29.765   6.108
 5279POPC   D2A68272  38.951  29.855   6.449
 5279POPC   C3A68273  39.073  30.082   6.830
 5279POPC   C4A68274  38.885  30.171   7.217
 5279POPC   C1B68275  39.061  30.240   6.122
 5279POPC   C2B68276  39.393  30.187   6.439
 5279POPC   C3B68277  39.617  30.068   6.799
 5279POPC   C4B68278  39.490  29.969   7.206
 5280POPC   NC368279   9.443  11.323   5.558
 5280POPC   PO468280  10.035  11.728   5.488
 5280POPC   GL168281   9.882  11.375   5.835
 5280POPC   GL268282  10.110  11.089   5.892
 5280POPC   C1A68283   9.620  11.296   6.235
 5280POPC   D2A68284   9.748  11.453   6.663
 5280POPC   C3A68285   9.571  11.529   7.092
 5280POPC   C4A68286   9.687  11.543   7.563
 5280POPC   C1B68287  10.118  11.241   6.316
 5280POPC   C2B68288  10.068  11.052   6.729
 5280POPC   C3B68289  10.015  11.228   7.164
 5280POPC   C4B68290  10.146  11.341   7.616
 5281POPC   NC368291  17.746  42.334   5.457
 5281POPC   PO468292  17.132  42.613   5.459
 5281POPC   GL168293  17.420  42.531   5.802
 5281POPC   GL268294  17.728  42.758   5.790
 5281POPC   C1A68295  17.539  42.214   6.114
 5281POPC   D2A68296  17.386  42.194   6.527
 5281POPC   C3A68297  17.646  42.157   6.889
 5281POPC   C4A68298  17.432  42.435   7.157
 5281POPC   C1B68299  17.633  42.700   6.239
 5281POPC   C2B68300  17.844  42.524   6.594
 5281POPC   C3B68301  17.893  42.623   7.065
 5281POPC   C4B68302  17.642  42.758   7.477
 5282POPC   NC368303  42.837  42.213   5.240
 5282POPC   PO468304  43.486  42.296   5.321
 5282POPC   GL168305  43.404  42.338   5.774
 5282POPC   GL268306  43.077  42.422   5.787
 5282POPC   C1A68307  43.230  42.177   6.192
 5282POPC   D2A68308  43.370  42.144   6.602
 5282POPC   C3A68309  43.319  42.458   6.888
 5282POPC   C4A68310  43.339  42.273   7.282
 5282POPC   C1B68311  42.856  42.527   6.175
 5282POPC   C2B68312  42.887  42.326   6.588
 5282POPC   C3B68313  42.873  42.230   7.018
 5282POPC   C4B68314  42.558  42.243   7.339
 5283POPC   NC368315  16.831  17.065   5.462
 5283POPC   PO468316  16.784  17.615   5.308
 5283POPC   GL168317  16.637  17.591   5.722
 5283POPC   GL268318  16.558  17.897   5.863
 5283POPC   C1A68319  16.701  17.456   6.161
 5283POPC   D2A68320  16.987  17.345   6.512
 5283POPC   C3A68321  16.903  17.229   6.960
 5283POPC   C4A68322  17.010  17.380   7.410
 5283POPC   C1B68323  16.729  17.949   6.261
 5283POPC   C2B68324  16.653  17.727   6.644
 5283POPC   C3B68325  16.665  17.651   7.081
 5283POPC   C4B68326  16.520  17.332   7.317
 5284POPC   NC368327  28.895  10.012   5.302
 5284POPC   PO468328  29.055   9.322   5.244
 5284POPC   GL168329  28.974   9.586   5.652
 5284POPC   GL268330  29.281   9.639   5.841
 5284POPC   C1A68331  28.841   9.766   6.082
 5284POPC   D2A68332  28.920   9.920   6.525
 5284POPC   C3A68333  29.085   9.661   6.859
 5284POPC   C4A68334  29.069   9.803   7.305
 5284POPC   C1B68335  29.250   9.581   6.315
 5284POPC   C2B68336  29.500   9.794   6.605
 5284POPC   C3B68337  29.489   9.934   7.032
 5284POPC   C4B68338  29.695   9.722   7.355
 5285POPC   NC368339  28.240  39.882   5.494
 5285POPC   PO468340  28.726  40.363   5.353
 5285POPC   GL168341  28.693  40.063   5.723
 5285POPC   GL268342  28.386  40.135   5.911
 5285POPC   C1A68343  28.772  39.903   6.158
 5285POPC   D2A68344  28.576  40.016   6.574
 5285POPC   C3A68345  28.325  39.721   6.799
 5285POPC   C4A68346  28.559  39.617   7.139
 5285POPC   C1B68347  28.145  40.125   6.307
 5285POPC   C2B68348  28.124  40.240   6.765
 5285POPC   C3B68349  28.292  40.103   7.172
 5285POPC   C4B68350  28.291  40.286   7.593
 5286POPC   NC368351  25.520  38.022   5.606
 5286POPC   PO468352  25.013  37.835   5.288
 5286POPC   GL168353  25.156  37.635   5.692
 5286POPC   GL268354  24.912  37.746   5.853
 5286POPC   C1A68355  25.350  37.566   6.133
 5286POPC   D2A68356  25.169  37.611   6.562
 5286POPC   C3A68357  25.390  37.513   6.967
 5286POPC   C4A68358  25.252  37.183   7.233
 5286POPC   C1B68359  25.053  38.005   6.178
 5286POPC   C2B68360  25.304  38.088   6.546
 5286POPC   C3B68361  25.259  38.009   6.968
 5286POPC   C4B68362  25.450  38.170   7.322
 5287POPC   NC368363  41.872  30.167   5.485
 5287POPC   PO468364  41.505  29.648   5.246
 5287POPC   GL168365  41.501  29.772   5.687
 5287POPC   GL268366  41.328  30.095   5.736
 5287POPC   C1A68367  41.831  29.702   5.995
 5287POPC   D2A68368  41.970  29.948   6.337
 5287POPC   C3A68369  41.920  29.753   6.713
 5287POPC   C4A68370  42.033  29.819   7.104
 5287POPC   C1B68371  41.485  30.040   6.180
 5287POPC   C2B68372  41.460  29.963   6.637
 5287POPC   C3B68373  41.500  29.869   7.096
 5287POPC   C4B68374  41.129  29.754   7.342
 5288POPC   NC368375  26.288  33.109   5.505
 5288POPC   PO468376  25.688  32.812   5.379
 5288POPC   GL168377  25.891  32.879   5.772
 5288POPC   GL268378  25.790  33.216   5.904
 5288POPC   C1A68379  26.128  32.907   6.172
 5288POPC   D2A68380  26.172  33.226   6.508
 5288POPC   C3A68381  26.228  33.107   6.947
 5288POPC   C4A68382  26.106  32.698   7.097
 5288POPC   C1B68383  25.681  33.305   6.340
 5288POPC   C2B68384  25.689  33.219   6.783
 5288POPC   C3B68385  25.759  33.076   7.190
 5288POPC   C4B68386  25.611  33.071   7.614
 5289POPC   NC368387  14.768  14.934   5.346
 5289POPC   PO468388  14.270  15.361   5.358
 5289POPC   GL168389  14.224  15.279   5.768
 5289POPC   GL268390  14.548  15.144   5.766
 5289POPC   C1A68391  14.121  15.242   6.187
 5289POPC   D2A68392  14.376  15.158   6.517
 5289POPC   C3A68393  14.194  15.202   6.878
 5289POPC   C4A68394  14.350  15.299   7.236
 5289POPC   C1B68395  14.722  15.076   6.146
 5289POPC   C2B68396  14.728  14.784   6.485
 5289POPC   C3B68397  14.542  14.730   6.899
 5289POPC   C4B68398  14.678  14.903   7.295
 5290POPC   NC368399   2.833  41.983   5.080
 5290POPC   PO468400   3.072  42.689   5.204
 5290POPC   GL168401   2.819  42.617   5.670
 5290POPC   GL268402   2.489  42.595   5.774
 5290POPC   C1A68403   2.824  42.314   6.113
 5290POPC   D2A68404   3.042  42.141   6.501
 5290POPC   C3A68405   2.822  42.049   6.905
 5290POPC   C4A68406   2.385  41.951   6.953
 5290POPC   C1B68407   2.722  42.795   6.139
 5290POPC   C2B68408   2.598  42.768   6.582
 5290POPC   C3B68409   2.597  42.515   6.971
 5290POPC   C4B68410   2.614  42.698   7.388
 5291POPC   NC368411   7.600  30.012   5.619
 5291POPC   PO468412   6.935  30.143   5.610
 5291POPC   GL168413   7.141  29.996   5.976
 5291POPC   GL268414   7.367  29.716   5.979
 5291POPC   C1A68415   7.216  29.904   6.428
 5291POPC   D2A68416   7.208  30.171   6.779
 5291POPC   C3A68417   7.127  30.006   7.197
 5291POPC   C4A68418   7.380  30.081   7.575
 5291POPC   C1B68419   7.734  29.866   6.238
 5291POPC   C2B68420   7.717  30.044   6.643
 5291POPC   C3B68421   7.530  29.799   6.959
 5291POPC   C4B68422   7.664  29.687   7.354
 5292POPC   NC368423  15.990  38.191   5.213
 5292POPC   PO468424  16.356  38.779   5.331
 5292POPC   GL168425  16.081  38.537   5.650
 5292POPC   GL268426  15.743  38.712   5.694
 5292POPC   C1A68427  16.056  38.276   6.020
 5292POPC   D2A68428  16.194  38.140   6.441
 5292POPC   C3A68429  15.937  38.299   6.785
 5292POPC   C4A68430  16.072  38.486   7.151
 5292POPC   C1B68431  15.663  38.642   6.128
 5292POPC   C2B68432  15.519  38.488   6.519
 5292POPC   C3B68433  15.404  38.252   6.859
 5292POPC   C4B68434  15.538  38.457   7.197
 5293POPC   NC368435  13.864  19.375   5.636
 5293POPC   PO468436  13.604  19.880   5.253
 5293POPC   GL168437  13.557  19.990   5.719
 5293POPC   GL268438  13.469  19.669   5.851
 5293POPC   C1A68439  13.755  19.941   6.177
 5293POPC   D2A68440  13.589  19.796   6.595
 5293POPC   C3A68441  13.611  19.961   6.986
 5293POPC   C4A68442  13.936  19.922   7.217
 5293POPC   C1B68443  13.527  19.457   6.237
 5293POPC   C2B68444  13.265  19.407   6.619
 5293POPC   C3B68445  13.308  19.559   7.033
 5293POPC   C4B68446  13.587  19.585   7.391
 5294POPC   NC368447   0.595  44.093   5.636
 5294POPC   PO468448   0.359  44.554   5.164
 5294POPC   GL168449   0.446  44.597   5.668
 5294POPC   GL268450   0.616  44.906   5.771
 5294POPC   C1A68451   0.369  44.535   6.187
 5294POPC   D2A68452   0.184  44.460   6.643
 5294POPC   C3A68453   0.279  44.671   7.062
 5294POPC   C4A68454   0.237  44.579   7.526
 5294POPC   C1B68455   0.713  44.897   6.231
 5294POPC   C2B68456   0.688  44.664   6.664
 5294POPC   C3B68457   0.751  44.528   7.132
 5294POPC   C4B68458   0.786  44.818   7.467
 5295POPC   NC368459  11.928  38.842   5.455
 5295POPC   PO468460  11.846  39.555   5.436
 5295POPC   GL168461  12.083  39.400   5.868
 5295POPC   GL268462  12.117  39.023   5.908
 5295POPC   C1A68463  12.178  39.328   6.339
 5295POPC   D2A68464  12.366  39.171   6.740
 5295POPC   C3A68465  12.276  39.452   7.050
 5295POPC   C4A68466  11.837  39.503   7.134
 5295POPC   C1B68467  11.872  38.909   6.298
 5295POPC   C2B68468  11.851  39.118   6.720
 5295POPC   C3B68469  12.016  39.017   7.120
 5295POPC   C4B68470  12.323  38.734   7.220
 5296POPC   NC368471  33.858  41.856   5.371
 5296POPC   PO468472  33.885  41.131   5.407
 5296POPC   GL168473  33.772  41.467   5.719
 5296POPC   GL268474  33.448  41.421   5.916
 5296POPC   C1A68475  33.775  41.791   6.076
 5296POPC   D2A68476  33.588  41.722   6.486
 5296POPC   C3A68477  33.707  41.605   6.931
 5296POPC   C4A68478  33.789  41.843   7.327
 5296POPC   C1B68479  33.820  41.309   6.208
 5296POPC   C2B68480  34.036  41.389   6.565
 5296POPC   C3B68481  34.154  41.167   6.885
 5296POPC   C4B68482  33.892  41.199   7.214
 5297POPC   NC368483  33.442  23.863   5.377
 5297POPC   PO468484  34.072  23.997   5.342
 5297POPC   GL168485  34.071  23.938   5.784
 5297POPC   GL268486  33.855  23.654   5.767
 5297POPC   C1A68487  34.104  23.765   6.216
 5297POPC   D2A68488  33.827  23.479   6.400
 5297POPC   C3A68489  33.833  23.595   6.800
 5297POPC   C4A68490  33.916  23.502   7.179
 5297POPC   C1B68491  33.622  23.904   6.104
 5297POPC   C2B68492  33.585  23.989   6.548
 5297POPC   C3B68493  33.636  24.067   6.988
 5297POPC   C4B68494  33.688  23.900   7.413
 5298POPC   NC368495  13.394  42.442   5.072
 5298POPC   PO468496  13.944  42.083   5.361
 5298POPC   GL168497  13.743  42.387   5.680
 5298POPC   GL268498  13.338  42.398   5.706
 5298POPC   C1A68499  13.694  42.348   6.131
 5298POPC   D2A68500  13.721  42.065   6.487
 5298POPC   C3A68501  13.798  42.206   6.883
 5298POPC   C4A68502  14.003  42.423   7.204
 5298POPC   C1B68503  13.189  42.221   6.123
 5298POPC   C2B68504  13.260  42.346   6.556
 5298POPC   C3B68505  13.143  42.262   6.987
 5298POPC   C4B68506  13.492  42.260   7.277
 5299POPC   NC368507  36.585  15.959   5.376
 5299POPC   PO468508  37.219  15.810   5.342
 5299POPC   GL168509  36.981  15.867   5.752
 5299POPC   GL268510  36.634  15.796   5.862
 5299POPC   C1A68511  36.976  16.047   6.188
 5299POPC   D2A68512  36.911  15.874   6.602
 5299POPC   C3A68513  37.105  15.998   6.990
 5299POPC   C4A68514  37.117  16.084   7.431
 5299POPC   C1B68515  36.791  15.532   6.194
 5299POPC   C2B68516  36.797  15.345   6.610
 5299POPC   C3B68517  36.795  15.553   7.014
 5299POPC   C4B68518  36.646  15.877   7.290
 5300POPC   NC368519   9.038  29.458   5.342
 5300POPC   PO468520   8.632  28.983   5.438
 5300POPC   GL168521   8.848  29.194   5.762
 5300POPC   GL268522   8.784  28.880   5.944
 5300POPC   C1A68523   9.168  29.221   6.092
 5300POPC   D2A68524   9.291  29.309   6.529
 5300POPC   C3A68525   9.116  29.168   6.928
 5300POPC   C4A68526   8.923  29.394   7.273
 5300POPC   C1B68527   8.887  28.881   6.386
 5300POPC   C2B68528   8.652  28.755   6.757
 5300POPC   C3B68529   8.681  28.980   7.151
 5300POPC   C4B68530   9.043  28.930   7.473
 5301POPC   NC368531   4.619  20.553   5.208
 5301POPC   PO468532   4.101  21.136   5.382
 5301POPC   GL168533   4.175  20.913   5.791
 5301POPC   GL268534   4.455  20.648   5.805
 5301POPC   C1A68535   4.066  20.637   6.132
 5301POPC   D2A68536   4.188  20.612   6.551
 5301POPC   C3A68537   3.941  20.565   6.914
 5301POPC   C4A68538   3.992  20.455   7.338
 5301POPC   C1B68539   4.614  20.509   6.166
 5301POPC   C2B68540   4.593  20.314   6.556
 5301POPC   C3B68541   4.460  20.472   6.989
 5301POPC   C4B68542   4.770  20.763   7.229
 5302POPC   NC368543   9.322  24.258   5.144
 5302POPC   PO468544  10.006  24.423   5.168
 5302POPC   GL168545  10.107  24.501   5.705
 5302POPC   GL268546   9.794  24.525   5.923
 5302POPC   C1A68547  10.228  24.542   6.187
 5302POPC   D2A68548   9.914  24.481   6.537
 5302POPC   C3A68549   9.850  24.671   6.943
 5302POPC   C4A68550  10.008  24.569   7.304
 5302POPC   C1B68551   9.484  24.407   6.254
 5302POPC   C2B68552   9.449  24.206   6.666
 5302POPC   C3B68553   9.475  24.258   7.115
 5302POPC   C4B68554   9.568  24.443   7.522
 5303POPC   NC368555  11.311  26.293   5.422
 5303POPC   PO468556  11.212  25.677   5.219
 5303POPC   GL168557  11.468  25.866   5.655
 5303POPC   GL268558  11.214  26.039   5.903
 5303POPC   C1A68559  11.663  26.034   6.100
 5303POPC   D2A68560  11.404  26.089   6.513
 5303POPC   C3A68561  11.334  25.928   6.957
 5303POPC   C4A68562  11.296  25.680   7.355
 5303POPC   C1B68563  11.051  26.319   6.242
 5303POPC   C2B68564  10.992  26.587   6.593
 5303POPC   C3B68565  11.130  26.440   7.000
 5303POPC   C4B68566  11.019  26.506   7.421
 5304POPC   NC368567  41.711  44.355   5.384
 5304POPC   PO468568  42.049   0.012   5.427
 5304POPC   GL168569  41.709  44.908   5.720
 5304POPC   GL268570  41.760  44.580   5.840
 5304POPC   C1A68571  41.456  44.871   6.125
 5304POPC   D2A68572  41.332  44.704   6.536
 5304POPC   C3A68573  41.491  44.880   6.945
 5304POPC   C4A68574  41.231  44.877   7.275
 5304POPC   C1B68575  41.495  44.350   6.120
 5304POPC   C2B68576  41.536  44.224   6.550
 5304POPC   C3B68577  41.420  44.381   6.937
 5304POPC   C4B68578  41.627  44.469   7.301
 5305POPC   NC368579  18.127  26.589   5.526
 5305POPC   PO468580  18.521  27.157   5.280
 5305POPC   GL168581  18.413  27.014   5.678
 5305POPC   GL268582  18.624  26.739   5.670
 5305POPC   C1A68583  18.309  26.905   6.120
 5305POPC   D2A68584  18.228  26.568   6.432
 5305POPC   C3A68585  18.272  26.807   6.825
 5305POPC   C4A68586  18.290  27.088   7.184
 5305POPC   C1B68587  18.704  26.572   6.101
 5305POPC   C2B68588  18.710  26.678   6.517
 5305POPC   C3B68589  18.689  26.509   6.938
 5305POPC   C4B68590  18.424  26.584   7.262
 5306POPC   NC368591   8.239   9.167   5.387
 5306POPC   PO468592   8.197   8.517   5.510
 5306POPC   GL168593   7.969   8.662   5.862
 5306POPC   GL268594   8.202   8.942   5.926
 5306POPC   C1A68595   7.975   8.704   6.332
 5306POPC   D2A68596   8.274   8.869   6.616
 5306POPC   C3A68597   8.080   9.047   6.986
 5306POPC   C4A68598   7.938   8.837   7.320
 5306POPC   C1B68599   8.310   9.278   6.255
 5306POPC   C2B68600   8.392   9.356   6.715
 5306POPC   C3B68601   8.599   9.032   6.985
 5306POPC   C4B68602   8.694   8.934   7.426
 5307POPC   NC368603  18.394  28.350   5.196
 5307POPC   PO468604  17.948  28.571   5.658
 5307POPC   GL168605  18.306  28.589   5.897
 5307POPC   GL268606  18.505  28.293   5.793
 5307POPC   C1A68607  18.410  28.584   6.319
 5307POPC   D2A68608  18.413  28.391   6.722
 5307POPC   C3A68609  18.346  28.645   7.092
 5307POPC   C4A68610  18.388  28.536   7.553
 5307POPC   C1B68611  18.229  28.118   6.135
 5307POPC   C2B68612  18.156  27.855   6.497
 5307POPC   C3B68613  18.344  27.901   6.884
 5307POPC   C4B68614  18.269  28.085   7.279
 5308POPC   NC368615  42.034  34.051   5.493
 5308POPC   PO468616  42.618  33.670   5.351
 5308POPC   GL168617  42.354  33.698   5.687
 5308POPC   GL268618  42.470  34.028   5.798
 5308POPC   C1A68619  42.306  33.661   6.124
 5308POPC   D2A68620  42.452  33.757   6.534
 5308POPC   C3A68621  42.111  33.703   6.821
 5308POPC   C4A68622  42.255  33.497   7.150
 5308POPC   C1B68623  42.373  34.169   6.226
 5308POPC   C2B68624  42.217  34.184   6.667
 5308POPC   C3B68625  42.368  34.085   7.076
 5308POPC   C4B68626  42.272  34.125   7.536
 5309POPC   NC368627  28.214  23.244   5.603
 5309POPC   PO468628  28.341  22.709   5.370
 5309POPC   GL168629  28.370  22.801   5.829
 5309POPC   GL268630  28.469  23.120   6.011
 5309POPC   C1A68631  28.375  22.710   6.277
 5309POPC   D2A68632  28.447  22.938   6.632
 5309POPC   C3A68633  28.240  22.819   7.029
 5309POPC   C4A68634  28.178  22.878   7.497
 5309POPC   C1B68635  28.050  23.108   6.222
 5309POPC   C2B68636  27.886  23.392   6.545
 5309POPC   C3B68637  27.913  23.207   6.924
 5309POPC   C4B68638  28.255  23.314   7.203
 5310POPC   NC368639  18.118  27.420   5.441
 5310POPC   PO468640  18.475  27.936   5.395
 5310POPC   GL168641  18.352  27.755   5.787
 5310POPC   GL268642  18.592  27.493   5.800
 5310POPC   C1A68643  18.049  27.515   6.103
 5310POPC   D2A68644  17.967  27.261   6.497
 5310POPC   C3A68645  18.006  27.482   6.880
 5310POPC   C4A68646  18.150  27.590   7.244
 5310POPC   C1B68647  18.541  27.558   6.244
 5310POPC   C2B68648  18.453  27.384   6.638
 5310POPC   C3B68649  18.595  27.470   7.024
 5310POPC   C4B68650  18.710  27.800   7.247
 5311POPC   NC368651  11.541  23.473   5.462
 5311POPC   PO468652  11.026  23.941   5.515
 5311POPC   GL168653  11.276  23.731   5.833
 5311POPC   GL268654  11.622  23.856   5.860
 5311POPC   C1A68655  11.355  23.449   6.176
 5311POPC   D2A68656  11.129  23.427   6.557
 5311POPC   C3A68657  11.223  23.681   6.890
 5311POPC   C4A68658  11.009  23.764   7.267
 5311POPC   C1B68659  11.586  23.890   6.335
 5311POPC   C2B68660  11.720  23.786   6.785
 5311POPC   C3B68661  11.642  23.561   7.192
 5311POPC   C4B68662  11.464  23.515   7.620
 5312POPC   NC368663  41.752   1.341   5.308
 5312POPC   PO468664  41.179   1.063   5.437
 5312POPC   GL168665  41.340   1.204   5.825
 5312POPC   GL268666  41.646   1.406   5.821
 5312POPC   C1A68667  41.403   1.091   6.260
 5312POPC   D2A68668  41.599   1.131   6.669
 5312POPC   C3A68669  41.488   0.911   7.057
 5312POPC   C4A68670  41.529   1.109   7.463
 5312POPC   C1B68671  41.412   1.629   6.167
 5312POPC   C2B68672  41.294   1.544   6.623
 5312POPC   C3B68673  41.478   1.481   7.071
 5312POPC   C4B68674  41.243   1.535   7.492
 5313POPC   NC368675  14.476  11.802   5.473
 5313POPC   PO468676  14.419  12.439   5.354
 5313POPC   GL168677  14.387  12.346   5.814
 5313POPC   GL268678  14.545  12.026   5.907
 5313POPC   C1A68679  14.172  12.216   6.240
 5313POPC   D2A68680  14.046  12.327   6.688
 5313POPC   C3A68681  14.025  11.934   6.911
 5313POPC   C4A68682  13.961  11.772   7.308
 5313POPC   C1B68683  14.708  12.138   6.256
 5313POPC   C2B68684  14.512  11.996   6.611
 5313POPC   C3B68685  14.490  12.123   7.012
 5313POPC   C4B68686  14.264  12.425   7.175
 5314POPC   NC368687  36.654  41.309   5.423
 5314POPC   PO468688  36.109  41.670   5.501
 5314POPC   GL168689  36.268  41.365   5.787
 5314POPC   GL268690  36.533  41.609   5.833
 5314POPC   C1A68691  36.135  41.219   6.204
 5314POPC   D2A68692  36.335  41.329   6.588
 5314POPC   C3A68693  36.051  41.404   6.932
 5314POPC   C4A68694  36.024  41.347   7.389
 5314POPC   C1B68695  36.331  41.707   6.206
 5314POPC   C2B68696  36.453  41.894   6.593
 5314POPC   C3B68697  36.411  41.782   6.989
 5314POPC   C4B68698  35.995  41.853   7.138
 5315POPC   NC368699  10.187  15.566   5.080
 5315POPC   PO468700  10.595  15.049   5.250
 5315POPC   GL168701  10.551  15.151   5.691
 5315POPC   GL268702  10.448  14.883   5.894
 5315POPC   C1A68703  10.444  15.350   6.106
 5315POPC   D2A68704  10.382  15.176   6.514
 5315POPC   C3A68705  10.443  15.366   6.896
 5315POPC   C4A68706  10.595  15.461   7.284
 5315POPC   C1B68707  10.467  14.740   6.291
 5315POPC   C2B68708  10.708  14.799   6.653
 5315POPC   C3B68709  10.725  14.965   7.069
 5315POPC   C4B68710  10.456  14.953   7.403
 5316POPC   NC368711   8.198   4.646   5.383
 5316POPC   PO468712   7.889   4.082   5.197
 5316POPC   GL168713   7.923   4.262   5.683
 5316POPC   GL268714   7.970   4.628   5.837
 5316POPC   C1A68715   8.149   4.283   6.134
 5316POPC   D2A68716   8.059   4.607   6.480
 5316POPC   C3A68717   8.078   4.461   6.905
 5316POPC   C4A68718   8.298   4.326   7.270
 5316POPC   C1B68719   8.328   4.766   6.081
 5316POPC   C2B68720   8.519   4.878   6.494
 5316POPC   C3B68721   8.258   4.947   6.865
 5316POPC   C4B68722   8.079   4.849   7.257
 5317POPC   NC368723   9.213   9.050   5.192
 5317POPC   PO468724   8.620   8.929   5.295
 5317POPC   GL168725   8.954   9.005   5.646
 5317POPC   GL268726   9.224   8.748   5.748
 5317POPC   C1A68727   9.010   9.082   6.096
 5317POPC   D2A68728   8.774   9.124   6.470
 5317POPC   C3A68729   8.985   9.323   6.798
 5317POPC   C4A68730   9.069   9.154   7.175
 5317POPC   C1B68731   9.190   8.628   6.234
 5317POPC   C2B68732   9.189   8.839   6.664
 5317POPC   C3B68733   8.996   8.681   7.044
 5317POPC   C4B68734   8.956   8.389   7.356
 5318POPC   NC368735  31.083  34.594   5.434
 5318POPC   PO468736  31.717  34.315   5.609
 5318POPC   GL168737  31.726  34.662   5.879
 5318POPC   GL268738  31.446  34.864   5.735
 5318POPC   C1A68739  31.654  34.543   6.311
 5318POPC   D2A68740  31.681  34.633   6.733
 5318POPC   C3A68741  31.708  34.342   7.072
 5318POPC   C4A68742  31.577  34.720   7.255
 5318POPC   C1B68743  31.212  34.698   6.092
 5318POPC   C2B68744  31.091  34.734   6.534
 5318POPC   C3B68745  31.181  34.796   6.944
 5318POPC   C4B68746  31.199  34.405   7.167
 5319POPC   NC368747   6.232  11.529   5.438
 5319POPC   PO468748   6.857  11.292   5.546
 5319POPC   GL168749   6.590  11.402   5.914
 5319POPC   GL268750   6.249  11.584   5.949
 5319POPC   C1A68751   6.720  11.312   6.342
 5319POPC   D2A68752   6.946  11.056   6.644
 5319POPC   C3A68753   6.985  11.312   7.004
 5319POPC   C4A68754   6.858  11.260   7.403
 5319POPC   C1B68755   6.196  11.222   6.222
 5319POPC   C2B68756   6.331  11.106   6.651
 5319POPC   C3B68757   6.426  11.323   7.038
 5319POPC   C4B68758   6.361  11.328   7.491
 5320POPC   NC368759  37.408  26.754   5.310
 5320POPC   PO468760  36.727  26.788   5.370
 5320POPC   GL168761  36.725  26.956   5.768
 5320POPC   GL268762  37.085  27.030   5.731
 5320POPC   C1A68763  36.778  27.121   6.200
 5320POPC   D2A68764  36.939  26.914   6.576
 5320POPC   C3A68765  36.747  26.813   6.952
 5320POPC   C4A68766  36.641  26.999   7.356
 5320POPC   C1B68767  37.239  26.908   6.138
 5320POPC   C2B68768  37.318  26.598   6.455
 5320POPC   C3B68769  37.245  26.613   6.895
 5320POPC   C4B68770  37.126  26.837   7.279
 5321POPC   NC368771  39.522  35.763   5.400
 5321POPC   PO468772  39.310  35.043   5.321
 5321POPC   GL168773  39.210  35.170   5.780
 5321POPC   GL268774  39.296  35.500   5.773
 5321POPC   C1A68775  39.115  35.386   6.230
 5321POPC   D2A68776  38.905  35.594   6.609
 5321POPC   C3A68777  38.990  35.399   7.019
 5321POPC   C4A68778  39.240  35.075   7.185
 5321POPC   C1B68779  39.571  35.593   6.132
 5321POPC   C2B68780  39.456  35.616   6.562
 5321POPC   C3B68781  39.588  35.672   6.962
 5321POPC   C4B68782  39.510  35.471   7.331
 5322POPC   NC368783  34.039   6.547   5.501
 5322POPC   PO468784  34.633   6.607   5.465
 5322POPC   GL168785  34.626   6.703   5.893
 5322POPC   GL268786  34.273   6.805   5.953
 5322POPC   C1A68787  34.748   6.895   6.256
 5322POPC   D2A68788  34.815   6.654   6.621
 5322POPC   C3A68789  34.619   6.839   6.929
 5322POPC   C4A68790  34.360   6.746   7.244
 5322POPC   C1B68791  34.278   6.654   6.380
 5322POPC   C2B68792  34.256   6.480   6.798
 5322POPC   C3B68793  34.471   6.243   7.128
 5322POPC   C4B68794  34.275   5.952   7.449
 5323POPC   NC368795  26.646  27.760   5.067
 5323POPC   PO468796  27.123  27.536   5.532
 5323POPC   GL168797  26.956  27.800   5.884
 5323POPC   GL268798  26.577  27.884   5.862
 5323POPC   C1A68799  27.025  27.795   6.322
 5323POPC   D2A68800  26.737  27.851   6.631
 5323POPC   C3A68801  26.810  27.558   6.944
 5323POPC   C4A68802  27.026  27.673   7.274
 5323POPC   C1B68803  26.343  27.868   6.276
 5323POPC   C2B68804  26.253  28.047   6.699
 5323POPC   C3B68805  26.561  28.030   7.068
 5323POPC   C4B68806  26.518  27.679   7.367
 5324POPC   NC368807  42.483   0.916   5.427
 5324POPC   PO468808  42.181   1.509   5.188
 5324POPC   GL168809  42.176   1.393   5.691
 5324POPC   GL268810  42.516   1.247   5.816
 5324POPC   C1A68811  41.982   1.237   6.154
 5324POPC   D2A68812  42.111   1.065   6.612
 5324POPC   C3A68813  41.932   1.181   7.064
 5324POPC   C4A68814  42.101   1.190   7.504
 5324POPC   C1B68815  42.470   1.233   6.255
 5324POPC   C2B68816  42.454   1.492   6.622
 5324POPC   C3B68817  42.382   1.405   7.058
 5324POPC   C4B68818  42.154   1.699   7.302
 5325POPC   NC368819  34.696  10.775   5.324
 5325POPC   PO468820  34.691  10.128   5.161
 5325POPC   GL168821  34.827  10.265   5.642
 5325POPC   GL268822  34.694  10.598   5.793
 5325POPC   C1A68823  34.712  10.253   6.139
 5325POPC   D2A68824  34.476  10.306   6.534
 5325POPC   C3A68825  34.617  10.211   6.934
 5325POPC   C4A68826  34.788  10.450   7.237
 5325POPC   C1B68827  34.881  10.758   6.212
 5325POPC   C2B68828  35.027  10.734   6.658
 5325POPC   C3B68829  34.938  10.896   7.054
 5325POPC   C4B68830  34.787  10.907   7.462
 5326POPC   NC368831  22.327  39.657   5.424
 5326POPC   PO468832  22.229  40.323   5.268
 5326POPC   GL168833  22.160  40.119   5.676
 5326POPC   GL268834  21.921  39.821   5.738
 5326POPC   C1A68835  22.353  39.940   6.044
 5326POPC   D2A68836  22.252  40.073   6.435
 5326POPC   C3A68837  22.313  39.923   6.855
 5326POPC   C4A68838  22.194  40.146   7.234
 5326POPC   C1B68839  21.945  39.649   6.166
 5326POPC   C2B68840  21.874  39.747   6.606
 5326POPC   C3B68841  21.848  39.776   7.051
 5326POPC   C4B68842  22.015  39.713   7.468
 5327POPC   NC368843  42.055  20.514   5.566
 5327POPC   PO468844  42.686  20.707   5.552
 5327POPC   GL168845  42.443  20.613   5.903
 5327POPC   GL268846  42.181  20.847   5.927
 5327POPC   C1A68847  42.420  20.690   6.339
 5327POPC   D2A68848  42.386  20.426   6.655
 5327POPC   C3A68849  42.567  20.574   6.990
 5327POPC   C4A68850  42.264  20.325   7.194
 5327POPC   C1B68851  41.979  20.976   6.302
 5327POPC   C2B68852  42.117  20.904   6.730
 5327POPC   C3B68853  42.176  20.816   7.167
 5327POPC   C4B68854  41.995  20.848   7.578
 5328POPC   NC368855  24.169  21.871   5.571
 5328POPC   PO468856  24.849  21.978   5.601
 5328POPC   GL168857  24.517  22.178   5.826
 5328POPC   GL268858  24.678  22.490   5.858
 5328POPC   C1A68859  24.332  22.351   6.241
 5328POPC   D2A68860  24.213  22.506   6.676
 5328POPC   C3A68861  24.315  22.215   7.003
 5328POPC   C4A68862  24.293  21.798   7.166
 5328POPC   C1B68863  24.847  22.255   6.216
 5328POPC   C2B68864  24.702  22.186   6.633
 5328POPC   C3B68865  24.780  22.022   7.043
 5328POPC   C4B68866  24.885  22.306   7.371
 5329POPC   NC368867   1.587  21.652   5.520
 5329POPC   PO468868   1.191  21.055   5.286
 5329POPC   GL168869   1.373  21.221   5.676
 5329POPC   GL268870   1.092  21.272   5.848
 5329POPC   C1A68871   1.481  21.390   6.134
 5329POPC   D2A68872   1.399  21.323   6.576
 5329POPC   C3A68873   1.411  21.462   7.041
 5329POPC   C4A68874   1.306  21.175   7.426
 5329POPC   C1B68875   0.934  21.399   6.270
 5329POPC   C2B68876   0.964  21.515   6.744
 5329POPC   C3B68877   0.925  21.420   7.194
 5329POPC   C4B68878   0.700  21.677   7.521
 5330POPC   NC368879  10.276   0.900   5.368
 5330POPC   PO468880  10.557   1.486   5.338
 5330POPC   GL168881  10.298   1.271   5.699
 5330POPC   GL268882  10.445   0.956   5.851
 5330POPC   C1A68883  10.147   1.269   6.125
 5330POPC   D2A68884  10.370   1.470   6.467
 5330POPC   C3A68885  10.399   1.246   6.837
 5330POPC   C4A68886  10.274   1.207   7.259
 5330POPC   C1B68887  10.533   0.969   6.320
 5330POPC   C2B68888  10.758   0.899   6.718
 5330POPC   C3B68889  10.732   1.009   7.178
 5330POPC   C4B68890  10.814   1.104   7.648
 5331POPC   NC368891  42.608  22.855   5.422
 5331POPC   PO468892  42.000  22.950   5.243
 5331POPC   GL168893  42.195  22.779   5.720
 5331POPC   GL268894  42.428  23.100   5.819
 5331POPC   C1A68895  42.227  22.786   6.237
 5331POPC   D2A68896  42.228  22.582   6.707
 5331POPC   C3A68897  42.202  22.869   7.124
 5331POPC   C4A68898  42.237  22.708   7.567
 5331POPC   C1B68899  42.470  23.323   6.190
 5331POPC   C2B68900  42.378  23.179   6.605
 5331POPC   C3B68901  42.546  23.272   7.011
 5331POPC   C4B68902  42.641  23.274   7.459
 5332POPC   NC368903   9.612   8.379   5.611
 5332POPC   PO468904   9.587   9.020   5.473
 5332POPC   GL168905   9.706   8.899   5.838
 5332POPC   GL268906   9.862   9.209   5.953
 5332POPC   C1A68907   9.515   9.018   6.253
 5332POPC   D2A68908   9.630   9.316   6.550
 5332POPC   C3A68909   9.510   9.229   6.949
 5332POPC   C4A68910   9.481   8.824   7.171
 5332POPC   C1B68911   9.999   8.799   6.220
 5332POPC   C2B68912  10.121   8.659   6.664
 5332POPC   C3B68913   9.992   8.782   7.091
 5332POPC   C4B68914   9.873   9.173   7.312
 5333POPC   NC368915  15.904  38.709   5.215
 5333POPC   PO468916  15.531  39.183   5.447
 5333POPC   GL168917  15.851  39.219   5.809
 5333POPC   GL268918  16.130  39.026   5.795
 5333POPC   C1A68919  15.914  39.068   6.270
 5333POPC   D2A68920  15.793  39.310   6.654
 5333POPC   C3A68921  15.997  39.347   7.033
 5333POPC   C4A68922  15.834  39.393   7.429
 5333POPC   C1B68923  16.326  38.733   6.100
 5333POPC   C2B68924  16.238  38.667   6.550
 5333POPC   C3B68925  15.883  38.826   6.816
 5333POPC   C4B68926  15.817  38.897   7.289
 5334POPC   NC368927  26.310  13.259   5.303
 5334POPC   PO468928  26.023  12.665   5.457
 5334POPC   GL168929  26.118  13.001   5.759
 5334POPC   GL268930  26.228  12.728   5.968
 5334POPC   C1A68931  26.159  13.173   6.211
 5334POPC   D2A68932  26.360  12.896   6.552
 5334POPC   C3A68933  26.215  12.805   6.979
 5334POPC   C4A68934  26.024  13.168   7.140
 5334POPC   C1B68935  25.865  12.769   6.287
 5334POPC   C2B68936  25.759  12.766   6.753
 5334POPC   C3B68937  25.735  12.713   7.225
 5334POPC   C4B68938  25.787  12.478   7.629
 5335POPC   NC368939  30.927  31.927   5.247
 5335POPC   PO468940  30.463  31.451   5.533
 5335POPC   GL168941  30.642  31.693   5.867
 5335POPC   GL268942  30.967  31.771   5.776
 5335POPC   C1A68943  30.456  31.844   6.249
 5335POPC   D2A68944  30.242  31.628   6.570
 5335POPC   C3A68945  30.441  31.670   6.960
 5335POPC   C4A68946  30.737  31.463   7.222
 5335POPC   C1B68947  30.976  31.830   6.244
 5335POPC   C2B68948  30.907  31.748   6.704
 5335POPC   C3B68949  30.896  31.931   7.132
 5335POPC   C4B68950  30.973  31.781   7.562
 5336POPC   NC368951  30.088  43.083   5.411
 5336POPC   PO468952  29.424  42.807   5.479
 5336POPC   GL168953  29.684  43.031   5.809
 5336POPC   GL268954  29.489  43.289   5.933
 5336POPC   C1A68955  29.971  43.228   6.178
 5336POPC   D2A68956  30.200  43.331   6.630
 5336POPC   C3A68957  30.149  42.999   7.026
 5336POPC   C4A68958  30.127  42.779   7.507
 5336POPC   C1B68959  29.346  42.934   6.206
 5336POPC   C2B68960  29.460  42.722   6.614
 5336POPC   C3B68961  29.474  42.838   7.077
 5336POPC   C4B68962  29.754  43.095   7.312
 5337POPC   NC368963  25.578  15.672   5.366
 5337POPC   PO468964  24.909  15.632   5.562
 5337POPC   GL168965  25.150  15.931   5.758
 5337POPC   GL268966  25.033  16.294   5.727
 5337POPC   C1A68967  25.321  15.798   6.160
 5337POPC   D2A68968  25.597  15.965   6.458
 5337POPC   C3A68969  25.473  15.772   6.846
 5337POPC   C4A68970  25.368  15.825   7.284
 5337POPC   C1B68971  25.225  16.278   6.138
 5337POPC   C2B68972  25.119  16.115   6.566
 5337POPC   C3B68973  25.218  16.205   6.982
 5337POPC   C4B68974  25.073  16.197   7.426
 5338POPC   NC368975  25.558  19.964   5.374
 5338POPC   PO468976  24.907  19.713   5.305
 5338POPC   GL168977  25.166  19.800   5.677
 5338POPC   GL268978  25.510  19.652   5.770
 5338POPC   C1A68979  25.146  19.914   6.121
 5338POPC   D2A68980  25.054  19.757   6.539
 5338POPC   C3A68981  25.189  19.935   6.937
 5338POPC   C4A68982  25.264  19.805   7.398
 5338POPC   C1B68983  25.676  19.881   6.136
 5338POPC   C2B68984  25.583  19.776   6.573
 5338POPC   C3B68985  25.554  19.608   7.007
 5338POPC   C4B68986  25.659  20.027   7.200
 5339POPC   NC368987  10.687  19.441   5.393
 5339POPC   PO468988  10.397  18.772   5.466
 5339POPC   GL168989  10.361  18.974   5.867
 5339POPC   GL268990  10.615  19.260   5.868
 5339POPC   C1A68991  10.499  18.977   6.303
 5339POPC   D2A68992  10.484  19.253   6.646
 5339POPC   C3A68993  10.252  19.034   7.003
 5339POPC   C4A68994  10.115  18.899   7.410
 5339POPC   C1B68995  10.837  19.389   6.247
 5339POPC   C2B68996  11.019  19.109   6.575
 5339POPC   C3B68997  10.758  18.906   6.891
 5339POPC   C4B68998  10.699  19.325   7.097
 5340POPC   NC368999  33.077  20.433   5.369
 5340POPC   PO469000  33.259  21.037   5.480
 5340POPC   GL169001  33.081  20.701   5.803
 5340POPC   GL269002  32.762  20.473   5.774
 5340POPC   C1A69003  33.176  20.360   6.123
 5340POPC   D2A69004  33.089  20.213   6.571
 5340POPC   C3A69005  33.267  20.496   6.913
 5340POPC   C4A69006  33.355  20.521   7.388
 5340POPC   C1B69007  32.723  20.650   6.187
 5340POPC   C2B69008  32.525  20.885   6.508
 5340POPC   C3B69009  32.805  20.876   6.854
 5340POPC   C4B69010  32.853  20.595   7.202
 5341POPC   NC369011  10.455  13.857   5.473
 5341POPC   PO469012  10.439  13.237   5.378
 5341POPC   GL169013  10.358  13.401   5.768
 5341POPC   GL269014  10.687  13.432   5.836
 5341POPC   C1A69015  10.371  13.610   6.194
 5341POPC   D2A69016  10.315  13.882   6.540
 5341POPC   C3A69017  10.324  13.700   6.960
 5341POPC   C4A69018  10.417  13.842   7.379
 5341POPC   C1B69019  10.877  13.445   6.256
 5341POPC   C2B69020  10.730  13.494   6.688
 5341POPC   C3B69021  10.774  13.422   7.142
 5341POPC   C4B69022  10.648  13.433   7.579
 5342POPC   NC369023   9.297  19.437   5.428
 5342POPC   PO469024   8.853  18.916   5.281
 5342POPC   GL169025   8.849  18.892   5.774
 5342POPC   GL269026   8.983  19.204   5.829
 5342POPC   C1A69027   8.949  18.913   6.274
 5342POPC   D2A69028   9.152  18.750   6.680
 5342POPC   C3A69029   8.914  18.816   7.053
 5342POPC   C4A69030   8.703  19.197   7.182
 5342POPC   C1B69031   9.251  19.409   6.112
 5342POPC   C2B69032   9.181  19.417   6.537
 5342POPC   C3B69033   9.327  19.196   6.893
 5342POPC   C4B69034   9.218  19.171   7.306
 5343POPC   NC369035  36.696  27.266   5.322
 5343POPC   PO469036  37.182  27.692   5.197
 5343POPC   GL169037  36.917  27.726   5.588
 5343POPC   GL269038  36.565  27.809   5.517
 5343POPC   C1A69039  36.931  27.616   6.043
 5343POPC   D2A69040  37.097  27.780   6.452
 5343POPC   C3A69041  36.953  27.519   6.813
 5343POPC   C4A69042  36.958  27.367   7.243
 5343POPC   C1B69043  36.482  27.862   5.983
 5343POPC   C2B69044  36.579  27.789   6.420
 5343POPC   C3B69045  36.474  27.702   6.860
 5343POPC   C4B69046  36.653  27.784   7.265
 5344POPC   NC369047  10.317  24.158   4.961
 5344POPC   PO469048  10.554  24.604   5.414
 5344POPC   GL169049  10.660  24.504   5.847
 5344POPC   GL269050  10.942  24.744   5.858
 5344POPC   C1A69051  10.651  24.181   6.206
 5344POPC   D2A69052  10.364  24.153   6.560
 5344POPC   C3A69053  10.401  24.404   6.931
 5344POPC   C4A69054  10.451  24.746   7.147
 5344POPC   C1B69055  10.903  24.612   6.287
 5344POPC   C2B69056  10.832  24.436   6.670
 5344POPC   C3B69057  10.927  24.634   7.053
 5344POPC   C4B69058  10.935  24.811   7.467
 5345POPC   NC369059   4.354  37.464   5.421
 5345POPC   PO469060   4.119  38.184   5.515
 5345POPC   GL169061   4.347  37.840   5.785
 5345POPC   GL269062   4.171  37.512   5.901
 5345POPC   C1A69063   4.479  37.738   6.223
 5345POPC   D2A69064   4.219  37.546   6.547
 5345POPC   C3A69065   4.383  37.439   7.002
 5345POPC   C4A69066   4.510  37.525   7.453
 5345POPC   C1B69067   3.994  37.905   6.133
 5345POPC   C2B69068   3.969  38.009   6.585
 5345POPC   C3B69069   3.959  37.714   6.958
 5345POPC   C4B69070   4.060  37.785   7.414
 5346POPC   NC369071  34.004  33.386   5.652
 5346POPC   PO469072  33.734  32.760   5.383
 5346POPC   GL169073  33.609  32.757   5.780
 5346POPC   GL269074  33.587  33.105   5.833
 5346POPC   C1A69075  33.723  32.769   6.213
 5346POPC   D2A69076  33.671  32.930   6.611
 5346POPC   C3A69077  33.952  32.839   6.938
 5346POPC   C4A69078  34.252  33.006   7.237
 5346POPC   C1B69079  33.470  33.318   6.239
 5346POPC   C2B69080  33.396  33.346   6.698
 5346POPC   C3B69081  33.588  33.212   7.088
 5346POPC   C4B69082  33.552  33.294   7.543
 5347POPC   NC369083  15.358  10.199   5.371
 5347POPC   PO469084  14.887  10.672   5.554
 5347POPC   GL169085  15.191  10.577   5.841
 5347POPC   GL269086  15.234  10.241   5.854
 5347POPC   C1A69087  15.180  10.683   6.277
 5347POPC   D2A69088  15.031  10.862   6.653
 5347POPC   C3A69089  15.177  10.717   7.044
 5347POPC   C4A69090  15.124  10.911   7.448
 5347POPC   C1B69091  15.074  10.171   6.246
 5347POPC   C2B69092  14.822  10.389   6.551
 5347POPC   C3B69093  14.823  10.342   6.998
 5347POPC   C4B69094  15.155  10.278   7.336
 5348POPC   NC369095  35.505   7.608   5.463
 5348POPC   PO469096  34.966   7.141   5.585
 5348POPC   GL169097  35.211   7.389   5.831
 5348POPC   GL269098  35.540   7.228   5.828
 5348POPC   C1A69099  35.212   7.691   6.165
 5348POPC   D2A69100  35.394   7.713   6.565
 5348POPC   C3A69101  35.266   7.505   6.944
 5348POPC   C4A69102  35.129   7.765   7.294
 5348POPC   C1B69103  35.654   7.433   6.182
 5348POPC   C2B69104  35.748   7.369   6.593
 5348POPC   C3B69105  35.752   7.581   6.965
 5348POPC   C4B69106  35.583   7.530   7.376
 5349POPC   NC369107  25.202  37.423   5.219
 5349POPC   PO469108  25.262  36.797   5.434
 5349POPC   GL169109  25.101  36.771   5.845
 5349POPC   GL269110  25.094  36.394   5.851
 5349POPC   C1A69111  25.284  36.978   6.219
 5349POPC   D2A69112  25.242  37.120   6.652
 5349POPC   C3A69113  25.613  37.031   6.868
 5349POPC   C4A69114  25.651  36.816   7.250
 5349POPC   C1B69115  25.256  36.465   6.240
 5349POPC   C2B69116  25.368  36.635   6.623
 5349POPC   C3B69117  25.215  36.682   7.049
 5349POPC   C4B69118  24.909  36.528   7.332
 5350POPC   NC369119  26.305  41.648   5.051
 5350POPC   PO469120  25.908  41.164   5.406
 5350POPC   GL169121  25.797  41.273   5.904
 5350POPC   GL269122  26.051  41.591   5.964
 5350POPC   C1A69123  25.636  41.499   6.275
 5350POPC   D2A69124  25.899  41.749   6.541
 5350POPC   C3A69125  25.889  41.855   6.978
 5350POPC   C4A69126  25.774  41.731   7.372
 5350POPC   C1B69127  26.371  41.666   6.340
 5350POPC   C2B69128  26.312  41.603   6.813
 5350POPC   C3B69129  25.950  41.364   7.010
 5350POPC   C4B69130  25.951  41.262   7.461
 5351POPC   NC369131   9.859  35.169   5.411
 5351POPC   PO469132   9.828  35.816   5.333
 5351POPC   GL169133   9.660  35.537   5.701
 5351POPC   GL269134   9.978  35.451   5.821
 5351POPC   C1A69135   9.604  35.445   6.165
 5351POPC   D2A69136   9.302  35.576   6.500
 5351POPC   C3A69137   9.416  35.485   6.909
 5351POPC   C4A69138   9.544  35.483   7.354
 5351POPC   C1B69139  10.051  35.093   6.104
 5351POPC   C2B69140  10.095  35.042   6.568
 5351POPC   C3B69141   9.908  35.337   6.878
 5351POPC   C4B69142  10.046  35.391   7.286
 5352POPC   NC369143  35.039  18.744   5.408
 5352POPC   PO469144  34.587  19.282   5.417
 5352POPC   GL169145  34.638  19.082   5.811
 5352POPC   GL269146  34.961  19.235   5.773
 5352POPC   C1A69147  34.419  19.022   6.225
 5352POPC   D2A69148  34.242  19.197   6.641
 5352POPC   C3A69149  34.460  19.073   7.010
 5352POPC   C4A69150  34.371  19.106   7.465
 5352POPC   C1B69151  34.891  19.299   6.199
 5352POPC   C2B69152  34.839  19.071   6.572
 5352POPC   C3B69153  34.942  19.217   6.958
 5352POPC   C4B69154  34.879  19.090   7.337
 5353POPC   NC369155   1.022  24.186   5.397
 5353POPC   PO469156   0.301  24.312   5.401
 5353POPC   GL169157   0.213  24.314   5.838
 5353POPC   GL269158   0.151  24.668   5.853
 5353POPC   C1A69159   0.345  24.292   6.316
 5353POPC   D2A69160   0.275  24.223   6.787
 5353POPC   C3A69161   0.561  24.430   7.093
 5353POPC   C4A69162   0.601  24.380   7.531
 5353POPC   C1B69163   0.362  24.816   6.201
 5353POPC   C2B69164   0.265  24.731   6.648
 5353POPC   C3B69165   0.177  24.747   7.104
 5353POPC   C4B69166   0.489  24.854   7.414
 5354POPC   NC369167  17.750  18.258   5.410
 5354POPC   PO469168  17.111  18.559   5.327
 5354POPC   GL169169  17.248  18.629   5.788
 5354POPC   GL269170  17.598  18.551   5.801
 5354POPC   C1A69171  17.362  18.568   6.247
 5354POPC   D2A69172  17.327  18.237   6.544
 5354POPC   C3A69173  17.349  18.248   7.004
 5354POPC   C4A69174  17.253  18.058   7.440
 5354POPC   C1B69175  17.681  18.176   6.086
 5354POPC   C2B69176  17.820  18.078   6.508
 5354POPC   C3B69177  17.890  18.080   6.944
 5354POPC   C4B69178  17.748  18.215   7.332
 5355POPC   NC369179  44.356   1.659   5.675
 5355POPC   PO469180  44.963   1.456   5.365
 5355POPC   GL169181  44.752   1.335   5.717
 5355POPC   GL269182  44.850   1.661   5.845
 5355POPC   C1A69183  44.488   1.086   6.024
 5355POPC   D2A69184  44.552   0.782   6.351
 5355POPC   C3A69185  44.571   0.920   6.778
 5355POPC   C4A69186  44.523   0.995   7.194
 5355POPC   C1B69187  44.875   1.385   6.203
 5355POPC   C2B69188  44.661   1.374   6.574
 5355POPC   C3B69189  44.775   1.390   7.015
 5355POPC   C4B69190  44.476   1.491   7.365
 5356POPC   NC369191   2.368  16.602   5.422
 5356POPC   PO469192   2.911  16.846   5.538
 5356POPC   GL169193   2.759  17.043   5.921
 5356POPC   GL269194   2.448  16.983   5.848
 5356POPC   C1A69195   2.720  17.145   6.368
 5356POPC   D2A69196   2.797  16.924   6.747
 5356POPC   C3A69197   2.671  17.036   7.160
 5356POPC   C4A69198   2.301  16.908   7.378
 5356POPC   C1B69199   2.390  16.776   6.222
 5356POPC   C2B69200   2.554  16.498   6.527
 5356POPC   C3B69201   2.459  16.587   6.954
 5356POPC   C4B69202   2.594  16.477   7.338
 5357POPC   NC369203  13.972  14.308   5.665
 5357POPC   PO469204  14.535  14.519   5.207
 5357POPC   GL169205  14.511  14.593   5.660
 5357POPC   GL269206  14.190  14.778   5.639
 5357POPC   C1A69207  14.557  14.341   6.081
 5357POPC   D2A69208  14.512  14.325   6.526
 5357POPC   C3A69209  14.466  14.142   6.920
 5357POPC   C4A69210  14.480  14.387   7.299
 5357POPC   C1B69211  14.293  14.781   6.094
 5357POPC   C2B69212  14.158  14.685   6.525
 5357POPC   C3B69213  13.998  14.756   6.912
 5357POPC   C4B69214  14.174  14.813   7.309
 5358POPC   NC369215  17.525  38.052   5.444
 5358POPC   PO469216  17.663  37.309   5.478
 5358POPC   GL169217  17.476  37.591   5.807
 5358POPC   GL269218  17.438  37.949   5.921
 5358POPC   C1A69219  17.648  37.623   6.242
 5358POPC   D2A69220  17.479  37.474   6.603
 5358POPC   C3A69221  17.490  37.758   6.945
 5358POPC   C4A69222  17.479  37.524   7.311
 5358POPC   C1B69223  17.144  38.163   6.197
 5358POPC   C2B69224  17.219  38.260   6.620
 5358POPC   C3B69225  17.021  38.181   7.007
 5358POPC   C4B69226  17.133  37.889   7.329
 5359POPC   NC369227  28.786  22.867   5.359
 5359POPC   PO469228  29.457  22.748   5.367
 5359POPC   GL169229  29.214  22.850   5.746
 5359POPC   GL269230  28.935  23.103   5.798
 5359POPC   C1A69231  29.229  22.917   6.183
 5359POPC   D2A69232  28.981  22.893   6.561
 5359POPC   C3A69233  29.197  22.962   6.958
 5359POPC   C4A69234  29.050  22.923   7.387
 5359POPC   C1B69235  28.897  23.292   6.232
 5359POPC   C2B69236  28.785  23.346   6.703
 5359POPC   C3B69237  28.685  23.056   7.065
 5359POPC   C4B69238  28.620  23.155   7.534
 5360POPC   NC369239  13.195   9.153   5.560
 5360POPC   PO469240  12.574   8.985   5.397
 5360POPC   GL169241  12.848   8.814   5.745
 5360POPC   GL269242  12.774   9.140   5.880
 5360POPC   C1A69243  12.970   8.828   6.223
 5360POPC   D2A69244  13.057   9.123   6.559
 5360POPC   C3A69245  13.224   8.978   6.935
 5360POPC   C4A69246  13.044   8.724   7.241
 5360POPC   C1B69247  12.475   8.801   6.075
 5360POPC   C2B69248  12.544   8.626   6.477
 5360POPC   C3B69249  12.678   8.802   6.868
 5360POPC   C4B69250  12.512   8.781   7.274
 5361POPC   NC369251   1.678  13.773   5.611
 5361POPC   PO469252   0.975  13.840   5.510
 5361POPC   GL169253   0.916  13.556   5.878
 5361POPC   GL269254   1.026  13.210   5.798
 5361POPC   C1A69255   1.059  13.493   6.306
 5361POPC   D2A69256   1.451  13.651   6.518
 5361POPC   C3A69257   1.419  13.723   6.950
 5361POPC   C4A69258   0.987  13.570   7.062
 5361POPC   C1B69259   1.386  13.151   6.053
 5361POPC   C2B69260   1.357  13.115   6.504
 5361POPC   C3B69261   1.358  13.176   6.965
 5361POPC   C4B69262   1.376  13.432   7.355
 5362POPC   NC369263  37.312  42.026   5.529
 5362POPC   PO469264  37.115  42.639   5.227
 5362POPC   GL169265  36.804  42.506   5.591
 5362POPC   GL269266  36.827  42.191   5.763
 5362POPC   C1A69267  36.806  42.610   6.072
 5362POPC   D2A69268  37.163  42.557   6.379
 5362POPC   C3A69269  37.095  42.547   6.838
 5362POPC   C4A69270  36.742  42.607   7.136
 5362POPC   C1B69271  37.051  42.117   6.150
 5362POPC   C2B69272  37.048  42.067   6.596
 5362POPC   C3B69273  36.825  42.112   6.968
 5362POPC   C4B69274  36.971  42.216   7.387
 5363POPC   NC369275  44.437  19.704   5.451
 5363POPC   PO469276   0.082  19.856   5.359
 5363POPC   GL169277  44.767  19.989   5.694
 5363POPC   GL269278  44.794  19.658   5.831
 5363POPC   C1A69279  44.628  19.942   6.189
 5363POPC   D2A69280  44.906  19.964   6.561
 5363POPC   C3A69281  44.706  19.889   6.949
 5363POPC   C4A69282  44.525  20.126   7.240
 5363POPC   C1B69283   0.038  19.614   6.202
 5363POPC   C2B69284   0.074  19.483   6.622
 5363POPC   C3B69285   0.166  19.685   7.000
 5363POPC   C4B69286  44.924  19.697   7.407
 5364POPC   NC369287  34.752  16.473   5.599
 5364POPC   PO469288  35.031  17.008   5.336
 5364POPC   GL169289  34.819  16.940   5.775
 5364POPC   GL269290  34.464  16.967   5.776
 5364POPC   C1A69291  34.672  16.690   6.197
 5364POPC   D2A69292  34.637  16.449   6.596
 5364POPC   C3A69293  34.654  16.622   6.991
 5364POPC   C4A69294  34.395  16.485   7.353
 5364POPC   C1B69295  34.385  17.110   6.191
 5364POPC   C2B69296  34.541  17.004   6.582
 5364POPC   C3B69297  34.321  16.982   6.939
 5364POPC   C4B69298  34.448  17.012   7.348
 5365POPC   NC369299   6.171   7.191   5.462
 5365POPC   PO469300   5.883   7.745   5.481
 5365POPC   GL169301   5.870   7.481   5.827
 5365POPC   GL269302   6.063   7.193   5.940
 5365POPC   C1A69303   5.695   7.497   6.231
 5365POPC   D2A69304   5.718   7.370   6.666
 5365POPC   C3A69305   5.933   7.573   7.007
 5365POPC   C4A69306   5.746   7.527   7.388
 5365POPC   C1B69307   6.017   7.106   6.345
 5365POPC   C2B69308   6.224   7.261   6.696
 5365POPC   C3B69309   6.286   7.193   7.116
 5365POPC   C4B69310   6.140   7.282   7.575
 5366POPC   NC369311  40.556  29.424   5.376
 5366POPC   PO469312  41.079  28.940   5.458
 5366POPC   GL169313  41.080  29.053   5.855
 5366POPC   GL269314  40.764  29.168   5.802
 5366POPC   C1A69315  41.093  29.013   6.276
 5366POPC   D2A69316  41.181  28.803   6.631
 5366POPC   C3A69317  41.018  29.060   6.943
 5366POPC   C4A69318  40.575  29.022   7.131
 5366POPC   C1B69319  40.633  29.230   6.231
 5366POPC   C2B69320  40.665  29.337   6.681
 5366POPC   C3B69321  40.722  29.522   7.101
 5366POPC   C4B69322  40.683  29.550   7.551
 5367POPC   NC369323  35.546  39.024   5.285
 5367POPC   PO469324  35.004  39.461   5.372
 5367POPC   GL169325  35.116  39.278   5.750
 5367POPC   GL269326  35.490  39.295   5.747
 5367POPC   C1A69327  34.971  39.151   6.173
 5367POPC   D2A69328  35.203  39.297   6.555
 5367POPC   C3A69329  35.051  39.083   6.891
 5367POPC   C4A69330  34.983  39.276   7.261
 5367POPC   C1B69331  35.478  39.126   6.159
 5367POPC   C2B69332  35.708  38.998   6.510
 5367POPC   C3B69333  35.811  39.002   6.931
 5367POPC   C4B69334  35.486  39.157   7.182
 5368POPC   NC369335  41.126  30.335   5.250
 5368POPC   PO469336  40.699  29.865   5.463
 5368POPC   GL169337  40.635  29.663   5.849
 5368POPC   GL269338  40.997  29.622   5.895
 5368POPC   C1A69339  40.564  29.724   6.290
 5368POPC   D2A69340  40.758  29.849   6.644
 5368POPC   C3A69341  40.474  29.941   6.911
 5368POPC   C4A69342  40.388  29.890   7.312
 5368POPC   C1B69343  40.980  29.999   6.177
 5368POPC   C2B69344  41.035  30.263   6.571
 5368POPC   C3B69345  40.974  30.150   7.030
 5368POPC   C4B69346  40.792  30.134   7.475
 5369POPC   NC369347   2.140  43.322   5.453
 5369POPC   PO469348   1.835  42.759   5.378
 5369POPC   GL169349   2.073  42.883   5.763
 5369POPC   GL269350   1.893  43.135   5.871
 5369POPC   C1A69351   2.229  42.856   6.202
 5369POPC   D2A69352   2.079  42.962   6.632
 5369POPC   C3A69353   2.328  42.958   7.008
 5369POPC   C4A69354   2.184  42.960   7.418
 5369POPC   C1B69355   2.058  43.314   6.240
 5369POPC   C2B69356   1.983  43.469   6.662
 5369POPC   C3B69357   1.911  43.295   7.088
 5369POPC   C4B69358   1.825  43.269   7.550
 5370POPC   NC369359  19.565  32.631   5.529
 5370POPC   PO469360  19.944  32.115   5.385
 5370POPC   GL169361  19.855  32.258   5.790
 5370POPC   GL269362  19.531  32.151   5.763
 5370POPC   C1A69363  19.954  32.387   6.235
 5370POPC   D2A69364  19.987  32.089   6.588
 5370POPC   C3A69365  19.821  32.220   6.989
 5370POPC   C4A69366  20.129  32.474   7.192
 5370POPC   C1B69367  19.633  31.994   6.192
 5370POPC   C2B69368  19.492  31.976   6.655
 5370POPC   C3B69369  19.603  31.761   7.062
 5370POPC   C4B69370  19.674  31.738   7.571
 5371POPC   NC369371  40.901  31.913   5.453
 5371POPC   PO469372  41.096  32.662   5.454
 5371POPC   GL169373  41.082  32.411   5.857
 5371POPC   GL269374  40.960  32.057   5.923
 5371POPC   C1A69375  40.975  32.377   6.315
 5371POPC   D2A69376  40.962  32.572   6.725
 5371POPC   C3A69377  40.580  32.490   6.943
 5371POPC   C4A69378  40.559  32.246   7.282
 5371POPC   C1B69379  40.622  31.948   6.227
 5371POPC   C2B69380  40.670  31.906   6.671
 5371POPC   C3B69381  40.936  32.073   6.973
 5371POPC   C4B69382  40.946  31.937   7.404
 5372POPC   NC369383  21.974  33.925   5.227
 5372POPC   PO469384  22.477  33.631   5.363
 5372POPC   GL169385  22.132  33.681   5.671
 5372POPC   GL269386  22.233  34.017   5.780
 5372POPC   C1A69387  21.889  33.773   6.068
 5372POPC   D2A69388  21.984  33.709   6.509
 5372POPC   C3A69389  21.852  33.894   6.895
 5372POPC   C4A69390  22.001  33.693   7.275
 5372POPC   C1B69391  22.375  33.915   6.225
 5372POPC   C2B69392  22.306  34.110   6.662
 5372POPC   C3B69393  22.291  34.085   7.133
 5372POPC   C4B69394  22.155  34.074   7.600
 5373POPC   NC369395  16.161  40.126   5.115
 5373POPC   PO469396  16.777  40.103   5.442
 5373POPC   GL169397  16.836  39.890   5.821
 5373POPC   GL269398  16.635  40.150   5.950
 5373POPC   C1A69399  16.659  39.726   6.227
 5373POPC   D2A69400  16.599  39.949   6.591
 5373POPC   C3A69401  16.782  39.833   6.972
 5373POPC   C4A69402  16.784  39.922   7.419
 5373POPC   C1B69403  16.597  40.372   6.319
 5373POPC   C2B69404  16.859  40.454   6.666
 5373POPC   C3B69405  16.865  40.322   7.097
 5373POPC   C4B69406  16.513  40.384   7.418
 5374POPC   NC369407  41.425  17.194   5.093
 5374POPC   PO469408  41.685  17.684   5.442
 5374POPC   GL169409  41.735  17.697   5.885
 5374POPC   GL269410  41.458  17.523   6.017
 5374POPC   C1A69411  41.923  17.686   6.275
 5374POPC   D2A69412  41.829  17.844   6.685
 5374POPC   C3A69413  41.549  17.604   6.896
 5374POPC   C4A69414  41.678  17.456   7.282
 5374POPC   C1B69415  41.415  17.830   6.348
 5374POPC   C2B69416  41.204  17.999   6.720
 5374POPC   C3B69417  41.397  18.017   7.122
 5374POPC   C4B69418  41.301  17.750   7.467
 5375POPC   NC369419  28.987  39.945   5.320
 5375POPC   PO469420  29.558  40.256   5.443
 5375POPC   GL169421  29.261  40.030   5.793
 5375POPC   GL269422  29.052  39.677   5.748
 5375POPC   C1A69423  29.358  40.126   6.276
 5375POPC   D2A69424  29.557  40.297   6.697
 5375POPC   C3A69425  29.249  40.277   7.047
 5375POPC   C4A69426  28.794  40.178   7.097
 5375POPC   C1B69427  29.233  39.644   6.160
 5375POPC   C2B69428  29.265  39.580   6.623
 5375POPC   C3B69429  29.068  39.759   7.003
 5375POPC   C4B69430  29.136  39.921   7.419
 5376POPC   NC369431  31.408  23.224   5.313
 5376POPC   PO469432  31.290  22.530   5.330
 5376POPC   GL169433  31.478  22.698   5.737
 5376POPC   GL269434  31.582  23.061   5.759
 5376POPC   C1A69435  31.312  22.847   6.167
 5376POPC   D2A69436  31.221  23.142   6.497
 5376POPC   C3A69437  31.337  22.980   6.908
 5376POPC   C4A69438  31.221  23.006   7.345
 5376POPC   C1B69439  31.813  22.932   6.122
 5376POPC   C2B69440  31.883  22.650   6.453
 5376POPC   C3B69441  31.864  22.889   6.808
 5376POPC   C4B69442  31.757  22.891   7.216
 5377POPC   NC369443  26.617  16.784   5.458
 5377POPC   PO469444  25.987  16.718   5.350
 5377POPC   GL169445  25.870  16.743   5.799
 5377POPC   GL269446  25.520  16.882   5.817
 5377POPC   C1A69447  26.123  16.851   6.221
 5377POPC   D2A69448  26.278  16.879   6.675
 5377POPC   C3A69449  26.108  16.594   7.036
 5377POPC   C4A69450  26.067  16.471   7.486
 5377POPC   C1B69451  25.624  16.881   6.234
 5377POPC   C2B69452  25.783  16.999   6.628
 5377POPC   C3B69453  25.652  16.814   7.002
 5377POPC   C4B69454  25.641  16.389   7.198
 5378POPC   NC369455  21.658   2.792   5.380
 5378POPC   PO469456  21.145   2.865   5.649
 5378POPC   GL169457  21.358   2.558   5.908
 5378POPC   GL269458  21.739   2.530   5.845
 5378POPC   C1A69459  21.166   2.376   6.291
 5378POPC   D2A69460  21.071   2.663   6.619
 5378POPC   C3A69461  21.236   2.655   7.027
 5378POPC   C4A69462  21.473   2.955   7.291
 5378POPC   C1B69463  21.690   2.565   6.299
 5378POPC   C2B69464  21.585   2.368   6.680
 5378POPC   C3B69465  21.735   2.584   7.034
 5378POPC   C4B69466  22.022   2.894   7.208
 5379POPC   NC369467  16.761  44.917   5.369
 5379POPC   PO469468  16.675  44.261   5.348
 5379POPC   GL169469  16.709  44.538   5.721
 5379POPC   GL269470  17.063  44.660   5.722
 5379POPC   C1A69471  16.622  44.643   6.154
 5379POPC   D2A69472  16.556  44.513   6.582
 5379POPC   C3A69473  16.539  44.720   6.973
 5379POPC   C4A69474  16.584  44.456   7.374
 5379POPC   C1B69475  17.148  44.797   6.155
 5379POPC   C2B69476  17.082  44.662   6.583
 5379POPC   C3B69477  17.063  44.900   6.976
 5379POPC   C4B69478  16.831  44.910   7.355
 5380POPC   NC369479  14.791  36.803   5.158
 5380POPC   PO469480  14.198  37.030   5.424
 5380POPC   GL169481  14.422  36.839   5.735
 5380POPC   GL269482  14.375  37.139   5.958
 5380POPC   C1A69483  14.234  36.664   6.104
 5380POPC   D2A69484  14.142  36.933   6.473
 5380POPC   C3A69485  14.359  36.939   6.877
 5380POPC   C4A69486  14.231  37.169   7.264
 5380POPC   C1B69487  14.697  36.909   6.178
 5380POPC   C2B69488  14.911  36.796   6.554
 5380POPC   C3B69489  14.866  36.977   6.960
 5380POPC   C4B69490  14.615  36.852   7.341
 5381POPC   NC369491   6.651  12.432   5.537
 5381POPC   PO469492   6.160  11.979   5.390
 5381POPC   GL169493   6.368  12.061   5.765
 5381POPC   GL269494   6.240  12.376   5.843
 5381POPC   C1A69495   6.590  11.924   6.142
 5381POPC   D2A69496   6.441  11.740   6.531
 5381POPC   C3A69497   6.683  11.793   6.917
 5381POPC   C4A69498   6.576  11.732   7.324
 5381POPC   C1B69499   6.419  12.422   6.234
 5381POPC   C2B69500   6.343  12.344   6.659
 5381POPC   C3B69501   6.490  12.487   7.040
 5381POPC   C4B69502   6.702  12.213   7.299
 5382POPC   NC369503  43.102   2.404   5.394
 5382POPC   PO469504  42.918   3.064   5.310
 5382POPC   GL169505  43.035   2.845   5.682
 5382POPC   GL269506  43.368   2.692   5.753
 5382POPC   C1A69507  42.814   2.718   6.047
 5382POPC   D2A69508  42.632   2.694   6.457
 5382POPC   C3A69509  42.813   2.632   6.879
 5382POPC   C4A69510  43.033   2.559   7.258
 5382POPC   C1B69511  43.275   2.923   6.159
 5382POPC   C2B69512  43.154   2.879   6.591
 5382POPC   C3B69513  43.092   3.044   7.015
 5382POPC   C4B69514  43.329   3.007   7.376
 5383POPC   NC369515  13.272   2.435   5.327
 5383POPC   PO469516  13.729   1.999   5.244
 5383POPC   GL169517  13.522   1.941   5.632
 5383POPC   GL269518  13.492   2.269   5.787
 5383POPC   C1A69519  13.532   1.788   6.060
 5383POPC   D2A69520  13.472   1.964   6.440
 5383POPC   C3A69521  13.496   1.809   6.841
 5383POPC   C4A69522  13.302   2.024   7.166
 5383POPC   C1B69523  13.776   2.292   6.180
 5383POPC   C2B69524  13.852   2.225   6.640
 5383POPC   C3B69525  13.854   2.135   7.076
 5383POPC   C4B69526  14.249   2.184   7.250
 5384POPC   NC369527  32.190  44.120   5.477
 5384POPC   PO469528  31.981  43.561   5.306
 5384POPC   GL169529  32.097  43.778   5.804
 5384POPC   GL269530  31.916  43.874   6.064
 5384POPC   C1A69531  32.487  43.814   6.110
 5384POPC   D2A69532  32.399  43.933   6.525
 5384POPC   C3A69533  32.498  43.963   6.958
 5384POPC   C4A69534  32.374  43.729   7.328
 5384POPC   C1B69535  32.118  43.527   6.271
 5384POPC   C2B69536  32.330  43.394   6.640
 5384POPC   C3B69537  32.084  43.536   6.976
 5384POPC   C4B69538  31.874  43.619   7.387
 5385POPC   NC369539  10.198  21.684   5.390
 5385POPC   PO469540  10.756  21.287   5.449
 5385POPC   GL169541  10.575  21.528   5.745
 5385POPC   GL269542  10.318  21.289   5.782
 5385POPC   C1A69543  10.618  21.487   6.198
 5385POPC   D2A69544  10.848  21.240   6.528
 5385POPC   C3A69545  10.703  21.372   6.920
 5385POPC   C4A69546  10.887  21.518   7.285
 5385POPC   C1B69547  10.133  21.316   6.184
 5385POPC   C2B69548  10.103  21.520   6.588
 5385POPC   C3B69549  10.149  21.296   6.979
 5385POPC   C4B69550  10.391  21.380   7.343
 5386POPC   NC369551  37.397  37.471   5.285
 5386POPC   PO469552  37.979  37.800   5.224
 5386POPC   GL169553  37.778  37.706   5.647
 5386POPC   GL269554  37.660  37.356   5.714
 5386POPC   C1A69555  37.680  37.778   6.109
 5386POPC   D2A69556  37.503  37.521   6.452
 5386POPC   C3A69557  37.576  37.505   6.911
 5386POPC   C4A69558  37.622  37.744   7.285
 5386POPC   C1B69559  37.833  37.295   6.119
 5386POPC   C2B69560  37.891  37.189   6.530
 5386POPC   C3B69561  38.050  37.310   6.926
 5386POPC   C4B69562  37.929  37.340   7.380
 5387POPC   NC369563  20.931  25.496   5.358
 5387POPC   PO469564  21.565  25.142   5.266
 5387POPC   GL169565  21.347  25.312   5.674
 5387POPC   GL269566  21.571  25.553   5.836
 5387POPC   C1A69567  21.220  25.355   6.151
 5387POPC   D2A69568  20.995  25.382   6.552
 5387POPC   C3A69569  21.138  25.266   6.960
 5387POPC   C4A69570  21.084  25.435   7.373
 5387POPC   C1B69571  21.673  25.142   6.057
 5387POPC   C2B69572  21.667  25.038   6.487
 5387POPC   C3B69573  21.641  25.315   6.839
 5387POPC   C4B69574  21.565  25.295   7.277
 5388POPC   NC369575  44.936  39.440   5.436
 5388POPC   PO469576  44.461  39.038   5.545
 5388POPC   GL169577  44.772  39.048   5.868
 5388POPC   GL269578  44.808  38.699   5.976
 5388POPC   C1A69579  44.815  39.158   6.313
 5388POPC   D2A69580  44.716  39.422   6.672
 5388POPC   C3A69581  44.813  39.219   7.048
 5388POPC   C4A69582  44.517  39.296   7.378
 5388POPC   C1B69583  44.413  38.837   6.197
 5388POPC   C2B69584  44.220  39.051   6.566
 5388POPC   C3B69585  44.350  38.997   6.983
 5388POPC   C4B69586  44.620  38.820   7.301
 5389POPC   NC369587  41.300   8.638   5.344
 5389POPC   PO469588  41.719   8.097   5.466
 5389POPC   GL169589  41.729   8.360   5.814
 5389POPC   GL269590  41.839   8.060   6.000
 5389POPC   C1A69591  41.540   8.424   6.204
 5389POPC   D2A69592  41.663   8.198   6.551
 5389POPC   C3A69593  41.777   8.450   6.864
 5389POPC   C4A69594  41.720   8.288   7.243
 5389POPC   C1B69595  41.427   7.919   6.186
 5389POPC   C2B69596  41.204   7.963   6.616
 5389POPC   C3B69597  41.314   7.955   7.077
 5389POPC   C4B69598  41.140   7.718   7.423
 5390POPC   NC369599  29.688  31.126   5.296
 5390POPC   PO469600  29.852  30.484   5.375
 5390POPC   GL169601  29.823  30.741   5.778
 5390POPC   GL269602  29.628  31.088   5.796
 5390POPC   C1A69603  29.967  30.625   6.212
 5390POPC   D2A69604  29.964  30.274   6.529
 5390POPC   C3A69605  30.100  30.421   6.940
 5390POPC   C4A69606  30.170  30.765   7.246
 5390POPC   C1B69607  29.544  30.925   6.185
 5390POPC   C2B69608  29.571  30.709   6.566
 5390POPC   C3B69609  29.755  30.831   6.940
 5390POPC   C4B69610  29.796  31.104   7.298
 5391POPC   NC369611  30.086  33.990   5.205
 5391POPC   PO469612  29.887  34.627   5.301
 5391POPC   GL169613  29.884  34.588   5.743
 5391POPC   GL269614  29.847  34.220   5.710
 5391POPC   C1A69615  29.903  34.755   6.207
 5391POPC   D2A69616  30.065  34.601   6.625
 5391POPC   C3A69617  29.865  34.678   7.048
 5391POPC   C4A69618  29.743  34.933   7.417
 5391POPC   C1B69619  30.022  34.280   6.124
 5391POPC   C2B69620  30.327  34.213   6.399
 5391POPC   C3B69621  30.372  34.192   6.835
 5391POPC   C4B69622  30.020  34.174   7.120
 5392POPC   NC369623  11.076  22.614   5.361
 5392POPC   PO469624  11.133  23.251   5.550
 5392POPC   GL169625  11.486  23.040   5.733
 5392POPC   GL269626  11.532  22.730   5.584
 5392POPC   C1A69627  11.635  22.999   6.132
 5392POPC   D2A69628  11.395  22.988   6.505
 5392POPC   C3A69629  11.455  23.202   6.884
 5392POPC   C4A69630  11.197  23.299   7.239
 5392POPC   C1B69631  11.447  22.540   5.970
 5392POPC   C2B69632  11.482  22.487   6.416
 5392POPC   C3B69633  11.200  22.599   6.779
 5392POPC   C4B69634  11.308  22.773   7.170
 5393POPC   NC369635  19.959  22.041   5.171
 5393POPC   PO469636  19.671  22.587   5.317
 5393POPC   GL169637  19.760  22.309   5.702
 5393POPC   GL269638  20.100  22.121   5.709
 5393POPC   C1A69639  19.870  22.208   6.143
 5393POPC   D2A69640  20.101  22.291   6.512
 5393POPC   C3A69641  19.927  22.430   6.909
 5393POPC   C4A69642  19.807  22.168   7.222
 5393POPC   C1B69643  20.286  21.905   6.111
 5393POPC   C2B69644  20.134  21.783   6.533
 5393POPC   C3B69645  20.202  21.949   6.977
 5393POPC   C4B69646  20.208  21.994   7.468
 5394POPC   NC369647  21.881  23.150   5.188
 5394POPC   PO469648  22.427  22.833   5.494
 5394POPC   GL169649  22.294  23.008   5.864
 5394POPC   GL269650  21.931  22.961   5.870
 5394POPC   C1A69651  22.252  23.056   6.316
 5394POPC   D2A69652  22.247  23.165   6.757
 5394POPC   C3A69653  22.419  22.919   7.104
 5394POPC   C4A69654  22.416  23.116   7.525
 5394POPC   C1B69655  21.789  22.862   6.288
 5394POPC   C2B69656  21.767  23.024   6.673
 5394POPC   C3B69657  21.896  23.041   7.094
 5394POPC   C4B69658  22.014  22.754   7.406
 5395POPC   NC369659  32.905  17.012   5.353
 5395POPC   PO469660  33.125  16.403   5.470
 5395POPC   GL169661  32.917  16.667   5.758
 5395POPC   GL269662  33.190  16.906   5.795
 5395POPC   C1A69663  32.949  16.637   6.189
 5395POPC   D2A69664  33.194  16.641   6.553
 5395POPC   C3A69665  33.124  16.491   6.977
 5395POPC   C4A69666  33.043  16.299   7.389
 5395POPC   C1B69667  33.146  17.089   6.232
 5395POPC   C2B69668  33.367  17.094   6.637
 5395POPC   C3B69669  33.065  17.000   6.973
 5395POPC   C4B69670  33.036  16.801   7.387
 5396POPC   NC369671  23.890  24.177   5.382
 5396POPC   PO469672  23.660  24.843   5.261
 5396POPC   GL169673  23.713  24.617   5.710
 5396POPC   GL269674  24.069  24.505   5.821
 5396POPC   C1A69675  23.612  24.444   6.175
 5396POPC   D2A69676  23.336  24.423   6.572
 5396POPC   C3A69677  23.525  24.354   6.998
 5396POPC   C4A69678  23.549  24.648   7.374
 5396POPC   C1B69679  23.951  24.837   6.153
 5396POPC   C2B69680  23.779  24.826   6.593
 5396POPC   C3B69681  23.928  24.647   6.985
 5396POPC   C4B69682  23.963  24.290   7.294
 5397POPC   NC369683  43.393   9.164   5.318
 5397POPC   PO469684  42.684   9.210   5.264
 5397POPC   GL169685  42.919   8.923   5.593
 5397POPC   GL269686  43.082   9.182   5.768
 5397POPC   C1A69687  42.937   8.812   6.088
 5397POPC   D2A69688  43.213   8.908   6.471
 5397POPC   C3A69689  43.031   9.062   6.859
 5397POPC   C4A69690  42.952   8.923   7.278
 5397POPC   C1B69691  43.394   9.256   6.107
 5397POPC   C2B69692  43.444   9.395   6.548
 5397POPC   C3B69693  43.546   9.116   6.887
 5397POPC   C4B69694  43.391   8.715   7.086
 5398POPC   NC369695   2.133   2.857   5.468
 5398POPC   PO469696   1.581   2.927   5.459
 5398POPC   GL169697   1.810   2.981   5.883
 5398POPC   GL269698   2.187   2.985   5.957
 5398POPC   C1A69699   1.888   2.908   6.345
 5398POPC   D2A69700   1.844   2.545   6.613
 5398POPC   C3A69701   1.785   2.600   7.054
 5398POPC   C4A69702   1.789   2.991   7.275
 5398POPC   C1B69703   2.352   2.673   6.285
 5398POPC   C2B69704   2.335   2.402   6.670
 5398POPC   C3B69705   2.301   2.552   7.100
 5398POPC   C4B69706   2.336   2.976   7.300
 5399POPC   NC369707  40.930  36.348   5.302
 5399POPC   PO469708  40.672  35.697   5.423
 5399POPC   GL169709  40.918  35.975   5.714
 5399POPC   GL269710  40.679  36.239   5.761
 5399POPC   C1A69711  41.069  36.253   6.095
 5399POPC   D2A69712  40.977  36.432   6.529
 5399POPC   C3A69713  41.093  36.305   6.932
 5399POPC   C4A69714  41.092  35.894   7.087
 5399POPC   C1B69715  40.588  36.040   6.141
 5399POPC   C2B69716  40.621  36.053   6.548
 5399POPC   C3B69717  40.618  36.078   6.973
 5399POPC   C4B69718  40.516  36.329   7.316
 5400POPC   NC369719  10.322  43.853   5.300
 5400POPC   PO469720  11.021  43.856   5.260
 5400POPC   GL169721  10.703  43.881   5.653
 5400POPC   GL269722  10.499  44.203   5.719
 5400POPC   C1A69723  10.763  43.844   6.119
 5400POPC   D2A69724  10.585  44.111   6.474
 5400POPC   C3A69725  10.739  44.007   6.909
 5400POPC   C4A69726  10.617  43.628   7.132
 5400POPC   C1B69727  10.279  43.931   6.025
 5400POPC   C2B69728  10.145  43.860   6.421
 5400POPC   C3B69729  10.265  43.816   6.810
 5400POPC   C4B69730  10.129  43.744   7.196
 5401POPC   NC369731  12.124  28.260   5.272
 5401POPC   PO469732  11.981  28.920   5.293
 5401POPC   GL169733  12.069  28.585   5.699
 5401POPC   GL269734  11.995  28.191   5.753
 5401POPC   C1A69735  12.345  28.407   6.101
 5401POPC   D2A69736  12.375  28.178   6.562
 5401POPC   C3A69737  12.198  28.363   6.942
 5401POPC   C4A69738  11.850  28.170   7.215
 5401POPC   C1B69739  11.853  28.329   6.157
 5401POPC   C2B69740  11.858  28.237   6.579
 5401POPC   C3B69741  11.725  28.531   6.878
 5401POPC   C4B69742  11.495  28.638   7.213
 5402POPC   NC369743  11.248  17.613   5.334
 5402POPC   PO469744  11.682  17.123   5.638
 5402POPC   GL169745  11.446  17.504   5.811
 5402POPC   GL269746  11.078  17.566   5.836
 5402POPC   C1A69747  11.379  17.436   6.261
 5402POPC   D2A69748  11.683  17.361   6.576
 5402POPC   C3A69749  11.578  17.560   6.922
 5402POPC   C4A69750  11.553  17.764   7.275
 5402POPC   C1B69751  10.959  17.713   6.253
 5402POPC   C2B69752  11.077  17.576   6.672
 5402POPC   C3B69753  11.106  17.534   7.124
 5402POPC   C4B69754  11.038  17.876   7.387
 5403POPC   NC369755  12.723  22.050   5.305
 5403POPC   PO469756  12.410  22.715   5.367
 5403POPC   GL169757  12.703  22.423   5.642
 5403POPC   GL269758  12.596  22.058   5.808
 5403POPC   C1A69759  12.961  22.407   6.014
 5403POPC   D2A69760  12.822  22.557   6.460
 5403POPC   C3A69761  12.877  22.466   6.906
 5403POPC   C4A69762  12.750  22.380   7.354
 5403POPC   C1B69763  12.676  22.097   6.271
 5403POPC   C2B69764  12.777  21.991   6.667
 5403POPC   C3B69765  12.516  22.105   7.005
 5403POPC   C4B69766  12.245  21.979   7.322
 5404POPC   NC369767   6.913  43.903   5.429
 5404POPC   PO469768   6.214  44.155   5.374
 5404POPC   GL169769   6.422  43.978   5.761
 5404POPC   GL269770   6.583  43.673   5.826
 5404POPC   C1A69771   6.285  43.963   6.177
 5404POPC   D2A69772   6.524  43.994   6.555
 5404POPC   C3A69773   6.413  43.845   6.927
 5404POPC   C4A69774   6.719  43.818   7.167
 5404POPC   C1B69775   6.575  43.547   6.280
 5404POPC   C2B69776   6.794  43.551   6.690
 5404POPC   C3B69777   6.683  43.335   7.079
 5404POPC   C4B69778   6.588  43.471   7.512
 5405POPC   NC369779  33.996   4.378   5.487
 5405POPC   PO469780  34.320   3.980   5.698
 5405POPC   GL169781  34.187   4.335   5.955
 5405POPC   GL269782  33.866   4.203   5.956
 5405POPC   C1A69783  33.991   4.543   6.300
 5405POPC   D2A69784  33.801   4.353   6.608
 5405POPC   C3A69785  33.664   4.671   6.891
 5405POPC   C4A69786  33.925   4.758   7.218
 5405POPC   C1B69787  33.514   4.367   6.168
 5405POPC   C2B69788  33.311   4.418   6.594
 5405POPC   C3B69789  33.486   4.200   6.992
 5405POPC   C4B69790  33.722   4.128   7.373
 5406POPC   NC369791  31.872  31.934   5.405
 5406POPC   PO469792  31.473  32.492   5.247
 5406POPC   GL169793  31.618  32.282   5.723
 5406POPC   GL269794  31.366  32.058   5.931
 5406POPC   C1A69795  31.584  32.423   6.185
 5406POPC   D2A69796  31.261  32.200   6.473
 5406POPC   C3A69797  31.302  32.182   6.929
 5406POPC   C4A69798  31.237  32.497   7.227
 5406POPC   C1B69799  31.655  31.912   6.241
 5406POPC   C2B69800  31.937  31.770   6.595
 5406POPC   C3B69801  31.801  31.848   7.048
 5406POPC   C4B69802  31.462  31.918   7.365
 5407POPC   NC369803   6.443  14.903   5.414
 5407POPC   PO469804   6.396  15.589   5.405
 5407POPC   GL169805   6.631  15.443   5.761
 5407POPC   GL269806   6.642  15.039   5.877
 5407POPC   C1A69807   6.825  15.417   6.149
 5407POPC   D2A69808   6.657  15.178   6.474
 5407POPC   C3A69809   6.650  15.407   6.849
 5407POPC   C4A69810   6.638  15.264   7.254
 5407POPC   C1B69811   7.019  14.932   6.145
 5407POPC   C2B69812   7.128  14.978   6.582
 5407POPC   C3B69813   6.817  14.909   6.911
 5407POPC   C4B69814   6.869  14.829   7.340
 5408POPC   NC369815  35.146  38.385   5.522
 5408POPC   PO469816  35.776  38.495   5.230
 5408POPC   GL169817  35.601  38.384   5.757
 5408POPC   GL269818  35.524  38.009   5.786
 5408POPC   C1A69819  35.544  38.571   6.219
 5408POPC   D2A69820  35.258  38.739   6.560
 5408POPC   C3A69821  35.397  38.668   7.011
 5408POPC   C4A69822  35.548  38.381   7.341
 5408POPC   C1B69823  35.357  38.100   6.208
 5408POPC   C2B69824  35.474  38.233   6.664
 5408POPC   C3B69825  35.242  38.110   7.066
 5408POPC   C4B69826  35.200  37.979   7.533
 5409POPC   NC369827  26.491  32.254   5.537
 5409POPC   PO469828  25.846  32.040   5.351
 5409POPC   GL169829  25.822  32.328   5.728
 5409POPC   GL269830  26.147  32.427   5.888
 5409POPC   C1A69831  25.696  32.363   6.153
 5409POPC   D2A69832  25.994  32.301   6.484
 5409POPC   C3A69833  25.930  32.251   6.908
 5409POPC   C4A69834  25.689  32.314   7.277
 5409POPC   C1B69835  26.343  32.110   6.167
 5409POPC   C2B69836  26.461  32.089   6.601
 5409POPC   C3B69837  26.463  32.228   7.028
 5409POPC   C4B69838  26.398  31.947   7.381
 5410POPC   NC369839  23.239  43.396   5.568
 5410POPC   PO469840  23.184  42.702   5.591
 5410POPC   GL169841  23.118  43.007   5.868
 5410POPC   GL269842  22.773  43.084   5.828
 5410POPC   C1A69843  23.074  43.186   6.275
 5410POPC   D2A69844  22.800  43.031   6.595
 5410POPC   C3A69845  22.929  42.909   7.000
 5410POPC   C4A69846  23.075  43.081   7.381
 5410POPC   C1B69847  22.526  43.250   6.179
 5410POPC   C2B69848  22.385  43.321   6.601
 5410POPC   C3B69849  22.516  43.291   7.051
 5410POPC   C4B69850  22.553  42.964   7.364
 5411POPC   NC369851   2.244  39.702   5.431
 5411POPC   PO469852   2.206  40.380   5.193
 5411POPC   GL169853   1.975  40.257   5.582
 5411POPC   GL269854   2.208  40.084   5.775
 5411POPC   C1A69855   1.786  40.222   6.035
 5411POPC   D2A69856   1.736  40.005   6.454
 5411POPC   C3A69857   1.717  40.288   6.849
 5411POPC   C4A69858   1.615  40.352   7.311
 5411POPC   C1B69859   2.099  39.804   6.119
 5411POPC   C2B69860   2.198  39.769   6.546
 5411POPC   C3B69861   2.014  39.868   6.910
 5411POPC   C4B69862   2.057  40.068   7.280
 5412POPC   NC369863  16.235  44.505   5.444
 5412POPC   PO469864  15.550  44.725   5.614
 5412POPC   GL169865  15.817  44.577   5.946
 5412POPC   GL269866  16.167  44.568   5.933
 5412POPC   C1A69867  15.864  44.457   6.399
 5412POPC   D2A69868  16.047  44.595   6.800
 5412POPC   C3A69869  15.773  44.555   7.168
 5412POPC   C4A69870  15.637  44.436   7.572
 5412POPC   C1B69871  16.142  44.875   6.237
 5412POPC   C2B69872  16.227   0.118   6.562
 5412POPC   C3B69873  16.126   0.082   6.962
 5412POPC   C4B69874  16.176  44.797   7.310
 5413POPC   NC369875  35.834  17.830   5.586
 5413POPC   PO469876  36.220  17.364   5.308
 5413POPC   GL169877  36.013  17.375   5.727
 5413POPC   GL269878  36.261  17.595   5.819
 5413POPC   C1A69879  35.919  17.481   6.199
 5413POPC   D2A69880  36.151  17.584   6.595
 5413POPC   C3A69881  36.054  17.448   7.014
 5413POPC   C4A69882  36.110  17.597   7.438
 5413POPC   C1B69883  36.285  17.869   6.172
 5413POPC   C2B69884  36.333  18.063   6.601
 5413POPC   C3B69885  36.278  17.922   7.051
 5413POPC   C4B69886  36.565  17.835   7.359
 5414POPC   NC369887  43.637   3.187   5.026
 5414POPC   PO469888  43.818   2.691   5.423
 5414POPC   GL169889  43.892   2.630   5.861
 5414POPC   GL269890  44.041   2.964   5.820
 5414POPC   C1A69891  43.902   2.522   6.337
 5414POPC   D2A69892  43.646   2.672   6.709
 5414POPC   C3A69893  43.830   2.697   7.146
 5414POPC   C4A69894  43.691   2.575   7.541
 5414POPC   C1B69895  43.789   3.013   6.191
 5414POPC   C2B69896  43.593   3.153   6.533
 5414POPC   C3B69897  43.619   3.143   6.962
 5414POPC   C4B69898  43.832   3.172   7.350
 5415POPC   NC369899  40.544  34.519   5.314
 5415POPC   PO469900  39.822  34.526   5.271
 5415POPC   GL169901  40.058  34.597   5.647
 5415POPC   GL269902  40.057  34.317   5.896
 5415POPC   C1A69903  40.146  34.820   6.037
 5415POPC   D2A69904  40.245  34.741   6.468
 5415POPC   C3A69905  40.018  34.806   6.838
 5415POPC   C4A69906  40.010  34.587   7.200
 5415POPC   C1B69907  39.773  34.514   6.233
 5415POPC   C2B69908  39.694  34.401   6.683
 5415POPC   C3B69909  39.711  34.173   7.128
 5415POPC   C4B69910  39.838  34.024   7.578
 5416POPC   NC369911  26.741  15.793   5.412
 5416POPC   PO469912  26.750  15.052   5.321
 5416POPC   GL169913  26.765  14.997   5.782
 5416POPC   GL269914  26.592  15.300   5.784
 5416POPC   C1A69915  26.837  15.141   6.253
 5416POPC   D2A69916  26.904  14.955   6.684
 5416POPC   C3A69917  26.881  15.089   7.118
 5416POPC   C4A69918  26.702  14.872   7.472
 5416POPC   C1B69919  26.399  15.405   6.167
 5416POPC   C2B69920  26.589  15.500   6.578
 5416POPC   C3B69921  26.715  15.541   6.997
 5416POPC   C4B69922  27.075  15.688   7.245
 5417POPC   NC369923  38.147   6.084   5.613
 5417POPC   PO469924  38.607   5.561   5.493
 5417POPC   GL169925  38.409   5.716   5.841
 5417POPC   GL269926  38.540   6.029   5.905
 5417POPC   C1A69927  38.294   5.811   6.291
 5417POPC   D2A69928  38.493   5.678   6.676
 5417POPC   C3A69929  38.395   5.872   7.090
 5417POPC   C4A69930  38.239   6.124   7.444
 5417POPC   C1B69931  38.707   6.159   6.305
 5417POPC   C2B69932  38.629   6.174   6.726
 5417POPC   C3B69933  38.475   6.383   7.064
 5417POPC   C4B69934  38.735   6.199   7.381
 5418POPC   NC369935   0.436  42.060   5.439
 5418POPC   PO469936   0.647  41.375   5.316
 5418POPC   GL169937   0.562  41.516   5.740
 5418POPC   GL269938   0.231  41.612   5.852
 5418POPC   C1A69939   0.530  41.322   6.163
 5418POPC   D2A69940   0.311  41.306   6.548
 5418POPC   C3A69941   0.510  41.394   6.907
 5418POPC   C4A69942   0.435  41.142   7.218
 5418POPC   C1B69943   0.070  41.701   6.298
 5418POPC   C2B69944   0.117  41.728   6.792
 5418POPC   C3B69945   0.166  41.638   7.245
 5418POPC   C4B69946   0.058  41.870   7.679
 5419POPC   NC369947  35.430  34.907   5.533
 5419POPC   PO469948  35.363  34.253   5.358
 5419POPC   GL169949  35.287  34.410   5.834
 5419POPC   GL269950  35.091  34.713   5.842
 5419POPC   C1A69951  35.564  34.467   6.297
 5419POPC   D2A69952  35.518  34.221   6.700
 5419POPC   C3A69953  35.351  34.395   7.078
 5419POPC   C4A69954  35.242  34.521   7.470
 5419POPC   C1B69955  35.090  34.631   6.256
 5419POPC   C2B69956  35.145  34.584   6.656
 5419POPC   C3B69957  35.330  34.887   6.922
 5419POPC   C4B69958  35.199  35.016   7.309
 5420POPC   NC369959   5.570  13.816   5.343
 5420POPC   PO469960   6.235  13.842   5.330
 5420POPC   GL169961   5.913  13.662   5.676
 5420POPC   GL269962   5.676  13.437   5.877
 5420POPC   C1A69963   5.773  13.867   6.089
 5420POPC   D2A69964   5.730  13.635   6.484
 5420POPC   C3A69965   5.987  13.761   6.814
 5420POPC   C4A69966   5.920  13.708   7.249
 5420POPC   C1B69967   6.032  13.420   6.156
 5420POPC   C2B69968   6.178  13.336   6.552
 5420POPC   C3B69969   5.958  13.245   6.935
 5420POPC   C4B69970   6.164  13.264   7.326
 5421POPC   NC369971  15.124  18.062   5.544
 5421POPC   PO469972  14.776  18.695   5.477
 5421POPC   GL169973  14.986  18.492   5.877
 5421POPC   GL269974  15.307  18.652   6.016
 5421POPC   C1A69975  14.959  18.111   6.162
 5421POPC   D2A69976  15.177  17.854   6.424
 5421POPC   C3A69977  15.366  18.105   6.748
 5421POPC   C4A69978  15.228  18.031   7.136
 5421POPC   C1B69979  15.190  18.484   6.431
 5421POPC   C2B69980  14.882  18.236   6.673
 5421POPC   C3B69981  14.868  18.386   7.079
 5421POPC   C4B69982  14.957  18.595   7.466
 5422POPC   NC369983   5.783  29.174   5.134
 5422POPC   PO469984   6.211  28.769   5.217
 5422POPC   GL169985   6.030  29.116   5.595
 5422POPC   GL269986   5.688  29.244   5.726
 5422POPC   C1A69987   6.048  29.257   6.083
 5422POPC   D2A69988   5.845  29.172   6.509
 5422POPC   C3A69989   6.050  29.299   6.894
 5422POPC   C4A69990   6.156  29.173   7.296
 5422POPC   C1B69991   5.591  28.967   6.121
 5422POPC   C2B69992   5.581  28.765   6.590
 5422POPC   C3B69993   5.671  28.946   7.017
 5422POPC   C4B69994   5.589  29.328   7.257
 5423POPC   NC369995  19.772  19.326   5.457
 5423POPC   PO469996  20.251  18.935   5.471
 5423POPC   GL169997  20.161  19.066   5.860
 5423POPC   GL269998  20.289  19.403   5.819
 5423POPC   C1A69999  19.979  18.942   6.301
 5423POPC   D2A70000  20.036  18.840   6.766
 5423POPC   C3A70001  19.722  18.953   7.117
 5423POPC   C4A70002  19.366  18.938   7.458
 5423POPC   C1B70003  20.283  19.337   6.262
 5423POPC   C2B70004  20.087  19.345   6.684
 5423POPC   C3B70005  20.075  19.316   7.163
 5423POPC   C4B70006  20.284  19.235   7.577
 5424POPC   NC370007  32.499  25.189   5.483
 5424POPC   PO470008  31.861  25.166   5.438
 5424POPC   GL170009  31.972  25.055   5.843
 5424POPC   GL270010  32.293  24.903   5.870
 5424POPC   C1A70011  32.038  25.292   6.225
 5424POPC   D2A70012  32.293  25.568   6.473
 5424POPC   C3A70013  32.236  25.444   6.908
 5424POPC   C4A70014  32.110  25.445   7.344
 5424POPC   C1B70015  32.105  24.788   6.293
 5424POPC   C2B70016  31.953  24.994   6.705
 5424POPC   C3B70017  32.163  24.971   7.126
 5424POPC   C4B70018  32.264  25.012   7.556
 5425POPC   NC370019  18.904  19.092   5.020
 5425POPC   PO470020  19.317  19.428   5.438
 5425POPC   GL170021  19.133  19.403   5.861
 5425POPC   GL270022  18.897  19.116   5.844
 5425POPC   C1A70023  19.337  19.214   6.236
 5425POPC   D2A70024  19.578  19.163   6.636
 5425POPC   C3A70025  19.261  19.109   6.962
 5425POPC   C4A70026  19.097  19.376   7.236
 5425POPC   C1B70027  18.787  19.270   6.253
 5425POPC   C2B70028  18.894  19.363   6.680
 5425POPC   C3B70029  18.703  19.166   7.022
 5425POPC   C4B70030  18.529  19.184   7.431
 5426POPC   NC370031   7.141   7.385   5.357
 5426POPC   PO470032   7.663   7.693   5.700
 5426POPC   GL170033   7.271   7.617   5.797
 5426POPC   GL270034   7.364   7.266   5.873
 5426POPC   C1A70035   6.946   7.491   6.081
 5426POPC   D2A70036   7.057   7.204   6.411
 5426POPC   C3A70037   7.243   7.402   6.775
 5426POPC   C4A70038   7.376   7.241   7.151
 5426POPC   C1B70039   7.664   7.344   6.249
 5426POPC   C2B70040   7.706   7.647   6.581
 5426POPC   C3B70041   7.704   7.600   7.010
 5426POPC   C4B70042   7.678   7.552   7.437
 5427POPC   NC370043  44.038   3.996   5.457
 5427POPC   PO470044  43.626   4.456   5.245
 5427POPC   GL170045  43.914   4.389   5.737
 5427POPC   GL270046  44.136   4.108   5.929
 5427POPC   C1A70047  43.865   4.407   6.238
 5427POPC   D2A70048  43.909   4.593   6.672
 5427POPC   C3A70049  43.608   4.547   6.980
 5427POPC   C4A70050  43.630   4.232   7.303
 5427POPC   C1B70051  44.284   3.821   6.265
 5427POPC   C2B70052  44.197   3.791   6.710
 5427POPC   C3B70053  43.949   4.093   6.933
 5427POPC   C4B70054  44.059   4.477   7.181
 5428POPC   NC370055  25.567  12.685   5.390
 5428POPC   PO470056  24.945  12.803   5.483
 5428POPC   GL170057  25.222  12.953   5.808
 5428POPC   GL270058  25.587  13.060   5.753
 5428POPC   C1A70059  25.261  12.790   6.223
 5428POPC   D2A70060  25.049  12.830   6.614
 5428POPC   C3A70061  25.288  12.767   6.971
 5428POPC   C4A70062  25.271  12.933   7.380
 5428POPC   C1B70063  25.595  13.198   6.188
 5428POPC   C2B70064  25.753  13.263   6.616
 5428POPC   C3B70065  25.546  13.204   7.032
 5428POPC   C4B70066  25.652  13.249   7.485
 5429POPC   NC370067  24.786   3.590   5.199
 5429POPC   PO470068  25.425   3.451   5.454
 5429POPC   GL170069  25.398   3.337   5.897
 5429POPC   GL270070  25.724   3.323   5.920
 5429POPC   C1A70071  25.388   3.175   6.364
 5429POPC   D2A70072  25.362   3.294   6.850
 5429POPC   C3A70073  24.955   3.233   7.075
 5429POPC   C4A70074  24.668   3.471   7.357
 5429POPC   C1B70075  25.595   3.637   6.271
 5429POPC   C2B70076  25.465   3.839   6.674
 5429POPC   C3B70077  25.392   3.837   7.136
 5429POPC   C4B70078  25.280   3.467   7.415
 5430POPC   NC370079   4.798  41.765   5.382
 5430POPC   PO470080   4.735  41.166   5.580
 5430POPC   GL170081   4.860  41.533   5.891
 5430POPC   GL270082   4.909  41.925   5.838
 5430POPC   C1A70083   4.828  41.560   6.373
 5430POPC   D2A70084   4.625  41.226   6.644
 5430POPC   C3A70085   4.783  41.159   7.027
 5430POPC   C4A70086   4.964  41.546   7.223
 5430POPC   C1B70087   4.948  42.088   6.258
 5430POPC   C2B70088   4.982  41.982   6.710
 5430POPC   C3B70089   5.072  42.079   7.134
 5430POPC   C4B70090   5.168  41.910   7.542
 5431POPC   NC370091  19.526  36.824   5.433
 5431POPC   PO470092  20.170  36.711   5.342
 5431POPC   GL170093  19.964  36.975   5.698
 5431POPC   GL270094  19.692  36.807   5.929
 5431POPC   C1A70095  20.041  37.123   6.135
 5431POPC   D2A70096  20.185  36.921   6.526
 5431POPC   C3A70097  19.878  36.856   6.843
 5431POPC   C4A70098  19.848  36.898   7.273
 5431POPC   C1B70099  19.637  36.743   6.402
 5431POPC   C2B70100  19.617  36.421   6.761
 5431POPC   C3B70101  19.615  36.459   7.228
 5431POPC   C4B70102  19.664  36.613   7.718
 5432POPC   NC370103   8.861  22.950   5.138
 5432POPC   PO470104   9.442  23.073   5.337
 5432POPC   GL170105   9.199  22.967   5.727
 5432POPC   GL270106   8.838  23.004   5.731
 5432POPC   C1A70107   9.066  23.174   6.142
 5432POPC   D2A70108   9.065  23.318   6.552
 5432POPC   C3A70109   9.170  22.998   6.850
 5432POPC   C4A70110   9.155  22.801   7.251
 5432POPC   C1B70111   8.734  22.780   6.152
 5432POPC   C2B70112   8.708  22.914   6.624
 5432POPC   C3B70113   8.640  22.808   7.091
 5432POPC   C4B70114   8.398  22.863   7.484
 5433POPC   NC370115  38.612   5.987   5.326
 5433POPC   PO470116  39.311   5.843   5.207
 5433POPC   GL170117  39.233   5.887   5.622
 5433POPC   GL270118  38.990   6.090   5.702
 5433POPC   C1A70119  39.432   5.908   6.025
 5433POPC   D2A70120  39.282   5.890   6.441
 5433POPC   C3A70121  39.451   5.887   6.844
 5433POPC   C4A70122  39.286   5.841   7.239
 5433POPC   C1B70123  38.942   5.772   6.062
 5433POPC   C2B70124  38.952   5.533   6.478
 5433POPC   C3B70125  38.945   5.759   6.881
 5433POPC   C4B70126  38.817   5.703   7.326
 5434POPC   NC370127  10.997  12.553   5.570
 5434POPC   PO470128  11.421  13.081   5.487
 5434POPC   GL170129  11.292  12.850   5.846
 5434POPC   GL270130  11.068  13.099   5.914
 5434POPC   C1A70131  11.245  12.599   6.241
 5434POPC   D2A70132  11.270  12.758   6.658
 5434POPC   C3A70133  11.108  12.591   7.023
 5434POPC   C4A70134  11.451  12.551   7.266
 5434POPC   C1B70135  11.328  13.127   6.265
 5434POPC   C2B70136  11.216  13.275   6.649
 5434POPC   C3B70137  11.304  13.126   7.048
 5434POPC   C4B70138  11.048  13.006   7.334
 5435POPC   NC370139   9.740  20.805   5.254
 5435POPC   PO470140   9.554  20.158   5.154
 5435POPC   GL170141   9.589  20.453   5.608
 5435POPC   GL270142   9.808  20.789   5.745
 5435POPC   C1A70143   9.620  20.476   6.087
 5435POPC   D2A70144   9.511  20.730   6.446
 5435POPC   C3A70145   9.508  20.612   6.890
 5435POPC   C4A70146   9.728  20.613   7.293
 5435POPC   C1B70147  10.059  20.792   6.136
 5435POPC   C2B70148  10.049  20.603   6.540
 5435POPC   C3B70149  10.045  20.787   6.940
 5435POPC   C4B70150  10.215  20.890   7.337
 5436POPC   NC370151   9.360  42.612   5.260
 5436POPC   PO470152   9.034  43.271   5.271
 5436POPC   GL170153   9.026  43.296   5.756
 5436POPC   GL270154   8.823  42.998   5.838
 5436POPC   C1A70155   9.100  43.180   6.220
 5436POPC   D2A70156   8.973  43.036   6.602
 5436POPC   C3A70157   8.849  43.320   6.890
 5436POPC   C4A70158   9.040  43.210   7.266
 5436POPC   C1B70159   8.585  43.047   6.257
 5436POPC   C2B70160   8.464  42.980   6.716
 5436POPC   C3B70161   8.682  42.884   7.115
 5436POPC   C4B70162   8.982  42.734   7.474
 5437POPC   NC370163  39.882  33.166   5.439
 5437POPC   PO470164  40.176  32.551   5.531
 5437POPC   GL170165  39.852  32.782   5.766
 5437POPC   GL270166  40.033  32.982   5.919
 5437POPC   C1A70167  39.689  32.799   6.221
 5437POPC   D2A70168  39.873  32.614   6.593
 5437POPC   C3A70169  39.805  32.813   7.015
 5437POPC   C4A70170  40.182  32.735   7.268
 5437POPC   C1B70171  39.938  33.281   6.204
 5437POPC   C2B70172  39.940  33.266   6.646
 5437POPC   C3B70173  40.132  33.219   7.025
 5437POPC   C4B70174  39.986  33.194   7.413
 5438POPC   NC370175   4.786  10.713   5.114
 5438POPC   PO470176   5.348  10.330   5.455
 5438POPC   GL170177   5.115  10.484   5.737
 5438POPC   GL270178   5.237  10.825   5.711
 5438POPC   C1A70179   5.051  10.351   6.127
 5438POPC   D2A70180   4.867  10.341   6.532
 5438POPC   C3A70181   5.067  10.272   6.893
 5438POPC   C4A70182   4.959  10.390   7.307
 5438POPC   C1B70183   5.254  10.838   6.167
 5438POPC   C2B70184   5.121  10.808   6.598
 5438POPC   C3B70185   5.229  10.742   7.036
 5438POPC   C4B70186   5.136  10.873   7.436
 5439POPC   NC370187  36.454  33.378   5.632
 5439POPC   PO470188  36.027  32.918   5.320
 5439POPC   GL170189  35.820  32.955   5.790
 5439POPC   GL270190  35.946  33.316   5.842
 5439POPC   C1A70191  35.925  32.926   6.261
 5439POPC   D2A70192  36.361  32.809   6.419
 5439POPC   C3A70193  36.324  32.744   6.842
 5439POPC   C4A70194  35.951  32.848   7.051
 5439POPC   C1B70195  35.946  33.514   6.235
 5439POPC   C2B70196  35.717  33.492   6.608
 5439POPC   C3B70197  35.879  33.524   7.007
 5439POPC   C4B70198  36.268  33.239   7.043
 5440POPC   NC370199   7.016  30.520   5.350
 5440POPC   PO470200   7.652  30.726   5.471
 5440POPC   GL170201   7.660  30.587   5.883
 5440POPC   GL270202   7.332  30.438   5.804
 5440POPC   C1A70203   7.715  30.850   6.273
 5440POPC   D2A70204   7.558  31.005   6.695
 5440POPC   C3A70205   7.431  30.649   6.946
 5440POPC   C4A70206   7.605  30.269   7.154
 5440POPC   C1B70207   7.254  30.427   6.253
 5440POPC   C2B70208   7.000  30.604   6.577
 5440POPC   C3B70209   6.933  30.521   7.015
 5440POPC   C4B70210   7.151  30.476   7.340
 5441POPC   NC370211  33.992  15.297   5.322
 5441POPC   PO470212  33.365  15.186   5.365
 5441POPC   GL170213  33.667  15.354   5.738
 5441POPC   GL270214  34.066  15.405   5.815
 5441POPC   C1A70215  33.757  15.370   6.222
 5441POPC   D2A70216  33.969  15.293   6.646
 5441POPC   C3A70217  33.756  15.316   7.059
 5441POPC   C4A70218  33.868  15.209   7.469
 5441POPC   C1B70219  34.199  15.082   6.168
 5441POPC   C2B70220  34.300  14.905   6.617
 5441POPC   C3B70221  34.108  14.896   7.081
 5441POPC   C4B70222  33.997  14.688   7.501
 5442POPC   NC370223  14.327   4.691   5.351
 5442POPC   PO470224  14.346   3.999   5.357
 5442POPC   GL170225  14.210   4.275   5.670
 5442POPC   GL270226  14.489   4.429   5.802
 5442POPC   C1A70227  14.008   4.327   6.076
 5442POPC   D2A70228  14.003   4.094   6.464
 5442POPC   C3A70229  14.298   4.073   6.766
 5442POPC   C4A70230  14.127   4.203   7.132
 5442POPC   C1B70231  14.515   4.278   6.241
 5442POPC   C2B70232  14.591   4.478   6.643
 5442POPC   C3B70233  14.681   4.428   7.097
 5442POPC   C4B70234  14.840   4.498   7.534
 5443POPC   NC370235  28.919  23.857   5.422
 5443POPC   PO470236  29.570  23.659   5.548
 5443POPC   GL170237  29.203  23.572   5.785
 5443POPC   GL270238  29.413  23.298   5.890
 5443POPC   C1A70239  29.058  23.773   6.178
 5443POPC   D2A70240  29.230  23.919   6.586
 5443POPC   C3A70241  29.077  23.803   6.997
 5443POPC   C4A70242  28.935  23.451   7.219
 5443POPC   C1B70243  29.703  23.189   6.222
 5443POPC   C2B70244  29.712  23.249   6.689
 5443POPC   C3B70245  29.438  23.432   7.001
 5443POPC   C4B70246  29.383  23.283   7.416
 5444POPC   NC370247  19.009  38.746   5.377
 5444POPC   PO470248  18.981  38.076   5.347
 5444POPC   GL170249  18.981  38.175   5.781
 5444POPC   GL270250  18.745  38.438   5.825
 5444POPC   C1A70251  19.259  38.163   6.158
 5444POPC   D2A70252  19.383  38.439   6.500
 5444POPC   C3A70253  19.344  38.302   6.908
 5444POPC   C4A70254  19.316  38.551   7.247
 5444POPC   C1B70255  18.852  38.463   6.282
 5444POPC   C2B70256  18.869  38.402   6.762
 5444POPC   C3B70257  18.816  38.652   7.158
 5444POPC   C4B70258  18.862  38.651   7.616
 5445POPC   NC370259  38.559  27.948   5.526
 5445POPC   PO470260  38.172  27.445   5.439
 5445POPC   GL170261  38.268  27.652   5.836
 5445POPC   GL270262  38.594  27.584   5.891
 5445POPC   C1A70263  38.108  27.610   6.272
 5445POPC   D2A70264  38.051  27.719   6.723
 5445POPC   C3A70265  38.432  27.649   6.999
 5445POPC   C4A70266  38.671  27.608   7.414
 5445POPC   C1B70267  38.555  27.874   6.248
 5445POPC   C2B70268  38.686  28.004   6.653
 5445POPC   C3B70269  38.891  27.871   7.020
 5445POPC   C4B70270  38.965  28.059   7.428
 5446POPC   NC370271  25.766  43.455   5.398
 5446POPC   PO470272  25.719  42.788   5.518
 5446POPC   GL170273  25.912  42.967   5.897
 5446POPC   GL270274  25.887  43.328   5.896
 5446POPC   C1A70275  26.009  43.015   6.349
 5446POPC   D2A70276  26.338  43.024   6.636
 5446POPC   C3A70277  26.245  43.135   7.053
 5446POPC   C4A70278  25.837  43.100   7.175
 5446POPC   C1B70279  25.742  43.447   6.326
 5446POPC   C2B70280  25.801  43.437   6.785
 5446POPC   C3B70281  25.956  43.599   7.181
 5446POPC   C4B70282  26.064  43.390   7.561
 5447POPC   NC370283  44.836  38.715   5.471
 5447POPC   PO470284  44.378  38.225   5.310
 5447POPC   GL170285  44.484  38.287   5.776
 5447POPC   GL270286  44.715  38.003   5.875
 5447POPC   C1A70287  44.592  38.331   6.253
 5447POPC   D2A70288  44.832  38.656   6.499
 5447POPC   C3A70289  44.851  38.549   6.939
 5447POPC   C4A70290  44.589  38.325   7.271
 5447POPC   C1B70291   0.051  37.977   6.171
 5447POPC   C2B70292   0.018  38.160   6.554
 5447POPC   C3B70293  44.772  38.037   6.884
 5447POPC   C4B70294   0.046  38.155   7.228
 5448POPC   NC370295  17.982  32.778   5.399
 5448POPC   PO470296  18.519  33.020   5.151
 5448POPC   GL170297  18.477  33.018   5.627
 5448POPC   GL270298  18.796  33.102   5.812
 5448POPC   C1A70299  18.338  33.156   6.078
 5448POPC   D2A70300  18.287  33.186   6.566
 5448POPC   C3A70301  18.290  32.794   6.850
 5448POPC   C4A70302  18.465  32.678   7.261
 5448POPC   C1B70303  18.768  32.956   6.277
 5448POPC   C2B70304  18.748  33.045   6.737
 5448POPC   C3B70305  18.501  33.172   7.116
 5448POPC   C4B70306  18.441  33.082   7.591
 5449POPC   NC370307  37.047  22.316   5.321
 5449POPC   PO470308  37.057  21.642   5.389
 5449POPC   GL170309  37.135  22.004   5.711
 5449POPC   GL270310  36.803  22.080   5.808
 5449POPC   C1A70311  37.253  22.275   6.086
 5449POPC   D2A70312  36.984  22.487   6.401
 5449POPC   C3A70313  37.075  22.423   6.835
 5449POPC   C4A70314  37.044  22.361   7.265
 5449POPC   C1B70315  36.571  22.012   6.171
 5449POPC   C2B70316  36.699  22.105   6.586
 5449POPC   C3B70317  36.728  22.060   7.012
 5449POPC   C4B70318  36.414  21.958   7.308
 5450POPC   NC370319  29.648   5.362   4.946
 5450POPC   PO470320  30.021   4.952   5.442
 5450POPC   GL170321  29.921   5.061   5.878
 5450POPC   GL270322  29.571   5.134   5.870
 5450POPC   C1A70323  29.851   5.274   6.295
 5450POPC   D2A70324  29.787   5.069   6.690
 5450POPC   C3A70325  29.863   5.270   7.063
 5450POPC   C4A70326  30.117   5.385   7.404
 5450POPC   C1B70327  29.543   4.854   6.264
 5450POPC   C2B70328  29.545   4.618   6.667
 5450POPC   C3B70329  29.739   4.676   7.106
 5450POPC   C4B70330  29.881   4.935   7.463
 5451POPC   NC370331  34.930  14.136   5.474
 5451POPC   PO470332  35.540  14.179   5.408
 5451POPC   GL170333  35.262  14.336   5.782
 5451POPC   GL270334  35.454  14.556   5.874
 5451POPC   C1A70335  35.132  14.436   6.233
 5451POPC   D2A70336  35.433  14.411   6.564
 5451POPC   C3A70337  35.306  14.334   6.959
 5451POPC   C4A70338  35.543  14.369   7.324
 5451POPC   C1B70339  35.664  14.285   6.142
 5451POPC   C2B70340  35.760  14.028   6.504
 5451POPC   C3B70341  35.837  14.208   6.914
 5451POPC   C4B70342  35.936  14.074   7.329
 5452POPC   NC370343  38.848  35.028   5.435
 5452POPC   PO470344  38.344  35.402   5.457
 5452POPC   GL170345  38.431  35.415   5.861
 5452POPC   GL270346  38.774  35.458   5.830
 5452POPC   C1A70347  38.313  35.489   6.287
 5452POPC   D2A70348  38.457  35.256   6.644
 5452POPC   C3A70349  38.408  35.362   7.102
 5452POPC   C4A70350  38.344  35.621   7.481
 5452POPC   C1B70351  38.782  35.038   6.085
 5452POPC   C2B70352  38.710  34.807   6.497
 5452POPC   C3B70353  38.730  34.965   6.949
 5452POPC   C4B70354  38.801  34.993   7.416
 5453POPC   NC370355  28.344  37.261   5.520
 5453POPC   PO470356  28.290  37.879   5.434
 5453POPC   GL170357  28.425  37.698   5.811
 5453POPC   GL270358  28.257  37.973   5.947
 5453POPC   C1A70359  28.388  37.587   6.267
 5453POPC   D2A70360  28.621  37.563   6.642
 5453POPC   C3A70361  28.413  37.733   6.999
 5453POPC   C4A70362  28.545  37.931   7.369
 5453POPC   C1B70363  27.941  37.833   6.243
 5453POPC   C2B70364  28.001  37.872   6.691
 5453POPC   C3B70365  28.021  38.073   7.109
 5453POPC   C4B70366  28.117  38.077   7.577
 5454POPC   NC370367  24.884  18.520   5.560
 5454POPC   PO470368  25.258  18.032   5.218
 5454POPC   GL170369  25.286  18.119   5.733
 5454POPC   GL270370  25.476  18.399   5.795
 5454POPC   C1A70371  25.174  18.218   6.184
 5454POPC   D2A70372  25.367  18.086   6.586
 5454POPC   C3A70373  25.074  18.115   6.961
 5454POPC   C4A70374  25.063  18.501   7.215
 5454POPC   C1B70375  25.702  18.244   6.172
 5454POPC   C2B70376  25.906  18.021   6.524
 5454POPC   C3B70377  25.737  17.909   6.926
 5454POPC   C4B70378  25.503  18.148   7.226
 5455POPC   NC370379  15.395  23.924   5.284
 5455POPC   PO470380  15.491  23.342   5.654
 5455POPC   GL170381  15.430  23.758   5.889
 5455POPC   GL270382  15.071  23.900   5.896
 5455POPC   C1A70383  15.507  23.951   6.341
 5455POPC   D2A70384  15.400  24.005   6.822
 5455POPC   C3A70385  15.339  23.619   7.126
 5455POPC   C4A70386  15.005  23.600   7.483
 5455POPC   C1B70387  15.008  24.076   6.289
 5455POPC   C2B70388  14.896  23.904   6.675
 5455POPC   C3B70389  14.876  23.905   7.096
 5455POPC   C4B70390  15.214  24.055   7.326
 5456POPC   NC370391   0.222  17.593   5.338
 5456POPC   PO470392   0.775  17.321   5.647
 5456POPC   GL170393   0.644  17.612   5.908
 5456POPC   GL270394   0.316  17.511   5.832
 5456POPC   C1A70395   0.646  17.846   6.276
 5456POPC   D2A70396   0.780  18.014   6.674
 5456POPC   C3A70397   0.663  17.708   6.984
 5456POPC   C4A70398   0.628  17.660   7.397
 5456POPC   C1B70399   0.214  17.429   6.228
 5456POPC   C2B70400   0.397  17.413   6.631
 5456POPC   C3B70401   0.123  17.637   6.887
 5456POPC   C4B70402  44.924  17.557   7.266
 5457POPC   NC370403  16.548  24.707   5.233
 5457POPC   PO470404  17.088  24.346   5.465
 5457POPC   GL170405  16.897  24.432   5.845
 5457POPC   GL270406  16.724  24.705   5.735
 5457POPC   C1A70407  16.882  24.507   6.291
 5457POPC   D2A70408  17.075  24.267   6.614
 5457POPC   C3A70409  16.762  24.146   6.908
 5457POPC   C4A70410  16.737  24.287   7.314
 5457POPC   C1B70411  16.576  24.922   6.141
 5457POPC   C2B70412  16.414  24.854   6.547
 5457POPC   C3B70413  16.728  24.665   6.814
 5457POPC   C4B70414  16.806  24.821   7.197
 5458POPC   NC370415   6.666  28.628   5.236
 5458POPC   PO470416   6.979  29.150   5.511
 5458POPC   GL170417   6.594  29.234   5.686
 5458POPC   GL270418   6.476  28.892   5.676
 5458POPC   C1A70419   6.589  29.215   6.123
 5458POPC   D2A70420   6.832  29.120   6.506
 5458POPC   C3A70421   6.629  29.274   6.894
 5458POPC   C4A70422   6.885  29.245   7.228
 5458POPC   C1B70423   6.299  28.811   6.095
 5458POPC   C2B70424   6.326  29.058   6.521
 5458POPC   C3B70425   6.336  28.851   6.937
 5458POPC   C4B70426   6.569  28.855   7.369
 5459POPC   NC370427  28.537  12.044   4.749
 5459POPC   PO470428  28.420  12.013   5.309
 5459POPC   GL170429  28.516  11.870   5.752
 5459POPC   GL270430  28.858  11.969   5.801
 5459POPC   C1A70431  28.439  11.806   6.227
 5459POPC   D2A70432  28.571  11.929   6.675
 5459POPC   C3A70433  28.236  12.108   6.966
 5459POPC   C4A70434  28.000  12.106   7.380
 5459POPC   C1B70435  28.648  12.257   6.109
 5459POPC   C2B70436  28.556  12.424   6.529
 5459POPC   C3B70437  28.682  12.377   6.951
 5459POPC   C4B70438  28.698  12.014   7.200
 5460POPC   NC370439  34.957  43.025   5.454
 5460POPC   PO470440  34.312  43.155   5.160
 5460POPC   GL170441  34.411  43.027   5.586
 5460POPC   GL270442  34.587  43.267   5.723
 5460POPC   C1A70443  34.400  42.911   6.060
 5460POPC   D2A70444  34.174  42.763   6.461
 5460POPC   C3A70445  34.324  42.957   6.860
 5460POPC   C4A70446  34.538  42.889   7.265
 5460POPC   C1B70447  34.530  43.405   6.135
 5460POPC   C2B70448  34.633  43.241   6.526
 5460POPC   C3B70449  34.699  43.375   6.942
 5460POPC   C4B70450  34.785  43.331   7.390
 5461POPC   NC370451  44.915  10.321   5.278
 5461POPC   PO470452  44.504   9.803   5.501
 5461POPC   GL170453  44.617   9.842   5.922
 5461POPC   GL270454  44.927   9.802   5.856
 5461POPC   C1A70455  44.526   9.660   6.347
 5461POPC   D2A70456  44.501   9.478   6.782
 5461POPC   C3A70457  44.478   9.701   7.197
 5461POPC   C4A70458  44.457  10.031   7.553
 5461POPC   C1B70459   0.131   9.783   6.225
 5461POPC   C2B70460  44.964   9.778   6.621
 5461POPC   C3B70461  44.954   9.609   7.017
 5461POPC   C4B70462  44.894   9.921   7.364
 5462POPC   NC370463  38.924  41.828   5.381
 5462POPC   PO470464  39.408  41.348   5.465
 5462POPC   GL170465  39.078  41.452   5.753
 5462POPC   GL270466  39.250  41.742   5.824
 5462POPC   C1A70467  38.960  41.578   6.196
 5462POPC   D2A70468  39.153  41.758   6.570
 5462POPC   C3A70469  39.111  41.521   6.954
 5462POPC   C4A70470  39.015  41.621   7.397
 5462POPC   C1B70471  39.531  41.889   6.166
 5462POPC   C2B70472  39.607  42.034   6.585
 5462POPC   C3B70473  39.501  41.938   7.011
 5462POPC   C4B70474  39.512  41.567   7.256
 5463POPC   NC370475   0.210   6.230   5.362
 5463POPC   PO470476  44.960   5.623   5.259
 5463POPC   GL170477   0.159   5.755   5.719
 5463POPC   GL270478   0.253   6.112   5.856
 5463POPC   C1A70479   0.457   5.752   6.138
 5463POPC   D2A70480   0.811   5.833   6.458
 5463POPC   C3A70481   0.680   5.857   6.925
 5463POPC   C4A70482   0.367   5.719   7.211
 5463POPC   C1B70483   0.193   6.176   6.331
 5463POPC   C2B70484   0.179   6.016   6.789
 5463POPC   C3B70485   0.157   6.198   7.214
 5463POPC   C4B70486   0.179   6.281   7.698
 5464POPC   NC370487  36.601  13.687   4.991
 5464POPC   PO470488  35.950  13.643   5.309
 5464POPC   GL170489  35.753  13.626   5.700
 5464POPC   GL270490  35.786  13.947   5.808
 5464POPC   C1A70491  35.878  13.498   6.116
 5464POPC   D2A70492  36.079  13.606   6.516
 5464POPC   C3A70493  35.886  13.685   6.906
 5464POPC   C4A70494  36.014  13.582   7.327
 5464POPC   C1B70495  36.109  14.001   6.142
 5464POPC   C2B70496  36.251  14.094   6.605
 5464POPC   C3B70497  36.337  13.934   7.039
 5464POPC   C4B70498  36.427  13.969   7.497
 5465POPC   NC370499   9.045  32.318   5.407
 5465POPC   PO470500   8.468  32.005   5.134
 5465POPC   GL170501   8.734  31.978   5.613
 5465POPC   GL270502   8.840  31.835   5.946
 5465POPC   C1A70503   8.903  32.314   6.022
 5465POPC   D2A70504   8.966  32.387   6.483
 5465POPC   C3A70505   9.082  32.117   6.855
 5465POPC   C4A70506   9.144  32.267   7.311
 5465POPC   C1B70507   8.607  32.006   6.322
 5465POPC   C2B70508   8.572  32.134   6.773
 5465POPC   C3B70509   8.706  31.965   7.197
 5465POPC   C4B70510   8.949  31.837   7.584
 5466POPC   NC370511  41.079   5.454   5.527
 5466POPC   PO470512  40.600   5.050   5.613
 5466POPC   GL170513  40.937   5.091   5.908
 5466POPC   GL270514  40.943   5.456   6.007
 5466POPC   C1A70515  40.905   4.834   6.312
 5466POPC   D2A70516  41.189   4.850   6.671
 5466POPC   C3A70517  41.131   4.990   7.078
 5466POPC   C4A70518  40.889   5.287   7.256
 5466POPC   C1B70519  40.690   5.322   6.290
 5466POPC   C2B70520  40.548   5.102   6.603
 5466POPC   C3B70521  40.610   4.970   6.971
 5466POPC   C4B70522  40.511   4.960   7.380
 5467POPC   NC370523  42.515   2.791   5.260
 5467POPC   PO470524  41.921   2.468   5.297
 5467POPC   GL170525  42.217   2.740   5.665
 5467POPC   GL270526  42.538   3.025   5.719
 5467POPC   C1A70527  42.275   2.870   6.112
 5467POPC   D2A70528  42.243   3.023   6.541
 5467POPC   C3A70529  42.313   2.687   6.848
 5467POPC   C4A70530  42.434   2.642   7.259
 5467POPC   C1B70531  42.668   3.186   6.187
 5467POPC   C2B70532  42.731   3.181   6.641
 5467POPC   C3B70533  42.575   3.087   7.027
 5467POPC   C4B70534  42.190   3.087   7.213
 5468POPC   NC370535  30.451  24.753   5.522
 5468POPC   PO470536  30.707  24.194   5.710
 5468POPC   GL170537  30.756  24.543   5.881
 5468POPC   GL270538  30.930  24.837   5.714
 5468POPC   C1A70539  30.655  24.509   6.292
 5468POPC   D2A70540  30.357  24.498   6.540
 5468POPC   C3A70541  30.599  24.521   6.867
 5468POPC   C4A70542  30.495  24.702   7.219
 5468POPC   C1B70543  30.823  24.952   6.146
 5468POPC   C2B70544  31.021  24.865   6.560
 5468POPC   C3B70545  30.965  24.867   7.028
 5468POPC   C4B70546  30.893  24.862   7.504
 5469POPC   NC370547  17.543  11.574   5.242
 5469POPC   PO470548  17.236  10.983   5.338
 5469POPC   GL170549  17.336  11.309   5.688
 5469POPC   GL270550  17.072  11.385   5.873
 5469POPC   C1A70551  17.492  11.411   6.163
 5469POPC   D2A70552  17.513  11.248   6.622
 5469POPC   C3A70553  17.561  11.454   7.023
 5469POPC   C4A70554  17.972  11.488   7.241
 5469POPC   C1B70555  17.148  11.040   6.158
 5469POPC   C2B70556  17.108  10.953   6.617
 5469POPC   C3B70557  17.263  11.019   7.073
 5469POPC   C4B70558  17.208  11.010   7.555
 5470POPC   NC370559   0.687   7.965   5.386
 5470POPC   PO470560   0.478   7.302   5.298
 5470POPC   GL170561   0.272   7.206   5.695
 5470POPC   GL270562   0.157   7.506   5.864
 5470POPC   C1A70563   0.280   7.123   6.169
 5470POPC   D2A70564   0.650   7.198   6.437
 5470POPC   C3A70565   0.593   7.435   6.836
 5470POPC   C4A70566   0.451   7.377   7.252
 5470POPC   C1B70567   0.528   7.592   6.111
 5470POPC   C2B70568   0.602   7.813   6.485
 5470POPC   C3B70569   0.322   7.930   6.846
 5470POPC   C4B70570   0.230   7.822   7.280
 5471POPC   NC370571  44.116   7.283   5.367
 5471POPC   PO470572  43.689   7.775   5.333
 5471POPC   GL170573  43.918   7.619   5.713
 5471POPC   GL270574  43.815   7.293   5.798
 5471POPC   C1A70575  44.124   7.616   6.135
 5471POPC   D2A70576  44.026   7.626   6.588
 5471POPC   C3A70577  43.695   7.441   6.832
 5471POPC   C4A70578  43.772   7.343   7.258
 5471POPC   C1B70579  44.096   7.092   6.113
 5471POPC   C2B70580  44.022   7.096   6.572
 5471POPC   C3B70581  44.203   7.247   6.963
 5471POPC   C4B70582  44.269   7.244   7.401
 5472POPC   NC370583  18.914  10.010   5.092
 5472POPC   PO470584  19.493   9.762   5.229
 5472POPC   GL170585  19.060   9.829   5.548
 5472POPC   GL270586  18.845   9.527   5.705
 5472POPC   C1A70587  18.922   9.915   6.012
 5472POPC   D2A70588  18.779   9.892   6.454
 5472POPC   C3A70589  19.018   9.802   6.846
 5472POPC   C4A70590  19.253  10.107   7.092
 5472POPC   C1B70591  18.671   9.423   6.170
 5472POPC   C2B70592  18.684   9.447   6.662
 5472POPC   C3B70593  18.826   9.336   7.103
 5472POPC   C4B70594  18.855   9.426   7.585
 5473POPC   NC370595  40.907  28.705   5.104
 5473POPC   PO470596  40.710  28.109   5.364
 5473POPC   GL170597  40.725  28.282   5.769
 5473POPC   GL270598  40.799  28.603   5.687
 5473POPC   C1A70599  40.741  28.197   6.227
 5473POPC   D2A70600  40.491  28.204   6.639
 5473POPC   C3A70601  40.698  28.159   7.057
 5473POPC   C4A70602  40.759  28.182   7.504
 5473POPC   C1B70603  40.699  28.735   6.072
 5473POPC   C2B70604  40.670  28.698   6.499
 5473POPC   C3B70605  40.789  28.619   6.903
 5473POPC   C4B70606  40.856  28.645   7.339
 5474POPC   NC370607  43.296  34.970   5.554
 5474POPC   PO470608  42.757  34.557   5.509
 5474POPC   GL170609  42.885  34.350   5.854
 5474POPC   GL270610  43.217  34.395   5.764
 5474POPC   C1A70611  42.872  34.501   6.255
 5474POPC   D2A70612  43.128  34.603   6.608
 5474POPC   C3A70613  42.886  34.532   6.967
 5474POPC   C4A70614  42.980  34.459   7.396
 5474POPC   C1B70615  43.284  34.193   6.171
 5474POPC   C2B70616  43.332  34.108   6.621
 5474POPC   C3B70617  43.270  34.177   7.079
 5474POPC   C4B70618  43.471  34.142   7.500
 5475POPC   NC370619  21.325  34.620   5.282
 5475POPC   PO470620  20.820  35.038   5.374
 5475POPC   GL170621  21.142  34.838   5.693
 5475POPC   GL270622  21.544  34.775   5.718
 5475POPC   C1A70623  21.202  34.614   6.082
 5475POPC   D2A70624  21.135  34.357   6.429
 5475POPC   C3A70625  21.100  34.521   6.857
 5475POPC   C4A70626  21.144  34.295   7.254
 5475POPC   C1B70627  21.698  34.733   6.153
 5475POPC   C2B70628  21.639  34.415   6.473
 5475POPC   C3B70629  21.787  34.419   6.872
 5475POPC   C4B70630  21.550  34.716   7.092
 5476POPC   NC370631  35.952  16.281   5.390
 5476POPC   PO470632  36.232  15.650   5.396
 5476POPC   GL170633  36.153  15.940   5.760
 5476POPC   GL270634  35.863  16.132   5.893
 5476POPC   C1A70635  36.280  15.964   6.212
 5476POPC   D2A70636  36.426  15.686   6.549
 5476POPC   C3A70637  36.273  15.579   6.972
 5476POPC   C4A70638  36.128  15.888   7.267
 5476POPC   C1B70639  35.785  15.874   6.261
 5476POPC   C2B70640  35.947  15.890   6.680
 5476POPC   C3B70641  35.734  16.064   7.005
 5476POPC   C4B70642  35.795  16.283   7.367
 5477POPC   NC370643  14.087  43.856   5.419
 5477POPC   PO470644  14.697  43.557   5.489
 5477POPC   GL170645  14.422  43.773   5.808
 5477POPC   GL270646  14.447  44.128   5.784
 5477POPC   C1A70647  14.218  43.861   6.205
 5477POPC   D2A70648  14.443  43.777   6.582
 5477POPC   C3A70649  14.234  43.814   6.953
 5477POPC   C4A70650  14.185  43.603   7.338
 5477POPC   C1B70651  14.448  44.306   6.205
 5477POPC   C2B70652  14.248  44.274   6.591
 5477POPC   C3B70653  14.411  44.297   6.994
 5477POPC   C4B70654  14.110  44.199   7.273
 5478POPC   NC370655  13.376   0.343   5.249
 5478POPC   PO470656  13.816   0.818   5.122
 5478POPC   GL170657  13.862   0.576   5.522
 5478POPC   GL270658  13.536   0.578   5.645
 5478POPC   C1A70659  13.839   0.477   6.000
 5478POPC   D2A70660  13.637   0.270   6.316
 5478POPC   C3A70661  13.842   0.395   6.681
 5478POPC   C4A70662  13.870   0.439   7.109
 5478POPC   C1B70663  13.401   0.794   6.000
 5478POPC   C2B70664  13.317   0.689   6.417
 5478POPC   C3B70665  13.350   0.833   6.822
 5478POPC   C4B70666  13.358   0.580   7.176
 5479POPC   NC370667  30.484   8.104   5.566
 5479POPC   PO470668  30.986   8.116   5.185
 5479POPC   GL170669  31.000   8.207   5.719
 5479POPC   GL270670  30.716   8.100   5.992
 5479POPC   C1A70671  31.097   8.263   6.228
 5479POPC   D2A70672  30.852   8.315   6.642
 5479POPC   C3A70673  31.023   8.330   7.066
 5479POPC   C4A70674  30.873   8.431   7.479
 5479POPC   C1B70675  30.488   8.416   6.266
 5479POPC   C2B70676  30.282   8.429   6.687
 5479POPC   C3B70677  30.505   8.426   7.060
 5479POPC   C4B70678  30.626   8.040   7.234
 5480POPC   NC370679  32.046   9.064   5.288
 5480POPC   PO470680  32.607   8.803   5.325
 5480POPC   GL170681  32.377   8.915   5.734
 5480POPC   GL270682  31.997   8.928   5.780
 5480POPC   C1A70683  32.349   9.008   6.198
 5480POPC   D2A70684  32.436   8.892   6.635
 5480POPC   C3A70685  32.370   9.089   7.034
 5480POPC   C4A70686  32.103   8.776   7.201
 5480POPC   C1B70687  31.800   8.956   6.189
 5480POPC   C2B70688  31.915   8.957   6.644
 5480POPC   C3B70689  31.709   9.079   7.037
 5480POPC   C4B70690  31.943   9.255   7.375
 5481POPC   NC370691   9.035  30.379   5.164
 5481POPC   PO470692   8.907  30.957   5.478
 5481POPC   GL170693   9.147  30.952   5.842
 5481POPC   GL270694   9.053  30.608   5.825
 5481POPC   C1A70695   9.128  30.867   6.294
 5481POPC   D2A70696   9.089  30.608   6.657
 5481POPC   C3A70697   9.115  30.904   7.014
 5481POPC   C4A70698   9.457  30.979   7.357
 5481POPC   C1B70699   8.726  30.581   6.130
 5481POPC   C2B70700   8.591  30.761   6.524
 5481POPC   C3B70701   8.544  30.589   6.934
 5481POPC   C4B70702   8.747  30.456   7.288
 5482POPC   NC370703  37.336  18.127   5.243
 5482POPC   PO470704  37.848  18.458   5.529
 5482POPC   GL170705  37.788  18.132   5.794
 5482POPC   GL270706  37.460  18.177   5.743
 5482POPC   C1A70707  37.639  17.937   6.193
 5482POPC   D2A70708  37.531  17.907   6.624
 5482POPC   C3A70709  37.793  18.192   6.846
 5482POPC   C4A70710  37.986  18.173   7.247
 5482POPC   C1B70711  37.263  18.277   6.140
 5482POPC   C2B70712  37.320  18.382   6.541
 5482POPC   C3B70713  37.236  18.264   6.922
 5482POPC   C4B70714  37.467  18.238   7.265
 5483POPC   NC370715  33.607   9.247   5.319
 5483POPC   PO470716  34.149   9.128   5.587
 5483POPC   GL170717  34.049   8.856   5.873
 5483POPC   GL270718  33.697   8.878   5.806
 5483POPC   C1A70719  33.994   8.966   6.270
 5483POPC   D2A70720  33.691   8.944   6.531
 5483POPC   C3A70721  33.873   8.952   6.903
 5483POPC   C4A70722  33.773   8.934   7.314
 5483POPC   C1B70723  33.702   8.570   6.153
 5483POPC   C2B70724  33.496   8.472   6.577
 5483POPC   C3B70725  33.383   8.742   6.888
 5483POPC   C4B70726  33.377   8.621   7.274
 5484POPC   NC370727  13.873  17.012   5.476
 5484POPC   PO470728  13.474  17.591   5.440
 5484POPC   GL170729  13.686  17.613   5.773
 5484POPC   GL270730  13.562  17.250   5.835
 5484POPC   C1A70731  13.494  17.725   6.143
 5484POPC   D2A70732  13.412  17.481   6.506
 5484POPC   C3A70733  13.440  17.677   6.889
 5484POPC   C4A70734  13.408  17.604   7.301
 5484POPC   C1B70735  13.492  17.048   6.231
 5484POPC   C2B70736  13.478  16.979   6.672
 5484POPC   C3B70737  13.407  17.161   7.069
 5484POPC   C4B70738  13.608  17.188   7.499
 5485POPC   NC370739  31.940  38.698   5.384
 5485POPC   PO470740  32.470  38.207   5.319
 5485POPC   GL170741  32.280  38.429   5.686
 5485POPC   GL270742  31.944  38.281   5.694
 5485POPC   C1A70743  32.272  38.300   6.134
 5485POPC   D2A70744  32.457  38.375   6.538
 5485POPC   C3A70745  32.408  38.645   6.905
 5485POPC   C4A70746  32.512  38.552   7.347
 5485POPC   C1B70747  31.770  38.333   6.089
 5485POPC   C2B70748  31.872  38.402   6.496
 5485POPC   C3B70749  32.027  38.254   6.868
 5485POPC   C4B70750  32.007  38.520   7.230
 5486POPC   NC370751  27.321  37.415   5.425
 5486POPC   PO470752  26.620  37.592   5.269
 5486POPC   GL170753  26.776  37.770   5.678
 5486POPC   GL270754  26.507  37.937   5.869
 5486POPC   C1A70755  27.046  37.668   6.090
 5486POPC   D2A70756  27.064  37.440   6.495
 5486POPC   C3A70757  26.818  37.574   6.851
 5486POPC   C4A70758  26.953  37.507   7.257
 5486POPC   C1B70759  26.710  37.993   6.293
 5486POPC   C2B70760  27.038  37.990   6.610
 5486POPC   C3B70761  26.904  38.086   7.039
 5486POPC   C4B70762  26.853  37.966   7.470
 5487POPC   NC370763  31.069   9.095   5.498
 5487POPC   PO470764  31.644   8.819   5.345
 5487POPC   GL170765  31.444   8.809   5.709
 5487POPC   GL270766  31.522   9.149   5.774
 5487POPC   C1A70767  31.426   8.613   6.095
 5487POPC   D2A70768  31.539   8.650   6.528
 5487POPC   C3A70769  31.325   8.716   6.936
 5487POPC   C4A70770  31.185   8.826   7.382
 5487POPC   C1B70771  31.272   9.093   6.168
 5487POPC   C2B70772  31.184   9.089   6.629
 5487POPC   C3B70773  31.166   9.236   7.077
 5487POPC   C4B70774  31.052   9.603   7.366
 5488POPC   NC370775   7.449  18.837   5.363
 5488POPC   PO470776   7.564  18.210   5.385
 5488POPC   GL170777   7.758  18.368   5.777
 5488POPC   GL270778   7.788  18.722   5.749
 5488POPC   C1A70779   7.797  18.263   6.226
 5488POPC   D2A70780   7.503  18.311   6.556
 5488POPC   C3A70781   7.611  18.254   6.971
 5488POPC   C4A70782   7.362  18.272   7.325
 5488POPC   C1B70783   7.503  18.671   6.118
 5488POPC   C2B70784   7.253  18.752   6.492
 5488POPC   C3B70785   7.262  18.648   6.926
 5488POPC   C4B70786   7.063  18.682   7.319
 5489POPC   NC370787  34.089  28.443   5.024
 5489POPC   PO470788  33.647  28.266   5.485
 5489POPC   GL170789  33.914  28.439   5.795
 5489POPC   GL270790  33.612  28.509   5.958
 5489POPC   C1A70791  34.008  28.702   6.179
 5489POPC   D2A70792  33.775  28.674   6.545
 5489POPC   C3A70793  33.973  28.441   6.891
 5489POPC   C4A70794  33.842  28.551   7.294
 5489POPC   C1B70795  33.827  28.204   6.276
 5489POPC   C2B70796  33.835  27.982   6.718
 5489POPC   C3B70797  33.588  28.122   7.114
 5489POPC   C4B70798  33.553  28.180   7.569
 5490POPC   NC370799   2.203   5.914   5.335
 5490POPC   PO470800   1.533   5.757   5.230
 5490POPC   GL170801   1.674   5.986   5.665
 5490POPC   GL270802   2.022   6.120   5.754
 5490POPC   C1A70803   1.719   6.143   6.147
 5490POPC   D2A70804   1.937   6.203   6.561
 5490POPC   C3A70805   1.813   5.904   6.882
 5490POPC   C4A70806   1.819   5.780   7.323
 5490POPC   C1B70807   2.268   6.161   6.147
 5490POPC   C2B70808   2.457   6.063   6.558
 5490POPC   C3B70809   2.285   6.120   6.982
 5490POPC   C4B70810   2.426   6.212   7.384
 5491POPC   NC370811   8.948  14.723   5.420
 5491POPC   PO470812   9.386  14.138   5.453
 5491POPC   GL170813   9.273  14.457   5.791
 5491POPC   GL270814   9.086  14.805   5.893
 5491POPC   C1A70815   9.101  14.401   6.190
 5491POPC   D2A70816   8.997  14.056   6.456
 5491POPC   C3A70817   8.952  14.220   6.867
 5491POPC   C4A70818   8.906  14.164   7.318
 5491POPC   C1B70819   8.997  14.912   6.317
 5491POPC   C2B70820   9.002  14.728   6.730
 5491POPC   C3B70821   8.817  14.643   7.135
 5491POPC   C4B70822   8.803  14.604   7.627
 5492POPC   NC370823  35.032  35.824   5.563
 5492POPC   PO470824  35.381  36.283   5.204
 5492POPC   GL170825  35.396  36.309   5.676
 5492POPC   GL270826  35.116  36.442   5.877
 5492POPC   C1A70827  35.612  36.307   6.104
 5492POPC   D2A70828  35.407  36.381   6.513
 5492POPC   C3A70829  35.457  36.192   6.895
 5492POPC   C4A70830  35.262  36.083   7.297
 5492POPC   C1B70831  35.153  36.073   6.151
 5492POPC   C2B70832  35.055  36.013   6.565
 5492POPC   C3B70833  34.961  36.321   6.840
 5492POPC   C4B70834  34.799  36.322   7.227
 5493POPC   NC370835  39.089  32.552   5.576
 5493POPC   PO470836  39.461  31.974   5.570
 5493POPC   GL170837  39.263  32.173   5.867
 5493POPC   GL270838  39.464  32.474   5.898
 5493POPC   C1A70839  39.028  32.108   6.204
 5493POPC   D2A70840  39.202  32.116   6.573
 5493POPC   C3A70841  38.961  32.282   6.909
 5493POPC   C4A70842  39.012  32.163   7.338
 5493POPC   C1B70843  39.232  32.577   6.296
 5493POPC   C2B70844  39.394  32.553   6.740
 5493POPC   C3B70845  39.431  32.379   7.164
 5493POPC   C4B70846  39.437  32.599   7.611
 5494POPC   NC370847  26.962  39.466   5.465
 5494POPC   PO470848  27.280  38.872   5.587
 5494POPC   GL170849  26.839  38.950   5.787
 5494POPC   GL270850  26.689  39.295   5.846
 5494POPC   C1A70851  26.702  38.989   6.234
 5494POPC   D2A70852  26.886  38.886   6.608
 5494POPC   C3A70853  26.832  39.106   6.987
 5494POPC   C4A70854  26.889  39.003   7.376
 5494POPC   C1B70855  26.844  39.487   6.225
 5494POPC   C2B70856  27.034  39.416   6.620
 5494POPC   C3B70857  27.008  39.609   7.033
 5494POPC   C4B70858  26.896  39.534   7.478
 5495POPC   NC370859  24.492  25.596   5.451
 5495POPC   PO470860  24.486  24.986   5.114
 5495POPC   GL170861  24.549  25.087   5.553
 5495POPC   GL270862  24.202  25.180   5.628
 5495POPC   C1A70863  24.619  25.149   6.005
 5495POPC   D2A70864  24.539  25.136   6.474
 5495POPC   C3A70865  24.741  25.313   6.853
 5495POPC   C4A70866  24.556  25.515   7.217
 5495POPC   C1B70867  24.146  25.323   6.056
 5495POPC   C2B70868  24.035  25.271   6.471
 5495POPC   C3B70869  24.211  25.382   6.857
 5495POPC   C4B70870  24.358  25.048   7.125
 5496POPC   NC370871   7.877  26.225   5.462
 5496POPC   PO470872   8.496  25.936   5.534
 5496POPC   GL170873   8.249  26.109   5.875
 5496POPC   GL270874   7.937  25.925   5.890
 5496POPC   C1A70875   8.270  25.970   6.321
 5496POPC   D2A70876   8.482  25.944   6.711
 5496POPC   C3A70877   8.278  26.177   7.079
 5496POPC   C4A70878   8.176  26.060   7.492
 5496POPC   C1B70879   7.785  26.084   6.314
 5496POPC   C2B70880   7.948  26.004   6.736
 5496POPC   C3B70881   7.803  25.952   7.165
 5496POPC   C4B70882   7.382  25.988   7.392
 5497POPC   NC370883   4.087  39.314   5.439
 5497POPC   PO470884   4.705  39.531   5.306
 5497POPC   GL170885   4.435  39.585   5.699
 5497POPC   GL270886   4.483  39.225   5.793
 5497POPC   C1A70887   4.170  39.471   6.108
 5497POPC   D2A70888   4.050  39.189   6.481
 5497POPC   C3A70889   4.112  39.149   6.953
 5497POPC   C4A70890   4.023  39.508   7.208
 5497POPC   C1B70891   4.500  39.098   6.238
 5497POPC   C2B70892   4.506  39.310   6.656
 5497POPC   C3B70893   4.579  39.366   7.110
 5497POPC   C4B70894   4.592  39.094   7.514
 5498POPC   NC370895  23.415  21.781   5.543
 5498POPC   PO470896  23.888  22.235   5.502
 5498POPC   GL170897  23.543  22.234   5.769
 5498POPC   GL270898  23.732  21.969   5.922
 5498POPC   C1A70899  23.506  22.366   6.192
 5498POPC   D2A70900  23.860  22.174   6.428
 5498POPC   C3A70901  23.827  22.159   6.876
 5498POPC   C4A70902  23.570  22.097   7.236
 5498POPC   C1B70903  23.433  21.863   6.217
 5498POPC   C2B70904  23.379  22.011   6.642
 5498POPC   C3B70905  23.278  21.762   6.971
 5498POPC   C4B70906  23.363  21.621   7.346
 5499POPC   NC370907  27.647   6.192   5.489
 5499POPC   PO470908  27.311   5.599   5.492
 5499POPC   GL170909  27.446   5.837   5.849
 5499POPC   GL270910  27.818   5.823   5.908
 5499POPC   C1A70911  27.487   5.765   6.303
 5499POPC   D2A70912  27.917   5.765   6.482
 5499POPC   C3A70913  27.885   5.780   6.914
 5499POPC   C4A70914  27.552   5.893   7.187
 5499POPC   C1B70915  27.662   6.209   6.142
 5499POPC   C2B70916  27.602   6.472   6.493
 5499POPC   C3B70917  27.546   6.397   6.923
 5499POPC   C4B70918  27.351   6.324   7.342
 5500POPC   NC370919  19.379  36.167   5.404
 5500POPC   PO470920  18.847  35.853   5.608
 5500POPC   GL170921  19.131  36.170   5.852
 5500POPC   GL270922  18.969  36.453   5.949
 5500POPC   C1A70923  19.353  36.290   6.266
 5500POPC   D2A70924  19.201  36.040   6.626
 5500POPC   C3A70925  19.272  36.087   7.057
 5500POPC   C4A70926  18.946  35.995   7.365
 5500POPC   C1B70927  18.825  36.251   6.292
 5500POPC   C2B70928  18.592  36.260   6.636
 5500POPC   C3B70929  18.723  36.279   7.016
 5500POPC   C4B70930  19.022  36.519   7.203
 5501POPC   NC370931  41.105  10.144   5.437
 5501POPC   PO470932  41.721  10.485   5.311
 5501POPC   GL170933  41.746  10.353   5.758
 5501POPC   GL270934  41.499  10.154   5.754
 5501POPC   C1A70935  41.868  10.476   6.169
 5501POPC   D2A70936  41.664  10.624   6.556
 5501POPC   C3A70937  41.608  10.552   7.009
 5501POPC   C4A70938  41.649  10.733   7.445
 5501POPC   C1B70939  41.429  10.213   6.191
 5501POPC   C2B70940  41.425  10.057   6.626
 5501POPC   C3B70941  41.201  10.176   7.000
 5501POPC   C4B70942  41.342  10.338   7.404
 5502POPC   NC370943  26.259  28.600   5.192
 5502POPC   PO470944  25.785  28.200   5.386
 5502POPC   GL170945  26.170  28.213   5.652
 5502POPC   GL270946  26.221  28.519   5.738
 5502POPC   C1A70947  26.020  28.224   6.114
 5502POPC   D2A70948  25.652  28.449   6.333
 5502POPC   C3A70949  25.685  28.514   6.788
 5502POPC   C4A70950  25.644  28.305   7.189
 5502POPC   C1B70951  26.375  28.599   6.169
 5502POPC   C2B70952  26.129  28.543   6.522
 5502POPC   C3B70953  26.168  28.506   6.941
 5502POPC   C4B70954  26.334  28.453   7.283
 5503POPC   NC370955  12.870  20.846   5.442
 5503POPC   PO470956  12.888  21.511   5.327
 5503POPC   GL170957  12.763  21.535   5.743
 5503POPC   GL270958  12.628  21.194   5.793
 5503POPC   C1A70959  12.997  21.745   6.068
 5503POPC   D2A70960  13.223  21.727   6.469
 5503POPC   C3A70961  12.985  21.483   6.737
 5503POPC   C4A70962  12.714  21.643   7.045
 5503POPC   C1B70963  12.752  21.242   6.195
 5503POPC   C2B70964  12.905  21.010   6.498
 5503POPC   C3B70965  12.959  20.996   6.920
 5503POPC   C4B70966  12.637  21.157   7.149
 5504POPC   NC370967   4.584  29.694   5.458
 5504POPC   PO470968   4.000  29.602   5.498
 5504POPC   GL170969   4.228  29.695   5.900
 5504POPC   GL270970   4.585  29.782   5.959
 5504POPC   C1A70971   4.252  29.678   6.364
 5504POPC   D2A70972   4.468  29.535   6.750
 5504POPC   C3A70973   4.558  29.762   7.137
 5504POPC   C4A70974   4.416  29.943   7.540
 5504POPC   C1B70975   4.737  29.861   6.381
 5504POPC   C2B70976   4.890  30.017   6.780
 5504POPC   C3B70977   4.809  30.199   7.176
 5504POPC   C4B70978   4.438  30.436   7.305
 5505POPC   NC370979  12.936  42.845   5.507
 5505POPC   PO470980  13.094  42.163   5.283
 5505POPC   GL170981  12.852  42.172   5.713
 5505POPC   GL270982  12.853  42.507   5.866
 5505POPC   C1A70983  12.623  42.148   6.147
 5505POPC   D2A70984  12.776  42.188   6.596
 5505POPC   C3A70985  12.594  42.342   7.010
 5505POPC   C4A70986  12.720  42.347   7.465
 5505POPC   C1B70987  12.845  42.595   6.291
 5505POPC   C2B70988  12.725  42.731   6.681
 5505POPC   C3B70989  12.941  42.729   7.048
 5505POPC   C4B70990  13.162  42.600   7.414
 5506POPC   NC370991  28.645   5.556   5.387
 5506POPC   PO470992  28.028   5.898   5.421
 5506POPC   GL170993  28.232   5.609   5.693
 5506POPC   GL270994  28.429   5.869   5.806
 5506POPC   C1A70995  28.240   5.486   6.136
 5506POPC   D2A70996  28.468   5.565   6.523
 5506POPC   C3A70997  28.311   5.490   6.927
 5506POPC   C4A70998  28.504   5.650   7.286
 5506POPC   C1B70999  28.265   6.010   6.191
 5506POPC   C2B71000  28.425   6.091   6.610
 5506POPC   C3B71001  28.311   6.075   7.042
 5506POPC   C4B71002  27.928   6.232   7.188
 5507POPC   NC371003  31.135   6.772   5.373
 5507POPC   PO471004  31.627   6.337   5.399
 5507POPC   GL171005  31.502   6.638   5.715
 5507POPC   GL271006  31.240   6.370   5.761
 5507POPC   C1A71007  31.292   6.740   6.126
 5507POPC   D2A71008  31.184   6.562   6.525
 5507POPC   C3A71009  31.254   6.755   6.909
 5507POPC   C4A71010  31.280   7.033   7.238
 5507POPC   C1B71011  31.559   6.310   6.096
 5507POPC   C2B71012  31.679   6.410   6.498
 5507POPC   C3B71013  31.494   6.299   6.872
 5507POPC   C4B71014  31.592   6.432   7.245
 5508POPC   NC371015  32.586  34.359   5.542
 5508POPC   PO471016  33.043  34.758   5.157
 5508POPC   GL171017  33.082  34.582   5.636
 5508POPC   GL271018  33.139  34.198   5.617
 5508POPC   C1A71019  32.973  34.667   6.122
 5508POPC   D2A71020  32.788  34.674   6.576
 5508POPC   C3A71021  32.983  34.833   6.981
 5508POPC   C4A71022  33.358  34.741   7.201
 5508POPC   C1B71023  32.988  34.160   6.049
 5508POPC   C2B71024  33.112  34.257   6.426
 5508POPC   C3B71025  33.228  34.438   6.783
 5508POPC   C4B71026  33.038  34.322   7.128
 5509POPC   NC371027  11.062  35.715   5.539
 5509POPC   PO471028  11.311  36.304   5.261
 5509POPC   GL171029  11.175  36.173   5.688
 5509POPC   GL271030  11.140  36.421   5.887
 5509POPC   C1A71031  11.192  35.979   6.124
 5509POPC   D2A71032  11.120  36.256   6.481
 5509POPC   C3A71033  11.168  36.099   6.899
 5509POPC   C4A71034  10.866  36.134   7.245
 5509POPC   C1B71035  11.547  36.340   6.187
 5509POPC   C2B71036  11.676  36.231   6.622
 5509POPC   C3B71037  11.652  36.403   7.050
 5509POPC   C4B71038  11.345  36.293   7.347
 5510POPC   NC371039  15.562   1.439   5.382
 5510POPC   PO471040  14.987   1.141   5.379
 5510POPC   GL171041  15.225   1.201   5.761
 5510POPC   GL271042  15.410   0.878   5.695
 5510POPC   C1A71043  15.072   1.413   6.160
 5510POPC   D2A71044  14.928   1.719   6.468
 5510POPC   C3A71045  14.910   1.489   6.871
 5510POPC   C4A71046  14.771   1.431   7.292
 5510POPC   C1B71047  15.615   0.803   6.109
 5510POPC   C2B71048  15.479   0.893   6.522
 5510POPC   C3B71049  15.500   1.036   6.940
 5510POPC   C4B71050  15.152   1.111   7.224
 5511POPC   NC371051  24.892  12.988   5.057
 5511POPC   PO471052  24.359  12.930   5.470
 5511POPC   GL171053  24.438  12.802   5.881
 5511POPC   GL271054  24.315  13.134   5.943
 5511POPC   C1A71055  24.697  12.862   6.254
 5511POPC   D2A71056  24.532  12.787   6.687
 5511POPC   C3A71057  24.791  12.775   7.059
 5511POPC   C4A71058  24.740  12.686   7.495
 5511POPC   C1B71059  24.233  13.045   6.336
 5511POPC   C2B71060  24.065  13.184   6.678
 5511POPC   C3B71061  24.026  12.822   6.857
 5511POPC   C4B71062  24.299  12.710   7.143
 5512POPC   NC371063  17.026  35.518   5.408
 5512POPC   PO471064  16.385  35.221   5.045
 5512POPC   GL171065  16.570  35.261   5.550
 5512POPC   GL271066  16.385  35.072   5.797
 5512POPC   C1A71067  16.812  35.292   6.033
 5512POPC   D2A71068  16.962  35.264   6.515
 5512POPC   C3A71069  16.899  35.527   6.878
 5512POPC   C4A71070  16.761  35.375   7.270
 5512POPC   C1B71071  16.395  35.095   6.259
 5512POPC   C2B71072  16.568  34.922   6.644
 5512POPC   C3B71073  16.572  34.926   7.103
 5512POPC   C4B71074  16.290  35.078   7.435
 5513POPC   NC371075  41.579  40.221   5.507
 5513POPC   PO471076  41.235  39.771   5.188
 5513POPC   GL171077  41.481  39.800   5.742
 5513POPC   GL271078  41.712  40.080   5.950
 5513POPC   C1A71079  41.321  39.928   6.208
 5513POPC   D2A71080  41.337  40.155   6.634
 5513POPC   C3A71081  41.443  39.959   7.037
 5513POPC   C4A71082  41.656  40.225   7.269
 5513POPC   C1B71083  41.821  39.972   6.343
 5513POPC   C2B71084  41.853  39.991   6.762
 5513POPC   C3B71085  42.117  40.150   7.043
 5513POPC   C4B71086  42.137  40.183   7.457
 5514POPC   NC371087  28.724  18.986   5.675
 5514POPC   PO471088  29.307  19.141   5.419
 5514POPC   GL171089  29.238  18.976   5.810
 5514POPC   GL271090  29.403  18.671   5.771
 5514POPC   C1A71091  29.094  19.092   6.234
 5514POPC   D2A71092  28.833  19.095   6.578
 5514POPC   C3A71093  28.974  19.008   6.970
 5514POPC   C4A71094  29.308  19.115   7.237
 5514POPC   C1B71095  29.276  18.631   6.220
 5514POPC   C2B71096  29.321  18.844   6.631
 5514POPC   C3B71097  29.314  18.627   7.053
 5514POPC   C4B71098  29.454  18.631   7.479
 5515POPC   NC371099  44.045  36.350   5.356
 5515POPC   PO471100  43.384  35.986   5.318
 5515POPC   GL171101  43.690  36.081   5.632
 5515POPC   GL271102  43.745  36.439   5.770
 5515POPC   C1A71103  43.700  35.961   6.057
 5515POPC   D2A71104  43.583  36.156   6.440
 5515POPC   C3A71105  43.559  35.888   6.814
 5515POPC   C4A71106  43.508  36.163   7.158
 5515POPC   C1B71107  44.096  36.276   6.054
 5515POPC   C2B71108  44.082  36.046   6.451
 5515POPC   C3B71109  44.008  36.156   6.885
 5515POPC   C4B71110  44.294  36.204   7.212
 5516POPC   NC371111  32.603  19.616   5.431
 5516POPC   PO471112  31.965  20.004   5.352
 5516POPC   GL171113  32.216  19.818   5.706
 5516POPC   GL271114  32.535  19.998   5.802
 5516POPC   C1A71115  32.339  19.657   6.131
 5516POPC   D2A71116  32.095  19.697   6.502
 5516POPC   C3A71117  32.285  19.797   6.880
 5516POPC   C4A71118  32.188  19.892   7.321
 5516POPC   C1B71119  32.521  20.177   6.242
 5516POPC   C2B71120  32.585  20.349   6.685
 5516POPC   C3B71121  32.580  20.163   7.112
 5516POPC   C4B71122  32.589  20.059   7.565
 5517POPC   NC371123  18.845  31.986   5.466
 5517POPC   PO471124  19.079  32.595   5.531
 5517POPC   GL171125  19.061  32.306   5.864
 5517POPC   GL271126  18.895  32.015   5.998
 5517POPC   C1A71127  19.266  32.318   6.256
 5517POPC   D2A71128  19.449  32.529   6.597
 5517POPC   C3A71129  19.317  32.344   6.983
 5517POPC   C4A71130  19.433  32.123   7.361
 5517POPC   C1B71131  18.770  32.389   6.290
 5517POPC   C2B71132  18.876  32.498   6.730
 5517POPC   C3B71133  18.837  32.358   7.174
 5517POPC   C4B71134  18.761  32.519   7.644
 5518POPC   NC371135  14.658  10.240   5.555
 5518POPC   PO471136  14.277  10.739   5.341
 5518POPC   GL171137  14.420  10.677   5.820
 5518POPC   GL271138  14.714  10.470   5.997
 5518POPC   C1A71139  14.276  10.521   6.272
 5518POPC   D2A71140  14.327  10.311   6.673
 5518POPC   C3A71141  14.335  10.513   7.054
 5518POPC   C4A71142  14.261  10.324   7.403
 5518POPC   C1B71143  14.688  10.810   6.272
 5518POPC   C2B71144  14.508  10.810   6.673
 5518POPC   C3B71145  14.682  10.882   7.081
 5518POPC   C4B71146  14.720  10.597   7.433
 5519POPC   NC371147  18.725   7.009   5.365
 5519POPC   PO471148  19.241   7.397   5.385
 5519POPC   GL171149  19.151   7.301   5.793
 5519POPC   GL271150  18.811   7.414   5.888
 5519POPC   C1A71151  19.245   7.462   6.210
 5519POPC   D2A71152  19.287   7.644   6.632
 5519POPC   C3A71153  19.095   7.404   6.965
 5519POPC   C4A71154  19.251   7.364   7.371
 5519POPC   C1B71155  18.768   7.660   6.307
 5519POPC   C2B71156  18.621   7.645   6.747
 5519POPC   C3B71157  18.668   7.635   7.189
 5519POPC   C4B71158  18.933   7.695   7.538
 5520POPC   NC371159  41.820  19.172   5.622
 5520POPC   PO471160  41.217  19.228   5.433
 5520POPC   GL171161  41.274  19.170   5.891
 5520POPC   GL271162  41.507  18.927   5.949
 5520POPC   C1A71163  41.363  19.133   6.370
 5520POPC   D2A71164  41.719  19.263   6.611
 5520POPC   C3A71165  41.514  19.215   6.995
 5520POPC   C4A71166  41.233  18.928   7.174
 5520POPC   C1B71167  41.744  18.756   6.302
 5520POPC   C2B71168  41.650  18.777   6.747
 5520POPC   C3B71169  41.784  18.794   7.178
 5520POPC   C4B71170  41.752  18.656   7.602
 5521POPC   NC371171  37.241  37.042   5.630
 5521POPC   PO471172  37.832  36.845   5.481
 5521POPC   GL171173  37.661  36.844   5.864
 5521POPC   GL271174  37.414  36.632   5.851
 5521POPC   C1A71175  37.466  36.988   6.269
 5521POPC   D2A71176  37.428  37.060   6.693
 5521POPC   C3A71177  37.709  36.948   6.972
 5521POPC   C4A71178  37.480  37.127   7.278
 5521POPC   C1B71179  37.301  36.517   6.253
 5521POPC   C2B71180  37.461  36.552   6.655
 5521POPC   C3B71181  37.296  36.675   7.047
 5521POPC   C4B71182  37.409  36.636   7.454
 5522POPC   NC371183  40.862   9.567   5.281
 5522POPC   PO471184  40.674  10.227   5.538
 5522POPC   GL171185  40.740   9.843   5.834
 5522POPC   GL271186  41.082   9.867   5.909
 5522POPC   C1A71187  40.706   9.595   6.278
 5522POPC   D2A71188  40.617   9.374   6.707
 5522POPC   C3A71189  40.395   9.585   7.061
 5522POPC   C4A71190  40.536   9.567   7.493
 5522POPC   C1B71191  40.957  10.028   6.326
 5522POPC   C2B71192  40.715   9.894   6.705
 5522POPC   C3B71193  40.853   9.778   7.107
 5522POPC   C4B71194  40.888  10.086   7.439
 5523POPC   NC371195   3.210  37.185   5.382
 5523POPC   PO471196   2.690  36.799   5.328
 5523POPC   GL171197   2.743  36.992   5.706
 5523POPC   GL271198   2.463  37.219   5.734
 5523POPC   C1A71199   2.933  36.852   6.077
 5523POPC   D2A71200   2.861  36.745   6.498
 5523POPC   C3A71201   3.070  36.940   6.825
 5523POPC   C4A71202   2.997  36.720   7.199
 5523POPC   C1B71203   2.440  37.044   6.147
 5523POPC   C2B71204   2.380  37.050   6.582
 5523POPC   C3B71205   2.537  36.862   6.921
 5523POPC   C4B71206   2.500  36.901   7.323
 5524POPC   NC371207   1.814  17.433   5.379
 5524POPC   PO471208   2.515  17.713   5.342
 5524POPC   GL171209   2.205  17.725   5.690
 5524POPC   GL271210   2.138  17.392   5.771
 5524POPC   C1A71211   2.001  17.721   6.121
 5524POPC   D2A71212   1.900  17.924   6.491
 5524POPC   C3A71213   1.910  17.726   6.888
 5524POPC   C4A71214   2.076  17.838   7.285
 5524POPC   C1B71215   2.115  17.210   6.182
 5524POPC   C2B71216   1.998  17.141   6.613
 5524POPC   C3B71217   2.137  17.274   7.037
 5524POPC   C4B71218   2.020  17.334   7.485
 5525POPC   NC371219   8.865  26.131   5.340
 5525POPC   PO471220   8.842  25.522   5.175
 5525POPC   GL171221   8.902  25.701   5.706
 5525POPC   GL271222   9.084  26.045   5.812
 5525POPC   C1A71223   8.737  25.944   6.147
 5525POPC   D2A71224   8.862  26.257   6.506
 5525POPC   C3A71225   8.807  26.194   6.990
 5525POPC   C4A71226   8.615  25.872   7.288
 5525POPC   C1B71227   9.223  25.939   6.244
 5525POPC   C2B71228   8.983  25.778   6.616
 5525POPC   C3B71229   9.046  25.739   7.067
 5525POPC   C4B71230   9.099  26.060   7.412
 5526POPC   NC371231  40.412  35.332   5.547
 5526POPC   PO471232  41.084  35.095   5.585
 5526POPC   GL171233  40.833  35.312   5.929
 5526POPC   GL271234  40.608  35.592   5.932
 5526POPC   C1A71235  40.916  35.318   6.419
 5526POPC   D2A71236  40.789  35.624   6.743
 5526POPC   C3A71237  40.709  35.497   7.128
 5526POPC   C4A71238  40.835  35.076   7.143
 5526POPC   C1B71239  40.454  35.507   6.366
 5526POPC   C2B71240  40.491  35.141   6.701
 5526POPC   C3B71241  40.332  35.095   7.148
 5526POPC   C4B71242  40.379  35.391   7.518
 5527POPC   NC371243  35.948  15.281   5.393
 5527POPC   PO471244  36.152  14.645   5.374
 5527POPC   GL171245  36.197  14.947   5.751
 5527POPC   GL271246  36.323  15.315   5.800
 5527POPC   C1A71247  36.231  14.953   6.219
 5527POPC   D2A71248  36.252  15.205   6.578
 5527POPC   C3A71249  36.007  15.112   6.924
 5527POPC   C4A71250  36.303  15.012   7.200
 5527POPC   C1B71251  36.033  15.432   6.164
 5527POPC   C2B71252  35.788  15.435   6.578
 5527POPC   C3B71253  35.765  15.556   7.050
 5527POPC   C4B71254  35.994  15.413   7.437
 5528POPC   NC371255  25.331  14.695   4.972
 5528POPC   PO471256  25.532  14.231   5.461
 5528POPC   GL171257  25.300  14.346   5.784
 5528POPC   GL271258  25.330  14.018   5.890
 5528POPC   C1A71259  25.292  14.655   6.137
 5528POPC   D2A71260  25.092  14.599   6.534
 5528POPC   C3A71261  25.256  14.655   6.957
 5528POPC   C4A71262  25.129  14.479   7.347
 5528POPC   C1B71263  25.429  14.174   6.299
 5528POPC   C2B71264  25.335  14.192   6.736
 5528POPC   C3B71265  25.522  14.181   7.148
 5528POPC   C4B71266  25.376  14.020   7.541
 5529POPC   NC371267  20.978  38.779   5.524
 5529POPC   PO471268  20.821  38.301   5.165
 5529POPC   GL171269  20.629  38.406   5.613
 5529POPC   GL271270  20.558  38.764   5.798
 5529POPC   C1A71271  20.776  38.356   6.063
 5529POPC   D2A71272  20.619  38.377   6.491
 5529POPC   C3A71273  20.819  38.338   6.887
 5529POPC   C4A71274  20.683  38.371   7.307
 5529POPC   C1B71275  20.746  38.837   6.249
 5529POPC   C2B71276  20.887  38.795   6.688
 5529POPC   C3B71277  20.820  38.821   7.157
 5529POPC   C4B71278  20.671  38.856   7.615
 5530POPC   NC371279  35.805  24.655   5.301
 5530POPC   PO471280  36.256  24.210   5.433
 5530POPC   GL171281  36.167  24.417   5.815
 5530POPC   GL271282  36.402  24.698   5.883
 5530POPC   C1A71283  35.946  24.297   6.217
 5530POPC   D2A71284  36.095  24.159   6.616
 5530POPC   C3A71285  35.981  24.319   7.000
 5530POPC   C4A71286  36.333  24.531   7.243
 5530POPC   C1B71287  36.020  24.801   6.154
 5530POPC   C2B71288  36.030  24.931   6.588
 5530POPC   C3B71289  35.953  24.829   7.031
 5530POPC   C4B71290  35.874  24.614   7.422
 5531POPC   NC371291  14.589  20.991   5.621
 5531POPC   PO471292  14.354  20.540   5.203
 5531POPC   GL171293  14.598  20.549   5.799
 5531POPC   GL271294  14.702  20.262   5.946
 5531POPC   C1A71295  14.428  20.780   6.253
 5531POPC   D2A71296  14.347  20.912   6.730
 5531POPC   C3A71297  14.257  20.728   7.157
 5531POPC   C4A71298  14.205  20.645   7.625
 5531POPC   C1B71299  14.347  20.255   6.222
 5531POPC   C2B71300  14.211  20.419   6.619
 5531POPC   C3B71301  14.280  20.238   7.012
 5531POPC   C4B71302  14.544  20.332   7.375
 5532POPC   NC371303   8.134  11.658   5.399
 5532POPC   PO471304   7.921  12.251   5.401
 5532POPC   GL171305   8.189  12.071   5.745
 5532POPC   GL271306   8.402  11.755   5.839
 5532POPC   C1A71307   8.362  12.224   6.112
 5532POPC   D2A71308   8.500  12.389   6.509
 5532POPC   C3A71309   8.336  12.095   6.802
 5532POPC   C4A71310   8.360  12.152   7.234
 5532POPC   C1B71311   8.036  11.767   6.177
 5532POPC   C2B71312   7.862  11.735   6.655
 5532POPC   C3B71313   8.109  11.703   7.077
 5532POPC   C4B71314   8.569  11.702   7.075
 5533POPC   NC371315  14.671  39.761   5.504
 5533POPC   PO471316  14.190  40.304   5.581
 5533POPC   GL171317  14.324  39.964   5.821
 5533POPC   GL271318  14.676  40.059   5.931
 5533POPC   C1A71319  14.174  39.941   6.222
 5533POPC   D2A71320  14.380  40.239   6.497
 5533POPC   C3A71321  14.152  40.375   6.857
 5533POPC   C4A71322  14.298  40.366   7.285
 5533POPC   C1B71323  14.626  39.693   6.218
 5533POPC   C2B71324  14.424  39.746   6.620
 5533POPC   C3B71325  14.503  39.992   6.992
 5533POPC   C4B71326  14.463  39.844   7.419
 5534POPC   NC371327  42.593  43.072   5.524
 5534POPC   PO471328  42.054  42.683   5.603
 5534POPC   GL171329  42.248  42.904   5.926
 5534POPC   GL271330  42.212  43.218   5.854
 5534POPC   C1A71331  42.614  43.039   6.175
 5534POPC   D2A71332  42.686  43.267   6.555
 5534POPC   C3A71333  42.501  43.082   6.923
 5534POPC   C4A71334  42.662  43.155   7.328
 5534POPC   C1B71335  41.984  43.353   6.205
 5534POPC   C2B71336  42.104  43.419   6.643
 5534POPC   C3B71337  41.925  43.579   7.058
 5534POPC   C4B71338  42.089  43.566   7.502
 5535POPC   NC371339   2.642  17.241   5.443
 5535POPC   PO471340   3.244  17.554   5.379
 5535POPC   GL171341   3.092  17.371   5.725
 5535POPC   GL271342   2.829  17.615   5.751
 5535POPC   C1A71343   3.054  17.480   6.174
 5535POPC   D2A71344   2.813  17.665   6.507
 5535POPC   C3A71345   2.850  17.495   6.888
 5535POPC   C4A71346   2.985  17.683   7.276
 5535POPC   C1B71347   2.516  17.533   6.082
 5535POPC   C2B71348   2.307  17.584   6.509
 5535POPC   C3B71349   2.417  17.745   6.921
 5535POPC   C4B71350   2.507  17.498   7.318
 5536POPC   NC371351  38.647  38.375   5.381
 5536POPC   PO471352  38.013  38.520   5.517
 5536POPC   GL171353  38.383  38.726   5.698
 5536POPC   GL271354  38.470  38.412   5.856
 5536POPC   C1A71355  38.560  38.838   6.119
 5536POPC   D2A71356  38.405  38.523   6.407
 5536POPC   C3A71357  38.320  38.662   6.803
 5536POPC   C4A71358  38.326  38.506   7.207
 5536POPC   C1B71359  38.579  38.027   6.031
 5536POPC   C2B71360  38.534  37.964   6.462
 5536POPC   C3B71361  38.537  38.174   6.859
 5536POPC   C4B71362  38.556  38.053   7.273
 5537POPC   NC371363   2.753  20.551   5.275
 5537POPC   PO471364   3.481  20.534   5.241
 5537POPC   GL171365   3.215  20.716   5.655
 5537POPC   GL271366   2.831  20.659   5.776
 5537POPC   C1A71367   3.167  20.725   6.146
 5537POPC   D2A71368   3.058  20.655   6.601
 5537POPC   C3A71369   2.893  20.665   7.051
 5537POPC   C4A71370   3.103  20.578   7.480
 5537POPC   C1B71371   2.634  20.549   6.192
 5537POPC   C2B71372   2.636  20.375   6.611
 5537POPC   C3B71373   2.415  20.440   6.959
 5537POPC   C4B71374   2.376  20.767   7.227
 5538POPC   NC371375  25.738  41.580   5.533
 5538POPC   PO471376  25.115  41.572   5.432
 5538POPC   GL171377  25.260  41.598   5.817
 5538POPC   GL271378  25.033  41.331   5.898
 5538POPC   C1A71379  25.194  41.907   6.155
 5538POPC   D2A71380  25.332  41.855   6.607
 5538POPC   C3A71381  25.465  41.463   6.798
 5538POPC   C4A71382  25.481  41.328   7.249
 5538POPC   C1B71383  25.124  41.443   6.297
 5538POPC   C2B71384  24.907  41.476   6.642
 5538POPC   C3B71385  25.006  41.305   7.008
 5538POPC   C4B71386  24.867  41.553   7.300
 5539POPC   NC371387  41.269   2.150   5.586
 5539POPC   PO471388  40.701   1.848   5.698
 5539POPC   GL171389  40.712   2.124   6.021
 5539POPC   GL271390  40.481   2.431   6.004
 5539POPC   C1A71391  41.062   2.058   6.320
 5539POPC   D2A71392  41.117   2.176   6.736
 5539POPC   C3A71393  41.118   1.849   7.016
 5539POPC   C4A71394  40.734   1.627   7.019
 5539POPC   C1B71395  40.265   2.166   6.301
 5539POPC   C2B71396  40.392   1.988   6.714
 5539POPC   C3B71397  40.680   2.212   6.985
 5539POPC   C4B71398  40.490   2.615   7.095
 5540POPC   NC371399  14.854   6.117   5.077
 5540POPC   PO471400  14.325   5.985   5.464
 5540POPC   GL171401  14.250   5.842   5.882
 5540POPC   GL271402  14.579   5.689   5.905
 5540POPC   C1A71403  14.241   5.783   6.299
 5540POPC   D2A71404  14.094   5.942   6.640
 5540POPC   C3A71405  14.406   5.951   6.943
 5540POPC   C4A71406  14.271   5.937   7.335
 5540POPC   C1B71407  14.610   6.103   6.117
 5540POPC   C2B71408  14.674   6.165   6.546
 5540POPC   C3B71409  14.862   6.301   6.924
 5540POPC   C4B71410  14.782   6.113   7.287
 5541POPC   NC371411  29.587   1.461   5.353
 5541POPC   PO471412  29.504   0.765   5.597
 5541POPC   GL171413  29.656   1.150   5.740
 5541POPC   GL271414  29.965   1.196   5.571
 5541POPC   C1A71415  29.607   1.427   6.083
 5541POPC   D2A71416  29.768   1.399   6.472
 5541POPC   C3A71417  29.572   1.557   6.820
 5541POPC   C4A71418  29.822   1.607   7.160
 5541POPC   C1B71419  30.094   1.292   6.011
 5541POPC   C2B71420  30.276   1.363   6.446
 5541POPC   C3B71421  30.130   1.312   6.875
 5541POPC   C4B71422  30.141   0.923   7.072
 5542POPC   NC371423  36.603  10.920   5.401
 5542POPC   PO471424  37.210  11.015   5.584
 5542POPC   GL171425  36.828  11.068   5.863
 5542POPC   GL271426  36.449  10.990   5.875
 5542POPC   C1A71427  36.845  11.133   6.311
 5542POPC   D2A71428  37.076  11.082   6.698
 5542POPC   C3A71429  37.207  11.432   6.962
 5542POPC   C4A71430  37.135  11.340   7.394
 5542POPC   C1B71431  36.366  11.336   6.155
 5542POPC   C2B71432  36.466  11.356   6.605
 5542POPC   C3B71433  36.705  11.310   7.001
 5542POPC   C4B71434  36.648  11.523   7.384
 5543POPC   NC371435  38.019   8.852   5.574
 5543POPC   PO471436  38.677   8.953   5.395
 5543POPC   GL171437  38.475   8.741   5.754
 5543POPC   GL271438  38.360   9.053   5.895
 5543POPC   C1A71439  38.325   8.654   6.187
 5543POPC   D2A71440  38.539   8.670   6.591
 5543POPC   C3A71441  38.626   8.858   6.972
 5543POPC   C4A71442  38.627   8.659   7.336
 5543POPC   C1B71443  38.248   9.162   6.318
 5543POPC   C2B71444  38.213   9.066   6.753
 5543POPC   C3B71445  38.170   8.996   7.202
 5543POPC   C4B71446  38.125   9.166   7.624
 5544POPC   NC371447  44.314   8.898   5.543
 5544POPC   PO471448  43.850   9.267   5.312
 5544POPC   GL171449  43.853   9.278   5.811
 5544POPC   GL271450  44.186   9.214   5.962
 5544POPC   C1A71451  43.821   8.985   6.235
 5544POPC   D2A71452  43.948   8.619   6.534
 5544POPC   C3A71453  43.904   8.732   6.985
 5544POPC   C4A71454  43.774   9.008   7.335
 5544POPC   C1B71455  44.040   9.451   6.355
 5544POPC   C2B71456  43.931   9.458   6.799
 5544POPC   C3B71457  44.141   9.322   7.160
 5544POPC   C4B71458  44.267   9.156   7.560
 5545POPC   NC371459  33.584  21.971   5.397
 5545POPC   PO471460  34.001  21.386   5.375
 5545POPC   GL171461  33.792  21.368   5.779
 5545POPC   GL271462  33.662  21.673   5.825
 5545POPC   C1A71463  33.725  21.288   6.224
 5545POPC   D2A71464  33.450  21.198   6.588
 5545POPC   C3A71465  33.719  21.229   6.920
 5545POPC   C4A71466  33.729  21.316   7.343
 5545POPC   C1B71467  33.998  21.766   6.125
 5545POPC   C2B71468  34.101  21.864   6.576
 5545POPC   C3B71469  33.994  21.678   7.001
 5545POPC   C4B71470  34.208  21.580   7.425
 5546POPC   NC371471  10.976  25.303   5.346
 5546POPC   PO471472  10.324  25.338   5.384
 5546POPC   GL171473  10.599  25.157   5.716
 5546POPC   GL271474  10.365  24.926   5.843
 5546POPC   C1A71475  10.730  25.079   6.178
 5546POPC   D2A71476  10.551  24.887   6.575
 5546POPC   C3A71477  10.703  25.117   6.935
 5546POPC   C4A71478  10.835  25.507   7.140
 5546POPC   C1B71479  10.280  25.293   6.124
 5546POPC   C2B71480  10.445  25.438   6.509
 5546POPC   C3B71481  10.330  25.446   6.934
 5546POPC   C4B71482  10.289  25.638   7.313
 5547POPC   NC371483  36.196  35.541   5.431
 5547POPC   PO471484  35.562  35.328   5.407
 5547POPC   GL171485  35.827  35.275   5.795
 5547POPC   GL271486  36.193  35.181   5.791
 5547POPC   C1A71487  35.796  35.304   6.263
 5547POPC   D2A71488  35.921  35.075   6.661
 5547POPC   C3A71489  36.083  35.288   7.038
 5547POPC   C4A71490  36.363  35.184   7.362
 5547POPC   C1B71491  36.274  35.432   6.172
 5547POPC   C2B71492  36.416  35.309   6.603
 5547POPC   C3B71493  36.542  35.530   6.979
 5547POPC   C4B71494  36.780  35.450   7.358
 5548POPC   NC371495  24.649   9.344   5.076
 5548POPC   PO471496  24.274   9.382   5.622
 5548POPC   GL171497  24.442   8.954   5.705
 5548POPC   GL271498  24.176   8.790   5.858
 5548POPC   C1A71499  24.764   8.886   6.062
 5548POPC   D2A71500  24.790   9.265   6.349
 5548POPC   C3A71501  24.771   9.232   6.806
 5548POPC   C4A71502  24.734   9.359   7.209
 5548POPC   C1B71503  24.308   9.093   6.214
 5548POPC   C2B71504  24.289   9.302   6.635
 5548POPC   C3B71505  24.261   9.204   7.089
 5548POPC   C4B71506  24.069   8.886   7.398
 5549POPC   NC371507   2.305  40.696   5.521
 5549POPC   PO471508   1.651  40.660   5.450
 5549POPC   GL171509   1.889  40.693   5.850
 5549POPC   GL271510   2.219  40.862   5.993
 5549POPC   C1A71511   1.818  40.669   6.301
 5549POPC   D2A71512   1.983  40.792   6.699
 5549POPC   C3A71513   1.745  40.782   7.083
 5549POPC   C4A71514   1.754  40.932   7.507
 5549POPC   C1B71515   2.256  40.446   6.140
 5549POPC   C2B71516   2.140  40.287   6.534
 5549POPC   C3B71517   2.223  40.415   6.957
 5549POPC   C4B71518   2.409  40.736   7.243
 5550POPC   NC371519  32.725   9.412   4.877
 5550POPC   PO471520  33.220   9.542   5.283
 5550POPC   GL171521  33.063   9.498   5.761
 5550POPC   GL271522  32.685   9.527   5.823
 5550POPC   C1A71523  33.023   9.599   6.234
 5550POPC   D2A71524  33.039   9.630   6.705
 5550POPC   C3A71525  33.183   9.612   7.133
 5550POPC   C4A71526  33.370   9.902   7.440
 5550POPC   C1B71527  32.491   9.617   6.214
 5550POPC   C2B71528  32.536   9.757   6.642
 5550POPC   C3B71529  32.613   9.609   7.048
 5550POPC   C4B71530  32.805   9.753   7.439
 5551POPC   NC371531  36.571  12.872   4.951
 5551POPC   PO471532  36.786  12.506   5.414
 5551POPC   GL171533  36.700  12.496   5.880
 5551POPC   GL271534  37.049  12.425   5.943
 5551POPC   C1A71535  36.758  12.593   6.373
 5551POPC   D2A71536  36.970  12.906   6.698
 5551POPC   C3A71537  36.732  13.028   7.068
 5551POPC   C4A71538  36.524  12.675   7.153
 5551POPC   C1B71539  37.245  12.449   6.338
 5551POPC   C2B71540  37.356  12.567   6.765
 5551POPC   C3B71541  37.239  12.707   7.175
 5551POPC   C4B71542  37.174  13.136   7.316
 5552POPC   NC371543  27.159  21.104   5.408
 5552POPC   PO471544  27.316  21.663   5.703
 5552POPC   GL171545  27.407  21.251   5.883
 5552POPC   GL271546  27.769  21.127   5.795
 5552POPC   C1A71547  27.325  21.244   6.340
 5552POPC   D2A71548  27.484  21.530   6.716
 5552POPC   C3A71549  27.482  21.341   7.139
 5552POPC   C4A71550  27.335  20.952   7.349
 5552POPC   C1B71551  27.824  21.354   6.198
 5552POPC   C2B71552  28.006  21.512   6.580
 5552POPC   C3B71553  27.993  21.370   6.989
 5552POPC   C4B71554  27.922  21.529   7.381
 5553POPC   NC371555   5.994  16.940   5.294
 5553POPC   PO471556   5.402  16.654   5.392
 5553POPC   GL171557   5.737  16.647   5.764
 5553POPC   GL271558   6.042  16.815   5.783
 5553POPC   C1A71559   5.752  16.528   6.233
 5553POPC   D2A71560   5.697  16.735   6.652
 5553POPC   C3A71561   5.742  16.500   7.076
 5553POPC   C4A71562   5.734  16.562   7.551
 5553POPC   C1B71563   6.221  16.685   6.160
 5553POPC   C2B71564   6.231  16.709   6.589
 5553POPC   C3B71565   6.081  16.848   6.984
 5553POPC   C4B71566   6.212  16.809   7.394
 5554POPC   NC371567   7.720  22.132   5.401
 5554POPC   PO471568   8.390  22.277   5.411
 5554POPC   GL171569   8.166  22.048   5.713
 5554POPC   GL271570   8.028  22.348   5.811
 5554POPC   C1A71571   8.101  21.957   6.163
 5554POPC   D2A71572   8.265  22.003   6.558
 5554POPC   C3A71573   7.988  22.165   6.859
 5554POPC   C4A71574   8.004  22.109   7.274
 5554POPC   C1B71575   8.428  22.339   6.088
 5554POPC   C2B71576   8.521  22.456   6.513
 5554POPC   C3B71577   8.498  22.307   6.935
 5554POPC   C4B71578   8.506  22.320   7.385
 5555POPC   NC371579  11.357  14.240   5.275
 5555POPC   PO471580  10.785  14.134   5.608
 5555POPC   GL171581  11.128  14.302   5.805
 5555POPC   GL271582  11.501  14.328   5.750
 5555POPC   C1A71583  11.285  14.123   6.184
 5555POPC   D2A71584  11.527  14.177   6.546
 5555POPC   C3A71585  11.289  14.134   6.920
 5555POPC   C4A71586  11.217  14.247   7.334
 5555POPC   C1B71587  11.531  14.558   6.148
 5555POPC   C2B71588  11.698  14.679   6.552
 5555POPC   C3B71589  11.626  14.521   6.965
 5555POPC   C4B71590  11.611  14.581   7.414
 5556POPC   NC371591  24.536  27.808   5.517
 5556POPC   PO471592  24.591  27.155   5.492
 5556POPC   GL171593  24.369  27.397   5.787
 5556POPC   GL271594  24.709  27.483   5.871
 5556POPC   C1A71595  24.178  27.695   6.120
 5556POPC   D2A71596  24.312  27.854   6.556
 5556POPC   C3A71597  24.181  27.742   6.978
 5556POPC   C4A71598  24.458  27.670   7.344
 5556POPC   C1B71599  24.667  27.595   6.263
 5556POPC   C2B71600  24.929  27.508   6.593
 5556POPC   C3B71601  24.832  27.580   6.999
 5556POPC   C4B71602  24.917  27.330   7.339
 5557POPC   NC371603  35.481  17.062   5.243
 5557POPC   PO471604  35.344  17.692   5.437
 5557POPC   GL171605  35.230  17.594   5.881
 5557POPC   GL271606  35.233  17.242   5.820
 5557POPC   C1A71607  35.302  17.594   6.357
 5557POPC   D2A71608  35.629  17.564   6.704
 5557POPC   C3A71609  35.614  17.708   7.148
 5557POPC   C4A71610  35.603  17.513   7.540
 5557POPC   C1B71611  35.498  17.159   6.173
 5557POPC   C2B71612  35.368  17.116   6.601
 5557POPC   C3B71613  35.570  17.127   7.013
 5557POPC   C4B71614  35.262  17.320   7.205
 5558POPC   NC371615  42.381  31.177   5.374
 5558POPC   PO471616  42.275  31.794   5.374
 5558POPC   GL171617  42.440  31.532   5.765
 5558POPC   GL271618  42.655  31.224   5.814
 5558POPC   C1A71619  42.256  31.329   6.172
 5558POPC   D2A71620  42.030  31.413   6.591
 5558POPC   C3A71621  42.023  31.201   7.001
 5558POPC   C4A71622  42.144  31.410   7.388
 5558POPC   C1B71623  42.765  31.256   6.266
 5558POPC   C2B71624  42.544  31.534   6.558
 5558POPC   C3B71625  42.410  31.618   6.955
 5558POPC   C4B71626  42.651  31.437   7.261
 5559POPC   NC371627  44.951  22.797   5.289
 5559POPC   PO471628  44.338  23.072   5.229
 5559POPC   GL171629  44.534  22.792   5.616
 5559POPC   GL271630  44.781  22.979   5.757
 5559POPC   C1A71631  44.554  22.770   6.151
 5559POPC   D2A71632  44.742  22.972   6.564
 5559POPC   C3A71633  44.652  22.859   7.015
 5559POPC   C4A71634  44.448  22.679   7.408
 5559POPC   C1B71635  44.382  23.193   5.927
 5559POPC   C2B71636  44.332  23.229   6.387
 5559POPC   C3B71637  44.361  23.242   6.835
 5559POPC   C4B71638  44.287  23.158   7.286
 5560POPC   NC371639  40.874  25.353   5.488
 5560POPC   PO471640  40.270  24.980   5.450
 5560POPC   GL171641  40.556  25.090   5.777
 5560POPC   GL271642  40.537  25.470   5.871
 5560POPC   C1A71643  40.710  25.027   6.207
 5560POPC   D2A71644  40.683  25.018   6.685
 5560POPC   C3A71645  40.679  25.437   6.897
 5560POPC   C4A71646  40.392  25.669   7.200
 5560POPC   C1B71647  40.932  25.502   6.123
 5560POPC   C2B71648  41.178  25.270   6.432
 5560POPC   C3B71649  41.163  25.181   6.865
 5560POPC   C4B71650  40.890  25.063   7.183
 5561POPC   NC371651   4.699  39.999   5.429
 5561POPC   PO471652   4.019  39.818   5.424
 5561POPC   GL171653   4.072  39.945   5.862
 5561POPC   GL271654   4.377  40.109   5.857
 5561POPC   C1A71655   4.116  39.915   6.327
 5561POPC   D2A71656   4.146  39.710   6.731
 5561POPC   C3A71657   3.978  39.986   7.064
 5561POPC   C4A71658   4.033  39.937   7.522
 5561POPC   C1B71659   4.370  40.357   6.254
 5561POPC   C2B71660   4.405  40.221   6.685
 5561POPC   C3B71661   4.477  39.953   7.073
 5561POPC   C4B71662   4.724  39.914   7.425
 5562POPC   NC371663   9.132  16.534   5.119
 5562POPC   PO471664   8.609  16.743   5.348
 5562POPC   GL171665   8.839  16.573   5.666
 5562POPC   GL271666   9.182  16.525   5.655
 5562POPC   C1A71667   8.889  16.829   6.034
 5562POPC   D2A71668   8.865  17.150   6.333
 5562POPC   C3A71669   8.856  17.008   6.776
 5562POPC   C4A71670   8.747  16.645   7.035
 5562POPC   C1B71671   9.132  16.398   6.102
 5562POPC   C2B71672   9.037  16.502   6.536
 5562POPC   C3B71673   9.055  16.252   6.898
 5562POPC   C4B71674   9.145  16.444   7.290
 5563POPC   NC371675  21.270  37.258   5.452
 5563POPC   PO471676  21.734  37.767   5.282
 5563POPC   GL171677  21.377  37.747   5.595
 5563POPC   GL271678  21.535  37.955   5.771
 5563POPC   C1A71679  21.252  37.690   6.087
 5563POPC   D2A71680  21.435  37.747   6.508
 5563POPC   C3A71681  21.301  37.521   6.883
 5563POPC   C4A71682  21.084  37.549   7.290
 5563POPC   C1B71683  21.779  37.963   6.132
 5563POPC   C2B71684  21.776  38.128   6.535
 5563POPC   C3B71685  21.768  37.892   6.909
 5563POPC   C4B71686  21.525  37.791   7.266
 5564POPC   NC371687  32.934  29.020   5.008
 5564POPC   PO471688  32.965  29.624   5.334
 5564POPC   GL171689  33.038  29.278   5.666
 5564POPC   GL271690  33.188  28.923   5.745
 5564POPC   C1A71691  33.060  29.262   6.150
 5564POPC   D2A71692  32.897  29.470   6.537
 5564POPC   C3A71693  32.799  29.280   6.961
 5564POPC   C4A71694  32.749  28.798   7.081
 5564POPC   C1B71695  33.231  28.744   6.188
 5564POPC   C2B71696  33.066  28.745   6.623
 5564POPC   C3B71697  33.206  28.986   6.973
 5564POPC   C4B71698  33.551  28.963   7.256
 5565POPC   NC371699   9.685  14.495   5.470
 5565POPC   PO471700  10.134  14.886   5.501
 5565POPC   GL171701  10.028  14.582   5.873
 5565POPC   GL271702   9.813  14.232   5.862
 5565POPC   C1A71703   9.966  14.757   6.345
 5565POPC   D2A71704   9.838  14.533   6.731
 5565POPC   C3A71705   9.734  14.709   7.131
 5565POPC   C4A71706  10.058  14.628   7.379
 5565POPC   C1B71707   9.617  14.425   6.208
 5565POPC   C2B71708   9.394  14.333   6.592
 5565POPC   C3B71709   9.433  14.313   7.007
 5565POPC   C4B71710   9.744  14.224   7.307
 5566POPC   NC371711  17.505  35.008   5.405
 5566POPC   PO471712  17.496  35.590   5.419
 5566POPC   GL171713  17.443  35.433   5.821
 5566POPC   GL271714  17.683  35.148   5.842
 5566POPC   C1A71715  17.314  35.174   6.173
 5566POPC   D2A71716  17.440  35.049   6.595
 5566POPC   C3A71717  17.394  35.393   6.884
 5566POPC   C4A71718  17.415  35.609   7.277
 5566POPC   C1B71719  17.782  34.963   6.221
 5566POPC   C2B71720  17.964  34.887   6.607
 5566POPC   C3B71721  18.057  35.051   7.001
 5566POPC   C4B71722  17.701  35.194   7.253
 5567POPC   NC371723  31.005  43.254   5.254
 5567POPC   PO471724  30.643  42.686   5.514
 5567POPC   GL171725  30.578  43.086   5.775
 5567POPC   GL271726  30.857  43.350   5.751
 5567POPC   C1A71727  30.529  43.219   6.206
 5567POPC   D2A71728  30.788  43.132   6.575
 5567POPC   C3A71729  30.610  43.227   6.971
 5567POPC   C4A71730  30.547  42.988   7.341
 5567POPC   C1B71731  31.011  43.394   6.183
 5567POPC   C2B71732  31.172  43.513   6.592
 5567POPC   C3B71733  31.122  43.250   6.958
 5567POPC   C4B71734  30.959  43.270   7.366
 5568POPC   NC371735  10.597   6.057   5.314
 5568POPC   PO471736  10.848   5.445   5.333
 5568POPC   GL171737  10.627   5.696   5.735
 5568POPC   GL271738  10.376   6.007   5.823
 5568POPC   C1A71739  10.544   5.695   6.207
 5568POPC   D2A71740  10.566   5.525   6.638
 5568POPC   C3A71741  10.522   5.915   6.870
 5568POPC   C4A71742  10.800   6.057   7.173
 5568POPC   C1B71743  10.050   5.816   6.136
 5568POPC   C2B71744  10.052   5.592   6.537
 5568POPC   C3B71745  10.035   5.725   6.950
 5568POPC   C4B71746  10.079   6.132   7.142
 5569POPC   NC371747  43.822   2.242   5.301
 5569POPC   PO471748  43.257   1.965   5.311
 5569POPC   GL171749  43.477   2.187   5.682
 5569POPC   GL271750  43.823   2.123   5.809
 5569POPC   C1A71751  43.472   2.345   6.124
 5569POPC   D2A71752  43.550   2.175   6.555
 5569POPC   C3A71753  43.899   2.238   6.870
 5569POPC   C4A71754  43.837   2.121   7.337
 5569POPC   C1B71755  43.974   2.000   6.228
 5569POPC   C2B71756  44.200   1.661   6.465
 5569POPC   C3B71757  44.309   1.604   6.888
 5569POPC   C4B71758  43.992   1.644   7.219
 5570POPC   NC371759   5.247  17.093   5.407
 5570POPC   PO471760   4.705  17.439   5.444
 5570POPC   GL171761   4.952  17.504   5.841
 5570POPC   GL271762   5.136  17.207   5.888
 5570POPC   C1A71763   5.185  17.570   6.276
 5570POPC   D2A71764   5.366  17.766   6.690
 5570POPC   C3A71765   5.058  17.875   7.036
 5570POPC   C4A71766   5.005  17.815   7.481
 5570POPC   C1B71767   5.557  17.266   6.058
 5570POPC   C2B71768   5.524  17.221   6.500
 5570POPC   C3B71769   5.275  17.256   6.882
 5570POPC   C4B71770   5.164  17.356   7.305
 5571POPC   NC371771  27.092  35.911   5.476
 5571POPC   PO471772  26.727  36.475   5.336
 5571POPC   GL171773  26.742  36.157   5.752
 5571POPC   GL271774  26.446  35.922   5.819
 5571POPC   C1A71775  27.017  36.072   6.127
 5571POPC   D2A71776  27.213  36.047   6.528
 5571POPC   C3A71777  27.077  36.123   6.920
 5571POPC   C4A71778  27.021  36.173   7.338
 5571POPC   C1B71779  26.496  36.083   6.199
 5571POPC   C2B71780  26.673  36.117   6.578
 5571POPC   C3B71781  26.557  35.987   6.964
 5571POPC   C4B71782  26.517  36.181   7.338
 5572POPC   NC371783  14.037  26.054   5.253
 5572POPC   PO471784  13.436  26.006   5.592
 5572POPC   GL171785  13.704  25.888   5.880
 5572POPC   GL271786  13.810  25.578   5.794
 5572POPC   C1A71787  13.875  25.976   6.280
 5572POPC   D2A71788  13.872  26.229   6.659
 5572POPC   C3A71789  13.563  26.155   7.001
 5572POPC   C4A71790  13.203  26.365   7.145
 5572POPC   C1B71791  13.610  25.535   6.251
 5572POPC   C2B71792  13.617  25.715   6.701
 5572POPC   C3B71793  13.609  25.691   7.180
 5572POPC   C4B71794  13.673  25.669   7.648
 5573POPC   NC371795   6.761  22.362   5.564
 5573POPC   PO471796   6.683  21.680   5.382
 5573POPC   GL171797   6.568  21.905   5.772
 5573POPC   GL271798   6.358  21.712   5.979
 5573POPC   C1A71799   6.756  21.988   6.201
 5573POPC   D2A71800   6.735  21.931   6.679
 5573POPC   C3A71801   6.958  22.251   6.975
 5573POPC   C4A71802   6.744  22.609   7.189
 5573POPC   C1B71803   6.262  22.065   6.253
 5573POPC   C2B71804   6.361  22.309   6.614
 5573POPC   C3B71805   6.449  22.198   7.046
 5573POPC   C4B71806   6.707  21.872   7.208
 5574POPC   NC371807   4.137  42.609   5.341
 5574POPC   PO471808   4.534  42.137   5.412
 5574POPC   GL171809   4.404  42.254   5.812
 5574POPC   GL271810   4.183  42.526   5.856
 5574POPC   C1A71811   4.536  42.398   6.214
 5574POPC   D2A71812   4.426  42.516   6.621
 5574POPC   C3A71813   4.625  42.306   6.945
 5574POPC   C4A71814   4.318  42.358   7.202
 5574POPC   C1B71815   4.022  42.446   6.276
 5574POPC   C2B71816   3.901  42.423   6.732
 5574POPC   C3B71817   3.955  42.696   7.103
 5574POPC   C4B71818   4.156  42.713   7.544
 5575POPC   NC371819   0.822  26.793   5.437
 5575POPC   PO471820   1.422  26.807   5.537
 5575POPC   GL171821   1.141  26.630   5.849
 5575POPC   GL271822   0.997  26.915   5.901
 5575POPC   C1A71823   1.137  26.610   6.336
 5575POPC   D2A71824   1.166  26.837   6.726
 5575POPC   C3A71825   1.173  26.703   7.161
 5575POPC   C4A71826   1.362  26.407   7.466
 5575POPC   C1B71827   0.927  27.104   6.277
 5575POPC   C2B71828   0.911  27.264   6.658
 5575POPC   C3B71829   1.023  27.199   7.068
 5575POPC   C4B71830   1.061  27.077   7.489
 5576POPC   NC371831  27.694  18.458   5.478
 5576POPC   PO471832  27.820  18.053   5.064
 5576POPC   GL171833  27.615  18.010   5.673
 5576POPC   GL271834  27.307  18.098   5.805
 5576POPC   C1A71835  27.696  18.288   6.102
 5576POPC   D2A71836  27.718  18.156   6.523
 5576POPC   C3A71837  27.839  18.314   6.924
 5576POPC   C4A71838  27.941  18.041   7.303
 5576POPC   C1B71839  27.188  18.263   6.227
 5576POPC   C2B71840  27.254  18.361   6.660
 5576POPC   C3B71841  27.109  18.292   7.042
 5576POPC   C4B71842  27.452  18.143   7.223
 5577POPC   NC371843  19.930  39.338   5.406
 5577POPC   PO471844  19.474  38.879   5.454
 5577POPC   GL171845  19.764  39.035   5.782
 5577POPC   GL271846  19.752  39.391   5.880
 5577POPC   C1A71847  19.991  39.019   6.180
 5577POPC   D2A71848  20.020  39.215   6.597
 5577POPC   C3A71849  20.004  38.987   6.988
 5577POPC   C4A71850  19.677  38.925   7.295
 5577POPC   C1B71851  19.698  39.577   6.287
 5577POPC   C2B71852  19.534  39.687   6.693
 5577POPC   C3B71853  19.756  39.478   7.004
 5577POPC   C4B71854  20.212  39.487   6.975
 5578POPC   NC371855  39.496  40.855   5.409
 5578POPC   PO471856  38.830  40.688   5.451
 5578POPC   GL171857  39.035  40.930   5.735
 5578POPC   GL271858  39.283  40.744   5.849
 5578POPC   C1A71859  39.078  41.076   6.158
 5578POPC   D2A71860  39.214  41.225   6.532
 5578POPC   C3A71861  39.256  40.971   6.882
 5578POPC   C4A71862  39.038  41.088   7.267
 5578POPC   C1B71863  39.369  40.482   6.178
 5578POPC   C2B71864  39.270  40.252   6.538
 5578POPC   C3B71865  39.369  40.424   6.918
 5578POPC   C4B71866  39.212  40.614   7.267
 5579POPC   NC371867  39.078   9.158   5.484
 5579POPC   PO471868  39.328   8.520   5.484
 5579POPC   GL171869  39.121   8.737   5.802
 5579POPC   GL271870  38.874   8.999   5.895
 5579POPC   C1A71871  39.284   8.919   6.177
 5579POPC   D2A71872  39.274   9.158   6.545
 5579POPC   C3A71873  39.468   8.967   6.900
 5579POPC   C4A71874  39.658   9.075   7.293
 5579POPC   C1B71875  38.743   9.036   6.292
 5579POPC   C2B71876  38.777   9.231   6.663
 5579POPC   C3B71877  39.020   9.179   7.042
 5579POPC   C4B71878  39.134   8.765   7.247
 5580POPC   NC371879  37.426  19.671   5.434
 5580POPC   PO471880  37.910  19.997   5.120
 5580POPC   GL171881  37.864  19.854   5.629
 5580POPC   GL271882  37.952  20.095   5.900
 5580POPC   C1A71883  37.689  19.666   6.060
 5580POPC   D2A71884  37.487  19.703   6.488
 5580POPC   C3A71885  37.676  19.653   6.900
 5580POPC   C4A71886  37.764  19.475   7.303
 5580POPC   C1B71887  37.626  20.167   6.224
 5580POPC   C2B71888  37.466  20.196   6.664
 5580POPC   C3B71889  37.569  20.112   7.075
 5580POPC   C4B71890  37.987  19.936   7.227
 5581POPC   NC371891   7.695  35.430   5.381
 5581POPC   PO471892   7.095  35.575   5.634
 5581POPC   GL171893   7.360  35.324   5.779
 5581POPC   GL271894   7.617  35.535   5.883
 5581POPC   C1A71895   7.446  35.133   6.147
 5581POPC   D2A71896   7.232  35.278   6.514
 5581POPC   C3A71897   7.485  35.181   6.832
 5581POPC   C4A71898   7.545  35.154   7.245
 5581POPC   C1B71899   7.601  35.591   6.337
 5581POPC   C2B71900   7.859  35.511   6.696
 5581POPC   C3B71901   7.734  35.612   7.116
 5581POPC   C4B71902   7.765  35.867   7.504
 5582POPC   NC371903  38.344  37.491   5.231
 5582POPC   PO471904  38.846  37.921   5.402
 5582POPC   GL171905  38.646  37.647   5.684
 5582POPC   GL271906  38.310  37.798   5.648
 5582POPC   C1A71907  38.713  37.545   6.138
 5582POPC   D2A71908  38.532  37.458   6.577
 5582POPC   C3A71909  38.732  37.650   6.922
 5582POPC   C4A71910  38.818  37.633   7.351
 5582POPC   C1B71911  38.210  37.629   6.042
 5582POPC   C2B71912  38.056  37.679   6.462
 5582POPC   C3B71913  38.228  37.780   6.850
 5582POPC   C4B71914  38.326  37.608   7.223
 5583POPC   NC371915   9.065  27.712   5.275
 5583POPC   PO471916   8.570  27.307   5.429
 5583POPC   GL171917   8.855  27.537   5.726
 5583POPC   GL271918   9.217  27.405   5.734
 5583POPC   C1A71919   9.018  27.674   6.145
 5583POPC   D2A71920   9.001  27.497   6.561
 5583POPC   C3A71921   8.798  27.623   6.967
 5583POPC   C4A71922   8.951  27.568   7.404
 5583POPC   C1B71923   9.510  27.340   6.118
 5583POPC   C2B71924   9.507  27.489   6.557
 5583POPC   C3B71925   9.321  27.466   6.961
 5583POPC   C4B71926   9.385  27.264   7.357
 5584POPC   NC371927  27.562  36.603   5.555
 5584POPC   PO471928  27.906  37.220   5.352
 5584POPC   GL171929  27.695  37.080   5.679
 5584POPC   GL271930  27.960  36.848   5.793
 5584POPC   C1A71931  27.522  37.016   6.079
 5584POPC   D2A71932  27.716  36.923   6.469
 5584POPC   C3A71933  27.553  37.089   6.849
 5584POPC   C4A71934  27.746  37.087   7.252
 5584POPC   C1B71935  27.877  36.542   6.161
 5584POPC   C2B71936  28.062  36.563   6.604
 5584POPC   C3B71937  27.816  36.656   6.984
 5584POPC   C4B71938  27.929  36.636   7.432
 5585POPC   NC371939  25.000  42.018   5.368
 5585POPC   PO471940  24.847  42.658   5.655
 5585POPC   GL171941  25.140  42.334   5.752
 5585POPC   GL271942  25.449  42.087   5.755
 5585POPC   C1A71943  25.323  42.448   6.109
 5585POPC   D2A71944  25.273  42.349   6.507
 5585POPC   C3A71945  25.397  42.595   6.848
 5585POPC   C4A71946  25.134  42.497   7.177
 5585POPC   C1B71947  25.658  42.070   6.222
 5585POPC   C2B71948  25.734  42.222   6.678
 5585POPC   C3B71949  25.475  42.131   7.061
 5585POPC   C4B71950  25.051  41.984   7.088
 5586POPC   NC371951  43.103   1.583   5.520
 5586POPC   PO471952  43.305   0.960   5.333
 5586POPC   GL171953  43.066   1.023   5.748
 5586POPC   GL271954  43.039   1.344   5.944
 5586POPC   C1A71955  43.047   0.917   6.219
 5586POPC   D2A71956  43.244   1.098   6.587
 5586POPC   C3A71957  43.161   1.055   7.024
 5586POPC   C4A71958  43.365   1.421   7.192
 5586POPC   C1B71959  42.920   1.414   6.361
 5586POPC   C2B71960  42.767   1.135   6.716
 5586POPC   C3B71961  42.881   1.476   7.004
 5586POPC   C4B71962  42.706   1.707   7.330
 5587POPC   NC371963  35.884  21.401   5.132
 5587POPC   PO471964  36.348  21.038   5.510
 5587POPC   GL171965  36.184  21.390   5.769
 5587POPC   GL271966  36.412  21.700   5.762
 5587POPC   C1A71967  36.020  21.293   6.212
 5587POPC   D2A71968  36.233  21.349   6.615
 5587POPC   C3A71969  36.012  21.229   6.960
 5587POPC   C4A71970  35.686  21.322   7.226
 5587POPC   C1B71971  36.504  21.500   6.165
 5587POPC   C2B71972  36.694  21.580   6.546
 5587POPC   C3B71973  36.536  21.584   6.977
 5587POPC   C4B71974  36.260  21.479   7.343
 5588POPC   NC371975  34.349  27.026   5.595
 5588POPC   PO471976  34.678  26.330   5.498
 5588POPC   GL171977  34.616  26.481   5.886
 5588POPC   GL271978  34.676  26.828   5.927
 5588POPC   C1A71979  34.511  26.499   6.326
 5588POPC   D2A71980  34.725  26.547   6.718
 5588POPC   C3A71981  34.480  26.670   7.092
 5588POPC   C4A71982  34.249  26.684   7.484
 5588POPC   C1B71983  34.836  26.943   6.337
 5588POPC   C2B71984  34.916  27.020   6.779
 5588POPC   C3B71985  34.876  27.000   7.215
 5588POPC   C4B71986  34.506  27.140   7.462
 5589POPC   NC371987   2.215  15.619   5.525
 5589POPC   PO471988   1.998  16.309   5.414
 5589POPC   GL171989   2.009  16.022   5.763
 5589POPC   GL271990   1.696  15.879   5.864
 5589POPC   C1A71991   2.095  15.793   6.161
 5589POPC   D2A71992   1.833  15.804   6.565
 5589POPC   C3A71993   2.029  15.750   6.989
 5589POPC   C4A71994   2.110  15.794   7.460
 5589POPC   C1B71995   1.722  16.205   6.212
 5589POPC   C2B71996   1.604  16.242   6.670
 5589POPC   C3B71997   1.638  16.106   7.105
 5589POPC   C4B71998   1.573  16.358   7.462
 5590POPC   NC371999  40.787  38.044   5.403
 5590POPC   PO472000  40.435  37.395   5.397
 5590POPC   GL172001  40.611  37.567   5.768
 5590POPC   GL272002  40.956  37.574   5.669
 5590POPC   C1A72003  40.573  37.790   6.185
 5590POPC   D2A72004  40.574  38.015   6.587
 5590POPC   C3A72005  40.594  37.714   6.910
 5590POPC   C4A72006  40.811  37.746   7.289
 5590POPC   C1B72007  41.045  37.581   6.115
 5590POPC   C2B72008  41.029  37.741   6.546
 5590POPC   C3B72009  41.064  37.491   6.911
 5590POPC   C4B72010  41.100  37.278   7.283
 5591POPC   NC372011  40.646  41.860   5.449
 5591POPC   PO472012  40.782  42.559   5.288
 5591POPC   GL172013  40.553  42.502   5.674
 5591POPC   GL272014  40.388  42.812   5.760
 5591POPC   C1A72015  40.609  42.293   6.088
 5591POPC   D2A72016  40.918  42.303   6.400
 5591POPC   C3A72017  40.971  42.111   6.805
 5591POPC   C4A72018  41.166  42.334   7.149
 5591POPC   C1B72019  40.371  42.731   6.218
 5591POPC   C2B72020  40.483  42.548   6.641
 5591POPC   C3B72021  40.516  42.506   7.106
 5591POPC   C4B72022  40.486  42.813   7.498
 5592POPC   NC372023  38.227  30.972   5.438
 5592POPC   PO472024  38.574  30.415   5.400
 5592POPC   GL172025  38.509  30.646   5.758
 5592POPC   GL272026  38.188  30.601   5.803
 5592POPC   C1A72027  38.529  30.791   6.172
 5592POPC   D2A72028  38.475  30.623   6.562
 5592POPC   C3A72029  38.644  30.848   6.923
 5592POPC   C4A72030  38.679  30.631   7.328
 5592POPC   C1B72031  37.965  30.829   6.116
 5592POPC   C2B72032  37.905  30.770   6.542
 5592POPC   C3B72033  38.126  30.713   6.928
 5592POPC   C4B72034  37.886  30.801   7.256
 5593POPC   NC372035  26.387  20.490   5.578
 5593POPC   PO472036  25.839  20.360   5.220
 5593POPC   GL172037  25.880  20.432   5.679
 5593POPC   GL272038  26.017  20.782   5.808
 5593POPC   C1A72039  25.894  20.410   6.146
 5593POPC   D2A72040  25.871  20.729   6.482
 5593POPC   C3A72041  25.995  20.593   6.887
 5593POPC   C4A72042  25.824  20.508   7.266
 5593POPC   C1B72043  26.338  20.735   6.171
 5593POPC   C2B72044  26.382  20.810   6.623
 5593POPC   C3B72045  26.477  20.599   7.043
 5593POPC   C4B72046  26.318  20.713   7.454
 5594POPC   NC372047  11.487  20.108   5.495
 5594POPC   PO472048  11.092  19.599   5.566
 5594POPC   GL172049  11.274  19.812   5.858
 5594POPC   GL272050  11.062  20.103   5.798
 5594POPC   C1A72051  11.545  19.886   6.173
 5594POPC   D2A72052  11.715  19.705   6.538
 5594POPC   C3A72053  11.519  19.870   6.879
 5594POPC   C4A72054  11.599  19.721   7.275
 5594POPC   C1B72055  10.965  19.986   6.230
 5594POPC   C2B72056  11.017  20.137   6.656
 5594POPC   C3B72057  10.935  20.349   7.040
 5594POPC   C4B72058  10.928  20.180   7.461
 5595POPC   NC372059  25.610  14.688   5.539
 5595POPC   PO472060  25.398  15.204   5.274
 5595POPC   GL172061  25.390  15.121   5.729
 5595POPC   GL272062  25.339  15.450   5.783
 5595POPC   C1A72063  25.477  15.154   6.198
 5595POPC   D2A72064  25.371  15.017   6.608
 5595POPC   C3A72065  25.518  15.143   7.007
 5595POPC   C4A72066  25.394  14.928   7.374
 5595POPC   C1B72067  25.039  15.378   6.126
 5595POPC   C2B72068  25.153  15.478   6.544
 5595POPC   C3B72069  25.040  15.307   6.934
 5595POPC   C4B72070  25.184  15.362   7.340
 5596POPC   NC372071  21.867  43.018   5.242
 5596POPC   PO472072  21.973  43.702   5.213
 5596POPC   GL172073  21.969  43.500   5.660
 5596POPC   GL272074  22.173  43.171   5.658
 5596POPC   C1A72075  21.992  43.391   6.144
 5596POPC   D2A72076  21.950  43.071   6.510
 5596POPC   C3A72077  21.993  43.283   6.919
 5596POPC   C4A72078  22.006  43.294   7.366
 5596POPC   C1B72079  22.121  42.898   6.029
 5596POPC   C2B72080  22.358  42.778   6.404
 5596POPC   C3B72081  22.391  42.845   6.842
 5596POPC   C4B72082  22.102  42.823   7.158
 5597POPC   NC372083  32.919   8.469   5.411
 5597POPC   PO472084  33.386   8.010   5.408
 5597POPC   GL172085  33.209   8.177   5.787
 5597POPC   GL272086  32.866   8.352   5.958
 5597POPC   C1A72087  33.303   8.271   6.170
 5597POPC   D2A72088  32.998   8.279   6.503
 5597POPC   C3A72089  33.153   8.282   6.926
 5597POPC   C4A72090  32.870   8.218   7.242
 5597POPC   C1B72091  32.740   8.652   6.260
 5597POPC   C2B72092  32.922   8.757   6.673
 5597POPC   C3B72093  32.908   8.734   7.132
 5597POPC   C4B72094  32.614   8.740   7.455
 5598POPC   NC372095  31.671  37.037   5.205
 5598POPC   PO472096  31.627  36.415   5.513
 5598POPC   GL172097  31.668  36.721   5.874
 5598POPC   GL272098  31.338  36.917   5.856
 5598POPC   C1A72099  31.609  36.971   6.304
 5598POPC   D2A72100  31.368  36.965   6.718
 5598POPC   C3A72101  31.655  37.080   7.066
 5598POPC   C4A72102  31.625  37.230   7.524
 5598POPC   C1B72103  31.249  36.622   6.213
 5598POPC   C2B72104  31.544  36.511   6.552
 5598POPC   C3B72105  31.653  36.569   7.009
 5598POPC   C4B72106  31.535  36.558   7.464
 5599POPC   NC372107  30.892  35.454   5.353
 5599POPC   PO472108  30.407  35.069   5.477
 5599POPC   GL172109  30.562  35.285   5.838
 5599POPC   GL272110  30.885  35.161   5.785
 5599POPC   C1A72111  30.423  35.459   6.251
 5599POPC   D2A72112  30.563  35.605   6.681
 5599POPC   C3A72113  30.421  35.406   7.078
 5599POPC   C4A72114  30.504  35.307   7.530
 5599POPC   C1B72115  30.897  35.092   6.197
 5599POPC   C2B72116  31.044  35.296   6.517
 5599POPC   C3B72117  31.003  35.321   6.929
 5599POPC   C4B72118  30.774  35.037   7.180
 5600POPC   NC372119  32.870  41.761   5.251
 5600POPC   PO472120  33.421  41.806   5.524
 5600POPC   GL172121  33.036  41.699   5.738
 5600POPC   GL272122  32.864  41.390   5.651
 5600POPC   C1A72123  32.827  41.714   6.132
 5600POPC   D2A72124  32.815  41.787   6.573
 5600POPC   C3A72125  33.186  41.654   6.784
 5600POPC   C4A72126  33.252  41.563   7.182
 5600POPC   C1B72127  32.925  41.190   6.051
 5600POPC   C2B72128  33.006  41.298   6.451
 5600POPC   C3B72129  32.962  41.217   6.886
 5600POPC   C4B72130  32.743  41.387   7.240
 5601POPC   NC372131  35.455  11.751   5.372
 5601POPC   PO472132  35.172  12.384   5.244
 5601POPC   GL172133  35.366  12.167   5.629
 5601POPC   GL272134  35.117  11.898   5.727
 5601POPC   C1A72135  35.508  11.958   6.034
 5601POPC   D2A72136  35.484  12.115   6.465
 5601POPC   C3A72137  35.457  12.020   6.915
 5601POPC   C4A72138  35.374  12.276   7.306
 5601POPC   C1B72139  35.053  11.785   6.188
 5601POPC   C2B72140  35.088  11.765   6.649
 5601POPC   C3B72141  34.961  11.857   7.089
 5601POPC   C4B72142  34.877  11.828   7.535
 5602W        W72143   2.372  21.129  10.740
 5603W        W72144  11.642  29.095  14.371
 5604W        W72145  26.275  20.519  12.617
 5605W        W72146   3.463   8.245   3.766
 5606W        W72147  33.630  37.217   4.713
 5607W        W72148   6.749  29.425   0.015
 5608W        W72149  17.461  35.500  11.779
 5609W        W72150  13.289  20.728   0.290
 5610W        W72151  29.133  22.994  11.717
 5611W        W72152  38.872  26.597  12.436
 5612W        W72153   7.747   4.482   4.890
 5613W        W72154  40.739  36.020  13.843
 5614W        W72155  34.599  11.422  11.466
 5615W        W72156  26.247  13.239  13.498
 5616W        W72157  29.405  35.234   0.129
 5617W        W72158  20.427  20.686   4.143
 5618W        W72159  26.861  41.979   2.250
 5619W        W72160  16.629  44.316  11.822
 5620W        W72161  14.420  28.986   0.470
 5621W        W72162  40.578   2.665   4.097
 5622W        W72163  23.356  17.923   4.167
 5623W        W72164  14.788  14.669  11.460
 5624W        W72165  33.535  14.070   0.855
 5625W        W72166  11.352  10.243  14.260
 5626W        W72167   2.899  11.717   4.027
 5627W        W72168   4.237  41.723   1.017
 5628W        W72169  40.793  19.690   0.562
 5629W        W72170  32.208  13.383  13.526
 5630W        W72171   1.275  10.357   4.808
 5631W        W72172  20.980  34.577  12.523
 5632W        W72173   8.189   3.364  10.738
 5633W        W72174  20.012  28.243  14.492
 5634W        W72175  38.585  17.699   3.758
 5635W        W72176  25.472  40.266   0.443
 5636W        W72177  42.802  41.874  11.985
 5637W        W72178  26.163   3.015   2.803
 5638W        W72179  30.792  37.132  14.218
 5639W        W72180  14.537  14.135  14.649
 5640W        W72181   9.280  39.438  11.673
 5641W        W72182  30.006  35.373   0.675
 5642W        W72183  34.398  13.603   0.303
 5643W        W72184   8.424   6.430   3.757
 5644W        W72185  40.021  16.789  14.579
 5645W        W72186  32.635   0.431  12.599
 5646W        W72187  32.350  18.713   3.638
 5647W        W72188   8.948  14.410  12.005
 5648W        W72189  10.098  38.065   1.790
 5649W        W72190  31.955  26.359   5.001
 5650W        W72191  15.144   5.244   1.657
 5651W        W72192  20.227  29.516   0.685
 5652W        W72193   6.569  25.417  12.045
 5653W        W72194  28.683   4.749  14.676
 5654W        W72195  34.082  21.102   3.932
 5655W        W72196  34.676  32.660  14.348
 5656W        W72197   0.027  15.600  11.200
 5657W        W72198  19.609  11.295  10.612
 5658W        W72199  25.474  40.871  14.587
 5659W        W72200  31.584   1.223  13.112
 5660W        W72201  14.716  15.330  11.058
 5661W        W72202  21.096  42.308  12.033
 5662W        W72203  11.336  19.177   2.323
 5663W        W72204  21.494   9.350   3.660
 5664W        W72205   7.332  31.449  13.585
 5665W        W72206  10.062   4.657   2.666
 5666W        W72207  10.442  30.598   4.924
 5667W        W72208  24.199  38.337   1.768
 5668W        W72209  18.739  41.961  13.062
 5669W        W72210  34.983  13.846  12.118
 5670W        W72211  37.534  30.616  11.530
 5671W        W72212  24.222  31.218   1.528
 5672W        W72213  11.130  32.466  13.946
 5673W        W72214   6.913  40.496  14.421
 5674W        W72215   0.436   8.639  11.608
 5675W        W72216  27.115  42.341  10.735
 5676W        W72217  28.963  33.567  14.635
 5677W        W72218   1.742  26.740   4.139
 5678W        W72219  19.375  29.516  13.015
 5679W        W72220  16.806  32.274  12.819
 5680W        W72221   3.260  15.256  11.321
 5681W        W72222   6.553  37.670  10.994
 5682W        W72223  22.249  42.708  12.556
 5683W        W72224  18.406   3.048  13.419
 5684W        W72225  14.166  29.512   4.674
 5685W        W72226   9.795   6.683   1.885
 5686W        W72227  11.590   9.086  10.501
 5687W        W72228  19.840  13.502   1.767
 5688W        W72229   0.595  16.418   2.872
 5689W        W72230  42.549  20.544  14.428
 5690W        W72231  24.947  43.021  13.377
 5691W        W72232  28.111  26.647   0.709
 5692W        W72233  31.748   8.907  12.054
 5693W        W72234  31.672  28.136  15.000
 5694W        W72235  14.568  22.197  12.572
 5695W        W72236  16.453   2.992  14.314
 5696W        W72237  17.037  40.296  14.396
 5697W        W72238   4.147  28.194   4.690
 5698W        W72239  23.968  12.197   2.386
 5699W        W72240   8.179  11.920   0.870
 5700W        W72241   5.445  31.878  13.161
 5701W        W72242  38.127  14.164   2.390
 5702W        W72243  32.207   7.960   4.053
 5703W        W72244  44.430  18.225   4.194
 5704W        W72245  36.491  20.942   3.014
 5705W        W72246  30.729  25.157  13.042
 5706W        W72247   6.027  44.119  10.507
 5707W        W72248  28.352  12.499   4.622
 5708W        W72249  20.661   7.934   3.851
 5709W        W72250  32.562   9.858  11.009
 5710W        W72251  14.611  41.722  13.991
 5711W        W72252  29.253  22.521   3.806
 5712W        W72253  20.701  32.129  13.416
 5713W        W72254  39.999  35.571   3.925
 5714W        W72255  32.682  15.750   4.807
 5715W        W72256   1.650  21.043   0.513
 5716W        W72257  40.611  24.077   3.830
 5717W        W72258   2.398   8.660   2.362
 5718W        W72259  13.603   6.275   2.506
 5719W        W72260  41.842  39.559  13.753
 5720W        W72261   1.469  26.464   1.848
 5721W        W72262  15.778  29.860   3.992
 5722W        W72263  28.638  23.030  11.532
 5723W        W72264   1.861  28.168  10.538
 5724W        W72265  38.312  28.279  11.031
 5725W        W72266  33.891  10.800  12.609
 5726W        W72267   9.935  40.159   0.285
 5727W        W72268  27.016   3.574  13.049
 5728W        W72269  33.922  35.356  12.852
 5729W        W72270   6.048  25.744  13.927
 5730W        W72271   6.729  23.405   4.725
 5731W        W72272   7.810  22.529  11.665
 5732W        W72273   7.817  37.266  14.967
 5733W        W72274  27.975  14.613  14.366
 5734W        W72275   9.397  44.019   0.189
 5735W        W72276  43.109   9.404  14.066
 5736W        W72277  13.624  28.898  11.591
 5737W        W72278   7.897  37.717  10.740
 5738W        W72279   7.482  41.582  13.828
 5739W        W72280  19.848  18.960  14.763
 5740W        W72281   3.572   7.744  11.932
 5741W        W72282   7.211  20.735  13.899
 5742W        W72283  16.451  37.546   5.028
 5743W        W72284  14.261  40.207   0.224
 5744W        W72285  25.098   5.232   5.591
 5745W        W72286   8.089  19.800  14.422
 5746W        W72287   1.903  29.825   4.968
 5747W        W72288  16.530  41.307   3.440
 5748W        W72289  25.945  37.296   2.756
 5749W        W72290   5.273  41.281  10.285
 5750W        W72291  15.215   7.277   1.789
 5751W        W72292  15.707  39.589   1.995
 5752W        W72293   4.338  44.816  12.368
 5753W        W72294  26.546  35.034  12.992
 5754W        W72295  27.225  27.054   3.663
 5755W        W72296   9.963  23.953   3.575
 5756W        W72297  36.908  42.492   2.419
 5757W        W72298  40.240  31.503   0.172
 5758W        W72299  36.707  16.807  13.515
 5759W        W72300  41.075  11.407  10.722
 5760W        W72301   0.394   6.673   0.323
 5761W        W72302  17.783  16.808   2.322
 5762W        W72303  33.558  33.062   0.168
 5763W        W72304  10.668  12.375  14.768
 5764W        W72305  37.575  10.126   2.336
 5765W        W72306  14.812  22.557   0.804
 5766W        W72307  34.871  36.374   1.975
 5767W        W72308  44.902  20.332   3.700
 5768W        W72309  19.819   8.954  11.223
 5769W        W72310   5.909  27.499  14.269
 5770W        W72311   2.492   4.374  13.540
 5771W        W72312  16.039  23.675  14.419
 5772W        W72313  44.399   9.392  13.393
 5773W        W72314  35.003  44.962  10.419
 5774W        W72315  41.925   5.196   1.227
 5775W        W72316   3.682   8.136   0.831
 5776W        W72317   0.217  41.348  12.029
 5777W        W72318  31.849  13.595   2.547
 5778W        W72319  21.577  10.705   0.740
 5779W        W72320   2.200  44.918   1.933
 5780W        W72321   1.332  22.810  11.488
 5781W        W72322  38.019   1.511   2.062
 5782W        W72323  15.607   9.862  11.173
 5783W        W72324   5.971   4.061   0.494
 5784W        W72325  12.991   0.620   4.017
 5785W        W72326  12.825  13.538  14.486
 5786W        W72327   8.772  35.449   2.579
 5787W        W72328   7.354  23.850  12.448
 5788W        W72329  14.926  22.562  11.534
 5789W        W72330  12.718  12.167  14.791
 5790W        W72331  32.906  23.489   0.398
 5791W        W72332  30.807  17.287   2.813
 5792W        W72333  27.485  10.640  14.155
 5793W        W72334  22.074  22.192  13.390
 5794W        W72335  29.080  39.346   4.927
 5795W        W72336  30.174  11.361   4.641
 5796W        W72337  11.119  36.475   0.908
 5797W        W72338   3.285  13.464   2.388
 5798W        W72339   8.445   1.561   1.293
 5799W        W72340  15.915  28.723   2.308
 5800W        W72341  32.101   6.355   0.871
 5801W        W72342  12.780  23.203  10.713
 5802W        W72343  33.702   9.394   4.828
 5803W        W72344   9.649  35.776   0.785
 5804W        W72345   1.210   5.369  14.591
 5805W        W72346  10.742  37.130  14.481
 5806W        W72347  27.153  44.263  11.952
 5807W        W72348  39.402  23.689   4.161
 5808W        W72349   1.941  22.023   3.161
 5809W        W72350  19.804  14.871  11.605
 5810W        W72351  42.522  44.845   1.303
 5811W        W72352  29.640  42.557   1.596
 5812W        W72353   2.958  22.621  14.064
 5813W        W72354  18.571  29.510   1.343
 5814W        W72355  33.501  43.461  13.521
 5815W        W72356  12.361  36.654   3.768
 5816W        W72357  44.934  27.513   1.483
 5817W        W72358  41.170  23.688  11.700
 5818W        W72359  28.361  31.382  11.116
 5819W        W72360  34.898  27.152   0.779
 5820W        W72361  11.835   1.192  14.353
 5821W        W72362  14.740  23.693  11.609
 5822W        W72363   4.670  27.372   3.661
 5823W        W72364  15.106  27.429   4.295
 5824W        W72365   7.397  15.841   0.431
 5825W        W72366  36.009  23.630  14.031
 5826W        W72367  25.401  17.755   3.253
 5827W        W72368  31.078  32.128   1.463
 5828W        W72369  20.391  21.587   3.393
 5829W        W72370  39.292  30.608  11.951
 5830W        W72371   3.870  21.972  14.966
 5831W        W72372  33.733  18.747  14.028
 5832W        W72373  16.110  11.791   2.870
 5833W        W72374  32.035  31.365   4.878
 5834W        W72375  36.832   7.662  11.077
 5835W        W72376  30.545  36.105  10.781
 5836W        W72377   4.010  35.952  13.914
 5837W        W72378  30.111  10.346  10.857
 5838W        W72379  36.014   8.387   0.754
 5839W        W72380  12.572   4.388  10.853
 5840W        W72381  32.131  12.143  13.984
 5841W        W72382  28.581   0.515   4.830
 5842W        W72383  12.646  41.700   1.751
 5843W        W72384  32.252  37.954  13.429
 5844W        W72385  42.518   0.769  14.050
 5845W        W72386  27.519  40.615   2.860
 5846W        W72387  39.160  16.263   3.598
 5847W        W72388   0.434   7.855  13.020
 5848W        W72389  29.615   2.743  12.114
 5849W        W72390   4.345   7.760  10.603
 5850W        W72391  21.243  20.686   1.899
 5851W        W72392  41.584  17.487   3.906
 5852W        W72393   2.727  13.244  10.590
 5853W        W72394   2.682  17.863  11.105
 5854W        W72395  20.193  24.098   4.116
 5855W        W72396  40.646  38.754   1.738
 5856W        W72397  41.065  22.054  11.735
 5857W        W72398   0.740  10.292   0.194
 5858W        W72399   5.960  35.034  14.471
 5859W        W72400   6.638  34.973  12.773
 5860W        W72401  12.258  38.417  12.938
 5861W        W72402  14.417  17.296   4.492
 5862W        W72403   3.341  33.353   3.531
 5863W        W72404  19.165   9.164  11.269
 5864W        W72405  40.551  11.037   3.808
 5865W        W72406  37.272  38.206  14.871
 5866W        W72407  36.014  18.308   1.993
 5867W        W72408  17.800   7.239   4.567
 5868W        W72409  27.992   4.440   1.967
 5869W        W72410  25.212  22.307  12.036
 5870W        W72411  18.209  26.092  10.746
 5871W        W72412  40.785  28.211   4.885
 5872W        W72413  27.900  29.111  13.909
 5873W        W72414  11.290   6.431  14.491
 5874W        W72415  32.040  41.483  13.334
 5875W        W72416  37.531  32.032   2.290
 5876W        W72417  44.968  25.670   0.878
 5877W        W72418  21.818  30.490   1.819
 5878W        W72419   0.984  35.996   9.970
 5879W        W72420   3.124  24.002   4.562
 5880W        W72421  26.681  26.249   1.393
 5881W        W72422  19.770  42.988   0.760
 5882W        W72423  32.727  22.009   4.152
 5883W        W72424   2.361  15.272  10.733
 5884W        W72425  38.607  18.807   1.225
 5885W        W72426  35.213   4.479   0.317
 5886W        W72427  30.408   5.317   0.852
 5887W        W72428  13.699  10.351   4.289
 5888W        W72429  28.265  30.445  14.939
 5889W        W72430  42.464  20.597  11.472
 5890W        W72431  24.100   1.695   4.549
 5891W        W72432   1.947   0.011   3.384
 5892W        W72433   3.416  42.037  13.945
 5893W        W72434  28.133  12.790  13.708
 5894W        W72435   9.303  42.066  12.497
 5895W        W72436  40.365  17.084  11.981
 5896W        W72437  31.953  36.829  11.514
 5897W        W72438   2.286  18.621  11.322
 5898W        W72439  10.613   9.416  12.620
 5899W        W72440   1.862  14.706  11.683
 5900W        W72441  44.336  29.954   1.792
 5901W        W72442  33.187  28.483   0.399
 5902W        W72443  16.636  28.600   3.661
 5903W        W72444   9.391  36.265   4.069
 5904W        W72445  16.661  23.771  12.569
 5905W        W72446   7.400  26.013  11.975
 5906W        W72447  16.615  39.782   2.939
 5907W        W72448  40.301  22.967  12.238
 5908W        W72449  42.728  13.095  11.948
 5909W        W72450  28.134  29.447   1.780
 5910W        W72451   0.939  21.030  13.936
 5911W        W72452  31.621  13.268  14.367
 5912W        W72453   7.844  25.088   3.944
 5913W        W72454  30.044   1.162   1.285
 5914W        W72455  25.616   6.341   1.477
 5915W        W72456  42.838   4.690  14.378
 5916W        W72457  39.837  22.572  11.489
 5917W        W72458  33.903  37.397   2.978
 5918W        W72459  43.743  43.318  12.241
 5919W        W72460  17.499  21.895  10.506
 5920W        W72461  16.226  25.852   1.094
 5921W        W72462  40.528  25.180  11.708
 5922W        W72463  30.688  42.764   0.888
 5923W        W72464  26.261  23.471   0.410
 5924W        W72465  25.647  40.818  13.720
 5925W        W72466  22.710  42.965   1.812
 5926W        W72467   5.287  34.329  14.908
 5927W        W72468   4.257  38.226   1.091
 5928W        W72469  38.775  19.471  10.051
 5929W        W72470  21.160   1.488   0.747
 5930W        W72471  32.907  20.175  10.755
 5931W        W72472  25.992   4.250  13.383
 5932W        W72473   6.452   5.408  13.662
 5933W        W72474  18.120  16.593   3.781
 5934W        W72475  38.163  41.640  14.519
 5935W        W72476   0.350  31.633  14.793
 5936W        W72477  28.929  27.678   3.753
 5937W        W72478   8.958  12.945  13.370
 5938W        W72479   1.879  21.887  12.961
 5939W        W72480  15.340  22.841   2.148
 5940W        W72481  16.025  33.113   0.804
 5941W        W72482  42.775  21.097  13.075
 5942W        W72483  44.383  21.770  14.483
 5943W        W72484   5.357   4.422   1.808
 5944W        W72485  19.261  31.970  13.447
 5945W        W72486  36.439  43.738  14.755
 5946W        W72487  36.960  37.032   0.674
 5947W        W72488  39.915  13.238   1.077
 5948W        W72489  35.101  31.511  14.846
 5949W        W72490  16.338   4.335  11.355
 5950W        W72491  41.110  17.490   2.650
 5951W        W72492  40.178  17.281   4.992
 5952W        W72493  27.604  20.296  12.148
 5953W        W72494  15.263  25.304  11.116
 5954W        W72495  30.311  31.027   1.755
 5955W        W72496   4.575  12.198  10.627
 5956W        W72497  34.546   2.906   3.625
 5957W        W72498  33.632  39.853  11.626
 5958W        W72499  26.258  19.526   1.841
 5959W        W72500  22.725  27.861   2.908
 5960W        W72501   2.054   5.867   4.326
 5961W        W72502   2.846  20.156  13.110
 5962W        W72503  32.029  21.915  11.605
 5963W        W72504   1.315  44.793   1.849
 5964W        W72505  17.280   3.521  14.677
 5965W        W72506  28.018  18.788   1.281
 5966W        W72507   3.935  26.505  11.736
 5967W        W72508  14.594  40.972  13.332
 5968W        W72509  13.132  17.280  13.356
 5969W        W72510   5.855  43.632  10.533
 5970W        W72511  16.269  30.227   3.309
 5971W        W72512  19.857  39.763   3.680
 5972W        W72513   4.517  36.358  10.853
 5973W        W72514  28.245   4.639  12.530
 5974W        W72515  19.194  41.361   0.886
 5975W        W72516  22.705  15.741   0.741
 5976W        W72517  40.390   7.305  11.541
 5977W        W72518  13.069  22.523   0.469
 5978W        W72519  30.378  24.089   1.941
 5979W        W72520  17.581  35.831  14.294
 5980W        W72521  25.780   9.827   0.759
 5981W        W72522  24.820  17.294   1.371
 5982W        W72523  12.619  32.907   0.547
 5983W        W72524  12.071  24.328  11.549
 5984W        W72525  33.532  30.089  11.550
 5985W        W72526  29.533   3.831  13.549
 5986W        W72527  33.514  12.109  13.563
 5987W        W72528  40.013  20.669   4.915
 5988W        W72529  21.511  25.429   1.659
 5989W        W72530  44.413  10.791   2.620
 5990W        W72531  10.236  11.342  11.917
 5991W        W72532  20.782  10.518   0.255
 5992W        W72533  39.450  13.120   0.444
 5993W        W72534   3.348  40.922   4.632
 5994W        W72535  13.385   9.351   0.360
 5995W        W72536   7.303   0.274  11.737
 5996W        W72537  24.744  22.219  13.482
 5997W        W72538  37.256  39.820   3.721
 5998W        W72539  26.641  23.565  14.983
 5999W        W72540  10.295  29.462   0.343
 6000W        W72541   9.404   0.870  13.848
 6001W        W72542   7.880  36.467   5.089
 6002W        W72543   7.949  31.915   0.921
 6003W        W72544  35.499   8.998  12.891
 6004W        W72545  15.185   4.830  11.213
 6005W        W72546  30.442  22.573  12.155
 6006W        W72547  20.276  22.955  11.995
 6007W        W72548  20.566   5.321  13.430
 6008W        W72549   0.082  31.088   3.641
 6009W        W72550  42.355  28.265   3.797
 6010W        W72551  19.664  31.981   1.227
 6011W        W72552  25.982  39.396   4.689
 6012W        W72553   9.175  21.805  13.544
 6013W        W72554  17.096  37.811  12.075
 6014W        W72555   7.728   3.486   1.208
 6015W        W72556  12.708  35.565   4.741
 6016W        W72557  38.608  35.544  12.935
 6017W        W72558  25.225   8.341   2.381
 6018W        W72559   7.689  22.185  14.617
 6019W        W72560  32.686  16.295  13.840
 6020W        W72561  38.940   4.141  12.851
 6021W        W72562  13.744  37.016  11.377
 6022W        W72563  32.313  23.687  14.509
 6023W        W72564  11.639  29.667   4.911
 6024W        W72565  30.636  42.119  11.824
 6025W        W72566  10.602   1.419  14.834
 6026W        W72567  37.131  12.123  14.873
 6027W        W72568  16.709  14.914  10.114
 6028W        W72569  34.660   9.938   1.319
 6029W        W72570  17.197  11.208  12.577
 6030W        W72571   6.165  20.628  14.309
 6031W        W72572   4.562  34.129   2.591
 6032W        W72573   1.158  12.760  11.224
 6033W        W72574  35.565  25.523  12.868
 6034W        W72575  21.808   9.592   0.191
 6035W        W72576  14.081  34.606   0.891
 6036W        W72577  20.184  18.605  13.998
 6037W        W72578  14.614  39.326  10.631
 6038W        W72579  14.824  28.661  12.055
 6039W        W72580  38.926  23.581  14.396
 6040W        W72581  35.822  13.963  14.977
 6041W        W72582  21.808   9.966   3.081
 6042W        W72583  35.572  19.485  13.397
 6043W        W72584  20.813   4.205  14.046
 6044W        W72585  31.989   1.817   4.480
 6045W        W72586  31.451  36.581  11.609
 6046W        W72587  19.760  32.555   4.243
 6047W        W72588  39.381  32.541  13.574
 6048W        W72589   4.352  41.438  14.308
 6049W        W72590   8.888  42.899   3.805
 6050W        W72591  35.433   2.188   0.492
 6051W        W72592  18.015  33.113  12.377
 6052W        W72593  10.689  41.040  13.157
 6053W        W72594   0.982  34.089   3.181
 6054W        W72595   2.717  21.801   3.133
 6055W        W72596  30.597   2.322   3.190
 6056W        W72597  32.523  22.948   3.140
 6057W        W72598   2.671  12.288   0.978
 6058W        W72599  38.959  17.714  13.678
 6059W        W72600   6.155  27.026   1.314
 6060W        W72601  40.408   3.586   4.154
 6061W        W72602  28.412  32.522   2.379
 6062W        W72603  33.638  25.272  12.043
 6063W        W72604  27.147  32.319  12.531
 6064W        W72605  28.536  33.873  12.675
 6065W        W72606  16.198   6.753   2.730
 6066W        W72607  28.140   2.436  13.009
 6067W        W72608  40.436   4.768   2.094
 6068W        W72609  38.776  12.353   2.755
 6069W        W72610  31.224   5.565  14.962
 6070W        W72611  20.342  16.644   2.566
 6071W        W72612  12.533  24.116  12.863
 6072W        W72613  41.350  32.215   5.218
 6073W        W72614   4.234  17.098   1.117
 6074W        W72615   0.928  18.815  12.845
 6075W        W72616  29.824  26.705  12.917
 6076W        W72617  26.058   0.719  14.481
 6077W        W72618   8.778   9.125   1.696
 6078W        W72619   5.969  27.645  12.956
 6079W        W72620  24.967  19.710   4.319
 6080W        W72621  39.488  23.991   2.718
 6081W        W72622  17.202   4.929   3.653
 6082W        W72623  34.847  38.008  11.519
 6083W        W72624  17.096  33.036  12.349
 6084W        W72625   3.224  29.790  11.604
 6085W        W72626  31.576   8.832   4.169
 6086W        W72627  28.967  15.489   0.744
 6087W        W72628  11.317   8.425  12.032
 6088W        W72629  17.131   1.724  11.504
 6089W        W72630  24.447   2.371   4.733
 6090W        W72631  11.672  41.757  11.504
 6091W        W72632  34.477  27.442  10.698
 6092W        W72633  31.382  40.925  13.572
 6093W        W72634  32.300  35.821   1.484
 6094W        W72635  10.926  33.787   4.153
 6095W        W72636  29.027   6.816   3.387
 6096W        W72637  40.979  22.047  11.237
 6097W        W72638   1.380   6.392   1.252
 6098W        W72639   2.561  43.998  13.851
 6099W        W72640  44.640  38.448  14.248
 6100W        W72641  38.606  32.488  13.060
 6101W        W72642  17.719  29.686  11.353
 6102W        W72643  19.156  20.984  13.252
 6103W        W72644  42.888  29.625   1.455
 6104W        W72645  34.140  32.512  12.806
 6105W        W72646  13.353  29.384   1.632
 6106W        W72647   2.489   4.794   1.080
 6107W        W72648  16.316  38.464   0.689
 6108W        W72649  24.140  24.779   4.726
 6109W        W72650  35.420   0.800   2.815
 6110W        W72651   5.420  23.280   3.608
 6111W        W72652  31.078  17.100  10.971
 6112W        W72653  38.169  13.029  13.326
 6113W        W72654  15.299   2.321  12.622
 6114W        W72655  19.545  15.578   0.221
 6115W        W72656  16.378   1.408   3.583
 6116W        W72657  31.059  38.013   4.114
 6117W        W72658  16.706  39.481   3.704
 6118W        W72659  33.584   4.618  14.937
 6119W        W72660  32.453  22.208  11.558
 6120W        W72661  35.828  31.423   2.915
 6121W        W72662  22.418   4.632   4.840
 6122W        W72663  23.072  30.818  13.215
 6123W        W72664   1.346  31.378   1.869
 6124W        W72665  20.991  15.404   5.246
 6125W        W72666  44.948  29.452   0.978
 6126W        W72667   4.466  39.567  12.886
 6127W        W72668  27.968   3.329   4.602
 6128W        W72669   8.428  23.742  11.474
 6129W        W72670  11.509  42.983   3.709
 6130W        W72671  31.031  27.082   0.912
 6131W        W72672  27.593  44.786   3.681
 6132W        W72673  14.406  11.611  13.821
 6133W        W72674  23.111  38.135   0.960
 6134W        W72675   1.993  20.527   1.278
 6135W        W72676  30.898  27.095  11.066
 6136W        W72677  43.255   3.925   1.878
 6137W        W72678  25.097  28.343  10.652
 6138W        W72679  22.700  22.447   2.615
 6139W        W72680   6.164   3.543  14.316
 6140W        W72681   4.863  23.201   5.175
 6141W        W72682   6.646  19.675  13.581
 6142W        W72683  19.181  27.954  11.299
 6143W        W72684  14.069  31.610  14.967
 6144W        W72685  13.849  39.919  14.322
 6145W        W72686  32.116  10.782   2.442
 6146W        W72687  18.395   9.215   4.695
 6147W        W72688  30.092  31.451   2.461
 6148W        W72689  38.078  31.404   4.417
 6149W        W72690  27.165   3.254  11.579
 6150W        W72691  11.722  10.203   4.918
 6151W        W72692  35.628  26.382   4.760
 6152W        W72693  30.179  35.848   1.821
 6153W        W72694   2.809  13.837   4.738
 6154W        W72695  18.145   6.347  11.622
 6155W        W72696  24.505  35.359   0.919
 6156W        W72697  11.686  34.024  13.493
 6157W        W72698  12.708  21.160   2.544
 6158W        W72699  24.654  13.197   1.439
 6159W        W72700  32.967  22.179   0.925
 6160W        W72701  26.044  11.510   4.369
 6161W        W72702  27.020  43.271  13.361
 6162W        W72703   5.377   9.396  13.845
 6163W        W72704  12.260  29.518  13.835
 6164W        W72705  24.834   7.528  11.103
 6165W        W72706  35.191   7.658  11.662
 6166W        W72707  26.982   2.781  11.512
 6167W        W72708   6.367  41.406   2.208
 6168W        W72709   8.663  12.060   0.716
 6169W        W72710  15.115   3.279   0.353
 6170W        W72711  21.088  44.579   5.234
 6171W        W72712  35.905   8.498  12.361
 6172W        W72713  30.521  12.344  12.572
 6173W        W72714  30.075  23.351  13.057
 6174W        W72715   7.801  37.837  13.664
 6175W        W72716  40.545  43.703   4.718
 6176W        W72717  19.591  41.551  11.138
 6177W        W72718  12.643   7.862   0.396
 6178W        W72719  26.575  23.281  13.064
 6179W        W72720  17.424  18.003   9.760
 6180W        W72721  41.427  31.525   3.374
 6181W        W72722  43.705   1.467  10.985
 6182W        W72723  17.259  10.206  13.342
 6183W        W72724  33.832  44.607  10.877
 6184W        W72725   9.033  34.455   3.258
 6185W        W72726  33.209   9.159  13.945
 6186W        W72727   7.258  43.618   1.473
 6187W        W72728  12.105  22.946   1.891
 6188W        W72729  30.237  42.032  14.928
 6189W        W72730   1.543  42.468  12.388
 6190W        W72731  28.918   1.964  13.972
 6191W        W72732  43.759   5.811  11.775
 6192W        W72733   6.304  34.629  13.780
 6193W        W72734  32.919   9.714   4.076
 6194W        W72735  38.640   2.927   4.489
 6195W        W72736   4.220  23.333   9.776
 6196W        W72737  18.070  27.928   2.771
 6197W        W72738  26.926  34.843   3.758
 6198W        W72739  33.322  36.399  14.263
 6199W        W72740  22.639  39.058   4.542
 6200W        W72741  34.957  29.655   2.142
 6201W        W72742  23.819  14.121  12.165
 6202W        W72743  22.276  17.922  11.081
 6203W        W72744  32.680  39.037   2.732
 6204W        W72745   1.485  12.780  12.054
 6205W        W72746  32.085   2.901  12.233
 6206W        W72747  19.789  11.831   1.557
 6207W        W72748  32.154   4.145  12.707
 6208W        W72749  42.740  31.428  12.349
 6209W        W72750  34.333  11.406  13.820
 6210W        W72751  29.244  28.111  12.388
 6211W        W72752  30.322  21.584  11.827
 6212W        W72753  27.139  31.935  14.344
 6213W        W72754   1.463   3.779   3.280
 6214W        W72755   1.057  41.789  14.395
 6215W        W72756  25.955   0.095   3.891
 6216W        W72757  24.937  27.732   4.672
 6217W        W72758  10.310   6.831  12.965
 6218W        W72759  36.965   6.644  12.736
 6219W        W72760  41.130  20.567  11.154
 6220W        W72761  12.622  28.033   4.818
 6221W        W72762  26.662   7.007   3.824
 6222W        W72763  26.933  40.053   4.246
 6223W        W72764  27.007   2.266  13.140
 6224W        W72765   2.644   9.438   3.552
 6225W        W72766  18.287  34.093  13.084
 6226W        W72767  14.463  22.799  11.519
 6227W        W72768  27.162   5.666  12.429
 6228W        W72769  24.639  38.585   1.952
 6229W        W72770  30.740  27.208  14.926
 6230W        W72771  41.203  37.541  13.384
 6231W        W72772  13.880   8.603  10.788
 6232W        W72773  24.579  29.871   4.805
 6233W        W72774  10.244  40.860  12.972
 6234W        W72775  30.412  27.403  12.636
 6235W        W72776  12.343   3.469  14.800
 6236W        W72777  22.309  25.712  13.793
 6237W        W72778  37.937  41.419   2.764
 6238W        W72779   5.301   4.383   4.267
 6239W        W72780   1.436  32.598   2.163
 6240W        W72781  34.535  35.438   4.077
 6241W        W72782  33.541  27.212   0.294
 6242W        W72783  22.746  37.535   1.385
 6243W        W72784  44.700   3.426   0.815
 6244W        W72785  33.188  30.454  11.567
 6245W        W72786  37.069  13.319   2.858
 6246W        W72787  33.569  38.938  10.953
 6247W        W72788  17.569  25.967  14.449
 6248W        W72789   4.742   4.967   4.971
 6249W        W72790  25.987   7.466   1.799
 6250W        W72791  15.744  28.505  13.101
 6251W        W72792   6.176  22.564   4.668
 6252W        W72793  29.846  32.140   1.557
 6253W        W72794  23.716  26.859  11.554
 6254W        W72795  16.361   2.250   4.797
 6255W        W72796  23.509   0.055  13.805
 6256W        W72797   2.910  34.947   4.944
 6257W        W72798   3.525  41.031   4.145
 6258W        W72799  32.576  27.501   0.802
 6259W        W72800  28.340  43.719   0.637
 6260W        W72801   6.317   6.666  11.573
 6261W        W72802   4.290  13.180  13.029
 6262W        W72803   4.193  14.532   2.849
 6263W        W72804  13.571  42.023   0.281
 6264W        W72805  13.897  20.185   4.651
 6265W        W72806  11.635  13.745   4.783
 6266W        W72807  12.623  31.105   3.746
 6267W        W72808  38.839  16.671   0.375
 6268W        W72809  31.967  23.215  11.445
 6269W        W72810  42.264  26.473  10.941
 6270W        W72811  34.550   4.759   3.847
 6271W        W72812  10.901  29.120   3.816
 6272W        W72813  17.269   4.363   2.790
 6273W        W72814  16.346   6.397   1.788
 6274W        W72815  42.028  35.327  12.473
 6275W        W72816  28.832  21.922   0.327
 6276W        W72817  15.907  41.408   4.919
 6277W        W72818  13.277   4.616   5.374
 6278W        W72819  42.005  11.443   4.740
 6279W        W72820  24.133   1.518   5.034
 6280W        W72821  22.728  43.024  10.979
 6281W        W72822   6.022  41.843   4.127
 6282W        W72823   9.166  44.885  12.188
 6283W        W72824  32.178  25.746   4.073
 6284W        W72825  24.646   7.344  13.109
 6285W        W72826  16.216   9.311  10.702
 6286W        W72827  19.455  35.813   1.780
 6287W        W72828  18.709  41.228   5.219
 6288W        W72829  28.034  25.367  13.062
 6289W        W72830  16.619  35.352   1.173
 6290W        W72831  34.075  34.134   2.920
 6291W        W72832   1.033  34.362  12.503
 6292W        W72833   0.069  31.252   1.525
 6293W        W72834  23.159  19.962   3.174
 6294W        W72835   8.682  34.842  13.436
 6295W        W72836   3.112  21.431  12.887
 6296W        W72837   5.748  17.819   2.027
 6297W        W72838  40.681  27.565  12.024
 6298W        W72839   5.931  17.405  11.041
 6299W        W72840   3.224  16.209   0.727
 6300W        W72841  34.835   7.367   1.864
 6301W        W72842  32.542  36.151  13.830
 6302W        W72843  33.691  39.497   3.102
 6303W        W72844  41.816  15.115  14.472
 6304W        W72845   4.823  11.920   4.144
 6305W        W72846  10.899  21.737   2.201
 6306W        W72847   7.225   5.703   0.580
 6307W        W72848   3.546  31.087  11.747
 6308W        W72849   6.986  21.297   1.439
 6309W        W72850  24.088  31.226  13.654
 6310W        W72851  12.829  40.858   3.738
 6311W        W72852  34.682  43.064  13.918
 6312W        W72853   2.354  17.039  13.034
 6313W        W72854  14.897  30.430  10.661
 6314W        W72855  38.022  26.148   2.348
 6315W        W72856  31.773  37.936  14.245
 6316W        W72857  43.235   7.251  12.478
 6317W        W72858   9.411  22.285  11.351
 6318W        W72859  17.568  28.948  13.988
 6319W        W72860  39.656  38.431   3.875
 6320W        W72861   2.803  22.002   1.827
 6321W        W72862   2.358  42.378  14.060
 6322W        W72863  18.140  41.444  10.759
 6323W        W72864  30.880  43.725   0.236
 6324W        W72865  15.805  29.248   4.934
 6325W        W72866  37.868  20.535   0.761
 6326W        W72867  21.773  41.855  10.712
 6327W        W72868  26.773  24.533   1.413
 6328W        W72869   0.731  13.396   1.261
 6329W        W72870   5.325   4.147  13.039
 6330W        W72871  27.511  14.253   0.208
 6331W        W72872   6.752  11.770   4.700
 6332W        W72873  38.800  14.573  12.367
 6333W        W72874  29.448  34.028   2.753
 6334W        W72875  37.268  32.357   0.741
 6335W        W72876  36.242  30.155  12.542
 6336W        W72877  33.894  21.276  10.989
 6337W        W72878  33.832   7.383  11.624
 6338W        W72879  32.901  23.927  12.026
 6339W        W72880   9.177  33.506  11.642
 6340W        W72881  37.641  22.574  14.069
 6341W        W72882   0.007   2.916  10.390
 6342W        W72883  14.908  21.601  13.886
 6343W        W72884  21.053  16.221  11.592
 6344W        W72885   6.937  14.841   0.808
 6345W        W72886   1.321  41.479  13.336
 6346W        W72887   7.427  35.381   0.208
 6347W        W72888  11.373  12.477  11.159
 6348W        W72889  17.350  17.408   1.196
 6349W        W72890  32.332   4.660   0.295
 6350W        W72891  24.268   8.426   2.280
 6351W        W72892  25.553  36.033   4.648
 6352W        W72893  20.277  35.669  13.924
 6353W        W72894  21.464  17.680   4.968
 6354W        W72895  18.368  11.257   1.209
 6355W        W72896  19.293  24.647  12.892
 6356W        W72897   1.822  17.596  14.693
 6357W        W72898  19.689  17.662   0.923
 6358W        W72899  38.835  25.060  10.924
 6359W        W72900  22.012  36.169  12.551
 6360W        W72901  16.751  27.645   4.616
 6361W        W72902   4.581  26.151   3.965
 6362W        W72903  17.717  23.631  11.882
 6363W        W72904  23.616  10.805   3.258
 6364W        W72905   6.573  10.906  11.615
 6365W        W72906  38.108  36.203   4.617
 6366W        W72907  11.761  15.568  11.899
 6367W        W72908  10.347  34.305   3.646
 6368W        W72909   9.681  15.614   0.059
 6369W        W72910  41.335  36.321   2.746
 6370W        W72911   9.356  13.656   4.216
 6371W        W72912  22.305  40.389  10.794
 6372W        W72913  36.836  13.238  13.973
 6373W        W72914   4.814  39.284   0.243
 6374W        W72915  14.257  44.242   2.745
 6375W        W72916  20.951  39.049   2.598
 6376W        W72917  41.835  42.409   4.825
 6377W        W72918  40.492  35.006  10.875
 6378W        W72919   5.772  41.430   1.446
 6379W        W72920  41.382  16.181  11.147
 6380W        W72921  25.700   2.080  11.109
 6381W        W72922  26.417  29.865  12.637
 6382W        W72923   5.273  25.185  12.127
 6383W        W72924   1.350  15.476  13.119
 6384W        W72925  40.738  11.024  12.448
 6385W        W72926  41.860  33.793   2.895
 6386W        W72927  28.326  38.772   0.927
 6387W        W72928  34.355   9.838   2.639
 6388W        W72929  14.765  23.062   1.048
 6389W        W72930  39.588  43.946   4.576
 6390W        W72931  27.096   3.346  13.532
 6391W        W72932  29.075   4.371   4.870
 6392W        W72933   4.953  36.002   3.213
 6393W        W72934  23.699  11.567   2.786
 6394W        W72935   4.121  11.379  11.014
 6395W        W72936   2.294  27.410  13.372
 6396W        W72937  28.443  28.054   1.761
 6397W        W72938  12.087  43.565  12.796
 6398W        W72939   4.758   6.393  12.578
 6399W        W72940  43.454  34.038   4.569
 6400W        W72941   2.597   3.268   2.203
 6401W        W72942  36.962  35.623  12.503
 6402W        W72943  34.011   3.220  11.706
 6403W        W72944  36.951  40.252   2.334
 6404W        W72945  12.263  17.833   0.876
 6405W        W72946  15.348  44.027   0.024
 6406W        W72947  26.088  11.743   0.391
 6407W        W72948  36.829  11.745   0.033
 6408W        W72949  22.916   5.730  11.678
 6409W        W72950  15.258  38.803   3.257
 6410W        W72951  27.238  44.590  12.350
 6411W        W72952   5.478   7.016   3.081
 6412W        W72953   4.458   3.967  14.962
 6413W        W72954  10.183  14.150   0.556
 6414W        W72955   3.777  25.530  12.641
 6415W        W72956   2.990  20.122   0.047
 6416W        W72957   8.197   5.978  11.136
 6417W        W72958   5.153   1.015   4.007
 6418W        W72959  43.496  27.484   3.235
 6419W        W72960  16.693  30.438   1.359
 6420W        W72961  30.457  37.337   3.700
 6421W        W72962   4.105  21.756  12.931
 6422W        W72963   9.670  41.025   4.147
 6423W        W72964  31.419  19.497   1.256
 6424W        W72965   8.881  24.237   0.560
 6425W        W72966  19.004   6.796  14.468
 6426W        W72967  20.260   7.310   4.371
 6427W        W72968  38.407  10.185  11.573
 6428W        W72969  27.188  28.815  13.550
 6429W        W72970   1.448  42.902   3.261
 6430W        W72971  16.676   3.889  11.992
 6431W        W72972   0.465  10.703   0.365
 6432W        W72973  39.441   4.185   0.025
 6433W        W72974  26.740  37.883  12.313
 6434W        W72975  25.947   5.936   3.629
 6435W        W72976  27.113  11.308   0.117
 6436W        W72977  30.356   9.945  13.382
 6437W        W72978  18.028  36.006  12.419
 6438W        W72979  43.763  25.564   0.188
 6439W        W72980  22.471  19.409   0.115
 6440W        W72981  19.145  28.878   4.291
 6441W        W72982   8.237  33.923  13.498
 6442W        W72983  15.272  38.532   2.727
 6443W        W72984   3.073  44.679  14.146
 6444W        W72985  29.194  25.057  14.519
 6445W        W72986  36.593  24.172   0.797
 6446W        W72987  14.268   5.875   3.231
 6447W        W72988  29.387   8.381   4.337
 6448W        W72989  27.543   6.831   3.804
 6449W        W72990  13.841  44.768  14.621
 6450W        W72991   2.946  16.726   4.522
 6451W        W72992   3.891   2.041  14.382
 6452W        W72993  29.442  13.120   3.798
 6453W        W72994  21.451   2.531  13.862
 6454W        W72995   9.205  35.352  10.768
 6455W        W72996  11.166  29.184  11.258
 6456W        W72997  36.560  20.085   4.784
 6457W        W72998  26.534  19.219   2.710
 6458W        W72999  30.168  20.707   2.710
 6459W        W73000  10.466  27.655   4.591
 6460W        W73001  24.993  37.773   0.659
 6461W        W73002  19.083   0.030  13.434
 6462W        W73003  12.664  12.100   2.563
 6463W        W73004  14.444  30.176  14.971
 6464W        W73005  41.846  29.496   4.274
 6465W        W73006  19.474  26.240  11.217
 6466W        W73007  20.131   8.698   3.139
 6467W        W73008   0.775   1.284   1.849
 6468W        W73009  36.369  39.950   4.205
 6469W        W73010  26.093  42.801   1.761
 6470W        W73011  41.904  43.872  11.934
 6471W        W73012  14.247  35.609  14.839
 6472W        W73013   9.236   1.919  13.919
 6473W        W73014  28.223  17.974   3.762
 6474W        W73015  29.299  42.928   0.425
 6475W        W73016  14.852   8.683  10.725
 6476W        W73017  32.987  42.934   1.220
 6477W        W73018  38.332  12.817  12.884
 6478W        W73019  33.598  31.584  10.208
 6479W        W73020  42.836  42.005   3.124
 6480W        W73021   8.275  25.827   2.763
 6481W        W73022  30.108   9.274  13.052
 6482W        W73023  43.620  20.213   3.845
 6483W        W73024   7.388  42.894   2.154
 6484W        W73025   8.846  10.402   1.051
 6485W        W73026  20.143  23.128  14.337
 6486W        W73027   8.789  40.089  12.531
 6487W        W73028  26.501   0.738   3.169
 6488W        W73029  25.092   3.910  13.920
 6489W        W73030   1.019  29.224   4.569
 6490W        W73031   2.910  37.549   0.422
 6491W        W73032  39.002   8.851   0.975
 6492W        W73033   3.836  14.563  12.911
 6493W        W73034   7.755  25.903   2.807
 6494W        W73035  42.711  27.337  11.163
 6495W        W73036   2.464  25.654  14.076
 6496W        W73037  26.029  42.737   0.809
 6497W        W73038   6.686  33.314  12.553
 6498W        W73039  16.350  33.123   3.736
 6499W        W73040   8.470  19.079   2.419
 6500W        W73041   0.751  23.116   3.586
 6501W        W73042  35.318  27.950   1.309
 6502W        W73043  16.371  26.989  13.338
 6503W        W73044   1.234  37.395   3.187
 6504W        W73045  42.860  22.988  14.347
 6505W        W73046  20.821  34.047   3.166
 6506W        W73047  31.420  22.192   4.168
 6507W        W73048  21.012  41.522   3.267
 6508W        W73049  36.042  39.376   1.454
 6509W        W73050  39.053  38.122   1.266
 6510W        W73051  26.430  19.303  12.927
 6511W        W73052  10.574  22.226  12.187
 6512W        W73053  23.833  11.370   1.474
 6513W        W73054  30.471   2.226  12.115
 6514W        W73055  38.895  10.190   0.737
 6515W        W73056  37.706  12.731   3.153
 6516W        W73057  16.018   7.676   3.584
 6517W        W73058  40.856  42.450  12.021
 6518W        W73059  36.402  16.678   1.268
 6519W        W73060   7.887   5.817  10.753
 6520W        W73061   7.474  16.767   3.371
 6521W        W73062  24.011  22.157   0.774
 6522W        W73063  19.337  44.707  11.439
 6523W        W73064  33.022  24.519   4.307
 6524W        W73065  36.599  40.062   1.847
 6525W        W73066  21.364  27.606  13.275
 6526W        W73067  19.887  17.368   4.524
 6527W        W73068   8.181  14.580  12.359
 6528W        W73069  33.406  34.553   3.291
 6529W        W73070  16.301  35.991   3.759
 6530W        W73071  36.911  22.963   0.520
 6531W        W73072   9.391   3.385  13.135
 6532W        W73073   6.881  43.916   2.876
 6533W        W73074   2.304  33.326  12.268
 6534W        W73075  16.653  41.119  14.352
 6535W        W73076  44.491  16.619  12.951
 6536W        W73077  12.237  31.901  14.937
 6537W        W73078  18.340  41.791   3.659
 6538W        W73079  13.755  10.186  10.772
 6539W        W73080  30.155  13.128  12.883
 6540W        W73081  32.608  25.348  13.632
 6541W        W73082  34.942  15.638   4.127
 6542W        W73083  21.968   6.471   2.304
 6543W        W73084  43.855   1.442  14.150
 6544W        W73085   0.279   0.892  10.704
 6545W        W73086   9.358  38.089  11.101
 6546W        W73087  13.865  33.607   4.223
 6547W        W73088  27.518  12.860  10.838
 6548W        W73089  15.617  39.496   0.425
 6549W        W73090  42.992  31.939  14.848
 6550W        W73091  35.423   1.193   1.329
 6551W        W73092  42.539   9.672   3.917
 6552W        W73093  23.726  20.726   2.605
 6553W        W73094  44.510  30.984  11.043
 6554W        W73095  33.644  27.460  10.928
 6555W        W73096  33.056  37.595   3.424
 6556W        W73097  39.072   5.680   0.782
 6557W        W73098  13.561   1.221   3.771
 6558W        W73099   7.338  16.675  14.323
 6559W        W73100  39.040   2.307   0.827
 6560W        W73101  41.851  25.879   1.008
 6561W        W73102   7.969  10.005  11.653
 6562W        W73103  25.316  15.027   4.592
 6563W        W73104  23.224  38.619   2.700
 6564W        W73105  28.226  27.157   4.341
 6565W        W73106  26.147   9.891   2.838
 6566W        W73107  36.452   5.698  13.690
 6567W        W73108  39.868  38.772  14.841
 6568W        W73109  26.860  39.098  14.697
 6569W        W73110  18.770   7.228   0.340
 6570W        W73111  44.844  44.036  11.775
 6571W        W73112  42.017  42.591   3.404
 6572W        W73113  36.488  17.679  12.630
 6573W        W73114  35.049   8.932   3.667
 6574W        W73115  41.014  14.364  13.996
 6575W        W73116  36.727  25.701  13.799
 6576W        W73117   9.872  41.785  11.952
 6577W        W73118  16.606  34.076   2.664
 6578W        W73119  18.324  34.479   4.310
 6579W        W73120  18.015  22.071   4.162
 6580W        W73121  12.368  34.700   2.289
 6581W        W73122   1.347  13.411  11.674
 6582W        W73123  40.508  26.240   0.984
 6583W        W73124  27.117  13.177  12.018
 6584W        W73125  42.404  43.243   3.952
 6585W        W73126   9.754   2.904   0.273
 6586W        W73127  43.282  40.143  10.968
 6587W        W73128  19.117  31.984   2.838
 6588W        W73129  25.958   4.936  13.614
 6589W        W73130  27.036  34.603  11.712
 6590W        W73131   8.172   8.249   3.615
 6591W        W73132  27.445  31.933   1.751
 6592W        W73133  34.926  18.749  11.516
 6593W        W73134  13.094  15.749   2.230
 6594W        W73135  19.514  31.615  14.898
 6595W        W73136  23.602  33.828  11.551
 6596W        W73137  42.427  12.884   0.298
 6597W        W73138  22.134  32.596   2.424
 6598W        W73139  41.435  25.544  11.482
 6599W        W73140  21.242  41.500   0.850
 6600W        W73141  34.411   6.196   1.297
 6601W        W73142  14.568  35.186  10.277
 6602W        W73143   9.362  28.328   3.640
 6603W        W73144   0.270   8.965   0.766
 6604W        W73145  14.889  29.183  14.174
 6605W        W73146  38.966  39.463   1.199
 6606W        W73147   8.378   2.785  11.475
 6607W        W73148  29.092  31.647  12.601
 6608W        W73149  42.922  35.385   4.077
 6609W        W73150  11.394  36.028  13.506
 6610W        W73151  32.054  23.714  10.773
 6611W        W73152  24.756  29.685  12.545
 6612W        W73153   1.025   2.522  11.940
 6613W        W73154  30.157  37.593  13.151
 6614W        W73155  24.076  22.443   1.213
 6615W        W73156  13.595  20.754  13.438
 6616W        W73157  26.483   9.551   5.063
 6617W        W73158  42.034  24.238   2.455
 6618W        W73159  27.231  19.776   2.886
 6619W        W73160  42.901  15.653  10.610
 6620W        W73161  26.388  39.071   1.912
 6621W        W73162  17.651  33.506   2.099
 6622W        W73163  12.576  27.527   3.810
 6623W        W73164  19.030  34.952  11.164
 6624W        W73165  16.812  44.720   4.508
 6625W        W73166  30.536  29.179  11.719
 6626W        W73167   4.130   1.206  10.020
 6627W        W73168  13.823  14.779   1.269
 6628W        W73169  14.380  40.535   2.204
 6629W        W73170   1.392  11.693  13.015
 6630W        W73171  30.205   0.962   2.318
 6631W        W73172  42.068  14.751   0.414
 6632W        W73173  23.296   9.436  11.684
 6633W        W73174  28.048  43.832   4.624
 6634W        W73175  12.821  44.187   3.699
 6635W        W73176  11.955  43.973   1.665
 6636W        W73177  23.105  15.174  11.311
 6637W        W73178  36.509  21.872   1.694
 6638W        W73179  42.670  34.854  12.868
 6639W        W73180  19.800  23.022  14.869
 6640W        W73181  22.929  25.731  11.946
 6641W        W73182  33.101  21.268   4.229
 6642W        W73183   4.212  37.750  10.979
 6643W        W73184  22.190   6.898  14.522
 6644W        W73185  29.662  41.562   2.192
 6645W        W73186  16.842  13.300   1.742
 6646W        W73187  24.924  34.338   1.807
 6647W        W73188  39.746  43.941  12.592
 6648W        W73189  29.171  21.122   3.102
 6649W        W73190   0.340  37.809   0.167
 6650W        W73191  29.007   3.475   1.791
 6651W        W73192  35.891  19.174  13.718
 6652W        W73193  27.479  18.249   2.641
 6653W        W73194   8.450  37.930   2.168
 6654W        W73195  36.853  21.054  13.430
 6655W        W73196   3.268  42.807   2.836
 6656W        W73197  39.086  21.162   0.834
 6657W        W73198  42.792  18.201  11.064
 6658W        W73199  18.934  10.709  14.496
 6659W        W73200   5.678  27.273   3.588
 6660W        W73201  19.312   4.358   3.819
 6661W        W73202  14.986  25.023  13.579
 6662W        W73203  25.573  14.124   0.363
 6663W        W73204  19.089  22.205   0.531
 6664W        W73205  29.224  11.152   2.492
 6665W        W73206   7.757  18.189  12.628
 6666W        W73207  21.280  37.033  14.809
 6667W        W73208  28.573  15.863  12.448
 6668W        W73209  21.699  38.606  12.024
 6669W        W73210   4.754   2.406  12.588
 6670W        W73211   9.265  24.113   3.755
 6671W        W73212  20.199   6.891   3.050
 6672W        W73213   8.726  14.894   0.248
 6673W        W73214  23.555  35.896   2.508
 6674W        W73215  23.950   6.325  11.341
 6675W        W73216  18.107  39.762   3.698
 6676W        W73217   8.676  10.422   1.571
 6677W        W73218  28.556  12.148  10.500
 6678W        W73219   9.247  39.546   2.644
 6679W        W73220   0.917   7.870   0.490
 6680W        W73221   1.165  29.759  10.746
 6681W        W73222  32.416  23.950  13.841
 6682W        W73223  30.445  43.624  11.543
 6683W        W73224   7.889  34.544  10.801
 6684W        W73225  41.832   7.953   0.955
 6685W        W73226  17.126   0.512   4.750
 6686W        W73227   5.345  36.627  12.030
 6687W        W73228  30.965  27.687  11.792
 6688W        W73229  39.585  33.955  12.914
 6689W        W73230   2.162  39.124  10.129
 6690W        W73231  38.823  44.577   3.414
 6691W        W73232  16.256  29.685   4.160
 6692W        W73233   1.576  26.750   2.307
 6693W        W73234   9.149  10.551  12.220
 6694W        W73235  15.901   7.930   2.349
 6695W        W73236  36.458   4.843   4.597
 6696W        W73237  36.083   0.032   4.532
 6697W        W73238   7.867  10.234   3.209
 6698W        W73239  19.501  19.752  14.386
 6699W        W73240   7.364   3.309   0.442
 6700W        W73241  18.358  32.944  10.940
 6701W        W73242  19.143  12.913   9.698
 6702W        W73243   8.851  17.988  13.321
 6703W        W73244  24.817  12.727  12.148
 6704W        W73245  42.801  33.474   1.795
 6705W        W73246  23.913   0.978  10.698
 6706W        W73247  41.105  42.286   0.342
 6707W        W73248  35.345  21.104  12.619
 6708W        W73249  37.418  26.099  10.537
 6709W        W73250  36.844  24.595   3.344
 6710W        W73251  28.633  43.285   4.101
 6711W        W73252  35.654   7.532  12.671
 6712W        W73253   8.416   4.845  10.744
 6713W        W73254  24.752  42.470   1.157
 6714W        W73255  22.981  20.953  11.090
 6715W        W73256  14.804  10.329   3.752
 6716W        W73257  12.369  16.789   0.993
 6717W        W73258  40.528  13.790   3.187
 6718W        W73259  28.819  16.400  14.798
 6719W        W73260  30.451  24.080   1.431
 6720W        W73261  41.958   4.193  13.492
 6721W        W73262  21.187   5.843   1.015
 6722W        W73263  25.469  22.687  12.500
 6723W        W73264  39.451  17.880  14.841
 6724W        W73265   5.487  28.326  11.108
 6725W        W73266  40.285  33.670  11.820
 6726W        W73267  13.973   2.708  11.131
 6727W        W73268  21.713  36.085   4.487
 6728W        W73269  20.559  37.171  13.500
 6729W        W73270  34.648  42.947   3.222
 6730W        W73271  18.410  37.406   1.112
 6731W        W73272  37.732  43.463  12.106
 6732W        W73273  17.068  19.979   2.032
 6733W        W73274  14.768  26.952  11.388
 6734W        W73275   2.741  36.980   3.251
 6735W        W73276   4.247  17.179  10.505
 6736W        W73277  24.400   9.974   2.442
 6737W        W73278  13.038  28.800   4.092
 6738W        W73279  26.977  24.809   0.000
 6739W        W73280  41.579  10.666   1.752
 6740W        W73281  37.050   0.055   2.278
 6741W        W73282  44.498  13.471   3.448
 6742W        W73283  17.352  22.650   3.226
 6743W        W73284  22.110  44.337  12.528
 6744W        W73285  16.474  42.809  10.725
 6745W        W73286  20.020  44.498   3.638
 6746W        W73287  43.202  26.388   0.301
 6747W        W73288  42.723  10.871  11.528
 6748W        W73289  13.564  10.799   4.561
 6749W        W73290  18.522  34.839  13.957
 6750W        W73291  42.475  37.967   2.408
 6751W        W73292   4.272   2.628   1.232
 6752W        W73293  12.048  11.387   2.995
 6753W        W73294  30.673  24.541  11.708
 6754W        W73295   4.172  37.999   2.865
 6755W        W73296  10.300  32.532   3.010
 6756W        W73297  25.493   7.794  14.425
 6757W        W73298   2.988  26.184   2.741
 6758W        W73299   7.101  19.197  12.030
 6759W        W73300  27.149  23.196  14.119
 6760W        W73301  29.962  32.638  14.068
 6761W        W73302  13.092   7.196  11.411
 6762W        W73303   9.491  11.407  11.167
 6763W        W73304   5.017  35.493   2.264
 6764W        W73305  19.267  26.552  11.942
 6765W        W73306  15.277  36.821   0.606
 6766W        W73307  20.190   8.923  11.591
 6767W        W73308   7.893   3.979   0.410
 6768W        W73309   1.270  23.438  12.817
 6769W        W73310  41.783  33.330  13.490
 6770W        W73311  31.051  34.387   3.737
 6771W        W73312  14.165  35.083  11.263
 6772W        W73313   6.133   8.256   0.277
 6773W        W73314  13.129  20.450   2.219
 6774W        W73315  24.495   1.630  10.807
 6775W        W73316  40.380  12.859  12.062
 6776W        W73317  32.317   2.734  13.939
 6777W        W73318  29.055  12.164   0.318
 6778W        W73319  28.526   9.249   1.903
 6779W        W73320  43.875  20.677   3.263
 6780W        W73321  18.820   0.710  13.304
 6781W        W73322  10.742   6.872  12.559
 6782W        W73323  34.501  14.055   0.560
 6783W        W73324  34.909   7.912   1.165
 6784W        W73325  37.606  27.700  14.489
 6785W        W73326  21.124   3.254  10.422
 6786W        W73327  16.800  22.812  11.630
 6787W        W73328  34.037   9.368  14.406
 6788W        W73329  41.005  20.724  13.112
 6789W        W73330  40.141   7.896   2.734
 6790W        W73331  18.679  35.011   0.588
 6791W        W73332  12.477  18.163  10.746
 6792W        W73333  10.208  12.113  14.795
 6793W        W73334  25.507  38.905  12.134
 6794W        W73335  26.215  40.599   0.330
 6795W        W73336  44.451  21.990   0.863
 6796W        W73337  40.833  23.216   4.401
 6797W        W73338  37.375   8.298   4.091
 6798W        W73339  13.442  26.432  11.684
 6799W        W73340  17.700  24.026   0.509
 6800W        W73341  35.486  26.119   0.692
 6801W        W73342  36.363  22.195  13.456
 6802W        W73343  42.967  31.886  11.545
 6803W        W73344  11.379  23.182   2.193
 6804W        W73345  34.576  24.435   1.904
 6805W        W73346  32.729   0.441   0.314
 6806W        W73347  22.570  35.439  11.705
 6807W        W73348   4.268  17.402  13.763
 6808W        W73349  40.921  27.600   0.038
 6809W        W73350  27.671  15.990  14.325
 6810W        W73351  19.153   5.653  10.114
 6811W        W73352  30.362  42.924  13.064
 6812W        W73353  33.328  15.481  10.997
 6813W        W73354  37.086  43.343  14.243
 6814W        W73355  41.039  35.729  13.549
 6815W        W73356   4.909  13.622  11.203
 6816W        W73357  27.941  32.525  13.241
 6817W        W73358  26.062  39.125   0.481
 6818W        W73359  17.075  27.270   4.453
 6819W        W73360  10.430  17.142   3.655
 6820W        W73361  23.508   8.723   2.704
 6821W        W73362   0.396  10.672   1.794
 6822W        W73363   0.809  26.038   3.357
 6823W        W73364  41.973  29.098  12.583
 6824W        W73365   5.173  21.514   1.406
 6825W        W73366  44.155  17.850   4.420
 6826W        W73367   1.106  40.876   4.331
 6827W        W73368  43.252  23.664   1.901
 6828W        W73369  42.350   9.928  11.591
 6829W        W73370  44.377  34.391   4.832
 6830W        W73371   8.262  22.200   1.328
 6831W        W73372   1.422  30.714   4.699
 6832W        W73373   5.537  30.983   0.362
 6833W        W73374  12.859   3.554  11.141
 6834W        W73375  19.280   7.709   2.787
 6835W        W73376  43.792  35.170   2.711
 6836W        W73377   6.247  12.731  11.157
 6837W        W73378  20.070  39.317   1.203
 6838W        W73379  12.764  37.249   1.390
 6839W        W73380  30.670   1.894   2.864
 6840W        W73381  30.435   3.846  10.233
 6841W        W73382  22.211  25.455  13.292
 6842W        W73383  32.854  14.310  12.490
 6843W        W73384  16.299  18.009  11.267
 6844W        W73385  14.140  16.341  12.119
 6845W        W73386   7.781  40.258  12.411
 6846W        W73387  19.238  37.775  13.818
 6847W        W73388  32.717   5.887  14.839
 6848W        W73389  35.129  34.827   2.302
 6849W        W73390   7.140  28.894  11.215
 6850W        W73391  11.856   9.802  14.955
 6851W        W73392   5.772  31.943  13.849
 6852W        W73393  28.849  21.475   2.423
 6853W        W73394  33.291  21.769  10.629
 6854W        W73395  15.063   3.287  13.424
 6855W        W73396  30.986   1.028   0.818
 6856W        W73397  24.302  43.700   2.648
 6857W        W73398  10.744   7.160   4.219
 6858W        W73399  19.719  10.906  12.409
 6859W        W73400  20.747  17.183  14.465
 6860W        W73401  35.308  20.860  11.909
 6861W        W73402  21.983  33.078   4.636
 6862W        W73403  17.388  20.514  14.226
 6863W        W73404  40.109  34.614   1.470
 6864W        W73405  14.595  32.734  10.813
 6865W        W73406   3.425  13.926   0.279
 6866W        W73407   6.718   6.613   3.765
 6867W        W73408  19.282  32.563   0.206
 6868W        W73409  24.781  44.571   1.029
 6869W        W73410  25.302   4.263   3.130
 6870W        W73411  20.362  42.045  12.432
 6871W        W73412  13.703   8.159   2.745
 6872W        W73413  32.902  18.742  13.830
 6873W        W73414  11.379  38.438   4.637
 6874W        W73415  26.827  26.632  13.098
 6875W        W73416  39.846   7.220  11.452
 6876W        W73417  24.539  10.708   3.414
 6877W        W73418   6.172   7.100   0.727
 6878W        W73419  17.731  26.697   2.648
 6879W        W73420  28.949   5.465   0.701
 6880W        W73421  14.824  26.101   1.868
 6881W        W73422  37.946  11.470  11.992
 6882W        W73423  23.382  24.760   1.403
 6883W        W73424   5.872  39.983   3.698
 6884W        W73425   7.013   1.264   1.275
 6885W        W73426  14.167  19.794   0.267
 6886W        W73427  40.557  10.231   3.020
 6887W        W73428  23.256  38.428   1.739
 6888W        W73429  27.947  23.058  12.005
 6889W        W73430  26.578  39.234   1.442
 6890W        W73431  18.225  18.685  10.622
 6891W        W73432  33.285  41.984   3.380
 6892W        W73433  33.465  40.617   4.018
 6893W        W73434  36.554  16.659   2.651
 6894W        W73435  11.551  10.308  11.129
 6895W        W73436   4.992  39.491   4.094
 6896W        W73437  12.754  17.674   3.809
 6897W        W73438  43.423  39.981  14.265
 6898W        W73439  42.047  31.182  13.695
 6899W        W73440  29.494   9.803  14.717
 6900W        W73441  42.814  42.026   0.775
 6901W        W73442  14.654  24.259   4.198
 6902W        W73443  40.245  31.055  12.059
 6903W        W73444   3.910  27.360  11.421
 6904W        W73445  40.083  19.097  11.982
 6905W        W73446  28.583   1.205  13.997
 6906W        W73447  17.311  22.798  14.118
 6907W        W73448  29.610  27.647   3.185
 6908W        W73449   1.456  10.141   2.915
 6909W        W73450  12.725  41.601   2.653
 6910W        W73451  11.926  21.529   0.315
 6911W        W73452  41.019  20.670   4.574
 6912W        W73453  16.755  37.747   3.819
 6913W        W73454  30.815  38.909  13.917
 6914W        W73455  14.017  19.661  11.840
 6915W        W73456  39.442  33.763  14.059
 6916W        W73457  11.756  29.950   0.650
 6917W        W73458  28.000   1.002  10.544
 6918W        W73459  25.524   2.182   9.942
 6919W        W73460  36.066  42.508   0.801
 6920W        W73461  13.851  25.198   0.146
 6921W        W73462  36.952  34.131   0.020
 6922W        W73463  12.143  10.324  12.183
 6923W        W73464  23.871  36.224   0.897
 6924W        W73465  35.650   0.364  11.398
 6925W        W73466  30.024   1.310   5.003
 6926W        W73467  20.413  18.076  10.678
 6927W        W73468  23.589  28.837   1.661
 6928W        W73469   9.838  42.208   0.407
 6929W        W73470   2.274  25.518   0.006
 6930W        W73471  37.598  15.988  12.072
 6931W        W73472  17.408  32.903  10.614
 6932W        W73473   9.635  24.491  10.889
 6933W        W73474  30.663  41.540  10.593
 6934W        W73475  40.711   4.491  11.214
 6935W        W73476  26.263   6.318  10.991
 6936W        W73477  34.166  24.675  14.959
 6937W        W73478  15.120  25.586  11.593
 6938W        W73479  21.782  32.365  14.931
 6939W        W73480  40.851  29.972  14.410
 6940W        W73481  21.039   2.211  13.767
 6941W        W73482  19.616   8.692   3.306
 6942W        W73483  42.415  18.251  12.910
 6943W        W73484  36.836   1.906  14.729
 6944W        W73485  17.536   4.718   1.347
 6945W        W73486  43.836  40.956  10.826
 6946W        W73487  14.504  25.031  13.410
 6947W        W73488  15.521   7.299  12.366
 6948W        W73489  26.301  12.086  12.094
 6949W        W73490  17.032   6.399   2.921
 6950W        W73491  14.878  19.640  11.528
 6951W        W73492  40.581  28.906  13.922
 6952W        W73493   9.688  24.368  11.553
 6953W        W73494  12.065  30.732   1.384
 6954W        W73495  27.105  22.089   0.819
 6955W        W73496  36.013  29.398   4.103
 6956W        W73497  32.458  35.092  14.384
 6957W        W73498   4.663   7.637   4.536
 6958W        W73499  10.071  36.494  13.137
 6959W        W73500  30.427   9.441  14.413
 6960W        W73501  19.664  10.166  14.286
 6961W        W73502   8.860  42.771   5.258
 6962W        W73503  37.008  19.049   4.141
 6963W        W73504  12.217  36.545   1.789
 6964W        W73505  35.442  33.838   4.239
 6965W        W73506   4.969   3.373   2.617
 6966W        W73507   0.370  26.029  10.951
 6967W        W73508  21.088  39.391  12.069
 6968W        W73509  14.229  23.125   4.566
 6969W        W73510  39.080  33.507   0.348
 6970W        W73511  14.837  17.190  10.629
 6971W        W73512  12.588  29.053   4.231
 6972W        W73513  28.511  34.991  13.488
 6973W        W73514   8.903  32.345   2.879
 6974W        W73515   5.507  20.002   2.978
 6975W        W73516   8.441  18.608   2.664
 6976W        W73517  26.179  39.920   0.949
 6977W        W73518   4.890   0.080   0.394
 6978W        W73519  13.416  25.393  14.924
 6979W        W73520  35.129  20.831   0.223
 6980W        W73521  22.029  31.677  11.615
 6981W        W73522  16.597  41.687   3.083
 6982W        W73523  43.376  23.093  12.517
 6983W        W73524   7.923   6.822   3.157
 6984W        W73525  20.053  29.153   4.002
 6985W        W73526  23.492   3.277   3.647
 6986W        W73527   2.638  10.380  14.492
 6987W        W73528  27.131  25.449  12.558
 6988W        W73529  29.449  36.669   0.973
 6989W        W73530  21.467  18.547   2.942
 6990W        W73531   6.067  11.725  14.418
 6991W        W73532  32.199  22.596  13.083
 6992W        W73533  31.398   5.976  13.850
 6993W        W73534  30.635  26.512  11.124
 6994W        W73535  30.233   5.116  11.686
 6995W        W73536  28.861  18.800  14.053
 6996W        W73537  36.963  20.160   3.076
 6997W        W73538  23.284  41.643  11.073
 6998W        W73539  42.781  17.975   0.428
 6999W        W73540   7.234  10.371   0.751
 7000W        W73541  25.118  36.709   2.829
 7001W        W73542  13.620  17.358  13.527
 7002W        W73543  16.666  37.340   0.986
 7003W        W73544  11.072  33.360   2.552
 7004W        W73545  29.917   2.467   2.805
 7005W        W73546  29.571  40.838  13.746
 7006W        W73547  40.148  34.445   4.617
 7007W        W73548   1.316  18.893   3.471
 7008W        W73549  37.385   3.434  13.413
 7009W        W73550  44.521  16.211   0.999
 7010W        W73551  40.282  19.189   0.793
 7011W        W73552  21.679  28.165  12.097
 7012W        W73553   3.456  19.530   1.116
 7013W        W73554  12.833  36.678  11.715
 7014W        W73555  41.518   2.312   2.799
 7015W        W73556  38.413  33.206  12.516
 7016W        W73557  11.958  22.252  13.271
 7017W        W73558   3.739  12.795   2.923
 7018W        W73559   7.647  41.603   2.253
 7019W        W73560  41.866   8.973  11.976
 7020W        W73561  28.725  15.649  13.786
 7021W        W73562  30.545  19.075  13.463
 7022W        W73563   0.951   7.676   0.977
 7023W        W73564  29.509  39.681   3.457
 7024W        W73565  31.485  13.379  13.880
 7025W        W73566   7.817  36.281  10.234
 7026W        W73567  42.473  36.992   1.979
 7027W        W73568   6.397  15.199   2.718
 7028W        W73569   6.490  34.878  14.566
 7029W        W73570   0.790  16.129   0.016
 7030W        W73571  20.108  44.876   4.021
 7031W        W73572   5.112   4.793   1.009
 7032W        W73573  14.797  33.534   3.979
 7033W        W73574  25.321   9.231   4.483
 7034W        W73575  29.858  16.714  12.118
 7035W        W73576   1.819   1.761  13.521
 7036W        W73577   5.769  42.872   0.367
 7037W        W73578  42.617  27.395   3.572
 7038W        W73579  30.471  27.965  14.482
 7039W        W73580  34.133  42.036   1.715
 7040W        W73581  16.646  23.271  10.880
 7041W        W73582  37.580   9.109   3.683
 7042W        W73583  32.413  39.014  10.567
 7043W        W73584  43.527  10.865  12.902
 7044W        W73585   6.099   0.811  10.289
 7045W        W73586   5.702  42.615   1.759
 7046W        W73587  21.139  15.246   1.267
 7047W        W73588  23.795  30.943   4.187
 7048W        W73589  27.487   7.813   3.399
 7049W        W73590  36.528  23.403  13.098
 7050W        W73591  40.295  18.713   4.987
 7051W        W73592  42.311  42.780  11.989
 7052W        W73593  25.778  30.443   3.670
 7053W        W73594  16.264   2.879   3.663
 7054W        W73595  25.204  33.662   1.219
 7055W        W73596  13.500  27.887   3.685
 7056W        W73597   1.177   0.473   0.924
 7057W        W73598  12.619  16.758   1.466
 7058W        W73599  32.869  31.565  12.076
 7059W        W73600   9.694  40.996   1.283
 7060W        W73601  36.047   7.167   3.095
 7061W        W73602  22.827  34.671   4.971
 7062W        W73603   2.433  41.236   1.206
 7063W        W73604  21.465   9.781   2.740
 7064W        W73605  42.201  33.537   5.021
 7065W        W73606  34.356  39.332   3.545
 7066W        W73607  24.588   2.532  12.993
 7067W        W73608   7.598   5.784  12.478
 7068W        W73609  41.808   6.672  12.415
 7069W        W73610  27.932  33.457  11.964
 7070W        W73611  27.567  41.476   2.537
 7071W        W73612  19.724   3.205  12.880
 7072W        W73613  24.029  29.645   1.800
 7073W        W73614  18.624  10.775   4.654
 7074W        W73615  29.875  28.901  13.709
 7075W        W73616  25.774  26.593  10.341
 7076W        W73617  32.152  14.659   0.718
 7077W        W73618   1.861  43.547  14.862
 7078W        W73619  39.995  19.583   4.623
 7079W        W73620  40.101  40.017   2.285
 7080W        W73621   4.166   1.415   3.996
 7081W        W73622  38.372  36.531  13.065
 7082W        W73623  25.605  41.952   0.962
 7083W        W73624  22.062  14.284   2.721
 7084W        W73625  20.332  12.194  11.895
 7085W        W73626   8.253  22.307   4.563
 7086W        W73627  19.839   4.258   2.427
 7087W        W73628  32.189  14.774  10.540
 7088W        W73629   9.953   8.239  12.310
 7089W        W73630   6.452  28.066  10.001
 7090W        W73631  31.558  39.565  13.769
 7091W        W73632   3.160  34.949   0.835
 7092W        W73633  36.944   7.471   1.353
 7093W        W73634  29.080  44.605   2.254
 7094W        W73635  42.576   7.295  11.501
 7095W        W73636  10.366   0.232   0.192
 7096W        W73637   1.277  40.077   4.119
 7097W        W73638   4.423  15.115  13.388
 7098W        W73639   3.075   1.394  14.529
 7099W        W73640  11.534   2.357  11.988
 7100W        W73641  31.522   6.832   1.784
 7101W        W73642   1.690  34.373  11.633
 7102W        W73643   1.380  24.556  12.053
 7103W        W73644  13.698  23.455  11.570
 7104W        W73645  30.975  22.271   0.443
 7105W        W73646  18.157  18.758   3.236
 7106W        W73647  20.224  36.342  14.317
 7107W        W73648  36.916  24.247  12.761
 7108W        W73649  34.832  35.269  10.804
 7109W        W73650  13.108  26.294   0.951
 7110W        W73651  34.192  11.293   0.704
 7111W        W73652  24.409  23.681   3.164
 7112W        W73653  31.016  25.125  12.501
 7113W        W73654  36.469  44.148   2.877
 7114W        W73655  17.081  35.455  12.602
 7115W        W73656  13.797  21.047  12.991
 7116W        W73657  36.948  36.133  11.695
 7117W        W73658  21.970  28.226   3.229
 7118W        W73659  31.703  40.436  10.808
 7119W        W73660  31.066  38.508   1.892
 7120W        W73661   8.940  41.728   3.316
 7121W        W73662  23.280  34.004  10.621
 7122W        W73663  32.424  15.713   1.400
 7123W        W73664  16.350  19.639   4.521
 7124W        W73665  35.831  27.696  12.438
 7125W        W73666  11.265  40.738   3.770
 7126W        W73667  12.933  44.876   2.380
 7127W        W73668   6.466  32.114   3.086
 7128W        W73669  31.006  26.882   2.627
 7129W        W73670   1.649   4.330  11.112
 7130W        W73671  18.502  42.638  14.876
 7131W        W73672  43.243  28.367  13.417
 7132W        W73673  42.303  17.005   0.784
 7133W        W73674   9.177  13.644  14.008
 7134W        W73675   5.238  13.281   3.992
 7135W        W73676  18.635   3.904  12.322
 7136W        W73677   2.811  40.555   3.316
 7137W        W73678  23.192  41.570  14.891
 7138W        W73679  28.222  32.542   2.850
 7139W        W73680  27.149  20.841   1.348
 7140W        W73681  32.097  12.343   0.403
 7141W        W73682  21.147  18.300   3.247
 7142W        W73683  35.748  10.393  12.012
 7143W        W73684   9.711  20.133  11.034
 7144W        W73685   7.899  31.558  12.807
 7145W        W73686  38.580  33.872   3.617
 7146W        W73687  35.121  15.210   4.380
 7147W        W73688  31.508  15.097   3.965
 7148W        W73689   8.780  38.015  12.426
 7149W        W73690  20.625  16.379  10.678
 7150W        W73691  26.407  37.091  10.046
 7151W        W73692  15.142  44.978   4.341
 7152W        W73693  19.468  10.802   3.737
 7153W        W73694  44.937  24.522  12.023
 7154W        W73695   0.943   7.623   0.008
 7155W        W73696  40.036   6.113  14.221
 7156W        W73697   5.401  22.173  12.058
 7157W        W73698  13.461  22.854  14.569
 7158W        W73699   0.993  22.287  10.172
 7159W        W73700   5.658  20.732   1.644
 7160W        W73701  17.626   8.881   5.016
 7161W        W73702   1.270  22.195   2.212
 7162W        W73703  30.344  25.971   1.431
 7163W        W73704  27.978  41.802  11.639
 7164W        W73705  18.358   0.447  14.038
 7165W        W73706  14.611  31.501   0.712
 7166W        W73707  27.785  34.073   1.025
 7167W        W73708   7.179  29.895  12.515
 7168W        W73709  26.318   0.858  10.414
 7169W        W73710  32.407  13.221   2.756
 7170W        W73711   4.058  31.841   0.714
 7171W        W73712  43.435  20.662  12.548
 7172W        W73713  19.902   6.989   4.535
 7173W        W73714  14.572  44.375  13.047
 7174W        W73715  40.652   3.816  11.740
 7175W        W73716  10.176  19.171   0.883
 7176W        W73717  19.667   2.020  13.949
 7177W        W73718  11.203  28.293   0.151
 7178W        W73719   6.148  24.499  12.465
 7179W        W73720  25.746  37.505  14.029
 7180W        W73721  35.200   4.420  11.178
 7181W        W73722  43.991  12.710  10.549
 7182W        W73723  27.681  27.144  13.553
 7183W        W73724  25.593  43.435   4.921
 7184W        W73725  42.827  31.409   0.959
 7185W        W73726  37.329  28.019   0.824
 7186W        W73727  23.479  16.032  13.037
 7187W        W73728  43.918  37.605   4.644
 7188W        W73729  11.642   9.133  13.854
 7189W        W73730  24.644  18.764   2.131
 7190W        W73731   6.388  32.316  14.175
 7191W        W73732  22.303  24.127   2.411
 7192W        W73733  44.371  11.726   0.187
 7193W        W73734  31.564  44.938   0.801
 7194W        W73735   6.679  23.543   0.804
 7195W        W73736  26.936  16.071   4.964
 7196W        W73737  42.711  31.060  14.456
 7197W        W73738  25.467  40.459   0.940
 7198W        W73739   5.161  35.226  10.346
 7199W        W73740  18.466  30.897   4.686
 7200W        W73741  12.735  31.659  13.905
 7201W        W73742  42.518  28.495   2.358
 7202W        W73743  24.232  27.440  13.021
 7203W        W73744  29.128  14.262   4.907
 7204W        W73745   7.579  18.301   1.379
 7205W        W73746  38.543  42.228   4.562
 7206W        W73747  21.041   1.711  13.954
 7207W        W73748  18.625   7.924   1.659
 7208W        W73749   0.336  14.028   0.945
 7209W        W73750   8.714  31.694  10.006
 7210W        W73751   2.748   0.553   0.950
 7211W        W73752  26.984  38.762  10.528
 7212W        W73753  17.227  33.369   0.471
 7213W        W73754   0.237  37.120   0.864
 7214W        W73755  13.568  10.215  13.930
 7215W        W73756  31.122  40.931  14.235
 7216W        W73757  42.983  38.320  12.674
 7217W        W73758  44.932  41.344  10.773
 7218W        W73759  25.257  30.853   4.152
 7219W        W73760  11.238  42.290   4.356
 7220W        W73761  39.628  30.519   2.146
 7221W        W73762  19.639  20.071  11.651
 7222W        W73763   6.503   1.385  11.382
 7223W        W73764  20.560  11.805  12.955
 7224W        W73765  27.206  15.095  12.166
 7225W        W73766  36.086  32.520   4.151
 7226W        W73767  13.461  12.301  14.363
 7227W        W73768  44.262  16.721   0.259
 7228W        W73769   6.555  39.808  12.163
 7229W        W73770  25.396   4.330   2.211
 7230W        W73771  40.858  35.097  10.519
 7231W        W73772   7.340  37.008  12.652
 7232W        W73773  14.681  18.501  12.902
 7233W        W73774  32.938  42.008  13.929
 7234W        W73775  33.910  36.945   0.222
 7235W        W73776  44.303  44.188   4.117
 7236W        W73777  29.920  10.826   4.812
 7237W        W73778  21.969  17.109   2.853
 7238W        W73779   7.245  34.519   0.847
 7239W        W73780  11.270   5.381  14.476
 7240W        W73781   0.958  17.121   3.356
 7241W        W73782  37.206   4.738   2.537
 7242W        W73783  26.050  22.176  12.675
 7243W        W73784  20.478  34.140  13.393
 7244W        W73785  22.918  13.321  13.520
 7245W        W73786   7.354   3.399  12.396
 7246W        W73787  34.503   1.711   4.136
 7247W        W73788  39.817  31.931   1.861
 7248W        W73789   3.444   5.518  10.569
 7249W        W73790  21.184  14.832   4.395
 7250W        W73791  40.480   8.972  11.918
 7251W        W73792  38.771  13.881  11.761
 7252W        W73793  12.670  35.683   1.894
 7253W        W73794  40.866  33.685  12.752
 7254W        W73795   6.503  11.429  13.545
 7255W        W73796  33.021  22.710   1.127
 7256W        W73797  24.865  30.346   0.679
 7257W        W73798   1.351  30.847   1.909
 7258W        W73799  23.500   3.768  13.007
 7259W        W73800  32.856  44.552  13.989
 7260W        W73801   5.461  11.296  13.777
 7261W        W73802  38.967  31.631  10.126
 7262W        W73803  28.559  31.736   4.855
 7263W        W73804  14.263  28.134  10.729
 7264W        W73805  30.802  12.089  10.644
 7265W        W73806   5.769  40.748  12.293
 7266W        W73807  16.253  12.901  12.931
 7267W        W73808  30.011   8.163  14.482
 7268W        W73809  13.415   3.865  12.469
 7269W        W73810   3.341  28.291   2.426
 7270W        W73811   5.804  24.093  11.242
 7271W        W73812  27.392  43.989  13.014
 7272W        W73813  16.741  13.794   1.668
 7273W        W73814  35.153   8.698  13.129
 7274W        W73815  32.404   7.202  14.596
 7275W        W73816   9.694   6.256  14.865
 7276W        W73817  37.365  21.692  14.740
 7277W        W73818  15.984  42.505  10.754
 7278W        W73819   3.446  16.556   4.891
 7279W        W73820  43.050  12.842  10.320
 7280W        W73821  27.246  43.967   3.288
 7281W        W73822  21.560  38.881  14.401
 7282W        W73823  38.971   4.949   2.157
 7283W        W73824  18.076  11.174  13.073
 7284W        W73825  32.898   8.823   1.225
 7285W        W73826  35.318  42.505  14.439
 7286W        W73827  41.665  42.893  11.182
 7287W        W73828  16.711  27.633   0.378
 7288W        W73829  44.176  32.107  10.327
 7289W        W73830  14.845  23.666  13.516
 7290W        W73831   1.321   0.475  12.548
 7291W        W73832  22.056  36.618   3.275
 7292W        W73833  41.012  37.354  13.834
 7293W        W73834   7.847  10.438   2.308
 7294W        W73835  11.680  15.546   3.700
 7295W        W73836   1.692  32.077   1.752
 7296W        W73837  12.317  21.307   2.252
 7297W        W73838  33.655  15.708   4.421
 7298W        W73839  25.490  22.103   1.315
 7299W        W73840  27.805  36.824  13.128
 7300W        W73841  16.811   9.660  14.356
 7301W        W73842  27.043  13.706   2.259
 7302W        W73843  30.495  30.492  14.571
 7303W        W73844  33.843   7.413  12.133
 7304W        W73845  27.638   1.183   2.801
 7305W        W73846   4.675  34.453   3.812
 7306W        W73847  18.226  21.226  14.889
 7307W        W73848  41.298  13.778  14.721
 7308W        W73849  13.172  41.270   0.503
 7309W        W73850   9.182  36.485   3.645
 7310W        W73851  34.646  36.726   4.516
 7311W        W73852  38.267  26.600   1.887
 7312W        W73853  10.205  33.011  13.011
 7313W        W73854  11.147  10.382  12.405
 7314W        W73855  22.663  11.836   1.946
 7315W        W73856  27.103  34.616   1.614
 7316W        W73857   1.821  13.983  11.173
 7317W        W73858  10.411  23.439   4.140
 7318W        W73859  14.259  10.174  12.582
 7319W        W73860   3.605  32.474  13.620
 7320W        W73861  28.101  35.077   3.782
 7321W        W73862  37.564  18.152  13.264
 7322W        W73863  24.411  19.103   0.780
 7323W        W73864   4.897  16.859  13.463
 7324W        W73865  15.663  20.025   3.309
 7325W        W73866   4.917  11.535  11.124
 7326W        W73867  25.727  42.120  12.972
 7327W        W73868   5.646  25.923   3.297
 7328W        W73869   7.296  10.840   3.826
 7329W        W73870   8.880  41.036  11.202
 7330W        W73871   8.798  28.443  13.933
 7331W        W73872  22.700  33.641  14.006
 7332W        W73873  22.384  26.500   4.167
 7333W        W73874  38.610  12.712  12.464
 7334W        W73875   0.423  37.983   4.688
 7335W        W73876   3.368  40.078   2.640
 7336W        W73877  40.777   4.265  14.159
 7337W        W73878  13.996  24.879  13.521
 7338W        W73879  40.745  15.631  13.499
 7339W        W73880  21.613   1.082   4.716
 7340W        W73881  38.075  41.751  13.952
 7341W        W73882  11.344  14.239   3.249
 7342W        W73883  33.731   9.151  13.066
 7343W        W73884  43.433  21.908  13.967
 7344W        W73885  24.240   2.865   4.791
 7345W        W73886  35.895  27.716  14.006
 7346W        W73887  36.294  33.132  14.526
 7347W        W73888  43.778  38.442   3.753
 7348W        W73889  12.501  16.112   0.824
 7349W        W73890  40.862  23.563  12.194
 7350W        W73891   8.271  16.069   2.817
 7351W        W73892  37.881   6.010   0.872
 7352W        W73893  20.823  20.382   3.719
 7353W        W73894   8.393   9.850   3.748
 7354W        W73895  13.198   7.358   3.682
 7355W        W73896  22.396   8.891  12.651
 7356W        W73897  17.230  17.742  10.869
 7357W        W73898  39.040  39.452  13.388
 7358W        W73899   2.656   6.998   0.759
 7359W        W73900  10.391  41.893  13.571
 7360W        W73901   5.438   4.202   2.286
 7361W        W73902  15.606  29.593  10.274
 7362W        W73903  32.124  17.328  13.108
 7363W        W73904  42.889  16.539  12.033
 7364W        W73905  28.272   4.581  13.404
 7365W        W73906  31.985  31.078  12.915
 7366W        W73907  38.513  19.477  12.589
 7367W        W73908   3.027  12.293  13.551
 7368W        W73909   7.972  41.232   5.116
 7369W        W73910  18.267  36.425  12.637
 7370W        W73911  13.394  36.309   1.182
 7371W        W73912  17.633   6.192   1.222
 7372W        W73913  36.952   6.693  11.747
 7373W        W73914  10.397  44.003  13.882
 7374W        W73915  41.220  17.582  14.761
 7375W        W73916  18.965  27.231  12.574
 7376W        W73917   9.467   4.660   2.621
 7377W        W73918  17.157  43.898  13.058
 7378W        W73919   5.223  29.670   0.418
 7379W        W73920   1.815  15.148   3.033
 7380W        W73921   3.854  16.110   2.764
 7381W        W73922  24.089  41.763  10.548
 7382W        W73923   9.878  28.053  14.929
 7383W        W73924  33.598  19.248  13.818
 7384W        W73925   0.684  18.135  12.085
 7385W        W73926  35.406  41.836  12.159
 7386W        W73927  14.529  38.750  14.975
 7387W        W73928  21.323  12.235   0.445
 7388W        W73929  25.993  18.360  12.044
 7389W        W73930  22.787  17.088   5.228
 7390W        W73931  37.844  13.803   2.694
 7391W        W73932  28.218  39.010   3.284
 7392W        W73933  10.323  29.603  12.647
 7393W        W73934  31.651   6.229  10.998
 7394W        W73935  27.115  10.331   2.910
 7395W        W73936  38.947   1.947  10.899
 7396W        W73937   1.755  36.065  13.496
 7397W        W73938  26.525  41.997   1.822
 7398W        W73939  13.244  24.325   1.258
 7399W        W73940   9.789  30.041  11.593
 7400W        W73941   5.405  32.739  11.873
 7401W        W73942  25.335  19.605  12.470
 7402W        W73943   1.324  13.639   4.377
 7403W        W73944  32.131  19.609   0.523
 7404W        W73945  42.901  43.923   2.783
 7405W        W73946  26.068  16.879  11.592
 7406W        W73947   8.340   5.191  12.073
 7407W        W73948  19.611   8.169   1.902
 7408W        W73949  12.877  44.806  13.910
 7409W        W73950  43.432  33.823   2.245
 7410W        W73951  44.853   8.700   0.013
 7411W        W73952  26.403  14.478  12.853
 7412W        W73953  17.974  25.127   2.273
 7413W        W73954  34.944  34.379   3.155
 7414W        W73955  13.534  35.458   1.548
 7415W        W73956  21.610  12.814  11.273
 7416W        W73957  43.628  14.757   0.289
 7417W        W73958   6.447  24.784  10.082
 7418W        W73959  14.778   9.547   0.018
 7419W        W73960  15.351  26.151  12.478
 7420W        W73961  18.705  35.685  10.806
 7421W        W73962   1.955  34.151  14.905
 7422W        W73963  24.699  44.038  12.935
 7423W        W73964  22.333   1.807  11.920
 7424W        W73965   4.669  34.509   1.429
 7425W        W73966  23.069  14.482   1.007
 7426W        W73967  32.548  22.120   3.279
 7427W        W73968  32.041   6.214  12.961
 7428W        W73969  29.188  15.688   2.480
 7429W        W73970  16.026  28.938   4.579
 7430W        W73971  24.899  22.074  11.074
 7431W        W73972  41.138  10.197  12.087
 7432W        W73973   4.431  35.355  13.928
 7433W        W73974  26.020  24.716   0.940
 7434W        W73975  27.496  30.712  14.086
 7435W        W73976   2.473  11.680   3.669
 7436W        W73977  25.962  37.328  13.101
 7437W        W73978  42.327  19.999   2.073
 7438W        W73979  42.856  22.921  13.792
 7439W        W73980  21.219  18.041   3.699
 7440W        W73981  22.012  27.138   1.957
 7441W        W73982  42.324  44.697  14.739
 7442W        W73983  11.496  22.832  12.255
 7443W        W73984   2.497  25.813   2.671
 7444W        W73985  31.927   6.091   0.470
 7445W        W73986  41.527  14.400   3.589
 7446W        W73987   6.847  43.820  10.706
 7447W        W73988   0.807  13.888  13.440
 7448W        W73989   9.125   0.698  14.314
 7449W        W73990  16.190   3.751  13.010
 7450W        W73991   1.013   3.992   5.039
 7451W        W73992  43.852  14.234   1.138
 7452W        W73993  31.260   4.004  14.772
 7453W        W73994  29.385  15.625   3.456
 7454W        W73995   3.779  39.388  13.353
 7455W        W73996  24.354   9.130   2.776
 7456W        W73997  19.790   4.217   0.341
 7457W        W73998  43.518   3.806  10.974
 7458W        W73999   3.866  36.609  12.949
 7459W        W74000  21.458  23.245  11.363
 7460W        W74001  40.295  40.677  12.205
 7461W        W74002  43.890   3.539   1.791
 7462W        W74003  28.770  22.524   3.605
 7463W        W74004  27.218   4.679   4.572
 7464W        W74005  30.549   1.920   3.778
 7465W        W74006   3.805   4.571  10.866
 7466W        W74007  22.778  31.595  12.112
 7467W        W74008  35.377   4.657   0.817
 7468W        W74009  31.958  16.292  11.551
 7469W        W74010  30.148  20.830   3.636
 7470W        W74011  29.605   0.836  13.926
 7471W        W74012   2.696  33.157   4.556
 7472W        W74013   2.473  26.304   2.786
 7473W        W74014  15.597  41.756   0.737
 7474W        W74015  31.372  18.703  14.969
 7475W        W74016  36.889  22.017  10.646
 7476W        W74017  36.941   1.525   4.491
 7477W        W74018  33.338  15.223   2.412
 7478W        W74019   3.506  17.025  13.418
 7479W        W74020   7.310   2.362   1.302
 7480W        W74021   6.409   5.692  14.456
 7481W        W74022   3.090  28.427  13.926
 7482W        W74023  10.788   8.952  14.834
 7483W        W74024  41.474  27.737   1.530
 7484W        W74025  24.915  37.169  13.933
 7485W        W74026  36.625  29.904   2.325
 7486W        W74027  32.111   7.751   4.538
 7487W        W74028  41.794  32.754   1.889
 7488W        W74029  37.568  36.123   2.709
 7489W        W74030  26.207  10.057  13.488
 7490W        W74031  20.318   7.950  11.211
 7491W        W74032  43.007  27.433  11.586
 7492W        W74033  11.222  33.826   0.769
 7493W        W74034  16.076  28.863  11.710
 7494W        W74035  35.136  11.348  12.990
 7495W        W74036  36.888  11.829   0.521
 7496W        W74037  25.616  25.576  10.767
 7497W        W74038  22.772   5.276   3.110
 7498W        W74039  16.759   5.450   2.768
 7499W        W74040  33.982   0.540   2.778
 7500W        W74041  36.560   2.935   4.951
 7501W        W74042  26.705  39.541   1.855
 7502W        W74043  21.534   0.038  14.827
 7503W        W74044  12.174  30.101  11.115
 7504W        W74045   1.541  10.200   1.225
 7505W        W74046  31.970  15.338   2.939
 7506W        W74047  41.744  10.702  11.572
 7507W        W74048  14.445  12.622  12.054
 7508W        W74049  13.199  26.651   2.270
 7509W        W74050   5.072  15.201  11.174
 7510W        W74051  36.580  31.922   0.338
 7511W        W74052  30.426  19.161   3.743
 7512W        W74053  36.890   9.466   4.186
 7513W        W74054  24.214   8.444   1.656
 7514W        W74055   2.193  29.873   5.399
 7515W        W74056   6.330  38.871  11.583
 7516W        W74057  29.725  33.626  11.692
 7517W        W74058  43.442  14.589  11.868
 7518W        W74059  42.104  14.930  10.379
 7519W        W74060  19.406  26.188   2.981
 7520W        W74061   8.745   0.542  11.643
 7521W        W74062   7.739   4.722  14.236
 7522W        W74063  16.827  31.352   1.720
 7523W        W74064  19.284  15.235  13.298
 7524W        W74065  13.378  25.401   1.291
 7525W        W74066  13.480   3.084  10.201
 7526W        W74067  30.138  22.252   3.601
 7527W        W74068  42.344   5.259   4.346
 7528W        W74069  38.029  11.781  13.945
 7529W        W74070  43.197  24.141   1.689
 7530W        W74071  40.442  35.177   1.413
 7531W        W74072   3.223  32.094  13.930
 7532W        W74073  38.972  23.027  13.418
 7533W        W74074   6.097   9.280   2.103
 7534W        W74075   2.262  15.475   4.216
 7535W        W74076  42.301   8.929   1.420
 7536W        W74077  23.616  14.913   2.322
 7537W        W74078  28.020  40.821  10.314
 7538W        W74079  11.235   2.643  14.788
 7539W        W74080  38.474  43.346  11.302
 7540W        W74081  32.372  22.600   1.957
 7541W        W74082  28.392   0.825   2.232
 7542W        W74083   7.115  37.371  13.343
 7543W        W74084  28.156  43.109  12.031
 7544W        W74085  41.306  41.207   1.826
 7545W        W74086  10.293  22.563   3.623
 7546W        W74087  18.559  21.204   1.628
 7547W        W74088  12.924  44.396  10.780
 7548W        W74089   4.852  27.054  10.438
 7549W        W74090  29.213  11.588   3.453
 7550W        W74091  23.636  24.964   4.744
 7551W        W74092  25.261  29.514  10.888
 7552W        W74093  25.605  37.597   3.079
 7553W        W74094  27.813  36.067  13.591
 7554W        W74095  23.220  34.082   0.333
 7555W        W74096  24.068  40.371  12.971
 7556W        W74097  26.036  34.625  12.640
 7557W        W74098  43.333  19.790  11.033
 7558W        W74099  40.351  32.030   3.705
 7559W        W74100  41.443   7.172   0.870
 7560W        W74101  43.864  43.924  13.928
 7561W        W74102   2.431  15.680   2.674
 7562W        W74103  29.751  28.380  13.855
 7563W        W74104  39.404  11.326   0.430
 7564W        W74105  11.963  34.916   1.844
 7565W        W74106  16.103  36.370  12.003
 7566W        W74107  24.261  10.718  11.614
 7567W        W74108   0.124  32.981  12.435
 7568W        W74109   0.989  29.392  10.439
 7569W        W74110  44.918  37.614  12.887
 7570W        W74111   1.992  28.595   0.845
 7571W        W74112   9.795  41.525  11.029
 7572W        W74113  28.886  24.202  11.059
 7573W        W74114   0.712  36.402  14.310
 7574W        W74115  23.785  36.474  12.482
 7575W        W74116  34.947  34.813  14.049
 7576W        W74117  12.335   2.865   4.136
 7577W        W74118  28.017  27.574   1.162
 7578W        W74119  16.222   2.506   5.211
 7579W        W74120  36.643  38.943   0.079
 7580W        W74121  21.512  12.305   1.254
 7581W        W74122   5.262  43.785   4.104
 7582W        W74123  26.977  44.390  10.430
 7583W        W74124  30.459  26.550  12.633
 7584W        W74125  40.674  35.992   4.988
 7585W        W74126  11.035  17.317  10.174
 7586W        W74127   8.133  41.283  14.963
 7587W        W74128  35.424  30.019  14.337
 7588W        W74129  37.990  16.786  12.072
 7589W        W74130   0.598  44.389   3.780
 7590W        W74131  42.036  22.121   4.924
 7591W        W74132  38.297  41.671  12.231
 7592W        W74133  14.538  39.383   4.182
 7593W        W74134  36.005   8.958  10.706
 7594W        W74135  17.656   1.361   3.226
 7595W        W74136  19.850  18.484   3.748
 7596W        W74137  30.900  17.148   1.899
 7597W        W74138  17.068  25.024   3.725
 7598W        W74139  17.518  15.830  10.954
 7599W        W74140  36.888  14.722  13.411
 7600W        W74141  40.325  30.147  13.323
 7601W        W74142  26.174   0.795   2.741
 7602W        W74143  26.527  11.324  11.621
 7603W        W74144  32.997  20.983   3.299
 7604W        W74145   0.915  14.979   3.171
 7605W        W74146  38.001  20.779   4.275
 7606W        W74147  25.984   4.741  12.634
 7607W        W74148  29.967  36.084  11.982
 7608W        W74149  36.525  15.836   2.301
 7609W        W74150  38.339   3.317   2.003
 7610W        W74151   3.175  10.305   3.574
 7611W        W74152  42.808  23.115   1.663
 7612W        W74153  44.212  44.477   1.414
 7613W        W74154  12.824  33.769   0.274
 7614W        W74155   3.757  43.461   2.867
 7615W        W74156   6.934  21.005   4.950
 7616W        W74157  39.383   3.457   3.228
 7617W        W74158   1.212  21.058   2.242
 7618W        W74159  28.506  19.994  11.068
 7619W        W74160  15.725  24.228  14.593
 7620W        W74161  29.958  36.994   3.886
 7621W        W74162   2.410  22.187   1.538
 7622W        W74163  34.622   2.872   0.799
 7623W        W74164  19.355  39.273  11.178
 7624W        W74165  38.054   3.226   2.629
 7625W        W74166   3.008  44.421   2.406
 7626W        W74167  22.232   4.387   5.256
 7627W        W74168   4.287  19.737  12.948
 7628W        W74169  24.200  34.674   1.337
 7629W        W74170   7.523  43.612  11.121
 7630W        W74171  44.222  29.582   3.413
 7631W        W74172  21.947   5.823   3.979
 7632W        W74173   3.344   5.768   1.488
 7633W        W74174  23.639  23.429   3.689
 7634W        W74175   5.687  39.366  12.597
 7635W        W74176   6.710   9.625   3.665
 7636W        W74177  33.198  38.081   2.674
 7637W        W74178  37.072  12.119  12.990
 7638W        W74179  43.759  22.748   2.590
 7639W        W74180  19.973   1.347  10.411
 7640W        W74181  41.029  33.764   1.368
 7641W        W74182  31.842  10.440   2.110
 7642W        W74183   9.965  24.057   4.523
 7643W        W74184  39.488  32.383   4.385
 7644W        W74185  21.300  25.080  11.740
 7645W        W74186   7.319  29.997  14.805
 7646W        W74187  38.453  41.674   0.185
 7647W        W74188  41.461  32.362   1.864
 7648W        W74189  40.040   6.677  13.386
 7649W        W74190  17.105  27.674  14.682
 7650W        W74191  12.329  35.557   0.759
 7651W        W74192  17.283   5.889   3.144
 7652W        W74193  42.880  15.102   3.314
 7653W        W74194  37.930  14.014  13.461
 7654W        W74195  39.246  24.710   4.085
 7655W        W74196  32.644  41.833   0.667
 7656W        W74197  19.296  35.597  12.047
 7657W        W74198  35.541  26.191  14.358
 7658W        W74199  21.080  32.075   3.920
 7659W        W74200  42.939  12.720   0.976
 7660W        W74201   6.721  13.407  12.503
 7661W        W74202  18.194  30.071  12.025
 7662W        W74203  29.521  35.340   1.390
 7663W        W74204  41.348   8.718  14.945
 7664W        W74205  11.746   3.462  11.180
 7665W        W74206  16.151  36.614  13.333
 7666W        W74207  43.798  15.628  13.358
 7667W        W74208  43.454  16.004   1.510
 7668W        W74209  41.792  26.415  13.827
 7669W        W74210  38.996  31.566   4.820
 7670W        W74211  18.110  12.198  13.775
 7671W        W74212  42.463  15.768   0.363
 7672W        W74213   8.155  27.733   4.683
 7673W        W74214  42.456  13.403   0.326
 7674W        W74215  22.673  15.285   0.988
 7675W        W74216  11.903  14.613   3.975
 7676W        W74217   7.997  30.078   1.889
 7677W        W74218  38.313  31.106  14.323
 7678W        W74219  19.209  38.559  14.459
 7679W        W74220  39.302   3.921  13.680
 7680W        W74221  39.220  43.555   1.432
 7681W        W74222  22.918  44.236   4.236
 7682W        W74223  14.272   7.645   4.677
 7683W        W74224   9.729  23.464   0.938
 7684W        W74225  35.852  43.893  12.982
 7685W        W74226  43.394  14.304   2.930
 7686W        W74227  14.214  23.896  13.746
 7687W        W74228  41.207  23.137   4.838
 7688W        W74229  10.319  20.759  10.858
 7689W        W74230  42.812   1.918  13.529
 7690W        W74231  23.713  15.160   1.534
 7691W        W74232   8.968  19.205  14.468
 7692W        W74233  42.341  27.458   3.134
 7693W        W74234  13.303  26.207   1.954
 7694W        W74235  42.395   5.709  12.312
 7695W        W74236  23.164  23.119  11.652
 7696W        W74237  30.252  22.518  12.656
 7697W        W74238  13.179  21.934   2.537
 7698W        W74239   3.859  28.181  10.498
 7699W        W74240  42.772  28.458   4.527
 7700W        W74241  24.305  16.709  11.426
 7701W        W74242  10.638  14.444   0.541
 7702W        W74243  32.965  16.841   1.495
 7703W        W74244  37.562  29.539  10.756
 7704W        W74245  20.981   4.676  13.898
 7705W        W74246   8.298   1.440  11.983
 7706W        W74247  36.161   1.931   0.888
 7707W        W74248  16.525  25.136  13.405
 7708W        W74249   3.947   3.563   1.248
 7709W        W74250  37.342   2.584  12.991
 7710W        W74251  32.766  42.257   0.334
 7711W        W74252  38.777   1.916  12.578
 7712W        W74253   2.227  25.521  14.500
 7713W        W74254  11.133  15.652   3.523
 7714W        W74255  15.783   8.303   0.336
 7715W        W74256  35.856  43.143  13.961
 7716W        W74257  35.391  21.048   1.674
 7717W        W74258  30.831   5.012  12.996
 7718W        W74259   0.865  24.069  12.217
 7719W        W74260   8.333  37.462  10.733
 7720W        W74261   7.169  13.479   4.823
 7721W        W74262  22.313  33.955   4.654
 7722W        W74263  13.561  43.520  13.458
 7723W        W74264  35.497  16.767   2.215
 7724W        W74265  29.921  31.914  13.018
 7725W        W74266   8.432  43.294   4.856
 7726W        W74267   2.137  41.874   4.136
 7727W        W74268  14.560  10.235   4.803
 7728W        W74269  26.420  34.505  12.973
 7729W        W74270  25.500  29.605   0.012
 7730W        W74271  15.168  17.118   1.274
 7731W        W74272   5.176  38.724   1.850
 7732W        W74273   6.306  20.322  11.587
 7733W        W74274  18.930   5.283   3.084
 7734W        W74275  21.091  39.747   0.402
 7735W        W74276  32.252  28.874   2.971
 7736W        W74277  35.473  31.165  14.818
 7737W        W74278  10.817   4.234   1.188
 7738W        W74279  28.061   4.995   3.021
 7739W        W74280  18.348   6.836  11.658
 7740W        W74281  39.355  32.076  11.657
 7741W        W74282  20.455  43.749  13.955
 7742W        W74283  19.100  19.582  11.230
 7743W        W74284   7.410  43.037  10.430
 7744W        W74285  10.211  18.044   2.712
 7745W        W74286  20.676  12.925  12.091
 7746W        W74287  24.927  10.737   0.788
 7747W        W74288  30.124  30.900   3.713
 7748W        W74289  37.076  13.880  11.330
 7749W        W74290   4.805  18.331  14.501
 7750W        W74291   2.994   9.867   3.751
 7751W        W74292  44.515  18.334  13.118
 7752W        W74293  34.105  30.945  14.819
 7753W        W74294  27.904   6.625   1.429
 7754W        W74295  39.952  18.569  12.848
 7755W        W74296   6.882   8.371  14.462
 7756W        W74297  13.773  25.506  12.856
 7757W        W74298  44.074  31.452  14.292
 7758W        W74299  26.219  15.160   1.620
 7759W        W74300  42.024  32.941  11.668
 7760W        W74301  10.333  29.126   3.290
 7761W        W74302  11.416   9.737  12.456
 7762W        W74303  11.972   2.860   4.939
 7763W        W74304  20.715  39.412  12.428
 7764W        W74305   6.509  29.398   3.659
 7765W        W74306  38.371  37.039   2.656
 7766W        W74307  13.329  41.424   1.023
 7767W        W74308   5.736  10.785   2.324
 7768W        W74309  24.385  24.198   1.358
 7769W        W74310   0.783   2.310  14.855
 7770W        W74311  26.064  29.513  14.294
 7771W        W74312  16.138  25.293  14.055
 7772W        W74313  41.230  25.261  14.536
 7773W        W74314  25.646  29.447   4.037
 7774W        W74315  26.184  32.033  14.805
 7775W        W74316   5.436  25.773  10.353
 7776W        W74317  32.542  22.115   1.237
 7777W        W74318  17.806  15.745   2.319
 7778W        W74319  36.546  37.975  14.560
 7779W        W74320  44.061  23.482   3.698
 7780W        W74321  32.349  33.981  12.030
 7781W        W74322   1.988  25.648  13.907
 7782W        W74323  14.420  34.423   4.525
 7783W        W74324  28.511  12.826   0.182
 7784W        W74325  19.834  38.152  13.035
 7785W        W74326  29.581  43.512  12.925
 7786W        W74327   1.393   9.627   2.872
 7787W        W74328  40.562  36.489  13.630
 7788W        W74329  32.140  10.515  12.179
 7789W        W74330  16.493  11.221  14.236
 7790W        W74331  38.301  12.226  10.738
 7791W        W74332  34.058   8.422   1.199
 7792W        W74333  41.496  29.411   4.705
 7793W        W74334  29.384  12.338  11.671
 7794W        W74335  35.929  43.681  11.564
 7795W        W74336  19.811  26.884   1.228
 7796W        W74337  31.997  21.076  14.011
 7797W        W74338   7.755   4.778  12.803
 7798W        W74339  29.012   4.087  13.081
 7799W        W74340   8.837   8.934   1.223
 7800W        W74341  10.170   8.319   3.716
 7801W        W74342  13.545  33.019  11.546
 7802W        W74343  16.803  38.736   1.890
 7803W        W74344  24.019  14.755  14.367
 7804W        W74345  16.157  33.551  10.942
 7805W        W74346   2.268  29.666   0.742
 7806W        W74347  14.064  11.974   5.179
 7807W        W74348  35.965   3.692   2.698
 7808W        W74349  39.135   2.122   2.389
 7809W        W74350  15.636  25.142   1.039
 7810W        W74351  42.731   2.234  10.631
 7811W        W74352  39.769  15.779  11.277
 7812W        W74353  40.546  35.454   0.071
 7813W        W74354  34.892  13.889  14.421
 7814W        W74355  15.725  11.364  10.940
 7815W        W74356  41.354  34.974   2.353
 7816W        W74357  39.687  43.292   3.256
 7817W        W74358  36.953  38.688  13.736
 7818W        W74359  19.668  31.933   0.344
 7819W        W74360  21.031  21.300  12.886
 7820W        W74361  13.091  41.367   1.841
 7821W        W74362   2.280   6.705   3.907
 7822W        W74363   1.321  18.108   1.034
 7823W        W74364   3.350  22.134   1.712
 7824W        W74365  39.504   6.437  13.413
 7825W        W74366  15.311  29.705   4.152
 7826W        W74367  12.389  27.886  14.018
 7827W        W74368  11.147  21.484  12.067
 7828W        W74369  20.960   2.818  11.688
 7829W        W74370  34.942  11.831  12.941
 7830W        W74371   4.459   8.663  11.502
 7831W        W74372   9.834  17.001   3.256
 7832W        W74373  42.951  17.456   4.606
 7833W        W74374  35.474  39.771   2.158
 7834W        W74375  34.855  10.321   4.691
 7835W        W74376  22.668  14.186   2.171
 7836W        W74377   4.970  38.455   3.755
 7837W        W74378  12.264  41.733  14.312
 7838W        W74379  12.861  10.073  11.654
 7839W        W74380   8.095  19.410  11.500
 7840W        W74381  29.671  18.148  14.946
 7841W        W74382  29.133  31.007  12.033
 7842W        W74383  18.630  31.020  13.020
 7843W        W74384  28.969  26.540   2.325
 7844W        W74385  44.836  26.233  13.506
 7845W        W74386  34.059  28.652  14.080
 7846W        W74387  28.611   8.659   0.887
 7847W        W74388  10.982  23.145   4.280
 7848W        W74389  16.811  24.790   0.910
 7849W        W74390  14.191   5.538   2.401
 7850W        W74391  43.298  13.659  11.947
 7851W        W74392   3.901   3.251  13.019
 7852W        W74393   3.262   1.608   2.187
 7853W        W74394  31.523   5.406  11.620
 7854W        W74395  33.470   7.199   3.625
 7855W        W74396  35.656  32.836   4.064
 7856W        W74397  43.389  12.898  11.205
 7857W        W74398  25.270  39.286   0.686
 7858W        W74399  21.835   1.920  11.761
 7859W        W74400  27.452  32.034   2.711
 7860W        W74401   7.583   1.954   5.132
 7861W        W74402  24.170  27.973   1.518
 7862W        W74403  30.075  32.932   4.771
 7863W        W74404   1.273  24.092   1.775
 7864W        W74405   9.690  24.420   4.756
 7865W        W74406  16.380  20.178  10.582
 7866W        W74407  29.754  15.008  12.807
 7867W        W74408  27.312   7.440  13.618
 7868W        W74409  40.856  21.210  10.897
 7869W        W74410  44.287   9.101   5.057
 7870W        W74411   7.480  33.021   0.004
 7871W        W74412   4.939   1.400  13.478
 7872W        W74413  18.048  42.797  13.744
 7873W        W74414  39.785   4.793  13.297
 7874W        W74415  26.233  12.619   3.634
 7875W        W74416  37.186  15.676  11.915
 7876W        W74417  29.087  17.145   0.036
 7877W        W74418   1.466   1.040  10.738
 7878W        W74419  43.961  37.823   0.844
 7879W        W74420  10.759  43.675  14.270
 7880W        W74421  40.718  26.188   4.222
 7881W        W74422   7.522  38.101  10.729
 7882W        W74423  39.993  44.130   1.339
 7883W        W74424  22.544  29.397  11.587
 7884W        W74425  28.992   4.933   3.351
 7885W        W74426   4.280  15.045  10.661
 7886W        W74427  11.645   4.386   3.687
 7887W        W74428   5.603  17.709   3.699
 7888W        W74429  19.289  39.806  14.270
 7889W        W74430  41.230   9.215   0.111
 7890W        W74431  36.932  10.764   3.179
 7891W        W74432   8.062  41.912   2.838
 7892W        W74433  34.521  15.950  10.585
 7893W        W74434   6.126  24.431  11.467
 7894W        W74435  21.281  32.348   4.325
 7895W        W74436  13.063  39.532  14.323
 7896W        W74437  26.065  41.515   0.439
 7897W        W74438  30.404   4.268  13.886
 7898W        W74439  35.379  18.376   4.063
 7899W        W74440   8.695  10.931  14.773
 7900W        W74441  15.039  22.794  12.913
 7901W        W74442   2.823  22.083   4.072
 7902W        W74443  36.122   8.330  14.741
 7903W        W74444  14.376  43.348   3.601
 7904W        W74445  24.167  22.633  13.260
 7905W        W74446  17.744  42.073   1.479
 7906W        W74447  44.500   0.423  14.487
 7907W        W74448   3.350   6.032  14.047
 7908W        W74449  41.246  19.730   0.189
 7909W        W74450   1.013  25.707  11.672
 7910W        W74451  31.993  37.801   1.425
 7911W        W74452  13.789  35.422  10.534
 7912W        W74453  14.091   7.475   3.220
 7913W        W74454  33.952  39.633  12.543
 7914W        W74455  20.726  18.897  13.687
 7915W        W74456  16.751  44.790   0.855
 7916W        W74457   6.754  12.703   0.550
 7917W        W74458  24.562  31.218   0.324
 7918W        W74459   9.239  12.196  10.930
 7919W        W74460  39.246  32.785  11.080
 7920W        W74461  25.560  17.001   1.841
 7921W        W74462  36.348  11.354  11.194
 7922W        W74463   4.168   3.728  14.547
 7923W        W74464  11.265  36.068   3.292
 7924W        W74465  19.088  43.890  11.902
 7925W        W74466  18.320  16.776  13.430
 7926W        W74467  18.192  41.111   1.095
 7927W        W74468  16.413  36.942   3.686
 7928W        W74469   0.843   0.131  12.180
 7929W        W74470   3.707  40.717   2.035
 7930W        W74471  29.544  17.648  12.947
 7931W        W74472  39.823  17.786   1.405
 7932W        W74473   0.790  32.113   1.731
 7933W        W74474   3.212  28.556  13.454
 7934W        W74475  40.965  11.368   1.664
 7935W        W74476   7.582  29.461   1.345
 7936W        W74477  36.904  18.629   0.426
 7937W        W74478  36.839  39.915   0.703
 7938W        W74479   0.182   1.398   3.790
 7939W        W74480  44.020  41.826   0.357
 7940W        W74481  14.443  26.609  11.597
 7941W        W74482   0.167  38.323  14.385
 7942W        W74483  25.122  22.792   0.750
 7943W        W74484  17.208   4.063   3.251
 7944W        W74485  22.473  20.956  12.867
 7945W        W74486  14.627  22.660   1.316
 7946W        W74487  34.633  15.726   1.390
 7947W        W74488  37.322  41.341   4.748
 7948W        W74489  37.326  20.197   0.730
 7949W        W74490   0.186  15.887  13.488
 7950W        W74491  14.278  25.236   1.166
 7951W        W74492   9.776   2.285  10.910
 7952W        W74493  39.261  40.525  11.496
 7953W        W74494  31.988  31.269   0.728
 7954W        W74495   3.785  28.755   1.704
 7955W        W74496   8.288  36.712  12.947
 7956W        W74497  41.480  32.459  11.165
 7957W        W74498  19.805  31.449  10.735
 7958W        W74499   5.839  38.246   4.956
 7959W        W74500  19.629  15.624   5.049
 7960W        W74501  43.953  27.405   3.611
 7961W        W74502  30.838  24.192   3.342
 7962W        W74503   6.380   4.273   0.764
 7963W        W74504  43.386   4.847   1.709
 7964W        W74505  43.419  42.231   4.566
 7965W        W74506  41.667  22.528   4.968
 7966W        W74507   4.083  14.318   1.826
 7967W        W74508  42.861   7.679   0.916
 7968W        W74509  41.458   6.410  13.973
 7969W        W74510   0.956  14.664   4.553
 7970W        W74511  20.024  22.634  10.718
 7971W        W74512  14.900  31.098   0.415
 7972W        W74513  34.853  16.192  14.057
 7973W        W74514   4.248   5.606   0.526
 7974W        W74515  39.363  38.815  14.936
 7975W        W74516  21.616  13.562   4.601
 7976W        W74517  16.750   0.552  11.941
 7977W        W74518  32.308   5.541   5.065
 7978W        W74519  43.657  11.063   1.479
 7979W        W74520  18.577  30.602  10.789
 7980W        W74521  30.381   6.274   0.906
 7981W        W74522   3.147  35.510   2.440
 7982W        W74523  23.055  39.373   1.821
 7983W        W74524  34.884   1.898  12.597
 7984W        W74525  28.819   5.338   2.428
 7985W        W74526  14.633   0.435   2.948
 7986W        W74527   7.059   1.475   2.745
 7987W        W74528  23.813  24.674  14.936
 7988W        W74529   1.753  29.688  12.013
 7989W        W74530  22.592  20.016   2.797
 7990W        W74531  26.176  22.117  13.648
 7991W        W74532  17.661  11.289  12.801
 7992W        W74533  25.677  12.823  13.362
 7993W        W74534  38.126  19.652   3.001
 7994W        W74535  12.751  27.870  11.598
 7995W        W74536   5.255  40.678  13.050
 7996W        W74537  13.025  21.790  11.871
 7997W        W74538  11.523   1.719   4.106
 7998W        W74539  35.814  41.121   1.826
 7999W        W74540   8.498  36.277  13.602
 8000W        W74541   2.327  32.746  12.362
 8001W        W74542  40.770  41.415  13.849
 8002W        W74543   8.432   7.864   1.671
 8003W        W74544   4.186   3.347   2.380
 8004W        W74545  17.601  32.330   0.905
 8005W        W74546  28.513  14.592  11.128
 8006W        W74547  20.565  34.768   2.546
 8007W        W74548  44.336  15.461  12.547
 8008W        W74549  10.225  30.715   2.926
 8009W        W74550  19.818  18.200   1.175
 8010W        W74551  28.612   1.481   3.453
 8011W        W74552  20.074  32.180  12.912
 8012W        W74553  43.929   6.108   3.641
 8013W        W74554  36.149  18.877  12.916
 8014W        W74555  28.606  28.399   2.755
 8015W        W74556  21.128  20.977  11.088
 8016W        W74557  27.940  29.393  11.110
 8017W        W74558  43.527  41.137  11.199
 8018W        W74559   0.130   7.862  12.119
 8019W        W74560   4.201  22.572   1.273
 8020W        W74561  28.410  39.471  11.104
 8021W        W74562  17.196  23.269  12.292
 8022W        W74563  33.283   9.941   4.827
 8023W        W74564   2.870  44.349   0.421
 8024W        W74565  34.891  26.255  11.029
 8025W        W74566  41.494  12.395   0.433
 8026W        W74567  31.948  12.301   3.874
 8027W        W74568  15.909  26.707   1.353
 8028W        W74569   0.523  11.399   3.169
 8029W        W74570  25.708  12.881  14.932
 8030W        W74571  11.442  43.892  13.977
 8031W        W74572  16.196  17.736   0.006
 8032W        W74573  10.422  27.954   0.773
 8033W        W74574  42.535  26.714  14.450
 8034W        W74575  43.060  44.415  14.234
 8035W        W74576  44.777  38.934  14.352
 8036W        W74577   4.002  38.079   0.650
 8037W        W74578  14.088  14.346  14.832
 8038W        W74579  36.480  24.849  12.065
 8039W        W74580  36.910  38.088   1.231
 8040W        W74581  19.274  33.738   3.807
 8041W        W74582   4.590  28.448  11.294
 8042W        W74583  33.528  36.841  14.793
 8043W        W74584  15.261   4.804   1.938
 8044W        W74585  31.888   5.208  13.866
 8045W        W74586  32.942  36.489   2.828
 8046W        W74587  12.383  14.762  13.553
 8047W        W74588   9.932  44.443  11.053
 8048W        W74589  32.102  38.355  14.386
 8049W        W74590   7.299  44.872   0.656
 8050W        W74591  18.304  40.204   0.979
 8051W        W74592  35.540  42.407   1.705
 8052W        W74593  22.071  44.275  11.597
 8053W        W74594  32.163  40.019   0.558
 8054W        W74595   5.423  30.093  12.044
 8055W        W74596  42.916   3.563   1.732
 8056W        W74597  22.377  31.695   2.224
 8057W        W74598   8.183  33.096  11.081
 8058W        W74599  24.524   8.431   3.228
 8059W        W74600  35.103   3.993   4.130
 8060W        W74601   7.923   4.250  11.985
 8061W        W74602  21.821  30.088   3.664
 8062W        W74603  10.308  43.677  10.795
 8063W        W74604  18.137   2.659   1.376
 8064W        W74605   1.714  25.997  13.455
 8065W        W74606   0.878   9.700   1.235
 8066W        W74607  25.212  43.157  12.933
 8067W        W74608  26.389   4.737  13.865
 8068W        W74609   1.500  39.269   0.396
 8069W        W74610   5.565  18.763   4.779
 8070W        W74611  41.413  34.637  13.324
 8071W        W74612   4.331  36.342  12.971
 8072W        W74613  37.340  35.675   4.501
 8073W        W74614  33.113  15.747   3.655
 8074W        W74615  37.210   8.846   1.382
 8075W        W74616  34.139  32.994  12.592
 8076W        W74617  22.859  44.473   2.048
 8077W        W74618  34.643  16.162   3.237
 8078W        W74619  23.277  13.672  13.371
 8079W        W74620  15.032  27.739   0.155
 8080W        W74621  36.880  23.668   2.074
 8081W        W74622   1.717  21.811   4.146
 8082W        W74623   3.236  35.133   3.709
 8083W        W74624  14.572  28.793  12.510
 8084W        W74625  19.595   6.612  13.672
 8085W        W74626  34.706  10.071   2.305
 8086W        W74627  19.352   6.203  13.876
 8087W        W74628  15.859  33.160   3.094
 8088W        W74629  12.315  13.307   2.152
 8089W        W74630  34.351  17.226   3.023
 8090W        W74631  41.454  25.847   2.874
 8091W        W74632  10.975   0.434  12.800
 8092W        W74633  33.037  43.535   2.773
 8093W        W74634  37.325  11.670   0.289
 8094W        W74635  32.523   7.219  14.109
 8095W        W74636  38.761  10.752  13.911
 8096W        W74637  20.704  43.766  14.433
 8097W        W74638  21.682  13.066   2.574
 8098W        W74639  18.695  25.353  13.762
 8099W        W74640  19.239   5.291  13.845
 8100W        W74641  18.424  10.361  11.561
 8101W        W74642  28.565  18.570   4.609
 8102W        W74643  41.466   6.809   4.481
 8103W        W74644   0.881  21.438  10.044
 8104W        W74645   9.776  21.987   0.769
 8105W        W74646  21.010  25.348  13.670
 8106W        W74647   5.421   5.793  14.481
 8107W        W74648  32.763  20.196   2.902
 8108W        W74649  25.634  39.916   2.992
 8109W        W74650  10.244  20.125   3.670
 8110W        W74651   5.573  29.355   4.701
 8111W        W74652   0.433   6.326  12.674
 8112W        W74653  33.234  13.599   1.185
 8113W        W74654  37.638  28.040  11.589
 8114W        W74655  41.974  42.086   3.278
 8115W        W74656   9.317  29.740  12.867
 8116W        W74657  17.202   2.275   0.474
 8117W        W74658  10.038  29.338   0.758
 8118W        W74659  26.299  31.006  13.679
 8119W        W74660  36.077  16.695   2.885
 8120W        W74661  15.600   0.993   2.643
 8121W        W74662   7.562  30.655   3.229
 8122W        W74663  35.069  38.424   0.917
 8123W        W74664  14.598  19.658   0.565
 8124W        W74665  22.436   8.889   2.756
 8125W        W74666  42.662  13.820   2.739
 8126W        W74667  43.542  31.996   4.491
 8127W        W74668  30.478   5.037  14.402
 8128W        W74669  27.237  25.981  12.554
 8129W        W74670  21.443  32.520   0.313
 8130W        W74671  27.414  34.139  13.476
 8131W        W74672  22.421  26.501   3.260
 8132W        W74673   1.519  33.805  12.883
 8133W        W74674  17.120  18.491   0.373
 8134W        W74675   4.744  44.422   3.724
 8135W        W74676   2.336  10.422  11.289
 8136W        W74677  19.375  15.803  14.218
 8137W        W74678  33.360  22.012   2.748
 8138W        W74679  17.832  12.508   0.259
 8139W        W74680  21.486  33.349  12.632
 8140W        W74681   9.981   1.012  12.111
 8141W        W74682  22.975  29.127  11.719
 8142W        W74683  43.817   1.836  14.503
 8143W        W74684   5.904   9.584   0.558
 8144W        W74685   0.810  17.542   1.227
 8145W        W74686   2.047   4.651  10.581
 8146W        W74687  11.648  20.801   4.462
 8147W        W74688  21.748   4.307   0.859
 8148W        W74689  10.660  36.720   0.924
 8149W        W74690  13.653  17.789  14.312
 8150W        W74691  23.120  24.253   3.788
 8151W        W74692  20.129  27.251   0.335
 8152W        W74693  21.535  22.650  12.976
 8153W        W74694  21.574  40.846  12.699
 8154W        W74695  29.027  35.440   1.202
 8155W        W74696  33.747  25.062   1.877
 8156W        W74697  22.306  36.924   3.632
 8157W        W74698  34.681  29.724   0.373
 8158W        W74699  16.386   6.336   3.479
 8159W        W74700  12.380  13.575  12.475
 8160W        W74701   8.618  26.976  10.684
 8161W        W74702  39.933  42.040   0.393
 8162W        W74703  19.290   4.745  12.487
 8163W        W74704  23.724  22.466   4.622
 8164W        W74705  21.901  36.463   1.912
 8165W        W74706  31.039  12.852   0.633
 8166W        W74707   7.720  17.180  10.845
 8167W        W74708  41.757  32.203  13.846
 8168W        W74709   3.478   5.962  10.844
 8169W        W74710  24.247  30.008  14.937
 8170W        W74711  21.139   3.025   0.847
 8171W        W74712   1.387  18.577  12.837
 8172W        W74713  30.715  25.688   5.145
 8173W        W74714  21.444  20.616   1.416
 8174W        W74715  21.674   3.796   1.013
 8175W        W74716  36.441  13.221   1.533
 8176W        W74717   7.939  12.319  11.982
 8177W        W74718  36.619  22.088  14.955
 8178W        W74719  41.334  38.839  13.024
 8179W        W74720  25.672  34.433   3.761
 8180W        W74721  44.585   9.462  12.466
 8181W        W74722  15.704   1.944   2.804
 8182W        W74723  18.722  31.015  11.097
 8183W        W74724  41.410  43.397   2.678
 8184W        W74725  41.936  10.052   3.432
 8185W        W74726  39.083  33.204  13.582
 8186W        W74727  11.977  28.107  11.200
 8187W        W74728  24.479  10.221   4.159
 8188W        W74729  43.515  27.070   0.835
 8189W        W74730   3.328  23.965  14.405
 8190W        W74731   4.700   4.307  13.273
 8191W        W74732   7.850  25.950  11.729
 8192W        W74733   2.996  38.512   3.871
 8193W        W74734   9.266  42.831  11.054
 8194W        W74735   9.830  15.529   0.911
 8195W        W74736  23.254   6.103   2.183
 8196W        W74737  19.595  16.316  13.054
 8197W        W74738  42.993  17.839  13.669
 8198W        W74739  29.035  10.671   2.293
 8199W        W74740  42.616  23.072   0.719
 8200W        W74741  11.088   2.069  11.110
 8201W        W74742  32.837   5.164  10.525
 8202W        W74743  25.475  23.160  13.787
 8203W        W74744   3.973   0.809  11.557
 8204W        W74745  28.143  21.207   0.946
 8205W        W74746  30.138   7.725   0.731
 8206W        W74747   3.840  32.362   2.429
 8207W        W74748  11.078  43.352  13.360
 8208W        W74749  16.652  38.395  13.886
 8209W        W74750  19.532  19.657  13.016
 8210W        W74751  28.279  12.145   4.222
 8211W        W74752  29.605  26.397  14.164
 8212W        W74753  42.008  11.465   2.078
 8213W        W74754   3.426  35.064  11.747
 8214W        W74755  13.560  37.463  12.503
 8215W        W74756  28.178  34.092  11.103
 8216W        W74757  42.014  34.082  11.674
 8217W        W74758  38.897  41.364  11.414
 8218W        W74759  28.124  29.127  10.709
 8219W        W74760  44.589   1.259  11.260
 8220W        W74761  22.898  20.736  13.554
 8221W        W74762   3.920  24.422   1.502
 8222W        W74763  38.597  38.180  12.890
 8223W        W74764  34.382  27.391   0.023
 8224W        W74765  24.998  28.991  12.103
 8225W        W74766  15.811   7.198   3.549
 8226W        W74767  24.404  18.396  11.171
 8227W        W74768  32.365  27.170   3.196
 8228W        W74769  24.461   2.734  12.439
 8229W        W74770   7.345  41.194   4.791
 8230W        W74771  38.197  41.260  12.543
 8231W        W74772  10.756   6.349   3.807
 8232W        W74773  10.789  21.309   1.581
 8233W        W74774   2.374  21.722  14.404
 8234W        W74775  14.267  17.634   2.740
 8235W        W74776  18.068   8.961   4.290
 8236W        W74777  42.895   5.553   0.924
 8237W        W74778  39.308   7.738   3.715
 8238W        W74779  29.818  29.938   0.293
 8239W        W74780  28.482  37.556   0.373
 8240W        W74781   4.819  37.239   2.634
 8241W        W74782  22.342  25.570  10.619
 8242W        W74783  42.868   4.255   0.340
 8243W        W74784  34.193  19.201   3.863
 8244W        W74785   0.268  37.373   2.096
 8245W        W74786  43.369  10.442   2.235
 8246W        W74787  34.840  41.478   0.357
 8247W        W74788   8.890  31.934  12.535
 8248W        W74789  44.975   1.159  13.429
 8249W        W74790  26.567  33.449  14.501
 8250W        W74791  31.396   8.202   3.898
 8251W        W74792  21.769  38.371   0.170
 8252W        W74793   0.359  29.548   1.305
 8253W        W74794  11.656  42.557  11.039
 8254W        W74795   3.063  24.509   2.667
 8255W        W74796  32.438  21.183  10.444
 8256W        W74797  42.471  15.469  14.934
 8257W        W74798  30.779  11.577   5.418
 8258W        W74799  31.849  30.493  10.792
 8259W        W74800  31.875   8.203  10.925
 8260W        W74801  39.544   2.836  12.845
 8261W        W74802  19.756  40.067   2.864
 8262W        W74803  39.382  37.438   1.666
 8263W        W74804  36.117   6.016   4.890
 8264W        W74805  36.558  44.738   3.704
 8265W        W74806  21.315   7.935  12.579
 8266W        W74807   4.701  35.825  12.569
 8267W        W74808  36.343  37.640   4.161
 8268W        W74809  36.978  44.851  14.421
 8269W        W74810  26.837  35.374  13.854
 8270W        W74811  14.291  12.719   0.876
 8271W        W74812  18.967  32.605  11.920
 8272W        W74813  26.081  33.389   4.390
 8273W        W74814  14.968  32.970   4.854
 8274W        W74815  40.160  22.550   0.008
 8275W        W74816   2.855   6.403  10.624
 8276W        W74817   4.756  13.569   1.349
 8277W        W74818   1.998  16.261  10.680
 8278W        W74819  31.864  42.341  10.646
 8279W        W74820   1.333  17.542   1.082
 8280W        W74821  19.338  10.378  10.758
 8281W        W74822  39.868  15.152  11.948
 8282W        W74823  22.699  32.484  12.189
 8283W        W74824  16.289   5.242  10.925
 8284W        W74825  18.833   1.888   4.238
 8285W        W74826  13.369  25.213   3.495
 8286W        W74827  15.771  12.678  11.512
 8287W        W74828  23.326   6.258   0.238
 8288W        W74829  26.300  14.285  14.865
 8289W        W74830  11.100  15.581   3.023
 8290W        W74831   3.320   3.280  14.845
 8291W        W74832  31.214   8.432  11.553
 8292W        W74833  24.708  35.848   1.956
 8293W        W74834  15.323   4.941  14.828
 8294W        W74835  18.791  35.411   2.557
 8295W        W74836  39.292   1.779  11.692
 8296W        W74837   2.653   9.040   2.774
 8297W        W74838   9.317  25.147  11.602
 8298W        W74839  17.929  41.260  12.083
 8299W        W74840  37.417  17.909  14.011
 8300W        W74841   9.771  27.641  10.776
 8301W        W74842  23.422  36.623   4.130
 8302W        W74843   9.712  40.307  11.534
 8303W        W74844  12.104   9.948  14.265
 8304W        W74845  41.307   1.259  11.979
 8305W        W74846  31.567  24.718   1.817
 8306W        W74847  22.749  15.843   4.596
 8307W        W74848  29.137  14.978   0.749
 8308W        W74849  23.785  33.916  10.712
 8309W        W74850  18.185  10.676  12.971
 8310W        W74851  27.113  14.175  10.532
 8311W        W74852  22.550  30.319  12.499
 8312W        W74853  29.629  21.978   2.714
 8313W        W74854  43.019  15.395   4.138
 8314W        W74855  29.898  22.122  13.961
 8315W        W74856   1.277   1.777   4.061
 8316W        W74857   7.569  23.731   2.319
 8317W        W74858  14.728  31.918  12.433
 8318W        W74859  36.728   4.545   3.848
 8319W        W74860  25.555  32.170   4.278
 8320W        W74861   3.373   0.538   4.250
 8321W        W74862   5.374   8.386   1.359
 8322W        W74863  16.468  26.291   0.960
 8323W        W74864  26.637  37.078   2.685
 8324W        W74865   4.306  39.869   0.388
 8325W        W74866  43.436  30.726  14.176
 8326W        W74867  12.258  32.987   3.484
 8327W        W74868  40.608   3.037   3.212
 8328W        W74869  17.623  11.348  12.299
 8329W        W74870   9.697  33.990   2.293
 8330W        W74871  16.207  40.569   4.861
 8331W        W74872  25.281  40.991  14.064
 8332W        W74873  20.656  26.267   3.772
 8333W        W74874   9.491  40.946  11.748
 8334W        W74875  24.934  34.031  11.459
 8335W        W74876   6.003  36.483   2.620
 8336W        W74877  39.016  15.411   0.808
 8337W        W74878   4.960  36.245   2.742
 8338W        W74879  30.476  11.539  11.622
 8339W        W74880  22.775   2.367  12.617
 8340W        W74881  24.715   7.846   3.731
 8341W        W74882  37.855  10.940   2.339
 8342W        W74883  39.576   9.155  11.992
 8343W        W74884  22.122  16.887   4.166
 8344W        W74885  23.345  28.822  12.594
 8345W        W74886  13.729  34.205   0.280
 8346W        W74887  37.540  37.066  12.929
 8347W        W74888  35.846  35.071  11.590
 8348W        W74889  44.379   0.023  12.888
 8349W        W74890  30.542  44.061   0.066
 8350W        W74891  43.700  42.834   1.727
 8351W        W74892  12.806  15.195  12.439
 8352W        W74893  41.633  19.745  12.516
 8353W        W74894  10.974   4.929  13.881
 8354W        W74895  18.733  15.800   4.898
 8355W        W74896  22.980   0.531   1.150
 8356W        W74897  23.686   0.742   3.733
 8357W        W74898  25.452  18.225   4.644
 8358W        W74899   6.420  42.560   4.475
 8359W        W74900  34.828  29.367  14.059
 8360W        W74901  20.200  42.980   4.730
 8361W        W74902  27.834   3.525   0.184
 8362W        W74903  36.091  44.155  11.630
 8363W        W74904  34.141   3.730   3.637
 8364W        W74905  38.815  39.810   4.024
 8365W        W74906  29.048   4.630   0.084
 8366W        W74907  44.623  26.926   4.200
 8367W        W74908  16.193   1.882   4.459
 8368W        W74909  35.894  43.996  14.363
 8369W        W74910  13.713  25.278   4.426
 8370W        W74911   1.267   1.409  14.057
 8371W        W74912  43.779  40.907  14.085
 8372W        W74913   8.774  22.154  11.520
 8373W        W74914   4.792  19.786  11.632
 8374W        W74915  13.276   1.703  14.105
 8375W        W74916  11.590  28.039  12.106
 8376W        W74917  16.132  14.783  13.478
 8377W        W74918  18.464   0.925   1.759
 8378W        W74919  14.809  11.329   2.741
 8379W        W74920  34.021   4.699   0.741
 8380W        W74921  44.796  40.295  13.162
 8381W        W74922  17.645  22.195  14.042
 8382W        W74923  21.174  22.589   9.760
 8383W        W74924   7.318  36.150  12.604
 8384W        W74925   9.108   0.480   0.679
 8385W        W74926  22.523  12.634   2.325
 8386W        W74927   9.853  17.953   4.433
 8387W        W74928   7.696  28.701  13.364
 8388W        W74929  34.814   7.627  13.028
 8389W        W74930  36.894  35.873  12.933
 8390W        W74931  43.407  36.756  13.348
 8391W        W74932  34.287  16.667  14.357
 8392W        W74933   2.725   5.869  12.456
 8393W        W74934  13.730  38.772  13.449
 8394W        W74935  43.903  41.987   4.517
 8395W        W74936  16.069  21.570   0.417
 8396W        W74937  38.510  15.678  13.019
 8397W        W74938  13.324  13.270   2.266
 8398W        W74939  40.807   1.472   1.243
 8399W        W74940  41.323  28.499   0.831
 8400W        W74941  39.532  15.355   0.863
 8401W        W74942  35.728  42.496  13.424
 8402W        W74943  39.790  21.781  12.466
 8403W        W74944  24.463  14.349   1.727
 8404W        W74945  27.694  28.204  14.233
 8405W        W74946  28.067  26.016   2.504
 8406W        W74947  17.794  37.945   4.260
 8407W        W74948  28.956   9.582  13.387
 8408W        W74949  24.785  13.169  10.747
 8409W        W74950   2.888  22.152  11.217
 8410W        W74951  13.737  15.713   4.523
 8411W        W74952  43.180  30.613   2.767
 8412W        W74953  35.912  33.979   0.758
 8413W        W74954  29.876  35.491  13.942
 8414W        W74955  11.059   3.941  14.513
 8415W        W74956   7.936  30.368   1.467
 8416W        W74957   4.994  11.263  10.680
 8417W        W74958  32.897  22.178   3.675
 8418W        W74959  22.987   9.752   0.204
 8419W        W74960  29.436  44.922  14.002
 8420W        W74961  43.733  11.723   3.196
 8421W        W74962  39.461  25.029   2.341
 8422W        W74963  36.277  32.329   0.369
 8423W        W74964   4.322   3.758  12.437
 8424W        W74965  16.112   0.943   2.471
 8425W        W74966  30.059  41.718  13.791
 8426W        W74967   1.143  36.547   4.613
 8427W        W74968   3.944  41.404   0.467
 8428W        W74969  38.125  31.786  13.144
 8429W        W74970  41.276  14.598  13.529
 8430W        W74971   8.165  34.853  14.735
 8431W        W74972  32.125  42.797  10.731
 8432W        W74973   8.956  14.188  14.043
 8433W        W74974  41.330  12.698  10.448
 8434W        W74975   4.222  26.024   2.179
 8435W        W74976  37.805  26.097   2.843
 8436W        W74977  17.151  10.675   0.738
 8437W        W74978   2.768  12.582  12.493
 8438W        W74979  39.087  15.068   2.913
 8439W        W74980  16.905  11.863   1.879
 8440W        W74981   0.966  20.597   1.435
 8441W        W74982  32.516  14.610   2.939
 8442W        W74983  38.449   2.314  13.119
 8443W        W74984  22.498  38.440  11.194
 8444W        W74985  30.036  25.079  14.513
 8445W        W74986  30.201  20.419  12.342
 8446W        W74987  43.984   3.248   1.374
 8447W        W74988  21.921  34.100   1.253
 8448W        W74989  22.690  19.161   3.745
 8449W        W74990  34.516   1.073   0.245
 8450W        W74991  41.944  26.538  14.745
 8451W        W74992  28.941   9.335  14.809
 8452W        W74993   5.208  10.293  14.076
 8453W        W74994  14.630  13.647   2.334
 8454W        W74995  44.338  24.130  12.978
 8455W        W74996  23.634  40.676   4.670
 8456W        W74997  12.287  38.436   1.893
 8457W        W74998  44.497  43.367  13.308
 8458W        W74999  33.030   6.591  14.637
 8459W        W75000  20.071  30.824   1.549
 8460W        W75001  10.229  25.873   3.788
 8461W        W75002  14.704  38.930   0.458
 8462W        W75003  30.582  19.063  12.135
 8463W        W75004  38.463  21.734   1.326
 8464W        W75005   7.086  23.581  11.187
 8465W        W75006   4.709  40.062   2.953
 8466W        W75007   8.655  33.975  11.037
 8467W        W75008  37.844  26.657   2.169
 8468W        W75009  33.817  44.423  11.856
 8469W        W75010  24.258   5.269   1.846
 8470W        W75011  14.319  20.636  14.948
 8471W        W75012  36.905  19.423  13.387
 8472W        W75013  25.582   7.505   2.477
 8473W        W75014   0.898   6.266   0.985
 8474W        W75015  18.770  15.403   3.606
 8475W        W75016   3.893  30.669  12.487
 8476W        W75017   7.771  41.703  12.054
 8477W        W75018  13.822   1.221  14.821
 8478W        W75019  33.075  26.744  12.165
 8479W        W75020  36.048  35.025   0.175
 8480W        W75021  39.273   0.272   1.820
 8481W        W75022  30.039  11.104   5.583
 8482W        W75023  33.230  41.383   5.297
 8483W        W75024  28.070  12.417   5.047
 8484W        W75025  16.709   1.984  12.652
 8485W        W75026   0.394  13.256  14.465
 8486W        W75027  19.371   7.309  12.026
 8487W        W75028  20.499  42.985   1.489
 8488W        W75029  20.527  19.975  11.560
 8489W        W75030  23.891   9.265   2.320
 8490W        W75031  25.377   3.058  14.020
 8491W        W75032   3.331  34.132   3.886
 8492W        W75033  11.398  18.990  11.415
 8493W        W75034  41.514  27.620  14.873
 8494W        W75035  34.451  37.664  14.292
 8495W        W75036   3.349  36.221   3.166
 8496W        W75037  44.776   2.834   0.217
 8497W        W75038   8.624  24.889  13.752
 8498W        W75039  31.963  33.186  13.517
 8499W        W75040  20.536  36.170   1.876
 8500W        W75041   7.894  44.324   2.179
 8501W        W75042  20.282   5.149   0.309
 8502W        W75043  23.522  12.163  12.104
 8503W        W75044   2.976  39.000   4.604
 8504W        W75045  29.705   7.217  12.653
 8505W        W75046   0.277  15.772  10.788
 8506W        W75047  15.125  13.699   1.469
 8507W        W75048  40.476  21.525  11.583
 8508W        W75049  39.517  18.870   2.690
 8509W        W75050  23.855  32.139   3.084
 8510W        W75051  44.280  44.225  13.653
 8511W        W75052  24.472  24.948   2.753
 8512W        W75053  37.230   6.254   3.096
 8513W        W75054  39.372  16.800   3.561
 8514W        W75055   9.213  28.577  12.619
 8515W        W75056  39.804   2.358   4.525
 8516W        W75057  24.174  26.548   4.400
 8517W        W75058   9.092   4.671   1.466
 8518W        W75059  30.993  24.219  14.367
 8519W        W75060   9.105  22.150   4.529
 8520W        W75061  13.097  43.287  13.342
 8521W        W75062  11.934   3.959   3.008
 8522W        W75063  30.490   1.708  14.032
 8523W        W75064  16.764  42.321  10.716
 8524W        W75065   5.570  43.780  14.996
 8525W        W75066  10.156  13.853  13.001
 8526W        W75067  20.578   7.162   2.284
 8527W        W75068   7.799  37.363  13.910
 8528W        W75069  18.295  32.343   3.670
 8529W        W75070  14.132  39.894  13.069
 8530W        W75071  15.347  44.575   0.807
 8531W        W75072  36.343  18.490  11.123
 8532W        W75073   6.507  44.486  11.118
 8533W        W75074  23.473  30.008  12.929
 8534W        W75075   5.990  13.143   9.852
 8535W        W75076   4.388  24.244  10.647
 8536W        W75077  11.624  11.642  13.641
 8537W        W75078   0.346  36.927  14.011
 8538W        W75079   3.556   6.938  13.904
 8539W        W75080   2.397  44.607  11.557
 8540W        W75081  34.914  15.809   3.639
 8541W        W75082  27.435  34.814   3.790
 8542W        W75083  39.825  39.379  13.903
 8543W        W75084  23.289  16.803   0.496
 8544W        W75085   4.520   0.907   0.433
 8545W        W75086   7.074  15.241   3.359
 8546W        W75087  12.837  36.873  13.472
 8547W        W75088   3.449  43.328  12.147
 8548W        W75089  10.164  20.598  14.443
 8549W        W75090  35.350  37.454   3.363
 8550W        W75091  26.108  40.136   2.825
 8551W        W75092  10.708   0.906  10.183
 8552W        W75093   6.937  25.589   9.849
 8553W        W75094   1.862  11.428  12.985
 8554W        W75095  15.269   6.402  11.542
 8555W        W75096  23.723  32.690  13.126
 8556W        W75097  24.177  27.128  13.823
 8557W        W75098  22.271  39.728   0.483
 8558W        W75099   9.818  26.862  11.618
 8559W        W75100  28.905   5.854   2.352
 8560W        W75101  41.759   4.713   1.116
 8561W        W75102  44.744   1.254   1.722
 8562W        W75103  23.169  24.489   3.301
 8563W        W75104  39.632  12.684  12.451
 8564W        W75105  38.538  14.328   0.826
 8565W        W75106   2.414   4.332   0.867
 8566W        W75107  33.589  24.662  14.302
 8567W        W75108  21.230  30.949  14.465
 8568W        W75109  30.214   4.046   1.375
 8569W        W75110   2.211  44.626   4.235
 8570W        W75111   7.788  16.232   2.920
 8571W        W75112  40.451   1.070  11.296
 8572W        W75113  24.748  43.749  14.874
 8573W        W75114  29.001  37.052  10.969
 8574W        W75115  19.659  35.805   3.374
 8575W        W75116  27.421  13.298   2.211
 8576W        W75117  22.760  43.364   3.723
 8577W        W75118  36.578  26.455   4.447
 8578W        W75119   8.666  44.880   1.803
 8579W        W75120   9.134  39.557  13.449
 8580W        W75121  14.470  22.662  14.419
 8581W        W75122  24.124  14.259   2.916
 8582W        W75123   2.217   9.211  12.063
 8583W        W75124  39.508  22.280   4.548
 8584W        W75125   2.423   4.845   3.361
 8585W        W75126  31.005  42.497  12.870
 8586W        W75127  24.081  34.374   4.779
 8587W        W75128  16.475  26.133  13.794
 8588W        W75129  15.079  26.580   4.056
 8589W        W75130  14.266  12.103  13.820
 8590W        W75131  25.539   5.274   3.193
 8591W        W75132  18.949  10.444  11.551
 8592W        W75133   9.758   1.176  13.011
 8593W        W75134  39.202  27.578   4.473
 8594W        W75135  17.205   5.848   2.628
 8595W        W75136  10.123  42.870  10.549
 8596W        W75137  23.491  42.280  13.885
 8597W        W75138  33.969  17.557  11.230
 8598W        W75139  11.895  20.274   1.891
 8599W        W75140  32.365   9.631  14.061
 8600W        W75141  40.635  12.420  11.956
 8601W        W75142   6.899   4.674  11.667
 8602W        W75143  17.669  10.927  14.851
 8603W        W75144  35.392  40.817  14.731
 8604W        W75145  41.764  16.237  12.796
 8605W        W75146  28.609  14.230   1.700
 8606W        W75147  17.218  20.525   1.861
 8607W        W75148  40.819   0.047   2.804
 8608W        W75149   8.273  44.207   4.880
 8609W        W75150  20.192  38.662   0.979
 8610W        W75151  14.081  13.525  13.367
 8611W        W75152  25.921  22.374   1.440
 8612W        W75153  19.220   7.241   4.888
 8613W        W75154  43.017  17.221   5.056
 8614W        W75155  12.616  35.035   4.069
 8615W        W75156  19.131  40.259  12.405
 8616W        W75157  13.648  19.546   0.487
 8617W        W75158  34.298  13.366   0.775
 8618W        W75159  24.266   7.357   2.242
 8619W        W75160  37.558  35.195  12.512
 8620W        W75161  43.225  13.118  12.035
 8621W        W75162   3.321  31.716   1.180
 8622W        W75163  41.398  15.800   3.219
 8623W        W75164   8.881  34.301   2.760
 8624W        W75165   7.817  34.886   5.253
 8625W        W75166  35.379  42.995   2.403
 8626W        W75167  41.039  14.713  14.428
 8627W        W75168   0.255  26.395   0.333
 8628W        W75169  21.972  37.364   0.950
 8629W        W75170  23.758  10.871   2.297
 8630W        W75171  23.601  14.669  11.498
 8631W        W75172  41.405  24.434   4.865
 8632W        W75173  32.672  28.619   2.402
 8633W        W75174  23.168   1.731   1.717
 8634W        W75175  39.463  25.034   1.269
 8635W        W75176  18.135  33.556   0.381
 8636W        W75177  30.365  18.791  14.699
 8637W        W75178  15.235  10.144  12.442
 8638W        W75179  26.789  12.584  13.328
 8639W        W75180   0.970  28.040  11.686
 8640W        W75181   4.361  22.974   3.649
 8641W        W75182  32.951  34.098   1.219
 8642W        W75183   8.725  21.711  14.883
 8643W        W75184  43.002  42.794   4.389
 8644W        W75185  15.721  34.657   3.210
 8645W        W75186  29.466  13.237  13.165
 8646W        W75187  42.940  23.544   2.887
 8647W        W75188   4.244   1.407   2.078
 8648W        W75189   9.717  15.967  11.714
 8649W        W75190   2.192   4.849   1.509
 8650W        W75191   2.402  26.642  10.472
 8651W        W75192  10.140  40.986   2.291
 8652W        W75193  10.819   0.735   1.623
 8653W        W75194  25.623  21.737  12.213
 8654W        W75195  25.577  11.206  11.976
 8655W        W75196  43.832  37.887   4.201
 8656W        W75197   2.683  44.048   1.690
 8657W        W75198  25.115   6.195   2.153
 8658W        W75199  39.792   7.117   1.334
 8659W        W75200  43.537  11.555   1.552
 8660W        W75201  34.039   1.201  10.287
 8661W        W75202  29.856  22.287  11.973
 8662W        W75203  34.150  38.830   3.693
 8663W        W75204  22.223  18.442  11.072
 8664W        W75205   0.416  13.306  11.219
 8665W        W75206  17.628  38.994  13.120
 8666W        W75207  41.329  40.793  13.912
 8667W        W75208  20.840   1.710   1.671
 8668W        W75209  11.953  34.074   1.847
 8669W        W75210  44.360  40.332  12.383
 8670W        W75211   7.326   6.293   2.325
 8671W        W75212  36.845  17.845  10.521
 8672W        W75213   4.861   2.834  12.876
 8673W        W75214  32.525  39.515  14.133
 8674W        W75215   3.913  11.248  11.762
 8675W        W75216  15.309  25.302   4.465
 8676W        W75217  27.101  38.728   4.685
 8677W        W75218  22.219  15.770   9.827
 8678W        W75219  19.048  38.535   4.220
 8679W        W75220  29.726  27.468  11.108
 8680W        W75221   4.618  27.631   4.945
 8681W        W75222  25.001  38.646  10.696
 8682W        W75223  38.994  21.274  13.835
 8683W        W75224  44.994   3.823  10.921
 8684W        W75225  11.400  10.967  11.170
 8685W        W75226  26.709  25.066  14.613
 8686W        W75227  15.904  11.087   1.852
 8687W        W75228  29.152   0.252   4.674
 8688W        W75229  14.542   3.871   0.115
 8689W        W75230  19.035  33.433   1.906
 8690W        W75231  27.558  25.292   2.455
 8691W        W75232   5.344  33.550  11.205
 8692W        W75233   7.788   2.322   3.557
 8693W        W75234  12.139  28.041   1.464
 8694W        W75235  22.745  31.429  10.839
 8695W        W75236  38.431  43.803  11.536
 8696W        W75237   0.343  34.919   2.680
 8697W        W75238  26.633  40.847  12.328
 8698W        W75239   2.412  36.378  10.688
 8699W        W75240  15.268  31.028  14.004
 8700W        W75241  35.333  19.879  14.675
 8701W        W75242  24.173  23.865  11.942
 8702W        W75243  16.056  21.755  14.906
 8703W        W75244  24.459  15.207  12.100
 8704W        W75245   1.228  26.344   2.314
 8705W        W75246  22.638  37.407  13.881
 8706W        W75247  14.976  30.081  13.945
 8707W        W75248  30.728  33.439  12.688
 8708W        W75249  35.994  36.843   4.354
 8709W        W75250  39.072  18.427  10.633
 8710W        W75251  28.274  25.689  13.395
 8711W        W75252  18.816  44.378   1.838
 8712W        W75253  36.382  34.665   2.886
 8713W        W75254  44.758   3.264  14.247
 8714W        W75255  36.443   2.746   0.504
 8715W        W75256  16.664  25.907  12.133
 8716W        W75257  38.058  14.693   3.685
 8717W        W75258  18.056  35.029   3.058
 8718W        W75259  19.573   0.434   3.668
 8719W        W75260  16.783  38.229  12.019
 8720W        W75261  23.609  29.243  11.983
 8721W        W75262  38.469  37.525  12.129
 8722W        W75263  20.225  38.377   3.652
 8723W        W75264   4.257  40.385   0.403
 8724W        W75265  42.393  43.101  11.593
 8725W        W75266   2.467   9.102   4.139
 8726W        W75267  43.919  29.076  12.542
 8727W        W75268  12.797   1.589  14.257
 8728W        W75269  34.850  38.028   0.389
 8729W        W75270   5.351   3.225   3.897
 8730W        W75271  11.228  22.498   0.410
 8731W        W75272  14.304  23.598   0.505
 8732W        W75273  17.414  15.421   4.107
 8733W        W75274  14.261   7.092   1.158
 8734W        W75275  31.976  14.516  12.667
 8735W        W75276  22.960  16.542  11.163
 8736W        W75277  28.975  43.584  14.111
 8737W        W75278  22.565  35.350   4.551
 8738W        W75279  10.513  29.744  11.141
 8739W        W75280  21.446  16.132   3.695
 8740W        W75281  35.179  34.017  12.611
 8741W        W75282  25.458  25.098   2.656
 8742W        W75283  26.697  20.101   4.495
 8743W        W75284  44.314   4.079   0.394
 8744W        W75285  42.904  10.255   3.113
 8745W        W75286  23.570  42.042   4.044
 8746W        W75287  15.854  44.526   1.708
 8747W        W75288  25.005   1.696   1.711
 8748W        W75289  19.288  41.576  14.929
 8749W        W75290  41.091   5.295  11.076
 8750W        W75291  40.136  25.118   4.241
 8751W        W75292  25.172  33.076   2.847
 8752W        W75293  39.979  17.812   0.908
 8753W        W75294  42.042   9.011  14.456
 8754W        W75295  23.727  11.712   3.651
 8755W        W75296   7.842  11.513   4.107
 8756W        W75297  37.284  25.683   2.258
 8757W        W75298  22.699   0.895  10.033
 8758W        W75299  32.972  35.129   1.970
 8759W        W75300  24.535   0.399   0.825
 8760W        W75301  26.448  16.906   0.579
 8761W        W75302  11.119  35.821   3.759
 8762W        W75303  14.342   1.288   2.076
 8763W        W75304   9.731  34.035  11.962
 8764W        W75305  21.265  43.909   0.215
 8765W        W75306  17.177  18.745   4.318
 8766W        W75307  16.960  34.877   3.298
 8767W        W75308  28.658  29.135  10.740
 8768W        W75309  15.275   6.419   0.709
 8769W        W75310   1.974   7.967   4.026
 8770W        W75311  38.378  30.426   1.914
 8771W        W75312  27.931  42.424   0.366
 8772W        W75313  16.529   6.753  13.146
 8773W        W75314  31.134  18.892  14.075
 8774W        W75315  22.291   5.238   0.835
 8775W        W75316  29.784  27.356   2.794
 8776W        W75317   6.484  41.930   1.958
 8777W        W75318  18.065   3.468  13.471
 8778W        W75319  10.882  40.429   4.366
 8779W        W75320  34.100   5.838  14.226
 8780W        W75321  13.754  27.359  11.616
 8781W        W75322  39.941  27.568  13.362
 8782W        W75323   4.993  14.597   1.251
 8783W        W75324  22.970  16.843   2.316
 8784W        W75325  40.908  28.506  11.523
 8785W        W75326  36.999  34.649  14.312
 8786W        W75327  23.830  13.648   4.813
 8787W        W75328   5.803  37.076  13.096
 8788W        W75329   4.433  12.349  11.103
 8789W        W75330  14.347  39.549  11.150
 8790W        W75331  29.550  24.203   1.402
 8791W        W75332  15.270   4.793  13.522
 8792W        W75333  39.301   9.165  13.775
 8793W        W75334   3.853  26.468   3.636
 8794W        W75335  28.513  35.577   0.403
 8795W        W75336  42.423  18.547  14.998
 8796W        W75337   3.630  28.965  11.929
 8797W        W75338  43.494  32.601  11.956
 8798W        W75339   0.261   6.477  10.720
 8799W        W75340  35.001  22.139   1.903
 8800W        W75341  37.905  24.467   3.404
 8801W        W75342  43.261  25.663  14.266
 8802W        W75343  25.908  36.507  11.033
 8803W        W75344  21.280  26.752  10.996
 8804W        W75345  23.594   1.140   1.446
 8805W        W75346  38.456  42.368   0.870
 8806W        W75347  23.279  38.924   1.014
 8807W        W75348   1.087  28.053   5.014
 8808W        W75349  33.986  44.209   0.780
 8809W        W75350   2.696  10.248  10.593
 8810W        W75351   0.004  18.606  14.563
 8811W        W75352  43.465   6.523   4.391
 8812W        W75353  27.118  26.274   0.193
 8813W        W75354  29.608  36.275   2.300
 8814W        W75355  35.067  32.105   2.819
 8815W        W75356  25.035  22.447  12.556
 8816W        W75357  16.839  17.228   4.437
 8817W        W75358  40.741   0.908  11.683
 8818W        W75359  27.918  21.813   2.265
 8819W        W75360  22.941   9.609  12.970
 8820W        W75361  12.694  18.300  11.219
 8821W        W75362  12.859   5.873  12.931
 8822W        W75363  16.298   4.474   3.631
 8823W        W75364  12.752  23.478   4.317
 8824W        W75365  16.493   4.765   1.455
 8825W        W75366  30.350   4.092  13.000
 8826W        W75367  18.794   8.182   4.295
 8827W        W75368  37.834  41.622  11.968
 8828W        W75369   2.233  24.433   2.270
 8829W        W75370  14.396  16.153   1.409
 8830W        W75371   7.772   8.233   1.874
 8831W        W75372  39.657   2.394  12.079
 8832W        W75373  11.080  42.892   4.498
 8833W        W75374  23.004  42.991  12.251
 8834W        W75375  28.984  22.563  11.952
 8835W        W75376  26.791  19.241  10.566
 8836W        W75377   6.387  41.456   4.194
 8837W        W75378  13.335  30.604  12.702
 8838W        W75379  29.540   8.495   1.263
 8839W        W75380  10.609  13.585  10.737
 8840W        W75381  11.154  32.407   3.217
 8841W        W75382  44.231  24.869  13.418
 8842W        W75383  18.705  33.818  13.959
 8843W        W75384  26.461   6.047   3.668
 8844W        W75385  10.908  41.562   5.809
 8845W        W75386  16.619  42.661   1.891
 8846W        W75387  27.639  26.160  12.166
 8847W        W75388  15.795   2.558  12.562
 8848W        W75389   6.550  13.887  13.916
 8849W        W75390  37.365  19.668  13.499
 8850W        W75391  18.837  22.959  13.585
 8851W        W75392   1.446  44.452  11.675
 8852W        W75393   7.153   3.304  12.891
 8853W        W75394  35.781  30.642  11.514
 8854W        W75395  23.987  29.422  11.394
 8855W        W75396  34.916  31.024  11.865
 8856W        W75397  41.545  30.081   2.226
 8857W        W75398   4.539  36.394  12.085
 8858W        W75399  27.211  26.017   2.647
 8859W        W75400  10.185  42.762  14.464
 8860W        W75401   4.826   0.181   3.957
 8861W        W75402  16.306   0.478  14.727
 8862W        W75403  31.055  19.754   3.369
 8863W        W75404  31.927  24.178  13.872
 8864W        W75405  16.344  14.508   0.044
 8865W        W75406  32.776  44.671  11.142
 8866W        W75407  19.129  13.904   2.736
 8867W        W75408  10.216  30.057  12.353
 8868W        W75409  43.084  23.353   0.759
 8869W        W75410  26.381  25.738   3.069
 8870W        W75411  40.774  28.546  12.224
 8871W        W75412  33.175  14.826   4.714
 8872W        W75413   7.391   2.767   4.854
 8873W        W75414  28.997  43.516  13.529
 8874W        W75415  33.364  15.089   2.907
 8875W        W75416   1.710  43.832   1.940
 8876W        W75417  10.246  43.550   0.393
 8877W        W75418  27.604  15.261  11.009
 8878W        W75419  36.610  14.166  10.227
 8879W        W75420  33.636  11.674   3.937
 8880W        W75421   7.685  32.137  14.681
 8881W        W75422  21.064  11.296  11.650
 8882W        W75423  31.615  29.080  13.692
 8883W        W75424  15.077   8.655   0.577
 8884W        W75425   3.424   9.855   1.275
 8885W        W75426   6.157  20.119  12.921
 8886W        W75427  41.098   1.067   1.118
 8887W        W75428  25.607  25.762   1.670
 8888W        W75429  30.345  32.118   0.815
 8889W        W75430  18.508  24.267   1.645
 8890W        W75431  12.579   5.737   0.819
 8891W        W75432  37.791   6.467  13.046
 8892W        W75433  16.873  37.480  12.462
 8893W        W75434  14.298  15.346  12.265
 8894W        W75435  41.423  23.607   3.799
 8895W        W75436  31.081  17.587  14.333
 8896W        W75437  19.251  11.901  13.066
 8897W        W75438  41.713  23.238  13.232
 8898W        W75439  44.627  38.990  12.636
 8899W        W75440  33.614   1.770  13.438
 8900W        W75441  31.079  11.838   1.746
 8901W        W75442   8.336  15.642   3.255
 8902W        W75443   2.114  16.346   4.353
 8903W        W75444   0.752  27.243  10.768
 8904W        W75445   5.482  18.160   1.763
 8905W        W75446  26.159  10.331  11.188
 8906W        W75447  34.788   2.726  13.427
 8907W        W75448  25.194  12.194   2.819
 8908W        W75449  42.495  34.960  10.710
 8909W        W75450  26.107  15.499   4.203
 8910W        W75451  22.516  15.008   3.909
 8911W        W75452  43.474  14.634   4.096
 8912W        W75453  15.488  21.098   5.210
 8913W        W75454   6.395   1.259  10.360
 8914W        W75455  24.788  32.848  11.620
 8915W        W75456  34.314  12.902  11.600
 8916W        W75457  44.468  44.524  14.592
 8917W        W75458  12.346  11.407   2.032
 8918W        W75459  27.484  25.836  13.865
 8919W        W75460  40.039  35.458  14.960
 8920W        W75461  26.037  29.189   3.767
 8921W        W75462  38.328  42.281   3.274
 8922W        W75463  12.660  11.899   3.971
 8923W        W75464   4.656  30.184   2.307
 8924W        W75465  39.910  34.998  12.902
 8925W        W75466  15.560  19.953  14.277
 8926W        W75467  27.480   8.786  12.039
 8927W        W75468  16.577  20.857  10.722
 8928W        W75469  28.437  35.693   3.316
 8929W        W75470  23.442   2.205   3.664
 8930W        W75471  32.143  37.664   4.507
 8931W        W75472  35.615  12.093   4.756
 8932W        W75473  25.480  31.441  14.938
 8933W        W75474  12.892  29.560   0.712
 8934W        W75475   8.938  26.581  10.604
 8935W        W75476  38.806  31.668   1.756
 8936W        W75477  40.909  20.091   1.392
 8937W        W75478   5.918  43.091   1.679
 8938W        W75479  22.002   0.329   1.383
 8939W        W75480  14.528  38.428   1.734
 8940W        W75481  12.865  33.145  13.414
 8941W        W75482  23.105  16.506   0.851
 8942W        W75483  11.297  21.325  12.926
 8943W        W75484  16.818  30.010  12.821
 8944W        W75485  40.105  27.016  14.356
 8945W        W75486  43.710  18.848   4.101
 8946W        W75487  24.062  24.727  11.629
 8947W        W75488  36.423  37.432  11.607
 8948W        W75489  28.509   4.851   1.213
 8949W        W75490   9.437  36.148  14.516
 8950W        W75491  33.400  39.332  11.448
 8951W        W75492  43.462   6.665  12.948
 8952W        W75493  23.114  10.128  12.831
 8953W        W75494   8.214  36.517   3.769
 8954W        W75495  42.923  25.624   4.279
 8955W        W75496  26.082  16.701   2.814
 8956W        W75497  15.572  19.201   1.759
 8957W        W75498  39.466  19.478  13.382
 8958W        W75499   8.652  26.204  11.902
 8959W        W75500   5.352  19.818  11.554
 8960W        W75501  20.518  33.520   2.305
 8961W        W75502  10.723  43.963   2.636
 8962W        W75503  34.421   0.684  12.837
 8963W        W75504  44.700  33.724  10.634
 8964W        W75505   5.013   6.906   2.948
 8965W        W75506  19.578  36.040  14.131
 8966W        W75507  44.153  13.892   2.699
 8967W        W75508   8.391  43.470   4.353
 8968W        W75509  44.413   3.996  11.162
 8969W        W75510   9.467  15.919   3.606
 8970W        W75511  14.140  41.789   2.759
 8971W        W75512  22.710  29.998   0.269
 8972W        W75513  17.375  18.038  11.695
 8973W        W75514  13.657   0.924   2.622
 8974W        W75515  28.947   9.553  12.505
 8975W        W75516  25.257  38.044  12.562
 8976W        W75517   8.730  37.398   1.730
 8977W        W75518  21.414  22.970   2.720
 8978W        W75519  28.363  41.271   2.800
 8979W        W75520   2.080  38.328  13.440
 8980W        W75521   6.282   5.477  11.037
 8981W        W75522  25.462  32.610  11.969
 8982W        W75523  17.701  23.141  14.037
 8983W        W75524  42.402  34.683  13.461
 8984W        W75525  32.113   6.583  13.878
 8985W        W75526  41.298  22.438   1.869
 8986W        W75527   4.880  35.149   4.126
 8987W        W75528   2.461  38.399  11.178
 8988W        W75529  36.964  26.734  11.972
 8989W        W75530  10.519  43.515   2.365
 8990W        W75531  20.042  43.868  11.648
 8991W        W75532   2.500  13.857  12.156
 8992W        W75533  31.163  18.375  13.891
 8993W        W75534  25.590   7.360   1.475
 8994W        W75535  11.106  23.644  10.761
 8995W        W75536  18.020  34.527   3.509
 8996W        W75537  38.355  36.296   2.257
 8997W        W75538   6.561  10.738  13.136
 8998W        W75539  16.305  35.936  13.977
 8999W        W75540  40.567  44.092  13.780
 9000W        W75541  13.064   8.242  11.546
 9001W        W75542  35.584  17.447  10.987
 9002W        W75543  34.837  42.349  11.632
 9003W        W75544  20.723  42.834  14.060
 9004W        W75545  22.097  24.461   0.815
 9005W        W75546  41.271  40.357   0.626
 9006W        W75547  18.246  17.797  10.631
 9007W        W75548  26.685  38.465   2.802
 9008W        W75549  42.889  34.165   3.385
 9009W        W75550   1.040   6.983  11.919
 9010W        W75551  29.545  40.759  11.461
 9011W        W75552  32.965  37.492  12.874
 9012W        W75553  32.514  18.350  14.542
 9013W        W75554   7.574  19.967  14.429
 9014W        W75555  44.275  11.355  11.485
 9015W        W75556  12.360   5.652   1.287
 9016W        W75557  44.585   7.832  11.056
 9017W        W75558  34.089  44.776   2.199
 9018W        W75559  24.410   0.935   1.015
 9019W        W75560  21.191  22.555   3.428
 9020W        W75561   5.864  26.204  12.693
 9021W        W75562  14.942  18.769   0.203
 9022W        W75563  38.339  36.620   1.787
 9023W        W75564  41.080  10.445   1.794
 9024W        W75565  24.527  19.660   4.650
 9025W        W75566   0.978  32.319   2.193
 9026W        W75567  12.218  30.860   1.856
 9027W        W75568  27.919  36.407   1.705
 9028W        W75569  42.911  43.907   0.387
 9029W        W75570  25.014   5.854  13.146
 9030W        W75571   0.431   4.000  11.182
 9031W        W75572  21.569  30.136  13.479
 9032W        W75573  14.044   6.718  12.638
 9033W        W75574  36.752  42.475   1.344
 9034W        W75575   7.090  21.505  10.636
 9035W        W75576  26.277  33.138  11.132
 9036W        W75577  33.589  37.338  14.903
 9037W        W75578  37.347  16.584  12.376
 9038W        W75579   3.489  30.355   4.614
 9039W        W75580  15.808   0.610  10.286
 9040W        W75581  37.485  13.345  11.969
 9041W        W75582  18.161  32.606  13.082
 9042W        W75583  40.452  31.123   2.675
 9043W        W75584  42.753  10.641  12.981
 9044W        W75585   3.320  36.868   0.244
 9045W        W75586  15.526  12.329  12.637
 9046W        W75587  14.416  30.196  10.685
 9047W        W75588  16.048  32.438   3.224
 9048W        W75589  42.145  42.218   2.604
 9049W        W75590  24.011  33.217   1.564
 9050W        W75591   3.051  42.786  10.706
 9051W        W75592  40.562  42.738  14.059
 9052W        W75593  22.175  40.529   0.898
 9053W        W75594   2.405   3.333  11.741
 9054W        W75595  40.935   2.147  13.052
 9055W        W75596  14.158   5.651   0.893
 9056W        W75597   8.171   5.063  14.270
 9057W        W75598  31.557   2.721  10.837
 9058W        W75599   9.918  40.583   4.037
 9059W        W75600  30.153   1.012   0.768
 9060W        W75601  30.021   6.637  10.619
 9061W        W75602   1.664   1.421  11.910
 9062W        W75603  31.396  35.519   4.400
 9063W        W75604  27.071  41.985   4.699
 9064W        W75605  37.541  39.066   0.416
 9065W        W75606  43.777   8.740  11.145
 9066W        W75607  21.555  37.982   4.735
 9067W        W75608  21.071  26.576  12.276
 9068W        W75609  42.387  10.434  11.541
 9069W        W75610  36.853   1.804  13.432
 9070W        W75611  20.999  12.123  14.307
 9071W        W75612  27.352  18.031   5.261
 9072W        W75613  25.782   4.320  14.304
 9073W        W75614  18.862  11.719   0.368
 9074W        W75615  37.478   8.680  14.747
 9075W        W75616   6.975  26.624   3.683
 9076W        W75617  13.292  38.731  12.825
 9077W        W75618  31.053   2.728  12.381
 9078W        W75619  15.107  22.687   2.594
 9079W        W75620  42.941  37.246   0.368
 9080W        W75621  20.204  40.920  12.975
 9081W        W75622   1.243  25.555   1.818
 9082W        W75623  23.493  41.495  11.522
 9083W        W75624  38.994   4.337  13.312
 9084W        W75625  26.458  21.080   1.789
 9085W        W75626   5.530  31.949  10.741
 9086W        W75627  22.991  37.641  11.446
 9087W        W75628  10.631  12.607   3.699
 9088W        W75629  44.577  28.415   0.998
 9089W        W75630  30.966   8.875   3.314
 9090W        W75631  15.884   2.399   4.792
 9091W        W75632  38.066  34.501  13.522
 9092W        W75633  20.981   9.171   3.135
 9093W        W75634   7.614  43.724   4.928
 9094W        W75635  36.274  16.136  11.929
 9095W        W75636  37.562  40.027  10.633
 9096W        W75637  14.580  14.842  11.023
 9097W        W75638  12.441  12.147  14.344
 9098W        W75639  37.068   1.316  11.207
 9099W        W75640   4.234   4.938  13.325
 9100W        W75641  33.753  40.079   0.415
 9101W        W75642  38.053  27.444   2.610
 9102W        W75643  18.803   0.863  11.549
 9103W        W75644  44.219  19.487   0.907
 9104W        W75645  34.532  10.451  13.731
 9105W        W75646   2.435  28.524  12.143
 9106W        W75647  34.305  14.291   2.362
 9107W        W75648  30.640  22.444   4.350
 9108W        W75649  18.926  26.917   1.380
 9109W        W75650  23.201   9.842   1.799
 9110W        W75651  35.925  16.270  11.236
 9111W        W75652  16.650   0.013  11.182
 9112W        W75653  22.482  29.057  12.841
 9113W        W75654  15.607  14.441   1.773
 9114W        W75655  36.338  23.955   2.651
 9115W        W75656  43.354  43.258   0.046
 9116W        W75657  23.817  27.042   2.210
 9117W        W75658  12.135   9.208  13.702
 9118W        W75659  29.611  41.806   1.188
 9119W        W75660  22.974  31.759  11.142
 9120W        W75661   3.184   5.210   3.506
 9121W        W75662  44.112  20.724   2.309
 9122W        W75663  13.859   2.602   2.149
 9123W        W75664   1.574  39.774  10.969
 9124W        W75665  40.069   0.359  14.751
 9125W        W75666  17.809  26.960  10.955
 9126W        W75667  41.568  27.112   3.318
 9127W        W75668  27.199  33.520  13.868
 9128W        W75669  41.656  27.717  12.069
 9129W        W75670  35.167  42.940   3.302
 9130W        W75671  19.719  19.209   4.143
 9131W        W75672  15.551   2.270  13.892
 9132W        W75673  43.788   5.372   3.204
 9133W        W75674  17.554  36.053   4.165
 9134W        W75675  14.785   0.959   0.968
 9135W        W75676  25.488  20.372  11.699
 9136W        W75677  43.659  23.634  12.813
 9137W        W75678  39.934  23.233   2.636
 9138W        W75679   8.733   9.286   0.835
 9139W        W75680   2.767  30.928   1.542
 9140W        W75681  14.246  15.302   4.082
 9141W        W75682  18.169  11.290  12.537
 9142W        W75683  34.454  31.271  10.710
 9143W        W75684  40.825  17.121   5.096
 9144W        W75685  43.336  35.500   4.402
 9145W        W75686  31.442   0.451   0.812
 9146W        W75687  16.589  36.486  13.625
 9147W        W75688  44.148  14.665   0.204
 9148W        W75689  18.573  29.178  11.120
 9149W        W75690  16.181  19.887   3.219
 9150W        W75691  10.102  15.569   4.587
 9151W        W75692  26.091  33.935  10.689
 9152W        W75693   8.366  28.932   0.895
 9153W        W75694  39.302  28.006   2.229
 9154W        W75695  18.715   0.461   1.211
 9155W        W75696  39.736  23.638  13.800
 9156W        W75697  42.717  44.998   0.829
 9157W        W75698  32.955  32.536  14.018
 9158W        W75699  21.594  35.926  12.316
 9159W        W75700   9.477  29.910   2.601
 9160W        W75701   4.997  37.402  13.343
 9161W        W75702   9.354  29.258  11.705
 9162W        W75703  27.925  26.604   4.096
 9163W        W75704  18.215  40.003  13.289
 9164W        W75705  31.566   1.247  14.023
 9165W        W75706  32.194  34.207   3.250
 9166W        W75707   0.871  28.990  14.278
 9167W        W75708  27.930  30.494  10.192
 9168W        W75709  11.127  23.216  12.736
 9169W        W75710  29.905  42.576  11.974
 9170W        W75711   7.356  38.373  11.642
 9171W        W75712  40.632  28.046   3.245
 9172W        W75713  20.652  39.526   4.556
 9173W        W75714  40.567  16.137  13.501
 9174W        W75715  26.212  27.714  11.947
 9175W        W75716  27.431  34.801   0.506
 9176W        W75717  16.355  44.354  13.626
 9177W        W75718  23.305   0.256   0.165
 9178W        W75719  21.336  17.838  14.853
 9179W        W75720  14.652  15.093  12.940
 9180W        W75721  20.277   2.391   1.759
 9181W        W75722  18.383  11.576  12.925
 9182W        W75723  23.497   0.931   1.967
 9183W        W75724  39.011  17.255  12.051
 9184W        W75725   6.097  24.847   1.773
 9185W        W75726  12.784  35.703  11.453
 9186W        W75727  34.092  26.641  13.002
 9187W        W75728   1.496  33.856   2.783
 9188W        W75729  13.849   1.744   0.684
 9189W        W75730  37.165  21.485   4.891
 9190W        W75731  36.502  16.771   3.690
 9191W        W75732  21.344  36.133  14.774
 9192W        W75733  10.958  44.262  11.033
 9193W        W75734   7.113  14.240  11.007
 9194W        W75735  40.632  11.798   4.441
 9195W        W75736  42.756  25.016  14.473
 9196W        W75737   1.680  24.176  12.212
 9197W        W75738   4.442   8.815  10.510
 9198W        W75739  18.169  14.601   0.530
 9199W        W75740   0.978  11.666  11.865
 9200W        W75741  16.793  13.623  11.499
 9201W        W75742  16.287   6.694   4.588
 9202W        W75743   1.801  17.296  10.659
 9203W        W75744   4.384  20.756  14.428
 9204W        W75745  14.649  34.046   1.345
 9205W        W75746   2.144   7.884  13.657
 9206W        W75747  28.956  24.291   1.824
 9207W        W75748  33.324  10.800   1.915
 9208W        W75749  25.368  25.694  14.510
 9209W        W75750  14.654  37.672  10.848
 9210W        W75751  22.650   3.381  10.996
 9211W        W75752  25.079  15.713   2.161
 9212W        W75753  43.376  37.486   3.826
 9213W        W75754  23.597  15.550  12.051
 9214W        W75755  35.356  39.068   4.750
 9215W        W75756  27.848   4.841  13.500
 9216W        W75757   4.785  25.021  11.104
 9217W        W75758  10.392  30.606  14.886
 9218W        W75759  19.163  32.165   3.672
 9219W        W75760  37.419   1.170  10.852
 9220W        W75761  44.300   2.225   0.699
 9221W        W75762   2.760  37.867  14.453
 9222W        W75763  12.086  31.152   1.108
 9223W        W75764   2.864  29.085  11.434
 9224W        W75765  10.352  27.012  13.352
 9225W        W75766  34.504  33.485   3.063
 9226W        W75767  43.303  31.761  10.690
 9227W        W75768  33.932  34.395   3.773
 9228W        W75769  25.468  27.540  10.698
 9229W        W75770  31.280   4.017   3.722
 9230W        W75771  14.475  27.946  14.525
 9231W        W75772  21.031  26.211  10.764
 9232W        W75773  10.082   6.006   0.908
 9233W        W75774   0.347  31.821   0.908
 9234W        W75775  24.630  10.779   1.232
 9235W        W75776  28.710  32.006   2.166
 9236W        W75777  21.043  32.849   1.509
 9237W        W75778   3.993  34.578   0.375
 9238W        W75779  19.872  10.184  12.022
 9239W        W75780  19.703  41.421  14.596
 9240W        W75781  16.320   3.351  11.686
 9241W        W75782  31.019  37.165  13.532
 9242W        W75783  17.107  22.574   0.074
 9243W        W75784  14.616  40.740   0.874
 9244W        W75785  17.925  13.697   2.906
 9245W        W75786  23.083   1.305  10.587
 9246W        W75787  15.268  39.918   4.274
 9247W        W75788  37.756  30.370   4.594
 9248W        W75789   1.266  26.683   1.220
 9249W        W75790  16.064   2.920   4.946
 9250W        W75791  19.645  12.752   1.366
 9251W        W75792  35.444  24.009   2.945
 9252W        W75793   5.436  18.647  12.150
 9253W        W75794  37.851   3.752   1.220
 9254W        W75795  14.770  23.029   4.610
 9255W        W75796  12.872  36.321   1.316
 9256W        W75797   1.549   4.648   0.904
 9257W        W75798   3.341  42.312   1.564
 9258W        W75799  42.324   5.481  10.648
 9259W        W75800  19.611  31.944   2.994
 9260W        W75801  17.722  13.286   1.189
 9261W        W75802  23.239   0.487  13.813
 9262W        W75803   6.863  12.835   2.778
 9263W        W75804  42.409   5.991   0.459
 9264W        W75805  29.000  31.122  12.544
 9265W        W75806  39.025  30.748   0.722
 9266W        W75807   2.642  28.959  12.971
 9267W        W75808  18.134  41.844  11.560
 9268W        W75809  38.022  19.408   1.226
 9269W        W75810  37.135   6.051  13.421
 9270W        W75811   4.276   8.826   0.826
 9271W        W75812   5.837  10.590   3.188
 9272W        W75813   3.786  33.861   1.607
 9273W        W75814  14.699  33.922  12.552
 9274W        W75815  26.326  40.335   3.259
 9275W        W75816  36.910  21.988   4.914
 9276W        W75817  37.306  12.807  14.566
 9277W        W75818  24.544  10.983  10.794
 9278W        W75819  44.564  22.571  12.105
 9279W        W75820  37.573  30.105  13.942
 9280W        W75821  39.693  29.655   1.474
 9281W        W75822  19.384  30.124   0.005
 9282W        W75823  23.599  13.935  10.806
 9283W        W75824  23.351  42.573  14.811
 9284W        W75825  24.456   8.814  11.212
 9285W        W75826  25.149   5.358   0.752
 9286W        W75827  35.746  15.799  11.173
 9287W        W75828  37.463   1.154   1.862
 9288W        W75829  12.222  10.923  10.695
 9289W        W75830  38.010  44.939   0.957
 9290W        W75831   0.933  41.427   3.662
 9291W        W75832  39.532  39.036   2.838
 9292W        W75833  31.450  40.676   2.911
 9293W        W75834  38.990  24.802   0.023
 9294W        W75835  31.086   6.734  11.660
 9295W        W75836  16.701  34.379  11.961
 9296W        W75837   7.964  29.109  12.533
 9297W        W75838  21.550  30.248  11.106
 9298W        W75839   9.732  11.168   2.219
 9299W        W75840  22.093  34.905   0.189
 9300W        W75841   4.438   8.285  10.740
 9301W        W75842   6.931  25.762   0.830
 9302W        W75843  11.657  24.320  10.599
 9303W        W75844  42.886  14.669   4.618
 9304W        W75845  23.076  11.383   1.793
 9305W        W75846  43.258  41.874   2.865
 9306W        W75847  27.582  34.815  13.795
 9307W        W75848   4.482   0.274  10.314
 9308W        W75849  39.448  23.091   4.966
 9309W        W75850   1.621  35.081  12.670
 9310W        W75851   7.757   8.496  13.848
 9311W        W75852  11.662  29.505   1.800
 9312W        W75853   9.956  29.388  12.312
 9313W        W75854  29.145  31.773   3.699
 9314W        W75855  28.642  23.998  12.703
 9315W        W75856   4.373  17.224   3.635
 9316W        W75857  40.388  44.265   4.326
 9317W        W75858   7.562  37.322   3.754
 9318W        W75859   4.445  15.271   2.121
 9319W        W75860   4.060  29.425   2.414
 9320W        W75861  41.930  22.898  14.213
 9321W        W75862  19.833  23.124  13.530
 9322W        W75863  38.761  14.360  11.912
 9323W        W75864  25.660  35.959   3.632
 9324W        W75865   9.755  39.410   1.007
 9325W        W75866  35.995   6.894  12.969
 9326W        W75867  24.264   9.806   3.260
 9327W        W75868  42.877   2.238   1.381
 9328W        W75869   7.957  42.861  11.533
 9329W        W75870  28.751  43.010  11.046
 9330W        W75871  37.976  43.339  14.793
 9331W        W75872  26.705  41.474   0.909
 9332W        W75873  19.762  34.593  12.027
 9333W        W75874  13.533  10.069   1.873
 9334W        W75875  18.026  12.800   0.693
 9335W        W75876   5.018  18.799   3.540
 9336W        W75877  12.853  36.082  11.105
 9337W        W75878  18.471  13.450  10.931
 9338W        W75879  21.093  26.901   4.113
 9339W        W75880  26.211  30.903  12.376
 9340W        W75881  12.529  27.490  11.321
 9341W        W75882  16.736  33.598   0.486
 9342W        W75883  10.161  36.878  12.399
 9343W        W75884  17.971  32.032   2.840
 9344W        W75885  38.965  30.628  10.278
 9345W        W75886   8.726  20.723  14.784
 9346W        W75887   6.848  16.182   2.936
 9347W        W75888  13.366  10.754   0.034
 9348W        W75889  39.586  27.558   4.109
 9349W        W75890  11.257  41.021  13.517
 9350W        W75891  29.575  30.677  14.300
 9351W        W75892   0.728  39.285   2.142
 9352W        W75893   4.806  34.272  11.500
 9353W        W75894  11.068   5.015   3.787
 9354W        W75895  26.651  18.938   0.403
 9355W        W75896   5.160   6.703  14.854
 9356W        W75897  30.587  15.816  11.425
 9357W        W75898  33.007  35.865  10.417
 9358W        W75899  14.117  25.131   4.129
 9359W        W75900  34.019  33.119   0.382
 9360W        W75901   2.672  25.021   3.667
 9361W        W75902  28.595  21.853   2.714
 9362W        W75903  14.335  13.253  10.705
 9363W        W75904   0.225  38.092  10.900
 9364W        W75905  20.201  42.335   2.590
 9365W        W75906  21.502  18.625  13.624
 9366W        W75907  11.203   8.724  12.553
 9367W        W75908  14.261  36.750  13.580
 9368W        W75909  39.536  34.599   1.850
 9369W        W75910  43.821  28.834   4.216
 9370W        W75911  32.550  14.780  11.258
 9371W        W75912  33.493  25.064   0.786
 9372W        W75913   4.291  41.313   1.362
 9373W        W75914  28.336  34.779   3.404
 9374W        W75915   8.428  20.755   0.459
 9375W        W75916  21.071   6.308   0.741
 9376W        W75917  44.566  24.335   0.220
 9377W        W75918  37.772  43.098  11.082
 9378W        W75919  10.060  39.462   0.606
 9379W        W75920   7.611  24.826   5.158
 9380W        W75921  23.567   3.787  14.798
 9381W        W75922  10.233   6.442   1.681
 9382W        W75923  15.798  34.152  14.488
 9383W        W75924  38.372  21.603  13.439
 9384W        W75925  17.828  13.370  14.838
 9385W        W75926  15.806   2.468   4.299
 9386W        W75927  22.520  38.840   0.492
 9387W        W75928  10.139  40.885  10.716
 9388W        W75929   5.974  11.045   1.910
 9389W        W75930  27.076  33.491  12.807
 9390W        W75931   9.490  41.345  13.868
 9391W        W75932  13.766  35.444  13.832
 9392W        W75933   0.407   4.709  13.054
 9393W        W75934  32.322   0.446  11.632
 9394W        W75935  29.567  24.981   0.792
 9395W        W75936   4.008  42.530   4.859
 9396W        W75937   5.475   2.839  13.514
 9397W        W75938  41.454  11.412  11.912
 9398W        W75939  24.716  14.130  10.797
 9399W        W75940  41.998   9.225   4.528
 9400W        W75941  37.473   6.443   5.038
 9401W        W75942   7.463  44.408   0.810
 9402W        W75943   6.173   2.635  11.028
 9403W        W75944  27.963  41.273  10.728
 9404W        W75945  22.974  43.451  10.797
 9405W        W75946   8.360  29.523   3.236
 9406W        W75947  21.667  38.485   2.241
 9407W        W75948  21.687  22.389   2.726
 9408W        W75949  44.333  43.243   4.377
 9409W        W75950  32.208   3.573  11.078
 9410W        W75951   2.226  17.993   3.704
 9411W        W75952  26.103   6.150   1.376
 9412W        W75953   3.229  40.940   2.408
 9413W        W75954  12.075  16.867   0.023
 9414W        W75955  29.368  26.576   4.186
 9415W        W75956   7.324  14.493  14.861
 9416W        W75957  31.909  31.400   1.235
 9417W        W75958  33.382  44.270  12.956
 9418W        W75959  27.096  29.001  14.322
 9419W        W75960  32.188  31.942  14.498
 9420W        W75961  19.583   1.438   2.644
 9421W        W75962   9.175  14.203   0.791
 9422W        W75963  10.690   9.386   0.951
 9423W        W75964   6.244  41.448   1.187
 9424W        W75965  37.140   9.836   2.314
 9425W        W75966  44.864  44.841  13.917
 9426W        W75967  40.565  40.476  13.493
 9427W        W75968   1.389  23.243   9.600
 9428W        W75969  26.679  12.711  11.367
 9429W        W75970   7.265   2.348   3.581
 9430W        W75971  41.913  13.140   1.280
 9431W        W75972  43.943  15.535   0.747
 9432W        W75973  11.388   1.884  14.376
 9433W        W75974  27.888  37.767  14.065
 9434W        W75975   2.380  22.026   0.246
 9435W        W75976  14.181   4.017  14.771
 9436W        W75977  25.569  39.722   4.673
 9437W        W75978  16.967  36.069  10.239
 9438W        W75979  26.805  13.838  12.389
 9439W        W75980  26.079  30.655  11.945
 9440W        W75981  30.905   0.273  13.349
 9441W        W75982  24.720   5.073  12.450
 9442W        W75983  18.042  16.194  12.070
 9443W        W75984  33.967  14.701   2.678
 9444W        W75985  40.057  25.455  11.514
 9445W        W75986  37.656  10.368   3.154
 9446W        W75987  40.444  15.608  12.533
 9447W        W75988   2.765   0.061  11.073
 9448W        W75989  25.165  16.117   0.220
 9449W        W75990  32.493  38.906  14.931
 9450W        W75991   9.794  43.607   2.716
 9451W        W75992  34.073  24.187   0.880
 9452W        W75993  37.064  34.004  11.159
 9453W        W75994  37.436  43.517  11.240
 9454W        W75995  25.469  26.243   1.785
 9455W        W75996   2.864  36.529  12.711
 9456W        W75997   8.124  20.364   2.327
 9457W        W75998   8.229  13.121  10.418
 9458W        W75999  35.195  30.896   1.100
 9459W        W76000  40.248  16.223  13.990
 9460W        W76001  15.639  34.697   0.743
 9461W        W76002  15.878  11.844   4.500
 9462W        W76003  10.031   6.688  11.731
 9463W        W76004  13.677  24.743   3.565
 9464W        W76005  15.092  21.101   1.851
 9465W        W76006  13.291  12.353   0.868
 9466W        W76007   8.241   1.470   4.167
 9467W        W76008   6.720  38.410   9.889
 9468W        W76009  34.016  16.699   4.603
 9469W        W76010  32.468  22.766  14.344
 9470W        W76011  10.579   6.253  13.383
 9471W        W76012  36.135  43.374   0.833
 9472W        W76013   8.239  35.969   9.926
 9473W        W76014  15.105  14.166   3.240
 9474W        W76015  10.439  29.891  13.589
 9475W        W76016   5.302  44.978   4.166
 9476W        W76017  39.914  26.567  13.629
 9477W        W76018  43.936  15.586  11.059
 9478W        W76019  12.744  38.464   4.630
 9479W        W76020  15.516   6.489   2.230
 9480W        W76021  39.571  41.800  14.474
 9481W        W76022  42.704   6.639  12.392
 9482W        W76023  24.532  43.381  12.652
 9483W        W76024  29.066  27.138  13.939
 9484W        W76025  41.946  11.134  12.899
 9485W        W76026  44.943   4.751   3.177
 9486W        W76027  20.543  14.606  14.495
 9487W        W76028  38.521   1.165  11.629
 9488W        W76029  22.463  19.509  10.353
 9489W        W76030  30.140  36.984   2.921
 9490W        W76031  38.849  15.357   4.417
 9491W        W76032  24.611  30.788  10.593
 9492W        W76033  34.955  20.204   0.726
 9493W        W76034  32.713  28.732  14.577
 9494W        W76035  20.292   8.898  12.942
 9495W        W76036  22.192  42.913   1.701
 9496W        W76037   1.743  10.701  10.728
 9497W        W76038  11.441  34.543   4.775
 9498W        W76039  43.874   9.719  11.211
 9499W        W76040  14.493  29.528   5.054
 9500W        W76041  21.626   5.851   1.765
 9501W        W76042  10.315   1.033  14.050
 9502W        W76043  23.746  14.782   3.654
 9503W        W76044  14.229  22.103  12.960
 9504W        W76045  22.019  31.066   4.398
 9505W        W76046  38.111  31.156   3.638
 9506W        W76047  26.666  43.558  13.599
 9507W        W76048  22.884  26.246   0.351
 9508W        W76049   8.740   3.666  13.073
 9509W        W76050  24.669  37.578   3.404
 9510W        W76051  44.359  17.680  13.996
 9511W        W76052  23.350  31.627   0.776
 9512W        W76053  33.417  26.675  14.437
 9513W        W76054   0.492   7.222  13.511
 9514W        W76055  22.684   9.138   0.922
 9515W        W76056   9.812  33.979  12.994
 9516W        W76057  42.903   1.999   1.852
 9517W        W76058  17.045   0.886  10.420
 9518W        W76059  13.360  24.581   0.818
 9519W        W76060  33.119  17.771   4.689
 9520W        W76061   8.164   7.714  13.053
 9521W        W76062  26.090  10.312   0.880
 9522W        W76063  13.869  42.280   1.224
 9523W        W76064   3.660   6.351   1.753
 9524W        W76065  39.321  11.057  13.856
 9525W        W76066  14.278  18.865   3.780
 9526W        W76067  23.502  29.450  11.500
 9527W        W76068  32.445  14.600  14.715
 9528W        W76069  34.043  32.151   3.301
 9529W        W76070  23.623  15.089  12.897
 9530W        W76071  38.365   1.530   1.003
 9531W        W76072   9.365   4.193   2.384
 9532W        W76073  40.933  40.015  11.165
 9533W        W76074   3.529  31.938   0.289
 9534W        W76075  30.671   2.329   4.088
 9535W        W76076  36.540  38.560   2.865
 9536W        W76077  39.311  15.998  11.621
 9537W        W76078  26.158   2.054  13.378
 9538W        W76079   3.292  29.432  13.307
 9539W        W76080  12.867  38.724   4.194
 9540W        W76081  40.655  30.563  12.996
 9541W        W76082  27.094  39.259  13.032
 9542W        W76083  42.037  44.908  11.913
 9543W        W76084  30.913   9.199  11.950
 9544W        W76085  28.909  41.547  11.647
 9545W        W76086  36.932  15.269  12.843
 9546W        W76087  11.820  18.757   4.641
 9547W        W76088  10.844  25.779  11.194
 9548W        W76089  21.083   4.692   5.416
 9549W        W76090  12.750  27.533   0.999
 9550W        W76091  15.278  32.096   5.396
 9551W        W76092   2.437   0.213   3.227
 9552W        W76093  28.114  26.059  12.436
 9553W        W76094  37.048  20.036   0.269
 9554W        W76095  14.580  16.316   0.961
 9555W        W76096  12.786   1.853  13.373
 9556W        W76097  15.022  15.869  12.948
 9557W        W76098   4.693  19.698   2.777
 9558W        W76099  19.848  22.380  13.476
 9559W        W76100  10.916  37.822  11.892
 9560W        W76101  36.486  32.876  11.984
 9561W        W76102   6.904  15.717   2.255
 9562W        W76103   5.689  27.018  14.162
 9563W        W76104  33.935  37.115  10.781
 9564W        W76105  27.422  22.524   2.303
 9565W        W76106  12.045  14.839  12.121
 9566W        W76107   6.117  25.841  11.961
 9567W        W76108  20.095  20.279   3.073
 9568W        W76109  27.202  29.309  13.418
 9569W        W76110   4.840  34.276  10.713
 9570W        W76111  27.699  23.827  14.378
 9571W        W76112  18.999  16.627   2.730
 9572W        W76113   2.165  38.822   4.292
 9573W        W76114  40.707  17.580  14.846
 9574W        W76115  33.735   1.836   2.149
 9575W        W76116  13.048   1.660   4.428
 9576W        W76117   4.192  32.714   2.226
 9577W        W76118   6.810   3.582   5.222
 9578W        W76119  11.148  25.137   1.431
 9579W        W76120  42.954  37.897  13.973
 9580W        W76121   6.170  28.001   4.093
 9581W        W76122  36.017  28.674   4.782
 9582W        W76123  40.912  43.212   2.651
 9583W        W76124  31.604  21.559   2.475
 9584W        W76125  14.077  26.681  14.318
 9585W        W76126   8.044   8.290  11.722
 9586W        W76127  19.277  15.161   1.272
 9587W        W76128  21.840  22.247  13.876
 9588W        W76129   9.967  20.787   3.186
 9589W        W76130  13.813  34.960  12.497
 9590W        W76131  38.554  21.588   0.288
 9591W        W76132  36.005  41.303   2.696
 9592W        W76133  40.906  34.840   2.106
 9593W        W76134  29.065  34.590  12.956
 9594W        W76135  10.576  36.057  11.929
 9595W        W76136  23.241  21.628   2.907
 9596W        W76137  36.643  24.984   3.633
 9597W        W76138   8.878   0.865   3.276
 9598W        W76139   6.476  41.450  13.377
 9599W        W76140  33.986  37.877  11.896
 9600W        W76141  17.343  37.236  14.610
 9601W        W76142  28.707  28.582  11.659
 9602W        W76143  22.626  15.129  13.107
 9603W        W76144  42.443   3.502  11.771
 9604W        W76145  10.060  11.156  14.951
 9605W        W76146  16.576  19.366   2.553
 9606W        W76147  42.353  10.886   2.748
 9607W        W76148  35.634  34.395   0.616
 9608W        W76149  20.826   4.704   0.317
 9609W        W76150  24.213   2.764  14.535
 9610W        W76151  20.837  44.727  13.458
 9611W        W76152   3.674  10.171   3.680
 9612W        W76153  43.450   2.107  13.119
 9613W        W76154  43.256  29.200  14.498
 9614W        W76155   1.804  21.510   3.147
 9615W        W76156  45.000  38.039  11.749
 9616W        W76157  24.468  27.774   5.011
 9617W        W76158  19.205  13.434  13.924
 9618W        W76159  38.743  39.364  11.780
 9619W        W76160  25.053  14.043   0.270
 9620W        W76161  31.230  44.896  13.959
 9621W        W76162  12.569   2.000   3.882
 9622W        W76163   2.878   2.827   2.174
 9623W        W76164  32.325  43.276  13.942
 9624W        W76165   6.203  27.995   4.992
 9625W        W76166  11.718  19.641   4.245
 9626W        W76167  35.968   7.900   3.819
 9627W        W76168  35.848  14.241   0.419
 9628W        W76169  33.257  28.144  12.593
 9629W        W76170  22.740  42.205  12.413
 9630W        W76171  33.404  33.992  11.691
 9631W        W76172  26.673  20.605  11.769
 9632W        W76173  33.665  34.968  12.063
 9633W        W76174  39.443  32.193  13.979
 9634W        W76175  40.961   4.761  14.875
 9635W        W76176  19.235  40.752  11.067
 9636W        W76177  43.344  36.680   3.490
 9637W        W76178  40.354  25.520   2.285
 9638W        W76179  36.824  38.433  12.834
 9639W        W76180  31.411  14.728  10.157
 9640W        W76181  44.877  25.497   1.368
 9641W        W76182   5.659  39.674  10.414
 9642W        W76183  41.886  25.593   2.225
 9643W        W76184   5.296   6.175  13.792
 9644W        W76185  27.524   0.686   2.808
 9645W        W76186  20.961  11.594  10.754
 9646W        W76187  24.058   7.597  12.059
 9647W        W76188  22.290  44.926   3.705
 9648W        W76189  27.150  14.218  13.528
 9649W        W76190  15.814  20.832  11.191
 9650W        W76191  24.399  33.903   0.919
 9651W        W76192   2.386  41.354  14.532
 9652W        W76193  24.067  16.197   1.335
 9653W        W76194   6.103  32.575  13.406
 9654W        W76195  43.256  20.942   3.235
 9655W        W76196  44.576  44.853   1.332
 9656W        W76197  30.174  23.583   3.288
 9657W        W76198  32.541  30.437   4.282
 9658W        W76199  33.445  11.464  11.267
 9659W        W76200   8.211  36.181   3.044
 9660W        W76201  15.224   0.549  14.866
 9661W        W76202  15.525  25.024   3.585
 9662W        W76203  35.179  20.597   1.891
 9663W        W76204   2.803  34.671   2.687
 9664W        W76205   7.744  28.241  10.751
 9665W        W76206  10.635  15.656   3.791
 9666W        W76207  23.562   6.985  12.108
 9667W        W76208   3.441  36.522   0.898
 9668W        W76209  29.007  30.579  12.549
 9669W        W76210  42.827  28.905  13.018
 9670W        W76211  11.661  12.109   3.056
 9671W        W76212  10.330  40.686  11.174
 9672W        W76213   8.460  30.685  14.233
 9673W        W76214  28.661  39.797   3.153
 9674W        W76215  44.649  19.994   5.061
 9675W        W76216  31.907  26.718   4.089
 9676W        W76217  18.226  33.668  14.421
 9677W        W76218   3.579  20.268   1.390
 9678W        W76219  22.219   0.241  11.092
 9679W        W76220  43.145  26.079  11.505
 9680W        W76221  32.837  23.294   2.693
 9681W        W76222  35.288  29.441   1.242
 9682W        W76223  16.638  26.513   0.025
 9683W        W76224  23.990  11.260   1.975
 9684W        W76225  25.134  18.719   3.912
 9685W        W76226   1.799  15.120   3.570
 9686W        W76227  33.354   1.066   3.129
 9687W        W76228  38.904   0.223   0.023
 9688W        W76229  16.290  18.713  14.737
 9689W        W76230   8.487  13.006   9.893
 9690W        W76231   3.394  40.854  13.364
 9691W        W76232  25.007  39.509   2.797
 9692W        W76233   4.688  29.718  13.648
 9693W        W76234  12.570   7.486  11.394
 9694W        W76235  21.053   4.635  10.680
 9695W        W76236  31.317  14.339   5.009
 9696W        W76237   1.212  28.245  11.166
 9697W        W76238  14.560  41.356  11.790
 9698W        W76239   2.556  42.431   0.915
 9699W        W76240  44.387  10.423  10.936
 9700W        W76241  35.158   5.292   4.364
 9701W        W76242   8.642  30.965   2.647
 9702W        W76243  13.158   4.267  13.769
 9703W        W76244  24.482  29.245  12.549
 9704W        W76245  39.846  29.951  11.494
 9705W        W76246   4.745  12.537  12.031
 9706W        W76247  22.660  20.246   1.684
 9707W        W76248   1.425   8.899   2.262
 9708W        W76249  36.181  10.522  13.271
 9709W        W76250  19.305  37.076  13.041
 9710W        W76251  15.648  36.647   0.263
 9711W        W76252  32.324   9.910   2.715
 9712W        W76253   5.819  30.349  14.418
 9713W        W76254  41.997  32.372  11.204
 9714W        W76255  43.012  16.224   1.302
 9715W        W76256  28.098  25.137  14.985
 9716W        W76257   5.839  23.589  11.562
 9717W        W76258  44.452  31.242   0.921
 9718W        W76259  43.255  20.703  12.071
 9719W        W76260   6.451  24.095   3.253
 9720W        W76261   6.942  22.701  11.644
 9721W        W76262   5.937  33.836  12.805
 9722W        W76263  35.255  30.649  10.330
 9723W        W76264  15.745  37.438  11.532
 9724W        W76265   8.318  44.308  11.523
 9725W        W76266   8.735   3.573  11.640
 9726W        W76267  27.690  11.948   0.280
 9727W        W76268  37.943  17.307  13.312
 9728W        W76269  38.452  34.018   2.722
 9729W        W76270  24.956  44.814   2.842
 9730W        W76271   2.772  40.051  13.559
 9731W        W76272  40.110  36.334   4.994
 9732W        W76273  22.296  34.501   4.309
 9733W        W76274  22.544  44.895  14.252
 9734W        W76275  28.955  15.044  12.601
 9735W        W76276  33.592   7.801   2.694
 9736W        W76277  34.876   9.218   4.103
 9737W        W76278  23.143  25.218   4.598
 9738W        W76279   8.659  22.091   4.309
 9739W        W76280  19.397  39.867   2.431
 9740W        W76281   0.715  32.874  13.561
 9741W        W76282   0.460   5.789   4.459
 9742W        W76283   0.801  11.469   2.015
 9743W        W76284  29.216  43.797  12.668
 9744W        W76285   9.700  15.641   2.636
 9745W        W76286  30.916  10.404  11.140
 9746W        W76287   7.721  43.776   1.295
 9747W        W76288  28.441  42.645  11.836
 9748W        W76289  38.762  23.457  11.622
 9749W        W76290  34.317  20.091   1.449
 9750W        W76291  22.224  23.714  14.785
 9751W        W76292   3.492  15.189   1.797
 9752W        W76293  20.538  22.637  12.797
 9753W        W76294  33.093  14.881   3.608
 9754W        W76295  44.428  28.025   2.421
 9755W        W76296  39.907  19.315  14.398
 9756W        W76297  26.698  40.521   3.558
 9757W        W76298   4.508  31.054   4.898
 9758W        W76299  25.637  24.185  12.941
 9759W        W76300   4.511  18.785   3.818
 9760W        W76301  21.878   9.314   5.655
 9761W        W76302   9.387  17.622  11.077
 9762W        W76303  24.732  33.551  11.328
 9763W        W76304  20.481  10.302   0.946
 9764W        W76305  36.440   2.172   2.264
 9765W        W76306  10.509  38.579  11.619
 9766W        W76307   3.534  26.802  14.342
 9767W        W76308  35.115  18.168  10.192
 9768W        W76309  28.236  27.124  13.559
 9769W        W76310  29.882  43.431  14.508
 9770W        W76311   2.755   9.999   2.752
 9771W        W76312  43.010  31.426  13.492
 9772W        W76313   7.958  25.947   4.222
 9773W        W76314  40.297  34.138   1.644
 9774W        W76315  17.247  44.787   2.204
 9775W        W76316  31.070  17.823   4.100
 9776W        W76317  33.616  30.350  12.903
 9777W        W76318  12.635  21.041   0.392
 9778W        W76319  22.439  26.664  12.977
 9779W        W76320  29.504  25.006   1.819
 9780W        W76321  25.675  10.717  12.105
 9781W        W76322  17.339   1.486   4.999
 9782W        W76323  25.687   1.732   2.521
 9783W        W76324  30.947  30.403  11.155
 9784W        W76325  43.993  14.420   4.020
 9785W        W76326  12.413  15.125   2.543
 9786W        W76327  31.147  18.071   0.406
 9787W        W76328  24.794  36.343  12.662
 9788W        W76329   0.249   2.200  11.456
 9789W        W76330  10.305  11.808  13.046
 9790W        W76331  26.621  44.488   3.656
 9791W        W76332  35.629  33.509   2.837
 9792W        W76333  33.634  37.108  12.631
 9793W        W76334  27.493  24.170  11.166
 9794W        W76335  17.029  25.718   4.706
 9795W        W76336  17.036  41.841   0.855
 9796W        W76337  10.705  28.951   1.198
 9797W        W76338  36.415   6.337   2.436
 9798W        W76339  13.768  27.935  10.687
 9799W        W76340  19.348  44.546  14.590
 9800W        W76341  26.332   9.121   0.322
 9801W        W76342  41.932  16.235   3.381
 9802W        W76343   1.331  23.393   1.360
 9803W        W76344   5.204  10.235  10.277
 9804W        W76345   5.299  33.950  12.553
 9805W        W76346  43.723  42.255  11.129
 9806W        W76347  24.619  21.391   1.734
 9807W        W76348  23.312  36.927   3.520
 9808W        W76349  37.145   5.616   2.425
 9809W        W76350  19.085   0.377   4.588
 9810W        W76351  16.028  24.843   1.336
 9811W        W76352  31.407  38.423   4.883
 9812W        W76353  19.566  28.341   1.659
 9813W        W76354  42.047  24.555  12.044
 9814W        W76355  31.438  16.825   2.277
 9815W        W76356  12.606  31.445  13.441
 9816W        W76357  44.064  16.853   3.768
 9817W        W76358  35.950  12.846  14.271
 9818W        W76359  33.531  31.355  13.087
 9819W        W76360  37.751  16.310   3.583
 9820W        W76361  25.611  24.155  13.947
 9821W        W76362  43.911  24.940   1.908
 9822W        W76363   3.493  27.504   3.048
 9823W        W76364   5.706  25.450  12.237
 9824W        W76365  21.452  31.866   4.237
 9825W        W76366  14.291  25.679   1.421
 9826W        W76367  15.795   1.963   1.325
 9827W        W76368  43.884  38.414  14.677
 9828W        W76369   6.216  38.124   1.729
 9829W        W76370  22.246   5.472   1.854
 9830W        W76371  27.951  36.896   3.825
 9831W        W76372   6.703  42.925   1.310
 9832W        W76373  40.456   4.792  10.067
 9833W        W76374   4.229  21.788   0.323
 9834W        W76375  42.018  14.349   3.802
 9835W        W76376  11.167   2.728   2.583
 9836W        W76377  44.456   4.454  13.257
 9837W        W76378  41.594   0.802  13.060
 9838W        W76379   9.145  23.115   0.851
 9839W        W76380  23.567  13.726   3.784
 9840W        W76381  40.112  24.598   3.155
 9841W        W76382  22.969  41.799  14.480
 9842W        W76383  22.166   2.223   4.285
 9843W        W76384  21.395  33.714   1.839
 9844W        W76385   1.391  33.870  13.794
 9845W        W76386  42.534  25.256   1.693
 9846W        W76387  28.978  10.351  10.259
 9847W        W76388  33.073  36.844  10.771
 9848W        W76389  11.724   3.727  11.677
 9849W        W76390  36.178  19.526  10.386
 9850W        W76391  25.534   1.573  12.842
 9851W        W76392   0.343   1.111   0.042
 9852W        W76393  40.512   6.969   3.157
 9853W        W76394   3.884  35.952   0.537
 9854W        W76395  30.862  20.227   2.227
 9855W        W76396  43.216   1.596   2.606
 9856W        W76397  30.929  35.331   0.921
 9857W        W76398  34.786  20.564  14.949
 9858W        W76399   7.262   3.901  11.643
 9859W        W76400  36.467  43.760  12.721
 9860W        W76401  39.338  17.059  14.283
 9861W        W76402  33.672  26.652   1.259
 9862W        W76403  38.737  25.977  14.437
 9863W        W76404  37.196   9.585  13.808
 9864W        W76405  37.352  27.667   2.185
 9865W        W76406  21.475  20.741   2.387
 9866W        W76407  24.435  18.530  14.703
 9867W        W76408   8.389   4.331  12.160
 9868W        W76409  38.037  28.488   4.623
 9869W        W76410  19.441  33.133  14.849
 9870W        W76411   1.411  27.625   3.258
 9871W        W76412   0.040  34.091   2.838
 9872W        W76413  15.563  42.046  11.984
 9873W        W76414  38.488  31.632   3.598
 9874W        W76415  35.740   5.765  11.484
 9875W        W76416   5.151   7.290  13.387
 9876W        W76417   4.469  29.685   3.268
 9877W        W76418   5.521   9.377   0.268
 9878W        W76419  30.460   0.599   1.518
 9879W        W76420  35.613  27.210   2.824
 9880W        W76421  33.436  39.987  12.116
 9881W        W76422  27.958  40.687   2.585
 9882W        W76423  30.112  12.620  13.777
 9883W        W76424  23.379   0.814   3.061
 9884W        W76425  34.538  43.603  10.990
 9885W        W76426  11.690  33.458  14.033
 9886W        W76427   5.261  32.109   4.804
 9887W        W76428  20.996  27.051   0.872
 9888W        W76429   7.137   1.925   4.874
 9889W        W76430  12.088  25.666  10.727
 9890W        W76431   5.335  39.860  11.194
 9891W        W76432  37.751  23.977  12.921
 9892W        W76433  27.222  25.617   4.145
 9893W        W76434  19.880  14.501   1.142
 9894W        W76435  17.533  20.976  14.455
 9895W        W76436  12.791  35.492   2.848
 9896W        W76437  43.415   1.269  13.956
 9897W        W76438  32.005  26.100  14.574
 9898W        W76439  14.298   7.590   1.365
 9899W        W76440  38.307   5.163  11.634
 9900W        W76441   6.245   6.754   1.473
 9901W        W76442  44.024  23.284   0.746
 9902W        W76443  24.139   1.746   0.424
 9903W        W76444   4.423  29.987   3.679
 9904W        W76445   6.230   5.364   0.146
 9905W        W76446  10.359  31.982  13.517
 9906W        W76447  12.249   5.672   2.966
 9907W        W76448  16.222  12.285   2.723
 9908W        W76449  44.763  42.414   2.367
 9909W        W76450  13.758   9.119   1.983
 9910W        W76451  39.294  44.333   0.406
 9911W        W76452  26.225  24.683   2.273
 9912W        W76453  22.350   9.538   0.942
 9913W        W76454   3.018  32.534  11.576
 9914W        W76455  17.359  12.093   1.998
 9915W        W76456   1.805  24.760   9.973
 9916W        W76457  13.363  29.035   0.502
 9917W        W76458  16.066  25.709   1.597
 9918W        W76459  40.593  14.753  11.384
 9919W        W76460   9.686  36.790  13.004
 9920W        W76461  38.011  19.607   1.695
 9921W        W76462  35.248  28.148  11.953
 9922W        W76463  32.160  41.980  11.221
 9923W        W76464  11.887  17.233  14.693
 9924W        W76465  17.529  27.448  14.933
 9925W        W76466   0.541   7.740  14.664
 9926W        W76467  27.705  13.234  11.163
 9927W        W76468  20.284   4.302  10.959
 9928W        W76469  36.872  37.750   2.752
 9929W        W76470  23.119   2.341   3.273
 9930W        W76471  18.955  14.741   4.058
 9931W        W76472  20.225   4.203  12.363
 9932W        W76473  30.037  14.698  12.479
 9933W        W76474  33.863  15.708  11.383
 9934W        W76475  33.515  11.742   1.255
 9935W        W76476  24.224  33.041  14.292
 9936W        W76477  24.195  15.817   3.310
 9937W        W76478  39.621  25.929  13.469
 9938W        W76479  17.576  13.510   4.832
 9939W        W76480  43.755  21.684   1.250
 9940W        W76481  16.330  33.108   1.249
 9941W        W76482  35.050  40.758  11.685
 9942W        W76483  19.514  13.188  14.400
 9943W        W76484  14.143  29.137  12.448
 9944W        W76485  13.708  24.517   1.354
 9945W        W76486  29.520   4.010  11.510
 9946W        W76487  30.604  20.653   4.782
 9947W        W76488  22.495  43.567  14.427
 9948W        W76489  35.151  40.884  12.743
 9949W        W76490   6.363  16.137   3.772
 9950W        W76491   9.179  44.868   1.431
 9951W        W76492  13.576  37.739  14.543
 9952W        W76493   6.556  27.188  12.101
 9953W        W76494  19.686  33.514  13.965
 9954W        W76495  27.648  32.140  13.418
 9955W        W76496  13.114  36.442  14.367
 9956W        W76497   8.324   6.460   3.258
 9957W        W76498  43.543   4.446   0.849
 9958W        W76499   8.224  27.498  12.631
 9959W        W76500  37.823  15.148  12.809
 9960W        W76501  12.814  11.960  12.538
 9961W        W76502  21.479  19.674  10.783
 9962W        W76503   3.404  20.177   0.459
 9963W        W76504  38.251  18.664   0.846
 9964W        W76505   4.021   8.473  11.699
 9965W        W76506  41.389  38.486   3.023
 9966W        W76507   8.829  32.357   3.732
 9967W        W76508   6.467  17.229   0.324
 9968W        W76509  16.097  17.357   2.853
 9969W        W76510   9.189   9.446   0.057
 9970W        W76511  28.655   9.590  14.029
 9971W        W76512   4.762  11.109   1.367
 9972W        W76513  37.000   5.617   3.867
 9973W        W76514  32.016  41.544   0.147
 9974W        W76515  14.101   2.237   2.893
 9975W        W76516  38.509  30.074  14.056
 9976W        W76517  25.270  25.558  13.535
 9977W        W76518  40.050  30.864   2.145
 9978W        W76519  27.048  28.669   2.602
 9979W        W76520   7.857  33.940  13.875
 9980W        W76521  20.295  35.165  13.863
 9981W        W76522  26.593  29.212   1.390
 9982W        W76523   6.484   6.967   3.310
 9983W        W76524  26.128  28.811   2.229
 9984W        W76525   1.917  27.876  12.054
 9985W        W76526  23.127  34.236   4.847
 9986W        W76527  36.520  15.799   0.505
 9987W        W76528   0.974   7.627  13.907
 9988W        W76529  14.169  34.582   4.121
 9989W        W76530  23.666  26.932  13.895
 9990W        W76531   0.710  42.873  12.339
 9991W        W76532   8.859  42.782   3.296
 9992W        W76533   5.454  42.450  13.293
 9993W        W76534  23.100  12.385  11.890
 9994W        W76535  10.266  15.545   1.798
 9995W        W76536  11.902  23.183  12.333
 9996W        W76537  31.947  27.749   4.332
 9997W        W76538  32.030  22.778  13.567
 9998W        W76539   5.662  33.544  10.417
 9999W        W76540  14.048  32.391   0.425
10000W        W76541  13.305  34.921  12.521
10001W        W76542  25.320  25.060   4.466
10002W        W76543  42.790  30.785   3.099
10003W        W76544   3.379  19.546  14.078
10004W        W76545   3.881  11.949  13.512
10005W        W76546  43.600  29.520  14.266
10006W        W76547  24.010   3.889   2.317
10007W        W76548  35.473  23.509  12.405
10008W        W76549  30.231  23.851  11.242
10009W        W76550  36.662   1.961   0.992
10010W        W76551  38.332   2.294   1.807
10011W        W76552  38.102  23.075  12.663
10012W        W76553   8.951  27.928   2.769
10013W        W76554  37.245  34.514  10.545
10014W        W76555  40.963  39.878   4.713
10015W        W76556   3.446  28.148  14.985
10016W        W76557  10.642  14.665  14.266
10017W        W76558  27.044  42.748  12.110
10018W        W76559  10.899   3.349  11.729
10019W        W76560  35.931  11.559  13.057
10020W        W76561  10.605  20.719   1.848
10021W        W76562   3.430  18.072   0.340
10022W        W76563  17.719  36.471   0.564
10023W        W76564  33.572  32.166   0.038
10024W        W76565  22.635   8.121  10.704
10025W        W76566  38.798  31.611   0.327
10026W        W76567  40.230  39.786  12.529
10027W        W76568  12.187   4.862  13.099
10028W        W76569  39.520  31.307   1.348
10029W        W76570   5.438   3.410  14.454
10030W        W76571  38.968  34.514  12.600
10031W        W76572  25.846   9.105   5.030
10032W        W76573  15.993  33.824   1.985
10033W        W76574  33.820  19.463   3.097
10034W        W76575   0.868  19.607  14.944
10035W        W76576  18.872   6.439  13.776
10036W        W76577  37.351  15.200  12.076
10037W        W76578  14.572   8.217   3.204
10038W        W76579  43.801   0.509  11.676
10039W        W76580  30.809   9.722  13.516
10040W        W76581  11.101  13.475  10.902
10041W        W76582  23.967  27.653   1.873
10042W        W76583   1.258  38.750   3.900
10043W        W76584  31.102  33.705  12.431
10044W        W76585  38.814  10.871   1.352
10045W        W76586  10.833  24.564   1.797
10046W        W76587  28.515  17.402  10.916
10047W        W76588  36.040  20.357  11.923
10048W        W76589  40.509  30.643   2.270
10049W        W76590  25.054  44.514  14.724
10050W        W76591  25.180  10.205  10.811
10051W        W76592  30.360  23.708   4.183
10052W        W76593  10.196  18.313   2.238
10053W        W76594  26.887  17.283  12.172
10054W        W76595  10.048  42.290  11.901
10055W        W76596  24.084  41.833   2.606
10056W        W76597  44.031  13.152   2.139
10057W        W76598  33.644  41.914  13.276
10058W        W76599  26.677  22.259  14.238
10059W        W76600  33.189   2.438  14.068
10060W        W76601  37.507  26.995   0.044
10061W        W76602   6.804  32.661  14.912
10062W        W76603  21.542  32.157  14.526
10063W        W76604  37.552  25.268   3.007
10064W        W76605  38.830  43.364  11.973
10065W        W76606   9.205  26.090   4.054
10066W        W76607  33.171   2.472   3.110
10067W        W76608  32.877   1.022   4.857
10068W        W76609  43.028  36.742   0.426
10069W        W76610  19.734  16.171   3.716
10070W        W76611  17.325  44.478   4.574
10071W        W76612  17.602  21.262  14.010
10072W        W76613   3.692  17.879   2.666
10073W        W76614  28.052  10.412  11.099
10074W        W76615  38.803  24.914   4.218
10075W        W76616  17.244  40.859   3.292
10076W        W76617   8.872  16.616   3.735
10077W        W76618  11.734  41.701   2.261
10078W        W76619  21.581  25.367   0.508
10079W        W76620  23.070  44.543   4.744
10080W        W76621  36.809  40.604  14.862
10081W        W76622  26.242  12.686  11.057
10082W        W76623  43.866  38.153  11.963
10083W        W76624  16.652  14.165  14.770
10084W        W76625  27.912  16.609  12.852
10085W        W76626   6.688  25.104   3.682
10086W        W76627  16.196   7.092  14.907
10087W        W76628  36.045  26.258  12.168
10088W        W76629  21.214  26.414  14.278
10089W        W76630  23.797   2.765  10.743
10090W        W76631  27.491   8.379  13.498
10091W        W76632  27.950  29.691  10.126
10092W        W76633  43.878  12.126  12.448
10093W        W76634  30.477  32.017  14.006
10094W        W76635  12.081  22.249   0.161
10095W        W76636  26.161  20.554   1.391
10096W        W76637  14.177  44.769   2.833
10097W        W76638   7.887  44.830   2.401
10098W        W76639  32.598  11.385   1.951
10099W        W76640   6.875   5.855  14.681
10100W        W76641  32.270   1.737  11.402
10101W        W76642   0.177  25.426   3.441
10102W        W76643  40.084  28.546   3.198
10103W        W76644  10.333   8.862  11.141
10104W        W76645  15.851   5.288  11.701
10105W        W76646  18.460   4.966   4.596
10106W        W76647   9.680  15.151  11.410
10107W        W76648   9.240   5.812  12.406
10108W        W76649  13.546   2.218  14.835
10109W        W76650  10.567  35.322  13.544
10110W        W76651  28.488  21.086   2.312
10111W        W76652  39.953  34.577  10.358
10112W        W76653  11.634  22.752   1.839
10113W        W76654  32.321  14.339   3.339
10114W        W76655   6.675   9.286  11.220
10115W        W76656  18.352  29.535  10.781
10116W        W76657   0.733  31.826   0.066
10117W        W76658  21.538  14.281   2.765
10118W        W76659  19.665  40.542   1.957
10119W        W76660  36.606  27.662  11.243
10120W        W76661   9.817   5.139   4.136
10121W        W76662   7.522   1.548  14.100
10122W        W76663  36.502   5.439  11.123
10123W        W76664  37.399  25.487   3.590
10124W        W76665  19.970  11.971   2.784
10125W        W76666  29.794  29.777   2.549
10126W        W76667  39.338  28.984   0.266
10127W        W76668  24.666  25.176  14.927
10128W        W76669   8.910  10.607  13.911
10129W        W76670  29.449  20.799   2.364
10130W        W76671   7.059  42.444  11.561
10131W        W76672  42.321  19.031   2.289
10132W        W76673  11.947   9.250   4.820
10133W        W76674  42.635  25.144  11.034
10134W        W76675  16.559  27.626  12.636
10135W        W76676  11.117  24.949   0.935
10136W        W76677   1.575  22.447   5.096
10137W        W76678  28.274  34.327  14.959
10138W        W76679  26.884  26.018   4.092
10139W        W76680  19.565  10.632  12.893
10140W        W76681   1.872  36.392  12.174
10141W        W76682  40.743   9.579   2.844
10142W        W76683  27.396  12.768   9.815
10143W        W76684   0.184  11.999   2.199
10144W        W76685  42.551  34.587  14.345
10145W        W76686   1.627  40.264  11.109
10146W        W76687  23.765   4.886   2.628
10147W        W76688   1.023  14.903  13.578
10148W        W76689   9.620  22.140   4.450
10149W        W76690  38.933   2.981   2.727
10150W        W76691  31.891  30.917   5.118
10151W        W76692   5.593  10.777  11.595
10152W        W76693   8.229  43.127  13.457
10153W        W76694  43.911  13.605   1.896
10154W        W76695  28.314  24.050  11.534
10155W        W76696  18.140  32.788  14.959
10156W        W76697   3.755  40.935  13.694
10157W        W76698  34.633  29.219  12.520
10158W        W76699  36.027  23.440  12.186
10159W        W76700  38.696  32.876  12.261
10160W        W76701  22.729  22.923   3.789
10161W        W76702  21.446  41.516   1.635
10162W        W76703  10.689  30.741   3.173
10163W        W76704  22.102  38.275   2.435
10164W        W76705  35.034  11.245   3.387
10165W        W76706  35.814  12.585  11.502
10166W        W76707  30.871   7.015  14.831
10167W        W76708  43.026  37.857   3.774
10168W        W76709  34.938  11.243   1.201
10169W        W76710  14.461   9.165  14.383
10170W        W76711  27.542   5.779  11.549
10171W        W76712   7.820   6.965  12.087
10172W        W76713  18.123  44.974  12.048
10173W        W76714  26.216  32.591   4.724
10174W        W76715   7.728   4.863   9.649
10175W        W76716  32.400   6.819  12.411
10176W        W76717  44.567  37.935   2.796
10177W        W76718  16.567  10.123   1.655
10178W        W76719  34.321  21.599  13.018
10179W        W76720  30.961   9.362  10.968
10180W        W76721  22.135  43.019   0.309
10181W        W76722  44.966  22.214   0.772
10182W        W76723  39.342  23.598  10.671
10183W        W76724  27.081  25.112   3.478
10184W        W76725   0.996  28.100   1.143
10185W        W76726  12.816  22.003   4.362
10186W        W76727  32.710  32.103   0.591
10187W        W76728  44.252   3.741   2.090
10188W        W76729   2.326  15.561  12.996
10189W        W76730  10.916   9.704   0.480
10190W        W76731  19.669  37.595  12.926
10191W        W76732  41.081  33.763  12.094
10192W        W76733   7.213  34.518   0.318
10193W        W76734  35.954  33.155  14.109
10194W        W76735  30.156  37.420   4.463
10195W        W76736   2.464  27.695   4.494
10196W        W76737  44.437  13.637   0.253
10197W        W76738  25.036  43.515   0.333
10198W        W76739  17.759   6.922   1.183
10199W        W76740  23.005  24.249  14.266
10200W        W76741  43.685  13.079   3.094
10201W        W76742   0.145  27.454  12.486
10202W        W76743   9.227  24.093  11.606
10203W        W76744  42.291  10.195   3.784
10204W        W76745   5.263   7.166  14.375
10205W        W76746  12.537  41.749  11.120
10206W        W76747  34.379  34.960   1.891
10207W        W76748   7.322  17.963   3.232
10208W        W76749  13.349  28.643  10.680
10209W        W76750   7.731  36.366   3.728
10210W        W76751  36.942  28.832   0.827
10211W        W76752  23.445   6.630  14.320
10212W        W76753  44.416   3.273   3.888
10213W        W76754   9.169  26.587   4.155
10214W        W76755  32.722  12.826  14.907
10215W        W76756   1.349   5.119  11.331
10216W        W76757  39.283   2.271   4.538
10217W        W76758  33.579  12.437  10.774
10218W        W76759  34.205  34.134   3.413
10219W        W76760  16.697  34.967  13.781
10220W        W76761  43.268  31.003  13.321
10221W        W76762  25.710  23.594   2.903
10222W        W76763   2.452  30.659   3.228
10223W        W76764  21.355  18.614   2.438
10224W        W76765   1.742  13.773  14.465
10225W        W76766  24.706  15.356   2.003
10226W        W76767  18.454  21.135  12.234
10227W        W76768  36.508  35.345  13.528
10228W        W76769  11.816  34.007   0.286
10229W        W76770  38.437  31.439   0.657
10230W        W76771  25.089   8.165  14.436
10231W        W76772  32.002  41.505   1.691
10232W        W76773  10.800  21.459  11.037
10233W        W76774  37.970  40.857  11.582
10234W        W76775   0.498  13.452  11.701
10235W        W76776  31.464  35.921  13.927
10236W        W76777  13.343  30.809  13.571
10237W        W76778  14.264   7.901   4.146
10238W        W76779  18.384  29.416  14.320
10239W        W76780  35.607  28.629   0.896
10240W        W76781  19.543  35.531  14.302
10241W        W76782  38.591  22.508  14.502
10242W        W76783  18.314  31.301  13.448
10243W        W76784  24.066  29.462   3.556
10244W        W76785  16.402  26.162  12.502
10245W        W76786  10.591  18.146  11.265
10246W        W76787   1.866  34.781  13.002
10247W        W76788   8.595  39.495   0.309
10248W        W76789  31.998  14.297  14.319
10249W        W76790  34.153  20.856  12.367
10250W        W76791  22.884   2.278   0.083
10251W        W76792  41.308  31.420   0.911
10252W        W76793  28.227  27.513  12.920
10253W        W76794   5.222  13.637  13.312
10254W        W76795  32.855  30.161   3.643
10255W        W76796  43.794   3.727  13.364
10256W        W76797  22.240  26.956  14.307
10257W        W76798  36.370  19.169  13.993
10258W        W76799  14.726  37.843  11.592
10259W        W76800  15.749  16.765  12.458
10260W        W76801   1.459   2.473   1.473
10261W        W76802  14.070   1.802  12.061
10262W        W76803  32.529  35.420   4.678
10263W        W76804  39.766  34.166   4.395
10264W        W76805  38.944  30.256  12.147
10265W        W76806   7.766  17.578   0.708
10266W        W76807  38.635   3.916  13.916
10267W        W76808  37.380  19.921  13.033
10268W        W76809  23.289  12.063  14.078
10269W        W76810  13.170  40.893  13.910
10270W        W76811  34.028  27.988   0.449
10271W        W76812  15.329  13.282   4.899
10272W        W76813   7.052  27.641   0.330
10273W        W76814   6.314  25.437   3.839
10274W        W76815   9.634   1.902  12.358
10275W        W76816  41.970   2.741   1.340
10276W        W76817  30.564   5.843   3.637
10277W        W76818  27.113  10.856   0.704
10278W        W76819  19.039  29.319  11.408
10279W        W76820  31.118  16.220  12.919
10280W        W76821  28.139  32.046  12.365
10281W        W76822  29.335  20.024   1.925
10282W        W76823   9.282  44.752  10.547
10283W        W76824  28.541  27.682  14.245
10284W        W76825  25.465  19.059   1.698
10285W        W76826  13.081  44.475  12.963
10286W        W76827  35.029  32.510   1.686
10287W        W76828  16.292  22.640  14.608
10288W        W76829  41.468   5.267  14.667
10289W        W76830  15.862  38.675  12.063
10290W        W76831  44.415  39.376  11.846
10291W        W76832  33.760  21.103  13.514
10292W        W76833  10.656  12.636  14.279
10293W        W76834  13.574   3.277   2.834
10294W        W76835   1.182   5.414   3.272
10295W        W76836  26.890  25.975  11.607
10296W        W76837  39.245  17.157  12.506
10297W        W76838  17.468  14.878  13.550
10298W        W76839  39.492  11.914  14.659
10299W        W76840   1.664   5.125  14.613
10300W        W76841  37.794   3.306  13.110
10301W        W76842  12.242  12.506   4.518
10302W        W76843  17.985   4.975   0.309
10303W        W76844  29.433  27.959  14.379
10304W        W76845  33.477  12.396   1.706
10305W        W76846  24.711  17.367  12.746
10306W        W76847  10.521  40.049  12.970
10307W        W76848  35.057  30.485   2.154
10308W        W76849  34.866   8.677   4.081
10309W        W76850   3.959  25.023   0.657
10310W        W76851   6.626  26.998  11.001
10311W        W76852  24.610  17.565  14.941
10312W        W76853  28.694  41.184  11.954
10313W        W76854  12.185  10.685   2.663
10314W        W76855   6.420   6.630   4.187
10315W        W76856   1.775  38.055   3.748
10316W        W76857  10.674  12.639   4.581
10317W        W76858  24.938  37.913   4.631
10318W        W76859  22.287  11.288  10.430
10319W        W76860  20.743   5.839   2.217
10320W        W76861  44.935  41.629   1.271
10321W        W76862  21.148  32.002   0.456
10322W        W76863  30.379  21.445  13.579
10323W        W76864  25.231   0.367  13.085
10324W        W76865   4.972   0.549  11.554
10325W        W76866  37.152  10.302   3.153
10326W        W76867  36.376  44.200  13.328
10327W        W76868  37.912  31.114   2.371
10328W        W76869   2.707   8.407  11.152
10329W        W76870   8.214  32.821   1.840
10330W        W76871   5.825  30.881   3.256
10331W        W76872  41.865   2.527   0.837
10332W        W76873  42.454  24.803   4.182
10333W        W76874  12.099  27.994   0.958
10334W        W76875  42.909  20.048   1.846
10335W        W76876  42.871  24.193   2.101
10336W        W76877   8.495   9.610  13.313
10337W        W76878  22.217  18.862   0.218
10338W        W76879  36.115  17.697  13.456
10339W        W76880  42.400  14.440   1.392
10340W        W76881  36.899  18.169   1.181
10341W        W76882  19.158  36.251  13.888
10342W        W76883  16.506  42.620   4.611
10343W        W76884  31.271  34.334   3.253
10344W        W76885   6.890  27.080   1.966
10345W        W76886   7.126  31.472   1.433
10346W        W76887  37.012  31.100   4.423
10347W        W76888  21.997  15.307   1.193
10348W        W76889  25.539  29.067  10.855
10349W        W76890  14.156  43.899   4.726
10350W        W76891  28.963  18.878   1.255
10351W        W76892   4.405  11.694   2.326
10352W        W76893  25.135  17.350  13.341
10353W        W76894  15.276   8.636  12.422
10354W        W76895  21.634   4.834   1.902
10355W        W76896   1.666  11.702   2.242
10356W        W76897  34.369   2.835  11.753
10357W        W76898  41.095  40.710   2.629
10358W        W76899  12.179  39.996  14.500
10359W        W76900  13.295  25.395  13.026
10360W        W76901   1.006  31.135  12.934
10361W        W76902   9.263  24.185   0.922
10362W        W76903   6.891  11.769   3.752
10363W        W76904  40.955  38.994   4.155
10364W        W76905  34.405  20.618   1.343
10365W        W76906  34.108  27.607  11.078
10366W        W76907  18.812  36.638  10.770
10367W        W76908   2.203  39.009  12.446
10368W        W76909  39.235   0.977  11.810
10369W        W76910  16.539  33.999   1.223
10370W        W76911   7.872  36.937   3.603
10371W        W76912  40.173  22.389  12.011
10372W        W76913  27.139  37.604  12.188
10373W        W76914  44.187  36.530   1.928
10374W        W76915  42.401  40.921  12.426
10375W        W76916   7.541  44.438   3.153
10376W        W76917   1.400  11.834  13.956
10377W        W76918  30.273  31.387  14.486
10378W        W76919  39.975  21.737  14.204
10379W        W76920   0.142  21.087   2.211
10380W        W76921  41.608   8.685  14.446
10381W        W76922  13.205  15.177   3.130
10382W        W76923  12.377  22.514  12.411
10383W        W76924  40.338  37.753   2.711
10384W        W76925   8.334  30.019   2.305
10385W        W76926  16.325   6.648  13.918
10386W        W76927   9.608  10.678   2.917
10387W        W76928  37.319  44.248  12.491
10388W        W76929   7.365  17.623   0.330
10389W        W76930  36.776   9.168  12.695
10390W        W76931  11.424  14.661  11.248
10391W        W76932  37.780  26.943   0.762
10392W        W76933  27.856  22.802   0.935
10393W        W76934  11.247  15.316  11.895
10394W        W76935  13.837  42.760   5.076
10395W        W76936   1.852  41.764   2.390
10396W        W76937  32.647  34.807   3.899
10397W        W76938  34.144  25.156  11.133
10398W        W76939  19.292  14.108   4.161
10399W        W76940  10.872   2.553  13.496
10400W        W76941  12.277  26.608  11.086
10401W        W76942  36.816  23.719   0.780
10402W        W76943  36.773   0.746   3.625
10403W        W76944   3.223  23.106  10.552
10404W        W76945  28.670  34.504  13.278
10405W        W76946  44.208  36.918  11.977
10406W        W76947  24.474  23.804  14.420
10407W        W76948  24.297   5.790   1.686
10408W        W76949   2.677   6.367   1.923
10409W        W76950  18.190   6.088   2.046
10410W        W76951   9.902  43.107  14.719
10411W        W76952  36.556  34.306   2.189
10412W        W76953  36.984  30.534  13.354
10413W        W76954   6.728  18.792  14.637
10414W        W76955  27.499  14.635   1.982
10415W        W76956  15.622   4.919  14.369
10416W        W76957  38.373  34.577   1.827
10417W        W76958  25.099  37.162  12.483
10418W        W76959  39.820  41.384   3.368
10419W        W76960  42.295  22.585   1.435
10420W        W76961  42.840  31.506  10.718
10421W        W76962  22.551  32.776  14.374
10422W        W76963  37.946  13.533  14.478
10423W        W76964  23.837  36.249   4.012
10424W        W76965   7.627  31.063   2.707
10425W        W76966   4.185  39.961  14.397
10426W        W76967  21.770   5.229   0.973
10427W        W76968  19.515   3.423  11.519
10428W        W76969   8.366  16.771   4.436
10429W        W76970  24.191  25.527  12.498
10430W        W76971  28.665  16.418   2.236
10431W        W76972  23.206  24.998  12.950
10432W        W76973   7.416  24.257  11.053
10433W        W76974  44.849  29.635  11.397
10434W        W76975  16.025   8.807   0.362
10435W        W76976   0.939  20.095   2.631
10436W        W76977   2.013   0.843  12.054
10437W        W76978  31.460  34.825  14.317
10438W        W76979  26.467  28.990   1.871
10439W        W76980   9.114   2.820  11.566
10440W        W76981  11.817  16.265   2.236
10441W        W76982  42.971   9.369   0.191
10442W        W76983  20.492  40.550  12.044
10443W        W76984  18.332   6.233   3.205
10444W        W76985  30.481  34.575   1.454
10445W        W76986  13.358  10.685  13.997
10446W        W76987  14.092   6.866  14.525
10447W        W76988  10.149   5.258  12.268
10448W        W76989  14.462   0.962   0.350
10449W        W76990  43.139   8.781   4.365
10450W        W76991  31.188   1.860   2.950
10451W        W76992  26.441  42.898   2.699
10452W        W76993  17.044  28.446   0.830
10453W        W76994  26.924  18.603  12.136
10454W        W76995  32.156  37.054  14.183
10455W        W76996  35.638  42.922   1.961
10456W        W76997  27.700  41.273   3.348
10457W        W76998  40.998  31.639  10.580
10458W        W76999  36.805  41.632  12.098
10459W        W77000  22.628  13.810  14.721
10460W        W77001  35.978  14.802   1.779
10461W        W77002  32.935  14.558   1.389
10462W        W77003  33.091   1.983  14.809
10463W        W77004  37.042  30.652   1.166
10464W        W77005   8.241   2.922   4.435
10465W        W77006  18.398  37.083  14.296
10466W        W77007   2.085   6.103   0.139
10467W        W77008  14.858  29.532   0.786
10468W        W77009  39.080   6.850   0.713
10469W        W77010  16.992  21.613   3.718
10470W        W77011  33.442  41.549  10.754
10471W        W77012  18.113  28.676   0.936
10472W        W77013  13.096  32.248  11.929
10473W        W77014  34.250   0.255   2.198
10474W        W77015   4.760  13.793   3.222
10475W        W77016  10.793  20.826   1.358
10476W        W77017  35.821  36.291  12.097
10477W        W77018  33.057  19.572   0.945
10478W        W77019  21.764  12.849  13.058
10479W        W77020  10.715  16.708  14.623
10480W        W77021  41.514  31.854   1.825
10481W        W77022  17.418  30.021   3.755
10482W        W77023  10.928  27.601  10.418
10483W        W77024   1.378  25.416   0.881
10484W        W77025  24.106  40.538   4.482
10485W        W77026  44.859   6.243  14.154
10486W        W77027  22.078  24.977   1.879
10487W        W77028  13.789  42.569  14.465
10488W        W77029  11.827  36.404   0.216
10489W        W77030  19.065  22.569  14.912
10490W        W77031   7.598   8.161   3.629
10491W        W77032  32.217   1.781   2.692
10492W        W77033  14.381  23.004  14.778
10493W        W77034  34.486  31.761  14.328
10494W        W77035  38.797   6.213   3.685
10495W        W77036  36.541  17.330  13.594
10496W        W77037  41.025  20.247   2.398
10497W        W77038  36.652  43.333   0.814
10498W        W77039  16.302  34.285   5.058
10499W        W77040  30.938  35.191  11.559
10500W        W77041  24.290  43.329  11.587
10501W        W77042  42.908   6.332   2.735
10502W        W77043  43.392  14.141  12.132
10503W        W77044   6.623   0.319  10.513
10504W        W77045  33.620  32.530  14.381
10505W        W77046   2.945  40.002   4.498
10506W        W77047  35.233  26.927  12.014
10507W        W77048  41.018  15.817  11.153
10508W        W77049  32.450  25.541   3.668
10509W        W77050  38.788  43.027  14.850
10510W        W77051  43.281  19.490   0.582
10511W        W77052  12.378  30.947  14.688
10512W        W77053   7.373  13.843  11.213
10513W        W77054  20.221  42.066  14.934
10514W        W77055  29.029  25.710  10.714
10515W        W77056   0.935  41.171   3.217
10516W        W77057  29.180  43.765   1.858
10517W        W77058  23.444  15.547   1.760
10518W        W77059  39.318   0.887   2.643
10519W        W77060  10.834   0.734  12.380
10520W        W77061  44.731  21.139   0.181
10521W        W77062  14.639  20.639  12.151
10522W        W77063  26.735  29.405   0.069
10523W        W77064  30.621  10.915  13.371
10524W        W77065  20.946   1.220   1.785
10525W        W77066  33.763  29.090  14.035
10526W        W77067  12.568  36.762   1.224
10527W        W77068  26.781   5.668   0.562
10528W        W77069  10.374  26.077  14.572
10529W        W77070   6.272  38.979   3.598
10530W        W77071  31.115  25.809  10.563
10531W        W77072  33.142  41.523  13.916
10532W        W77073  12.252  14.328  11.146
10533W        W77074  28.682  30.264  14.287
10534W        W77075   3.552  14.928  12.143
10535W        W77076  21.984  32.866   0.853
10536W        W77077  10.596  38.796  13.280
10537W        W77078  39.607  40.063   1.146
10538W        W77079  36.399  28.823   3.305
10539W        W77080  33.975  10.809  11.625
10540W        W77081  16.812   7.272   1.837
10541W        W77082   0.793   2.153  11.071
10542W        W77083   2.366   6.257  11.559
10543W        W77084   9.945  24.500  13.866
10544W        W77085  42.572  33.283   3.198
10545W        W77086  23.227  10.783   2.207
10546W        W77087  32.983  40.776  12.028
10547W        W77088  13.669  17.540   0.654
10548W        W77089  42.432  43.871  12.617
10549W        W77090  44.808  32.529  12.485
10550W        W77091  28.524  10.218  11.181
10551W        W77092  24.793  21.091  14.352
10552W        W77093  24.250  40.362  13.865
10553W        W77094  43.149  11.730   4.864
10554W        W77095  44.057  35.362   2.280
10555W        W77096   4.874  43.885   0.877
10556W        W77097  27.645   9.261   3.332
10557W        W77098  26.002   3.741   1.754
10558W        W77099  39.103  17.662   3.570
10559W        W77100  19.718  34.841  12.516
10560W        W77101  16.498  12.766  14.875
10561W        W77102  13.192  43.589  14.323
10562W        W77103  31.871  14.934   0.373
10563W        W77104  29.172   3.736   2.213
10564W        W77105  25.091  12.223  11.380
10565W        W77106  36.255   1.062   3.343
10566W        W77107  29.933  28.611  12.255
10567W        W77108   6.194   3.659   2.620
10568W        W77109   8.289  13.860  13.583
10569W        W77110  29.021  27.296  10.722
10570W        W77111  16.568   0.493   1.355
10571W        W77112  14.802  15.315  13.365
10572W        W77113   3.820  26.945   0.832
10573W        W77114   6.963  38.107   1.291
10574W        W77115   7.815   9.858   0.403
10575W        W77116  17.007   2.180  11.258
10576W        W77117  28.442   6.367  12.872
10577W        W77118  22.738  42.666   3.984
10578W        W77119   1.354  40.816  11.270
10579W        W77120  12.123  20.507  13.377
10580W        W77121  19.552   3.459  10.631
10581W        W77122  28.609  12.442   5.070
10582W        W77123  22.163   6.799  10.736
10583W        W77124  20.925  40.481   0.032
10584W        W77125   8.444   5.918   3.657
10585W        W77126  20.784  30.439   3.317
10586W        W77127   3.394  16.977   4.599
10587W        W77128   9.684  32.676  11.624
10588W        W77129  44.922   5.970   0.007
10589W        W77130   1.154   4.231  14.540
10590W        W77131  40.265  44.901  14.865
10591W        W77132   0.227  16.076  11.273
10592W        W77133  22.967  10.613  11.126
10593W        W77134  28.543  24.484  14.231
10594W        W77135  42.358   2.025   2.158
10595W        W77136  33.208  24.206   5.100
10596W        W77137   2.322  24.007   0.360
10597W        W77138  39.489  20.693   0.338
10598W        W77139  37.910   2.332   0.988
10599W        W77140  10.826   5.468   0.666
10600W        W77141   9.446  14.118  10.513
10601W        W77142  36.001  41.307   3.545
10602W        W77143   5.882  40.583   2.866
10603W        W77144  43.879   2.844   4.698
10604W        W77145  35.028  39.773   1.402
10605W        W77146  27.115  19.580   0.025
10606W        W77147  10.633  18.007  10.633
10607W        W77148  31.576  31.937  10.169
10608W        W77149  39.454  38.391  10.449
10609W        W77150  43.228  27.393  11.139
10610W        W77151  27.232  37.993   3.954
10611W        W77152   1.742  40.590  14.858
10612W        W77153  20.071  15.144   1.881
10613W        W77154  36.976   9.319  12.204
10614W        W77155  38.970  19.607  13.339
10615W        W77156  39.691  27.779  12.037
10616W        W77157  37.570   4.728   2.893
10617W        W77158   4.490   3.545  13.096
10618W        W77159   1.653  43.067  14.874
10619W        W77160  12.544  39.311  12.521
10620W        W77161  28.710   6.250  10.397
10621W        W77162  21.672  18.767   1.434
10622W        W77163  34.990  42.718   5.041
10623W        W77164  16.034  19.359  11.124
10624W        W77165  36.385   2.015  11.630
10625W        W77166  20.832  13.915  11.963
10626W        W77167  28.164  36.327   0.749
10627W        W77168   4.851  42.211   5.006
10628W        W77169  17.603  14.055   2.686
10629W        W77170  15.781  44.319   3.395
10630W        W77171  23.183  42.382   0.266
10631W        W77172  43.703  40.952   1.331
10632W        W77173  43.298  33.855  13.360
10633W        W77174  41.200  19.727   2.604
10634W        W77175  36.871   3.062   3.261
10635W        W77176  21.503  44.880  13.946
10636W        W77177  24.025  10.074  10.467
10637W        W77178  30.076  27.162  12.972
10638W        W77179  14.644  12.092   2.336
10639W        W77180  34.985  36.772  12.942
10640W        W77181   3.599   5.291  14.881
10641W        W77182  38.940  38.408   3.375
10642W        W77183  22.714  20.066  13.786
10643W        W77184  17.512  18.679  12.979
10644W        W77185   6.857  32.305  13.879
10645W        W77186  23.707   4.484  12.069
10646W        W77187   5.893  17.507  11.951
10647W        W77188  44.023  42.755   2.113
10648W        W77189  27.618  19.270  12.127
10649W        W77190  18.772  35.511   0.701
10650W        W77191   7.009  20.745  12.080
10651W        W77192  33.193  23.176  13.947
10652W        W77193  17.213  23.620   2.789
10653W        W77194  13.746  22.485   3.357
10654W        W77195  12.728  42.431   4.333
10655W        W77196   4.836  19.188   3.849
10656W        W77197  10.958  14.875   0.294
10657W        W77198  27.559   2.431  12.326
10658W        W77199   8.032   4.030  12.437
10659W        W77200   8.263   8.458  14.011
10660W        W77201  36.019  22.243   1.369
10661W        W77202   0.037  20.737  11.613
10662W        W77203  42.306  37.469   1.118
10663W        W77204  36.396  19.701  13.985
10664W        W77205  35.611  37.331   4.870
10665W        W77206  22.302  33.046  11.494
10666W        W77207   7.447  10.653  11.278
10667W        W77208  41.408   5.267   2.409
10668W        W77209   8.219   2.159  12.608
10669W        W77210  10.904   1.664  12.925
10670W        W77211   3.453  11.591  14.873
10671W        W77212  34.185  26.828  11.548
10672W        W77213  27.135   2.265  13.654
10673W        W77214   9.878  22.394  11.937
10674W        W77215  41.336   0.318  13.396
10675W        W77216   3.592   3.005   3.588
10676W        W77217  18.556   6.303  12.737
10677W        W77218   7.403  38.165  13.024
10678W        W77219   1.688  37.862   1.183
10679W        W77220  10.320   5.372   4.433
10680W        W77221   1.219  21.572  13.092
10681W        W77222  20.213  25.464  14.634
10682W        W77223   0.740  32.957  14.452
10683W        W77224  36.433  25.934  12.030
10684W        W77225  34.662   4.370  13.424
10685W        W77226  22.587  36.505   3.566
10686W        W77227  44.733  17.276  13.919
10687W        W77228  38.292   3.124  14.980
10688W        W77229  16.327  22.194  13.317
10689W        W77230  25.764   4.673  11.321
10690W        W77231   2.416  40.829  14.381
10691W        W77232  28.411   7.003   4.673
10692W        W77233  10.098  23.260   0.579
10693W        W77234  37.856  10.664  12.993
10694W        W77235  28.948  20.015  14.774
10695W        W77236   5.226  17.984   1.354
10696W        W77237  20.969  16.216   1.204
10697W        W77238  39.579  21.265   1.243
10698W        W77239  40.290  28.919  10.438
10699W        W77240   1.452   1.295   4.001
10700W        W77241  43.540  32.484  12.877
10701W        W77242  28.089   5.796   1.670
10702W        W77243  12.251  24.567  12.971
10703W        W77244  26.746  42.358  13.338
10704W        W77245   3.308  16.626   3.812
10705W        W77246  22.261  32.206   2.105
10706W        W77247   7.770  43.276   4.671
10707W        W77248  33.994  23.594  13.481
10708W        W77249  31.658  10.809  11.525
10709W        W77250  24.761  40.837  11.608
10710W        W77251  34.213  31.628  12.667
10711W        W77252  23.538  19.835  13.506
10712W        W77253  22.528  38.550   2.244
10713W        W77254  36.622   0.377   5.010
10714W        W77255   1.216  44.292   4.579
10715W        W77256  17.224  41.602   1.918
10716W        W77257  22.247  30.904  14.476
10717W        W77258  11.007  44.291  13.089
10718W        W77259  26.406  14.707  14.522
10719W        W77260  24.088  16.621   4.346
10720W        W77261  39.256  26.923   2.282
10721W        W77262  22.111  38.804   2.403
10722W        W77263  23.192   2.884  11.996
10723W        W77264   4.308  30.097   0.257
10724W        W77265  11.376  42.525  10.538
10725W        W77266  13.087  38.890   4.695
10726W        W77267  18.130  16.273  11.530
10727W        W77268  19.988  28.376   1.336
10728W        W77269   1.846  43.807  12.556
10729W        W77270  29.097  36.888   1.317
10730W        W77271  29.396  27.484   3.622
10731W        W77272  29.409  34.360  12.063
10732W        W77273  44.099  23.097   4.226
10733W        W77274   1.786  38.722  13.651
10734W        W77275   3.183  26.544  12.751
10735W        W77276  17.897  10.739   2.341
10736W        W77277  15.200  43.364   1.482
10737W        W77278  36.847   2.672   5.276
10738W        W77279  36.414   8.125   0.915
10739W        W77280  16.619  13.902  12.206
10740W        W77281  40.628  40.644   4.542
10741W        W77282   5.204  36.490   3.134
10742W        W77283  19.680  44.346   0.420
10743W        W77284  12.569  29.373   4.644
10744W        W77285  17.818  44.776  13.257
10745W        W77286   1.902  14.476  11.224
10746W        W77287  39.828  32.533  13.829
10747W        W77288  43.119  35.640  12.292
10748W        W77289  17.509  20.279   3.262
10749W        W77290  21.399  40.527   4.962
10750W        W77291  13.697  21.029   3.865
10751W        W77292  37.628  26.973  13.277
10752W        W77293  36.918  33.007   0.359
10753W        W77294  11.283   4.481   4.534
10754W        W77295   2.178  28.427  11.287
10755W        W77296  18.951   4.225   0.689
10756W        W77297   9.789  23.678  11.471
10757W        W77298  29.376   8.275  11.784
10758W        W77299  35.843   7.190   2.615
10759W        W77300  33.465  15.578  12.013
10760W        W77301  36.948   4.461  14.633
10761W        W77302  25.093   7.804   2.946
10762W        W77303  34.292  43.363   4.186
10763W        W77304  37.104   1.289  13.382
10764W        W77305   5.813   4.916   1.649
10765W        W77306   0.531  28.550   0.761
10766W        W77307  12.163  36.613   0.880
10767W        W77308  29.130  23.202  14.881
10768W        W77309  35.851  27.602   4.302
10769W        W77310  20.653  42.511   0.435
10770W        W77311  44.246  26.029   3.981
10771W        W77312  25.409  20.688   3.416
10772W        W77313  36.466  37.121  12.947
10773W        W77314  20.174  33.113   1.410
10774W        W77315   1.395  31.354  14.571
10775W        W77316   9.152   7.366  14.723
10776W        W77317  12.862  28.370  11.851
10777W        W77318   1.484  22.194  10.950
10778W        W77319  22.727  12.465   1.428
10779W        W77320  38.432  18.927   4.090
10780W        W77321  31.612   7.213   3.499
10781W        W77322  44.125  29.136  14.924
10782W        W77323  25.465   4.183  13.408
10783W        W77324  30.101  43.887   2.813
10784W        W77325  19.676  20.004  12.180
10785W        W77326  23.652  35.467   2.238
10786W        W77327  31.321  32.477   1.136
10787W        W77328   7.295  21.060   3.467
10788W        W77329  32.537  22.713   0.949
10789W        W77330  24.232   5.687  14.467
10790W        W77331  16.004  36.625   2.475
10791W        W77332  26.398  20.068  11.007
10792W        W77333  31.374  15.345   4.683
10793W        W77334  28.617  27.700   0.452
10794W        W77335  13.172  13.367   0.943
10795W        W77336  32.845   0.431  11.601
10796W        W77337   7.171  10.607  13.177
10797W        W77338  43.368  41.797  12.678
10798W        W77339  41.039  12.073  13.851
10799W        W77340  32.935  30.622  12.011
10800W        W77341  24.200   7.948   3.207
10801W        W77342  32.169   6.436   3.550
10802W        W77343  10.247  10.804  11.014
10803W        W77344  20.041  30.642   3.860
10804W        W77345   7.126  13.698  12.173
10805W        W77346   7.428  10.164   2.138
10806W        W77347  33.901  37.455   1.042
10807W        W77348  38.192  21.929  11.167
10808W        W77349   5.378   6.653  14.342
10809W        W77350  27.594   4.690  13.062
10810W        W77351   2.133   2.157  14.888
10811W        W77352  20.062  10.597   4.644
10812W        W77353  31.193  24.965  13.032
10813W        W77354  41.469   3.833  12.402
10814W        W77355  35.126   6.821  12.617
10815W        W77356  21.686  19.320   4.799
10816W        W77357  17.843   1.409  13.454
10817W        W77358   6.437  36.105  14.395
10818W        W77359  36.265  14.873  12.397
10819W        W77360  19.349   0.658  10.916
10820W        W77361   5.600  12.196   3.768
10821W        W77362   0.357  20.791  11.215
10822W        W77363  22.478  13.603  12.013
10823W        W77364  14.751  16.601  14.093
10824W        W77365  37.469  17.515   0.861
10825W        W77366  13.318  24.853   1.321
10826W        W77367  33.901   9.149   3.364
10827W        W77368  18.791  10.320   4.228
10828W        W77369  14.339  17.603   0.384
10829W        W77370  36.631  42.994  10.074
10830W        W77371  27.456  20.781  13.063
10831W        W77372   4.399   0.693   1.355
10832W        W77373  30.697  31.960   2.382
10833W        W77374  30.696  32.921  14.464
10834W        W77375  10.676  39.657  14.831
10835W        W77376   2.991  11.325   1.649
10836W        W77377  35.002  26.590  14.921
10837W        W77378  16.555  32.888  14.840
10838W        W77379  29.375   9.647  10.742
10839W        W77380  20.165  38.348  10.884
10840W        W77381   5.120  32.120   4.308
10841W        W77382  29.451  31.956   4.981
10842W        W77383  23.995  25.369  14.434
10843W        W77384   5.898   3.814  10.716
10844W        W77385  34.383  32.089   2.387
10845W        W77386  40.762  29.689   2.614
10846W        W77387  26.963  16.959  10.675
10847W        W77388  37.646  13.179  12.437
10848W        W77389  26.322  34.591  10.381
10849W        W77390  12.120   3.752   0.982
10850W        W77391  38.454  25.098   2.508
10851W        W77392  19.976  34.302   1.883
10852W        W77393  30.655   6.690  12.565
10853W        W77394   1.954  28.038  11.553
10854W        W77395  25.030  10.291  11.633
10855W        W77396   8.269  22.342   0.280
10856W        W77397  33.037   3.513  13.272
10857W        W77398  39.048  31.866  13.100
10858W        W77399  44.794  25.171  12.845
10859W        W77400  37.928  16.539   4.933
10860W        W77401  15.059  41.874  11.906
10861W        W77402  40.524  15.103   3.693
10862W        W77403  36.737  14.613   0.017
10863W        W77404   1.772   3.845   4.299
10864W        W77405  19.112  10.399   3.810
10865W        W77406   7.390  28.151   4.306
10866W        W77407   2.022  17.165  13.410
10867W        W77408  29.813  30.371   4.504
10868W        W77409  37.082  22.825   1.046
10869W        W77410  30.321  14.597  10.787
10870W        W77411   8.830  13.671   4.279
10871W        W77412  28.955  19.028  10.990
10872W        W77413  35.414  17.067  11.245
10873W        W77414  30.872   8.166   3.965
10874W        W77415  25.515  21.703   3.183
10875W        W77416  30.120  31.936   3.756
10876W        W77417  15.638   1.973   0.405
10877W        W77418   7.306  15.622  12.724
10878W        W77419  19.840  28.996  10.611
10879W        W77420  40.957  10.399   4.163
10880W        W77421  36.793  26.063   3.173
10881W        W77422  38.881  23.394   2.244
10882W        W77423  36.554  31.968   1.317
10883W        W77424  18.454  15.917   4.440
10884W        W77425  40.702  27.603  12.926
10885W        W77426  41.089  38.574  12.068
10886W        W77427  31.978   9.436   4.928
10887W        W77428  43.269  37.776  14.484
10888W        W77429  40.922  12.294   3.816
10889W        W77430  18.066  17.767   2.678
10890W        W77431  38.779  39.276   4.061
10891W        W77432  13.081  44.796  13.437
10892W        W77433  20.715  29.589   1.771
10893W        W77434  20.783   2.846  10.456
10894W        W77435  43.300  29.616   1.114
10895W        W77436  18.975   5.578   5.202
10896W        W77437  20.799  34.099  14.219
10897W        W77438  12.369  10.575  14.963
10898W        W77439  14.367  14.144   1.333
10899W        W77440  15.336   5.264   4.123
10900W        W77441   0.284  38.308   2.296
10901W        W77442  37.447  43.239  12.495
10902W        W77443  40.207  35.951   2.141
10903W        W77444   1.976  33.732   9.735
10904W        W77445  31.270  30.071  11.749
10905W        W77446  22.650  40.037   0.675
10906W        W77447  39.520  34.405   3.986
10907W        W77448   0.859   3.815  14.707
10908W        W77449  39.279  41.197  11.103
10909W        W77450   3.678  42.471  13.862
10910W        W77451  22.475  22.321   1.310
10911W        W77452   5.303  13.790   2.240
10912W        W77453  12.973  30.147  14.215
10913W        W77454  29.692  42.457  12.437
10914W        W77455  30.746  38.062   1.935
10915W        W77456  29.541  21.153  13.362
10916W        W77457   0.172  24.524   2.766
10917W        W77458  29.428  24.305   3.257
10918W        W77459   5.422   7.969  12.992
10919W        W77460  19.732  22.101   4.695
10920W        W77461   1.729   3.343   3.161
10921W        W77462  37.042  20.955   0.909
10922W        W77463   7.319   3.313   3.705
10923W        W77464  33.682  23.486  12.565
10924W        W77465  23.202  29.656   3.730
10925W        W77466  32.317   1.920   3.631
10926W        W77467  27.203   3.507   1.266
10927W        W77468  37.041  32.624  10.725
10928W        W77469  20.482  42.868   0.074
10929W        W77470  30.735  37.030   4.174
10930W        W77471   8.817  23.454   4.381
10931W        W77472   7.599  33.006  14.048
10932W        W77473  35.886  21.734   0.978
10933W        W77474  40.293   9.881  12.051
10934W        W77475  13.655  12.339  14.867
10935W        W77476  24.551  33.709   2.634
10936W        W77477  25.542   4.986   1.361
10937W        W77478  10.866  19.453  12.766
10938W        W77479  38.103  19.539   5.032
10939W        W77480  42.837  11.920  10.686
10940W        W77481  31.014  39.420   4.505
10941W        W77482   2.383  20.734  13.399
10942W        W77483  33.501  43.630   1.266
10943W        W77484  38.319  36.750   4.775
10944W        W77485  30.524  40.806  13.577
10945W        W77486  17.535   2.888   3.257
10946W        W77487  13.583  15.080   1.869
10947W        W77488   9.357  20.071  14.870
10948W        W77489  19.856  15.283  11.263
10949W        W77490  18.748  12.289  12.030
10950W        W77491  39.683  25.484  10.628
10951W        W77492  42.784  19.205   2.148
10952W        W77493  28.585  19.094  10.625
10953W        W77494  42.326  30.979   3.221
10954W        W77495  41.348   8.453   4.547
10955W        W77496  40.924  27.539  11.563
10956W        W77497  19.062   3.305  14.787
10957W        W77498  23.461   2.430  11.033
10958W        W77499  18.224  28.183  13.106
10959W        W77500   5.832  27.885  11.985
10960W        W77501   6.769   8.880  14.531
10961W        W77502  39.477   5.441  11.884
10962W        W77503  30.285  10.870   5.180
10963W        W77504  15.831  42.951  12.174
10964W        W77505  26.117   2.038   0.126
10965W        W77506  38.522  18.122  11.205
10966W        W77507  24.163  16.580   4.883
10967W        W77508   6.825  15.329   4.907
10968W        W77509  37.009  33.700   1.797
10969W        W77510  28.584  10.423   9.473
10970W        W77511   9.889  42.729   0.118
10971W        W77512  41.483   4.743   4.613
10972W        W77513  40.270  41.336  12.486
10973W        W77514  10.890   8.683  12.148
10974W        W77515  39.882   4.240   1.634
10975W        W77516  10.237  26.628   1.801
10976W        W77517  12.571  14.126   0.905
10977W        W77518  18.253  34.011   1.712
10978W        W77519  24.942   6.967   4.479
10979W        W77520  19.463   9.686   4.275
10980W        W77521  15.547  14.774   3.876
10981W        W77522  20.312  13.422  13.992
10982W        W77523  39.437  36.289   4.468
10983W        W77524  10.306  18.832   2.219
10984W        W77525  25.971   0.304   0.807
10985W        W77526  42.882  10.292  14.929
10986W        W77527  23.921  38.269  11.179
10987W        W77528  33.905  19.310  10.724
10988W        W77529  23.267  12.666  11.436
10989W        W77530   6.186  42.390   3.221
10990W        W77531  33.166  35.007   3.281
10991W        W77532  23.008  20.090   0.816
10992W        W77533  11.224  31.344   4.132
10993W        W77534  41.376  26.632   3.231
10994W        W77535  21.285  35.046  11.689
10995W        W77536  14.662  17.909   3.665
10996W        W77537   3.717  40.596   3.196
10997W        W77538  37.739  21.140  10.617
10998W        W77539  20.602  11.206  10.734
10999W        W77540  41.837  30.923  13.309
11000W        W77541  29.219   5.289  12.483
11001W        W77542  32.593  42.655  12.875
11002W        W77543  14.703  27.109  13.770
11003W        W77544   0.840   6.887  13.325
11004W        W77545  28.011  29.608  12.373
11005W        W77546  11.798   9.367   4.327
11006W        W77547  41.394  27.537  10.779
11007W        W77548  40.926  19.870   4.094
11008W        W77549  20.689  41.613   1.775
11009W        W77550  25.052   4.171  12.534
11010W        W77551  30.618   8.291   1.398
11011W        W77552   2.750  14.217   2.508
11012W        W77553  28.628  26.975  14.814
11013W        W77554  21.203  18.911  11.243
11014W        W77555  42.295   8.257   1.469
11015W        W77556  11.799  37.116   2.358
11016W        W77557  42.012  34.444   0.280
11017W        W77558  33.565   4.189  14.261
11018W        W77559  41.395  27.507  14.338
11019W        W77560   1.663   8.814  13.788
11020W        W77561  37.225   0.103   0.796
11021W        W77562   6.318   6.815  12.063
11022W        W77563  21.666  41.433   4.536
11023W        W77564  29.491   9.345   1.875
11024W        W77565  29.069  39.271   2.215
11025W        W77566   5.886   1.361  12.645
11026W        W77567  13.792  24.995  12.830
11027W        W77568  37.498   1.734   4.081
11028W        W77569  21.876  12.427   3.779
11029W        W77570  34.312   6.954   0.903
11030W        W77571  42.390  39.592   2.276
11031W        W77572   5.319   4.344   1.251
11032W        W77573  40.868  29.236   3.279
11033W        W77574   1.615   8.150  14.366
11034W        W77575  18.975  24.956  14.927
11035W        W77576  13.651  11.386  12.758
11036W        W77577   3.481  33.042   2.744
11037W        W77578   7.189  24.816  12.451
11038W        W77579  40.998  16.788   1.915
11039W        W77580  40.396   5.253  11.742
11040W        W77581  19.456  41.767  12.422
11041W        W77582  44.592  10.938   0.500
11042W        W77583  23.660  21.948   2.160
11043W        W77584  40.343  27.597   1.652
11044W        W77585  23.211  32.071   4.119
11045W        W77586  14.731  41.758   4.619
11046W        W77587  35.546  38.054  13.794
11047W        W77588   7.569  44.759  13.491
11048W        W77589  38.278   4.092   3.117
11049W        W77590  43.911  23.152   1.221
11050W        W77591   7.963   2.232   0.386
11051W        W77592  33.468  34.557   4.221
11052W        W77593  38.538  14.561   4.563
11053W        W77594  18.359  44.192  12.064
11054W        W77595  17.592  23.187   1.059
11055W        W77596  29.166   2.289   4.336
11056W        W77597  19.283   3.706  14.371
11057W        W77598  20.996  22.711   1.374
11058W        W77599  25.055   4.835   3.380
11059W        W77600  39.443  25.266  14.245
11060W        W77601  17.703  30.449   4.505
11061W        W77602  42.886  32.067  10.539
11062W        W77603  26.129  30.523  13.958
11063W        W77604  17.232   2.153   1.373
11064W        W77605   0.366  39.052  10.956
11065W        W77606  37.818  16.101  14.382
11066W        W77607  33.377  33.938  10.664
11067W        W77608  41.002  22.427  12.486
11068W        W77609  17.743   3.648  12.100
11069W        W77610  15.832  29.863  14.027
11070W        W77611  29.292  28.623  11.142
11071W        W77612  30.401  12.061   0.509
11072W        W77613  41.970  32.626  12.070
11073W        W77614  30.390  19.826  12.946
11074W        W77615   8.364  39.696   5.028
11075W        W77616  11.161  31.521   2.336
11076W        W77617  31.518  13.309  10.357
11077W        W77618  21.321  23.529  12.528
11078W        W77619  13.053  29.054   1.946
11079W        W77620   5.283  31.682  14.511
11080W        W77621  24.720  12.598   4.629
11081W        W77622  32.025  43.752   4.321
11082W        W77623  33.472   5.332   4.192
11083W        W77624  14.034  22.335   3.960
11084W        W77625   5.786   4.715  13.388
11085W        W77626   3.538  35.775  14.024
11086W        W77627  18.146  44.546  10.840
11087W        W77628  29.509   8.160  12.274
11088W        W77629   1.420   0.737   0.508
11089W        W77630  10.372  33.259   0.580
11090W        W77631  16.012  32.592   0.520
11091W        W77632  37.796  36.568  10.851
11092W        W77633  30.403   5.319  14.825
11093W        W77634  20.351  37.176   1.304
11094W        W77635  24.589  26.132  14.288
11095W        W77636   8.999  41.391  13.443
11096W        W77637  44.952  19.988  14.122
11097W        W77638   4.903  11.822  14.980
11098W        W77639   5.366   8.348   3.173
11099W        W77640  21.429   5.151   2.239
11100W        W77641  38.780  42.015  13.534
11101W        W77642  11.633  23.674   2.289
11102W        W77643   9.872  22.727   0.331
11103W        W77644  36.609  32.955  12.556
11104W        W77645  24.500   1.841   0.792
11105W        W77646   6.443  25.176  13.087
11106W        W77647  13.557  13.148   1.795
11107W        W77648  35.007  41.760  13.039
11108W        W77649   6.927  41.510  13.115
11109W        W77650  24.000  28.145   1.983
11110W        W77651   4.471  30.338   4.420
11111W        W77652   6.714  23.475   4.170
11112W        W77653  37.768  31.376  13.115
11113W        W77654  12.294  23.694  13.077
11114W        W77655  15.957   5.908  12.948
11115W        W77656   0.518  26.645  14.936
11116W        W77657  33.781   8.647  12.436
11117W        W77658  44.743  10.603  13.721
11118W        W77659   0.282  12.054  10.966
11119W        W77660   1.747  19.934   4.175
11120W        W77661  31.180  35.214  12.764
11121W        W77662   6.721   8.716   0.395
11122W        W77663  11.229  38.122  13.817
11123W        W77664   9.434  37.108   1.586
11124W        W77665  44.500   6.304   4.947
11125W        W77666  43.766  18.324   2.820
11126W        W77667  21.738  17.552   1.260
11127W        W77668  29.509  20.952   0.781
11128W        W77669  37.837  13.109  12.927
11129W        W77670  25.408  37.884  14.905
11130W        W77671  27.694  24.879   2.154
11131W        W77672   2.210  23.812  10.789
11132W        W77673   6.936  32.423   2.426
11133W        W77674  31.074  35.760   4.722
11134W        W77675   1.009  33.568   0.716
11135W        W77676  15.734  32.702   1.802
11136W        W77677  33.131  19.998   4.073
11137W        W77678  18.655   8.262  10.855
11138W        W77679  16.641  18.746  11.576
11139W        W77680  20.045   6.508   4.417
11140W        W77681   4.577  10.423   0.015
11141W        W77682  30.626   6.187   1.384
11142W        W77683  38.711  44.334   1.997
11143W        W77684  16.787  12.811   1.666
11144W        W77685   6.917  11.405  14.410
11145W        W77686  31.885  38.377  13.356
11146W        W77687  22.851   7.280   4.133
11147W        W77688  13.134   2.536  14.866
11148W        W77689  23.059  30.307   0.512
11149W        W77690  31.851  40.538  12.486
11150W        W77691  21.313  23.565   4.544
11151W        W77692  29.901  36.022  13.844
11152W        W77693  39.338  28.644  11.107
11153W        W77694  39.874   5.882   4.626
11154W        W77695  22.987  14.711  10.489
11155W        W77696  32.744  17.684  11.516
11156W        W77697  29.164  30.701   0.531
11157W        W77698   7.082  10.405  12.699
11158W        W77699   0.247   7.327  14.836
11159W        W77700  24.153  29.996   3.635
11160W        W77701   7.784  32.076  14.167
11161W        W77702  11.719  21.749   1.176
11162W        W77703  14.813  39.008  13.602
11163W        W77704  23.891   4.254   1.757
11164W        W77705  31.186  42.647   4.483
11165W        W77706  21.966  40.864   2.214
11166W        W77707  23.295  19.256  10.760
11167W        W77708  28.072  33.820  10.653
11168W        W77709  13.607  23.710   4.988
11169W        W77710  39.399  29.650  11.682
11170W        W77711  15.694   0.529  12.869
11171W        W77712   9.344  42.914  10.255
11172W        W77713  29.965  13.442   1.740
11173W        W77714  36.914  24.222   4.172
11174W        W77715   5.183   1.772  14.829
11175W        W77716  32.175  41.253  13.786
11176W        W77717   5.075  14.385  11.652
11177W        W77718   9.812  17.064  12.761
11178W        W77719   4.774  10.520  10.406
11179W        W77720  12.270  25.693   4.588
11180W        W77721  32.788  24.609   0.879
11181W        W77722  23.988  37.802  13.992
11182W        W77723  37.995   4.561  10.662
11183W        W77724  44.434  40.815   3.714
11184W        W77725   6.332  12.571  14.014
11185W        W77726  14.231  43.833  13.598
11186W        W77727  37.881  32.066   4.046
11187W        W77728   6.849  36.355   2.003
11188W        W77729   6.157  17.435  14.823
11189W        W77730  31.733  34.579  10.650
11190W        W77731  14.142  40.553  11.159
11191W        W77732  26.793  11.399  13.380
11192W        W77733  44.076   7.040  11.467
11193W        W77734  10.881  36.623   4.094
11194W        W77735  11.296  39.605  14.072
11195W        W77736  44.770  33.207  10.701
11196W        W77737  22.672  16.858   1.869
11197W        W77738  31.916  27.237   0.041
11198W        W77739  30.035  15.779   2.249
11199W        W77740   9.249  35.156   0.150
11200W        W77741  11.665   4.876   0.239
11201W        W77742  17.816  11.594   0.405
11202W        W77743  25.021  25.848   2.602
11203W        W77744  20.554  11.220   3.662
11204W        W77745  24.142  14.827  12.235
11205W        W77746  10.402  24.798  13.988
11206W        W77747  43.786  37.063  13.020
11207W        W77748  35.389   5.827  10.241
11208W        W77749  18.327  14.535  11.645
11209W        W77750  29.747  41.623  11.975
11210W        W77751  36.930  18.906  13.456
11211W        W77752  15.567  33.796  14.839
11212W        W77753  44.658  10.835   1.240
11213W        W77754  43.439  36.913   1.024
11214W        W77755  17.809  27.364   1.321
11215W        W77756  30.467   6.036  10.580
11216W        W77757  30.749   3.917  11.649
11217W        W77758   0.557  38.843   5.258
11218W        W77759   6.922  42.644   2.867
11219W        W77760  17.039  20.495  11.678
11220W        W77761   9.001   4.297   4.910
11221W        W77762  25.935   9.756   4.205
11222W        W77763   0.204  12.852   3.475
11223W        W77764  19.283  40.913  13.834
11224W        W77765   6.632  10.038   5.085
11225W        W77766  10.170   4.638   5.003
11226W        W77767  33.412   4.023  10.763
11227W        W77768   5.902  41.716   0.893
11228W        W77769  37.899  12.433  10.482
11229W        W77770  38.354  22.134   3.917
11230W        W77771  43.580   5.760  14.019
11231W        W77772  13.713  42.383  14.938
11232W        W77773   8.893   9.573  13.683
11233W        W77774  14.898  35.054  13.805
11234W        W77775  42.900   4.630  10.749
11235W        W77776  14.577  24.743  11.592
11236W        W77777   2.411   3.916   3.188
11237W        W77778   4.744  20.293  11.638
11238W        W77779  33.446   7.965   4.039
11239W        W77780  18.531  19.552   3.960
11240W        W77781  24.817  41.972  14.038
11241W        W77782  39.640   2.765  14.830
11242W        W77783  12.150   8.914  13.279
11243W        W77784  26.203  26.203  11.077
11244W        W77785  10.727  35.104   3.556
11245W        W77786  32.614  12.822  12.982
11246W        W77787  28.256  26.584  14.794
11247W        W77788  22.592  13.198   0.472
11248W        W77789  18.154  33.742   3.880
11249W        W77790   3.253  13.514  12.595
11250W        W77791  42.890  22.591   3.635
11251W        W77792   7.664  22.750  10.852
11252W        W77793  44.021  41.617   0.829
11253W        W77794  21.613   4.008  12.975
11254W        W77795  21.628  34.154   1.679
11255W        W77796  44.452   0.505  13.050
11256W        W77797  41.275  43.980   1.034
11257W        W77798  20.071  16.098   4.639
11258W        W77799  20.019  40.499  14.037
11259W        W77800  16.338  12.588  14.364
11260W        W77801  25.131  25.813  12.509
11261W        W77802   5.202  39.419   3.613
11262W        W77803  14.838  15.630  10.652
11263W        W77804  29.093   2.017   2.732
11264W        W77805  19.983  33.657   0.514
11265W        W77806  16.716  24.254   4.576
11266W        W77807  22.252  20.097   3.800
11267W        W77808  42.325  37.927   1.360
11268W        W77809   9.212  26.321   2.586
11269W        W77810   3.198  30.652   2.811
11270W        W77811  15.690   0.091   4.129
11271W        W77812  40.520   7.938  13.522
11272W        W77813  43.779  34.409  14.802
11273W        W77814   6.981  22.592   4.176
11274W        W77815  25.633  29.638  10.547
11275W        W77816  14.257  42.000  12.653
11276W        W77817  43.411  24.796  12.235
11277W        W77818  27.550  43.925  11.751
11278W        W77819  27.117   4.700  11.544
11279W        W77820  10.688  17.369   0.922
11280W        W77821   4.846  33.885   0.727
11281W        W77822  16.568   7.958  12.249
11282W        W77823  32.509  41.576  10.554
11283W        W77824  32.303  23.452  12.013
11284W        W77825  17.054  35.688   4.469
11285W        W77826   8.826  30.901   4.966
11286W        W77827  30.685  30.829  11.037
11287W        W77828  18.662  10.415  13.728
11288W        W77829  29.189  28.473  14.517
11289W        W77830  35.411  37.962   4.016
11290W        W77831  18.165   2.514  11.629
11291W        W77832  35.142  35.367   2.373
11292W        W77833  12.059  42.441  14.700
11293W        W77834  25.494  37.990   2.760
11294W        W77835  20.183  15.304   1.317
11295W        W77836  34.789   1.251   4.925
11296W        W77837  27.162  36.389  14.788
11297W        W77838  17.125   5.926  13.845
11298W        W77839  21.016   0.277   3.757
11299W        W77840   9.274  43.281  13.034
11300W        W77841  13.993  20.023   1.345
11301W        W77842  39.579  27.163  14.384
11302W        W77843  34.576   9.935  13.738
11303W        W77844  27.787  14.471   2.933
11304W        W77845  39.041  24.488   4.541
11305W        W77846  36.786   8.762  13.043
11306W        W77847  16.092  17.139  13.819
11307W        W77848   6.276   5.371   3.854
11308W        W77849  26.565   0.773   1.427
11309W        W77850  14.596  19.580   3.388
11310W        W77851  11.720  35.566  14.455
11311W        W77852  40.531  22.582   3.623
11312W        W77853  12.011   1.211  13.590
11313W        W77854   9.473   8.341  11.001
11314W        W77855  12.713  15.141  11.942
11315W        W77856  34.381  37.792  14.786
11316W        W77857  35.280   9.036   2.418
11317W        W77858   9.874  35.987  14.265
11318W        W77859   8.155  42.980   4.452
11319W        W77860   6.179  29.498   5.234
11320W        W77861  31.098  33.272   4.588
11321W        W77862  24.010   8.883   4.934
11322W        W77863   8.822  19.804  10.793
11323W        W77864   6.560   3.248   4.189
11324W        W77865  33.139  16.249  14.806
11325W        W77866  19.011  21.176   1.368
11326W        W77867  41.242   5.410  13.046
11327W        W77868  27.637  16.156   0.465
11328W        W77869  19.337  37.119   2.265
11329W        W77870  31.885   2.956   4.093
11330W        W77871  36.382   2.211  12.957
11331W        W77872  23.998   1.468  10.926
11332W        W77873  26.939  10.302   3.415
11333W        W77874  24.271   0.558  10.713
11334W        W77875   5.304  35.041   1.013
11335W        W77876  30.656   7.625  14.075
11336W        W77877  33.693  40.943  12.874
11337W        W77878  36.981   6.694  11.229
11338W        W77879  18.139  36.898  14.833
11339W        W77880  41.915   5.081  10.480
11340W        W77881  37.085  18.568  14.413
11341W        W77882  20.135  44.168   0.177
11342W        W77883  35.637  25.927   4.034
11343W        W77884  40.412  39.397  14.490
11344W        W77885   7.851  27.457  13.511
11345W        W77886  28.093  18.716   0.330
11346W        W77887  44.503  42.387  12.858
11347W        W77888  28.119  39.150   5.117
11348W        W77889  12.562  10.117  12.964
11349W        W77890  22.597  39.895   1.708
11350W        W77891  22.077  31.613   2.679
11351W        W77892  21.014  11.570   2.309
11352W        W77893   8.921  16.199  14.916
11353W        W77894  32.865   5.865  13.895
11354W        W77895  34.390  37.313  10.598
11355W        W77896  11.781  11.201   3.403
11356W        W77897  11.836  26.526  12.925
11357W        W77898  23.696  12.095   1.949
11358W        W77899   9.824   3.353  11.832
11359W        W77900  11.582   7.648  14.291
11360W        W77901  27.739   4.834   0.229
11361W        W77902  17.323  32.380   0.079
11362W        W77903  13.863   8.351  11.985
11363W        W77904  18.762  21.988   0.902
11364W        W77905  11.217  12.122   0.531
11365W        W77906  33.050  24.462  13.660
11366W        W77907  12.175  16.254  11.293
11367W        W77908   0.476   1.922  10.501
11368W        W77909  21.110  41.563  12.544
11369W        W77910  18.838   8.703   2.622
11370W        W77911   5.952  17.219   0.258
11371W        W77912  44.326  36.021   1.929
11372W        W77913  42.152   8.940  13.569
11373W        W77914   2.067  15.207  14.441
11374W        W77915  11.757   3.136   0.212
11375W        W77916   8.888  42.417  10.913
11376W        W77917  17.957  31.317  10.037
11377W        W77918   8.479  43.007  13.888
11378W        W77919  40.791  33.581   1.838
11379W        W77920  12.788  26.924   0.455
11380W        W77921  40.406  41.798  10.768
11381W        W77922  31.420   7.015  10.081
11382W        W77923  27.449   2.763   4.079
11383W        W77924  18.572  21.514  12.588
11384W        W77925  24.170  26.180   1.068
11385W        W77926  27.652   0.910  12.149
11386W        W77927  19.913  31.972  14.868
11387W        W77928  35.501  44.912   2.002
11388W        W77929   3.856  13.893  11.248
11389W        W77930  26.471   6.942  13.396
11390W        W77931  26.905  25.506   2.292
11391W        W77932  31.377  37.780   3.772
11392W        W77933  40.779   2.496   0.318
11393W        W77934  11.727   6.976  12.553
11394W        W77935  42.018  19.224   1.137
11395W        W77936  21.498   3.315   2.775
11396W        W77937  43.408   5.517   0.869
11397W        W77938  36.968   2.729   9.869
11398W        W77939  16.661  28.959  14.893
11399W        W77940  32.752   0.408  13.993
11400W        W77941   3.397   9.833   3.411
11401W        W77942  10.195  28.753  13.105
11402W        W77943  34.023  11.779   0.677
11403W        W77944  39.430  32.005  10.668
11404W        W77945  31.710  37.808  14.726
11405W        W77946  34.115  38.102  11.084
11406W        W77947  23.749  16.106   3.191
11407W        W77948  11.086  30.109   2.844
11408W        W77949  32.821  17.124  13.825
11409W        W77950  11.057  15.560   1.140
11410W        W77951  31.996  21.689   2.827
11411W        W77952  11.619  32.342   3.552
11412W        W77953  39.049  18.780   5.202
11413W        W77954   4.957  32.660   0.181
11414W        W77955   0.384   3.494  11.049
11415W        W77956  29.178  31.912   0.712
11416W        W77957  43.523  38.494   3.317
11417W        W77958   3.939   4.017  14.903
11418W        W77959   0.487  38.407   0.897
11419W        W77960   8.440   2.755  13.049
11420W        W77961  35.143  31.841  13.705
11421W        W77962   8.611  34.941  12.118
11422W        W77963  44.499  30.462   1.707
11423W        W77964   0.039  24.629  13.923
11424W        W77965  10.229   3.667   3.217
11425W        W77966  31.142  31.855  12.521
11426W        W77967  42.571  29.526   2.789
11427W        W77968  19.236  40.340   2.213
11428W        W77969  20.637   9.979   2.365
11429W        W77970   1.307   2.126   3.598
11430W        W77971  39.730  31.468   0.001
11431W        W77972   3.458  29.041  13.596
11432W        W77973  26.130  33.396   1.203
11433W        W77974   9.991   0.510  11.977
11434W        W77975  26.175  12.851  10.556
11435W        W77976   3.454  21.039  10.742
11436W        W77977  32.286  30.894   0.902
11437W        W77978   0.869  37.304   4.987
11438W        W77979  22.128  41.525   0.609
11439W        W77980  14.367   8.357  11.986
11440W        W77981  37.068  23.507  10.518
11441W        W77982  15.542  20.329   2.889
11442W        W77983   2.775  40.839  10.635
11443W        W77984   8.185   2.912   2.663
11444W        W77985  43.764  38.918   3.450
11445W        W77986  11.403  38.868  10.201
11446W        W77987   5.462  28.108   2.376
11447W        W77988  38.159   1.403  11.915
11448W        W77989  18.870  11.641   1.724
11449W        W77990  29.251  21.702   0.575
11450W        W77991  26.587  12.440  14.673
11451W        W77992  43.080  38.989  14.882
11452W        W77993  21.025  24.948   1.435
11453W        W77994  41.873  12.263  12.429
11454W        W77995  12.788   5.265  13.619
11455W        W77996   6.023  32.145   3.309
11456W        W77997  16.781  31.904   4.930
11457W        W77998  24.434  17.536  10.791
11458W        W77999  42.760   2.418  12.373
11459W        W78000  18.292  42.742   3.462
11460W        W78001  26.092  43.867   2.627
11461W        W78002  42.991  27.216   2.332
11462W        W78003  35.538  37.203  11.921
11463W        W78004   4.121  22.645  12.590
11464W        W78005  34.588  37.374  12.439
11465W        W78006  28.957  39.854   0.461
11466W        W78007  43.887  39.135  10.977
11467W        W78008  27.130  17.291   3.832
11468W        W78009  22.983  27.334   1.135
11469W        W78010   0.717  21.199  14.672
11470W        W78011   6.846  37.435  12.913
11471W        W78012  22.086   4.456  12.740
11472W        W78013  39.427  22.401  11.244
11473W        W78014   1.480  31.025   2.885
11474W        W78015  43.880   6.345  11.951
11475W        W78016   3.702  31.615   1.747
11476W        W78017  32.881   3.357   0.509
11477W        W78018   4.106  21.089  13.776
11478W        W78019  25.237  24.072  14.297
11479W        W78020  35.911  27.239  13.787
11480W        W78021  10.276  33.057   3.720
11481W        W78022  28.923  28.508  12.385
11482W        W78023  35.610  10.638  14.073
11483W        W78024  20.697  22.061   2.326
11484W        W78025  22.577  41.628  11.555
11485W        W78026  14.558  32.335  14.724
11486W        W78027   7.282  19.293   2.783
11487W        W78028  39.818  37.274   1.457
11488W        W78029  22.705  41.428  12.039
11489W        W78030  39.877  22.615   0.484
11490W        W78031   8.885  15.579   4.836
11491W        W78032   8.191   4.815  11.686
11492W        W78033  29.843  14.132   0.489
11493W        W78034  31.160   2.505   1.321
11494W        W78035  32.797  23.153  13.431
11495W        W78036  44.420   4.551  11.240
11496W        W78037  32.857  22.003  11.837
11497W        W78038  29.485  12.043   2.276
11498W        W78039   0.544  24.575  13.851
11499W        W78040  43.635  39.568  14.568
11500W        W78041  14.876  16.350   3.682
11501W        W78042   9.390  18.095  10.279
11502W        W78043  39.353  17.539  13.348
11503W        W78044  17.939  17.490  12.824
11504W        W78045  41.832  22.536   1.183
11505W        W78046  20.454  12.521  13.412
11506W        W78047  34.474  36.594  12.888
11507W        W78048  43.484  15.153   4.166
11508W        W78049   6.066  34.989   3.598
11509W        W78050  40.352  12.553   0.789
11510W        W78051   4.456  44.643  13.850
11511W        W78052  26.654  33.503  13.980
11512W        W78053   1.884  13.480  11.189
11513W        W78054  40.466  24.392  12.368
11514W        W78055  22.105  37.383   4.263
11515W        W78056  13.747  40.488   3.527
11516W        W78057   7.575  27.394   0.998
11517W        W78058  25.685  31.401  13.957
11518W        W78059  13.212  36.878  12.073
11519W        W78060  35.077  39.375  13.916
11520W        W78061   1.595  41.045   4.164
11521W        W78062  34.924  13.577   2.705
11522W        W78063  40.913   4.952  11.892
11523W        W78064   9.191   9.699  11.079
11524W        W78065   9.802   3.872  13.902
11525W        W78066  28.012  16.309  14.107
11526W        W78067   0.999   5.744   0.872
11527W        W78068  21.329  23.005   0.698
11528W        W78069  22.044  44.289   3.795
11529W        W78070  24.270   9.421  11.913
11530W        W78071  40.733   8.581   4.561
11531W        W78072  20.290  41.887   3.556
11532W        W78073  43.534  40.698   4.919
11533W        W78074  18.143  15.083   0.246
11534W        W78075  37.379  17.385  14.044
11535W        W78076  13.378  43.232  12.501
11536W        W78077  25.624  33.535   3.653
11537W        W78078  14.361  39.062  14.619
11538W        W78079  26.378   2.322   3.750
11539W        W78080  31.280  32.480  13.731
11540W        W78081  16.524  37.047  14.447
11541W        W78082  39.946  10.300   3.812
11542W        W78083  44.802   0.951   4.428
11543W        W78084  23.587  22.784  13.979
11544W        W78085  14.246  43.946  11.680
11545W        W78086  34.283  22.542  10.876
11546W        W78087   9.894   0.918   4.124
11547W        W78088   3.526  32.487   0.780
11548W        W78089  28.981   3.412   4.532
11549W        W78090  16.216  28.246  13.048
11550W        W78091  30.524  37.327  12.420
11551W        W78092  41.989  29.422  13.527
11552W        W78093  16.806  28.098  13.931
11553W        W78094  39.827  33.018  12.924
11554W        W78095  31.331  12.865   0.203
11555W        W78096  38.883   2.047   3.049
11556W        W78097   0.505  38.045  11.889
11557W        W78098  20.850  10.266  10.475
11558W        W78099  31.007  21.975  12.500
11559W        W78100  10.066  35.473   0.729
11560W        W78101   4.236  27.008  12.220
11561W        W78102  41.339  34.365   0.792
11562W        W78103   2.094  12.922  12.958
11563W        W78104  30.664   1.359  11.991
11564W        W78105  38.377  32.881  13.867
11565W        W78106  27.926  42.112   1.636
11566W        W78107  25.152  11.500  11.257
11567W        W78108  41.322  38.366  13.781
11568W        W78109  34.670   7.271   1.359
11569W        W78110  43.030   4.845   5.137
11570W        W78111  20.026  37.463   2.473
11571W        W78112  38.692  42.195   3.623
11572W        W78113   9.430  43.041  12.551
11573W        W78114  22.059  29.877   3.228
11574W        W78115  23.569  14.654   0.895
11575W        W78116  27.685  38.831  13.445
11576W        W78117  40.432   7.786  12.562
11577W        W78118  34.963  36.941  13.755
11578W        W78119  14.293  36.536   2.641
11579W        W78120   0.357  40.022  10.874
11580W        W78121  24.061  25.655  13.991
11581W        W78122   5.437  20.309   4.281
11582W        W78123   7.953  42.086   0.920
11583W        W78124   3.219  43.229  13.162
11584W        W78125  13.825  16.653   0.814
11585W        W78126  28.125   2.456   2.729
11586W        W78127  32.989  18.664  12.900
11587W        W78128  37.711  31.876   5.100
11588W        W78129   2.882  30.617  11.576
11589W        W78130  36.070  18.628   3.301
11590W        W78131  17.459   7.604  13.869
11591W        W78132   9.692  31.646   2.258
11592W        W78133   9.871   2.348   2.465
11593W        W78134   9.041  29.920  14.217
11594W        W78135  40.972   2.749   2.223
11595W        W78136  13.835  13.180   2.372
11596W        W78137  36.640   8.277  13.311
11597W        W78138  25.110   7.499   1.625
11598W        W78139  32.874   7.767  14.596
11599W        W78140   9.102  18.075  11.110
11600W        W78141   6.308  32.611   3.181
11601W        W78142  10.054  17.140  12.297
11602W        W78143   6.781  11.833  13.350
11603W        W78144  19.180   8.713   3.764
11604W        W78145  31.116   9.613   1.269
11605W        W78146   8.918  22.347   1.854
11606W        W78147  32.591   2.783   1.112
11607W        W78148  36.401  15.563  14.337
11608W        W78149   1.284  17.117  11.232
11609W        W78150  41.994  33.421   2.434
11610W        W78151  28.153  17.607  13.321
11611W        W78152  37.796  28.645   4.160
11612W        W78153  41.774   7.725  12.467
11613W        W78154   9.828  22.878  12.967
11614W        W78155  13.041   7.471   2.749
11615W        W78156  42.561  43.734  10.948
11616W        W78157  27.632  36.992  11.134
11617W        W78158  21.991  16.303  10.404
11618W        W78159  10.435  31.597  11.218
11619W        W78160  13.532  18.024  11.634
11620W        W78161  35.281  33.090  14.865
11621W        W78162  24.662  16.362  11.096
11622W        W78163  36.829  30.628   3.611
11623W        W78164  19.240  36.807   3.627
11624W        W78165  34.001  31.756   2.348
11625W        W78166   8.488   7.025  11.121
11626W        W78167  18.796  44.784   2.219
11627W        W78168  17.845  17.192  11.566
11628W        W78169  28.652  42.433  12.599
11629W        W78170   5.685  42.814  13.039
11630W        W78171   2.421  12.769   0.124
11631W        W78172  39.172   8.481  12.531
11632W        W78173  29.586  22.615   1.358
11633W        W78174  42.145   5.989  14.509
11634W        W78175   6.456  34.480  11.160
11635W        W78176  37.223   0.213   2.859
11636W        W78177  21.703  15.772   1.822
11637W        W78178  30.880   4.809   1.302
11638W        W78179   5.830  11.773  12.559
11639W        W78180  34.440  26.885   0.108
11640W        W78181  15.601   4.653   3.165
11641W        W78182  10.632  22.979   4.720
11642W        W78183  16.745  32.331   3.740
11643W        W78184  40.904  10.043   2.691
11644W        W78185  21.454   9.474   3.159
11645W        W78186  29.280  30.997   1.887
11646W        W78187  11.667  34.005   1.396
11647W        W78188  43.851  42.107   0.812
11648W        W78189  18.550   4.314  13.088
11649W        W78190  16.974  38.857   4.524
11650W        W78191  29.530   4.730  12.995
11651W        W78192  44.804  27.685   0.469
11652W        W78193  26.981  25.602   3.676
11653W        W78194  15.823  40.805  11.704
11654W        W78195  11.626  41.257   4.977
11655W        W78196  32.589  20.883   0.736
11656W        W78197  14.985   7.277   4.081
11657W        W78198  20.554   1.484   1.266
11658W        W78199  14.587  41.269  14.943
11659W        W78200  20.772  29.143  14.314
11660W        W78201  35.862  14.294  12.168
11661W        W78202  31.576  10.744  13.815
11662W        W78203  28.967  39.314  13.068
11663W        W78204  24.665  25.944  11.245
11664W        W78205  17.051  23.083  10.571
11665W        W78206  35.127  14.201  10.635
11666W        W78207  16.393  33.388   9.999
11667W        W78208  18.413   9.074  13.752
11668W        W78209  41.454   0.682   1.963
11669W        W78210  29.095  24.021   2.248
11670W        W78211   6.682  23.543   1.773
11671W        W78212  42.055  37.919  13.463
11672W        W78213   4.641  35.102  12.665
11673W        W78214  27.757  28.880   2.431
11674W        W78215  41.007  12.432   1.867
11675W        W78216  43.863  36.908  13.518
11676W        W78217  42.404  44.529   2.799
11677W        W78218  43.014  43.413  11.051
11678W        W78219  18.507  43.150  14.906
11679W        W78220  16.727  12.091  12.173
11680W        W78221  37.448  27.929  12.810
11681W        W78222  33.703  20.859  10.742
11682W        W78223   5.363   9.255   4.505
11683W        W78224   3.190  27.633   2.207
11684W        W78225  28.262  22.671  11.487
11685W        W78226  14.636   5.118  13.988
11686W        W78227  20.135  15.420  13.052
11687W        W78228   1.950  26.215   1.644
11688W        W78229  28.654  29.867   2.363
11689W        W78230  31.152  15.113  11.590
11690W        W78231  16.509  19.613  11.132
11691W        W78232   1.857  27.709  14.960
11692W        W78233   3.789  41.524   1.481
11693W        W78234  16.807  18.090   2.673
11694W        W78235  30.427  18.149   4.583
11695W        W78236  14.247   4.376   1.337
11696W        W78237  23.257  23.462  13.952
11697W        W78238  11.560  40.705  10.595
11698W        W78239  28.532  24.879  12.346
11699W        W78240  17.834   2.377  14.617
11700W        W78241   4.693  30.459   3.612
11701W        W78242   2.739  14.062  14.389
11702W        W78243  29.992   0.005  10.490
11703W        W78244  16.241  38.729  11.212
11704W        W78245  26.421  38.167  11.633
11705W        W78246  10.399  14.849   4.093
11706W        W78247   2.717  41.096   0.817
11707W        W78248  18.909  20.102   3.932
11708W        W78249   4.961  16.548   2.285
11709W        W78250  26.712  37.958   4.024
11710W        W78251  17.297  43.395  13.900
11711W        W78252  27.447  36.738   3.769
11712W        W78253   5.287  15.710  11.133
11713W        W78254  29.494  29.642  13.373
11714W        W78255  15.275  14.382  13.029
11715W        W78256  14.830  44.766   1.695
11716W        W78257   7.506  24.262   4.035
11717W        W78258  40.402  20.167   1.699
11718W        W78259  12.865   5.791   4.068
11719W        W78260  42.615  36.056  11.492
11720W        W78261  31.398  19.761  12.149
11721W        W78262  22.032  12.438   2.382
11722W        W78263  25.683  26.550   1.440
11723W        W78264   3.710   2.760  13.580
11724W        W78265  33.244  44.921  14.004
11725W        W78266  34.604  18.725   2.396
11726W        W78267  31.555  25.648   3.131
11727W        W78268  28.998  11.068   3.315
11728W        W78269  39.211  40.382   4.700
11729W        W78270  40.522   1.278   1.636
11730W        W78271  13.340   4.730  13.949
11731W        W78272  37.254  16.796   0.316
11732W        W78273  19.502   4.840  12.976
11733W        W78274  19.519   8.353   0.367
11734W        W78275  37.944   8.791  12.089
11735W        W78276  40.598  32.144  11.165
11736W        W78277  13.498  38.452  10.843
11737W        W78278  29.861   1.858  11.109
11738W        W78279  21.085  14.389   1.870
11739W        W78280  20.010  13.198  12.632
11740W        W78281  40.937  31.815  11.512
11741W        W78282  30.616  32.646  13.345
11742W        W78283  24.312   9.175   4.450
11743W        W78284  16.189  15.784  10.695
11744W        W78285  36.344  29.582  12.091
11745W        W78286   0.169  11.256   4.552
11746W        W78287  34.897  38.485  13.430
11747W        W78288   7.805   1.251   9.763
11748W        W78289  20.390  42.821   2.321
11749W        W78290  13.475  22.739   1.942
11750W        W78291   5.486  43.395  13.764
11751W        W78292   6.687  13.342  10.736
11752W        W78293  44.692   3.045  14.728
11753W        W78294  21.243  43.769  14.421
11754W        W78295  32.524  12.147  10.145
11755W        W78296  24.590  32.738   4.091
11756W        W78297  17.082  37.794   2.207
11757W        W78298  37.494  37.231  11.028
11758W        W78299   1.888  22.409  13.067
11759W        W78300  33.378  12.512   5.015
11760W        W78301   3.760  36.607   5.060
11761W        W78302  28.411   5.503  14.427
11762W        W78303  25.023  38.558   0.218
11763W        W78304  34.698  35.599   2.242
11764W        W78305   6.110  33.410   1.944
11765W        W78306  29.565  11.534  10.319
11766W        W78307   6.235  34.664  12.864
11767W        W78308  34.811  14.360   2.231
11768W        W78309   1.956  27.103   4.531
11769W        W78310  43.280   6.841  10.842
11770W        W78311  16.948  42.535   1.508
11771W        W78312   9.150  27.641  12.368
11772W        W78313  18.691  19.694  14.008
11773W        W78314  10.968  32.811  13.477
11774W        W78315  30.812  11.151  11.506
11775W        W78316  22.195  11.656   4.694
11776W        W78317  30.491  17.214   3.649
11777W        W78318  11.901  13.841   1.679
11778W        W78319  37.455  13.439   5.066
11779W        W78320  10.250  24.225  13.000
11780W        W78321  27.124  14.716   5.548
11781W        W78322  23.107  11.382   4.245
11782W        W78323  30.041  17.665   4.673
11783W        W78324   9.707  36.271  13.886
11784W        W78325  28.000  25.849  12.926
11785W        W78326   8.300  15.185  13.065
11786W        W78327  11.726  24.970  13.062
11787W        W78328  17.487  22.176  13.038
11788W        W78329  31.529  35.478  13.042
11789W        W78330  35.253  16.303  11.621
11790W        W78331  32.395   3.939  11.522
11791W        W78332  39.330   4.947  10.980
11792W        W78333  36.014  19.257   1.854
11793W        W78334  26.056  21.220   3.638
11794W        W78335   8.679  38.974   2.757
11795W        W78336  26.973   3.699  12.547
11796W        W78337  12.347   8.079  12.981
11797W        W78338  30.078  31.417   3.740
11798W        W78339  24.336  37.050  11.689
11799W        W78340  26.490  19.235  14.267
11800W        W78341  29.649  27.125   1.514
11801W        W78342  24.660  28.145   1.302
11802W        W78343  43.514  41.736  13.625
11803W        W78344  11.795  21.892   4.232
11804W        W78345  38.785  24.113   4.771
11805W        W78346  34.048  40.820   2.438
11806W        W78347  12.748   5.331  14.491
11807W        W78348  30.578  40.985  11.865
11808W        W78349  25.482  21.316  14.710
11809W        W78350  36.150  12.462  13.974
11810W        W78351  30.077  42.657   3.740
11811W        W78352  37.971  31.379   0.429
11812W        W78353  28.963   5.565  14.774
11813W        W78354   2.277  26.486   2.349
11814W        W78355  38.859  24.754  12.094
11815W        W78356  28.493  13.270   0.491
11816W        W78357  36.068  13.415   3.053
11817W        W78358  12.911  20.471   3.250
11818W        W78359   4.790  15.789  14.271
11819W        W78360  20.880  44.453   1.823
11820W        W78361  44.487  36.087  13.419
11821W        W78362  40.958  25.642  10.623
11822W        W78363  35.632   7.226  13.101
11823W        W78364  13.667   9.780   0.730
11824W        W78365  31.335  11.596   0.683
11825W        W78366  23.249  21.815   4.338
11826W        W78367  23.650  11.311  14.622
11827W        W78368  14.866   9.551   0.540
11828W        W78369  44.717   0.738   1.874
11829W        W78370  34.848   8.569  11.216
11830W        W78371  19.330  22.766   4.500
11831W        W78372  23.672   8.311   5.419
11832W        W78373  40.981  41.559   0.756
11833W        W78374  11.664  28.629   0.802
11834W        W78375  37.966   3.935   4.762
11835W        W78376  28.193   2.679   3.225
11836W        W78377  26.006   6.159   2.272
11837W        W78378   8.804  39.864   1.811
11838W        W78379  21.595   5.627   2.274
11839W        W78380  43.039  20.117  10.748
11840W        W78381  15.546  43.367  13.506
11841W        W78382  10.753  10.013  12.902
11842W        W78383  36.376  38.373  13.244
11843W        W78384  14.619  20.007   0.189
11844W        W78385  36.628  26.033  11.567
11845W        W78386  32.709  35.699  13.514
11846W        W78387  30.122  25.249   3.602
11847W        W78388  24.733  20.626   3.651
11848W        W78389  18.048   2.932   3.131
11849W        W78390  24.112  34.877   3.743
11850W        W78391  23.015  16.284  12.744
11851W        W78392  28.407  35.294  13.034
11852W        W78393   8.381  38.487   2.834
11853W        W78394  11.648   1.850  10.651
11854W        W78395  42.590  25.696   3.882
11855W        W78396  24.535  20.876   1.688
11856W        W78397  13.071  18.019   1.235
11857W        W78398  16.826  16.438  13.990
11858W        W78399  24.247   7.672   2.738
11859W        W78400   7.356  11.210  12.013
11860W        W78401  18.707  29.064   1.022
11861W        W78402  11.119  20.451  12.062
11862W        W78403  10.694  39.293  13.417
11863W        W78404  24.954  39.804  14.871
11864W        W78405  20.994  33.907   3.665
11865W        W78406  10.096  21.161  13.964
11866W        W78407  16.643  28.947   0.871
11867W        W78408  17.889  40.796   0.818
11868W        W78409   3.419  40.566   0.681
11869W        W78410  11.388  16.069   1.505
11870W        W78411  40.033  42.913  11.916
11871W        W78412  19.260  20.631  11.173
11872W        W78413   2.833  28.558  11.509
11873W        W78414  17.827  24.329  11.989
11874W        W78415  16.388  30.184  13.623
11875W        W78416  15.198  15.791   0.768
11876W        W78417   3.195  15.242  12.905
11877W        W78418  23.735  43.883  10.705
11878W        W78419  42.710  40.727   2.315
11879W        W78420  11.197  15.614   1.647
11880W        W78421  29.157  34.632  11.104
11881W        W78422  10.868  17.837  14.119
11882W        W78423  25.028  31.932   1.787
11883W        W78424  34.958  36.949  14.281
11884W        W78425  15.525   5.515   1.882
11885W        W78426  36.003  24.318  10.735
11886W        W78427  19.688  22.293   4.214
11887W        W78428  11.302   1.258  11.434
11888W        W78429  32.225  27.732   1.616
11889W        W78430  24.658  25.594   3.691
11890W        W78431   9.948  19.253   1.334
11891W        W78432  19.517  32.517   1.117
11892W        W78433  43.952  14.100  14.336
11893W        W78434  27.888   5.712   4.540
11894W        W78435  37.553   9.670   0.929
11895W        W78436   9.076  10.125   1.769
11896W        W78437   8.309  31.051  11.616
11897W        W78438  40.138  22.843  11.787
11898W        W78439   0.400  30.801   9.834
11899W        W78440  42.903  13.109   0.233
11900W        W78441   4.960  10.187   3.129
11901W        W78442  16.252  14.823  10.831
11902W        W78443  36.859  21.020   0.328
11903W        W78444  43.955  36.859   2.248
11904W        W78445   0.780   0.135  14.000
11905W        W78446  11.194  43.837  13.497
11906W        W78447   1.900  37.885   3.261
11907W        W78448  43.311  37.545   0.165
11908W        W78449  44.565   0.266  10.433
11909W        W78450  43.436  30.849  12.837
11910W        W78451  34.812  32.849  14.815
11911W        W78452  27.449  19.752   0.843
11912W        W78453  29.093  17.420   0.821
11913W        W78454  44.251  41.071   1.432
11914W        W78455  28.575  31.263   4.631
11915W        W78456   0.288  25.665  13.424
11916W        W78457   9.872  18.308  12.441
11917W        W78458  20.542  42.222   5.002
11918W        W78459  13.402  42.319  12.489
11919W        W78460  32.544  44.579  12.663
11920W        W78461   5.879  32.152  14.321
11921W        W78462   9.050  42.845  12.873
11922W        W78463  37.299  35.826  13.689
11923W        W78464  37.676  15.531  11.857
11924W        W78465  11.553   7.431  11.164
11925W        W78466  15.027  13.228  11.775
11926W        W78467  19.037  40.666  13.444
11927W        W78468   1.300   7.377  12.118
11928W        W78469  24.954  33.897   4.853
11929W        W78470  43.190  20.580   4.935
11930W        W78471  20.223  20.154  13.986
11931W        W78472   7.728  29.617   1.808
11932W        W78473  20.662   8.788  11.451
11933W        W78474  26.534  35.567   1.989
11934W        W78475   2.755  40.128  11.093
11935W        W78476  24.136   6.624   0.418
11936W        W78477  36.644  31.603  12.565
11937W        W78478  42.435  16.287   0.315
11938W        W78479   5.767  11.469   2.218
11939W        W78480  28.036  36.911   4.356
11940W        W78481  44.935   0.515  12.886
11941W        W78482   2.837   7.457   3.796
11942W        W78483   2.147  25.065  11.180
11943W        W78484  31.494  40.263  12.869
11944W        W78485  41.504   6.953  12.885
11945W        W78486  26.525   5.898   0.965
11946W        W78487   6.707   9.376  12.175
11947W        W78488   0.370  14.063   1.474
11948W        W78489  16.800  15.320  13.025
11949W        W78490   1.739   3.213   0.992
11950W        W78491   2.700  20.667  11.288
11951W        W78492  15.072   7.243  14.268
11952W        W78493  15.211   2.667   1.671
11953W        W78494  34.926   1.338  12.470
11954W        W78495  44.405  21.223  14.378
11955W        W78496  21.367  27.761  13.768
11956W        W78497  42.197   4.824   4.099
11957W        W78498  41.824  40.852   1.136
11958W        W78499  44.202  30.453   3.622
11959W        W78500  33.609  44.343   0.454
11960W        W78501  23.259  18.696  11.572
11961W        W78502  11.605   2.692   0.450
11962W        W78503  37.519  18.298  11.553
11963W        W78504  22.719  26.181  12.118
11964W        W78505  20.819  13.256  13.084
11965W        W78506  33.019  30.306   4.122
11966W        W78507   4.668  11.852  11.453
11967W        W78508  33.953  12.292  11.086
11968W        W78509  11.270  39.370   3.191
11969W        W78510   9.692  28.990  13.762
11970W        W78511  31.385  13.056   2.807
11971W        W78512   6.415  28.569  12.914
11972W        W78513  14.222  11.156  13.057
11973W        W78514  37.491  43.530   3.626
11974W        W78515  44.985   3.977  13.785
11975W        W78516  42.921  25.181  13.509
11976W        W78517  18.151  29.433  11.228
11977W        W78518  32.478  12.534   3.797
11978W        W78519  29.149  28.694  11.988
11979W        W78520  35.681  22.721   1.105
11980W        W78521  27.096  20.997   3.646
11981W        W78522  16.312  22.563  11.468
11982W        W78523  25.247   7.359  14.816
11983W        W78524  37.977  20.684   3.771
11984W        W78525  38.022  26.959  14.401
11985W        W78526   9.192  11.842  11.315
11986W        W78527  10.160  27.504   0.701
11987W        W78528  27.183  39.710  12.610
11988W        W78529  37.162  38.735   4.222
11989W        W78530  11.078  23.050  11.439
11990W        W78531   5.280  22.478  12.451
11991W        W78532  39.267  30.828   2.700
11992W        W78533  37.655   3.637   5.097
11993W        W78534  40.462  27.441   0.237
11994W        W78535  20.712  16.734  14.729
11995W        W78536  22.718  23.434   3.768
11996W        W78537  22.754   8.407   2.479
11997W        W78538   0.242  15.393   1.717
11998W        W78539  24.100  24.402  10.652
11999W        W78540  28.041   4.862   2.498
12000W        W78541   4.236  24.175   1.957
12001W        W78542  32.319  42.533   2.459
12002W        W78543   1.057  21.548   0.052
12003W        W78544  44.487  40.543  13.877
12004W        W78545  12.441   2.657   5.035
12005W        W78546  25.010  40.468   3.593
12006W        W78547  37.634  31.631  10.548
12007W        W78548   8.162   0.382   4.626
12008W        W78549  23.272  13.199  13.129
12009W        W78550   7.283  11.803   4.144
12010W        W78551  42.303  21.123   3.193
12011W        W78552  35.615   9.332  14.958
12012W        W78553  14.436  16.693  11.191
12013W        W78554   2.729  42.385   4.419
12014W        W78555  39.918   2.933   4.841
12015W        W78556   0.090  33.516  14.647
12016W        W78557  20.390  43.306   0.744
12017W        W78558  35.915   1.236  14.310
12018W        W78559  10.300  29.534  13.156
12019W        W78560   5.802  30.048   2.894
12020W        W78561   6.764  41.846  14.502
12021W        W78562  18.732  41.495  13.765
12022W        W78563  38.103  19.337  13.822
12023W        W78564  42.043  23.788   3.725
12024W        W78565  23.054   8.883  14.383
12025W        W78566  42.040  17.817  11.595
12026W        W78567  33.391   7.333   2.724
12027W        W78568  44.395  38.160  13.362
12028W        W78569   0.222  33.035   0.068
12029W        W78570  40.253   9.490   0.812
12030W        W78571   1.541  23.102   1.740
12031W        W78572  31.070  36.637  13.501
12032W        W78573  38.395  31.973  11.470
12033W        W78574  38.486  19.496   1.899
12034W        W78575   3.220  35.646   3.739
12035W        W78576  18.088  22.427   3.741
12036W        W78577  16.774  21.139   4.244
12037W        W78578  29.047  43.385   1.264
12038W        W78579  38.019   1.806  10.659
12039W        W78580  26.601  17.568  11.863
12040W        W78581  23.762  25.197  14.969
12041W        W78582  25.978  38.916   0.951
12042W        W78583   7.622   0.473  14.311
12043W        W78584  39.428   0.380  14.989
12044W        W78585  13.755  27.615  14.557
12045W        W78586   2.780  24.506  13.239
12046W        W78587  29.456  31.845  12.282
12047W        W78588   4.160  29.545   3.724
12048W        W78589  25.312  41.094  12.501
12049W        W78590  29.854  29.408   2.195
12050W        W78591   4.690  36.444   3.160
12051W        W78592  41.372  38.933   4.439
12052W        W78593  37.837  42.206  14.812
12053W        W78594   1.797  42.302  12.847
12054W        W78595  38.866  24.976  11.496
12055W        W78596  14.985  43.250   1.947
12056W        W78597  24.541  22.794  11.495
12057W        W78598  24.666  44.798   3.272
12058W        W78599  25.068  36.983   0.327
12059W        W78600  24.812   5.880   4.100
12060W        W78601  25.470  22.651  13.021
12061W        W78602   4.317   8.473  13.764
12062W        W78603  27.733  30.045  14.270
12063W        W78604  28.407  42.735   0.347
12064W        W78605  33.826  40.084  13.848
12065W        W78606   3.272   3.780  12.602
12066W        W78607  44.795  15.556  13.455
12067W        W78608  36.941  19.711  14.841
12068W        W78609  13.804   7.329  13.542
12069W        W78610  10.473  18.410   3.998
12070W        W78611  34.145  27.045   3.928
12071W        W78612  29.714  17.873  14.491
12072W        W78613   2.433  19.832  14.538
12073W        W78614  42.539   1.335  14.184
12074W        W78615  11.566  44.699   0.429
12075W        W78616  33.271  18.263   4.404
12076W        W78617  26.706  31.005   0.876
12077W        W78618   1.618  43.268   4.305
12078W        W78619  41.400   3.925   2.456
12079W        W78620   2.969   9.844  12.014
12080W        W78621  33.453  15.668   1.828
12081W        W78622  27.518  41.294  11.019
12082W        W78623   6.481  43.967  12.012
12083W        W78624  20.159   1.452   2.793
12084W        W78625  26.651  37.920  13.835
12085W        W78626  31.596  26.283  14.154
12086W        W78627  16.493   9.699   3.690
12087W        W78628  39.491  20.743   3.713
12088W        W78629   8.331  44.951  13.955
12089W        W78630  40.345  41.244   9.935
12090W        W78631  28.658  35.716  12.517
12091W        W78632   5.940  23.287   3.545
12092W        W78633  32.979  40.232  12.079
12093W        W78634  44.538  12.619   9.913
12094W        W78635  44.753   6.386   3.084
12095W        W78636  18.008  42.528   1.418
12096W        W78637  20.232  36.755   4.499
12097W        W78638  35.613  14.853  13.557
12098W        W78639  18.126   9.160   0.861
12099W        W78640  19.002   6.642   2.264
12100W        W78641  38.291  33.547  14.914
12101W        W78642  42.420  29.969  12.372
12102W        W78643  23.712  31.904   3.523
12103W        W78644  28.171  38.860  13.287
12104W        W78645  34.488  15.576   4.400
12105W        W78646  30.219  38.726  12.026
12106W        W78647  14.064  37.994  12.942
12107W        W78648  24.298   8.703  14.439
12108W        W78649   6.630  43.046   2.721
12109W        W78650  22.696  35.306   1.393
12110W        W78651  11.409  32.042   4.692
12111W        W78652  44.413   9.913   1.212
12112W        W78653  14.496   4.181  13.893
12113W        W78654   4.222  20.085   3.327
12114W        W78655  37.712  14.282   4.553
12115W        W78656  18.025  20.568   0.846
12116W        W78657  16.128  26.290   0.563
12117W        W78658  35.917  43.833  12.065
12118W        W78659   8.755   7.719   3.178
12119W        W78660  41.105  37.053  13.131
12120W        W78661  31.474  44.822   4.026
12121W        W78662  41.792  26.539  10.180
12122W        W78663   2.108  21.206   0.728
12123W        W78664  21.207  27.984   4.550
12124W        W78665  15.711   7.019  11.961
12125W        W78666  39.407   5.458  10.639
12126W        W78667  33.923   9.939  13.529
12127W        W78668  36.776  32.379  12.017
12128W        W78669   3.432  25.761  14.447
12129W        W78670   4.901  17.303  11.652
12130W        W78671  32.477  19.025   1.296
12131W        W78672  33.548  37.637   2.276
12132W        W78673  21.451  40.934  10.727
12133W        W78674  22.483  38.562   4.443
12134W        W78675  43.375  14.265   1.419
12135W        W78676  39.111  11.931  13.897
12136W        W78677  17.129  17.173   2.148
12137W        W78678  44.108  40.990   4.745
12138W        W78679  19.630  36.177   2.491
12139W        W78680  13.836  21.515   0.842
12140W        W78681  42.990   0.621   3.579
12141W        W78682  15.702  11.635  14.061
12142W        W78683  31.642  15.834  14.389
12143W        W78684  29.145   2.526  11.953
12144W        W78685   9.122  40.338  14.418
12145W        W78686  30.932   2.235  12.391
12146W        W78687  39.007   4.551   4.826
12147W        W78688   6.125  28.418  13.352
12148W        W78689  28.507   4.726   0.698
12149W        W78690  41.046   1.685  12.139
12150W        W78691  14.143  16.813   3.197
12151W        W78692   8.210  23.210  14.817
12152W        W78693  39.410  19.017  10.658
12153W        W78694  27.909  32.030  13.878
12154W        W78695  25.206  42.851   1.813
12155W        W78696  39.067  30.029   3.363
12156W        W78697   5.236   6.440  12.830
12157W        W78698  16.752  15.901  14.042
12158W        W78699   1.368  22.676  10.603
12159W        W78700  35.439   7.642   4.591
12160W        W78701  44.373  40.369   1.921
12161W        W78702  38.343   4.356  14.563
12162W        W78703   3.221  10.254   0.188
12163W        W78704  16.777  34.728  11.585
12164W        W78705  22.048  10.238   1.631
12165W        W78706   4.835  42.355  10.951
12166W        W78707  26.029  25.029  13.370
12167W        W78708  22.414  42.432   1.845
12168W        W78709  31.461  20.587   4.397
12169W        W78710  12.012   9.699  11.103
12170W        W78711  17.116  29.502   2.881
12171W        W78712   4.250  23.200   1.852
12172W        W78713   8.486  21.623  12.078
12173W        W78714   5.969  27.702  14.952
12174W        W78715  23.146   9.066   5.002
12175W        W78716   8.239  31.499  11.865
12176W        W78717  34.880  44.961  12.397
12177W        W78718  18.231  24.176  12.845
12178W        W78719   8.544  19.070  14.726
12179W        W78720  39.692  24.596   2.701
12180W        W78721  31.776  14.434   0.409
12181W        W78722   9.742  29.390   0.042
12182W        W78723  29.483   4.257   3.719
12183W        W78724  21.638  10.638  13.290
12184W        W78725  28.433  35.913   2.362
12185W        W78726  37.693  16.026   1.833
12186W        W78727  33.522  17.160   3.647
12187W        W78728  33.979  20.371   3.178
12188W        W78729  10.694  43.808   0.294
12189W        W78730  17.500  31.790  10.004
12190W        W78731  37.172  30.735  12.841
12191W        W78732  24.733  30.885   4.154
12192W        W78733  32.436  22.729  10.695
12193W        W78734  20.095   3.159   2.372
12194W        W78735  42.341  19.631   1.390
12195W        W78736  27.184  37.447   2.230
12196W        W78737  41.950  29.019   1.250
12197W        W78738  16.040  29.265   1.229
12198W        W78739  12.566  31.902   0.364
12199W        W78740  37.877  26.434   4.261
12200W        W78741  14.670  34.080  14.454
12201W        W78742  23.529  39.352  12.091
12202W        W78743  17.435   7.907   0.219
12203W        W78744  28.530   2.096   2.765
12204W        W78745  24.096  42.837  13.084
12205W        W78746  22.786  22.109   4.422
12206W        W78747  41.348  24.576  12.908
12207W        W78748  32.171  40.387   3.241
12208W        W78749  27.004  17.580  11.240
12209W        W78750   9.061  23.234  11.101
12210W        W78751  34.035  35.126  12.376
12211W        W78752  25.643  10.830  13.454
12212W        W78753  21.884  44.807  12.621
12213W        W78754  37.998  14.228  11.456
12214W        W78755   6.376   6.973   4.584
12215W        W78756  29.037  40.512  13.532
12216W        W78757   6.454  37.500   1.360
12217W        W78758  32.173  43.853   2.343
12218W        W78759  24.345   7.686   4.109
12219W        W78760  13.729   9.901   4.649
12220W        W78761   3.794  16.885  11.737
12221W        W78762  24.240  17.366   3.142
12222W        W78763  42.044  34.321   4.524
12223W        W78764  38.131  11.133  12.872
12224W        W78765  38.086  29.183   2.449
12225W        W78766  15.615   2.898   0.769
12226W        W78767   8.786  36.822  12.903
12227W        W78768   5.788   6.222   3.047
12228W        W78769  28.982  21.604  14.590
12229W        W78770  15.837  28.041   2.190
12230W        W78771   1.223  23.381  10.066
12231W        W78772  28.950   0.275   1.801
12232W        W78773  41.761  32.574  10.752
12233W        W78774  32.643  32.065   1.430
12234W        W78775  13.397  15.146   1.398
12235W        W78776   9.095  44.702   2.840
12236W        W78777  15.705  21.638  10.726
12237W        W78778  19.651  43.041  12.032
12238W        W78779  43.438   0.509   0.178
12239W        W78780  30.023  11.481  14.381
12240W        W78781   3.999  31.483   9.912
12241W        W78782  23.681  37.269  11.148
12242W        W78783  41.021  13.935   3.201
12243W        W78784  22.259  33.898  13.770
12244W        W78785  37.255  11.625  14.781
12245W        W78786  36.438   6.704  11.953
12246W        W78787  28.047  11.182   4.530
12247W        W78788  38.566   8.679  12.905
12248W        W78789  24.405   9.286   1.498
12249W        W78790   0.975   2.381   1.321
12250W        W78791   6.249  17.535  13.000
12251W        W78792  42.793  16.894  13.501
12252W        W78793  43.506  38.288   4.204
12253W        W78794  36.774  20.051  13.443
12254W        W78795  31.732  42.876   1.838
12255W        W78796  39.099  20.542   1.813
12256W        W78797  32.589  36.827  14.928
12257W        W78798  28.395  43.417  14.816
12258W        W78799   8.006  33.945   4.471
12259W        W78800  40.305   3.223   2.818
12260W        W78801   4.017  34.386  11.939
12261W        W78802  25.944  30.919   2.978
12262W        W78803  33.685  31.967   1.048
12263W        W78804   8.099  31.401  12.360
12264W        W78805  33.942   7.156   1.843
12265W        W78806  27.374   1.883  13.965
12266W        W78807  17.680  35.114   4.012
12267W        W78808  14.792   0.707  10.614
12268W        W78809   0.471   7.931   2.303
12269W        W78810  36.091  36.069   0.721
12270W        W78811  37.208  31.921  11.188
12271W        W78812  12.159  33.681   2.263
12272W        W78813   3.653   6.304   4.210
12273W        W78814  29.977  42.660  13.924
12274W        W78815   8.994  37.934   4.604
12275W        W78816  12.308  42.420   4.677
12276W        W78817  26.701  17.849  14.440
12277W        W78818   4.968  21.752   0.114
12278W        W78819  23.080  30.671   3.711
12279W        W78820  18.650  13.123   4.877
12280W        W78821  40.347  12.917  11.171
12281W        W78822  33.788  41.213   0.318
12282W        W78823  13.373   6.501   0.472
12283W        W78824   9.379  23.555  13.054
12284W        W78825  13.382   0.241   2.589
12285W        W78826  43.671   9.772  14.481
12286W        W78827  24.994  41.380  13.445
12287W        W78828  17.399  14.517   2.788
12288W        W78829  40.845  44.459   5.035
12289W        W78830  14.373   3.695  13.722
12290W        W78831  13.782  37.191  13.483
12291W        W78832  12.934  32.519   0.716
12292W        W78833  19.725  38.349  12.546
12293W        W78834  36.125  38.714  13.590
12294W        W78835  26.459   3.268   2.380
12295W        W78836  36.040  14.100  11.605
12296W        W78837  30.422  21.070   1.262
12297W        W78838  31.654  43.377   1.668
12298W        W78839  40.321  44.524  13.928
12299W        W78840  18.722  21.705   4.081
12300W        W78841  39.662  44.177  11.618
12301W        W78842  34.408  30.760  14.007
12302W        W78843  31.506  17.521  14.070
12303W        W78844  44.740  28.441   4.453
12304W        W78845  16.303  15.318  12.843
12305W        W78846   5.800   0.228  11.939
12306W        W78847  39.114   0.406  14.551
12307W        W78848  44.174  39.617   2.439
12308W        W78849  11.886  28.982   1.700
12309W        W78850  41.477  19.752  12.017
12310W        W78851  44.825  25.727   3.182
12311W        W78852  41.972  25.645  11.528
12312W        W78853  33.439   2.386  12.662
12313W        W78854  11.720  37.978   0.993
12314W        W78855  41.437  33.913  14.869
12315W        W78856  30.126  16.543   5.006
12316W        W78857  31.372  26.209  11.182
12317W        W78858  17.558   3.409  13.464
12318W        W78859   8.961   6.885  14.457
12319W        W78860  31.892  41.065   3.333
12320W        W78861  28.476   4.820  10.391
12321W        W78862  40.002  16.660   4.170
12322W        W78863  13.492   4.405   2.358
12323W        W78864  11.385  40.188  14.061
12324W        W78865  36.619  11.850  13.464
12325W        W78866  14.644  18.348  13.531
12326W        W78867  12.525  32.003  11.196
12327W        W78868  37.119  39.896   3.226
12328W        W78869  29.197  44.315   1.735
12329W        W78870  35.091  31.596  13.016
12330W        W78871  35.243  14.696  14.012
12331W        W78872  23.246  36.436   0.346
12332W        W78873  37.767  15.632   0.111
12333W        W78874  22.347   0.846  13.193
12334W        W78875  26.253  35.506  12.886
12335W        W78876  40.386  15.092   0.710
12336W        W78877   4.761  38.298  12.416
12337W        W78878  14.221  40.375   1.725
12338W        W78879  27.018  23.445  12.332
12339W        W78880  24.692  34.627   2.173
12340W        W78881  10.384  42.034  14.564
12341W        W78882  34.615  15.473   0.026
12342W        W78883  31.807  22.285  12.942
12343W        W78884  41.958   1.714   1.292
12344W        W78885  39.542  19.695  14.350
12345W        W78886  38.392  34.004   0.167
12346W        W78887   8.172  42.768  13.081
12347W        W78888   1.975  40.537   3.708
12348W        W78889  31.155  36.598   0.345
12349W        W78890  42.987  35.283   1.235
12350W        W78891  31.966   1.268  10.763
12351W        W78892  35.742  22.661  14.106
12352W        W78893  28.560  33.057  11.547
12353W        W78894  43.026  38.430  14.015
12354W        W78895  11.802  23.172  14.009
12355W        W78896   6.824  43.857  11.609
12356W        W78897  35.155  22.768   1.196
12357W        W78898  40.530  12.141  10.726
12358W        W78899  11.990  44.844  12.441
12359W        W78900  27.005  34.986  11.324
12360W        W78901   8.916  22.924   3.801
12361W        W78902  20.404  43.468   1.703
12362W        W78903  35.437  11.167   4.727
12363W        W78904  19.211   7.345  13.480
12364W        W78905   8.292  20.621  14.533
12365W        W78906  44.968  29.094   0.126
12366W        W78907   0.974  34.358   3.818
12367W        W78908   0.957  37.571  12.386
12368W        W78909  38.652  18.482  12.439
12369W        W78910   2.407  11.893  11.034
12370W        W78911  36.039   8.409  11.852
12371W        W78912  32.904  43.804   1.706
12372W        W78913   8.168   7.365   3.707
12373W        W78914  15.077  24.158   0.370
12374W        W78915   3.186  30.531   3.700
12375W        W78916  20.257  28.956  11.621
12376W        W78917   5.384   0.571  10.773
12377W        W78918  40.546  12.846   0.369
12378W        W78919  40.986   6.431   3.847
12379W        W78920  35.571  37.278  10.384
12380W        W78921  13.088   3.327  12.575
12381W        W78922  20.607   9.327   4.212
12382W        W78923  13.175  39.583   4.133
12383W        W78924  14.703   0.261   4.526
12384W        W78925  37.519  22.455   3.721
12385W        W78926  23.279  20.508   0.946
12386W        W78927   7.020  31.394  14.833
12387W        W78928  38.529   1.407   2.408
12388W        W78929  38.897  35.934  11.679
12389W        W78930  23.518   7.929   2.233
12390W        W78931  23.018  41.319  11.565
12391W        W78932  10.746  17.016   1.914
12392W        W78933  40.799   6.140  13.333
12393W        W78934  28.477  15.232  13.583
12394W        W78935  12.232  10.411   2.190
12395W        W78936  28.888  16.564   1.758
12396W        W78937  34.189  25.620   2.379
12397W        W78938   6.135  23.689   3.258
12398W        W78939  44.711  24.038  14.176
12399W        W78940   3.196  35.928   2.759
12400W        W78941  16.966   8.256  14.323
12401W        W78942  18.807  12.999   5.353
12402W        W78943  21.114  35.084   2.568
12403W        W78944  40.251  24.150  14.522
12404W        W78945  13.709  36.797   3.604
12405W        W78946  30.873  16.670  11.147
12406W        W78947   2.353  40.413   3.092
12407W        W78948   3.989   4.523   9.880
12408W        W78949  12.304   5.470   4.215
12409W        W78950   2.290  25.205  13.846
12410W        W78951   4.274   9.423  14.181
12411W        W78952  29.017  22.506   2.203
12412W        W78953   4.671  21.125   2.791
12413W        W78954  38.773  16.199  14.213
12414W        W78955  28.401  36.497   3.050
12415W        W78956  33.831  18.207  14.006
12416W        W78957  24.674   9.869  11.657
12417W        W78958  26.389  30.694   0.562
12418W        W78959  30.209  39.420  14.448
12419W        W78960  32.535   7.437  13.666
12420W        W78961  12.729   9.366   3.932
12421W        W78962  13.254  30.994   3.443
12422W        W78963   6.470  37.841   2.124
12423W        W78964   0.686   3.402  13.972
12424W        W78965  24.881  17.550   4.497
12425W        W78966  26.256   7.878  13.950
12426W        W78967  12.623  23.029   2.741
12427W        W78968  27.155  14.354   3.565
12428W        W78969  21.703  21.085   2.094
12429W        W78970  31.164  28.926  13.938
12430W        W78971  40.756   2.730   0.783
12431W        W78972  32.491  22.776  14.875
12432W        W78973  38.331   3.764   3.810
12433W        W78974  14.815  23.705   0.377
12434W        W78975  12.695  34.325   2.130
12435W        W78976  25.738  34.051   2.775
12436W        W78977  12.541  19.144   3.727
12437W        W78978  30.077   1.829   2.810
12438W        W78979  18.262  33.034  13.365
12439W        W78980  24.872  19.051  10.733
12440W        W78981  41.544  41.816   3.900
12441W        W78982  21.283  21.095   3.630
12442W        W78983  28.983  19.020   4.701
12443W        W78984  18.332  35.854  10.459
12444W        W78985  39.724  44.460   0.681
12445W        W78986  13.353  36.790  13.414
12446W        W78987   9.696  14.812  13.628
12447W        W78988  26.852  19.368   4.943
12448W        W78989  38.034  35.472  12.557
12449W        W78990  14.322  42.930  10.562
12450W        W78991  35.560  32.703   3.213
12451W        W78992  40.476  27.974  14.256
12452W        W78993   1.470  22.969  12.811
12453W        W78994  37.970  44.464   0.434
12454W        W78995   5.679   8.375  14.041
12455W        W78996   2.638  30.233  10.200
12456W        W78997  34.717   4.834   9.719
12457W        W78998  32.904  11.678   0.278
12458W        W78999   5.793  12.019   0.770
12459W        W79000  29.390  23.152   2.344
12460W        W79001   0.328  28.873  12.117
12461W        W79002   1.929   8.804   1.415
12462W        W79003   2.511   0.887  11.945
12463W        W79004   3.163  43.356   0.049
12464W        W79005  38.378   9.407  13.065
12465W        W79006  13.433  15.251   2.336
12466W        W79007  42.304  35.719  14.995
12467W        W79008   3.290  40.201  12.446
12468W        W79009  12.303  11.670  14.190
12469W        W79010  32.214   4.632  12.517
12470W        W79011  34.910   4.654  13.053
12471W        W79012  19.154  32.233  12.969
12472W        W79013  23.332   5.159   0.876
12473W        W79014  37.366   4.737   4.368
12474W        W79015  40.787   3.778  13.424
12475W        W79016  37.840   0.439  12.682
12476W        W79017   3.177  16.581   0.364
12477W        W79018  42.416   7.197  11.978
12478W        W79019   7.200  37.922  14.979
12479W        W79020   9.398  10.312  10.612
12480W        W79021  43.753  22.971  12.123
12481W        W79022  16.862  43.007   2.861
12482W        W79023   1.415  39.322   0.903
12483W        W79024  29.920  40.745   4.173
12484W        W79025  40.942   4.056   3.618
12485W        W79026   4.957  33.723  11.521
12486W        W79027  15.281  31.967  14.530
12487W        W79028  39.551  31.881  14.401
12488W        W79029  13.929  15.505   4.966
12489W        W79030   1.380  40.787   4.820
12490W        W79031   1.852  12.312  13.400
12491W        W79032  17.121   3.921   3.812
12492W        W79033  40.385   9.947  13.776
12493W        W79034  10.117  19.834   4.109
12494W        W79035  16.681  40.641   4.323
12495W        W79036   8.559  43.410  14.315
12496W        W79037  28.985  18.192  13.395
12497W        W79038  39.554  25.543  12.830
12498W        W79039  39.807  35.908   0.711
12499W        W79040   2.396  15.518   0.820
12500W        W79041  12.188  22.002  13.677
12501W        W79042  15.331  31.113  11.505
12502W        W79043  28.240  32.934  14.411
12503W        W79044  23.555  26.093   1.237
12504W        W79045  43.777   0.683   2.205
12505W        W79046  41.793  10.210   2.451
12506W        W79047  10.386  14.311  12.947
12507W        W79048  36.439   8.343   0.425
12508W        W79049   6.935  32.392   4.598
12509W        W79050  39.960  10.342  10.573
12510W        W79051   8.704   0.747   1.822
12511W        W79052  32.160  25.138   2.918
12512W        W79053  33.090  19.966   0.583
12513W        W79054  39.891  26.075   0.775
12514W        W79055  24.849  25.821  12.075
12515W        W79056  28.209  24.095   2.485
12516W        W79057  27.152  31.077   1.220
12517W        W79058  11.359   6.429  13.800
12518W        W79059  16.977  43.019  13.733
12519W        W79060  40.749  21.205   3.305
12520W        W79061  11.338  23.698   3.194
12521W        W79062  17.977  18.215   4.234
12522W        W79063   4.149  43.255   1.094
12523W        W79064  25.924  41.974   4.038
12524W        W79065  44.280  12.463   3.636
12525W        W79066   3.082  28.197   2.863
12526W        W79067  23.549  30.367  13.861
12527W        W79068  41.094   0.681   0.265
12528W        W79069  35.575   8.969  14.069
12529W        W79070  38.481  14.516   2.259
12530W        W79071   5.794  28.168   3.695
12531W        W79072  22.024  27.112  10.695
12532W        W79073   9.854  17.132   0.933
12533W        W79074  38.790  25.970   4.078
12534W        W79075  33.899   7.647  13.556
12535W        W79076  40.764   0.003  14.938
12536W        W79077  34.614  10.923   4.618
12537W        W79078  12.200  21.706  12.591
12538W        W79079   5.351  44.347  13.838
12539W        W79080  30.674   8.421   3.230
12540W        W79081  10.591   7.361   0.776
12541W        W79082  24.400  15.076  12.618
12542W        W79083  35.034  16.803   4.332
12543W        W79084   2.962  12.154   2.021
12544W        W79085  28.943  25.782  12.722
12545W        W79086  29.408  17.092  13.862
12546W        W79087  41.849   0.274   1.152
12547W        W79088  21.017  23.021   2.308
12548W        W79089  33.525  44.398   1.845
12549W        W79090  36.693   1.916   5.321
12550W        W79091  12.439   7.209  13.011
12551W        W79092  43.010  20.170   0.846
12552W        W79093   1.716  13.365  13.512
12553W        W79094  39.690  19.412   2.161
12554W        W79095  42.887  38.524   1.955
12555W        W79096   8.484  36.933   2.017
12556W        W79097  34.416  35.101   3.679
12557W        W79098  16.135  19.104  13.032
12558W        W79099  20.805  30.727   0.374
12559W        W79100  19.148  37.249  13.884
12560W        W79101  14.305   8.276  12.946
12561W        W79102   7.350  27.407   1.989
12562W        W79103   2.750  27.572  13.829
12563W        W79104  16.150  38.202  11.228
12564W        W79105  13.038  21.985  11.093
12565W        W79106   5.546  32.567   4.968
12566W        W79107  43.761  16.197   0.438
12567W        W79108  35.303   2.863  13.483
12568W        W79109  16.870  32.025  13.743
12569W        W79110  27.543   7.890   3.908
12570W        W79111  28.750  43.518   1.669
12571W        W79112   8.126  37.358   3.755
12572W        W79113  35.834  40.316   3.604
12573W        W79114  23.807  32.027   4.904
12574W        W79115  37.139  18.268   0.722
12575W        W79116  22.234  33.581   1.372
12576W        W79117  13.723  10.659   2.203
12577W        W79118  31.969  39.924  14.620
12578W        W79119  15.032  15.243   1.760
12579W        W79120  12.226  24.834  11.573
12580W        W79121   6.698  33.500  11.293
12581W        W79122  29.567  44.651   4.033
12582W        W79123  44.700   3.728  12.451
12583W        W79124  41.770  31.657   4.586
12584W        W79125  41.563   9.420  10.779
12585W        W79126  28.210   9.611   1.707
12586W        W79127  33.417   6.400  13.582
12587W        W79128  35.251   5.694   2.307
12588W        W79129  16.699   2.580   3.739
12589W        W79130  28.587  32.309  14.409
12590W        W79131  17.867   1.720   3.613
12591W        W79132  14.586  22.544  11.955
12592W        W79133  11.752  43.890  12.499
12593W        W79134  37.079  35.017   2.474
12594W        W79135  23.735  42.840   1.914
12595W        W79136  20.090  36.831  13.494
12596W        W79137  24.489  39.883  11.074
12597W        W79138  40.382  12.555   2.209
12598W        W79139  38.562  36.618  12.089
12599W        W79140   8.204  41.615   0.888
12600W        W79141  43.079  12.771  12.573
12601W        W79142  30.543  29.449  14.284
12602W        W79143   1.478  14.687  13.383
12603W        W79144  14.769  27.733   4.579
12604W        W79145  20.104  44.655   0.322
12605W        W79146  13.387  15.268   4.844
12606W        W79147  25.619  31.691   4.451
12607W        W79148  10.739   3.816   4.732
12608W        W79149  43.029  22.254   5.022
12609W        W79150  15.269  22.674  14.851
12610W        W79151  21.013  21.564  14.793
12611W        W79152   2.808   7.641   2.315
12612W        W79153  36.894  11.210  13.354
12613W        W79154  12.275  20.698  14.972
12614W        W79155  44.958   5.429  12.021
12615W        W79156  32.316  13.836   2.183
12616W        W79157  41.515  38.355  11.195
12617W        W79158  13.760   3.308   4.351
12618W        W79159  36.349  14.150   2.163
12619W        W79160  44.851  29.958   1.706
12620W        W79161  32.099  18.346   0.775
12621W        W79162  43.314  25.836  11.911
12622W        W79163   7.236  38.408   1.681
12623W        W79164  32.018  26.755   3.137
12624W        W79165  18.109  23.012  10.756
12625W        W79166  28.134  26.176  13.545
12626W        W79167  31.184  14.527   2.687
12627W        W79168  11.285  21.756   4.038
12628W        W79169  31.819  19.187   3.039
12629W        W79170  33.768   4.963  10.722
12630W        W79171  23.566  29.937   2.648
12631W        W79172   3.428   7.842  14.815
12632W        W79173   1.516  18.220   4.200
12633W        W79174  11.393  39.012  12.024
12634W        W79175  25.639  13.214  12.103
12635W        W79176  26.539  42.095  11.961
12636W        W79177   0.263   3.846   2.421
12637W        W79178  17.618  30.338   1.294
12638W        W79179  10.884  19.892  11.239
12639W        W79180  42.159  33.301  10.339
12640W        W79181  44.830  39.117   1.001
12641W        W79182   7.324  43.432  14.018
12642W        W79183  11.301  14.249  12.861
12643W        W79184  44.082  14.411   0.687
12644W        W79185  21.653   3.845  11.588
12645W        W79186  26.906   4.733   4.132
12646W        W79187  16.863  39.544  11.133
12647W        W79188  15.777  40.462   1.706
12648W        W79189   9.010  26.067  13.853
12649W        W79190  43.354  12.643   3.163
12650W        W79191  20.656  18.278   1.768
12651W        W79192   9.120  12.044   1.808
12652W        W79193  35.899  39.987  10.727
12653W        W79194  43.731  15.159  13.996
12654W        W79195  40.746  37.031   1.098
12655W        W79196   3.517  32.588   1.638
12656W        W79197  26.850  22.250  11.162
12657W        W79198  17.734  20.005  12.038
12658W        W79199  13.186  38.123  12.921
12659W        W79200   8.231  42.431  12.135
12660W        W79201  32.177  43.549   3.671
12661W        W79202  32.354  38.476  13.527
12662W        W79203  20.142   4.349  12.856
12663W        W79204   7.902  12.634  14.307
12664W        W79205  29.694  33.203  14.537
12665W        W79206  41.800  14.045  11.632
12666W        W79207   6.423  36.283   3.437
12667W        W79208  18.294   2.042  13.477
12668W        W79209  21.425  10.383  14.038
12669W        W79210  37.032  16.545   0.708
12670W        W79211  19.580  26.409   3.442
12671W        W79212  39.286  17.720  10.985
12672W        W79213  10.348  43.304  11.895
12673W        W79214  43.581  13.737  12.429
12674W        W79215  29.157  42.467   2.408
12675W        W79216  10.213  29.633   4.116
12676W        W79217   0.495  26.518  10.741
12677W        W79218  41.486  20.619   0.363
12678W        W79219  17.682  34.187   3.300
12679W        W79220   4.923   9.012   5.026
12680W        W79221   9.037   3.585  11.224
12681W        W79222   9.156   7.616   2.255
12682W        W79223   5.229  28.702  14.346
12683W        W79224   2.793   1.982  13.248
12684W        W79225  28.432  28.335   4.900
12685W        W79226   3.972   3.865   3.124
12686W        W79227  22.086  44.487   2.446
12687W        W79228  17.736   6.677   2.651
12688W        W79229  41.758  18.792  12.582
12689W        W79230   5.445  30.017   3.699
12690W        W79231  18.258  23.425  14.872
12691W        W79232  36.431  25.178  14.427
12692W        W79233  12.532  42.317   3.074
12693W        W79234  22.012  19.762   4.090
12694W        W79235  29.045  38.555  11.667
12695W        W79236  23.670  26.081   3.367
12696W        W79237   9.245   6.582  11.513
12697W        W79238   3.985   3.668  13.909
12698W        W79239   3.338  41.690  11.356
12699W        W79240  31.140   8.905  14.912
12700W        W79241  40.450  12.020   3.622
12701W        W79242  22.146   3.192  10.266
12702W        W79243  16.988   0.262   2.940
12703W        W79244   2.410  34.223  13.726
12704W        W79245  21.552  22.156   3.165
12705W        W79246   0.029  26.580  12.040
12706W        W79247  32.859  32.525  14.908
12707W        W79248   2.899  31.338   2.769
12708W        W79249  43.554  22.056  10.427
12709W        W79250  35.455   4.593  10.748
12710W        W79251  29.622  34.838   2.338
12711W        W79252  35.911  33.976  10.746
12712W        W79253   2.714  24.476  11.430
12713W        W79254  22.453  15.169   9.990
12714W        W79255  21.695  40.770   2.643
12715W        W79256  43.892  24.189  10.667
12716W        W79257  21.203  11.286   1.435
12717W        W79258  13.794  20.042  13.878
12718W        W79259  30.440  11.158   1.700
12719W        W79260  18.741  30.504   3.792
12720W        W79261   0.065  40.782  14.404
12721W        W79262  24.004  42.007  12.389
12722W        W79263  28.013   2.324  13.505
12723W        W79264  20.707  12.560   4.630
12724W        W79265   1.591  35.914   9.568
12725W        W79266  35.001  29.392   3.708
12726W        W79267  37.602  44.756   0.721
12727W        W79268   7.715  20.570   4.661
12728W        W79269  42.844  37.157  14.467
12729W        W79270  40.483  41.736  11.569
12730W        W79271   5.247  24.800   2.216
12731W        W79272   7.898   2.930  13.880
12732W        W79273   1.793  40.735   2.241
12733W        W79274  25.874  17.090  12.084
12734W        W79275   8.896  30.582   1.956
12735W        W79276  27.659  19.598   4.345
12736W        W79277  34.553  26.019   3.135
12737W        W79278  39.791  27.921   0.950
12738W        W79279  25.858   9.661   3.214
12739W        W79280  36.785   1.703  11.495
12740W        W79281  22.144  24.905  14.400
12741W        W79282  38.103  13.757   1.708
12742W        W79283  10.214  19.907   0.147
12743W        W79284  37.945  36.666   0.523
12744W        W79285   5.168   1.477  14.380
12745W        W79286  27.375   4.917   4.154
12746W        W79287  42.343  12.087   4.767
12747W        W79288  12.105   8.876   0.370
12748W        W79289   0.443  37.023   4.928
12749W        W79290  18.747  20.215  14.028
12750W        W79291  32.235   7.020  13.575
12751W        W79292  26.590  24.211  11.123
12752W        W79293  21.665  18.958   2.716
12753W        W79294  16.993  38.682  12.019
12754W        W79295  38.367   8.536   5.296
12755W        W79296  18.033  41.754  12.057
12756W        W79297  16.774  41.766  11.545
12757W        W79298  18.290   8.572  12.489
12758W        W79299   1.893  23.743  14.084
12759W        W79300  36.057  31.908  11.994
12760W        W79301  13.459  43.929  11.082
12761W        W79302   9.263  37.503   2.841
12762W        W79303   4.868  13.582  13.947
12763W        W79304  40.741  28.398  14.427
12764W        W79305  10.751  18.792   3.738
12765W        W79306  27.648  11.801   2.902
12766W        W79307  22.027   8.648   1.098
12767W        W79308  40.348  31.344  12.518
12768W        W79309  41.571  24.980  12.601
12769W        W79310   7.396  17.848  14.283
12770W        W79311  42.729   3.753   3.188
12771W        W79312  14.260  44.294  11.323
12772W        W79313  25.683  39.283  14.527
12773W        W79314  40.772  22.700   0.368
12774W        W79315  14.561  17.840  13.596
12775W        W79316  30.292  34.984   1.109
12776W        W79317   5.191   8.868   1.322
12777W        W79318  23.156  39.115  13.532
12778W        W79319  15.994  34.291   4.125
12779W        W79320  10.395   1.796   9.870
12780W        W79321  11.578  25.235   0.808
12781W        W79322   4.865   3.880  14.048
12782W        W79323  21.097  25.132   0.517
12783W        W79324  19.173  22.626  11.560
12784W        W79325  16.808  10.715   1.748
12785W        W79326  25.306  20.032   4.588
12786W        W79327   3.018   7.390   0.013
12787W        W79328  40.994  12.647   1.373
12788W        W79329  24.584  11.266   3.662
12789W        W79330  38.984   1.642   2.233
12790W        W79331   5.433  41.372   3.359
12791W        W79332  39.722  42.959   0.201
12792W        W79333   6.737  18.831  12.014
12793W        W79334   4.479  24.254   3.329
12794W        W79335  15.585  23.961   0.421
12795W        W79336  23.672  33.349   2.749
12796W        W79337  29.872  19.067   0.204
12797W        W79338  29.471   8.659   3.186
12798W        W79339   2.243  42.456  13.054
12799W        W79340  35.613  17.506  12.110
12800W        W79341  38.836  39.347  11.236
12801W        W79342   3.553  22.603  11.755
12802W        W79343  26.773  35.465   1.127
12803W        W79344  28.435   6.296  14.206
12804W        W79345  13.834  30.595  11.921
12805W        W79346  13.665   1.956   1.631
12806W        W79347  34.500  14.373   0.988
12807W        W79348  23.895   0.250  13.406
12808W        W79349  23.557   2.293   0.877
12809W        W79350  27.512  24.860   0.801
12810W        W79351  31.050  13.239   2.455
12811W        W79352  28.051  13.645   4.116
12812W        W79353  31.725   4.295   2.372
12813W        W79354   8.076  30.317   0.476
12814W        W79355   8.658  42.858  13.285
12815W        W79356  19.536  14.351  12.540
12816W        W79357  12.236  22.224   3.675
12817W        W79358  16.707  37.818   1.233
12818W        W79359  44.372  37.419  13.853
12819W        W79360  35.999  43.345   1.359
12820W        W79361  12.630  19.254  13.970
12821W        W79362  10.395  27.142   4.428
12822W        W79363  16.562  21.794  14.965
12823W        W79364  40.840   8.755  14.758
12824W        W79365  13.601  28.419  12.479
12825W        W79366   9.171  44.281   1.597
12826W        W79367   0.208  21.226   0.399
12827W        W79368  36.392   4.980   3.585
12828W        W79369  22.180   4.491   9.713
12829W        W79370  19.989  17.253   1.755
12830W        W79371  15.200  16.316  11.975
12831W        W79372  30.469  22.548  11.175
12832W        W79373  23.008  38.352   4.606
12833W        W79374  25.985  26.174   1.680
12834W        W79375   5.694   4.802  14.308
12835W        W79376  37.919   9.613  11.294
12836W        W79377   3.001  12.367   3.474
12837W        W79378  35.337  31.168  12.116
12838W        W79379  10.894  33.405   0.620
12839W        W79380  40.951  43.938  11.423
12840W        W79381  30.318   5.781   0.233
12841W        W79382  16.854  22.717   0.949
12842W        W79383  37.792   2.765  13.791
12843W        W79384  25.990  29.551   4.428
12844W        W79385   3.249  34.540  13.504
12845W        W79386   4.767  22.315   2.239
12846W        W79387  22.812   1.967  11.762
12847W        W79388  22.528  40.082   2.206
12848W        W79389  37.864  17.011   4.698
12849W        W79390   5.231  28.562   1.442
12850W        W79391  36.415  19.896  11.147
12851W        W79392  14.069  13.294  13.913
12852W        W79393  20.733  19.751   4.721
12853W        W79394   4.964   2.779  13.381
12854W        W79395   0.883  39.049  12.680
12855W        W79396   9.934  32.901  14.703
12856W        W79397  13.749  35.218   2.295
12857W        W79398  35.861   2.335   0.782
12858W        W79399  11.370  33.998  10.721
12859W        W79400  22.625  27.379  10.714
12860W        W79401  23.406  36.384  13.554
12861W        W79402  38.128  28.180   0.218
12862W        W79403  14.425  35.704   5.031
12863W        W79404  22.490   1.036   0.523
12864W        W79405  28.156  17.967   0.386
12865W        W79406  23.664  34.262   3.053
12866W        W79407  33.632  31.904   3.099
12867W        W79408  43.249  34.708   3.339
12868W        W79409  34.425  18.333   0.200
12869W        W79410  42.497  36.506   1.270
12870W        W79411  21.755  33.436  14.938
12871W        W79412   1.023  21.051   3.499
12872W        W79413  35.001  39.565  14.408
12873W        W79414  24.769  10.678   4.257
12874W        W79415   3.343  25.428   1.443
12875W        W79416  16.761   1.707   2.704
12876W        W79417  11.209  32.627   3.688
12877W        W79418  14.634   5.727  11.680
12878W        W79419  32.358  36.353  12.464
12879W        W79420  23.969   2.807   1.453
12880W        W79421  21.195   5.774   3.236
12881W        W79422  12.780  40.350   3.726
12882W        W79423  21.219   7.620   0.497
12883W        W79424   8.331  26.120  12.406
12884W        W79425  21.669  29.351   1.452
12885W        W79426  32.646  26.881   1.274
12886W        W79427  23.819   6.146   3.338
12887W        W79428  25.882   6.770   9.832
12888W        W79429   4.480  29.945  11.027
12889W        W79430   3.873  24.673  14.966
12890W        W79431  15.122  18.502   2.173
12891W        W79432  44.036  28.942  10.638
12892W        W79433  25.898   1.151   1.793
12893W        W79434   5.375  34.106  13.039
12894W        W79435  25.770  26.054   1.228
12895W        W79436   5.286  28.467   4.202
12896W        W79437  44.088   7.895  11.130
12897W        W79438  18.974   1.847  11.191
12898W        W79439  18.939  37.445  13.455
12899W        W79440  17.362  18.997  10.833
12900W        W79441  20.187  17.591   0.731
12901W        W79442  38.814   8.421  10.664
12902W        W79443  29.156   7.351   1.607
12903W        W79444  13.893  44.892  11.225
12904W        W79445  30.868   8.386  10.724
12905W        W79446  28.142  28.909   4.488
12906W        W79447  25.651  31.550  14.467
12907W        W79448   8.767  36.406  13.194
12908W        W79449  39.408  19.732   3.780
12909W        W79450   9.380  38.943   0.345
12910W        W79451  29.598  33.786  11.218
12911W        W79452   3.622   0.717   2.003
12912W        W79453   0.248  16.300   1.734
12913W        W79454  31.564  30.694  13.972
12914W        W79455  10.688  35.798  11.486
12915W        W79456  28.394   6.398   0.900
12916W        W79457  25.234  26.891   0.274
12917W        W79458  41.332  43.521  10.763
12918W        W79459  42.986   6.712   1.747
12919W        W79460  35.078  26.175  10.558
12920W        W79461  42.793  23.788   0.801
12921W        W79462  21.588   1.187   4.134
12922W        W79463  39.838  18.076   3.979
12923W        W79464  23.034  20.667   5.064
12924W        W79465  34.061  16.602   2.282
12925W        W79466  10.987  16.599  14.198
12926W        W79467  38.934  24.930   2.368
12927W        W79468  22.795   3.890  14.484
12928W        W79469  12.371  28.642  12.768
12929W        W79470  11.933  27.196  11.052
12930W        W79471   9.143  35.086   2.642
12931W        W79472  10.512  27.538  10.722
12932W        W79473  12.087  28.496   0.079
12933W        W79474  28.490  38.796  10.023
12934W        W79475   8.288  35.377  10.707
12935W        W79476  18.101  33.540   1.870
12936W        W79477  29.461  33.309  11.316
12937W        W79478  38.714  19.087  11.716
12938W        W79479  14.750  39.049  12.565
12939W        W79480  24.830   8.693  14.374
12940W        W79481  30.024  43.054   2.491
12941W        W79482   7.865   8.969  13.151
12942W        W79483  28.405  42.994   0.803
12943W        W79484  19.979  15.779  11.719
12944W        W79485  31.387  25.087  10.587
12945W        W79486  32.420  20.800  14.854
12946W        W79487  12.623  38.956   0.914
12947W        W79488  10.536  35.650   0.841
12948W        W79489  22.207  38.960   0.038
12949W        W79490  40.416  43.447   4.299
12950W        W79491   2.960   5.811   4.792
12951W        W79492   9.839   6.901  13.653
12952W        W79493  15.594  38.256  11.928
12953W        W79494  14.256   7.413  13.300
12954W        W79495  30.413  21.634   4.453
12955W        W79496   0.704   8.878   1.915
12956W        W79497  43.395  33.221   1.245
12957W        W79498  28.717  41.664  12.142
12958W        W79499  37.955   5.505   0.883
12959W        W79500  25.997  16.029   4.226
12960W        W79501  42.800   4.708  13.502
12961W        W79502   8.482  41.978   4.150
12962W        W79503  23.442  40.455   3.167
12963W        W79504   9.222  20.027  13.922
12964W        W79505  16.171  28.066  10.745
12965W        W79506   8.404  23.254   0.325
12966W        W79507  16.217  33.500   0.449
12967W        W79508  10.007  21.324   2.632
12968W        W79509  20.815  41.090  11.632
12969W        W79510  25.961  35.159  11.176
12970W        W79511   5.248  12.776  14.938
12971W        W79512  43.023  11.087  13.085
12972W        W79513   2.478  30.401  14.026
12973W        W79514  16.817  27.385  10.482
12974W        W79515  23.288  20.015  14.866
12975W        W79516  32.458  21.119  13.773
12976W        W79517   6.999   3.296  12.022
12977W        W79518   6.762  12.263  14.710
12978W        W79519  37.404  41.285   2.594
12979W        W79520  11.312  25.073   4.341
12980W        W79521  12.605   3.521  14.278
12981W        W79522  29.510  29.637  14.333
12982W        W79523  18.538  37.272   1.882
12983W        W79524  18.821   0.928  10.694
12984W        W79525   2.202  27.438   3.551
12985W        W79526  11.824  29.952   4.300
12986W        W79527  11.532   2.018   3.630
12987W        W79528   2.797  17.118  13.947
12988W        W79529  40.132  29.869   2.392
12989W        W79530  28.589   2.251  13.263
12990W        W79531   2.236  19.434  10.688
12991W        W79532  22.588  11.048   0.903
12992W        W79533  12.875  21.263  12.012
12993W        W79534  37.275   9.739   1.404
12994W        W79535  11.153  11.042  10.678
12995W        W79536  32.884  18.407  10.241
12996W        W79537  21.423   9.988   4.986
12997W        W79538  31.502  41.067   2.344
12998W        W79539   8.683  15.559  12.906
12999W        W79540   8.127  11.910   4.332
13000W        W79541  38.083  23.563   1.345
13001W        W79542  14.959  10.270   1.466
13002W        W79543  14.160   6.132   3.678
13003W        W79544  41.833  38.846   2.181
13004W        W79545  17.322   7.346  13.408
13005W        W79546  16.067  44.453   2.906
13006W        W79547  41.348  35.506   1.717
13007W        W79548  20.446  34.020   0.754
13008W        W79549  20.549  34.341   4.547
13009W        W79550  34.847  30.518   3.782
13010W        W79551  15.654  42.697   1.921
13011W        W79552  25.598  14.722  12.312
13012W        W79553  29.616   7.356   2.717
13013W        W79554  10.220   3.367   2.693
13014W        W79555  23.193  44.707  12.136
13015W        W79556   3.126  28.948  13.144
13016W        W79557  16.251  44.013   0.891
13017W        W79558  24.257  20.714  11.663
13018W        W79559  13.405  21.433   2.109
13019W        W79560  43.866  14.075   2.304
13020W        W79561  30.693   2.663  11.993
13021W        W79562  26.001  26.943   3.116
13022W        W79563  19.350  35.275   1.789
13023W        W79564  11.279   7.173  12.409
13024W        W79565  34.938   7.213  10.471
13025W        W79566   5.138  17.831  11.621
13026W        W79567  26.741  42.979  13.040
13027W        W79568  17.333  18.964   0.365
13028W        W79569   3.873  24.164   9.901
13029W        W79570  18.311  29.096   0.700
13030W        W79571  25.967  27.450  10.637
13031W        W79572  10.926  30.938   4.102
13032W        W79573  16.291  25.007   0.818
13033W        W79574  29.165  14.213  10.288
13034W        W79575  32.697  28.287   0.302
13035W        W79576  14.043  13.933   0.789
13036W        W79577   1.227  18.814   1.421
13037W        W79578   4.954  18.152   4.133
13038W        W79579  15.115   8.305   0.174
13039W        W79580  39.088   2.406   3.791
13040W        W79581   1.458  44.734   4.658
13041W        W79582   5.176  13.167  10.720
13042W        W79583  37.055  39.513   4.625
13043W        W79584  29.018   8.435  11.432
13044W        W79585   2.949  15.201   0.324
13045W        W79586  40.040  37.923   0.833
13046W        W79587  41.812  30.035  10.750
13047W        W79588   8.399   7.340   1.666
13048W        W79589  14.654   3.420  12.399
13049W        W79590  27.722   6.825   1.877
13050W        W79591  35.735  11.230   0.827
13051W        W79592   1.477  17.854   3.318
13052W        W79593  20.611  40.216  14.716
13053W        W79594   2.403   2.758   3.132
13054W        W79595  20.309  39.919   4.519
13055W        W79596  36.450   6.705  13.825
13056W        W79597  12.304  37.459   4.464
13057W        W79598   6.842  40.499   1.312
13058W        W79599   9.706  19.891   3.268
13059W        W79600   0.778  43.835  11.641
13060W        W79601   4.985  26.608  12.606
13061W        W79602  16.666   4.861  14.299
13062W        W79603   3.758  18.057   3.143
13063W        W79604  28.580  17.071  14.004
13064W        W79605  44.753   6.765   1.041
13065W        W79606  42.002  39.048  10.814
13066W        W79607  10.890  17.776  11.001
13067W        W79608   8.244  18.663   4.713
13068W        W79609  21.237   0.896  14.942
13069W        W79610   0.922  17.616   2.132
13070W        W79611  18.893  32.071   0.824
13071W        W79612  19.810   0.709   0.874
13072W        W79613  17.290  15.321   3.621
13073W        W79614  30.540  44.937  10.566
13074W        W79615  26.131  35.178   0.546
13075W        W79616  17.627   8.850  13.036
13076W        W79617  30.357  29.131  12.565
13077W        W79618   3.224   2.216  11.701
13078W        W79619   3.833  41.672  14.319
13079W        W79620  15.852  24.711   0.842
13080W        W79621  33.481   5.346   0.261
13081W        W79622   7.566  10.125  10.367
13082W        W79623  24.102  40.792   2.587
13083W        W79624  12.889  19.230  13.500
13084W        W79625  40.309  22.957   3.302
13085W        W79626  21.754  12.541   0.362
13086W        W79627   5.473   2.883  14.414
13087W        W79628   6.419  44.489  13.923
13088W        W79629  23.451  38.075   4.771
13089W        W79630   3.788   1.340  12.867
13090W        W79631  44.760  12.712   4.450
13091W        W79632  28.538  24.259  12.275
13092W        W79633  26.429  10.312   4.021
13093W        W79634  15.143  25.063  13.103
13094W        W79635  15.854  27.072   3.182
13095W        W79636  21.200  38.949  14.974
13096W        W79637   1.499  12.243   3.747
13097W        W79638  38.483  20.561   4.595
13098W        W79639  40.202   1.917  11.248
13099W        W79640   1.206  35.103   1.575
13100W        W79641  25.247  38.816   3.635
13101W        W79642  21.359   2.310   0.131
13102W        W79643  31.827  31.502   4.022
13103W        W79644  26.625  32.478   3.807
13104W        W79645   2.603   1.324   1.400
13105W        W79646  41.934  32.332  12.493
13106W        W79647  40.551  36.985  11.087
13107W        W79648  35.921  22.543  11.941
13108W        W79649  41.050  33.929   2.123
13109W        W79650  41.418   5.699  10.903
13110W        W79651   4.631  42.023   0.287
13111W        W79652   5.587  35.233   3.563
13112W        W79653   7.227   9.654  13.615
13113W        W79654  11.721  17.783  12.081
13114W        W79655  26.454   8.733  11.083
13115W        W79656  20.434  27.928  13.038
13116W        W79657  16.628  35.440   4.602
13117W        W79658   6.625  13.215  11.623
13118W        W79659  26.111  32.108  11.098
13119W        W79660  37.151  41.245  11.961
13120W        W79661   5.152  35.421  13.410
13121W        W79662   8.330  32.344   2.765
13122W        W79663  25.255  13.400  10.681
13123W        W79664  21.541  29.961   3.210
13124W        W79665  36.604  43.298   2.777
13125W        W79666   7.261  33.668   3.250
13126W        W79667  38.490  16.557   3.585
13127W        W79668  24.644  16.056   3.165
13128W        W79669  14.137  37.031   0.061
13129W        W79670  27.215  15.618  12.329
13130W        W79671  24.528   6.564  10.653
13131W        W79672  34.051  40.558  11.581
13132W        W79673  38.285   6.365   2.901
13133W        W79674  24.283  36.463   0.345
13134W        W79675  37.167   7.475  14.428
13135W        W79676  16.726  40.293  10.603
13136W        W79677  39.256  15.663   1.260
13137W        W79678   8.265  13.830   1.642
13138W        W79679   7.620  13.674  12.594
13139W        W79680   0.829  24.175   3.631
13140W        W79681  22.284  16.880   1.172
13141W        W79682  30.417  12.966   3.187
13142W        W79683  20.786  13.211  13.936
13143W        W79684  26.273  25.504  11.205
13144W        W79685  41.757  23.843   1.719
13145W        W79686   0.540   6.208  13.564
13146W        W79687   7.673  42.472  14.309
13147W        W79688  32.473  27.980  14.929
13148W        W79689  13.777  25.524   2.753
13149W        W79690  31.465  26.613   2.618
13150W        W79691  30.833  18.248   4.289
13151W        W79692  12.803   0.722  10.629
13152W        W79693  24.225  22.143  13.424
13153W        W79694   7.402   1.052  12.905
13154W        W79695   0.456  31.392   1.845
13155W        W79696  28.932  15.026  13.467
13156W        W79697  44.729  20.771   2.340
13157W        W79698  16.304  44.932  13.138
13158W        W79699  36.054   8.668   1.701
13159W        W79700  27.458   5.914   3.489
13160W        W79701  17.603  33.500  12.399
13161W        W79702  28.230  21.508  12.396
13162W        W79703   9.167  25.234   2.006
13163W        W79704  27.089   3.414   2.977
13164W        W79705  39.894  15.226   0.504
13165W        W79706  40.826   9.369  12.621
13166W        W79707  34.048  40.109   1.434
13167W        W79708   8.164   8.824  14.513
13168W        W79709  28.675   6.799  14.281
13169W        W79710  29.515  41.454   4.039
13170W        W79711  24.035  40.563  11.597
13171W        W79712  35.086   3.899  13.588
13172W        W79713  31.011   0.253  11.609
13173W        W79714  35.135  36.895  11.987
13174W        W79715   2.045  26.000  14.361
13175W        W79716   6.947  14.341   0.195
13176W        W79717   2.955  40.460   0.452
13177W        W79718  17.092  13.229  11.142
13178W        W79719   4.377  44.004  11.453
13179W        W79720  15.140   8.733   3.883
13180W        W79721   0.397  24.051  12.454
13181W        W79722  39.183   1.349   4.753
13182W        W79723  38.974   8.818  13.506
13183W        W79724  17.077  21.680   2.794
13184W        W79725  17.851  13.234   3.624
13185W        W79726  30.499  39.774   2.303
13186W        W79727  34.585  25.027   4.595
13187W        W79728   1.031  41.501   4.952
13188W        W79729   5.067  24.034   1.308
13189W        W79730  14.667  27.443  11.500
13190W        W79731  43.387  32.055  14.255
13191W        W79732  23.254  30.115   4.593
13192W        W79733  21.481   5.485   1.341
13193W        W79734  22.625  35.988   2.661
13194W        W79735  30.616  33.072   1.035
13195W        W79736  18.671  29.171  10.110
13196W        W79737  33.067  30.386  13.969
13197W        W79738  19.682   9.240  13.172
13198W        W79739  14.282   9.184   1.280
13199W        W79740  26.010   6.742   3.230
13200W        W79741  10.198  42.783   4.181
13201W        W79742  22.320  10.457   1.241
13202W        W79743  19.543  36.028  13.617
13203W        W79744  11.076  17.713  10.532
13204W        W79745  31.909   8.773   2.922
13205W        W79746   2.761  10.713  14.041
13206W        W79747   0.010   7.645   2.707
13207W        W79748  14.059  37.594  14.371
13208W        W79749   4.966  40.671   0.984
13209W        W79750   0.427  26.104   1.761
13210W        W79751   8.191  16.460  13.937
13211W        W79752  12.536  30.938   5.567
13212W        W79753  20.153  29.222   2.984
13213W        W79754  18.754  39.856  12.520
13214W        W79755  41.425  11.894   0.491
13215W        W79756  36.480   9.748   0.017
13216W        W79757  34.096  35.871  11.269
13217W        W79758  15.738   1.244   0.814
13218W        W79759   8.377  33.596   1.358
13219W        W79760  24.539  31.284   4.653
13220W        W79761  37.718  22.646  14.582
13221W        W79762  19.724  26.650   3.901
13222W        W79763  25.408  44.773   1.800
13223W        W79764  40.791  14.582  12.569
13224W        W79765  41.146  17.661   4.161
13225W        W79766  20.751  31.824  13.835
13226W        W79767  31.974  27.981  13.657
13227W        W79768  23.868   7.812  13.351
13228W        W79769  20.246  20.299  14.849
13229W        W79770  10.656  33.921  13.464
13230W        W79771  25.623  13.156   3.016
13231W        W79772  37.860   5.733   0.437
13232W        W79773  28.204  31.161   2.166
13233W        W79774  12.216   6.616   0.358
13234W        W79775  44.798  15.534   3.620
13235W        W79776  35.644  24.765   0.232
13236W        W79777  22.770  41.600   2.773
13237W        W79778   2.396  12.109  14.975
13238W        W79779  29.432  14.769  11.096
13239W        W79780  21.675  39.639   4.069
13240W        W79781  30.333   3.520  13.110
13241W        W79782  15.568  11.641   2.201
13242W        W79783  39.845  11.760  12.839
13243W        W79784   6.407  44.286  12.988
13244W        W79785   8.377  23.001  12.812
13245W        W79786   3.376  39.011   3.659
13246W        W79787  36.435  28.090   0.898
13247W        W79788  39.284  39.159   3.839
13248W        W79789  22.738  23.084  11.365
13249W        W79790  36.410  30.569   2.625
13250W        W79791  13.158  41.155   2.320
13251W        W79792  13.160  44.313  14.793
13252W        W79793  24.994  23.189  13.991
13253W        W79794  18.098  39.906   0.534
13254W        W79795  39.739  20.261   4.660
13255W        W79796   7.884  28.236  13.078
13256W        W79797  12.809  32.408   1.218
13257W        W79798  21.885  22.240   0.610
13258W        W79799   3.831  39.796   4.572
13259W        W79800   1.975  11.109   4.174
13260W        W79801  36.045  39.780  13.910
13261W        W79802  18.663   9.538  12.997
13262W        W79803  10.715  40.307  12.026
13263W        W79804  25.606  15.672   2.190
13264W        W79805  24.978  29.160   1.933
13265W        W79806  32.340  28.556   4.865
13266W        W79807  26.180  17.073   1.631
13267W        W79808  26.622   9.409   3.561
13268W        W79809  44.016  37.959  14.910
13269W        W79810   5.256  24.688  11.968
13270W        W79811  42.868  13.334  10.516
13271W        W79812  37.015  32.922   2.466
13272W        W79813  29.720  30.504  12.087
13273W        W79814   6.579  33.264   4.288
13274W        W79815  44.509  26.106   2.651
13275W        W79816  15.523   8.199  14.885
13276W        W79817  34.464  10.790   3.598
13277W        W79818  39.772  12.166   2.834
13278W        W79819  22.563  21.609  14.097
13279W        W79820  33.209  17.550   0.049
13280W        W79821  35.981  32.557   2.631
13281W        W79822  11.667  30.978  10.909
13282W        W79823   1.256  42.311   4.356
13283W        W79824   5.875  17.892  12.334
13284W        W79825  18.816  17.493  14.365
13285W        W79826  42.039  41.802   3.702
13286W        W79827   6.318  34.314  10.646
13287W        W79828  31.278  13.479   5.013
13288W        W79829  37.851   2.346   2.716
13289W        W79830  20.903   6.460  10.965
13290W        W79831  10.847  10.049  11.666
13291W        W79832  23.636  17.637   0.687
13292W        W79833   2.441  22.654   1.711
13293W        W79834  10.120   2.868   2.418
13294W        W79835   7.663   5.227   3.232
13295W        W79836  14.770  14.762  13.381
13296W        W79837  25.110  43.463   4.335
13297W        W79838  37.470  21.957   3.644
13298W        W79839  38.242  21.167   0.228
13299W        W79840  42.305  34.085   2.831
13300W        W79841  30.622  34.124   3.823
13301W        W79842  36.209  26.540   2.886
13302W        W79843  19.109  28.686  14.441
13303W        W79844  13.870  27.178   2.456
13304W        W79845  25.611  39.999   4.229
13305W        W79846  10.094  28.990   2.291
13306W        W79847  42.329  11.294  10.731
13307W        W79848   5.837  22.479   2.043
13308W        W79849  21.592   3.019  10.478
13309W        W79850   4.009  22.182  14.513
13310W        W79851  24.538  10.181   1.971
13311W        W79852   9.920   0.574  12.493
13312W        W79853  40.275   8.818  12.460
13313W        W79854  31.029  15.775  11.708
13314W        W79855  14.478  44.645   1.320
13315W        W79856   3.700   9.696  13.429
13316W        W79857  31.207  32.972  14.409
13317W        W79858  34.943  38.261   2.469
13318W        W79859  11.847  16.583  11.089
13319W        W79860  30.415  32.849   1.466
13320W        W79861  43.243  36.665  11.087
13321W        W79862  32.056  22.029   1.030
13322W        W79863  14.415  36.357   1.730
13323W        W79864  42.459  40.929   3.828
13324W        W79865  28.371  16.828  12.769
13325W        W79866  24.723  11.879  11.154
13326W        W79867  34.544  17.128  13.572
13327W        W79868  21.565  38.315  13.563
13328W        W79869  27.899   2.366   4.105
13329W        W79870   7.854  39.994  13.816
13330W        W79871   2.033  36.293  13.914
13331W        W79872  25.190  41.291   2.146
13332W        W79873  28.124  35.033   1.443
13333W        W79874  14.498  14.634   2.248
13334W        W79875  35.755  19.563   2.935
13335W        W79876  37.532   7.885  11.634
13336W        W79877  13.929   3.489  11.621
13337W        W79878  39.040  24.893  10.464
13338W        W79879  13.849  17.580   4.623
13339W        W79880  34.705   1.530   2.441
13340W        W79881  30.629  33.563  11.298
13341W        W79882   7.238   1.136  13.383
13342W        W79883  44.049  41.033   4.234
13343W        W79884  26.043  30.151   2.654
13344W        W79885  29.699  11.699  13.018
13345W        W79886   2.298  41.640  13.017
13346W        W79887   7.513  34.911   4.811
13347W        W79888  32.093  29.700   4.560
13348W        W79889   0.328  25.051   0.572
13349W        W79890   9.909  14.248  12.080
13350W        W79891  36.324   9.814   2.882
13351W        W79892  38.715  29.666  13.266
13352W        W79893  11.121  41.513  13.396
13353W        W79894   4.333  26.738  10.449
13354W        W79895  12.722  28.118   3.142
13355W        W79896   9.257  21.012   1.987
13356W        W79897  38.931  25.634  13.748
13357W        W79898  15.565  35.356  14.934
13358W        W79899  16.126  28.650   3.733
13359W        W79900  17.746  26.843   1.281
13360W        W79901  44.216  16.606  14.339
13361W        W79902  21.289  32.616  13.863
13362W        W79903   2.768  35.968   3.843
13363W        W79904  36.970  40.317  14.001
13364W        W79905  34.625  18.794  10.693
13365W        W79906   8.789  12.844  14.373
13366W        W79907  43.535  39.379  13.145
13367W        W79908  25.956  37.034  14.039
13368W        W79909  38.367  20.655  12.093
13369W        W79910  19.607   5.746  13.857
13370W        W79911  40.995  39.916  13.028
13371W        W79912   0.444  32.678  14.771
13372W        W79913   9.987  13.395   3.736
13373W        W79914  26.512  18.288  14.650
13374W        W79915  22.551  31.829  14.072
13375W        W79916   7.231  41.078  12.111
13376W        W79917  35.076  22.013  12.899
13377W        W79918  42.384  31.397   1.906
13378W        W79919  34.182   3.808   4.552
13379W        W79920  43.520  14.355  14.828
13380W        W79921  35.334   0.320   2.632
13381W        W79922  13.712  26.889   1.532
13382W        W79923   2.346  13.983   3.291
13383W        W79924   0.889  12.831   4.109
13384W        W79925  22.118  14.585   4.673
13385W        W79926   6.633  35.010   2.711
13386W        W79927  34.943  34.899   0.002
13387W        W79928  36.099  26.493   1.875
13388W        W79929  38.416   5.073  13.959
13389W        W79930  13.549  33.570   3.813
13390W        W79931   9.708  44.995  13.422
13391W        W79932   5.945  42.381   0.463
13392W        W79933   8.346  35.816  11.056
13393W        W79934  26.983  30.573   1.385
13394W        W79935  13.723  30.933  14.280
13395W        W79936   2.801  34.310  13.384
13396W        W79937  30.703  23.953  11.712
13397W        W79938  16.805   1.473   2.206
13398W        W79939   4.497  40.361  12.795
13399W        W79940  14.127  26.838   2.069
13400W        W79941   8.609  32.405   1.887
13401W        W79942  30.647   5.418  12.276
13402W        W79943  12.370  14.821  11.735
13403W        W79944  21.382  12.297  10.307
13404W        W79945  20.703   7.833   2.843
13405W        W79946  38.062  21.760   4.367
13406W        W79947  18.128   8.773   4.895
13407W        W79948  20.721  33.844  10.687
13408W        W79949  42.352   3.484  12.324
13409W        W79950   5.023  32.945  10.672
13410W        W79951  20.730   8.858   1.392
13411W        W79952   8.006  13.242  11.153
13412W        W79953   2.462  18.008  10.657
13413W        W79954  29.913  32.951   1.497
13414W        W79955  15.924  39.944   1.641
13415W        W79956  40.247   4.574   3.370
13416W        W79957   7.966   2.283   4.217
13417W        W79958  37.276  34.929   3.157
13418W        W79959  36.520  18.841   4.225
13419W        W79960  22.077  34.421  14.466
13420W        W79961  37.677  42.472   2.923
13421W        W79962  39.577  32.456  10.891
13422W        W79963   9.118   9.760   4.814
13423W        W79964   2.919  15.089   1.818
13424W        W79965  40.201  37.001   4.250
13425W        W79966  21.284  42.429  11.585
13426W        W79967   5.290  34.655  12.973
13427W        W79968  27.386  30.500  12.804
13428W        W79969  24.575  21.279   0.796
13429W        W79970  13.955  40.037   0.810
13430W        W79971  42.324  22.676  10.767
13431W        W79972  35.500  42.211  14.069
13432W        W79973   2.802  12.256  13.090
13433W        W79974  15.771  32.745   4.491
13434W        W79975  19.954  36.840   0.911
13435W        W79976  17.120  29.286  12.432
13436W        W79977  25.703  21.307   1.970
13437W        W79978   3.850  24.575  13.770
13438W        W79979  24.535  30.938   1.811
13439W        W79980  39.619  36.890   2.451
13440W        W79981  19.246   9.441   4.681
13441W        W79982  12.948  35.886  14.396
13442W        W79983  39.375   0.727  10.834
13443W        W79984  24.974  28.562  14.900
13444W        W79985  34.494  32.975   0.568
13445W        W79986  33.932  10.138  12.557
13446W        W79987  33.127  36.546   4.554
13447W        W79988  28.416   6.474   4.583
13448W        W79989  12.332  22.003   4.135
13449W        W79990  17.860  43.579   3.531
13450W        W79991  29.798  31.588   1.514
13451W        W79992  40.135  15.446   3.688
13452W        W79993   4.514  31.201  10.471
13453W        W79994   6.691  21.924   0.989
13454W        W79995  35.055  24.794  14.677
13455W        W79996  33.034  11.862   3.773
13456W        W79997  26.564  20.487  13.521
13457W        W79998   4.867  28.736  13.914
13458W        W79999   3.427  15.248   2.815
13459W        W80000  19.057  19.104  12.497
13460W        W80001  29.425  21.490   3.785
13461W        W80002  39.300   8.634   1.914
13462W        W80003  13.875  28.450   4.099
13463W        W80004  12.810  20.728   1.874
13464W        W80005   0.279   5.265   0.747
13465W        W80006  34.323  34.445   1.815
13466W        W80007   5.813  27.985  14.535
13467W        W80008  29.491  26.654   3.281
13468W        W80009   4.004  14.730   1.511
13469W        W80010  34.490  17.842   0.318
13470W        W80011  25.502  31.053   3.194
13471W        W80012  43.914  37.890  13.325
13472W        W80013   9.674  34.907  11.291
13473W        W80014  29.943   5.874   2.284
13474W        W80015  44.850  38.427  13.476
13475W        W80016  41.181   0.685   0.776
13476W        W80017  14.145  34.688  12.079
13477W        W80018  19.258  17.678  10.449
13478W        W80019  12.181  38.580   3.762
13479W        W80020  20.119   4.319   1.920
13480W        W80021  21.183  12.820   3.487
13481W        W80022  32.588  20.711   2.150
13482W        W80023  38.382  20.094   4.192
13483W        W80024  14.153  43.257  11.914
13484W        W80025  38.875  33.981   0.378
13485W        W80026   4.562  14.161   2.696
13486W        W80027  17.329  25.226  12.122
13487W        W80028  31.490  25.369  13.222
13488W        W80029  10.956  31.196   3.208
13489W        W80030  12.743   9.705  14.826
13490W        W80031  26.992  14.041   2.649
13491W        W80032  18.723  36.488   3.614
13492W        W80033  24.257  25.685  13.509
13493W        W80034  16.583  21.479   0.380
13494W        W80035  14.086   5.012  14.732
13495W        W80036   0.855  17.147  13.100
13496W        W80037  12.831  33.586  11.935
13497W        W80038  34.598   1.974  12.153
13498W        W80039   3.841   6.960  11.615
13499W        W80040  41.811  20.839  11.164
13500W        W80041  15.463  37.937  12.740
13501W        W80042  12.577  28.969   1.691
13502W        W80043   9.794  32.880   1.348
13503W        W80044   0.863  42.663  11.163
13504W        W80045  44.786  11.112  14.395
13505W        W80046  16.400  13.126   1.492
13506W        W80047  13.290  24.636  14.515
13507W        W80048  12.375  25.098   3.370
13508W        W80049  41.940   3.486  11.522
13509W        W80050  10.947  11.236  11.131
13510W        W80051  34.170  36.932  11.983
13511W        W80052  32.486   1.830   9.794
13512W        W80053  33.418  21.950  13.603
13513W        W80054  26.162  26.979   2.176
13514W        W80055  15.164  14.629   1.125
13515W        W80056   0.378  20.998   1.751
13516W        W80057  40.744   6.854   2.699
13517W        W80058  28.447  34.958   2.694
13518W        W80059  18.939  27.420  13.065
13519W        W80060  14.132  12.072   0.415
13520W        W80061   7.697   8.943  13.633
13521W        W80062   1.674  41.561   4.233
13522W        W80063  24.059  26.835   0.265
13523W        W80064  12.864   6.333   4.202
13524W        W80065  29.889   1.657   4.603
13525W        W80066  31.653  39.047   4.119
13526W        W80067  39.135  35.552  12.515
13527W        W80068  27.206  27.580   0.781
13528W        W80069  36.346  16.829   0.283
13529W        W80070  12.831  44.291  13.931
13530W        W80071  22.839  44.342  11.993
13531W        W80072  28.903  40.446   4.630
13532W        W80073   7.314  27.990  14.999
13533W        W80074  43.586  35.980   3.014
13534W        W80075  25.032   5.887  10.304
13535W        W80076  15.401  38.159   0.445
13536W        W80077  40.423   3.527  12.089
13537W        W80078   6.491  40.506  12.965
13538W        W80079  15.620  13.163   2.293
13539W        W80080  16.832   8.318   3.802
13540W        W80081  38.911  30.427   2.652
13541W        W80082  27.150   8.864   4.762
13542W        W80083  23.233  16.882   1.849
13543W        W80084  29.483   1.432   4.345
13544W        W80085  38.677  30.112  11.154
13545W        W80086  19.036  24.843   2.866
13546W        W80087  41.467   9.139   3.983
13547W        W80088   8.768   7.675  14.885
13548W        W80089  28.141  15.791  11.528
13549W        W80090  43.577  39.400   4.371
13550W        W80091  38.897  35.768  11.210
13551W        W80092  17.116  31.483  13.451
13552W        W80093  25.391   4.068  10.487
13553W        W80094   2.145   4.423   3.224
13554W        W80095   8.538  29.027   3.296
13555W        W80096   9.118  33.534   0.020
13556W        W80097  34.298  35.518   0.454
13557W        W80098  38.740  29.664   3.143
13558W        W80099  35.331  25.435  11.469
13559W        W80100  41.365  28.973   3.686
13560W        W80101  36.600  40.165  11.495
13561W        W80102  42.525  28.080  12.963
13562W        W80103  30.626  43.726   2.977
13563W        W80104  26.148  40.061  12.523
13564W        W80105  30.622  23.333  14.488
13565W        W80106  23.033   0.795  12.047
13566W        W80107  30.346  10.294  14.793
13567W        W80108  29.598  38.586  11.600
13568W        W80109  15.272   9.140  12.424
13569W        W80110   7.356  24.533  10.569
13570W        W80111  30.944  24.732  13.442
13571W        W80112   0.467  15.592  11.722
13572W        W80113  35.878  19.649   1.541
13573W        W80114  31.711  10.146   3.822
13574W        W80115  40.614  33.252   4.594
13575W        W80116   0.459  34.392   3.737
13576W        W80117  42.351  33.708   1.647
13577W        W80118  18.361   0.807   5.031
13578W        W80119  12.807  41.943  14.463
13579W        W80120  11.538   7.692   3.198
13580W        W80121  36.621   1.008   1.359
13581W        W80122  19.209  16.603  12.407
13582W        W80123  21.844  41.440   5.035
13583W        W80124  26.906  11.160   4.382
13584W        W80125  26.813   7.338  13.471
13585W        W80126   2.925  35.639   1.668
13586W        W80127  37.648   3.263  10.269
13587W        W80128  10.594  21.708  13.344
13588W        W80129  30.100  28.763  11.800
13589W        W80130   9.223  36.935  10.671
13590W        W80131  43.371  34.010   0.229
13591W        W80132  29.410   5.341  11.023
13592W        W80133   3.937  44.955  13.028
13593W        W80134   8.712  35.471  12.094
13594W        W80135  14.309  13.098  11.798
13595W        W80136  24.006  16.019  14.289
13596W        W80137  35.706   6.216   3.594
13597W        W80138   3.838  42.757   4.169
13598W        W80139  25.216   5.618   0.330
13599W        W80140  25.573  38.496  13.098
13600W        W80141  11.659  32.535   3.050
13601W        W80142  23.573  10.175  12.620
13602W        W80143  19.968  37.866  12.134
13603W        W80144  18.387  27.439  12.465
13604W        W80145  18.450  30.840   1.351
13605W        W80146  41.163  35.829  12.568
13606W        W80147  36.907  38.585  14.823
13607W        W80148  27.750  41.529   4.153
13608W        W80149  27.097   9.334  14.609
13609W        W80150   7.542  33.266  11.665
13610W        W80151  28.148  43.522   3.671
13611W        W80152  31.617  30.988  12.013
13612W        W80153  12.118   9.815  12.980
13613W        W80154   3.830   2.338  11.649
13614W        W80155   9.242  30.446   1.562
13615W        W80156   0.116  10.269   3.216
13616W        W80157  35.850  33.649  13.982
13617W        W80158  41.468  21.154  11.910
13618W        W80159  43.273  13.329   3.683
13619W        W80160   0.707  36.899   3.438
13620W        W80161  32.514   4.619  10.946
13621W        W80162  42.923   0.427  12.313
13622W        W80163  16.228  24.276   4.372
13623W        W80164  38.930  28.152   3.613
13624W        W80165   8.193  34.688  13.915
13625W        W80166   8.882  38.360  12.997
13626W        W80167  13.394   6.288   4.354
13627W        W80168  22.758   9.760  13.415
13628W        W80169  14.353   3.736  10.740
13629W        W80170   9.427  12.390  12.989
13630W        W80171  19.053  17.671   3.059
13631W        W80172   3.415  38.711   5.149
13632W        W80173  28.343  27.851  10.360
13633W        W80174  40.439  21.238  13.474
13634W        W80175   9.847  38.157   2.265
13635W        W80176  29.367  10.856   3.031
13636W        W80177  24.583   9.716  13.914
13637W        W80178  26.792  37.093  13.416
13638W        W80179  25.189   2.314   0.288
13639W        W80180  18.638  22.420  11.642
13640W        W80181  22.290  15.856  11.088
13641W        W80182  42.492  15.474  13.499
13642W        W80183  18.499  44.313   3.382
13643W        W80184  25.101  42.334  11.630
13644W        W80185  40.071  41.084   2.163
13645W        W80186   1.877  40.494   1.250
13646W        W80187  22.928  17.212  10.696
13647W        W80188   1.351  20.820  13.664
13648W        W80189   8.468  42.217  10.649
13649W        W80190  40.931   5.919  12.407
13650W        W80191  30.683   8.727   3.922
13651W        W80192  35.885  36.359  13.883
13652W        W80193  20.420  36.382  10.694
13653W        W80194  21.161  25.243   4.117
13654W        W80195  31.419   7.108  13.205
13655W        W80196  14.383  16.048  13.503
13656W        W80197  38.592  42.214   0.372
13657W        W80198  15.207  32.912  12.902
13658W        W80199   6.890  39.362   3.682
13659W        W80200  37.477  33.214  10.619
13660W        W80201  39.874  26.089  13.912
13661W        W80202  20.188   8.705   1.631
13662W        W80203  11.707   1.210   4.152
13663W        W80204  43.339  29.078   4.242
13664W        W80205   9.213  43.797  11.319
13665W        W80206  42.493  35.690   3.685
13666W        W80207  25.218  42.836   3.116
13667W        W80208  13.630  18.406  11.304
13668W        W80209  11.548  15.759   0.273
13669W        W80210  43.514  13.547   3.256
13670W        W80211  25.041  37.164   2.615
13671W        W80212   9.384   9.247  10.987
13672W        W80213  33.188  42.831  13.636
13673W        W80214  14.798  40.646  12.972
13674W        W80215  40.550  44.512  10.697
13675W        W80216  38.778  16.380  13.730
13676W        W80217  32.315  18.002  13.285
13677W        W80218  38.214  43.421  12.324
13678W        W80219  34.937   6.837  13.679
13679W        W80220  22.149  15.506  10.266
13680W        W80221  30.451  18.119   3.528
13681W        W80222  34.914  32.249  12.471
13682W        W80223  44.339  39.613   0.269
13683W        W80224  31.396  31.415   3.684
13684W        W80225  39.062  28.541   4.590
13685W        W80226  29.883  22.984   2.215
13686W        W80227  26.732  44.084  11.235
13687W        W80228  29.985   7.880  11.067
13688W        W80229  11.933  22.685  13.629
13689W        W80230  32.000  14.371   4.234
13690W        W80231  42.818  16.609   2.990
13691W        W80232   7.245  26.603   4.166
13692W        W80233  24.922   3.235   4.373
13693W        W80234  29.679  29.443   4.564
13694W        W80235   2.711  15.740   4.314
13695W        W80236  33.032  12.365   2.813
13696W        W80237  28.984  44.843   0.426
13697W        W80238  18.377   5.668  14.392
13698W        W80239  17.263  30.377  13.154
13699W        W80240  40.458  34.907  14.476
13700W        W80241  32.824  34.698   1.748
13701W        W80242  37.549  24.547  11.183
13702W        W80243  37.991  14.195   3.860
13703W        W80244   0.392  27.219  12.970
13704W        W80245  41.476  31.257  14.572
13705W        W80246  21.811  23.368   3.651
13706W        W80247   7.409  13.623  13.066
13707W        W80248  40.324  33.206   0.964
13708W        W80249  28.443  26.730   4.720
13709W        W80250  27.491   0.293   0.444
13710W        W80251  34.627  43.418   3.796
13711W        W80252  30.745   6.000  14.489
13712W        W80253   7.863  11.829  10.769
13713W        W80254   5.532  40.102   1.250
13714W        W80255  39.163  44.265  11.595
13715W        W80256  26.850   1.898  13.856
13716W        W80257  33.050  15.657   2.168
13717W        W80258  33.433  33.893   2.794
13718W        W80259  29.515  28.494  13.038
13719W        W80260   7.028  27.143  12.363
13720W        W80261  22.592   7.103   0.826
13721W        W80262   7.840  24.303  12.099
13722W        W80263  26.467  41.914  13.344
13723W        W80264  18.076  43.677   4.287
13724W        W80265  38.700   1.902   2.597
13725W        W80266   7.214   6.784   3.803
13726W        W80267  27.063  36.720  14.401
13727W        W80268  12.009  29.018   0.850
13728W        W80269  24.673   5.599   0.714
13729W        W80270  42.246  40.384  10.531
13730W        W80271  32.061  14.876  13.927
13731W        W80272  37.494   0.750  11.151
13732W        W80273  11.434  24.507  14.249
13733W        W80274   7.187  27.031   0.211
13734W        W80275  25.143  39.596  14.419
13735W        W80276   0.921  18.550  14.827
13736W        W80277  32.339   5.253   1.410
13737W        W80278  26.109  11.215   1.111
13738W        W80279  12.183   9.639   3.548
13739W        W80280  21.999  23.619   2.841
13740W        W80281  39.342  39.471  11.068
13741W        W80282  15.545  28.439   0.336
13742W        W80283  17.017   7.407  12.530
13743W        W80284  43.514  23.798   1.437
13744W        W80285  35.635  20.673   2.715
13745W        W80286  23.984   3.418   3.595
13746W        W80287  23.765  22.015  13.221
13747W        W80288  32.572  26.336   1.204
13748W        W80289   7.692   7.625  12.938
13749W        W80290  12.475  43.001   3.851
13750W        W80291  35.822  35.614  14.289
13751W        W80292  32.410  40.219  12.941
13752W        W80293  40.840  13.371   3.287
13753W        W80294  32.999  43.266   3.880
13754W        W80295  19.642   0.985   1.317
13755W        W80296  31.721  38.624  11.238
13756W        W80297  36.091   9.748   4.875
13757W        W80298  28.665  43.185  13.031
13758W        W80299  17.048   1.928   1.799
13759W        W80300  39.373  30.605  10.613
13760W        W80301  31.096   4.563  10.550
13761W        W80302  43.303   1.741  13.497
13762W        W80303  31.058  10.143  10.733
13763W        W80304  19.843   1.322   2.199
13764W        W80305  43.278   2.338   0.672
13765W        W80306  33.923  29.514   0.821
13766W        W80307   0.805  29.119  11.221
13767W        W80308  22.259  33.783  11.966
13768W        W80309   8.162   6.244   0.728
13769W        W80310  22.163  37.676  13.831
13770W        W80311   3.417  31.331   0.321
13771W        W80312   7.932  22.680  14.346
13772W        W80313  14.175  42.497  12.843
13773W        W80314   6.916  40.624  13.263
13774W        W80315  11.568  30.027   1.804
13775W        W80316  40.860  43.655  14.670
13776W        W80317   9.637   9.109  14.177
13777W        W80318  34.075  37.227  12.393
13778W        W80319  38.615   2.736  14.856
13779W        W80320   0.296  37.861   3.325
13780W        W80321   7.509  35.333  12.238
13781W        W80322  22.520  10.981  13.840
13782W        W80323  28.322   4.127  12.637
13783W        W80324  11.758  35.884  14.918
13784W        W80325  22.727  39.579  14.760
13785W        W80326  10.037   5.152  12.837
13786W        W80327  37.877   6.631  12.553
13787W        W80328  11.071  39.440  14.600
13788W        W80329  21.110   4.150  13.070
13789W        W80330   1.302  35.228  14.124
13790W        W80331  19.636   7.380   0.360
13791W        W80332   6.141  44.847  14.866
13792W        W80333  24.113  18.241  13.916
13793W        W80334   7.206   2.192  10.710
13794W        W80335  33.459  13.242   0.369
13795W        W80336  10.468  26.306   4.026
13796W        W80337  33.466  35.308  11.625
13797W        W80338  39.281  17.583   0.224
13798W        W80339  32.356  40.456  12.469
13799W        W80340  32.072  20.289   4.314
13800W        W80341  37.076  29.777  13.853
13801W        W80342  30.559   4.281   0.419
13802W        W80343  11.192   1.372   1.281
13803W        W80344  28.784  41.672  13.020
13804W        W80345   7.841   2.399   1.318
13805W        W80346  41.060   4.777   0.402
13806W        W80347   7.570  11.501  11.073
13807W        W80348  41.370  16.073   2.688
13808W        W80349   9.591  29.543   4.924
13809W        W80350  36.106  12.175   4.887
13810W        W80351  15.613  40.020   0.376
13811W        W80352   2.520  23.000   0.301
13812W        W80353  29.415  18.734   4.571
13813W        W80354  23.616   9.003   0.310
13814W        W80355  26.909   5.104   4.527
13815W        W80356  26.174  36.857  11.742
13816W        W80357   9.847   0.315   0.156
13817W        W80358  44.715  43.576   0.578
13818W        W80359  25.169  38.427   3.267
13819W        W80360  38.878  33.601   1.735
13820W        W80361  40.836  17.727   0.767
13821W        W80362   6.439   6.721   2.434
13822W        W80363  40.948  44.434  13.175
13823W        W80364  30.250  44.186   4.330
13824W        W80365  29.140   8.585  13.427
13825W        W80366  19.980  17.630   4.102
13826W        W80367   8.813  21.538  11.234
13827W        W80368   2.797  14.699   0.249
13828W        W80369  32.600  14.230   0.143
13829W        W80370  33.755  20.135   4.840
13830W        W80371  43.394  35.795   2.020
13831W        W80372   0.264  17.456   4.353
13832W        W80373   7.780  10.844   1.277
13833W        W80374  10.411  10.355  13.114
13834W        W80375  17.237  20.090   3.672
13835W        W80376  26.876   1.820  12.872
13836W        W80377   2.658  29.589   3.871
13837W        W80378  14.744  39.217   0.029
13838W        W80379   5.834   0.035  14.420
13839W        W80380  17.979   2.341   0.109
13840W        W80381  40.489  12.079   0.962
13841W        W80382  30.062  40.771   1.719
13842W        W80383   0.575  22.115  10.502
13843W        W80384  30.504  39.880   3.304
13844W        W80385   2.439  33.835   1.910
13845W        W80386  19.074  28.960  11.057
13846W        W80387   5.361  16.484  12.922
13847W        W80388   3.620  44.952  10.216
13848W        W80389  17.102   4.496  14.891
13849W        W80390  36.281  12.314  11.061
13850W        W80391  15.840  36.576   4.203
13851W        W80392  16.581  39.714  12.629
13852W        W80393  36.857   9.699   3.741
13853W        W80394   3.715  33.165   3.208
13854W        W80395  38.358  35.346  11.972
13855W        W80396   2.830  34.792   3.641
13856W        W80397   5.690  10.024   1.899
13857W        W80398   8.173   0.293   3.728
13858W        W80399  24.513   8.500   0.373
13859W        W80400  22.465  17.292   4.059
13860W        W80401   6.945  28.538  13.757
13861W        W80402   0.017  24.453  11.541
13862W        W80403  17.117  22.221  11.245
13863W        W80404  42.984  16.251   2.624
13864W        W80405  18.523  21.538   3.622
13865W        W80406  37.966  17.113  13.789
13866W        W80407  10.769  22.239  11.526
13867W        W80408   7.391  16.353   4.127
13868W        W80409  36.600   7.891  10.686
13869W        W80410  24.085  26.890  10.656
13870W        W80411  37.911  31.083  13.963
13871W        W80412  39.479  13.461  12.090
13872W        W80413  15.288  37.635  12.338
13873W        W80414  17.760  19.881  14.715
13874W        W80415   5.487  22.751  12.068
13875W        W80416  41.346  15.818  12.454
13876W        W80417  40.536   0.804  12.132
13877W        W80418  17.306  27.508   0.616
13878W        W80419  10.449  21.639  14.867
13879W        W80420  24.063   1.802  14.407
13880W        W80421  36.819  27.940   9.651
13881W        W80422  38.282   7.359   3.760
13882W        W80423  15.923   5.810  14.631
13883W        W80424  42.640  24.721  14.892
13884W        W80425  37.122  22.746   1.573
13885W        W80426   6.703  31.528   0.730
13886W        W80427  40.983  26.044   3.755
13887W        W80428   8.656  40.100  13.894
13888W        W80429  34.028  14.686   4.655
13889W        W80430  31.909  20.251  14.421
13890W        W80431   9.714   1.289   2.335
13891W        W80432  24.656  28.432   0.865
13892W        W80433  40.789  12.293   2.431
13893W        W80434  22.074  12.157   1.940
13894W        W80435  18.894  16.545  14.230
13895W        W80436  37.576  10.102  12.044
13896W        W80437  38.712   8.089  12.062
13897W        W80438  26.969  32.546  12.968
13898W        W80439   6.229  28.510  11.502
13899W        W80440  37.161  22.826  12.834
13900W        W80441   8.935   2.460   4.992
13901W        W80442   3.474   2.809  13.064
13902W        W80443  12.139  25.528   2.114
13903W        W80444   7.188  26.985   4.677
13904W        W80445  30.177  26.080   4.245
13905W        W80446  37.863  23.239  11.612
13906W        W80447  11.507  44.463   3.253
13907W        W80448   1.009   9.351  10.735
13908W        W80449   3.487  19.732  11.730
13909W        W80450  33.538   4.192  13.251
13910W        W80451  11.383  25.970  11.185
13911W        W80452  10.660  44.438  12.703
13912W        W80453   0.205  44.515   0.532
13913W        W80454  14.075  18.107  11.556
13914W        W80455  23.935   9.796   2.205
13915W        W80456   9.697  11.787  14.626
13916W        W80457  10.725   9.173  11.250
13917W        W80458  24.055  41.302  10.758
13918W        W80459  29.593  22.919   3.694
13919W        W80460  21.248  20.965  11.955
13920W        W80461  27.870  38.027  13.221
13921W        W80462   1.363   7.692  14.245
13922W        W80463  16.005  33.939   1.203
13923W        W80464  38.786  20.201   1.020
13924W        W80465  40.372  34.190  11.638
13925W        W80466  40.255  10.089   2.072
13926W        W80467  28.683  33.159  14.484
13927W        W80468  36.350   8.729  14.489
13928W        W80469  42.627  44.729  14.317
13929W        W80470  38.815  28.759   4.195
13930W        W80471   7.863  27.590  11.517
13931W        W80472  20.171   4.285  14.441
13932W        W80473   5.958   3.000  13.120
13933W        W80474  40.303  42.886  10.201
13934W        W80475  17.135  38.561   3.826
13935W        W80476  13.400  37.848   1.306
13936W        W80477  37.963   1.261   0.778
13937W        W80478  32.553   4.764   1.364
13938W        W80479  17.985  21.727   4.557
13939W        W80480  12.835  14.068   4.714
13940W        W80481  44.214   3.529  14.051
13941W        W80482   5.291  35.036   4.396
13942W        W80483   8.367  27.885   3.661
13943W        W80484  18.172  15.026  14.728
13944W        W80485  29.777  44.055   3.178
13945W        W80486  32.181  32.933   1.215
13946W        W80487  11.257  39.901   5.013
13947W        W80488  26.579  44.390  12.709
13948W        W80489  18.596  30.501  13.049
13949W        W80490  30.086  36.318   2.139
13950W        W80491  26.969  13.321  13.036
13951W        W80492  15.984  20.036   1.215
13952W        W80493   8.606  36.579  12.448
13953W        W80494  32.160  18.339   2.700
13954W        W80495  28.159  24.092  12.818
13955W        W80496  27.018  26.022  12.094
13956W        W80497  38.925  19.644   1.695
13957W        W80498   0.812  24.330  14.925
13958W        W80499  10.324   3.290   3.575
13959W        W80500  11.917  37.383  12.586
13960W        W80501  20.284  16.268   4.180
13961W        W80502  32.029   1.938  14.490
13962W        W80503   9.445  10.224  14.411
13963W        W80504  24.374  41.871   4.255
13964W        W80505   7.808  39.278   3.700
13965W        W80506   0.845  27.917  12.668
13966W        W80507  37.772  10.900  14.816
13967W        W80508  14.445   1.495   0.402
13968W        W80509   3.002  17.377  12.375
13969W        W80510  31.738  33.091   3.078
13970W        W80511  23.204  31.344   0.304
13971W        W80512  29.493   9.583   1.426
13972W        W80513  38.367  33.141   4.774
13973W        W80514  26.440  15.720  12.922
13974W        W80515  17.599  23.980   2.903
13975W        W80516  24.497   8.758   3.628
13976W        W80517  16.842  14.746   5.547
13977W        W80518  44.900  30.084   3.919
13978W        W80519  12.269  30.812   2.819
13979W        W80520  28.921  22.602  11.441
13980W        W80521  32.848   9.440  12.076
13981W        W80522   4.147  36.475  11.212
13982W        W80523  42.478   8.408  11.607
13983W        W80524  33.902  44.529   2.634
13984W        W80525  43.268  38.327   2.907
13985W        W80526  28.971   0.730  12.897
13986W        W80527  21.707  35.030   1.680
13987W        W80528  18.767  40.376   1.260
13988W        W80529   9.845  22.596  13.398
13989W        W80530  44.315   3.241   1.805
13990W        W80531  42.945  31.048   2.661
13991W        W80532   8.256   7.256  13.253
13992W        W80533  43.387   8.296   4.554
13993W        W80534  33.028  22.947  11.085
13994W        W80535  37.710  22.103   4.568
13995W        W80536  17.618  24.812  12.048
13996W        W80537  26.896  15.672   3.332
13997W        W80538   5.672   5.304  14.427
13998W        W80539  36.533  30.076  12.974
13999W        W80540  40.334  36.208   1.311
14000W        W80541   8.104  21.079   4.129
14001W        W80542  26.825  28.992   0.957
14002W        W80543  17.081  41.301   4.128
14003W        W80544  40.828  38.065  14.454
14004W        W80545  21.047  20.071   0.251
14005W        W80546  36.971  38.253  14.450
14006W        W80547  39.337  35.351   0.484
14007W        W80548   1.930   4.977   4.485
14008W        W80549  32.987  36.074   4.780
14009W        W80550   5.169  20.734   4.584
14010W        W80551  24.267  14.355  12.088
14011W        W80552  26.028  13.207  11.656
14012W        W80553  34.504  21.386   3.798
14013W        W80554  30.159  35.132  12.962
14014W        W80555  14.821  42.353  13.490
14015W        W80556  11.769  35.505   1.928
14016W        W80557  43.280   6.354   1.471
14017W        W80558  44.107   4.338  12.883
14018W        W80559  18.643   0.484  14.485
14019W        W80560  41.031  43.902  13.855
14020W        W80561   9.889  43.172  10.034
14021W        W80562   1.809  22.728   0.945
14022W        W80563  18.361  43.371  13.098
14023W        W80564  10.738   9.485  14.020
14024W        W80565  42.269  21.580   4.418
14025W        W80566   8.413  34.533   4.787
14026W        W80567  31.420  15.179   9.860
14027W        W80568  16.686   4.419   2.812
14028W        W80569   9.936   7.741  13.539
14029W        W80570   0.395   4.314   0.315
14030W        W80571  16.413  19.376  13.459
14031W        W80572  21.417  35.687  14.022
14032W        W80573  18.624   3.026  12.353
14033W        W80574  12.842  30.304  14.995
14034W        W80575  34.266  12.092   3.204
14035W        W80576  30.737  17.233   4.605
14036W        W80577  19.582  30.603  11.655
14037W        W80578  23.184  30.941  14.886
14038W        W80579  12.940   0.378  11.696
14039W        W80580  30.375  17.839   0.873
14040W        W80581   5.454   2.821   0.293
14041W        W80582  38.062  25.714  12.538
14042W        W80583  32.642   8.667  14.437
14043W        W80584  21.215   7.885  14.513
14044W        W80585  42.456  32.645   4.147
14045W        W80586  19.504  18.100   3.594
14046W        W80587   1.838  28.934   1.236
14047W        W80588   9.103  34.867  12.115
14048W        W80589  19.726   9.286   4.558
14049W        W80590   0.511  17.233   3.067
14050W        W80591  34.511  29.671   2.962
14051W        W80592  23.817  18.767   4.265
14052W        W80593   8.370  13.968  10.620
14053W        W80594   6.334   0.228   3.794
14054W        W80595   4.381  13.686   4.161
14055W        W80596  22.818  44.870  12.446
14056W        W80597   8.251  22.009  12.737
14057W        W80598  23.516  31.881   4.517
14058W        W80599  37.059   2.812   0.801
14059W        W80600  44.375  38.319  11.534
14060W        W80601   8.350  30.605  12.807
14061W        W80602  15.219  35.509   1.277
14062W        W80603   4.959  36.244   1.607
14063W        W80604  17.152  36.868  13.324
14064W        W80605  18.303  21.766   0.475
14065W        W80606  16.838  13.141  14.855
14066W        W80607  43.672   3.458   1.025
14067W        W80608  15.118   7.782   0.292
14068W        W80609  27.265  40.372  11.903
14069W        W80610  28.611  37.509  14.464
14070W        W80611  16.540   1.918   2.262
14071W        W80612  32.799  44.836  11.861
14072W        W80613  11.464  11.849  11.685
14073W        W80614   9.318  26.274  12.571
14074W        W80615   2.304  20.229   2.999
14075W        W80616  11.259  11.371  12.404
14076W        W80617  36.720  16.162   0.855
14077W        W80618  40.700  35.188   3.838
14078W        W80619  33.734  10.180   4.476
14079W        W80620  36.751  23.684  14.890
14080W        W80621  20.747  32.776   4.615
14081W        W80622  32.351  41.666   2.591
14082W        W80623  18.219   0.901  11.536
14083W        W80624  30.830  16.467   0.600
14084W        W80625  29.982  39.866  11.682
14085W        W80626   9.445  25.653   4.151
14086W        W80627   5.355  10.311  11.565
14087W        W80628  42.289  31.365  13.122
14088W        W80629  28.329  11.242  11.962
14089W        W80630  32.950  25.695   3.707
14090W        W80631  36.891  22.058  14.398
14091W        W80632  38.515  23.146   4.347
14092W        W80633  22.889   9.377   2.254
14093W        W80634  20.871  34.575   1.697
14094W        W80635  36.285  30.145  10.766
14095W        W80636  30.160  10.349  12.092
14096W        W80637  26.241   1.902   1.200
14097W        W80638   4.785  27.988  14.473
14098W        W80639  18.119  33.967  10.722
14099W        W80640  19.269  24.446  14.420
14100W        W80641  40.703  24.717   1.724
14101W        W80642  41.342  28.964  14.384
14102W        W80643  15.116  44.208  13.586
14103W        W80644  41.513  15.039   2.129
14104W        W80645  18.600  27.120   1.013
14105W        W80646  29.919  34.748   4.781
14106W        W80647  25.179  26.646   1.405
14107W        W80648  12.791   1.193   4.476
14108W        W80649  13.228  27.492   4.542
14109W        W80650   4.898  36.871  12.516
14110W        W80651  26.467  44.024  13.975
14111W        W80652  43.496  15.753   1.955
14112W        W80653  19.903  37.813   0.661
14113W        W80654   1.777  34.268  12.918
14114W        W80655  13.149   9.006  13.503
14115W        W80656  22.984  21.472  11.161
14116W        W80657   4.790  10.262   9.932
14117W        W80658  26.264   9.319  12.683
14118W        W80659  18.842   0.518   4.148
14119W        W80660  16.200   8.004  12.861
14120W        W80661   6.278   0.506   0.982
14121W        W80662  43.494  12.121   4.006
14122W        W80663  18.371  11.788  14.071
14123W        W80664  10.546  42.288  11.951
14124W        W80665   0.487  20.793   0.419
14125W        W80666   7.655   3.410  12.958
14126W        W80667   5.155  28.055   5.023
14127W        W80668  23.730  44.949  14.273
14128W        W80669  36.018  44.007   0.480
14129W        W80670  42.903  14.037   3.710
14130W        W80671  39.973  19.503  12.606
14131W        W80672  37.088  39.053  12.056
14132W        W80673  22.356  31.610  12.375
14133W        W80674  43.935  28.630   3.346
14134W        W80675   8.810  10.368  12.548
14135W        W80676  31.585  26.813  14.246
14136W        W80677  21.114   3.623   3.365
14137W        W80678   4.440  26.685  11.441
14138W        W80679  24.510  34.590   4.562
14139W        W80680  38.059  16.813  11.165
14140W        W80681  44.794  44.082  12.284
14141W        W80682   9.110  28.547   4.606
14142W        W80683  43.771  10.066  11.587
14143W        W80684  15.231  15.188   4.978
14144W        W80685  19.067  36.617  14.322
14145W        W80686  10.318  32.222  12.312
14146W        W80687  35.461  31.138   1.962
14147W        W80688  18.146  19.263  13.464
14148W        W80689  15.206   2.872   3.691
14149W        W80690  13.720  16.813   2.817
14150W        W80691  26.636   9.645  10.956
14151W        W80692   8.133  19.654   3.146
14152W        W80693   3.637  35.403  14.419
14153W        W80694   0.477  26.523   0.784
14154W        W80695  26.111  25.963  13.910
14155W        W80696  23.234   1.870  11.472
14156W        W80697  41.777  34.338   3.652
14157W        W80698  31.038   5.167  12.530
14158W        W80699  22.169  24.101   2.918
14159W        W80700  26.916  21.726   1.300
14160W        W80701   4.326  41.755  12.603
14161W        W80702  27.352   4.465  12.579
14162W        W80703  15.239   3.730  14.017
14163W        W80704   1.857  32.945   5.431
14164W        W80705  15.117   5.325   2.159
14165W        W80706  31.142  28.064  12.574
14166W        W80707  19.700  17.349  14.050
14167W        W80708   7.149  10.384   3.639
14168W        W80709  11.078  33.093  11.694
14169W        W80710  38.231  39.464  13.365
14170W        W80711  21.999  41.368  10.736
14171W        W80712   5.008   9.232  12.557
14172W        W80713  33.777  39.125   2.374
14173W        W80714  20.961  33.425  11.125
14174W        W80715  27.383  11.208   2.912
14175W        W80716   3.937  37.043  14.196
14176W        W80717  24.102  20.694   4.309
14177W        W80718  15.472   5.917   0.519
14178W        W80719  27.659  27.550   0.280
14179W        W80720   8.184   2.689   3.563
14180W        W80721   5.517   5.351  10.835
14181W        W80722   4.251  27.552   0.020
14182W        W80723  22.769   6.391  13.432
14183W        W80724  30.784  40.789   0.083
14184W        W80725  21.059  21.256   3.173
14185W        W80726  20.682  36.666  12.104
14186W        W80727  43.317  39.824   2.534
14187W        W80728  43.257  42.544  10.412
14188W        W80729   4.356   6.261   2.343
14189W        W80730  21.832  43.737  14.339
14190W        W80731  32.982  26.936   3.018
14191W        W80732  39.006   7.370   0.830
14192W        W80733  41.383  37.906   3.915
14193W        W80734  19.536  27.253   0.308
14194W        W80735  33.675  22.690  14.482
14195W        W80736   3.877  15.184   3.360
14196W        W80737  17.202  42.601  10.714
14197W        W80738   6.448  14.840  11.436
14198W        W80739  30.219   5.542   4.970
14199W        W80740  35.006  40.450  14.785
14200W        W80741  36.832  40.654  13.637
14201W        W80742   0.491  44.798  13.264
14202W        W80743  43.109   1.043  13.021
14203W        W80744  21.478  20.094  13.443
14204W        W80745  12.043  44.886  11.532
14205W        W80746  44.838  38.416  10.867
14206W        W80747  29.963  11.122  13.928
14207W        W80748  14.693   0.438   1.912
14208W        W80749   5.835   2.898  11.324
14209W        W80750  15.399   6.966   4.851
14210W        W80751  13.948  13.367   4.201
14211W        W80752  17.810  39.441  11.339
14212W        W80753   4.334  31.595  10.780
14213W        W80754  42.305  42.016  13.520
14214W        W80755  23.548  40.400  11.461
14215W        W80756  28.731  13.701  12.885
14216W        W80757   4.159   5.024   1.893
14217W        W80758   7.462   6.234   4.524
14218W        W80759  35.058  43.917   2.387
14219W        W80760  29.498   8.762  10.764
14220W        W80761  33.326   6.852   2.510
14221W        W80762  35.216   3.756   2.129
14222W        W80763  34.375  34.602   3.963
14223W        W80764  32.040  36.866   2.910
14224W        W80765  39.475  23.125   2.389
14225W        W80766  21.029  22.759  12.883
14226W        W80767  10.271   8.705   0.001
14227W        W80768  28.467  40.456  11.471
14228W        W80769   7.759  32.493  12.377
14229W        W80770  27.418  20.640   0.951
14230W        W80771  16.150  31.902   1.511
14231W        W80772  15.599  11.177  11.830
14232W        W80773  32.168  19.691   3.892
14233W        W80774  38.757  31.972   4.121
14234W        W80775  16.297  15.745  14.268
14235W        W80776  21.753  23.008  13.929
14236W        W80777  21.750   7.519   3.197
14237W        W80778  33.027   6.276  12.853
14238W        W80779  43.060  29.564   3.700
14239W        W80780  28.038  28.641   4.073
14240W        W80781  16.699  28.637  14.372
14241W        W80782  13.182  33.270  13.018
14242W        W80783   4.609   4.427   5.816
14243W        W80784  36.977  17.566   2.315
14244W        W80785  12.816   7.771  10.595
14245W        W80786  35.061   5.093   0.968
14246W        W80787   8.168  36.909   9.912
14247W        W80788   0.456   9.335  13.962
14248W        W80789  23.174   1.998  13.864
14249W        W80790   4.789  31.610   0.191
14250W        W80791  19.104   8.600  13.915
14251W        W80792   0.814  35.171   3.583
14252W        W80793  32.026  21.318   4.163
14253W        W80794  22.755  34.130   1.933
14254W        W80795  20.611  26.013   4.227
14255W        W80796  44.429  27.726   1.482
14256W        W80797   9.801  11.980  13.127
14257W        W80798   1.909  39.871  10.596
14258W        W80799  17.659   4.861  14.492
14259W        W80800  43.873  11.543  14.513
14260W        W80801   9.565  13.535   1.027
14261W        W80802  11.744  28.944  12.309
14262W        W80803   0.965  39.588   0.887
14263W        W80804  20.753  20.134  13.995
14264W        W80805  35.306  37.689   0.447
14265W        W80806  23.799  18.726   2.711
14266W        W80807   2.863  18.194   2.095
14267W        W80808  21.163  33.995  14.566
14268W        W80809  20.889  18.569   2.664
14269W        W80810  19.236  11.344   2.036
14270W        W80811  27.124  41.624  11.693
14271W        W80812  28.896   8.901  13.809
14272W        W80813   9.295   9.265   1.586
14273W        W80814  39.280  43.746   2.755
14274W        W80815  27.533  40.376  10.887
14275W        W80816   5.250   5.807  11.036
14276W        W80817   6.933  21.559   1.906
14277W        W80818  40.588  37.362   4.179
14278W        W80819  20.365  10.680   0.493
14279W        W80820  19.270  24.557   3.227
14280W        W80821  22.381  18.901   1.562
14281W        W80822  23.198   9.732   3.094
14282W        W80823  36.845  26.646  12.881
14283W        W80824  40.971   5.392  12.565
14284W        W80825  16.624  43.189  14.913
14285W        W80826  15.057  35.172   4.575
14286W        W80827  13.590  21.165   0.176
14287W        W80828  29.472  26.929   2.818
14288W        W80829  35.614  11.229   0.316
14289W        W80830  40.425  20.800   4.600
14290W        W80831  39.629  34.359   0.419
14291W        W80832   5.309  20.114   0.800
14292W        W80833  30.810  25.610  10.953
14293W        W80834  43.949  32.928   4.407
14294W        W80835   1.640  11.996   1.817
14295W        W80836  35.079  15.552   0.249
14296W        W80837  37.130  40.847  10.621
14297W        W80838   9.823  32.343   3.763
14298W        W80839   0.996  40.516   0.430
14299W        W80840  18.015   1.250   2.876
14300W        W80841  17.684   2.404   1.421
14301W        W80842  20.451   0.354  14.806
14302W        W80843  24.177  28.430  12.775
14303W        W80844  23.568  40.599  10.559
14304W        W80845   9.071  23.018   4.617
14305W        W80846  29.124  28.127   2.845
14306W        W80847   3.710  24.703   3.282
14307W        W80848   4.028  32.346   0.801
14308W        W80849  14.517   9.309   4.374
14309W        W80850  17.865  11.863   3.393
14310W        W80851  35.570  43.911   2.358
14311W        W80852   5.443  24.140  13.595
14312W        W80853  26.665  22.455  14.742
14313W        W80854   8.901  38.981  13.891
14314W        W80855  31.506  11.890  14.879
14315W        W80856  14.259  16.914   4.147
14316W        W80857  36.480  21.733  14.191
14317W        W80858  21.519  30.534   2.782
14318W        W80859  21.021  15.504  12.918
14319W        W80860  35.847   4.531   3.087
14320W        W80861  44.265  43.287   3.323
14321W        W80862  43.358  28.623  12.971
14322W        W80863  20.968  20.489  11.108
14323W        W80864   3.308  21.697  12.480
14324W        W80865  24.806   3.354  13.351
14325W        W80866   7.117   6.766  11.218
14326W        W80867   5.750  15.734  13.337
14327W        W80868  30.958   3.149   3.752
14328W        W80869   7.948  37.063   1.198
14329W        W80870   7.142  40.418   3.223
14330W        W80871  35.878   7.660  11.928
14331W        W80872  43.821   3.932   0.230
14332W        W80873  42.864  22.943   0.238
14333W        W80874   4.866  19.662   4.166
14334W        W80875   8.907  44.458  14.373
14335W        W80876  16.205  16.461  12.426
14336W        W80877   4.910   3.713  14.967
14337W        W80878  36.759  11.512  14.284
14338W        W80879  28.135  39.431  14.418
14339W        W80880  24.283  12.900   4.412
14340W        W80881  42.882   3.229   0.382
14341W        W80882  15.382  24.562  10.775
14342W        W80883  22.011  27.362  14.772
14343W        W80884  42.841  40.026  11.980
14344W        W80885   8.938  44.206  13.895
14345W        W80886   7.121  32.513  13.467
14346W        W80887  30.608  24.955   2.546
14347W        W80888  15.106  34.236   0.735
14348W        W80889  36.943  28.425   4.656
14349W        W80890  17.709  34.360  13.811
14350W        W80891  28.719  14.269  13.428
14351W        W80892  37.565  10.045   3.568
14352W        W80893  19.174  23.460  11.190
14353W        W80894  35.419  12.664  14.889
14354W        W80895  13.378  12.655   0.463
14355W        W80896  16.831  31.076  13.328
14356W        W80897  35.282  32.624  11.187
14357W        W80898  32.577  24.344   1.274
14358W        W80899  34.583  33.853  11.182
14359W        W80900   4.198  34.093   0.260
14360W        W80901  13.672  24.009   2.303
14361W        W80902  32.136   7.932   2.363
14362W        W80903  12.764  38.184  11.163
14363W        W80904   3.119  16.081   4.150
14364W        W80905   1.780   6.897   0.700
14365W        W80906  32.432   0.766  14.888
14366W        W80907  39.404  30.180  11.608
14367W        W80908  43.416   4.408  14.457
14368W        W80909  21.026  36.466   2.985
14369W        W80910  41.990  37.566  14.807
14370W        W80911  43.597  16.749   4.669
14371W        W80912  37.108   7.959  10.723
14372W        W80913   1.603  12.745  12.970
14373W        W80914  33.644  13.886   4.889
14374W        W80915  34.332  42.414  14.479
14375W        W80916  17.807   2.485  13.338
14376W        W80917  27.731  32.508   3.710
14377W        W80918   2.443   9.902   0.274
14378W        W80919  26.384  18.709   3.366
14379W        W80920  39.058  21.785   1.744
14380W        W80921   1.596  41.543  14.841
14381W        W80922  10.303   3.432   4.063
14382W        W80923  33.057   1.983  14.283
14383W        W80924  20.637  40.977  14.414
14384W        W80925  21.934  40.288   0.060
14385W        W80926  33.121  28.932   4.280
14386W        W80927  36.434  32.699   1.915
14387W        W80928  44.055  19.734  14.518
14388W        W80929   9.760  12.595   2.781
14389W        W80930  39.830  24.191   4.190
14390W        W80931  27.577  31.503  10.720
14391W        W80932  27.833  15.747  13.897
14392W        W80933  39.814  44.891  13.926
14393W        W80934   0.761   5.951   2.722
14394W        W80935  13.263  40.288   2.689
14395W        W80936  21.038   8.113  12.192
14396W        W80937  31.083  29.907   0.778
14397W        W80938   5.518  31.134  10.042
14398W        W80939  22.548   4.368  10.970
14399W        W80940   9.208  16.522  11.723
14400W        W80941  22.503  24.931   3.785
14401W        W80942  22.098  12.744  10.521
14402W        W80943   7.341  13.837   1.348
14403W        W80944  36.130  17.655   1.370
14404W        W80945  14.779  38.543   2.205
14405W        W80946  23.080  22.940  14.016
14406W        W80947  31.557   7.306   1.503
14407W        W80948   8.254   5.524  14.952
14408W        W80949   5.202   3.171  12.635
14409W        W80950  29.553  26.164  12.183
14410W        W80951   0.743  20.699   3.770
14411W        W80952   8.664   2.924   2.484
14412W        W80953  35.868  40.038   2.322
14413W        W80954  16.134  25.439  13.538
14414W        W80955  25.785  12.005   1.309
14415W        W80956   0.548  21.035   4.206
14416W        W80957  17.736  32.109   1.400
14417W        W80958  15.789  16.023  14.004
14418W        W80959   2.689  38.602   1.372
14419W        W80960  27.414   7.951  13.091
14420W        W80961  39.988  31.336   2.487
14421W        W80962  19.682  44.949   1.336
14422W        W80963   4.517  10.665  11.192
14423W        W80964  35.167  25.551   1.107
14424W        W80965  23.788  40.184   4.740
14425W        W80966  37.036  30.550  10.506
14426W        W80967  32.747   9.076  13.419
14427W        W80968  22.739  32.069   2.267
14428W        W80969  31.608  33.972   0.830
14429W        W80970   1.568  27.637   1.953
14430W        W80971  11.249   0.274  14.928
14431W        W80972  24.975   5.974  11.106
14432W        W80973   0.216   8.141   1.908
14433W        W80974  29.479  36.139  11.786
14434W        W80975  21.727  17.628  13.380
14435W        W80976  13.837  39.803  13.473
14436W        W80977  14.631  19.705   2.911
14437W        W80978  15.388  12.982  12.073
14438W        W80979  44.379  31.521  14.903
14439W        W80980  15.064  35.452  10.372
14440W        W80981  26.562  16.546  11.704
14441W        W80982  39.530  22.511  13.971
14442W        W80983   7.263  17.282  14.961
14443W        W80984  27.991  34.528  12.107
14444W        W80985  23.847  18.543  13.580
14445W        W80986   1.522  44.087   3.723
14446W        W80987  38.009   8.447  14.810
14447W        W80988  17.127   5.220   4.083
14448W        W80989  39.939  25.684  14.238
14449W        W80990   1.225   2.662   2.728
14450W        W80991  14.125   5.718  11.727
14451W        W80992  31.113   7.260  11.566
14452W        W80993  15.556  16.195  10.707
14453W        W80994  42.862   9.818  12.511
14454W        W80995  23.091  21.466   3.384
14455W        W80996  20.138  36.677   2.176
14456W        W80997  25.930   8.658   0.360
14457W        W80998  21.485  26.630   3.885
14458W        W80999  21.773   5.912   1.259
14459W        W81000  28.673   3.486  14.246
14460W        W81001  13.384  27.727  13.797
14461W        W81002  41.376  19.126  11.804
14462W        W81003  41.679  42.814   2.188
14463W        W81004  24.948  31.376  12.576
14464W        W81005  10.300  15.359  13.040
14465W        W81006  30.394  12.269  14.579
14466W        W81007   6.721  19.527   1.957
14467W        W81008  42.942   3.732   4.624
14468W        W81009  36.956  26.441  14.418
14469W        W81010  43.071  14.710  14.076
14470W        W81011  32.080   8.145  12.271
14471W        W81012  14.854  36.942  11.056
14472W        W81013  20.787  23.978   3.233
14473W        W81014  29.017  43.879   0.003
14474W        W81015   0.810  35.961   3.296
14475W        W81016  18.479  14.492   1.970
14476W        W81017  27.972  33.624   1.869
14477W        W81018  14.544  17.544  12.538
14478W        W81019  37.911  13.556  12.663
14479W        W81020  20.533  21.179   4.053
14480W        W81021   0.668   0.868   4.830
14481W        W81022  41.525  21.983   1.835
14482W        W81023  24.184  13.617  11.453
14483W        W81024  24.678  26.279   4.856
14484W        W81025   5.193  28.187  13.095
14485W        W81026  29.519  44.863  11.741
14486W        W81027  34.531  22.020   1.691
14487W        W81028  31.609  35.467   2.659
14488W        W81029   5.764  33.144   1.190
14489W        W81030   3.292   7.616  13.314
14490W        W81031   3.768   5.365   0.371
14491W        W81032  39.048  25.638   4.544
14492W        W81033  16.066  21.558   2.744
14493W        W81034  17.688  43.077   3.554
14494W        W81035   8.439  30.655  13.312
14495W        W81036  34.585  10.415   1.520
14496W        W81037  42.893   8.160  10.761
14497W        W81038  19.536   0.661  14.976
14498W        W81039   6.869  30.590  14.532
14499W        W81040  32.425   8.444  14.901
14500W        W81041  40.915   8.230   1.349
14501W        W81042   3.904  31.921  14.404
14502W        W81043  29.600   1.137   0.410
14503W        W81044   5.943  40.259  12.108
14504W        W81045   7.393  27.071   3.311
14505W        W81046  28.012  27.676  10.730
14506W        W81047  37.078  39.888   1.817
14507W        W81048  10.938  23.742   1.481
14508W        W81049  40.747  19.612  11.630
14509W        W81050  11.386   9.362  14.259
14510W        W81051  19.087  38.915   3.011
14511W        W81052  29.240  31.301  12.962
14512W        W81053  30.447  36.803  12.421
14513W        W81054  20.249   7.611  14.125
14514W        W81055   8.207  24.037   1.887
14515W        W81056  29.598   9.004  11.492
14516W        W81057  44.627  20.484  13.948
14517W        W81058  29.703  44.828  13.553
14518W        W81059  44.388   5.349  13.994
14519W        W81060   5.895   7.916  14.239
14520W        W81061   0.882   2.700  11.096
14521W        W81062   5.780  21.441   0.432
14522W        W81063  16.457  21.478  11.228
14523W        W81064   6.992  25.094   1.151
14524W        W81065  18.578  22.136   3.257
14525W        W81066  15.993  12.789   3.323
14526W        W81067  26.263  29.664  12.055
14527W        W81068  10.772  11.272   0.638
14528W        W81069   2.968  34.900   4.142
14529W        W81070  17.879   8.180   0.199
14530W        W81071   8.816  24.241   0.005
14531W        W81072  30.369   2.753   1.540
14532W        W81073  18.244  23.201  13.031
14533W        W81074  18.287  26.583  10.920
14534W        W81075  29.281   7.194  11.386
14535W        W81076   1.030  33.395   2.245
14536W        W81077  28.558  14.576   0.189
14537W        W81078  31.010   7.205   0.850
14538W        W81079  14.187  29.093  14.285
14539W        W81080  25.650  37.706  14.489
14540W        W81081  19.864  21.518   3.309
14541W        W81082   6.248  11.087  13.841
14542W        W81083  40.396  32.715   0.764
14543W        W81084  23.010   1.405   0.833
14544W        W81085  34.763  42.702  11.252
14545W        W81086  18.215  21.443  10.758
14546W        W81087  16.286  32.583   4.545
14547W        W81088  16.083  29.862  10.290
14548W        W81089  18.289   6.495   4.550
14549W        W81090  42.529  40.217  11.378
14550W        W81091   2.788   1.870   2.192
14551W        W81092  36.126  21.190  13.027
14552W        W81093  35.767  22.661   3.285
14553W        W81094   9.458  31.024  13.429
14554W        W81095  25.106  30.383   0.219
14555W        W81096  36.690  44.956  12.922
14556W        W81097  44.915  41.634  11.213
14557W        W81098   2.522  16.018  13.127
14558W        W81099   3.977  20.737   3.577
14559W        W81100   2.382  17.106   2.671
14560W        W81101   8.931  42.035  11.263
14561W        W81102  44.882  17.276  10.715
14562W        W81103  39.865  22.025  10.625
14563W        W81104  34.834  38.389  11.145
14564W        W81105  14.941   7.281   0.319
14565W        W81106  12.160   1.864  12.489
14566W        W81107  43.060  18.276   1.776
14567W        W81108  13.561  19.130  12.515
14568W        W81109  35.184  33.256  10.630
14569W        W81110  43.352  22.737  14.400
14570W        W81111  24.739  36.841  12.627
14571W        W81112  12.674   1.964   2.918
14572W        W81113  35.345  35.239  11.495
14573W        W81114   7.902  23.187   0.529
14574W        W81115  44.244  23.825  14.354
14575W        W81116  43.918  44.729   2.162
14576W        W81117  19.753  12.117   0.563
14577W        W81118  24.800  14.351  14.916
14578W        W81119   8.233  25.320   2.912
14579W        W81120  22.313   8.154  14.928
14580W        W81121  23.042  26.694  11.004
14581W        W81122  32.579  14.301  11.067
14582W        W81123  13.125  11.622  13.830
14583W        W81124   0.937  13.572   1.720
14584W        W81125  24.944   8.672  12.080
14585W        W81126  37.021  39.077  13.395
14586W        W81127  35.575   7.676   1.339
14587W        W81128  19.901  41.511  12.909
14588W        W81129   8.361  32.610  12.982
14589W        W81130  22.502   4.820   3.120
14590W        W81131  43.088  35.038   3.699
14591W        W81132  31.344   1.717   4.184
14592W        W81133   5.769  18.288   4.710
14593W        W81134   7.814  42.709  11.992
14594W        W81135   5.739  41.981  10.574
14595W        W81136  12.591  35.517   4.217
14596W        W81137  13.308  11.737   0.203
14597W        W81138  33.082  43.974   3.073
14598W        W81139   4.522  17.596  14.169
14599W        W81140  29.828  26.041  11.174
14600W        W81141  42.256  25.173  14.399
14601W        W81142  15.224   2.939  13.089
14602W        W81143  35.885  22.084  11.126
14603W        W81144  27.089  44.432   1.227
14604W        W81145  30.421   1.933  12.527
14605W        W81146  10.492  15.231  10.257
14606W        W81147  29.938  37.945   1.035
14607W        W81148  29.105   1.611  14.324
14608W        W81149  42.998   8.310  12.441
14609W        W81150  11.081  28.825   0.841
14610W        W81151  38.539  26.074   1.415
14611W        W81152  12.053  30.964   4.661
14612W        W81153  22.654  26.947   3.083
14613W        W81154   9.656  25.543  10.752
14614W        W81155  40.935   8.806   0.272
14615W        W81156  25.959  20.939   1.705
14616W        W81157  43.696   0.912   9.941
14617W        W81158   3.030  10.526  13.641
14618W        W81159  15.119   8.243   3.284
14619W        W81160  21.284   9.209   4.520
14620W        W81161  41.879  27.421  14.537
14621W        W81162  11.684  38.743   2.799
14622W        W81163  44.305  33.657  11.100
14623W        W81164  21.291  15.405   9.697
14624W        W81165  32.931  13.304   2.739
14625W        W81166  36.071  29.671   0.299
14626W        W81167  37.575  40.954  11.907
14627W        W81168  44.904  13.101  14.489
14628W        W81169  41.818   0.835  12.578
14629W        W81170  41.892  40.493   4.826
14630W        W81171  38.154   8.941  13.027
14631W        W81172  40.461  28.403  13.931
14632W        W81173  30.937  43.849   2.242
14633W        W81174   9.458  27.273   2.526
14634W        W81175  11.646  36.832   2.799
14635W        W81176  19.591  36.070   4.284
14636W        W81177  12.751  16.320   4.163
14637W        W81178  13.881  23.660  11.996
14638W        W81179   8.727  13.487   5.005
14639W        W81180  17.603  16.404  12.196
14640W        W81181   2.811  42.563   3.422
14641W        W81182  37.886  18.587  13.768
14642W        W81183  23.035   5.143   2.214
14643W        W81184   3.876  15.676  12.561
14644W        W81185  24.573  41.581   2.775
14645W        W81186   8.948  32.868  13.315
14646W        W81187  43.508  43.834   4.674
14647W        W81188   6.209  28.164   0.419
14648W        W81189  20.592   1.904  10.823
14649W        W81190  21.652  44.776   1.882
14650W        W81191  12.435  22.519  13.658
14651W        W81192  27.086   0.827  10.942
14652W        W81193  42.469  35.340  12.804
14653W        W81194  17.902  13.319   4.477
14654W        W81195  22.111  18.638   2.727
14655W        W81196  29.683  28.128  11.544
14656W        W81197  40.209  37.806  11.172
14657W        W81198  14.812  15.096   2.339
14658W        W81199  30.091  14.183  14.067
14659W        W81200  35.171  28.593   2.698
14660W        W81201  18.243   4.168   4.111
14661W        W81202   7.420   1.223  10.149
14662W        W81203  38.610  11.146   2.516
14663W        W81204   5.628  13.334   2.126
14664W        W81205   3.975  12.628  11.055
14665W        W81206  22.681   8.484   3.784
14666W        W81207  40.956  22.340   0.702
14667W        W81208  42.219  32.413  12.926
14668W        W81209   4.172  24.527  12.953
14669W        W81210  16.290  29.702  13.827
14670W        W81211  14.013  11.105   4.435
14671W        W81212   0.825   8.624   4.956
14672W        W81213  24.113  25.093  11.261
14673W        W81214  37.383  35.928   0.926
14674W        W81215  41.946  35.384  13.499
14675W        W81216  15.264   8.358   4.361
14676W        W81217  37.826  33.617  14.050
14677W        W81218  16.805  34.147   3.145
14678W        W81219  12.200  40.665   0.880
14679W        W81220  40.863  32.573   3.865
14680W        W81221  31.440  35.917   2.457
14681W        W81222  14.717  35.542   0.188
14682W        W81223  19.891  37.349  14.314
14683W        W81224   3.391  38.373  14.487
14684W        W81225  12.677  29.895   2.670
14685W        W81226  13.856   3.267   1.421
14686W        W81227  16.343  44.268   0.455
14687W        W81228  14.775   2.277   0.220
14688W        W81229  21.639  22.085   1.245
14689W        W81230  34.494   5.338  13.574
14690W        W81231  35.439   1.271   4.576
14691W        W81232  11.415  41.492  10.072
14692W        W81233   1.654   0.926  11.698
14693W        W81234  13.624  35.571   3.265
14694W        W81235  13.917   5.911  12.145
14695W        W81236  29.313  31.644  14.289
14696W        W81237  40.154  36.822   2.377
14697W        W81238  28.650  44.884  13.559
14698W        W81239  30.842  18.764  14.983
14699W        W81240  40.893  20.106   0.257
14700W        W81241  41.435  30.522   3.280
14701W        W81242   1.534  11.419   3.292
14702W        W81243  22.019  19.390  11.660
14703W        W81244   6.188  41.423  12.947
14704W        W81245  27.182   1.696   4.456
14705W        W81246  38.859   8.994   9.893
14706W        W81247   4.719   5.559  10.463
14707W        W81248  21.140  39.979   2.700
14708W        W81249   6.441   4.491   0.289
14709W        W81250  25.307  29.777   3.701
14710W        W81251  20.097  18.568   0.953
14711W        W81252   7.069  36.671  13.346
14712W        W81253  20.098  16.034  13.919
14713W        W81254  19.449   3.211   2.056
14714W        W81255   9.452  14.640   2.367
14715W        W81256  28.962  23.477  12.136
14716W        W81257  36.741  14.769   2.233
14717W        W81258  39.074  10.531   4.132
14718W        W81259  12.261  10.933   2.228
14719W        W81260  10.021  30.087   4.299
14720W        W81261   3.429  23.913   5.379
14721W        W81262   9.760  10.655   1.241
14722W        W81263   3.375   8.645  11.089
14723W        W81264  28.578  12.825   1.418
14724W        W81265  16.874  25.494  13.078
14725W        W81266  38.885   6.719   2.408
14726W        W81267   1.974   9.208  11.583
14727W        W81268  21.083  13.694   2.231
14728W        W81269  41.974  16.219   2.487
14729W        W81270  18.617  40.924   1.351
14730W        W81271  41.559  27.372   3.766
14731W        W81272  32.643  25.566   4.170
14732W        W81273  14.855  11.953  14.487
14733W        W81274  24.504  29.400   0.900
14734W        W81275   7.965  28.653  13.808
14735W        W81276  23.282  13.599   1.686
14736W        W81277  10.522  11.345   3.397
14737W        W81278  26.608  30.410   4.072
14738W        W81279  17.475  15.433  11.306
14739W        W81280  27.458   5.448   4.341
14740W        W81281  31.805   2.749  13.913
14741W        W81282  23.039  21.983   3.507
14742W        W81283   2.454  19.960  14.049
14743W        W81284  13.315  22.201  12.739
14744W        W81285  25.245   4.844   5.278
14745W        W81286  10.296  32.448   5.020
14746W        W81287  17.968  12.967  14.550
14747W        W81288  10.015  21.006  11.385
14748W        W81289   4.325  27.159  14.141
14749W        W81290   5.392  30.902  11.430
14750W        W81291  12.021   1.047  11.843
14751W        W81292  30.015  25.246   0.922
14752W        W81293  40.219   9.267  13.299
14753W        W81294  28.643  34.609   4.826
14754W        W81295  26.241  43.950  10.752
14755W        W81296   3.205   2.302  13.311
14756W        W81297  18.131   1.281   1.918
14757W        W81298  18.634   0.744  14.920
14758W        W81299  27.576  21.378  13.783
14759W        W81300  34.666  34.718  13.616
14760W        W81301  12.114  35.979   0.268
14761W        W81302  40.393  32.369  10.533
14762W        W81303  15.204  21.159  13.177
14763W        W81304  15.674  36.186   1.205
14764W        W81305  30.922  24.563   2.448
14765W        W81306  19.640  19.027   3.132
14766W        W81307  17.037  40.090   4.980
14767W        W81308  27.918  11.227   1.222
14768W        W81309  25.731  14.819   3.659
14769W        W81310   0.838   1.270  14.972
14770W        W81311  15.252  35.349   9.888
14771W        W81312   5.111  41.944   0.447
14772W        W81313   5.245   2.357  11.607
14773W        W81314  13.744  19.707   0.995
14774W        W81315  39.621  34.827   3.656
14775W        W81316  28.654  16.318   4.674
14776W        W81317  17.460   1.451  14.437
14777W        W81318  30.157   8.682  14.740
14778W        W81319   5.171  13.092   2.891
14779W        W81320   3.596  28.078  13.070
14780W        W81321  13.624  19.445  11.593
14781W        W81322  33.394  32.641  14.848
14782W        W81323  37.291   4.854  14.670
14783W        W81324  18.809  10.370   3.144
14784W        W81325  36.380  34.180   0.728
14785W        W81326  14.367  11.264  10.381
14786W        W81327  28.036   3.918  13.041
14787W        W81328  21.149  15.469  11.943
14788W        W81329  35.550  34.591  12.972
14789W        W81330  17.808   8.703  14.295
14790W        W81331  19.206   2.261   0.472
14791W        W81332  12.159   6.394  13.306
14792W        W81333  11.142  22.448   0.986
14793W        W81334  16.720  29.987  13.985
14794W        W81335  32.025  33.104   2.176
14795W        W81336  41.019  23.162   2.327
14796W        W81337  28.117   2.292   0.930
14797W        W81338   5.172  41.275  13.875
14798W        W81339  33.470  17.666   3.333
14799W        W81340  17.298  36.952   2.153
14800W        W81341  20.397  14.160  14.238
14801W        W81342   7.307  21.206   1.836
14802W        W81343  19.070   7.209  12.508
14803W        W81344   8.282  14.186  13.169
14804W        W81345  33.866  18.049  14.529
14805W        W81346  31.482  27.560   3.001
14806W        W81347  15.299  28.433  12.075
14807W        W81348  14.768  34.774   1.711
14808W        W81349  34.864  30.543  14.889
14809W        W81350   0.406  15.563  13.058
14810W        W81351  29.459   9.018   1.467
14811W        W81352  16.260  42.374   4.185
14812W        W81353   7.879  26.617   0.538
14813W        W81354  25.093  18.962   0.389
14814W        W81355  29.940  40.371   3.750
14815W        W81356  42.710  17.301   0.983
14816W        W81357  23.007   4.648  12.070
14817W        W81358   1.214   2.734  12.379
14818W        W81359   2.542  28.952   2.290
14819W        W81360  34.264  18.316  14.302
14820W        W81361   6.608  37.712   4.829
14821W        W81362  37.778  20.274  13.518
14822W        W81363  25.916  13.443   2.177
14823W        W81364  36.973  33.217  10.748
14824W        W81365  36.732  19.208   4.576
14825W        W81366  40.769  19.647   0.028
14826W        W81367  29.641  39.318   2.262
14827W        W81368   8.000  20.872  14.191
14828W        W81369  23.984  39.894  10.932
14829W        W81370  35.460  20.703  14.347
14830W        W81371  42.433  35.996   4.610
14831W        W81372  33.469  36.365  10.732
14832W        W81373  44.388  42.301  14.724
14833W        W81374   8.441  13.068  10.932
14834W        W81375  10.043  32.619   1.737
14835W        W81376  25.484  37.550   0.883
14836W        W81377   7.828  20.078   1.459
14837W        W81378  26.475  25.694   3.591
14838W        W81379  19.157  18.834   3.275
14839W        W81380  42.872  19.851   4.148
14840W        W81381  34.922  33.366  13.970
14841W        W81382  31.154  37.605   1.310
14842W        W81383  17.099  43.672  13.517
14843W        W81384  43.390  43.872   3.707
14844W        W81385  13.776   3.835  11.253
14845W        W81386  19.090  23.780   2.736
14846W        W81387   7.296  12.812   4.057
14847W        W81388  27.445  29.069  12.169
14848W        W81389  28.735  33.543  11.561
14849W        W81390   8.821  42.443   2.870
14850W        W81391  23.999   3.767  13.145
14851W        W81392  22.762   9.357  11.744
14852W        W81393  41.010   7.592  13.258
14853W        W81394  13.081  38.152   1.585
14854W        W81395  42.591  35.396  11.016
14855W        W81396  30.388  31.751  11.383
14856W        W81397  33.982   9.408   0.339
14857W        W81398  31.679  22.288   1.719
14858W        W81399  24.512  41.540  10.790
14859W        W81400  14.273   9.660  13.840
14860W        W81401  41.376  15.356   3.599
14861W        W81402  30.379  13.889   2.120
14862W        W81403  28.075  13.707   0.084
14863W        W81404  38.353   3.407   1.494
14864W        W81405  37.897  15.066  13.569
14865W        W81406  30.983  14.059  13.927
14866W        W81407   1.883  22.706  12.110
14867W        W81408  15.698  16.828   3.555
14868W        W81409  24.494   7.903  11.345
14869W        W81410  11.184   8.958  11.150
14870W        W81411  19.607   0.856  14.500
14871W        W81412  44.911  35.949   3.254
14872W        W81413  33.956   7.848  12.433
14873W        W81414  34.718  39.042   0.203
14874W        W81415   9.315   5.263   4.014
14875W        W81416  30.582  16.771  11.615
14876W        W81417  26.368  41.796   2.309
14877W        W81418  15.214  35.455   0.358
14878W        W81419  42.042   1.283  12.382
14879W        W81420  25.603  12.348  14.823
14880W        W81421  16.672  31.851   1.783
14881W        W81422  35.890  25.799  14.411
14882W        W81423  42.688  30.649  10.927
14883W        W81424   8.846  13.376   2.646
14884W        W81425  36.019  12.679   1.701
14885W        W81426   3.461  14.610  12.553
14886W        W81427  43.507  26.543  14.893
14887W        W81428  24.498  40.626  14.944
14888W        W81429   8.325  27.989   0.904
14889W        W81430   4.700   8.353  14.073
14890W        W81431  41.747  31.014  11.079
14891W        W81432  37.291  27.541  14.874
14892W        W81433  37.015  31.978  13.542
14893W        W81434  15.422   6.481   2.794
14894W        W81435  18.970   0.232  11.605
14895W        W81436  33.611  20.687  14.033
14896W        W81437  33.284   9.036   0.834
14897W        W81438  44.427  20.543   2.690
14898W        W81439  28.020   9.807  13.304
14899W        W81440  11.758  40.453  10.159
14900W        W81441   2.890  11.229  13.931
14901W        W81442  28.358  29.848   0.931
14902W        W81443  34.143  10.394  10.776
14903W        W81444   4.950  33.827   1.268
14904W        W81445  25.401  30.810   3.654
14905W        W81446  29.951   6.364   2.139
14906W        W81447  17.693  21.029  12.258
14907W        W81448  29.584   4.726   0.090
14908W        W81449  25.635  32.690  10.687
14909W        W81450   6.713  28.410  12.521
14910W        W81451  12.363  20.054   1.915
14911W        W81452  29.523   9.213  11.022
14912W        W81453   3.267  24.812  12.515
14913W        W81454   2.159  32.050   3.191
14914W        W81455  43.905  17.239  12.674
14915W        W81456   1.902  29.943  14.729
14916W        W81457  13.665   1.989  13.465
14917W        W81458  44.454  33.498  14.553
14918W        W81459  24.921   0.375  12.663
14919W        W81460  26.777  24.750  13.709
14920W        W81461  16.331   4.945   1.009
14921W        W81462  33.401  17.523   2.307
14922W        W81463  26.582  37.026  12.456
14923W        W81464   3.903  13.311  12.111
14924W        W81465  44.039  10.106   2.274
14925W        W81466  25.023  25.018   1.378
14926W        W81467  26.199  41.420  14.004
14927W        W81468  17.755  42.863  13.278
14928W        W81469  25.947  36.510   3.581
14929W        W81470   4.580  42.578  10.567
14930W        W81471  44.228  13.363   1.184
14931W        W81472  17.162  33.785  13.533
14932W        W81473  36.876  30.122  14.831
14933W        W81474   4.003   1.628  11.147
14934W        W81475  13.830  30.163  13.835
14935W        W81476   8.396  22.351   1.832
14936W        W81477   3.879  30.435  10.650
14937W        W81478  38.413   8.250  11.623
14938W        W81479  37.246   9.269   1.691
14939W        W81480  14.820  25.061   2.434
14940W        W81481   3.300   9.865   2.399
14941W        W81482  35.811   6.722   4.350
14942W        W81483  30.546  31.276  11.239
14943W        W81484  38.869  40.251  13.052
14944W        W81485  43.679  15.227   0.004
14945W        W81486  29.128  10.085  11.973
14946W        W81487   0.406  20.195   2.712
14947W        W81488  22.468  40.820  12.646
14948W        W81489  28.560   1.460   0.760
14949W        W81490  42.505  31.894   0.059
14950W        W81491  15.481  14.307   4.767
14951W        W81492  29.594  38.347  10.703
14952W        W81493  11.695   7.476   2.737
14953W        W81494  41.876  41.050  12.478
14954W        W81495  23.168  23.691   3.752
14955W        W81496  33.466  27.002   0.769
14956W        W81497  38.431  25.933   3.661
14957W        W81498  23.767  41.811  11.149
14958W        W81499  17.960  41.888   4.025
14959W        W81500  11.182  35.170   4.084
14960W        W81501  44.765  40.101  11.971
14961W        W81502  25.666  13.294  13.591
14962W        W81503  10.812   7.891  12.550
14963W        W81504  31.817  35.482   4.107
14964W        W81505  12.826  24.416   0.949
14965W        W81506  42.359  44.159  10.659
14966W        W81507   0.356   5.785  11.881
14967W        W81508  31.529  20.098   0.353
14968W        W81509  41.771  43.940   0.924
14969W        W81510  14.588  38.923   3.740
14970W        W81511  29.471  12.845  14.999
14971W        W81512  11.188  25.225  12.104
14972W        W81513  31.714  42.437   2.916
14973W        W81514  24.154  30.695   1.400
14974W        W81515   2.973  17.899  12.300
14975W        W81516  34.869  12.159   2.651
14976W        W81517   3.847  20.832  11.512
14977W        W81518  39.940  26.945   0.561
14978W        W81519  35.871   8.859   2.706
14979W        W81520  32.418  28.492  11.586
14980W        W81521  32.819  41.767   3.341
14981W        W81522  10.674   1.450   2.186
14982W        W81523  33.342  33.040  11.686
14983W        W81524  36.177  20.492   1.970
14984W        W81525  43.432  15.977   2.487
14985W        W81526  11.914  18.743  14.750
14986W        W81527  22.615   7.952  13.901
14987W        W81528  31.398  15.516  11.376
14988W        W81529  27.175   7.293   2.249
14989W        W81530   4.143  35.553  13.461
14990W        W81531   4.389  13.400   4.930
14991W        W81532   9.667  26.282   0.708
14992W        W81533  22.524  43.305  10.589
14993W        W81534  20.281  12.612   1.721
14994W        W81535   6.567  20.490  12.003
14995W        W81536  12.187   0.342  14.584
14996W        W81537  13.551   7.010  14.439
14997W        W81538  44.770  22.449   1.185
14998W        W81539  26.403  26.238   3.201
14999W        W81540  16.254   9.708   0.376
15000W        W81541  21.236   9.130  13.830
15001W        W81542  30.634  26.505  13.148
15002W        W81543   1.225  27.925   1.647
15003W        W81544  10.304  26.284  10.584
15004W        W81545  21.867  28.422   0.439
15005W        W81546  26.177   6.929   3.687
15006W        W81547  37.007  14.318  11.039
15007W        W81548  13.641  14.741   4.675
15008W        W81549   6.820  27.031  13.052
15009W        W81550  20.111  13.740   3.624
15010W        W81551   7.307  33.583   2.381
15011W        W81552  40.861  44.464  12.160
15012W        W81553  32.576  41.848   1.180
15013W        W81554  15.321  12.255  14.577
15014W        W81555  17.268  29.840  13.548
15015W        W81556  21.016   9.631  12.049
15016W        W81557   1.821  19.190  11.655
15017W        W81558   6.055   7.839   4.611
15018W        W81559  36.562  21.167   0.984
15019W        W81560  27.594  15.094   1.734
15020W        W81561  16.277  16.659   2.336
15021W        W81562  26.633  38.483  14.805
15022W        W81563  36.825  35.992  14.755
15023W        W81564  34.996  24.716   2.111
15024W        W81565  36.950  44.176  10.109
15025W        W81566  11.518  24.012   4.506
15026W        W81567  34.164  11.287   3.912
15027W        W81568  29.029   4.359  10.802
15028W        W81569  22.774  26.490   2.802
15029W        W81570  29.481  32.136   2.701
15030W        W81571  21.303  30.369   1.774
15031W        W81572   1.313  12.571   2.216
15032W        W81573  18.217   6.965   3.828
15033W        W81574  16.623  13.159   2.207
15034W        W81575  19.068  17.560  13.537
15035W        W81576  31.468  39.729  12.847
15036W        W81577   5.394  19.097  13.596
15037W        W81578  36.063  39.261  13.968
15038W        W81579  16.302  42.118   3.041
15039W        W81580   8.342  20.144  13.066
15040W        W81581  13.134  12.636  14.089
15041W        W81582  30.910  17.671  12.090
15042W        W81583  23.628   6.890   2.649
15043W        W81584  36.959  26.942   2.246
15044W        W81585  32.885  26.093   3.372
15045W        W81586   8.659  13.243   4.048
15046W        W81587  37.998  15.239   0.852
15047W        W81588   9.912  27.911   4.423
15048W        W81589  31.590  37.823   3.285
15049W        W81590  43.505  34.068  13.844
15050W        W81591  40.326  13.565   1.769
15051W        W81592  41.560  27.096  10.581
15052W        W81593   9.395  41.989  14.743
15053W        W81594  35.984  37.122  12.156
15054W        W81595  11.348  40.417   4.171
15055W        W81596  36.415   0.770   0.924
15056W        W81597  18.635  24.452  11.638
15057W        W81598   6.019  11.552  10.405
15058W        W81599  41.283  30.270  14.506
15059W        W81600  17.633   8.594  12.178
15060W        W81601  29.007  35.635   1.673
15061W        W81602  25.738  17.686  10.679
15062W        W81603  12.211   4.241  14.031
15063W        W81604  10.761  32.719   3.330
15064W        W81605  12.219  23.958   0.928
15065W        W81606   5.214  10.093   2.691
15066W        W81607  34.529  35.269   4.582
15067W        W81608  22.633  16.795   4.128
15068W        W81609  39.697  38.110   1.924
15069W        W81610  44.330  14.270  13.412
15070W        W81611   8.154  22.423  13.923
15071W        W81612  38.394  36.406   0.420
15072W        W81613   9.371  40.799  14.349
15073W        W81614   6.222  29.321  10.265
15074W        W81615   2.354  24.909   5.055
15075W        W81616   5.068  28.548   4.872
15076W        W81617  12.772  41.881  13.457
15077W        W81618  32.796  44.971   3.768
15078W        W81619   6.864  33.410  13.021
15079W        W81620   7.380  41.386   2.654
15080W        W81621  38.477  27.607  14.213
15081W        W81622  31.607  28.384  13.174
15082W        W81623  33.455  30.676   1.680
15083W        W81624  30.035  32.389  14.509
15084W        W81625  22.314  42.821  10.739
15085W        W81626  38.962  37.200  12.971
15086W        W81627  35.296   0.464  10.473
15087W        W81628  16.156   3.813  11.103
15088W        W81629   5.110   2.771   1.233
15089W        W81630   3.152   2.782  13.497
15090W        W81631  40.833   6.809   1.360
15091W        W81632  35.629  40.494  11.598
15092W        W81633  17.111  32.153  11.956
15093W        W81634  43.192  25.460   4.686
15094W        W81635  31.358  16.618  13.807
15095W        W81636  41.567  34.190   1.245
15096W        W81637  44.472  39.570   4.251
15097W        W81638   0.183   9.590  14.469
15098W        W81639  33.522  40.019   2.402
15099W        W81640  19.741  34.057   4.688
15100W        W81641  16.140  39.263  11.407
15101W        W81642   2.895   7.276   1.956
15102W        W81643  31.523  25.906  14.560
15103W        W81644  39.908  43.407  11.754
15104W        W81645  42.231  28.356   0.451
15105W        W81646  36.179  41.798  14.579
15106W        W81647  44.013  31.559  13.300
15107W        W81648  40.453  15.821   1.385
15108W        W81649  17.603  34.153   0.168
15109W        W81650  31.552   6.230  12.818
15110W        W81651  23.800   3.841   4.720
15111W        W81652  12.326  38.960  13.387
15112W        W81653  16.484  44.699   1.938
15113W        W81654  38.869  29.431   1.218
15114W        W81655  27.454   2.326   1.432
15115W        W81656  22.597   7.772   4.846
15116W        W81657  31.338   6.883   3.182
15117W        W81658   5.253  13.122  12.575
15118W        W81659   6.138  38.244   0.326
15119W        W81660  37.374  29.030  14.467
15120W        W81661   5.204  14.549   0.252
15121W        W81662  43.792  19.927   4.232
15122W        W81663  32.502  12.129   4.976
15123W        W81664   5.469  31.923   5.248
15124W        W81665  18.998  17.066   2.338
15125W        W81666  15.621  11.158  10.482
15126W        W81667  38.504   5.149  13.413
15127W        W81668  41.089   9.441   3.214
15128W        W81669  36.911  38.178  13.442
15129W        W81670  44.961  22.874  12.376
15130W        W81671   6.153  18.866  11.148
15131W        W81672   8.389  18.121   1.340
15132W        W81673   9.239   8.479   3.190
15133W        W81674   7.310  26.780  13.816
15134W        W81675  11.126   6.254   3.475
15135W        W81676  16.265  18.721   4.047
15136W        W81677  44.525   5.968  14.589
15137W        W81678   7.247  39.939   2.346
15138W        W81679  39.036  19.234  10.946
15139W        W81680  29.160  30.701  11.609
15140W        W81681  42.932  38.966  12.179
15141W        W81682  39.420   4.322   4.562
15142W        W81683  10.094   7.458   4.075
15143W        W81684  39.097  38.977   0.961
15144W        W81685   7.230   2.385   0.422
15145W        W81686   8.861   0.676   2.310
15146W        W81687  15.035   6.184  11.116
15147W        W81688  11.050   0.613   2.062
15148W        W81689  38.992  35.962  10.343
15149W        W81690   1.283  20.555   2.847
15150W        W81691  31.659  10.628  11.998
15151W        W81692  41.714   9.191   2.646
15152W        W81693   3.940  32.939  12.946
15153W        W81694  28.662   0.021   4.547
15154W        W81695  37.118  16.115  12.197
15155W        W81696  28.458  33.108   3.631
15156W        W81697  25.691  17.323  13.993
15157W        W81698  26.506  36.302   1.221
15158W        W81699  28.082  34.143   3.676
15159W        W81700  28.628  21.336  13.239
15160W        W81701  25.018  23.857  10.636
15161W        W81702  20.017  41.485   2.278
15162W        W81703  38.839   3.296  10.713
15163W        W81704   1.349  42.319   4.874
15164W        W81705   2.872  26.486   1.905
15165W        W81706   0.340  34.070   3.275
15166W        W81707  28.549  20.603   4.983
15167W        W81708  27.133  22.671   5.019
15168W        W81709  20.314   7.855  14.567
15169W        W81710  20.954  25.459   2.300
15170W        W81711  24.497  17.842   4.865
15171W        W81712   1.945  19.122   2.227
15172W        W81713  17.233   0.854   3.722
15173W        W81714  24.472  15.584  12.968
15174W        W81715  20.961   2.692  13.981
15175W        W81716  41.972  17.802  10.692
15176W        W81717  11.696  42.755  11.534
15177W        W81718  41.989  32.477   3.170
15178W        W81719  12.909  22.178  13.578
15179W        W81720  26.487   5.276  14.872
15180W        W81721  42.466  34.115  11.351
15181W        W81722  29.556  18.313  10.286
15182W        W81723   9.230  35.525   2.881
15183W        W81724  44.928  27.456  10.301
15184W        W81725  42.271  27.628  14.255
15185W        W81726  26.789  42.458  12.468
15186W        W81727  22.514  19.207   3.221
15187W        W81728  34.682  40.960   2.726
15188W        W81729  17.759  11.882  13.552
15189W        W81730   9.261  14.476   0.346
15190W        W81731  20.689  44.331   2.298
15191W        W81732  24.011  17.268   1.781
15192W        W81733  27.407   5.577   2.136
15193W        W81734  22.172  16.556  12.520
15194W        W81735  25.039  10.208   2.278
15195W        W81736  24.725  35.467   4.534
15196W        W81737  40.095  33.987   2.371
15197W        W81738  17.729  20.125   3.744
15198W        W81739  26.714   2.934   0.785
15199W        W81740  22.763  39.217  11.275
15200W        W81741  11.219  10.588   2.203
15201W        W81742  27.607  39.569  13.845
15202W        W81743   7.529  26.964  10.972
15203W        W81744  19.020   4.407  14.889
15204W        W81745   7.936  18.400   3.599
15205W        W81746  39.285  14.876  12.360
15206W        W81747  31.937  42.976   1.350
15207W        W81748  40.417  31.954  11.590
15208W        W81749   3.939   9.357   1.837
15209W        W81750  11.896  24.999   0.436
15210W        W81751   4.742  37.125  11.582
15211W        W81752   4.222  34.846  11.739
15212W        W81753  29.461  22.383  14.242
15213W        W81754   0.914  38.899  10.551
15214W        W81755  23.503  15.233   3.715
15215W        W81756   8.761  35.506  12.964
15216W        W81757   3.736  19.439  12.510
15217W        W81758   4.455  32.782   2.664
15218W        W81759  21.767  36.852   3.655
15219W        W81760  43.382   3.261   0.234
15220W        W81761  16.502   9.862  14.950
15221W        W81762  37.982  12.102   4.266
15222W        W81763  42.608  28.084   2.697
15223W        W81764  36.824  12.833   4.510
15224W        W81765   8.975  31.930  14.285
15225W        W81766  43.793   8.795   0.435
15226W        W81767   8.470  16.041  12.955
15227W        W81768  34.347   3.280   0.995
15228W        W81769   6.017  18.612  13.974
15229W        W81770  22.659  35.880  11.464
15230W        W81771   0.412  36.085   4.539
15231W        W81772   5.168   9.421   1.266
15232W        W81773   2.522  30.800  11.200
15233W        W81774  40.793  10.138   2.104
15234W        W81775  22.916  10.304   1.020
15235W        W81776  42.032  12.997   5.437
15236W        W81777   4.940  44.191  11.930
15237W        W81778  17.803  22.663  13.834
15238W        W81779  27.060  42.254  14.775
15239W        W81780  35.126  34.629  13.368
15240W        W81781  42.781  28.108   0.439
15241W        W81782  29.433   0.765   1.266
15242W        W81783  18.547  26.911  12.521
15243W        W81784   2.373  16.811  13.507
15244W        W81785  20.604  32.992   4.142
15245W        W81786  15.600  13.074   3.612
15246W        W81787  16.503  20.609   0.567
15247W        W81788   0.742   4.849  10.162
15248W        W81789   0.930  18.466   1.136
15249W        W81790  28.039  33.977  11.983
15250W        W81791  13.536  40.761  14.856
15251W        W81792  30.435   6.754  13.031
15252W        W81793   1.403   9.819  14.573
15253W        W81794  20.066  18.436   5.404
15254W        W81795  30.382  20.539   0.339
15255W        W81796  36.583   4.424  14.992
15256W        W81797   6.396   7.707  12.908
15257W        W81798  31.978  21.761  13.445
15258W        W81799  26.538  11.395   4.700
15259W        W81800  36.937  10.557   0.397
15260W        W81801   5.707  17.294   1.944
15261W        W81802   7.300  26.215   5.138
15262W        W81803  15.693  16.317   3.431
15263W        W81804  44.915  20.184   4.634
15264W        W81805   5.445  33.440  14.645
15265W        W81806  20.705  20.298   1.943
15266W        W81807  41.947  22.299   2.211
15267W        W81808   7.911  28.129   2.806
15268W        W81809  26.128   5.565  14.425
15269W        W81810   1.589  22.682   1.435
15270W        W81811   9.851  36.899   1.829
15271W        W81812  20.223   7.446   0.828
15272W        W81813  35.802  15.703  12.636
15273W        W81814  44.240  20.775  14.148
15274W        W81815  38.737  16.115  13.282
15275W        W81816   2.315   4.643  13.045
15276W        W81817  17.178  29.984  10.570
15277W        W81818  32.108  13.949   5.035
15278W        W81819  34.493  10.080  11.012
15279W        W81820  12.570  36.179  11.525
15280W        W81821   7.790  37.571   1.930
15281W        W81822  30.715   8.325  11.679
15282W        W81823  21.651   1.530   2.297
15283W        W81824   3.872   7.997   1.302
15284W        W81825  23.970  39.384   2.752
15285W        W81826  34.566  11.288   2.588
15286W        W81827  42.493  19.040   4.253
15287W        W81828   9.642   1.742   2.091
15288W        W81829  34.561   9.951   0.770
15289W        W81830  38.655  29.061  12.523
15290W        W81831   5.469   4.306   2.809
15291W        W81832   9.699  13.421   1.952
15292W        W81833  29.145  37.657   4.479
15293W        W81834  13.701   2.292  13.050
15294W        W81835  19.290  29.504   1.684
15295W        W81836  39.281  29.876   1.903
15296W        W81837   9.855  40.513  11.084
15297W        W81838  36.381  15.054   1.989
15298W        W81839  39.490  17.851   1.796
15299W        W81840  20.549  36.352   2.369
15300W        W81841  36.292  31.925   3.609
15301W        W81842  44.478  10.372  13.340
15302W        W81843   5.018  11.567   1.279
15303W        W81844  30.576  34.371  11.268
15304W        W81845  38.307  43.079  10.350
15305W        W81846   2.792  13.138  11.616
15306W        W81847  24.454   5.381   1.365
15307W        W81848   9.137   1.952   4.743
15308W        W81849  20.465  31.084   1.230
15309W        W81850  38.507  24.194  11.028
15310W        W81851  12.326  35.523   0.225
15311W        W81852  30.033  23.778   3.755
15312W        W81853   1.734  11.190  11.112
15313W        W81854  19.166   9.874   3.633
15314W        W81855  27.471  23.049   2.214
15315W        W81856  13.616  30.013   0.898
15316W        W81857  39.650  41.331   1.125
15317W        W81858  25.491   6.787  14.366
15318W        W81859  40.486  41.310  14.712
15319W        W81860  25.260  16.223  10.465
15320W        W81861  27.682  29.492  13.611
15321W        W81862  10.267  11.867  13.957
15322W        W81863   9.794   4.800  14.417
15323W        W81864  28.621  30.171   1.233
15324W        W81865  30.050  18.756   2.322
15325W        W81866  17.418  30.453   5.421
15326W        W81867  20.125   6.591   0.293
15327W        W81868  24.755   2.178  12.070
15328W        W81869   8.848  23.303   1.737
15329W        W81870  12.877  35.807   1.443
15330W        W81871  36.874  38.822  14.251
15331W        W81872  38.301  22.532   3.187
15332W        W81873  28.529  34.202   3.956
15333W        W81874   4.729  22.005  10.694
15334W        W81875  17.227  22.193   2.826
15335W        W81876  19.244  29.084  13.662
15336W        W81877   8.267  20.947  14.932
15337W        W81878  23.232   3.484  14.016
15338W        W81879  44.735   9.190   0.139
15339W        W81880  10.949   9.105  12.966
15340W        W81881  36.737  10.063   0.420
15341W        W81882  42.303   4.070   2.339
15342W        W81883  13.817  37.724   0.536
15343W        W81884  35.837  41.241  11.177
15344W        W81885  36.515  22.558   2.764
15345W        W81886  33.075   6.829   4.572
15346W        W81887  32.946   5.782  12.964
15347W        W81888  26.961  13.560   0.907
15348W        W81889  39.883   3.347   3.143
15349W        W81890  12.228  41.832   4.553
15350W        W81891   0.675  30.416   0.710
15351W        W81892  40.118  25.068  13.544
15352W        W81893  34.965  43.424  14.156
15353W        W81894  41.075  10.171  13.609
15354W        W81895  12.214   7.223  14.762
15355W        W81896   6.743   7.380  14.364
15356W        W81897  34.773   6.285  11.982
15357W        W81898   0.450  10.805   0.893
15358W        W81899  41.018   2.002   2.663
15359W        W81900  19.161  25.291  11.538
15360W        W81901  19.046  44.911  14.937
15361W        W81902  24.797  40.883  12.627
15362W        W81903  23.286  35.123  11.178
15363W        W81904  40.094  11.155  14.412
15364W        W81905  42.470  37.766  14.821
15365W        W81906  12.913   3.812  12.493
15366W        W81907   4.092  33.599   3.396
15367W        W81908  41.149  25.025   1.853
15368W        W81909   6.720  30.887   2.428
15369W        W81910   2.442  34.576   4.211
15370W        W81911   0.545  39.589  13.985
15371W        W81912  38.575  41.903  13.069
15372W        W81913  10.512  43.941  12.946
15373W        W81914  32.608  28.129   4.706
15374W        W81915   4.982  38.349  14.272
15375W        W81916  41.424   9.460  13.757
15376W        W81917   6.318  27.498  13.374
15377W        W81918   5.602  40.161   2.767
15378W        W81919  29.887  32.616  12.398
15379W        W81920   7.697  14.639  10.677
15380W        W81921  38.881  44.706  11.555
15381W        W81922   4.679  44.825  10.101
15382W        W81923  32.841  12.365   4.651
15383W        W81924  39.422   1.938  14.370
15384W        W81925  27.289  42.077  13.044
15385W        W81926  20.612  22.804  13.795
15386W        W81927  19.392  17.273   4.345
15387W        W81928  38.494  26.974  13.581
15388W        W81929  24.226  12.177   1.934
15389W        W81930  43.946  23.728  13.814
15390W        W81931   8.069  26.499  10.118
15391W        W81932  21.196  23.254   4.138
15392W        W81933  34.768  44.468  14.994
15393W        W81934   6.382  17.133  11.671
15394W        W81935  30.822  33.042  11.134
15395W        W81936  20.474  17.852   9.601
15396W        W81937  41.287  35.954  14.512
15397W        W81938  40.155  11.000  11.929
15398W        W81939  13.241  11.180  14.077
15399W        W81940  15.137  18.341  13.075
15400W        W81941   9.416   9.687   3.741
15401W        W81942  19.255   5.877   0.820
15402W        W81943   5.128  31.119  13.480
15403W        W81944  36.604  26.926  12.487
15404W        W81945  40.533  38.915   0.682
15405W        W81946   9.369  36.222   0.869
15406W        W81947  34.018  22.929  14.176
15407W        W81948   5.850  28.170   0.823
15408W        W81949  16.640   4.923   4.155
15409W        W81950  17.776  17.341  14.471
15410W        W81951   2.704   1.810   1.274
15411W        W81952  15.646  37.061  10.625
15412W        W81953   3.888   7.814  13.950
15413W        W81954  38.555  15.710  11.404
15414W        W81955  15.229  36.340  13.479
15415W        W81956  15.303  35.552   4.282
15416W        W81957   7.450  29.415  14.263
15417W        W81958   5.357  29.556   4.204
15418W        W81959  24.264   4.292   4.078
15419W        W81960  44.975   4.548  14.200
15420W        W81961  35.657   2.467  13.508
15421W        W81962  22.106  31.134   2.909
15422W        W81963  31.094  12.786  14.732
15423W        W81964   4.670  21.551  10.944
15424W        W81965  39.292  35.028   4.087
15425W        W81966  32.552   8.202   2.169
15426W        W81967   2.416  19.107   2.792
15427W        W81968  23.728  33.532  11.070
15428W        W81969  33.120  13.804   4.966
15429W        W81970  12.630  22.307  11.195
15430W        W81971   8.292   0.263  11.540
15431W        W81972  40.883  38.907  10.972
15432W        W81973  19.309   1.457   0.867
15433W        W81974  16.985  19.367   0.968
15434W        W81975  19.647  36.558  10.783
15435W        W81976  43.238  13.381  14.336
15436W        W81977  37.050  34.579   2.172
15437W        W81978  42.307  41.806   2.851
15438W        W81979  26.749  17.245  13.082
15439W        W81980  41.759  31.368   2.690
15440W        W81981  29.530  17.101  12.886
15441W        W81982  37.627   4.303   0.261
15442W        W81983  21.460  31.981   0.888
15443W        W81984  34.256  37.475  12.815
15444W        W81985  10.229  14.616   0.254
15445W        W81986   9.421  17.206   2.932
15446W        W81987  22.203  28.123   2.754
15447W        W81988  14.789  30.957   1.298
15448W        W81989  32.398  42.059   2.232
15449W        W81990   4.541  31.799   2.746
15450W        W81991  38.997   4.479   4.324
15451W        W81992  13.578  12.761  11.617
15452W        W81993  18.617  29.958   2.161
15453W        W81994  36.527  25.889  13.319
15454W        W81995  21.876  12.380  10.246
15455W        W81996  33.428  12.718   9.914
15456W        W81997  16.801  23.539  10.480
15457W        W81998  20.671  15.008   1.235
15458W        W81999  30.869  38.317  11.095
15459W        W82000  23.077   0.568  10.991
15460W        W82001   8.257   0.933  14.544
15461W        W82002  22.389  21.304   0.398
15462W        W82003  13.950  19.266   4.601
15463W        W82004  12.831  39.966   0.019
15464W        W82005  32.145  39.338   1.366
15465W        W82006  33.931  34.407  14.054
15466W        W82007  37.528  27.405  13.620
15467W        W82008  40.804  39.859   4.165
15468W        W82009  30.432  34.287  12.108
15469W        W82010  26.427  36.549   3.775
15470W        W82011  26.433  28.167  12.152
15471W        W82012  19.169   8.118  14.064
15472W        W82013   9.134  20.896  10.606
15473W        W82014   3.685  18.555  10.859
15474W        W82015  29.217  20.765   4.225
15475W        W82016  20.310   3.931   5.058
15476W        W82017  37.468  34.610  10.999
15477W        W82018  35.535   0.429   2.154
15478W        W82019  39.113  39.049   4.407
15479W        W82020  22.479  42.295  11.971
15480W        W82021  12.764  26.941  11.143
15481W        W82022  12.476   4.932  11.581
15482W        W82023  32.105  17.806   2.769
15483W        W82024   9.827  43.087   2.655
15484W        W82025  36.657   3.117   2.536
15485W        W82026  25.437  10.129   4.267
15486W        W82027   7.925   8.822  11.563
15487W        W82028  13.048  31.397   3.677
15488W        W82029  16.123  26.194  12.941
15489W        W82030   7.159  35.111  13.511
15490W        W82031   6.145  17.577  11.496
15491W        W82032  42.832  20.866   4.654
15492W        W82033  41.789   9.265  11.203
15493W        W82034   2.577  25.157  12.094
15494W        W82035  26.553  33.142   3.067
15495W        W82036  19.533  20.151   1.188
15496W        W82037  22.864  38.676  13.419
15497W        W82038  29.399  34.732   0.002
15498W        W82039  37.846  42.719   1.264
15499W        W82040   7.443  16.277   1.172
15500W        W82041  15.555  14.924   0.266
15501W        W82042  17.046  27.829  12.469
15502W        W82043   7.785   6.389  14.679
15503W        W82044  24.445  10.230  14.002
15504W        W82045  20.037  43.677   1.426
15505W        W82046  28.306  23.886   4.722
15506W        W82047  10.356  25.031  10.746
15507W        W82048  33.894  24.901   5.059
15508W        W82049  24.725  11.918   0.257
15509W        W82050  12.052  16.396   0.807
15510W        W82051  23.165  17.569  12.640
15511W        W82052   3.827  40.099   0.439
15512W        W82053   8.854  28.844  14.819
15513W        W82054  21.606  31.996  12.555
15514W        W82055   8.330  19.088   1.341
15515W        W82056  19.833  43.325   4.515
15516W        W82057  35.636  11.255   1.730
15517W        W82058  25.358   2.588   0.712
15518W        W82059  41.799  40.929   2.618
15519W        W82060  41.303  31.673   1.370
15520W        W82061  22.457   0.908   4.076
15521W        W82062  30.935  17.984   4.697
15522W        W82063  27.053  43.935  11.586
15523W        W82064  31.542  17.351  11.182
15524W        W82065   3.652  19.158  12.930
15525W        W82066   3.746  16.006  10.827
15526W        W82067  11.148  28.291  12.075
15527W        W82068  36.462  13.267  11.443
15528W        W82069  39.768  40.323   1.945
15529W        W82070  40.703  43.017   4.190
15530W        W82071   3.476  12.406   3.827
15531W        W82072  19.752   7.162  10.658
15532W        W82073  35.683   6.059  13.323
15533W        W82074  10.725  38.502   3.565
15534W        W82075   7.903  17.047  13.544
15535W        W82076   6.923   8.610  14.925
15536W        W82077  21.829  37.324  13.520
15537W        W82078  38.351  44.898  14.396
15538W        W82079  36.054  42.835  12.625
15539W        W82080  14.117  26.517   0.261
15540W        W82081  30.144  19.259   2.414
15541W        W82082   2.353  36.417   2.684
15542W        W82083   8.578  37.991  11.579
15543W        W82084  13.366  25.652   4.253
15544W        W82085  24.850  15.708   1.654
15545W        W82086  39.481  37.156   0.744
15546W        W82087  27.046  21.062  10.728
15547W        W82088  40.754  36.584  14.170
15548W        W82089  31.022  26.387   2.667
15549W        W82090   9.701  40.869  12.207
15550W        W82091   8.010  31.415   0.796
15551W        W82092  13.145  14.310  13.858
15552W        W82093   7.314   3.778   2.383
15553W        W82094  28.885  43.081  10.564
15554W        W82095  38.703  11.958   1.575
15555W        W82096   2.054   0.435  14.766
15556W        W82097   0.731  10.241  10.664
15557W        W82098  20.516  26.907  10.640
15558W        W82099  19.456  30.511  10.640
15559W        W82100  35.472  15.378  14.971
15560W        W82101  11.692   4.209  14.336
15561W        W82102  43.854  18.599   4.821
15562W        W82103  33.421  34.329   3.756
15563W        W82104  20.506  35.874   4.485
15564W        W82105  39.943  21.241  13.278
15565W        W82106  10.640   1.726  12.461
15566W        W82107  43.118  31.486   2.816
15567W        W82108  21.873  39.073  12.363
15568W        W82109  44.794  28.516  10.660
15569W        W82110  41.303  12.081   0.959
15570W        W82111  42.080  16.938  11.971
15571W        W82112   6.160  11.726  12.050
15572W        W82113  40.349  33.216   2.767
15573W        W82114  27.685  27.705   1.948
15574W        W82115  37.308   4.849  11.080
15575W        W82116  41.537  15.559  14.450
15576W        W82117  23.544  11.916  10.722
15577W        W82118  12.799  30.359  12.018
15578W        W82119  23.107   0.835   4.837
15579W        W82120  12.223   7.129   0.295
15580W        W82121  14.721  18.794   2.375
15581W        W82122   3.201   6.319  14.541
15582W        W82123  42.972  39.582  13.003
15583W        W82124   2.279   7.345  14.497
15584W        W82125   5.968   7.349  14.830
15585W        W82126   4.947   8.522   4.835
15586W        W82127  42.233   6.430  12.500
15587W        W82128  25.877  40.266   0.124
15588W        W82129  42.888  26.632  13.165
15589W        W82130  42.405  28.574  13.103
15590W        W82131  17.405  37.364   2.779
15591W        W82132  42.483  40.996  11.888
15592W        W82133  20.668  31.144  11.672
15593W        W82134  33.335  29.184  11.302
15594W        W82135  36.266  17.075   3.197
15595W        W82136  40.033   0.409   4.588
15596W        W82137  27.067   7.703   3.791
15597W        W82138  18.223   8.397   3.184
15598W        W82139   4.002  37.374   1.321
15599W        W82140  21.105   4.633   1.819
15600W        W82141  13.863   8.923   3.331
15601W        W82142  42.424   6.330   2.903
15602W        W82143   9.496  16.716  10.803
15603W        W82144  17.154   8.697  14.742
15604W        W82145  36.923  43.334   1.344
15605W        W82146  16.367  15.138   3.996
15606W        W82147  19.684  37.971   4.086
15607W        W82148  20.067  10.295   0.233
15608W        W82149   1.240  27.232   2.051
15609W        W82150   4.850  17.185  13.883
15610W        W82151  37.766   6.736   0.232
15611W        W82152  28.475  33.303  11.980
15612W        W82153   7.806  22.139  13.607
15613W        W82154   3.408  11.777   0.876
15614W        W82155  32.964  15.309   0.714
15615W        W82156  11.233   5.159   0.445
15616W        W82157  34.773  21.027   4.978
15617W        W82158  14.867  39.023  14.105
15618W        W82159   9.166  29.353   0.850
15619W        W82160  31.299  17.609  10.397
15620W        W82161  16.751  29.432   3.240
15621W        W82162   2.770  27.626  13.317
15622W        W82163  15.889  30.195   1.311
15623W        W82164   2.314  22.921   1.217
15624W        W82165  25.014   5.045  11.079
15625W        W82166  41.928  32.060  10.809
15626W        W82167  38.746  28.100   0.926
15627W        W82168  39.762  38.469  12.418
15628W        W82169  44.761  41.939  14.895
15629W        W82170  26.004  34.159  12.992
15630W        W82171  15.203   8.200   3.820
15631W        W82172  31.527  19.046  11.796
15632W        W82173  20.955  19.983  11.187
15633W        W82174  10.727  11.820  10.315
15634W        W82175  35.469  35.550  11.886
15635W        W82176   7.945  17.287  11.285
15636W        W82177  18.195  29.614  12.971
15637W        W82178  30.330   5.274   4.210
15638W        W82179  31.896   3.393  10.704
15639W        W82180  21.289  19.349  13.043
15640W        W82181  18.785  44.714   3.170
15641W        W82182   0.305  16.127   3.621
15642W        W82183  31.591  43.739  12.457
15643W        W82184  18.342  22.876  13.446
15644W        W82185  30.269  35.642   0.224
15645W        W82186  20.496  40.272   1.976
15646W        W82187  35.071  41.082   1.374
15647W        W82188  29.220   8.825  10.322
15648W        W82189  37.027  20.051   1.697
15649W        W82190  14.084  28.609  13.411
15650W        W82191   5.046  21.015  13.967
15651W        W82192  15.984   0.821   4.815
15652W        W82193   2.430  23.036   4.456
15653W        W82194  17.247   2.777  12.526
15654W        W82195   8.580   1.021   2.884
15655W        W82196  41.774   3.948  12.801
15656W        W82197  29.689  37.318  14.034
15657W        W82198  41.851   7.405  13.408
15658W        W82199  36.270  25.110  11.564
15659W        W82200  34.326  43.761  12.216
15660W        W82201  31.183  18.123  12.067
15661W        W82202  23.927  29.611   4.016
15662W        W82203  34.205   5.778   5.049
15663W        W82204  27.135   9.207  12.066
15664W        W82205  12.398  20.544   3.276
15665W        W82206  43.754  24.530   2.845
15666W        W82207  35.092  42.955   0.304
15667W        W82208  26.236  18.015  14.253
15668W        W82209  42.857  15.334   1.198
15669W        W82210  10.144  37.112  11.415
15670W        W82211  21.045  34.092   0.068
15671W        W82212   6.362  18.790   2.594
15672W        W82213  13.851  16.260   1.404
15673W        W82214  12.239  25.556   2.670
15674W        W82215  18.177  44.566  11.722
15675W        W82216   0.777  25.535  13.421
15676W        W82217   3.673  18.135  14.888
15677W        W82218   0.224  25.529  11.132
15678W        W82219  16.957  30.106   1.792
15679W        W82220  27.881  30.285   1.960
15680W        W82221  41.277  28.672  12.163
15681W        W82222  37.085  13.572   3.293
15682W        W82223  44.572  32.607   1.365
15683W        W82224  22.072  42.525   0.793
15684W        W82225  17.649   2.958  11.254
15685W        W82226  37.952  28.483  14.814
15686W        W82227  17.264  39.465   0.804
15687W        W82228  22.609  44.004  14.029
15688W        W82229  26.621  23.119   0.286
15689W        W82230  43.571  13.740   3.742
15690W        W82231  41.232   1.150   0.089
15691W        W82232  39.868  34.072  12.463
15692W        W82233  20.935   9.247   0.701
15693W        W82234   9.356  44.374  11.492
15694W        W82235  13.104   6.688  12.443
15695W        W82236   2.098  42.696   9.535
15696W        W82237  38.509  43.379   2.379
15697W        W82238  35.443  26.934   1.421
15698W        W82239  39.520  31.801   1.460
15699W        W82240  35.685   4.033  12.853
15700W        W82241  15.156   4.665  12.660
15701W        W82242  24.154  36.354   3.596
15702W        W82243  10.893  13.070  10.670
15703W        W82244  14.257  28.693   3.637
15704W        W82245  36.427  21.032   4.975
15705W        W82246  40.255  30.136   1.683
15706W        W82247   7.475  41.908  14.950
15707W        W82248  42.082  43.179   2.213
15708W        W82249  36.085  42.899  11.548
15709W        W82250  39.860   8.188  13.116
15710W        W82251  24.761  25.709   4.190
15711W        W82252  17.508   8.719   1.243
15712W        W82253  18.456  38.328  14.028
15713W        W82254   9.392  21.054  14.411
15714W        W82255  26.073  27.005  10.874
15715W        W82256  20.290  36.424   0.772
15716W        W82257  42.785   5.256   0.525
15717W        W82258  20.443  19.221  13.963
15718W        W82259  26.197   2.671  12.417
15719W        W82260  17.695   3.055   0.579
15720W        W82261  33.500  38.897  12.525
15721W        W82262   1.490  31.535  14.102
15722W        W82263  21.145  36.951   2.229
15723W        W82264  13.877  34.820  11.636
15724W        W82265  11.353   1.867  11.951
15725W        W82266  31.480  11.234   0.340
15726W        W82267  43.426  26.931   2.305
15727W        W82268  28.036  26.582  12.399
15728W        W82269  28.051  28.882  14.991
15729W        W82270  21.543  31.531  13.302
15730W        W82271  32.339   4.251   1.733
15731W        W82272   8.533  12.174  13.945
15732W        W82273   6.331   9.308  13.964
15733W        W82274  30.868  24.725  14.345
15734W        W82275  18.488  41.915   0.497
15735W        W82276  11.808  33.675   4.038
15736W        W82277  39.322   3.944  13.164
15737W        W82278   5.679  10.854  12.512
15738W        W82279  21.025  13.546   0.836
15739W        W82280  40.254   0.304   1.654
15740W        W82281  11.223  30.592  14.414
15741W        W82282  31.534  38.021   1.221
15742W        W82283  23.119  22.256   0.818
15743W        W82284   4.212   9.829  13.428
15744W        W82285  16.608  15.919   3.288
15745W        W82286  31.546  26.648   1.783
15746W        W82287   3.821  14.644   1.034
15747W        W82288  19.672   1.707  14.876
15748W        W82289  17.078   2.437  13.966
15749W        W82290  34.713   5.235   3.929
15750W        W82291   2.983   7.363  13.662
15751W        W82292  10.752  39.457  10.630
15752W        W82293  20.500  39.756  11.633
15753W        W82294  10.586   2.757  14.005
15754W        W82295  37.501  17.841   4.558
15755W        W82296  44.294  22.479   3.388
15756W        W82297   3.272  21.167  13.832
15757W        W82298  10.421   5.686  12.195
15758W        W82299   1.873  35.630   2.008
15759W        W82300  16.414  28.039  11.215
15760W        W82301  20.465  28.760  14.783
15761W        W82302  14.769  36.074  10.340
15762W        W82303  28.518  27.109  13.108
15763W        W82304  32.730  39.454  12.575
15764W        W82305   5.744  30.667  12.011
15765W        W82306  18.110  44.958   0.790
15766W        W82307  31.535   5.296  12.496
15767W        W82308   3.704  13.022  10.867
15768W        W82309  11.262   7.878  12.040
15769W        W82310  15.625  12.659   4.320
15770W        W82311  42.918  15.517  14.675
15771W        W82312  40.595  43.831   3.011
15772W        W82313   8.240  18.707  14.929
15773W        W82314   9.890   3.935  10.398
15774W        W82315  20.988   1.975  13.136
15775W        W82316   6.593  38.323  13.164
15776W        W82317  11.185  33.207   0.239
15777W        W82318  17.792  40.180   1.112
15778W        W82319   0.014  31.867  12.838
15779W        W82320  29.006  26.720  10.587
15780W        W82321  12.266  27.503  13.300
15781W        W82322   6.105  37.390  12.255
15782W        W82323  25.599  35.589   4.896
15783W        W82324  16.613  16.505   0.867
15784W        W82325  20.670  38.500  12.496
15785W        W82326   0.108  22.657  14.009
15786W        W82327  18.254   7.212   1.834
15787W        W82328  30.555  21.143   1.771
15788W        W82329   4.552  22.857  10.917
15789W        W82330  41.449   4.914  11.806
15790W        W82331   4.494  21.247  12.089
15791W        W82332  27.927  12.381   3.607
15792W        W82333   0.249   2.699  11.536
15793W        W82334  40.770  13.192  11.286
15794W        W82335  21.534  22.624  10.718
15795W        W82336  36.482  19.944   1.735
15796W        W82337   9.457  36.545   3.208
15797W        W82338  20.966  10.101  13.856
15798W        W82339   3.990   0.218   0.420
15799W        W82340  36.461  15.229  12.076
15800W        W82341   7.723  32.834   0.743
15801W        W82342   8.365  12.232   3.386
15802W        W82343  27.609   9.702   0.738
15803W        W82344  29.043   2.684   4.677
15804W        W82345  33.043  32.724  10.813
15805W        W82346  44.476   2.974  10.393
15806W        W82347  31.040  23.442  14.810
15807W        W82348  34.234  28.884  14.970
15808W        W82349  33.108   0.902   1.220
15809W        W82350  25.619  37.572  12.764
15810W        W82351  37.395  26.451   1.929
15811W        W82352  41.797   6.345   0.317
15812W        W82353  13.562  22.484   3.849
15813W        W82354   3.627  23.650  14.146
15814W        W82355  37.506  11.938   1.662
15815W        W82356  15.181  25.445   2.188
15816W        W82357  27.285  24.837   4.719
15817W        W82358  39.251  36.010  13.418
15818W        W82359  26.878  31.019   1.658
15819W        W82360  13.856   8.756   0.019
15820W        W82361  44.459  14.508  10.575
15821W        W82362  15.780  37.432   4.531
15822W        W82363  44.175  41.037   2.469
15823W        W82364   2.951   4.800   3.275
15824W        W82365   9.647  17.112   1.938
15825W        W82366   0.840  11.081   2.900
15826W        W82367   2.275   0.126  13.052
15827W        W82368  30.672  35.722  13.456
15828W        W82369  33.735  19.256  11.602
15829W        W82370  43.064   8.795  13.382
15830W        W82371  12.820  31.950   4.560
15831W        W82372  20.697  41.018   2.659
15832W        W82373  19.742  23.738   1.398
15833W        W82374  40.924  12.073  12.497
15834W        W82375  32.050  20.870  12.439
15835W        W82376   5.729   2.343   1.444
15836W        W82377   6.377  36.782   2.306
15837W        W82378  11.381  28.286  14.002
15838W        W82379   5.255   9.195   3.590
15839W        W82380  39.845  29.126  10.667
15840W        W82381  20.985   6.858   2.187
15841W        W82382  30.443  39.227  14.866
15842W        W82383   3.030  18.337   1.615
15843W        W82384  18.694   6.897   1.816
15844W        W82385   5.434  30.106  10.224
15845W        W82386   7.181  14.303  12.930
15846W        W82387  16.338   8.122   2.167
15847W        W82388  12.525  12.300   0.414
15848W        W82389  29.726   4.237   0.720
15849W        W82390  43.022  18.673  12.215
15850W        W82391  26.108  31.623   4.595
15851W        W82392  30.026   1.447  14.792
15852W        W82393   0.939  31.850   2.973
15853W        W82394   5.997  34.601  13.334
15854W        W82395   0.651  18.806   4.495
15855W        W82396   3.934  18.009   0.378
15856W        W82397  32.973   6.003  10.468
15857W        W82398  26.066  14.426   3.326
15858W        W82399  39.898  22.256  14.233
15859W        W82400  41.206  17.272   2.170
15860W        W82401  42.835  14.585   0.729
15861W        W82402  34.914   7.325   2.829
15862W        W82403  40.685  35.034  11.940
15863W        W82404  26.034   7.769   4.625
15864W        W82405  34.298  22.184   3.646
15865W        W82406  38.857  12.305   0.331
15866W        W82407   8.593   8.364   4.425
15867W        W82408  12.196  13.340  10.716
15868W        W82409  28.113  30.287   4.126
15869W        W82410  20.635   4.258   1.870
15870W        W82411  44.844  35.662   0.869
15871W        W82412   8.212  23.741   0.313
15872W        W82413  16.010  28.122   4.865
15873W        W82414  41.832   2.435  12.534
15874W        W82415  40.768   9.653  14.354
15875W        W82416  42.929  30.723  10.025
15876W        W82417  11.613  38.842  12.435
15877W        W82418  24.240  25.048  13.088
15878W        W82419  22.165  16.072   2.879
15879W        W82420  27.416  41.090  13.339
15880W        W82421  20.554  16.484   2.106
15881W        W82422  33.212  19.057   0.648
15882W        W82423  38.473  43.897  13.031
15883W        W82424   6.846  36.209  14.703
15884W        W82425  15.760  34.919  11.491
15885W        W82426  27.996  40.753  13.442
15886W        W82427   7.049   0.538  12.213
15887W        W82428   8.750  35.001   4.922
15888W        W82429  23.976  39.741   0.906
15889W        W82430  17.523  19.632   3.749
15890W        W82431  35.092  35.526  13.397
15891W        W82432  10.903  43.287  14.610
15892W        W82433  16.253  14.103   4.152
15893W        W82434  13.743  18.778   3.912
15894W        W82435  17.387  28.502   2.317
15895W        W82436  12.512  42.412   2.221
15896W        W82437   5.420  36.934  12.512
15897W        W82438  39.938  39.435   4.623
15898W        W82439  27.729  21.085   1.860
15899W        W82440   1.778  28.857  14.293
15900W        W82441   7.919  41.486  12.891
15901W        W82442  41.035  18.005  14.993
15902W        W82443   0.582  42.901  13.469
15903W        W82444  11.093  25.068  14.782
15904W        W82445  28.437   7.215  14.462
15905W        W82446  43.469   9.270   0.046
15906W        W82447   4.692  26.186  12.558
15907W        W82448  14.838   2.865   4.914
15908W        W82449  21.701  23.263  14.819
15909W        W82450  41.830  17.497   2.717
15910W        W82451  24.790   6.838   5.047
15911W        W82452   9.094   4.799   4.731
15912W        W82453  20.712  24.987   0.204
15913W        W82454  30.535  36.826   2.600
15914W        W82455  31.109  20.804  14.326
15915W        W82456   3.604  42.928   3.693
15916W        W82457  31.679   2.119   4.131
15917W        W82458  32.293   7.844   3.368
15918W        W82459  20.873  16.280   1.714
15919W        W82460  18.962  30.659   0.803
15920W        W82461  22.651  43.821  10.578
15921W        W82462   4.787  38.258   3.303
15922W        W82463  32.333  39.253  11.033
15923W        W82464  26.958   2.735   3.404
15924W        W82465  16.603  26.528   4.406
15925W        W82466  40.405  13.229   3.057
15926W        W82467   8.740  11.096   3.117
15927W        W82468  14.345  12.774   3.808
15928W        W82469  21.417  21.211  13.819
15929W        W82470  15.286  19.321  10.666
15930W        W82471  19.817  34.584   3.778
15931W        W82472  36.406   9.715  14.499
15932W        W82473  20.406  33.155  14.895
15933W        W82474  25.023  17.090   0.942
15934W        W82475   6.991  35.618  11.451
15935W        W82476  32.077  23.791   1.852
15936W        W82477  13.596  28.687  13.775
15937W        W82478  21.761  41.279   2.601
15938W        W82479  29.767  18.568  13.956
15939W        W82480  25.811  41.086  11.649
15940W        W82481   3.733  44.290   1.294
15941W        W82482  27.647  44.279   3.771
15942W        W82483  28.674  11.631  11.256
15943W        W82484  39.810  19.351   3.752
15944W        W82485  38.596   3.333   3.647
15945W        W82486   7.482  28.024  12.340
15946W        W82487  41.987   4.515   2.803
15947W        W82488  34.423   1.840  11.699
15948W        W82489  22.298   0.863  14.964
15949W        W82490  42.789  42.536  13.801
15950W        W82491  31.313  24.305   3.211
15951W        W82492  10.142  30.183  12.839
15952W        W82493  38.936  32.374  10.243
15953W        W82494  29.971  18.307  12.195
15954W        W82495  35.883  29.390  12.066
15955W        W82496   0.197   8.439  11.019
15956W        W82497   8.671  31.094   4.462
15957W        W82498   5.660  24.087   2.807
15958W        W82499  42.495  24.285  12.017
15959W        W82500   3.744  28.485   2.177
15960W        W82501  28.256   2.895   0.815
15961W        W82502  15.789  22.005   2.699
15962W        W82503  14.108  24.068   0.591
15963W        W82504  44.780   0.308  11.685
15964W        W82505   9.591   7.449   0.638
15965W        W82506  41.886  32.551   0.224
15966W        W82507  33.862   3.771   1.925
15967W        W82508  43.560   8.814  14.740
15968W        W82509  43.694  12.577  13.219
15969W        W82510  10.465  13.242  13.992
15970W        W82511  39.082  18.242   0.727
15971W        W82512   1.372  31.555   0.408
15972W        W82513  29.173  36.111   1.846
15973W        W82514  34.038  20.207  14.479
15974W        W82515  31.683  38.525   3.209
15975W        W82516  24.681  33.423   1.629
15976W        W82517   0.148   2.694  13.406
15977W        W82518  41.291  27.307   2.908
15978W        W82519  29.108  21.111   3.608
15979W        W82520  35.672  21.000   3.957
15980W        W82521  35.365  39.722   4.122
15981W        W82522  38.244  37.803   3.703
15982W        W82523  12.121  37.585   2.282
15983W        W82524  32.615  27.351  10.757
15984W        W82525  30.644  40.524  12.080
15985W        W82526  36.597  13.901  12.400
15986W        W82527  12.616  33.388   2.111
15987W        W82528  21.478  43.916  12.466
15988W        W82529   9.489   0.872  14.667
15989W        W82530  21.746  15.352   5.319
15990W        W82531  12.762  31.411   3.242
15991W        W82532  25.830  39.066   2.778
15992W        W82533   7.052  22.641   3.103
15993W        W82534  35.325  27.806  12.340
15994W        W82535  44.516  14.322   1.932
15995W        W82536  29.420   1.213  13.560
15996W        W82537  10.729   6.152   4.284
15997W        W82538  22.565  41.596   0.972
15998W        W82539  18.988   2.487   1.904
15999W        W82540  35.326  42.437   3.203
16000W        W82541  32.890  27.208  14.926
16001W        W82542  13.254  11.174   2.011
16002W        W82543  26.830  36.436  11.135
16003W        W82544  41.271  24.959   3.693
16004W        W82545  42.763  13.596   5.582
16005W        W82546   4.273  36.102   1.632
16006W        W82547  31.904  19.818  12.114
16007W        W82548  10.995  24.577  14.537
16008W        W82549  38.750  22.525  13.518
16009W        W82550  34.482  43.072  12.869
16010W        W82551   4.905  12.556  13.952
16011W        W82552   6.811  11.770  14.858
16012W        W82553   8.460  40.917  11.680
16013W        W82554  16.964   7.429   2.704
16014W        W82555   7.576  20.206  11.680
16015W        W82556  38.987   4.453   2.804
16016W        W82557   0.337  42.877  11.987
16017W        W82558  32.400  44.558  11.610
16018W        W82559  10.580  27.790   0.255
16019W        W82560  25.196  27.573  11.978
16020W        W82561  26.476   7.179  13.870
16021W        W82562   1.840  29.562  14.352
16022W        W82563  10.361   7.590  14.838
16023W        W82564  25.092  22.582  13.363
16024W        W82565  26.062  39.543  12.543
16025W        W82566  24.697  28.735  14.493
16026W        W82567  37.834  44.392  10.622
16027W        W82568  41.745  37.576  14.322
16028W        W82569  30.610   3.779   4.217
16029W        W82570  37.012  29.350  14.650
16030W        W82571  32.075   2.931  11.713
16031W        W82572   8.740   1.012  10.711
16032W        W82573  15.291  10.762   0.217
16033W        W82574   6.820  19.151   3.230
16034W        W82575  39.843  30.056  13.568
16035W        W82576  37.262  17.290  11.648
16036W        W82577  29.861  26.682   4.263
16037W        W82578  21.506  16.847  12.852
16038W        W82579  14.358   0.338   4.130
16039W        W82580  18.835  12.738   1.781
16040W        W82581   7.045   0.410   9.686
16041W        W82582  25.469   0.764  12.831
16042W        W82583  15.179   2.932   3.156
16043W        W82584  25.116  32.185   4.606
16044W        W82585  22.347  20.592   3.418
16045W        W82586  31.580  44.486  13.545
16046W        W82587  31.359   3.660   4.607
16047W        W82588  43.268  26.745   4.215
16048W        W82589   7.723  10.678  10.834
16049W        W82590  20.307  22.116  12.308
16050W        W82591  24.816  13.694  14.294
16051W        W82592  40.467  41.363   4.120
16052W        W82593  33.123  21.972  13.055
16053W        W82594   4.995  31.697   4.593
16054W        W82595   8.944   1.771   4.227
16055W        W82596   1.493  43.828   2.633
16056W        W82597  26.521  19.615  13.883
16057W        W82598  18.910  17.290  12.847
16058W        W82599  18.701  11.424   0.819
16059W        W82600  25.683   3.322   1.677
16060W        W82601  42.081  30.048  12.991
16061W        W82602   2.907  28.027  11.525
16062W        W82603  35.644  17.941  11.077
16063W        W82604  22.504  37.067   4.889
16064W        W82605  34.654  25.061  11.191
16065W        W82606   6.808  43.909   1.498
16066W        W82607   6.454  16.269   1.150
16067W        W82608  24.139   7.369  13.341
16068W        W82609  10.195   0.103  13.770
16069W        W82610  35.612  36.983   0.374
16070W        W82611  40.607  23.137   2.881
16071W        W82612  28.126  12.188  14.343
16072W        W82613  43.956  24.425   1.891
16073W        W82614  16.963  17.346   4.920
16074W        W82615  36.982  39.472  12.989
16075W        W82616   2.497  17.309  13.563
16076W        W82617  11.721  16.399  11.551
16077W        W82618  40.470   2.457   1.560
16078W        W82619  33.383  15.735   0.023
16079W        W82620  27.057  14.329  11.047
16080W        W82621  18.528  27.003   2.901
16081W        W82622  15.048  19.017  11.038
16082W        W82623   8.170  22.697   1.209
16083W        W82624   8.136  44.522   4.270
16084W        W82625  33.135  21.109  14.528
16085W        W82626   7.736  12.896  12.922
16086W        W82627  19.089  31.095   0.483
16087W        W82628   9.936  29.162   1.761
16088W        W82629  35.945  31.027  14.320
16089W        W82630   8.212  40.047  12.169
16090W        W82631  17.172  38.968   5.010
16091W        W82632   0.828  25.042  13.714
16092W        W82633  43.056  13.664  12.507
16093W        W82634  34.910  44.935   4.551
16094W        W82635  43.951   2.993   3.853
16095W        W82636  24.086  27.860   0.532
16096W        W82637   5.883  29.501  14.539
16097W        W82638   6.860  19.069  11.576
16098W        W82639  30.072  24.479   2.233
16099W        W82640  11.045  36.311  13.762
16100W        W82641  15.674  19.049   4.557
16101W        W82642  25.006  35.238  10.934
16102W        W82643  20.744  12.419  12.142
16103W        W82644  36.832  20.005   0.735
16104W        W82645  38.405  31.014   2.196
16105W        W82646  27.121  32.444  11.193
16106W        W82647   6.275   5.407   1.214
16107W        W82648  17.159   1.749  10.445
16108W        W82649  17.883  41.398   3.865
16109W        W82650  22.301  34.012   2.158
16110W        W82651   7.330  41.343  13.403
16111W        W82652  15.816  28.869   4.126
16112W        W82653  16.059  28.507   0.470
16113W        W82654   3.297  43.946   4.500
16114W        W82655  11.155   5.726  10.733
16115W        W82656  34.707   7.167  11.927
16116W        W82657  23.649  20.483   0.229
16117W        W82658  25.010  13.291   2.382
16118W        W82659  22.632  44.494  11.520
16119W        W82660  31.494   7.333   0.982
16120W        W82661  20.697   0.372  12.318
16121W        W82662  21.018  34.838   2.129
16122W        W82663  42.661  37.199   3.362
16123W        W82664   4.466  39.484  11.194
16124W        W82665  24.415  37.204   4.923
16125W        W82666  22.111  42.741  14.317
16126W        W82667   6.423  44.383   0.027
16127W        W82668  43.989  21.240   1.371
16128W        W82669  30.827  20.286   0.245
16129W        W82670  10.147  37.953  14.968
16130W        W82671  28.477  10.073  13.944
16131W        W82672   7.594  24.223   1.391
16132W        W82673  14.083  17.802  14.014
16133W        W82674  23.480  30.323   0.825
16134W        W82675  42.355  15.009   4.554
16135W        W82676  17.157  28.316  12.638
16136W        W82677  33.015  37.868   4.602
16137W        W82678  33.478  44.939   5.078
16138W        W82679   7.361  13.678  10.733
16139W        W82680  19.697  32.152  12.525
16140W        W82681   1.497   6.859  14.409
16141W        W82682  39.424  34.837   0.426
16142W        W82683  33.434  18.764  13.149
16143W        W82684  44.786  18.314   3.727
16144W        W82685  20.015   8.154  11.896
16145W        W82686  35.675   4.264   0.202
16146W        W82687  18.467  13.058  14.315
16147W        W82688  34.628  29.070   4.152
16148W        W82689  28.685  39.825  10.843
16149W        W82690  30.065  26.374   4.683
16150W        W82691  23.364  21.934  13.980
16151W        W82692   9.013  10.092   0.633
16152W        W82693  37.311  40.970  14.353
16153W        W82694  17.755  27.066  13.103
16154W        W82695  19.317  27.872   1.888
16155W        W82696  40.242  30.543  12.202
16156W        W82697   4.370  30.406   2.699
16157W        W82698  19.288   1.122  11.590
16158W        W82699  17.817  37.551   4.608
16159W        W82700  17.714  15.287   0.995
16160W        W82701  39.139  30.562   4.525
16161W        W82702  44.831  39.969   4.198
16162W        W82703  10.628  13.396   3.958
16163W        W82704   2.349  28.168  10.304
16164W        W82705   3.376  23.006   4.814
16165W        W82706   0.241  26.921  13.889
16166W        W82707  13.101  39.392   4.596
16167W        W82708   6.906  25.282  11.690
16168W        W82709   8.116  20.564  10.653
16169W        W82710  41.975   3.728  11.020
16170W        W82711  41.506  44.875  13.609
16171W        W82712  39.914   3.877   0.354
16172W        W82713  10.592  42.468  14.733
16173W        W82714  27.079  26.198  10.935
16174W        W82715   5.020  19.491  11.295
16175W        W82716  24.804   6.387  14.032
16176W        W82717  19.505   1.958   2.574
16177W        W82718  38.876  29.162   3.340
16178W        W82719   9.907   5.642   1.882
16179W        W82720  40.518  22.328  14.094
16180W        W82721  30.274  36.753   4.214
16181W        W82722  30.492  18.484   2.251
16182W        W82723  32.415  30.170   2.187
16183W        W82724  21.063   4.322   1.080
16184W        W82725  13.924   1.451  10.662
16185W        W82726  27.625  34.075  10.795
16186W        W82727  41.980  23.594  13.532
16187W        W82728  38.518  44.757   0.211
16188W        W82729   8.845  32.898  13.808
16189W        W82730  30.215  37.302   1.193
16190W        W82731  38.657  24.905   3.348
16191W        W82732  36.146  11.176   1.768
16192W        W82733  19.131  43.906   1.856
16193W        W82734  28.231  37.008  11.927
16194W        W82735  38.734  20.058  13.423
16195W        W82736  37.805  17.996  11.825
16196W        W82737   8.509  39.273  11.263
16197W        W82738  43.151  19.589   1.857
16198W        W82739   3.993   2.688  13.158
16199W        W82740  31.467  31.389  10.841
16200W        W82741   6.732   2.027  13.881
16201W        W82742  35.604  27.519  11.162
16202W        W82743   3.722   4.304   3.295
16203W        W82744  24.771   9.202  11.082
16204W        W82745  34.059   2.410   0.277
16205W        W82746  25.158  16.050   4.610
16206W        W82747  30.254   8.968   4.710
16207W        W82748  15.405  37.672   2.823
16208W        W82749  18.746  11.562   3.966
16209W        W82750   8.308  35.572   2.336
16210W        W82751   6.540   3.346   0.328
16211W        W82752  25.941  19.956   1.759
16212W        W82753  24.693  14.205   2.176
16213W        W82754   2.912  42.038  11.939
16214W        W82755   2.293  37.923   2.833
16215W        W82756  32.568  17.543   2.875
16216W        W82757  41.731  13.485   3.530
16217W        W82758   6.590  21.626  12.910
16218W        W82759  30.595   6.417   4.179
16219W        W82760  20.132   3.918   4.574
16220W        W82761  35.812  37.607  12.242
16221W        W82762  33.399  32.199  14.050
16222W        W82763  22.422   0.414   3.849
16223W        W82764  23.712  42.091   3.558
16224W        W82765  29.680  32.183   3.609
16225W        W82766  44.907  35.588  13.976
16226W        W82767   4.806  24.940  12.041
16227W        W82768  23.766  21.190  13.578
16228W        W82769  19.030  20.618   4.591
16229W        W82770  20.155  43.101  12.994
16230W        W82771  38.631  40.817   5.017
16231W        W82772  37.789  44.565   4.795
16232W        W82773  18.655  37.534  14.514
16233W        W82774  39.886  19.009  13.960
16234W        W82775  19.103  20.267  14.906
16235W        W82776  28.963  33.076   2.760
16236W        W82777  22.188   1.074  14.491
16237W        W82778  25.449  27.778  11.156
16238W        W82779  14.733   9.897  12.519
16239W        W82780  15.227  24.769  12.398
16240W        W82781  22.525   0.477   3.343
16241W        W82782  21.319  11.512  11.111
16242W        W82783  16.832  14.084   0.738
16243W        W82784  30.013  40.177  10.925
16244W        W82785  35.093  25.148   2.859
16245W        W82786   1.693  19.087   3.149
16246W        W82787  36.056  38.913  11.537
16247W        W82788  22.576  37.194   4.366
16248W        W82789  12.004  40.937  10.417
16249W        W82790  36.552   5.919  10.401
16250W        W82791   4.473   1.323   0.783
16251W        W82792  28.457  40.885   4.052
16252W        W82793  23.554  22.291   2.823
16253W        W82794  21.081  32.617  12.985
16254W        W82795  22.849  28.628   0.811
16255W        W82796  21.690  30.110  11.572
16256W        W82797  27.077  28.369   3.026
16257W        W82798  10.288  17.083   0.163
16258W        W82799  14.304  11.616   0.618
16259W        W82800   8.419  32.033   1.351
16260W        W82801  42.069  25.188   3.428
16261W        W82802  28.878  31.443  11.133
16262W        W82803  32.056  38.956   3.602
16263W        W82804  16.802   4.369  14.443
16264W        W82805  34.648  22.628   1.280
16265W        W82806   4.576  38.058   4.503
16266W        W82807  18.373  35.000   1.321
16267W        W82808   7.875  15.363   3.120
16268W        W82809  38.806  43.384   1.938
16269W        W82810  44.787  35.335  13.494
16270W        W82811  15.223  39.784   5.266
16271W        W82812  25.039  37.396   3.737
16272W        W82813  28.987  10.310  11.497
16273W        W82814  15.305  29.177   5.047
16274W        W82815  12.136  14.148  13.923
16275W        W82816  34.856  24.558  11.160
16276W        W82817  42.793  18.846  13.441
16277W        W82818  22.081  35.366  14.505
16278W        W82819  32.542   5.922   4.142
16279W        W82820  40.921  20.990  12.310
16280W        W82821  20.006  30.450  14.557
16281W        W82822   9.848  17.373   0.399
16282W        W82823  35.842  12.964   4.987
16283W        W82824   4.000  28.653   2.597
16284W        W82825  38.950  38.575  13.797
16285W        W82826  30.072  11.653  11.041
16286W        W82827   8.856  41.360   0.353
16287W        W82828  12.078  17.322  12.668
16288W        W82829  43.932  12.880  14.765
16289W        W82830  19.050  27.565  14.842
16290W        W82831  18.210   1.036  14.915
16291W        W82832  11.738   8.356   1.420
16292W        W82833   7.667   9.912  12.917
16293W        W82834  21.349   2.077  14.164
16294W        W82835  23.778  22.039  12.244
16295W        W82836  15.624  10.765   2.229
16296W        W82837  12.114  15.639  14.022
16297W        W82838   6.213  19.114  10.699
16298W        W82839  42.986  17.871   3.684
16299W        W82840  24.992  40.835  14.916
16300W        W82841  23.719  28.126  11.154
16301W        W82842   1.966  26.685  11.176
16302W        W82843  29.890  41.298   2.627
16303W        W82844  13.146  21.074   0.657
16304W        W82845  42.942  31.111  11.081
16305W        W82846  37.366  37.968   2.695
16306W        W82847  12.304  23.537  11.528
16307W        W82848  35.791  10.928   1.380
16308W        W82849  39.526  43.501   2.350
16309W        W82850  30.390  19.270  14.457
16310W        W82851  13.495  36.100   0.308
16311W        W82852  29.401  40.951   3.421
16312W        W82853  13.677  42.973  13.405
16313W        W82854  30.111  33.590   1.173
16314W        W82855  40.205   8.301   0.215
16315W        W82856  28.486  16.200   2.699
16316W        W82857  11.912  42.229  14.250
16317W        W82858  23.094   8.986  11.547
16318W        W82859   2.746  11.797   0.233
16319W        W82860  24.625  16.226  13.471
16320W        W82861  19.626  37.598   3.708
16321W        W82862  30.699  17.983   1.686
16322W        W82863  42.798  27.593   0.623
16323W        W82864  30.374  29.997   4.667
16324W        W82865  30.055  35.921   0.757
16325W        W82866  43.356  11.943  10.247
16326W        W82867  13.724  27.641   4.514
16327W        W82868   4.899  22.191  12.992
16328W        W82869  33.971  27.305   1.788
16329W        W82870  26.183   0.458   1.274
16330W        W82871   2.338  23.264   4.932
16331W        W82872  17.680   7.897  10.781
16332W        W82873  31.220  11.112   9.753
16333W        W82874  22.067   3.533  13.085
16334W        W82875  19.964   6.678  10.684
16335W        W82876  32.151   2.742  13.095
16336W        W82877   6.503   1.857   0.260
16337W        W82878   5.733  23.395   4.005
16338W        W82879   8.123  27.008  12.527
16339W        W82880   7.237  15.795   4.945
16340W        W82881  23.538  11.185  11.816
16341W        W82882  16.744  16.892   2.297
16342W        W82883   1.425  30.975   0.975
16343W        W82884  20.511  44.808   0.648
16344W        W82885  23.984  24.655   2.718
16345W        W82886  15.686  22.557   3.057
16346W        W82887  43.181  37.173  11.892
16347W        W82888  26.441  21.436   3.192
16348W        W82889  29.427  28.591   4.551
16349W        W82890  28.846  31.872  14.326
16350W        W82891  18.576  32.815   2.819
16351W        W82892  37.140  22.225  13.931
16352W        W82893  31.662  26.136   1.820
16353W        W82894  28.924  32.605   0.726
16354W        W82895  37.591  30.521   2.019
16355W        W82896  35.141   3.808  12.769
16356W        W82897  36.312  18.017   1.681
16357W        W82898  37.923   5.498  11.634
16358W        W82899  20.769  20.209  14.823
16359W        W82900  27.357  12.303  12.035
16360W        W82901  39.409  35.760  13.833
16361W        W82902  19.846  24.376   2.963
16362W        W82903  18.187  38.460  10.682
16363W        W82904   6.676  43.278   0.272
16364W        W82905  35.323  42.835   1.498
16365W        W82906  34.132   9.642  13.912
16366W        W82907  11.686  14.696   1.476
16367W        W82908  36.988  40.682  12.594
16368W        W82909  22.247  43.500   1.168
16369W        W82910  43.273  17.169  12.437
16370W        W82911  26.693  19.380   0.686
16371W        W82912  27.909   6.615  11.604
16372W        W82913  23.719  24.634   3.174
16373W        W82914  22.603   2.311  14.520
16374W        W82915  35.232   8.273   2.849
16375W        W82916  38.859  22.035   0.321
16376W        W82917  30.839  13.568   1.253
16377W        W82918  36.050  19.424   0.709
16378W        W82919  13.586  40.003   3.287
16379W        W82920  42.025  18.426   9.728
16380W        W82921  27.017  36.052   4.554
16381W        W82922   4.296   9.223   0.498
16382W        W82923  41.382  13.878   3.564
16383W        W82924  21.638  19.108   1.851
16384W        W82925  17.374   6.726  11.426
16385W        W82926   4.585  26.743   5.081
16386W        W82927  20.159  16.918   3.557
16387W        W82928  18.692  34.237  11.221
16388W        W82929  36.114  11.074   0.407
16389W        W82930  36.454   6.941   1.329
16390W        W82931  16.556   6.685   3.135
16391W        W82932  31.488  33.943   2.305
16392W        W82933  32.000  14.251   3.742
16393W        W82934  20.232  41.586   3.983
16394W        W82935  18.207  14.053  12.535
16395W        W82936  40.234  29.026   3.097
16396W        W82937  25.013   7.382  13.859
16397W        W82938  15.092  44.347  11.226
16398W        W82939  15.799  42.415  13.766
16399W        W82940  11.629   3.425  12.098
16400W        W82941  32.528   0.650   4.541
16401W        W82942  10.596  13.276  11.141
16402W        W82943   3.014  11.645   2.695
16403W        W82944  15.261  42.004  12.394
16404W        W82945  14.620  11.053   3.157
16405W        W82946   1.960  29.979   1.966
16406W        W82947  19.238  31.134  11.112
16407W        W82948   6.670  22.748   2.280
16408W        W82949  35.235  37.590  13.290
16409W        W82950  16.558   3.070  12.610
16410W        W82951  32.056  34.566  11.111
16411W        W82952  36.542  24.603   4.174
16412W        W82953   3.950  28.662   4.843
16413W        W82954  20.788  33.051  11.430
16414W        W82955  32.027  37.659  13.044
16415W        W82956   5.307  10.128  14.575
16416W        W82957  38.062  32.919   3.422
16417W        W82958   8.293  30.764   0.692
16418W        W82959  21.507  17.254   2.627
16419W        W82960  31.249   1.834  10.271
16420W        W82961  29.582  32.031   4.090
16421W        W82962  19.031   9.950  11.635
16422W        W82963  33.951  38.104  14.815
16423W        W82964   5.048   0.536   3.627
16424W        W82965  30.170  42.304  12.490
16425W        W82966  15.750  38.415   4.339
16426W        W82967  30.144  14.592  14.910
16427W        W82968   3.622  30.085  11.924
16428W        W82969   8.937  25.430   3.266
16429W        W82970  10.771  23.964   2.412
16430W        W82971  40.021  18.636  11.765
16431W        W82972  41.978   5.836  13.122
16432W        W82973  42.035  34.438  12.079
16433W        W82974  35.382  41.496  14.409
16434W        W82975  13.043  36.575   0.845
16435W        W82976  32.605  39.985  12.472
16436W        W82977   9.727  16.506   4.370
16437W        W82978   5.611  33.396   3.356
16438W        W82979  44.781  37.970  14.479
16439W        W82980  16.756  23.231  12.586
16440W        W82981  21.540  37.153   3.250
16441W        W82982  17.257  38.445  11.079
16442W        W82983  13.311  34.913   0.017
16443W        W82984  44.253  12.535  11.214
16444W        W82985  18.159  28.399  14.486
16445W        W82986   3.617  11.566  14.387
16446W        W82987  42.985   0.776   1.251
16447W        W82988  11.284  26.077   3.535
16448W        W82989  33.606  19.552  14.807
16449W        W82990  37.238   2.686   4.187
16450W        W82991  40.950  26.595  12.071
16451W        W82992  24.507   7.972   0.422
16452W        W82993  11.675  26.624   0.818
16453W        W82994  34.033  14.411  12.032
16454W        W82995  41.904  40.993   0.137
16455W        W82996  17.156  18.531   4.784
16456W        W82997  40.333   8.773  12.978
16457W        W82998  44.953  10.418   1.938
16458W        W82999  36.364  25.144   3.210
16459W        W83000  11.516  37.472   0.898
16460W        W83001   9.613  12.169   1.845
16461W        W83002  29.093  39.853  11.274
16462W        W83003  44.523  15.517   4.672
16463W        W83004  44.769  13.269  13.571
16464W        W83005  37.874  26.986   1.734
16465W        W83006  31.467  20.040   1.337
16466W        W83007  17.003  10.906  11.261
16467W        W83008   2.411  24.654  12.071
16468W        W83009  14.573  32.158  12.860
16469W        W83010  38.700  12.341   4.578
16470W        W83011  18.684  39.671  11.602
16471W        W83012  23.533   2.438   1.826
16472W        W83013  43.266  20.379  11.132
16473W        W83014  15.353  20.703   4.484
16474W        W83015  25.560  30.099   0.194
16475W        W83016   3.068  34.181  12.563
16476W        W83017   6.953  42.013  14.964
16477W        W83018  42.567  17.052  14.894
16478W        W83019  42.837   6.825  10.569
16479W        W83020  25.920  12.132   2.475
16480W        W83021   1.626  19.672  12.714
16481W        W83022  34.731  26.825   4.627
16482W        W83023  12.190  17.254   2.887
16483W        W83024  34.388  43.338  11.915
16484W        W83025  22.748  14.730  13.905
16485W        W83026  42.287   6.368  11.036
16486W        W83027  40.453  17.606  14.391
16487W        W83028  16.500  41.340   1.410
16488W        W83029  31.538  43.239  12.339
16489W        W83030  42.574  37.385   0.698
16490W        W83031  10.184  24.838   2.340
16491W        W83032  40.833  35.413  12.721
16492W        W83033  11.728  10.024  10.251
16493W        W83034   3.692   5.152   3.690
16494W        W83035  28.766  17.673   1.954
16495W        W83036  28.592  17.605  14.479
16496W        W83037   3.804  37.939   1.140
16497W        W83038  29.041  25.272  10.426
16498W        W83039  43.476  40.816  12.659
16499W        W83040  40.272  14.100  14.479
16500W        W83041  17.060  13.205   4.137
16501W        W83042  29.813  32.868  11.958
16502W        W83043  25.050   6.212   1.241
16503W        W83044   7.641  25.427   3.558
16504W        W83045   2.689  44.727   4.085
16505W        W83046  42.193  12.255   0.792
16506W        W83047  15.662  20.774   0.653
16507W        W83048  16.465  26.531   2.419
16508W        W83049  43.533  21.151   1.648
16509W        W83050  38.961  37.539  14.904
16510W        W83051   0.541  21.117  12.086
16511W        W83052   3.201   9.018  11.426
16512W        W83053  22.149  40.231  14.205
16513W        W83054  25.608   2.967   3.767
16514W        W83055  16.254  29.535  10.655
16515W        W83056  37.275  11.350  14.337
16516W        W83057  44.050  21.378  10.977
16517W        W83058  10.902  41.921  12.062
16518W        W83059  40.451  36.224   4.591
16519W        W83060  35.903  11.480   3.599
16520W        W83061  36.385  14.598   3.151
16521W        W83062  39.067  20.788   3.346
16522W        W83063  44.003   2.952  11.177
16523W        W83064  31.818  10.817  12.454
16524W        W83065   5.385   0.634  12.512
16525W        W83066   6.855   2.196  12.503
16526W        W83067  12.118  18.788   3.349
16527W        W83068  36.395  22.443   1.728
16528W        W83069  43.386  19.281   1.487
16529W        W83070  29.871   9.404  11.357
16530W        W83071  30.436  44.332  13.140
16531W        W83072  42.030  12.124   1.291
16532W        W83073  19.551  31.901  10.586
16533W        W83074   4.330  32.206  14.882
16534W        W83075  42.824   2.224   0.429
16535W        W83076  42.783  20.284   0.069
16536W        W83077  34.644  43.927   4.691
16537W        W83078  36.079  20.695   4.041
16538W        W83079  35.190  36.653  13.401
16539W        W83080  40.753  17.979   1.383
16540W        W83081   1.189  27.877   2.861
16541W        W83082  39.882   0.501  12.058
16542W        W83083   2.128  22.234   3.585
16543W        W83084  24.771   8.636  14.881
16544W        W83085  41.772  30.426  12.170
16545W        W83086  39.482   8.153  11.182
16546W        W83087   2.244  25.048   2.892
16547W        W83088  26.025  27.029   0.813
16548W        W83089  35.147  30.803   3.416
16549W        W83090  38.710  11.141   1.993
16550W        W83091  20.423   6.962  10.850
16551W        W83092   8.708  21.216  14.905
16552W        W83093  15.117  35.676  14.883
16553W        W83094   8.163  18.682  12.042
16554W        W83095   3.712   0.339   9.875
16555W        W83096  38.958  27.631   3.560
16556W        W83097  34.406  20.253   0.774
16557W        W83098  29.059   2.192   3.267
16558W        W83099  23.899  22.585  11.481
16559W        W83100  43.801  10.048   4.030
16560W        W83101  26.057  37.133   0.355
16561W        W83102  25.643  33.344  12.851
16562W        W83103   5.041  32.539   4.977
16563W        W83104  38.437   6.828   3.096
16564W        W83105  22.608  13.860   4.708
16565W        W83106  34.152   7.194   1.334
16566W        W83107  36.018  32.926   3.238
16567W        W83108   4.181   2.673   4.371
16568W        W83109  19.471  21.757   2.399
16569W        W83110   4.633   7.251   2.836
16570W        W83111  33.413  44.709   1.434
16571W        W83112  14.090   2.444   3.905
16572W        W83113  38.373  23.124  11.690
16573W        W83114  34.652  21.511   1.876
16574W        W83115  37.090  15.805  11.019
16575W        W83116  17.297   8.913  13.441
16576W        W83117  29.960  17.271  14.803
16577W        W83118   2.430  25.501   3.069
16578W        W83119  25.459  23.498   3.771
16579W        W83120  41.578  19.600  11.129
16580W        W83121  38.986  21.942  10.677
16581W        W83122   9.422  10.262   3.633
16582W        W83123  33.576  44.964  13.605
16583W        W83124  11.525  36.551   3.279
16584W        W83125  28.499  16.539  13.950
16585W        W83126  24.520   5.369   3.077
16586W        W83127  38.638  39.946  12.113
16587W        W83128   4.661  36.650   2.615
16588W        W83129  41.399  24.026  12.917
16589W        W83130  22.217   6.964   0.488
16590W        W83131  41.514   1.763   3.671
16591W        W83132  15.412  27.554  13.928
16592W        W83133  37.560  25.101   1.485
16593W        W83134  42.168  13.387   3.302
16594W        W83135  32.632  17.650   1.397
16595W        W83136  19.273  42.579   0.020
16596W        W83137   3.412  36.602   3.869
16597W        W83138  33.146  24.323   2.299
16598W        W83139  20.662  31.129  11.154
16599W        W83140  18.477   4.924  11.535
16600W        W83141  24.867   6.706  10.253
16601W        W83142  24.697  33.639   4.423
16602W        W83143   8.796  22.789  12.623
16603W        W83144  26.748  10.657   3.084
16604W        W83145  14.793  44.171  10.599
16605W        W83146  23.061  24.465  11.532
16606W        W83147   9.883  19.615   3.676
16607W        W83148  13.761   0.241   4.673
16608W        W83149  41.600   1.706  14.022
16609W        W83150  40.815  43.087   0.884
16610W        W83151   1.700  39.653   2.876
16611W        W83152  12.618   3.091  14.581
16612W        W83153  27.743  13.319   2.677
16613W        W83154  41.997  10.917  11.983
16614W        W83155   2.418   8.562  12.127
16615W        W83156  29.917  21.054  11.175
16616W        W83157   0.987  33.842  11.116
16617W        W83158   8.290  44.674   0.545
16618W        W83159   9.776   3.680  12.971
16619W        W83160  29.906  13.418   3.735
16620W        W83161   3.805   5.704   0.787
16621W        W83162  27.069   9.878  13.889
16622W        W83163  19.095  13.137   1.536
16623W        W83164  17.333  27.058  12.105
16624W        W83165  23.984  38.910   2.944
16625W        W83166  42.446  26.462   2.331
16626W        W83167  41.331  30.120  13.605
16627W        W83168  39.250  14.722  14.784
16628W        W83169  39.787  41.293  11.060
16629W        W83170  19.506  19.842  13.505
16630W        W83171  33.964  35.557   0.841
16631W        W83172  16.239  10.845   0.012
16632W        W83173   2.282  16.800  11.531
16633W        W83174   9.191  30.939  12.565
16634W        W83175  35.778  20.916   1.296
16635W        W83176  20.045   3.147  12.372
16636W        W83177  44.085  38.795   1.276
16637W        W83178  21.638   7.311  12.922
16638W        W83179  38.596  32.547  10.591
16639W        W83180   1.815  33.389   1.294
16640W        W83181  33.279  37.738  10.012
16641W        W83182  35.696   3.890   1.908
16642W        W83183  44.368  43.876  14.023
16643W        W83184  16.672  25.389  10.675
16644W        W83185   1.012  31.459  13.581
16645W        W83186  33.922  22.878   1.172
16646W        W83187  30.145   4.883   0.954
16647W        W83188  12.959  39.877   3.612
16648W        W83189   0.524  40.897   3.608
16649W        W83190  40.987  13.788  14.299
16650W        W83191  36.456  12.605  12.441
16651W        W83192  32.311  23.389   3.265
16652W        W83193  28.260  13.940   4.488
16653W        W83194   4.809  29.378   0.455
16654W        W83195   6.309   1.985   1.255
16655W        W83196  39.147  40.351   0.874
16656W        W83197  20.024  20.764  14.921
16657W        W83198  22.530  37.976   3.148
16658W        W83199  43.502  44.355  10.122
16659W        W83200   0.981  36.904  12.880
16660W        W83201  12.040  17.601   1.993
16661W        W83202   2.481   7.155  11.610
16662W        W83203   5.431   7.831  11.286
16663W        W83204  26.051   5.303  10.674
16664W        W83205  43.874  19.239  14.820
16665W        W83206  32.545  15.787  11.623
16666W        W83207  26.362  12.906  14.504
16667W        W83208  27.440   1.932   0.842
16668W        W83209  33.264   1.398  11.718
16669W        W83210  13.794   5.808  13.591
16670W        W83211  13.978  12.226  14.468
16671W        W83212  35.717  10.339  13.362
16672W        W83213  35.295   4.938  11.113
16673W        W83214   4.257  41.530  12.108
16674W        W83215   4.860  27.516   0.702
16675W        W83216  36.618  38.451  12.366
16676W        W83217  39.838  29.141   0.243
16677W        W83218  18.706  40.998   3.441
16678W        W83219  34.380  25.628  11.189
16679W        W83220  17.805  33.404  11.542
16680W        W83221  40.713   3.241   0.780
16681W        W83222  15.508  42.108  14.377
16682W        W83223  39.537  18.907   0.531
16683W        W83224  24.125  21.034   2.445
16684W        W83225   3.589  10.745   4.503
16685W        W83226  41.982  23.569  12.197
16686W        W83227  38.450  11.240   3.417
16687W        W83228  25.176  10.481   3.995
16688W        W83229  31.592  33.909   1.781
16689W        W83230   2.417   4.230   2.308
16690W        W83231   6.734  39.008   0.270
16691W        W83232   1.627  31.497   0.873
16692W        W83233  15.249  24.600  12.870
16693W        W83234  23.071  29.787   0.599
16694W        W83235  31.054   4.807   3.327
16695W        W83236  15.567  23.868  14.250
16696W        W83237  18.124  14.038  14.415
16697W        W83238  25.467   6.814   3.240
16698W        W83239  25.435  11.681   3.125
16699W        W83240  36.905  31.627  14.764
16700W        W83241  42.546  27.493   2.250
16701W        W83242  17.249  32.555  11.635
16702W        W83243  10.279  10.597   0.229
16703W        W83244  23.727  39.115   0.824
16704W        W83245  26.960  17.949   4.887
16705W        W83246   9.220  34.761   1.542
16706W        W83247  37.406   9.435   2.800
16707W        W83248  25.816   0.955  10.372
16708W        W83249  39.112  29.917  13.092
16709W        W83250   7.853  29.948   4.582
16710W        W83251  34.869  28.058   3.699
16711W        W83252  36.831   3.662  14.584
16712W        W83253  32.155  41.922  10.714
16713W        W83254  10.790  25.365   0.702
16714W        W83255  21.755   3.893   4.457
16715W        W83256   2.756  42.824   2.695
16716W        W83257  30.634  38.296   2.385
16717W        W83258  26.621  20.300   2.261
16718W        W83259  11.240  20.128  14.810
16719W        W83260  43.422  15.473  11.177
16720W        W83261   8.317  11.679  12.032
16721W        W83262  24.183  16.998  13.376
16722W        W83263  44.302  38.708  14.519
16723W        W83264  18.614  28.549  14.267
16724W        W83265   9.667  19.275  11.650
16725W        W83266   3.940  24.239   3.318
16726W        W83267  13.775  34.377  11.899
16727W        W83268  13.809  21.594   4.391
16728W        W83269  19.538  14.735  14.825
16729W        W83270  18.585  13.159   1.673
16730W        W83271  13.823   8.508  12.878
16731W        W83272  26.744  15.040  11.533
16732W        W83273  32.730  25.057   5.030
16733W        W83274  16.054  18.204  10.655
16734W        W83275  12.965   7.358  12.881
16735W        W83276  34.014   1.823  14.378
16736W        W83277  31.455  41.835  13.819
16737W        W83278  39.869  29.460  11.599
16738W        W83279   3.335  13.359   1.864
16739W        W83280  15.345  32.638   3.562
16740W        W83281  19.894   6.198  13.822
16741W        W83282  37.620   9.991  13.437
16742W        W83283   9.911   1.223   3.731
16743W        W83284  13.064  32.323  14.538
16744W        W83285  41.398  31.393  13.848
16745W        W83286  33.555   5.411   9.819
16746W        W83287  21.681  32.310  14.019
16747W        W83288  32.604  10.892  13.416
16748W        W83289  10.090   9.289  11.978
16749W        W83290  14.310  15.609  11.665
16750W        W83291  15.803  14.018   3.890
16751W        W83292   3.813  26.991   3.756
16752W        W83293  24.937  19.001  12.542
16753W        W83294  23.593  40.609   3.645
16754W        W83295   2.621  36.055  14.761
16755W        W83296   1.706  18.832  12.464
16756W        W83297  18.861  24.491  12.108
16757W        W83298  34.482  14.581   1.881
16758W        W83299  33.581  27.417  12.400
16759W        W83300  32.877  42.388  11.080
16760W        W83301   9.027  11.889   4.733
16761W        W83302  30.658   0.899   1.936
16762W        W83303  10.775  44.728  11.156
16763W        W83304  16.039   4.962   3.219
16764W        W83305  11.326  19.867  11.552
16765W        W83306   2.963  39.566   2.461
16766W        W83307  17.123  27.513  13.321
16767W        W83308  29.707  16.208   0.960
16768W        W83309  33.169  31.130  12.797
16769W        W83310  20.659  27.479  13.894
16770W        W83311  32.230  25.153   3.415
16771W        W83312  44.233  44.538  12.920
16772W        W83313  29.705  18.643  13.002
16773W        W83314   9.752  39.891   0.699
16774W        W83315   5.476  17.567  10.842
16775W        W83316  10.386   3.635   0.307
16776W        W83317   0.391  27.191  11.545
16777W        W83318  16.079  34.425   0.885
16778W        W83319   1.669  29.925  10.697
16779W        W83320  23.293  20.215   4.723
16780W        W83321  27.616  35.653   0.006
16781W        W83322   4.946   0.273   0.889
16782W        W83323   9.351  10.813  10.472
16783W        W83324   9.328   6.943  13.838
16784W        W83325   1.495  40.279  14.479
16785W        W83326  15.338  14.941  14.799
16786W        W83327  23.053   6.187   0.731
16787W        W83328  41.827  33.389   3.650
16788W        W83329   9.379   5.717   3.754
16789W        W83330  40.554  31.094  12.961
16790W        W83331  32.733  19.183   0.849
16791W        W83332  15.670  26.595  11.349
16792W        W83333  34.183  10.820   2.217
16793W        W83334  23.144   2.420  14.613
16794W        W83335  23.936  29.623  10.513
16795W        W83336  12.830  35.820   0.925
16796W        W83337  37.089   4.015  14.829
16797W        W83338  31.193  22.814   0.446
16798W        W83339  15.567  42.511   1.404
16799W        W83340  11.919   8.367   4.211
16800W        W83341  38.544  22.975   3.326
16801W        W83342  31.509  23.034   2.760
16802W        W83343  30.710  34.874   0.182
16803W        W83344  16.053  14.161  14.807
16804W        W83345  16.354  17.972   0.794
16805W        W83346  39.398  33.900   0.453
16806W        W83347  11.053  34.885   2.728
16807W        W83348   1.176  20.194   4.089
16808W        W83349  15.916  20.022   2.122
16809W        W83350   9.405  38.425   1.366
16810W        W83351  24.032  35.849  13.610
16811W        W83352  23.714  19.146  14.846
16812W        W83353  25.812   2.055   3.274
16813W        W83354  40.838   0.737  11.194
16814W        W83355   4.822  33.954   4.453
16815W        W83356  21.983   4.781   0.863
16816W        W83357   6.915  32.276  12.455
16817W        W83358  18.172  18.729  13.463
16818W        W83359  43.793  40.183   4.663
16819W        W83360  32.798  37.981  11.266
16820W        W83361  43.693   6.647   3.932
16821W        W83362   8.286  27.295   1.617
16822W        W83363  26.494  15.583   3.665
16823W        W83364   0.216  39.498   1.795
16824W        W83365  30.518   7.247  13.757
16825W        W83366  42.565  14.828   0.356
16826W        W83367   6.310   4.327   1.278
16827W        W83368  10.206  11.567   4.315
16828W        W83369  22.513  43.539   0.707
16829W        W83370  14.035  22.583  11.686
16830W        W83371  23.172  26.045  13.853
16831W        W83372  17.710  31.480  12.789
16832W        W83373  14.180  21.857   4.010
16833W        W83374  31.417  26.294  13.401
16834W        W83375  44.050  34.505   3.316
16835W        W83376  36.090  16.878  12.451
16836W        W83377  40.551  19.513   3.699
16837W        W83378  11.667  10.732   4.377
16838W        W83379  16.828   4.180  11.246
16839W        W83380  10.295  38.469  12.076
16840W        W83381  40.429  35.082   2.872
16841W        W83382   1.088  34.210  14.052
16842W        W83383  35.544   6.494  12.507
16843W        W83384  20.093   2.401  12.981
16844W        W83385   8.995   6.226  12.139
16845W        W83386  26.647   0.438   0.046
16846W        W83387   5.982   1.918  14.401
16847W        W83388  32.137  15.810  14.544
16848W        W83389  19.725   9.212   1.397
16849W        W83390  41.727  39.472  10.648
16850W        W83391  21.055  15.542   0.672
16851W        W83392  12.168  39.284   1.658
16852W        W83393   0.862  10.476   4.540
16853W        W83394   2.245  27.015  10.830
16854W        W83395  37.065  38.271  10.783
16855W        W83396   4.610  24.034   4.926
16856W        W83397  33.184  32.899   3.365
16857W        W83398  22.688  33.372   2.799
16858W        W83399  27.270  41.280  14.484
16859W        W83400   6.902  12.248   1.352
16860W        W83401  37.897  19.788   2.157
16861W        W83402   3.423  18.016   1.461
16862W        W83403   3.394  29.043   1.523
16863W        W83404  38.982  15.170  13.514
16864W        W83405  24.621  37.416  14.937
16865W        W83406  35.122  44.388   3.103
16866W        W83407  13.252  30.671  10.363
16867W        W83408  34.362  30.496  14.910
16868W        W83409  43.245  27.080  14.014
16869W        W83410   0.024  28.060  13.328
16870W        W83411  39.497  38.255   1.482
16871W        W83412  43.265   2.287   3.229
16872W        W83413  27.972   2.382   1.421
16873W        W83414  27.227  23.462   0.729
16874W        W83415  30.083  32.630  14.965
16875W        W83416  11.038  24.141  11.520
16876W        W83417  10.109   9.810  12.090
16877W        W83418  21.708  14.000   0.519
16878W        W83419  29.449  30.241   4.161
16879W        W83420  20.548  18.780   1.840
16880W        W83421  29.576  32.593  10.639
16881W        W83422  31.683  42.048  11.049
16882W        W83423   0.975   0.826  14.740
16883W        W83424  34.999  33.112  14.408
16884W        W83425   4.910  25.009   0.789
16885W        W83426  23.740  35.443  13.809
16886W        W83427  39.801  44.460  10.790
16887W        W83428  22.058   6.864   1.503
16888W        W83429  36.106  44.744  11.087
16889W        W83430  14.721  38.100  13.536
16890W        W83431   2.903  30.877  12.927
16891W        W83432  36.064   8.905   0.750
16892W        W83433   5.850  11.880   2.579
16893W        W83434  28.000   6.300   1.837
16894W        W83435  18.222  20.169  10.840
16895W        W83436  16.394  11.727   0.392
16896W        W83437   6.156  19.560  12.039
16897W        W83438  32.651  36.011   0.701
16898W        W83439  17.577  21.364  11.805
16899W        W83440  21.236  13.843   3.615
16900W        W83441   4.808   9.503  10.661
16901W        W83442  39.038   6.163  13.551
16902W        W83443   7.462  21.210   1.299
16903W        W83444  41.571  39.381  11.132
16904W        W83445  38.323  13.818  11.479
16905W        W83446   3.908  31.123  14.074
16906W        W83447  18.398   2.885   2.711
16907W        W83448   5.263  26.193  11.854
16908W        W83449   0.958  18.011   1.394
16909W        W83450  16.110  24.783   0.382
16910W        W83451  39.534  16.147  12.079
16911W        W83452  20.810   9.802   1.414
16912W        W83453   0.661  33.126   4.719
16913W        W83454   8.120  38.425  13.549
16914W        W83455  31.206  31.956   2.388
16915W        W83456  27.667  21.206  11.874
16916W        W83457  11.283  33.285  12.988
16917W        W83458  18.672  35.078  13.480
16918W        W83459  15.014  28.614  13.830
16919W        W83460  14.093   8.893   4.105
16920W        W83461   2.871  23.500   1.745
16921W        W83462   8.175  37.244   0.353
16922W        W83463  10.256   8.569  10.734
16923W        W83464   5.849  34.850   0.904
16924W        W83465   8.556  27.496   0.804
16925W        W83466  24.944  36.317   1.981
16926W        W83467   9.640  41.088   3.187
16927W        W83468   0.264  36.170  11.694
16928W        W83469  42.339  17.718   1.859
16929W        W83470   2.012  44.924   0.127
16930W        W83471   1.305  41.763   1.176
16931W        W83472  35.047  38.774  14.896
16932W        W83473  30.676   4.139   1.529
16933W        W83474  11.229  19.142  14.278
16934W        W83475   5.675   8.839   2.982
16935W        W83476   5.410  10.847  12.067
16936W        W83477  24.991  31.679   3.769
16937W        W83478  27.170  17.045   0.227
16938W        W83479   2.016   5.844   3.332
16939W        W83480  10.730  35.176   3.044
16940W        W83481  29.510  35.086   1.846
16941W        W83482  33.489  22.601  13.414
16942W        W83483  29.583  22.391   1.867
16943W        W83484  34.533  25.649  14.367
16944W        W83485  35.492  30.427   4.434
16945W        W83486  14.611  42.372  11.022
16946W        W83487   8.786   9.178  14.011
16947W        W83488  42.523  34.009  10.865
16948W        W83489  24.472   1.487  11.576
16949W        W83490  36.152  32.136  14.339
16950W        W83491   7.700  34.842  13.803
16951W        W83492   3.181  38.723  14.168
16952W        W83493  24.084  14.242  14.515
16953W        W83494  38.100   3.920   0.769
16954W        W83495  17.165  25.168  11.217
16955W        W83496   0.544  39.270   0.861
16956W        W83497   1.922  18.583  13.938
16957W        W83498  30.497   8.630  13.002
16958W        W83499   2.409  18.252   2.360
16959W        W83500  20.223   6.412  14.801
16960W        W83501  23.972  25.165   3.957
16961W        W83502  33.445  42.736  14.834
16962W        W83503  44.850   1.723   1.353
16963W        W83504  18.466  34.107   2.969
16964W        W83505  42.791  28.443  12.158
16965W        W83506   3.189   5.792  12.681
16966W        W83507   9.379  35.625  14.994
16967W        W83508  28.609  44.698   3.704
16968W        W83509   3.885  31.063   0.417
16969W        W83510   0.390  11.655   2.724
16970W        W83511  40.264  28.124   0.984
16971W        W83512  36.545  36.648   4.199
16972W        W83513  44.876  42.409   4.795
16973W        W83514  22.206  39.827   4.051
16974W        W83515  36.163   6.781  10.590
16975W        W83516  28.591  15.281   1.911
16976W        W83517  23.483  26.171  13.447
16977W        W83518  18.672  30.038  10.729
16978W        W83519   5.394  29.346  11.218
16979W        W83520  38.570  28.983  13.867
16980W        W83521   7.683  33.334  13.438
16981W        W83522  35.832   0.111   0.725
16982W        W83523  12.621   3.866   4.567
16983W        W83524  43.511  30.208  14.367
16984W        W83525  26.791   5.996   3.230
16985W        W83526  29.598  14.041  12.022
16986W        W83527  36.426  39.451   2.324
16987W        W83528   7.315   3.222   4.609
16988W        W83529   1.799  18.316   1.781
16989W        W83530  19.644   2.257   2.153
16990W        W83531  19.262   8.667  13.388
16991W        W83532  41.248  39.614  13.432
16992W        W83533  34.294  21.242  12.655
16993W        W83534  42.077  37.019   2.726
16994W        W83535  21.755  21.759   3.437
16995W        W83536   4.341  21.596   3.324
16996W        W83537  24.002  19.559  10.714
16997W        W83538  19.168  29.176  12.663
16998W        W83539  12.315  29.085  14.495
16999W        W83540  31.171  26.421   0.443
17000W        W83541  43.880  44.519  11.613
17001W        W83542  33.346   7.925   1.785
17002W        W83543   8.705  11.807  11.187
17003W        W83544  23.201  28.535   0.419
17004W        W83545  33.989  40.052   4.437
17005W        W83546  43.367  13.258  10.302
17006W        W83547  37.805   0.431  14.094
17007W        W83548  32.936   1.275   0.860
17008W        W83549  20.271  39.421   1.672
17009W        W83550  10.751  19.579   0.417
17010W        W83551  36.162  40.078  14.326
17011W        W83552  39.420  44.459   4.674
17012W        W83553   8.797   2.406  11.506
17013W        W83554  18.043   0.040  11.180
17014W        W83555  22.795  43.880   2.723
17015W        W83556  38.028  10.747   4.268
17016W        W83557  17.696  43.853   3.962
17017W        W83558  42.578  35.432  14.167
17018W        W83559  17.218   5.493  11.889
17019W        W83560  18.782   5.642  10.970
17020W        W83561  20.678  35.646  11.876
17021W        W83562  41.530  37.386   0.309
17022W        W83563   0.521  33.481   2.608
17023W        W83564  16.085  15.847   3.601
17024W        W83565   4.242  21.778  10.735
17025W        W83566  11.214   3.448   3.712
17026W        W83567   4.899  17.833  14.477
17027W        W83568  40.512  10.480  13.718
17028W        W83569  24.439  15.780  10.502
17029W        W83570  42.517  44.422  12.467
17030W        W83571  28.953  33.916  10.774
17031W        W83572  39.223  36.555   2.714
17032W        W83573   9.695  23.171   3.829
17033W        W83574  42.490  33.304  13.100
17034W        W83575  37.602  42.373   4.633
17035W        W83576  19.829  31.569   4.876
17036W        W83577   9.930  20.095   4.817
17037W        W83578  13.913  35.134   3.168
17038W        W83579  18.318   9.403  11.356
17039W        W83580  37.465  29.492   0.735
17040W        W83581   9.443  33.620   4.645
17041W        W83582   9.554  13.729   2.393
17042W        W83583  14.203  25.263  11.619
17043W        W83584  18.090  34.323   0.742
17044W        W83585  28.311  13.026   2.855
17045W        W83586   3.557   9.307  10.517
17046W        W83587  13.077   0.304  14.207
17047W        W83588  17.477  39.336   2.754
17048W        W83589  27.479  24.908   1.683
17049W        W83590  10.210  19.642   1.084
17050W        W83591  20.306   5.044  14.768
17051W        W83592  31.238  39.406  12.476
17052W        W83593  21.973  15.401   0.350
17053W        W83594   5.703  11.046   0.957
17054W        W83595   2.494  28.027  13.986
17055W        W83596  41.314  26.408  10.873
17056W        W83597  30.888  44.989  12.026
17057W        W83598  44.639  42.432   0.990
17058W        W83599   0.161  18.071  12.004
17059W        W83600  31.725   8.153   1.475
17060W        W83601  11.840  26.678   1.306
17061W        W83602  30.836  13.634   2.719
17062W        W83603   9.885   7.711  11.695
17063W        W83604   3.710  44.943   5.254
17064W        W83605   0.640  41.390   2.825
17065W        W83606  10.356  22.651   2.183
17066W        W83607  31.950  16.309  10.645
17067W        W83608   5.230  18.522   1.279
17068W        W83609   5.446  21.726  11.251
17069W        W83610  19.845   4.644   1.627
17070W        W83611  39.567   7.777  12.131
17071W        W83612  38.966  15.271  11.611
17072W        W83613  33.629  31.944   1.577
17073W        W83614  26.726  22.656   4.711
17074W        W83615  19.138  15.109   1.810
17075W        W83616  32.076  36.086   3.757
17076W        W83617  23.509  37.144   4.361
17077W        W83618  42.629  15.177  11.720
17078W        W83619  43.888   9.085   2.309
17079W        W83620  28.620   6.234   2.726
17080W        W83621  23.472   5.465  12.144
17081W        W83622  18.540  26.179   1.798
17082W        W83623  20.086   3.316   1.479
17083W        W83624   5.001   5.496   3.076
17084W        W83625  38.382  37.637   3.205
17085W        W83626  39.469   7.050   4.073
17086W        W83627  22.492  32.245  14.376
17087W        W83628  31.669  42.885   4.474
17088W        W83629  20.106  37.367  12.020
17089W        W83630  39.533  44.064  12.142
17090W        W83631  16.311  23.148  12.299
17091W        W83632  44.583  13.466   3.953
17092W        W83633  44.926  37.358   0.385
17093W        W83634  41.259  30.078   1.794
17094W        W83635  40.899  36.192  13.371
17095W        W83636  43.665  16.254   1.914
17096W        W83637  34.655  15.706   0.509
17097W        W83638  29.861  22.077   3.179
17098W        W83639  35.158  32.442  12.912
17099W        W83640  36.114  12.964   0.282
17100W        W83641  44.824   3.510   2.685
17101W        W83642   1.720   5.390  12.046
17102W        W83643   4.639  23.938  10.328
17103W        W83644  15.686  13.576   3.630
17104W        W83645  42.605  20.529   2.745
17105W        W83646  13.702  38.133   3.325
17106W        W83647  38.464   6.625  10.768
17107W        W83648  42.750  25.742   1.669
17108W        W83649   7.267  24.032  12.929
17109W        W83650   8.077  40.823  14.755
17110W        W83651   3.295  18.789   1.574
17111W        W83652  30.579  23.043  11.338
17112W        W83653  23.199  19.479   1.458
17113W        W83654  36.887  37.631  13.354
17114W        W83655   1.719  25.533  10.188
17115W        W83656  40.439  11.030   0.797
17116W        W83657   8.853   3.158   1.796
17117W        W83658  16.075  18.652   1.541
17118W        W83659   2.778  33.295   3.251
17119W        W83660  28.158  44.538   3.920
17120W        W83661  33.168  39.485   2.232
17121W        W83662  36.900  43.767   1.036
17122W        W83663  38.197  16.308   4.261
17123W        W83664  10.236  35.148   0.360
17124W        W83665  22.723  17.529  13.502
17125W        W83666  12.782  12.865   1.261
17126W        W83667  14.564   5.264  10.572
17127W        W83668  36.521  27.855   0.434
17128W        W83669   4.407   0.306  12.186
17129W        W83670   6.328  14.111   0.861
17130W        W83671  31.878  11.217   4.127
17131W        W83672  18.171  25.682   1.841
17132W        W83673  44.608  33.001  12.500
17133W        W83674  36.421  43.725   3.663
17134W        W83675  29.962  14.667   0.417
17135W        W83676  18.965  41.477  13.073
17136W        W83677  12.728   2.891   4.506
17137W        W83678   2.148  43.281   4.385
17138W        W83679  12.884  23.505   4.851
17139W        W83680  12.162  20.724   4.552
17140W        W83681  10.592  30.410  13.392
17141W        W83682   1.822  29.221  13.938
17142W        W83683  35.140  38.811  11.096
17143W        W83684   7.324  12.574   2.074
17144W        W83685   7.581  13.419   2.298
17145W        W83686  20.591  42.507  10.996
17146W        W83687  21.001  44.365   2.731
17147W        W83688  31.597   5.343   2.718
17148W        W83689  42.852  20.747   1.513
17149W        W83690  10.699  26.285  14.940
17150W        W83691   0.129  30.113  14.295
17151W        W83692  35.550   2.432   2.370
17152W        W83693   6.332  44.091  14.248
17153W        W83694   4.946  10.320   2.276
17154W        W83695  27.250   4.387  13.292
17155W        W83696  10.035  23.032   2.409
17156W        W83697   9.570  33.864  15.000
17157W        W83698  41.234  40.215   1.811
17158W        W83699  25.170   6.988   1.684
17159W        W83700  39.222  26.125  14.327
17160W        W83701  43.226  32.573  12.420
17161W        W83702  25.955  32.056  11.989
17162W        W83703   5.909   1.000   3.554
17163W        W83704  41.431  43.795   0.574
17164W        W83705  30.761   8.782  10.366
17165W        W83706  33.102  11.916   0.995
17166W        W83707   4.310   5.875  14.072
17167W        W83708   9.803   3.715   0.879
17168W        W83709  44.243  27.603  14.253
17169W        W83710  12.204  26.997  13.446
17170W        W83711  23.998   4.597   1.353
17171W        W83712   6.329  20.344  14.745
17172W        W83713  12.344  11.665  14.731
17173W        W83714  15.165  11.956  10.517
17174W        W83715  15.300  36.038   4.032
17175W        W83716  27.039   2.016  11.139
17176W        W83717  39.129   3.902  14.155
17177W        W83718  31.502   0.385  14.519
17178W        W83719  39.589   7.673  11.292
17179W        W83720  27.486  35.515   4.725
17180W        W83721  32.041  14.157  11.273
17181W        W83722  13.324  25.497  11.088
17182W        W83723  37.556   2.351   4.500
17183W        W83724  30.019  24.428  14.012
17184W        W83725  10.731  34.889   4.048
17185W        W83726  19.225  10.870  11.632
17186W        W83727   1.014  36.125   1.892
17187W        W83728  10.197  39.758  12.200
17188W        W83729  40.236  23.545  13.865
17189W        W83730  38.492  26.431   3.770
17190W        W83731  37.591  23.919  14.038
17191W        W83732  33.041  42.774  14.422
17192W        W83733  23.333  39.929   4.628
17193W        W83734  10.298  27.629   1.611
17194W        W83735   2.214  28.884  13.922
17195W        W83736  22.108  19.199   2.866
17196W        W83737  16.613  26.255   1.622
17197W        W83738  14.601  43.214   2.788
17198W        W83739  12.392  35.820   1.210
17199W        W83740  41.098  20.564   1.450
17200W        W83741  18.348  10.202  12.473
17201W        W83742  36.388   8.303  14.197
17202W        W83743  31.922  24.502  14.887
17203W        W83744  21.962  31.358   2.158
17204W        W83745  32.780  18.166   4.399
17205W        W83746  19.721  24.197   3.921
17206W        W83747  29.396   4.420   1.373
17207W        W83748  35.991  29.528  10.799
17208W        W83749  28.648  26.148  13.341
17209W        W83750  32.988  31.073   0.404
17210W        W83751  12.792  14.836  11.425
17211W        W83752  36.091  31.042   2.661
17212W        W83753  35.351  20.307  13.609
17213W        W83754  15.291   6.837  12.513
17214W        W83755   0.786  36.960  14.313
17215W        W83756   8.393  17.707  12.901
17216W        W83757   5.815  21.854   3.650
17217W        W83758   6.926  23.399  13.075
17218W        W83759  27.257  17.529  13.438
17219W        W83760  21.223   9.709   0.687
17220W        W83761  28.667  33.769   1.322
17221W        W83762  39.481  36.407  10.955
17222W        W83763  43.972  19.966  13.590
17223W        W83764  23.225  26.188   3.626
17224W        W83765  42.620  21.978  13.471
17225W        W83766   4.343   2.207  11.763
17226W        W83767  17.388   5.240   9.863
17227W        W83768  39.651   6.207  11.445
17228W        W83769  33.394  16.877   0.549
17229W        W83770  39.039  44.725  13.347
17230W        W83771  10.770  16.679   4.472
17231W        W83772  43.421  40.779   3.636
17232W        W83773   0.542  40.333   3.129
17233W        W83774  27.721   6.775   2.721
17234W        W83775   1.545  28.934  10.877
17235W        W83776  32.910   1.921   1.230
17236W        W83777  39.970   1.715  14.473
17237W        W83778  12.251  18.762  11.470
17238W        W83779  17.133  10.436  11.477
17239W        W83780  14.365  34.489   1.377
17240W        W83781   6.936  14.160  12.320
17241W        W83782   1.420  15.526   3.698
17242W        W83783  18.171  11.276  14.182
17243W        W83784  14.133  37.829  10.916
17244W        W83785  42.281  32.587   0.817
17245W        W83786  37.460   5.722   0.846
17246W        W83787  17.612  43.070  11.112
17247W        W83788  11.387  44.261   0.846
17248W        W83789  22.071  24.264   1.297
17249W        W83790   1.464   7.558  13.757
17250W        W83791  22.582  44.839   1.833
17251W        W83792   3.943  37.322   3.724
17252W        W83793  32.649  36.787   1.736
17253W        W83794   6.737  36.164   4.591
17254W        W83795  26.071  24.099  14.183
17255W        W83796   1.682  32.636  12.355
17256W        W83797  19.853  38.374  12.014
17257W        W83798  35.190  33.185  12.652
17258W        W83799  39.885   5.706  13.090
17259W        W83800  25.974  31.376  12.391
17260W        W83801  31.144  10.705  11.496
17261W        W83802  22.725  37.240  12.580
17262W        W83803  24.531  37.476   4.453
17263W        W83804  22.379   2.270   0.024
17264W        W83805   1.218  38.448  12.975
17265W        W83806   2.781  32.256  14.878
17266W        W83807  32.794   0.944   0.223
17267W        W83808  28.422  32.449  12.512
17268W        W83809  43.422  34.710  12.050
17269W        W83810  24.037  30.592  14.419
17270W        W83811   3.978  20.729   2.613
17271W        W83812  40.259  39.522   3.242
17272W        W83813  14.273  24.294  10.713
17273W        W83814  11.584  21.083   0.355
17274W        W83815  17.676  27.892  10.710
17275W        W83816   0.905  11.731   1.190
17276W        W83817  22.629   7.227  14.449
17277W        W83818   8.264  30.734  14.780
17278W        W83819  36.078  13.969  12.536
17279W        W83820  25.088  18.612   2.353
17280W        W83821  13.323  12.862   0.967
17281W        W83822  34.596  27.469  11.188
17282W        W83823  16.166  12.339  11.363
17283W        W83824   4.441  28.528   5.229
17284W        W83825  33.430  36.434   0.721
17285W        W83826  16.046  21.847   1.828
17286W        W83827  22.078  12.295   9.784
17287W        W83828   9.475  27.405  13.480
17288W        W83829  16.174  34.867   0.616
17289W        W83830  23.691  12.096   2.814
17290W        W83831  32.791  15.223   2.249
17291W        W83832  14.317  16.270   0.493
17292W        W83833   2.738   8.819   2.004
17293W        W83834  21.662  41.348  14.374
17294W        W83835  37.396  21.928  14.267
17295W        W83836  38.445  23.518  14.549
17296W        W83837  43.243  17.150  13.481
17297W        W83838   1.889  32.532  13.786
17298W        W83839  33.040   1.603  12.131
17299W        W83840  35.158  13.125   2.727
17300W        W83841  21.832  31.113  13.444
17301W        W83842  35.866   4.385   4.084
17302W        W83843   1.641  29.519  12.977
17303W        W83844  24.845  27.097  14.995
17304W        W83845  38.393  43.514  13.343
17305W        W83846   0.481  18.280  13.482
17306W        W83847  37.928  42.342  13.280
17307W        W83848   7.747  32.130   2.629
17308W        W83849  13.913  18.153  12.511
17309W        W83850  43.011  27.931   1.807
17310W        W83851   4.392  23.030  11.361
17311W        W83852   7.028  24.460   4.111
17312W        W83853  38.937   0.345  11.640
17313W        W83854  12.357  15.747   4.789
17314W        W83855   9.652  44.799  12.351
17315W        W83856  14.548  21.421   1.382
17316W        W83857  30.967  29.767  14.375
17317W        W83858   3.369  42.063  14.908
17318W        W83859  22.801  24.055  12.061
17319W        W83860  38.239  15.317  14.504
17320W        W83861   4.974  26.591   0.392
17321W        W83862  17.160   0.294  12.932
17322W        W83863   0.447  11.856   0.978
17323W        W83864  11.766  32.654  14.863
17324W        W83865  18.992   4.325   3.429
17325W        W83866  35.028  13.387   4.527
17326W        W83867  34.458  44.954  14.415
17327W        W83868  24.024  13.176   4.750
17328W        W83869  37.578  15.625  12.818
17329W        W83870  39.602  16.473  13.382
17330W        W83871  17.498  39.527  13.069
17331W        W83872  29.632  24.517  11.698
17332W        W83873  13.765  15.329   0.288
17333W        W83874  43.767  16.892   2.712
17334W        W83875  31.567  40.132  12.376
17335W        W83876   3.391  25.216   0.634
17336W        W83877  23.693  26.458   1.590
17337W        W83878  29.070  37.996   0.639
17338W        W83879   8.607  17.267  12.722
17339W        W83880  42.622  40.893   4.730
17340W        W83881  12.096  25.115   4.881
17341W        W83882  31.196   9.193   1.993
17342W        W83883  41.256  36.230   0.932
17343W        W83884   2.347   6.802   3.402
17344W        W83885  13.101   2.776  12.691
17345W        W83886  29.625   2.692   3.854
17346W        W83887  26.848  42.891  11.626
17347W        W83888   1.771  35.336   0.930
17348W        W83889   8.850  13.218  11.649
17349W        W83890  32.523  33.954  13.058
17350W        W83891  22.297  19.853  11.546
17351W        W83892  42.055   8.068  11.550
17352W        W83893  16.685   8.762   3.570
17353W        W83894  22.097  41.474  13.021
17354W        W83895  25.934  35.370  10.599
17355W        W83896   9.430  42.461   0.202
17356W        W83897   1.722  32.061   0.847
17357W        W83898  15.836  17.777   3.483
17358W        W83899   5.946  22.824   3.322
17359W        W83900  24.000  38.445   1.295
17360W        W83901  32.996  39.945   2.393
17361W        W83902   2.312  29.070  12.117
17362W        W83903  27.312  18.666   0.758
17363W        W83904  11.758  16.577  12.022
17364W        W83905  11.459  27.589   1.721
17365W        W83906  37.088  36.949   4.256
17366W        W83907   8.268  29.576  11.391
17367W        W83908  23.418  32.688   3.778
17368W        W83909  34.784  37.507  10.856
17369W        W83910  21.812  24.098  11.147
17370W        W83911  32.565  14.322   3.791
17371W        W83912  39.910  36.966  10.520
17372W        W83913  12.660  17.465  14.320
17373W        W83914  42.514  36.074  12.379
17374W        W83915  29.621  36.801   2.231
17375W        W83916  44.293  39.907   4.648
17376W        W83917  25.301  28.965  11.702
17377W        W83918  43.848   5.118  10.691
17378W        W83919  38.511  42.401  13.323
17379W        W83920   9.098   1.368  11.575
17380W        W83921   8.581  34.727   3.380
17381W        W83922  27.984   1.430  13.625
17382W        W83923   7.244   6.151   0.304
17383W        W83924  16.488  14.781   1.736
17384W        W83925  39.351   9.904   1.519
17385W        W83926  15.218   8.389   2.776
17386W        W83927  26.434  10.473   3.492
17387W        W83928  11.680   0.658   1.366
17388W        W83929  11.330   0.936   1.031
17389W        W83930  23.923  23.969   1.301
17390W        W83931   8.200  13.112   0.386
17391W        W83932  34.923  20.751   1.468
17392W        W83933  21.977  12.860  11.675
17393W        W83934   6.182  44.158   2.002
17394W        W83935  28.243   4.743   3.433
17395W        W83936  33.637  28.315   0.235
17396W        W83937  12.193  26.541  13.722
17397W        W83938  12.859  32.292  12.917
17398W        W83939  40.910  21.191   4.676
17399W        W83940  40.366  23.729  14.823
17400W        W83941  38.814  42.196   2.141
17401W        W83942   6.215  29.304   0.425
17402W        W83943  31.552  39.558   3.216
17403W        W83944  10.504   5.072   5.009
17404W        W83945  39.308  23.019   1.264
17405W        W83946  17.381   2.424  10.995
17406W        W83947  31.020  39.959   3.311
17407W        W83948  33.536  41.260   1.719
17408W        W83949  33.920  30.422   2.821
17409W        W83950  29.829   7.492  10.756
17410W        W83951  18.377  42.563  12.471
17411W        W83952   3.876  18.131  14.406
17412W        W83953  43.097  17.346   1.840
17413W        W83954  34.830  23.113   1.440
17414W        W83955   6.954   8.035  13.794
17415W        W83956   4.690  33.528   3.618
17416W        W83957  15.671   1.998   4.542
17417W        W83958  41.609  27.171   0.401
17418W        W83959  22.096   7.390  14.562
17419W        W83960  27.217  43.834  10.692
17420W        W83961  30.941   9.952   0.854
17421W        W83962  21.987   3.558   2.802
17422W        W83963  33.424  22.588   0.355
17423W        W83964   4.927  19.943  13.406
17424W        W83965  21.854   0.773   3.226
17425W        W83966  31.446   8.185   4.928
17426W        W83967  19.653   7.170   1.833
17427W        W83968  31.564  37.538   2.135
17428W        W83969  17.735  38.309  14.304
17429W        W83970   9.877  33.638  14.287
17430W        W83971   7.595  32.162   1.810
17431W        W83972   1.746  23.614   1.150
17432W        W83973   6.628  40.927   2.277
17433W        W83974  19.597  12.647   2.392
17434W        W83975  10.715  15.675  13.816
17435W        W83976  14.184  30.454  14.088
17436W        W83977  42.012  25.098   1.499
17437W        W83978   1.353   9.171   1.822
17438W        W83979  35.981  24.194   4.347
17439W        W83980   4.248  29.378  13.852
17440W        W83981  14.837   9.278   1.248
17441W        W83982  38.096   0.857  14.003
17442W        W83983  16.797  17.128   1.738
17443W        W83984  15.887  22.854  14.369
17444W        W83985  19.567  25.151  13.427
17445W        W83986  17.703  36.301  14.511
17446W        W83987   5.836  35.953  14.130
17447W        W83988  33.437  26.647  13.487
17448W        W83989  19.283   6.846  14.914
17449W        W83990  11.700  27.203   2.349
17450W        W83991  27.595  38.854   2.680
17451W        W83992  21.209  32.075  13.882
17452W        W83993  43.918   4.464   3.156
17453W        W83994  38.819  11.638   3.314
17454W        W83995  10.701  28.030   3.770
17455W        W83996   8.874   0.048  11.712
17456W        W83997  27.144  18.685   4.201
17457W        W83998  28.482  44.284   3.416
17458W        W83999  43.854   5.071   3.629
17459W        W84000  15.105   6.424   1.208
17460W        W84001   4.965   1.483  12.603
17461W        W84002   8.162  29.056   2.947
17462W        W84003  29.881  12.088   0.914
17463W        W84004  39.826  38.598   3.069
17464W        W84005  41.025  22.846  13.223
17465W        W84006  18.712  24.546   0.786
17466W        W84007  14.046  22.734   0.423
17467W        W84008   9.858   4.622   4.179
17468W        W84009   8.111  19.843   2.369
17469W        W84010  18.677  25.693   1.947
17470W        W84011  38.038  30.383  14.027
17471W        W84012  15.112   5.725   2.872
17472W        W84013  15.450  34.562   2.343
17473W        W84014  34.086   0.718   3.609
17474W        W84015  24.268   4.745   4.312
17475W        W84016  30.024  41.615  13.282
17476W        W84017   8.647  22.760   0.296
17477W        W84018  25.470  22.474  11.537
17478W        W84019   2.474   4.560  14.505
17479W        W84020   8.419   1.837   3.233
17480W        W84021  29.545  26.613   0.736
17481W        W84022  24.560  22.606   1.250
17482W        W84023  11.542  23.244   3.150
17483W        W84024   1.984  33.383  13.300
17484W        W84025  20.182  11.590   3.654
17485W        W84026  28.115  22.660  13.992
17486W        W84027  11.655  37.648   5.081
17487W        W84028   4.752   6.379   4.088
17488W        W84029   4.835  11.864   0.844
17489W        W84030  28.654  29.395   3.216
17490W        W84031  37.457  36.426   0.395
17491W        W84032   5.973  36.906  13.541
17492W        W84033  36.377  20.899  11.186
17493W        W84034  11.131  43.815   0.567
17494W        W84035  19.274   0.700   2.378
17495W        W84036  33.041   7.668  13.050
17496W        W84037  34.495   0.911  11.059
17497W        W84038  35.668  24.603   4.767
17498W        W84039  12.829  16.574  14.380
17499W        W84040   2.309  15.784   1.877
17500W        W84041  13.132   0.788  14.391
17501W        W84042  39.531  20.790   4.719
17502W        W84043  25.709   7.426  11.026
17503W        W84044  18.862   7.237  12.990
17504W        W84045  10.741  11.484   2.227
17505W        W84046  17.143  42.013  12.461
17506W        W84047   6.016  22.846  12.031
17507W        W84048  27.133  18.830  14.290
17508W        W84049  20.623  26.019   4.800
17509W        W84050  41.762  26.573  12.939
17510W        W84051   3.270   8.186  13.431
17511W        W84052  31.124  28.612  13.435
17512W        W84053  14.145  28.583  14.350
17513W        W84054  30.058  27.692  12.417
17514W        W84055   5.732   3.852  14.399
17515W        W84056  39.527  37.021  11.118
17516W        W84057  18.228  12.642   4.172
17517W        W84058  29.526  26.033   0.775
17518W        W84059   5.633  34.874   1.836
17519W        W84060  36.079  31.118   0.762
17520W        W84061  18.283  22.651  12.964
17521W        W84062  24.717  44.234   1.404
17522W        W84063   0.071  38.949  12.869
17523W        W84064  36.860   3.306   0.800
17524W        W84065  29.700  16.801  10.702
17525W        W84066  42.346  15.177  14.462
17526W        W84067  32.032  36.918   1.902
17527W        W84068  22.080  38.836   3.736
17528W        W84069  16.649  24.286  11.679
17529W        W84070   0.769  10.792  14.921
17530W        W84071  19.602   8.861   0.521
17531W        W84072  43.425  43.576   1.270
17532W        W84073  16.786   9.953  10.978
17533W        W84074  36.536  29.193  14.503
17534W        W84075   9.975  19.208   4.826
17535W        W84076   4.207  23.528   4.519
17536W        W84077  21.637  20.070   2.700
17537W        W84078   5.576  37.949  12.626
17538W        W84079   4.017  29.612   4.619
17539W        W84080  30.667   7.837   0.729
17540W        W84081  41.927  17.796   0.246
17541W        W84082   0.552   7.173  11.220
17542W        W84083  39.509  18.619  11.938
17543W        W84084   9.974  36.954  13.423
17544W        W84085  32.956  37.716   5.127
17545W        W84086   0.814  21.532   1.435
17546W        W84087   0.467   1.922  12.365
17547W        W84088  32.742  28.123  12.930
17548W        W84089   1.154  19.638   1.031
17549W        W84090  41.802  28.623   0.294
17550W        W84091  38.648  39.975   3.546
17551W        W84092   0.066  35.306   4.952
17552W        W84093  25.242  38.600   4.119
17553W        W84094  30.107  27.438   2.377
17554W        W84095  14.265  24.826  12.998
17555W        W84096  16.231  31.959  14.405
17556W        W84097  30.118  32.913   1.029
17557W        W84098  33.925  40.848  14.723
17558W        W84099  32.663  13.262  14.393
17559W        W84100  13.582   8.222  10.628
17560W        W84101  41.458  33.418  14.012
17561W        W84102  29.709  29.964  12.101
17562W        W84103  19.569  30.785   3.129
17563W        W84104  40.979  42.572  14.379
17564W        W84105   8.718  12.776   4.288
17565W        W84106  14.352  19.190   1.409
17566W        W84107  29.407   1.777  13.904
17567W        W84108  18.608  32.231   1.265
17568W        W84109  20.126   0.131   3.160
17569W        W84110  18.071  36.553   2.293
17570W        W84111  38.774  15.544  12.610
17571W        W84112  17.173  19.267   4.276
17572W        W84113  25.439  29.699   0.539
17573W        W84114  28.053   8.429   3.794
17574W        W84115  43.826  16.649   2.224
17575W        W84116  37.446  17.590  14.937
17576W        W84117  23.480  37.256  13.128
17577W        W84118  38.942   7.196   4.203
17578W        W84119  29.885  24.617   2.687
17579W        W84120  11.831   2.432   4.686
17580W        W84121  12.745   7.958   3.321
17581W        W84122  28.368  31.967  10.560
17582W        W84123   7.386  15.076  10.567
17583W        W84124  26.486  24.930   1.634
17584W        W84125   2.898   1.882   0.254
17585W        W84126  29.556  17.597   3.737
17586W        W84127  19.738  39.618  14.038
17587W        W84128   6.654   0.885  12.059
17588W        W84129  25.983   6.676   2.339
17589W        W84130  16.633  39.036   1.507
17590W        W84131  11.167  24.230  12.912
17591W        W84132  20.519  23.048  12.445
17592W        W84133  13.357  31.326  13.435
17593W        W84134   3.898  21.111  12.900
17594W        W84135  17.330  30.878   2.417
17595W        W84136  18.476  18.353   4.151
17596W        W84137  24.950   4.151  13.375
17597W        W84138  19.052  22.742   3.651
17598W        W84139  28.713  24.308  14.997
17599W        W84140  15.115   2.406  10.659
17600W        W84141   9.394  16.868  13.018
17601W        W84142  36.934  22.034   4.374
17602W        W84143  34.540   1.181  12.794
17603W        W84144  40.326   4.491   0.488
17604W        W84145  31.054  13.102  12.988
17605W        W84146  18.079  41.880  11.070
17606W        W84147  41.300   7.746  12.645
17607W        W84148  27.330  21.572   0.735
17608W        W84149  30.969   6.450   0.456
17609W        W84150   3.254  10.803   2.334
17610W        W84151  16.371  31.423  12.052
17611W        W84152   7.812  34.933  12.382
17612W        W84153  23.711  40.565  14.517
17613W        W84154  17.019  12.283   2.348
17614W        W84155   4.506  15.169  14.697
17615W        W84156  12.218  19.783   2.348
17616W        W84157  17.771  30.451  12.906
17617W        W84158  25.677  44.422  13.011
17618W        W84159  24.219  26.770  11.628
17619W        W84160   1.190  30.083  11.497
17620W        W84161  17.590  28.217   3.694
17621W        W84162  14.812  25.614  12.982
17622W        W84163   7.485  20.852  12.243
17623W        W84164  35.732  38.750  11.140
17624W        W84165   3.377  30.764  11.350
17625W        W84166  27.420  31.960   0.366
17626W        W84167   7.282  11.921  11.765
17627W        W84168  16.885  39.756   0.989
17628W        W84169  20.335  17.345   5.400
17629W        W84170  21.035   9.000   2.335
17630W        W84171  21.665  34.034  11.950
17631W        W84172  21.617   9.192  14.868
17632W        W84173  39.952   1.322   4.186
17633W        W84174  10.842  15.889   0.764
17634W        W84175  34.075  24.268   2.733
17635W        W84176  18.774  33.885  13.115
17636W        W84177  31.017   5.200   2.095
17637W        W84178  31.807  23.551  14.608
17638W        W84179   2.665  19.567   2.769
17639W        W84180  38.045  22.204  11.603
17640W        W84181  40.895   9.347  12.092
17641W        W84182   3.846   8.293   1.759
17642W        W84183  30.447  25.111   0.242
17643W        W84184  28.027  23.415  12.375
17644W        W84185  37.109  22.313  13.052
17645W        W84186  19.517   0.268   1.731
17646W        W84187  31.928   0.312   0.998
17647W        W84188  22.960  15.738  13.904
17648W        W84189  41.917  19.077  13.027
17649W        W84190  17.956   2.982  14.284
17650W        W84191   0.520  32.607   2.220
17651W        W84192  31.431   3.156  12.008
17652W        W84193   8.184  22.025   4.132
17653W        W84194  22.620   6.715  14.725
17654W        W84195   6.994   2.677   1.040
17655W        W84196  17.823  42.221  14.694
17656W        W84197  44.556  21.124   4.823
17657W        W84198   6.744   4.191   4.108
17658W        W84199  11.749  38.592  12.866
17659W        W84200   7.883  35.586   1.700
17660W        W84201  19.838  24.784   1.249
17661W        W84202  29.492  15.404   0.835
17662W        W84203  28.923  10.173   2.977
17663W        W84204   9.614  35.546   1.434
17664W        W84205  26.674  32.526  12.478
17665W        W84206  10.935  19.743   1.826
17666W        W84207  33.118  13.311  12.575
17667W        W84208  11.043  11.089   0.243
17668W        W84209  21.793  12.390  11.488
17669W        W84210  21.384   6.972   4.381
17670W        W84211  36.939   3.530   0.311
17671W        W84212  32.378  36.607  13.407
17672W        W84213  28.643  25.001  10.640
17673W        W84214  39.516   7.712  12.638
17674W        W84215  29.467  14.612  14.568
17675W        W84216   4.944  38.604  10.211
17676W        W84217  10.714  42.847  14.417
17677W        W84218  40.551  12.200   1.859
17678W        W84219  41.051  41.526  11.523
17679W        W84220  28.246  20.956  13.292
17680W        W84221  27.961  10.148  10.669
17681W        W84222  33.744  18.293  13.072
17682W        W84223  38.440  28.193  12.628
17683W        W84224  38.470  41.569   2.683
17684W        W84225  20.307  31.896   3.139
17685W        W84226  24.916   0.867   0.906
17686W        W84227  31.967   7.850  11.293
17687W        W84228   9.344   8.901   0.044
17688W        W84229   0.353  32.781   4.396
17689W        W84230   5.096  32.389  13.482
17690W        W84231  17.612   0.052  14.259
17691W        W84232   2.927  33.029  14.246
17692W        W84233  23.571  30.446   1.734
17693W        W84234  31.493   0.745  14.931
17694W        W84235  32.821  42.778   3.855
17695W        W84236  42.391  20.077   4.177
17696W        W84237  17.682   3.281  11.740
17697W        W84238  10.104   3.733  14.290
17698W        W84239  14.727  22.617  14.879
17699W        W84240   4.619  41.501  12.980
17700W        W84241   6.190  14.848  13.961
17701W        W84242  36.482   2.524  11.644
17702W        W84243  40.131  41.478   2.965
17703W        W84244  33.573  17.356   4.129
17704W        W84245   4.407  42.404  14.460
17705W        W84246   2.906  17.600  13.772
17706W        W84247  24.685   4.795  10.754
17707W        W84248   2.119  15.929   2.344
17708W        W84249  14.108  27.346   1.970
17709W        W84250   2.019  13.059  14.847
17710W        W84251  15.246  25.457  13.483
17711W        W84252  15.226  40.130  12.523
17712W        W84253  39.128  35.943  12.127
17713W        W84254  34.810  11.810  11.159
17714W        W84255  12.829  22.765  12.375
17715W        W84256  20.050  27.886  11.849
17716W        W84257  12.604  22.995   1.824
17717W        W84258  26.027  16.554   4.237
17718W        W84259  28.094  22.183  11.575
17719W        W84260  32.488  32.472   0.308
17720W        W84261   9.831  16.529   1.321
17721W        W84262   6.454  23.205  12.891
17722W        W84263   1.823   6.199  11.564
17723W        W84264  42.996   7.271   2.167
17724W        W84265  26.299  43.383   2.614
17725W        W84266   0.201  24.366   2.252
17726W        W84267  35.023  38.492  12.875
17727W        W84268  37.443  36.575   1.889
17728W        W84269  34.900  15.882  11.589
17729W        W84270   0.346  32.905   1.815
17730W        W84271  30.322  14.237  12.507
17731W        W84272  36.052  36.540  10.886
17732W        W84273  27.555  41.757   1.298
17733W        W84274  26.978   1.981   1.815
17734W        W84275   5.988  37.319   1.216
17735W        W84276  36.090  15.203  10.631
17736W        W84277  43.565  28.412  12.368
17737W        W84278  40.634   0.704   0.757
17738W        W84279   9.903  30.064   1.797
17739W        W84280  21.591   4.524  12.906
17740W        W84281  41.669  23.481  12.596
17741W        W84282   1.315   8.111  11.658
17742W        W84283  22.544  20.216  10.796
17743W        W84284  29.910  31.968  12.062
17744W        W84285   2.706  26.174   2.310
17745W        W84286  22.061   0.702  10.244
17746W        W84287  17.939   2.330   0.987
17747W        W84288  20.521  24.013  12.501
17748W        W84289   4.270  37.816   0.292
17749W        W84290  21.987  14.286   0.955
17750W        W84291  35.320   7.799  12.974
17751W        W84292  34.499  40.167  13.614
17752W        W84293  17.849  25.277  12.019
17753W        W84294  18.108   0.485   0.790
17754W        W84295   5.356  35.928   2.886
17755W        W84296   7.426  33.771  11.609
17756W        W84297  41.548  19.895  13.826
17757W        W84298  11.696  41.270  14.271
17758W        W84299  18.252   0.512   3.321
17759W        W84300  38.574  11.825   4.569
17760W        W84301   0.782  17.732   4.717
17761W        W84302  27.017   1.660  14.895
17762W        W84303  30.507  15.425   4.467
17763W        W84304  16.657  10.135   3.149
17764W        W84305  14.417   6.955  13.524
17765W        W84306  25.145  16.823  13.262
17766W        W84307  38.496   8.438   2.323
17767W        W84308  42.676  25.397   4.674
17768W        W84309  25.063   4.690  12.551
17769W        W84310  24.171  37.493  10.491
17770W        W84311  14.960  36.409  13.038
17771W        W84312  20.861   9.805   1.922
17772W        W84313   1.781  26.758  12.422
17773W        W84314  38.644  11.226   1.001
17774W        W84315   6.808  36.861  12.088
17775W        W84316  21.193  28.445   0.951
17776W        W84317  21.015  11.042   2.365
17777W        W84318  36.219  37.863  12.472
17778W        W84319  35.961  12.823   3.702
17779W        W84320   3.679   8.259  11.259
17780W        W84321  13.857  43.418   3.554
17781W        W84322   1.838  20.976   3.065
17782W        W84323   4.990  20.736  11.648
17783W        W84324  38.803  35.036  12.898
17784W        W84325  24.082  18.312  11.602
17785W        W84326  19.018  27.163   2.915
17786W        W84327   7.571  41.883   2.674
17787W        W84328  34.848  14.743  11.648
17788W        W84329  10.683  20.508   0.447
17789W        W84330  20.245   2.166  12.505
17790W        W84331   4.039  39.683   1.758
17791W        W84332  43.349  23.274  14.369
17792W        W84333  39.082  37.892   3.324
17793W        W84334  20.190   6.507   1.851
17794W        W84335  27.938  16.723  11.473
17795W        W84336  32.606  19.236   3.667
17796W        W84337  23.626  44.763   1.108
17797W        W84338  39.256  13.762  14.891
17798W        W84339  40.908  43.280   0.014
17799W        W84340   3.185   5.470  11.861
17800W        W84341   7.656   4.872   3.639
17801W        W84342   7.355   9.307   2.756
17802W        W84343  39.581  23.668   0.920
17803W        W84344  39.966  12.859   2.126
17804W        W84345   1.957  42.204   2.911
17805W        W84346  17.846  32.080  11.243
17806W        W84347  32.549  24.475   0.451
17807W        W84348  11.326  38.281  11.919
17808W        W84349  25.443  39.925   1.690
17809W        W84350   6.643  40.625   3.110
17810W        W84351  21.516  18.652  11.647
17811W        W84352   4.197  28.235   2.348
17812W        W84353   4.368   3.126  13.888
17813W        W84354  24.213  28.438  11.741
17814W        W84355  35.833   9.624   2.978
17815W        W84356   2.292  15.918   4.563
17816W        W84357   3.291   6.881   3.314
17817W        W84358  42.827  21.985  12.002
17818W        W84359   3.266  17.281  14.913
17819W        W84360  38.472  30.693  11.498
17820W        W84361  30.880  36.673  14.438
17821W        W84362   6.269  11.494  12.497
17822W        W84363   5.768  39.906   9.963
17823W        W84364  11.739  38.339   3.636
17824W        W84365  12.321  44.047   2.186
17825W        W84366  36.479  15.127  14.608
17826W        W84367  13.896  14.700   3.140
17827W        W84368   1.702  34.998   3.692
17828W        W84369  40.304  40.783   2.739
17829W        W84370  18.777  22.129  14.990
17830W        W84371   0.886   8.404  11.690
17831W        W84372  36.029  32.215   4.562
17832W        W84373  10.044  15.228  14.990
17833W        W84374   0.483  43.762   1.250
17834W        W84375  27.720   2.025   4.498
17835W        W84376  29.127  34.359   0.231
17836W        W84377   2.889   0.826  13.714
17837W        W84378  35.008  27.601  13.059
17838W        W84379   3.893  10.569  10.586
17839W        W84380  26.404  40.141   0.488
17840W        W84381  14.662  17.446   1.225
17841W        W84382  36.071  44.676  12.532
17842W        W84383  21.969  31.013   1.733
17843W        W84384  30.866   2.502   0.793
17844W        W84385   1.778  43.578  13.888
17845W        W84386  29.878  40.686  11.056
17846W        W84387  22.936  29.832  11.069
17847W        W84388  27.991  10.262  14.099
17848W        W84389  20.678  32.156  12.579
17849W        W84390  23.461  31.673   2.221
17850W        W84391  17.348   4.176  12.588
17851W        W84392  16.313   9.210  13.467
17852W        W84393  18.929  36.933   1.740
17853W        W84394  13.289  38.470   3.498
17854W        W84395  37.300   3.616  12.917
17855W        W84396  37.932  31.379   2.816
17856W        W84397  33.925  30.407   4.757
17857W        W84398  42.976   9.884   0.245
17858W        W84399  29.267  25.102   2.812
17859W        W84400  24.462  38.978  10.769
17860W        W84401  25.660  17.515  13.508
17861W        W84402  39.023  19.643  14.347
17862W        W84403  30.350  24.049   4.566
17863W        W84404  44.024  16.671  11.957
17864W        W84405   9.643  25.263  13.951
17865W        W84406  18.543  26.986  14.320
17866W        W84407  26.516  36.596   0.798
17867W        W84408  34.166  30.569  14.440
17868W        W84409  28.518  22.190  14.482
17869W        W84410   9.808  23.736  13.301
17870W        W84411  18.103  31.320   3.787
17871W        W84412  40.781   9.215   1.442
17872W        W84413  44.787  13.086   3.662
17873W        W84414   8.329  36.425  10.621
17874W        W84415  26.793   2.357  14.600
17875W        W84416  10.439  31.399  12.054
17876W        W84417  20.743  11.610   4.846
17877W        W84418  17.029  38.380  13.433
17878W        W84419  29.486   3.241   4.515
17879W        W84420  16.280  39.358   0.860
17880W        W84421  41.012  28.724   2.739
17881W        W84422  39.405  33.042   0.824
17882W        W84423   7.256  35.318  11.778
17883W        W84424  39.715   6.725  11.557
17884W        W84425  33.969  21.274  14.566
17885W        W84426  35.365  21.182   3.570
17886W        W84427  24.508  39.322   4.010
17887W        W84428   7.740  21.084  11.131
17888W        W84429  26.139  19.690  13.099
17889W        W84430  30.167  24.746   3.679
17890W        W84431  17.816  11.872  10.309
17891W        W84432  16.876   9.199   3.826
17892W        W84433   1.200  30.261   4.552
17893W        W84434   3.424  18.205   3.945
17894W        W84435  12.087  27.231   3.689
17895W        W84436   5.789  14.333  12.890
17896W        W84437  11.610  29.940  12.742
17897W        W84438   3.756  38.611   1.853
17898W        W84439  26.387  26.246  12.683
17899W        W84440  15.842  31.095  13.469
17900W        W84441   6.058  32.640   4.953
17901W        W84442  16.734  42.358   2.340
17902W        W84443  32.132  31.689   2.231
17903W        W84444  10.674  33.083   0.972
17904W        W84445  12.526  21.660  11.998
17905W        W84446  17.078   7.450  11.709
17906W        W84447   4.797  22.169   5.452
17907W        W84448  41.278  36.143   3.244
17908W        W84449  26.911  20.637   0.934
17909W        W84450  16.568   4.312   0.791
17910W        W84451  44.407  12.308  14.407
17911W        W84452  32.250  23.230  10.715
17912W        W84453  29.478  20.805  12.942
17913W        W84454  17.475  35.838   1.899
17914W        W84455  43.730  36.469   3.195
17915W        W84456  26.064  32.614   3.601
17916W        W84457  18.472   7.439  10.278
17917W        W84458  18.887  42.344  14.696
17918W        W84459  20.762  39.035   0.772
17919W        W84460   9.860  27.168   4.153
17920W        W84461  24.683  30.932  12.425
17921W        W84462  31.045  13.648  14.846
17922W        W84463   2.809  27.034   4.638
17923W        W84464  16.175  31.408   1.349
17924W        W84465  21.446  35.529   1.810
17925W        W84466  42.378  12.155  12.500
17926W        W84467  21.473  10.768  12.845
17927W        W84468   3.813  33.233   0.373
17928W        W84469  43.741  34.697   4.159
17929W        W84470  26.127  17.157   0.226
17930W        W84471  28.277   6.223  11.974
17931W        W84472  38.554  31.577  10.410
17932W        W84473  25.161  43.300  14.379
17933W        W84474  37.087  21.285  12.990
17934W        W84475  28.689  33.527   0.863
17935W        W84476  13.402  18.544  13.806
17936W        W84477  17.809  44.874   3.766
17937W        W84478   6.262  30.411  11.228
17938W        W84479  44.541   2.929   1.004
17939W        W84480  25.496  25.190  12.067
17940W        W84481   1.965  22.088  13.457
17941W        W84482  33.432   6.439  14.335
17942W        W84483  11.832  15.190  10.684
17943W        W84484   1.252  22.370   3.348
17944W        W84485   7.672  42.524   0.783
17945W        W84486   5.684  11.406   4.113
17946W        W84487  19.081  35.493  11.137
17947W        W84488  39.101  18.577   3.280
17948W        W84489  31.286  14.309   0.334
17949W        W84490  20.132  13.032  10.840
17950W        W84491  32.303  23.387   1.307
17951W        W84492  19.484  24.235  11.174
17952W        W84493  13.730  26.911  12.493
17953W        W84494  19.702  32.860   1.459
17954W        W84495  31.548   7.963  14.490
17955W        W84496   9.798  11.442   0.304
17956W        W84497  20.074  39.784  13.464
17957W        W84498   2.070   6.516  11.209
17958W        W84499  27.583  12.492   1.656
17959W        W84500  21.168  17.310   4.144
17960W        W84501   9.676  34.465   4.205
17961W        W84502  31.111  11.360  11.904
17962W        W84503  34.054  24.470   3.227
17963W        W84504  38.474  43.790   3.183
17964W        W84505   6.153  13.210  12.981
17965W        W84506   7.691  34.296  13.108
17966W        W84507  23.460   9.338  10.667
17967W        W84508   2.550   0.619  11.511
17968W        W84509  14.323  28.051   2.798
17969W        W84510  37.828  29.554  14.317
17970W        W84511  13.302  38.388   2.505
17971W        W84512  10.455  10.854  12.811
17972W        W84513  27.131  33.904   2.327
17973W        W84514  29.556  43.055   1.647
17974W        W84515  15.612  22.153   0.721
17975W        W84516  32.239  13.106  12.527
17976W        W84517  29.909   6.675   0.366
17977W        W84518  27.421   1.408   1.996
17978W        W84519  41.744  25.301  11.090
17979W        W84520  37.629   5.322  12.393
17980W        W84521  10.771  43.405  12.168
17981W        W84522  37.482  39.612  14.397
17982W        W84523  30.369   9.440  13.490
17983W        W84524  25.906  31.471   2.257
17984W        W84525  30.573  11.420  13.367
17985W        W84526  39.638  41.156   5.017
17986W        W84527  35.979  15.154  11.931
17987W        W84528  40.597  37.086  12.979
17988W        W84529  22.844   2.710  14.250
17989W        W84530  33.805  30.369  10.754
17990W        W84531  35.460  17.719  14.718
17991W        W84532  38.062   2.913  13.387
17992W        W84533  28.261  41.759  12.992
17993W        W84534  16.719  30.519   2.427
17994W        W84535  43.761  34.922   0.554
17995W        W84536   1.426  39.875   1.892
17996W        W84537  38.548   9.897   2.437
17997W        W84538  43.459  31.136   2.608
17998W        W84539  29.124   1.346   3.400
17999W        W84540   1.670  15.321   0.917
18000W        W84541  44.262  12.239   2.740
18001W        W84542  21.200  35.353  13.676
18002W        W84543  22.104  21.018  10.970
18003W        W84544   8.432  20.160  14.351
18004W        W84545  35.959  35.572  12.539
18005W        W84546  41.815  10.071  10.227
18006W        W84547  27.232  37.406   4.555
18007W        W84548  30.638  20.159   3.325
18008W        W84549  19.162  34.593   2.351
18009W        W84550  37.045  25.540  12.525
18010W        W84551  41.914  25.076  13.391
18011W        W84552   4.814   1.745   3.739
18012W        W84553  33.930   6.435  12.897
18013W        W84554  20.928   2.867   4.425
18014W        W84555  23.112  33.680  12.647
18015W        W84556   2.233  12.558  12.424
18016W        W84557   5.931  32.461   0.977
18017W        W84558  42.086  36.179   1.373
18018W        W84559  35.972   4.808   4.385
18019W        W84560   8.688  31.495   2.359
18020W        W84561   5.770  22.700  12.538
18021W        W84562   0.059  31.136   2.065
18022W        W84563   6.909  23.294   1.368
18023W        W84564  19.449  23.653  13.749
18024W        W84565   5.410  31.115   5.101
18025W        W84566   0.290   8.951   2.219
18026W        W84567  10.261   0.305  11.166
18027W        W84568  23.540  39.613   1.784
18028W        W84569  16.712  13.873   0.264
18029W        W84570  16.409   7.600  11.030
18030W        W84571   7.727   8.256   4.150
18031W        W84572  28.505  15.808   4.642
18032W        W84573  35.641  19.896   3.333
18033W        W84574   3.894  18.737   0.910
18034W        W84575  32.669  29.030   4.554
18035W        W84576  14.242  27.539  14.759
18036W        W84577   9.519  18.465  14.535
18037W        W84578  23.268  34.576   3.894
18038W        W84579  34.384  15.506   1.811
18039W        W84580  39.190  27.916  11.126
18040W        W84581  43.421  11.945   4.477
18041W        W84582  24.758   7.582  14.886
18042W        W84583  15.180   1.684  13.389
18043W        W84584  42.771  41.532   4.232
18044W        W84585  20.093  18.440   4.195
18045W        W84586   8.507  27.557  13.549
18046W        W84587  30.171   0.936   1.790
18047W        W84588   1.215   1.906   1.270
18048W        W84589  20.609  23.458   3.224
18049W        W84590  42.785  37.970  10.765
18050W        W84591   5.983   1.312   1.315
18051W        W84592   5.832   7.296  11.682
18052W        W84593   6.161  20.580   1.804
18053W        W84594  33.457  33.980   1.927
18054W        W84595  43.195  31.134   4.067
18055W        W84596   3.112  23.055  13.777
18056W        W84597  15.047  40.185  13.060
18057W        W84598  39.563  33.344   0.409
18058W        W84599  31.349  10.163   2.225
18059W        W84600   1.878   9.913  12.035
18060W        W84601  39.041   5.222   3.643
18061W        W84602  22.220  27.584   1.777
18062W        W84603  35.909  18.689   4.628
18063W        W84604  14.820  16.685  10.811
18064W        W84605  43.534  29.365   2.387
18065W        W84606  17.434  24.090  13.468
18066W        W84607  35.526  18.542  14.547
18067W        W84608  36.365  17.101  11.373
18068W        W84609  14.440  34.514   5.019
18069W        W84610   6.676  21.680  12.420
18070W        W84611  34.422  11.890   0.046
18071W        W84612  26.140  28.502   0.308
18072W        W84613  32.968  39.092   0.012
18073W        W84614  37.955   6.735  11.535
18074W        W84615  26.857  11.850   3.299
18075W        W84616  27.450  40.474  13.827
18076W        W84617  21.429  18.710   3.797
18077W        W84618  25.899  40.351   3.613
18078W        W84619  29.364  22.250   4.293
18079W        W84620   3.381  43.073   4.160
18080W        W84621  31.039  30.516  11.648
18081W        W84622   7.211  22.991  13.345
18082W        W84623  11.849  28.925   0.370
18083W        W84624  34.036  38.573  11.569
18084W        W84625   8.083  19.185  12.017
18085W        W84626  20.746  13.889  13.324
18086W        W84627   9.163  17.521   2.609
18087W        W84628  15.175   2.689   2.669
18088W        W84629  38.305  12.440   3.871
18089W        W84630  31.300  38.244  13.327
18090W        W84631   0.459  23.450   4.786
18091W        W84632  37.568   4.391  10.906
18092W        W84633  31.479  22.675  12.794
18093W        W84634  41.123  14.810   2.404
18094W        W84635  27.943  40.391  13.029
18095W        W84636   9.810  43.131   4.072
18096W        W84637  31.365  35.470  14.824
18097W        W84638  19.872  43.450  14.908
18098W        W84639  32.611  30.103  14.098
18099W        W84640   5.920  41.022   1.150
18100W        W84641  10.072  27.022  13.811
18101W        W84642   4.729  13.734  14.909
18102W        W84643  39.062  42.959  12.203
18103W        W84644  30.196  17.914   3.138
18104W        W84645   9.595  26.473  12.186
18105W        W84646  11.168   7.463   2.806
18106W        W84647  43.049   2.699  10.633
18107W        W84648   3.754  39.361   2.090
18108W        W84649   9.932   2.883  12.597
18109W        W84650  34.026  44.776   0.848
18110W        W84651   0.066  22.563  11.986
18111W        W84652  11.017  38.907  11.129
18112W        W84653   1.874  31.300   1.303
18113W        W84654  33.940  14.666  12.506
18114W        W84655  20.702  44.301  11.462
18115W        W84656  20.592  24.378   0.895
18116W        W84657  43.821   4.816  11.594
18117W        W84658  34.817  44.030   2.859
18118W        W84659  42.431  27.460   4.914
18119W        W84660  10.163  22.915  12.590
18120W        W84661  34.592  26.871   3.674
18121W        W84662  18.765  28.964   3.656
18122W        W84663  26.641  10.149  11.049
18123W        W84664  18.298  39.467   3.312
18124W        W84665   3.436   3.886   3.151
18125W        W84666   3.450  20.739   4.284
18126W        W84667  44.691  37.626   4.089
18127W        W84668  31.416  23.104  13.084
18128W        W84669  27.568  28.648   3.864
18129W        W84670  29.882   6.251   1.651
18130W        W84671  41.105   9.690  13.381
18131W        W84672   1.804   6.256   3.099
18132W        W84673  38.322  17.049  14.567
18133W        W84674  13.155  15.814   3.681
18134W        W84675  38.924   1.199   4.237
18135W        W84676  19.626  14.255  11.609
18136W        W84677  39.444  19.115  14.229
18137W        W84678   6.733  13.845   0.227
18138W        W84679   7.482  27.189   2.774
18139W        W84680  12.569  37.541   0.937
18140W        W84681   9.732  42.258   2.340
18141W        W84682  23.760  26.154   0.765
18142W        W84683  44.928   2.433  11.107
18143W        W84684  37.810  34.071  14.303
18144W        W84685   5.137  39.354   0.637
18145W        W84686  32.895   5.970   2.757
18146W        W84687  44.258  17.746   3.427
18147W        W84688  10.485   1.348   4.835
18148W        W84689  35.543  41.236  12.801
18149W        W84690  36.862  43.753  14.471
18150W        W84691  22.094  27.380   4.160
18151W        W84692  21.680   9.635   4.489
18152W        W84693  25.048  38.939   4.971
18153W        W84694  16.655   5.454  10.606
18154W        W84695   2.721  19.242  12.128
18155W        W84696  19.692  30.437   0.336
18156W        W84697   1.973  12.299   1.264
18157W        W84698  19.717  29.596   0.771
18158W        W84699  41.967  20.665   0.554
18159W        W84700  27.496  28.696   2.032
18160W        W84701  15.700  39.312   3.841
18161W        W84702  34.575  11.715   3.400
18162W        W84703  21.600  36.913  13.296
18163W        W84704  27.861  38.848   3.645
18164W        W84705   7.774  38.508  12.024
18165W        W84706  44.103  10.400  11.870
18166W        W84707  29.508  21.744   4.230
18167W        W84708  28.877  10.700   2.860
18168W        W84709  40.244  40.836  11.724
18169W        W84710  11.661  21.726  12.435
18170W        W84711   0.626  28.011   3.736
18171W        W84712   0.301  37.041  14.514
18172W        W84713  28.307   8.950   2.345
18173W        W84714  38.879  27.176   1.685
18174W        W84715  32.171  40.356  13.433
18175W        W84716  19.552   1.176  12.926
18176W        W84717   4.694   6.471  10.982
18177W        W84718  14.946  44.760   0.274
18178W        W84719  28.502  38.016  13.003
18179W        W84720   3.716  37.175   0.094
18180W        W84721  32.144   1.257  14.081
18181W        W84722  34.847  25.319   1.421
18182W        W84723  44.423  41.541   1.358
18183W        W84724   7.707  36.663   1.413
18184W        W84725  34.392  15.123   4.672
18185W        W84726  34.961  30.302   4.269
18186W        W84727  31.416  11.913  10.693
18187W        W84728  26.312  18.644  10.687
18188W        W84729   9.335  40.028  13.323
18189W        W84730  41.088   9.192  14.606
18190W        W84731  16.483   4.146  10.858
18191W        W84732  36.472  11.460   0.291
18192W        W84733  37.196   1.436  11.679
18193W        W84734  28.983  26.715   3.275
18194W        W84735  43.221   0.000   2.436
18195W        W84736  20.721   5.120   0.050
18196W        W84737  43.277  41.910  13.185
18197W        W84738   4.417  27.616   0.992
18198W        W84739   7.750   4.421   1.252
18199W        W84740   4.945  36.102  12.972
18200W        W84741  28.763   0.014   2.277
18201W        W84742  14.619  39.332   2.784
18202W        W84743  15.888  22.190  12.140
18203W        W84744  31.307   1.388  14.458
18204W        W84745  28.099  29.281  13.401
18205W        W84746   5.963  37.169   4.929
18206W        W84747  19.697  26.617  13.138
18207W        W84748   2.498  32.997  11.914
18208W        W84749   9.067   3.702  12.160
18209W        W84750  11.433  35.436  14.887
18210W        W84751  44.304   7.387  14.006
18211W        W84752   8.167  41.355  11.685
18212W        W84753  15.821  23.535  11.178
18213W        W84754  40.300  22.582  13.319
18214W        W84755  38.689  20.449   3.231
18215W        W84756  35.970  22.096   4.636
18216W        W84757  19.788   5.488   2.225
18217W        W84758  20.154  26.101   0.863
18218W        W84759   9.739  16.896   4.710
18219W        W84760   1.772  18.829   2.690
18220W        W84761   4.070  12.193  10.777
18221W        W84762  12.856   9.585  11.554
18222W        W84763  29.507  22.417   0.735
18223W        W84764  39.013  33.093  11.923
18224W        W84765   5.985  23.055   4.670
18225W        W84766  32.125  28.220   4.527
18226W        W84767  12.221  36.000  12.477
18227W        W84768  32.837   9.773  12.599
18228W        W84769   6.865  42.249   4.475
18229W        W84770  17.412  28.533  10.428
18230W        W84771  31.724   2.685   2.792
18231W        W84772  25.534   4.440  12.449
18232W        W84773  24.164  27.702   0.063
18233W        W84774  32.851  18.181  12.639
18234W        W84775   3.310  39.851  12.817
18235W        W84776  42.468  11.855   0.187
18236W        W84777   3.672  33.449  12.120
18237W        W84778   7.513  19.220   3.658
18238W        W84779  41.679  36.759   4.910
18239W        W84780  30.331  40.342   1.864
18240W        W84781  41.989  18.797   4.347
18241W        W84782  18.855  21.958   3.656
18242W        W84783  31.895  34.554  14.767
18243W        W84784  36.947   7.491   1.885
18244W        W84785   3.742   6.651  14.850
18245W        W84786  15.886  41.303  10.661
18246W        W84787  39.686   4.512  12.440
18247W        W84788   2.261  13.395  12.872
18248W        W84789  36.512   4.359  13.940
18249W        W84790  28.372  39.445   2.720
18250W        W84791   5.471  39.332  14.801
18251W        W84792  12.763  11.880  11.608
18252W        W84793  26.306   8.310   5.228
18253W        W84794  34.671  20.518   2.809
18254W        W84795  25.768  15.707  13.378
18255W        W84796   0.366   9.679   1.716
18256W        W84797   6.508  18.089   1.776
18257W        W84798   1.667  23.285  14.929
18258W        W84799  39.593  42.180  12.464
18259W        W84800  41.960   3.296  13.073
18260W        W84801  29.064  22.939  12.703
18261W        W84802   4.481  34.896   3.315
18262W        W84803   4.320  30.956  12.433
18263W        W84804  11.913  33.272   3.215
18264W        W84805  17.301   8.167  13.906
18265W        W84806  38.401  29.700  10.972
18266W        W84807  37.029  30.364  12.012
18267W        W84808  39.566  32.990  13.757
18268W        W84809  19.580  27.548  14.865
18269W        W84810  30.950  11.259   0.719
18270W        W84811  21.576  20.753  13.669
18271W        W84812   2.339  17.802  11.650
18272W        W84813   9.330   4.216   1.464
18273W        W84814  40.366  25.251  12.176
18274W        W84815  30.698  13.288  12.610
18275W        W84816  23.513  12.650   3.090
18276W        W84817  43.550  24.806  11.757
18277W        W84818  11.382   7.889  13.394
18278W        W84819  19.252  39.167   0.822
18279W        W84820   5.700  10.251  14.234
18280W        W84821  28.711  20.726  10.645
18281W        W84822  10.217   1.985   3.797
18282W        W84823  25.129   6.366   2.646
18283W        W84824  10.095   6.088   5.015
18284W        W84825  38.556  42.012  12.532
18285W        W84826  15.085  34.645  11.208
18286W        W84827  25.441   8.448   4.524
18287W        W84828  29.036  44.866   0.929
18288W        W84829  14.046   0.893  12.014
18289W        W84830   2.231  39.321  11.440
18290W        W84831  20.172   0.288  12.396
18291W        W84832  19.944  29.478   0.265
18292W        W84833  19.233  14.102   3.266
18293W        W84834   1.316   8.629  11.496
18294W        W84835   0.350   3.838  14.870
18295W        W84836  33.399  13.519   2.848
18296W        W84837  14.167  14.552   3.573
18297W        W84838   3.967  28.940  13.971
18298W        W84839  15.580  20.205   4.654
18299W        W84840  21.716  34.620  14.104
18300W        W84841  32.372  14.309   2.498
18301W        W84842  24.553  37.517  13.097
18302W        W84843  12.031   8.702   4.586
18303W        W84844   4.548  29.577   4.665
18304W        W84845  42.340  28.655  10.739
18305W        W84846  18.071  44.197   2.158
18306W        W84847  23.424  37.547   4.688
18307W        W84848  34.524  42.321  12.037
18308W        W84849   8.316  34.185  13.053
18309W        W84850   2.125  35.974  14.735
18310W        W84851  36.527  44.228   4.586
18311W        W84852  18.540  28.469  11.624
18312W        W84853  28.421  16.174  11.716
18313W        W84854  42.790  36.189  11.955
18314W        W84855   0.383  38.510   4.859
18315W        W84856  38.549   0.735  12.383
18316W        W84857   7.781  40.199   4.047
18317W        W84858   3.421  39.593   2.783
18318W        W84859   2.305  22.492  12.410
18319W        W84860  17.373  16.605  13.855
18320W        W84861  32.942   4.689   2.280
18321W        W84862  37.392  26.435  12.107
18322W        W84863  10.721   5.706  10.999
18323W        W84864   6.731  28.677   0.748
18324W        W84865   9.189  30.917   2.782
18325W        W84866  16.869  24.026  12.088
18326W        W84867   9.280  13.175  11.405
18327W        W84868  37.921   8.010   2.745
18328W        W84869  25.645   7.290  14.467
18329W        W84870  16.653   1.122   0.942
18330W        W84871   5.906   9.368  14.709
18331W        W84872  42.512  35.510   1.294
18332W        W84873  22.922  32.059  11.960
18333W        W84874  34.549  16.549   4.537
18334W        W84875  30.517  14.408   4.545
18335W        W84876  26.571  28.974   4.612
18336W        W84877  12.843   8.256  12.959
18337W        W84878  38.106  41.785  10.654
18338W        W84879   9.575  11.857   2.255
18339W        W84880  31.588  32.810  13.456
18340W        W84881  11.881  21.659  13.917
18341W        W84882  36.766   0.812  11.986
18342W        W84883  11.388   6.021   3.061
18343W        W84884   0.041  11.222  12.633
18344W        W84885   3.193  26.588   4.004
18345W        W84886  20.127  20.679   0.811
18346W        W84887  29.332  16.825  11.920
18347W        W84888  34.386  17.766  13.451
18348W        W84889   5.281  16.977  11.435
18349W        W84890  24.695  30.966   2.794
18350W        W84891  17.228  28.376  13.147
18351W        W84892  20.582   5.533  12.676
18352W        W84893  24.963  21.950   1.309
18353W        W84894  40.776  37.105   3.337
18354W        W84895  21.819  13.365   2.952
18355W        W84896  20.274  28.476  12.544
18356W        W84897  28.636  30.948  12.239
18357W        W84898  29.507  33.368   4.504
18358W        W84899  17.619  32.566   4.280
18359W        W84900  15.023  24.147  13.364
18360W        W84901  19.417  20.016  12.647
18361W        W84902  37.447  12.283   2.816
18362W        W84903  43.131  13.248   4.181
18363W        W84904  43.451  22.570   4.901
18364W        W84905   0.749   9.226   2.771
18365W        W84906  34.568  11.805  14.082
18366W        W84907  41.822  18.280   4.144
18367W        W84908  21.706  35.845   0.973
18368W        W84909  44.585  29.957  13.076
18369W        W84910  11.761  15.267  12.627
18370W        W84911  14.560  20.953   0.423
18371W        W84912   4.818  44.731   2.256
18372W        W84913  39.817  24.960  14.002
18373W        W84914   4.687  20.134   3.968
18374W        W84915   6.296   2.324  14.412
18375W        W84916  23.942  22.451   0.344
18376W        W84917  28.120   6.187  12.465
18377W        W84918   9.797  10.669   3.404
18378W        W84919  36.640   0.707   2.189
18379W        W84920  31.979   9.356  11.569
18380W        W84921  11.238  16.920   3.725
18381W        W84922  34.533   5.072   2.202
18382W        W84923  34.118   7.167   4.587
18383W        W84924  31.481   0.420   3.772
18384W        W84925  10.495  36.537   2.348
18385W        W84926  17.990  34.061   4.281
18386W        W84927   4.250  38.056  14.812
18387W        W84928  38.955  37.390  12.198
18388W        W84929  40.378  36.925   5.163
18389W        W84930  18.598  19.613   0.359
18390W        W84931  17.711  29.100  13.528
18391W        W84932  35.128  28.035   0.302
18392W        W84933   4.703  44.161  14.454
18393W        W84934  25.467  42.911  10.792
18394W        W84935   0.749   8.589  14.993
18395W        W84936  42.924  20.715  13.393
18396W        W84937   2.890  34.610  10.141
18397W        W84938  30.531   5.728   3.130
18398W        W84939  17.281  31.714  12.956
18399W        W84940  26.603  41.217   1.348
18400W        W84941  12.765  29.172  11.656
18401W        W84942   0.958  38.356  10.554
18402W        W84943   8.917  27.911  11.105
18403W        W84944  28.689  29.199   1.470
18404W        W84945  34.091   3.746   0.848
18405W        W84946  31.530  15.185   1.685
18406W        W84947  30.623  12.325  13.078
18407W        W84948  11.212   7.009  10.919
18408W        W84949  43.270  18.320  11.946
18409W        W84950  26.243  13.265  10.830
18410W        W84951  19.209  15.149   0.350
18411W        W84952  43.543  28.821   4.649
18412W        W84953  44.737   7.213  12.923
18413W        W84954  29.343  36.407   3.246
18414W        W84955  33.662  34.426  11.566
18415W        W84956  17.080  44.526  11.982
18416W        W84957   9.978  42.458  12.957
18417W        W84958  29.382   7.309   0.886
18418W        W84959  15.750  26.680  14.985
18419W        W84960  40.631  31.871   5.019
18420W        W84961  29.741  22.548  13.333
18421W        W84962  12.260  28.229   4.502
18422W        W84963  26.023  11.777   1.727
18423W        W84964   0.154  13.850  11.598
18424W        W84965  21.306   2.631  14.396
18425W        W84966  29.876   8.800  11.105
18426W        W84967  27.075  27.854   3.548
18427W        W84968  24.090  23.473  14.270
18428W        W84969  10.390   6.338  12.904
18429W        W84970  28.970  34.959   2.660
18430W        W84971  19.207  22.514   4.086
18431W        W84972  44.400   3.869   2.554
18432W        W84973  21.662  33.050   0.313
18433W        W84974  44.671  36.155  12.562
18434W        W84975  17.806  20.430  13.046
18435W        W84976   5.922  33.513  11.919
18436W        W84977   1.312  39.564  14.908
18437W        W84978  22.447  14.659  14.818
18438W        W84979  28.541  30.032  10.697
18439W        W84980   0.027  11.340   3.124
18440W        W84981  39.326   2.638   2.863
18441W        W84982  35.413   0.856   3.843
18442W        W84983   4.603  31.893   4.275
18443W        W84984  35.888  11.079   3.960
18444W        W84985  14.795   4.414  13.514
18445W        W84986  33.915  23.585   4.907
18446W        W84987  32.578  42.808  11.068
18447W        W84988   6.930  26.603   1.071
18448W        W84989  11.975  15.140  11.629
18449W        W84990   2.253  18.086  12.533
18450W        W84991  17.246  14.530  14.671
18451W        W84992  11.825   2.205  14.519
18452W        W84993  14.157  40.815   1.455
18453W        W84994  43.259  44.046   0.731
18454W        W84995   4.869   0.279   2.257
18455W        W84996  17.609   3.155   3.705
18456W        W84997  33.481   7.768  11.782
18457W        W84998  43.216   8.698  11.945
18458W        W84999  32.207  21.042   4.557
18459W        W85000  29.263  33.669  14.223
18460W        W85001  22.283  28.311  13.968
18461W        W85002   0.863  25.973   3.931
18462W        W85003  11.579   4.368   0.360
18463W        W85004  14.206  30.698   3.482
18464W        W85005  18.793  11.696  13.777
18465W        W85006  19.142   6.877  11.028
18466W        W85007  15.272  43.983   2.848
18467W        W85008   3.006  29.863  12.863
18468W        W85009  34.783  12.741  11.455
18469W        W85010  37.937  24.712   3.865
18470W        W85011   1.706  29.729   4.163
18471W        W85012  19.738  12.514   0.913
18472W        W85013  22.539  18.108  13.041
18473W        W85014  36.613  15.655   2.774
18474W        W85015  37.916  22.283  12.502
18475W        W85016  43.462   1.018  11.090
18476W        W85017  20.004  25.465  13.414
18477W        W85018  30.780  40.269   4.249
18478W        W85019  26.402   6.722  10.659
18479W        W85020   6.543  26.798   2.743
18480W        W85021  43.422  20.289   0.253
18481W        W85022  30.721  15.712   5.208
18482W        W85023  20.517  36.995   3.136
18483W        W85024  44.996  21.150  11.092
18484W        W85025  28.122  38.929  12.754
18485W        W85026  22.227  15.539   0.786
18486W        W85027  36.819  13.503  12.615
18487W        W85028  38.623  28.541   3.762
18488W        W85029   2.404   4.334   1.409
18489W        W85030  28.058   0.698  12.391
18490W        W85031  10.205  26.139   0.056
18491W        W85032  30.738   5.698  14.947
18492W        W85033  11.434  13.363   3.628
18493W        W85034  44.371  22.286   1.992
18494W        W85035   3.467  32.519   2.789
18495W        W85036   0.338  36.038   0.186
18496W        W85037   4.028  44.028  10.345
18497W        W85038  17.717  31.004   9.689
18498W        W85039  23.828  15.290   2.007
18499W        W85040  25.572  21.323  13.657
18500W        W85041  37.676  21.241   3.134
18501W        W85042   1.926  23.463   1.615
18502W        W85043  31.861  18.942   3.488
18503W        W85044  12.717  27.509  12.045
18504W        W85045  44.337  18.234  14.091
18505W        W85046  12.009  26.818  10.711
18506W        W85047  24.703  25.534  12.592
18507W        W85048  32.346   6.943  11.098
18508W        W85049  31.250  42.939  12.011
18509W        W85050  11.582  29.187   2.637
18510W        W85051  26.087  19.052   2.490
18511W        W85052  41.996  34.498  10.724
18512W        W85053  33.773  40.801   2.869
18513W        W85054  15.037   1.944  12.953
18514W        W85055  16.602  14.849   0.365
18515W        W85056  40.446  34.839  12.580
18516W        W85057   8.055  44.998  13.488
18517W        W85058  14.587  29.223   4.588
18518W        W85059  23.266  17.841  13.459
18519W        W85060  12.160  29.690   4.815
18520W        W85061  31.214   8.379   2.329
18521W        W85062  20.138  43.899   1.904
18522W        W85063  11.775   7.215   2.270
18523W        W85064  18.408   7.311  14.111
18524W        W85065   0.850  25.078   0.589
18525W        W85066  42.260  14.977  14.929
18526W        W85067   9.659   1.027  12.519
18527W        W85068  33.775  42.082   3.359
18528W        W85069  14.653  16.799  13.497
18529W        W85070  27.560  26.249  13.507
18530W        W85071  37.038  31.422   2.168
18531W        W85072  16.582  12.953   3.241
18532W        W85073  15.569   5.997   2.869
18533W        W85074   6.518  16.084  14.413
18534W        W85075  19.011   1.762  12.955
18535W        W85076  41.755   5.375  13.007
18536W        W85077  31.738  19.747  14.465
18537W        W85078  42.262  35.107  13.798
18538W        W85079  33.856  19.616   0.293
18539W        W85080  33.961   6.326   3.742
18540W        W85081  28.776  34.347  14.836
18541W        W85082  25.056  23.493  10.258
18542W        W85083  27.208  10.759   2.162
18543W        W85084  16.078  23.274  14.077
18544W        W85085  15.816  35.179   3.988
18545W        W85086  22.710  44.841  11.936
18546W        W85087  32.668   6.789  10.643
18547W        W85088   8.742  11.710  12.979
18548W        W85089  23.331  29.676  11.926
18549W        W85090  35.627  29.108  11.682
18550W        W85091  15.359  16.266  14.947
18551W        W85092   6.309  18.940   3.522
18552W        W85093  30.723  18.666  13.195
18553W        W85094  29.394   0.646   0.398
18554W        W85095  11.359  39.351  11.151
18555W        W85096  15.210  13.408   4.402
18556W        W85097  32.908  39.645   0.910
18557W        W85098   9.964  32.118  10.495
18558W        W85099  16.510  27.115   0.710
18559W        W85100  18.629  17.722   1.525
18560W        W85101  14.747  18.844  14.664
18561W        W85102  29.085  30.981   3.252
18562W        W85103  44.082  25.324   2.406
18563W        W85104  17.670  39.405   4.118
18564W        W85105  14.771  28.879  10.704
18565W        W85106   8.470  43.033   2.331
18566W        W85107   6.410   6.688  14.545
18567W        W85108  39.729  24.187  14.557
18568W        W85109   5.296  12.700   3.824
18569W        W85110  13.219  37.075  12.543
18570W        W85111   2.860  27.492  14.333
18571W        W85112  20.495  24.518  13.994
18572W        W85113  21.847   5.178  14.446
18573W        W85114  43.810   7.775  13.279
18574W        W85115  36.913  28.912  12.067
18575W        W85116  10.630   1.700   3.815
18576W        W85117  32.708  42.493  14.009
18577W        W85118   5.490  34.816  11.012
18578W        W85119  43.845  15.047  12.164
18579W        W85120   1.475  37.877   2.436
18580W        W85121  39.268  10.845   3.754
18581W        W85122  29.210  27.086   4.580
18582W        W85123  44.068  44.961   1.250
18583W        W85124  22.949   2.846  10.601
18584W        W85125   2.477  17.564  14.057
18585W        W85126  28.902   0.212  11.131
18586W        W85127  11.822  26.623   4.665
18587W        W85128  29.693   4.262   3.237
18588W        W85129   3.197  37.965   0.286
18589W        W85130  31.547  15.842  10.999
18590W        W85131   7.442  17.474   3.339
18591W        W85132   0.211   8.348   2.730
18592W        W85133  22.663  30.283   4.236
18593W        W85134  29.612  36.208   5.171
18594W        W85135  11.576  24.232  11.500
18595W        W85136  13.282  34.068   1.043
18596W        W85137  25.338   9.207  13.865
18597W        W85138  30.196   4.407   0.773
18598W        W85139   5.217  19.722  12.558
18599W        W85140   3.657  27.217   1.311
18600W        W85141   4.631  22.126   9.824
18601W        W85142  29.993   9.625   0.808
18602W        W85143  39.960  36.189  14.411
18603W        W85144  24.680  42.922   0.844
18604W        W85145  35.942  12.480   2.197
18605W        W85146   8.634  40.263   3.567
18606W        W85147   3.324  37.755   4.218
18607W        W85148   9.319   0.490   2.437
18608W        W85149   9.252   0.987  12.848
18609W        W85150  42.028  37.476  13.878
18610W        W85151  22.261  10.973   3.880
18611W        W85152   8.663  31.929   2.675
18612W        W85153  25.009  34.978  14.075
18613W        W85154  24.561  28.817  12.807
18614W        W85155  22.840  28.702  12.003
18615W        W85156  29.680   5.283   2.576
18616W        W85157  17.817  28.204   2.387
18617W        W85158  29.187  29.064   4.528
18618W        W85159  17.636   5.204   3.652
18619W        W85160  41.663  18.069  13.780
18620W        W85161  42.079   8.319   2.661
18621W        W85162  34.838  29.342  13.096
18622W        W85163   9.200  34.954  11.114
18623W        W85164  22.238  19.214  10.728
18624W        W85165  40.318  29.340  10.770
18625W        W85166   6.146  22.062   1.905
18626W        W85167  16.783  13.231   0.706
18627W        W85168  44.775   3.734   1.264
18628W        W85169  26.050  33.674  12.828
18629W        W85170   8.297  25.037  11.896
18630W        W85171   3.633  22.637  11.233
18631W        W85172   6.755   9.425  13.665
18632W        W85173   9.006  37.862  11.996
18633W        W85174  31.079  13.822  11.233
18634W        W85175  12.804  18.158   3.645
18635W        W85176  38.546  39.025   2.918
18636W        W85177  18.190  40.791  13.461
18637W        W85178  35.920  27.407  10.734
18638W        W85179  18.595   8.767  10.708
18639W        W85180  15.616   2.480   3.840
18640W        W85181  31.514  17.182  10.695
18641W        W85182  35.611  35.956  13.314
18642W        W85183  24.115  24.941   1.210
18643W        W85184  38.756  11.338  13.281
18644W        W85185  36.607  15.619  11.094
18645W        W85186  35.054  17.207   1.894
18646W        W85187  18.479  18.296   4.749
18647W        W85188   5.057   3.745   0.458
18648W        W85189   5.343  39.969   3.599
18649W        W85190  25.833  16.159  13.634
18650W        W85191  28.745  25.026  14.224
18651W        W85192   1.361   2.266  13.643
18652W        W85193  32.411  25.527   2.733
18653W        W85194  31.795  25.972   2.446
18654W        W85195  40.636   3.787  13.979
18655W        W85196  14.653  23.726   4.947
18656W        W85197   6.250  24.721   3.157
18657W        W85198  17.107   5.395  10.839
18658W        W85199  44.022   9.077  11.742
18659W        W85200  28.048   5.451  13.790
18660W        W85201  29.674  11.158  10.731
18661W        W85202   6.811  43.869  12.920
18662W        W85203  12.047  35.588   4.161
18663W        W85204  31.995  39.455  11.969
18664W        W85205  14.615  31.461   0.177
18665W        W85206  20.335  15.744   2.480
18666W        W85207  44.956  10.389  12.693
18667W        W85208   5.058  17.516  12.117
18668W        W85209  43.449  28.923   3.273
18669W        W85210  41.987  20.213  12.544
18670W        W85211   3.509  19.202   0.274
18671W        W85212  13.091  20.974  12.469
18672W        W85213   4.915   8.040  14.412
18673W        W85214   0.109  27.047   2.858
18674W        W85215  42.988  34.006  12.934
18675W        W85216  25.705  29.167  11.327
18676W        W85217  32.826  30.670   3.799
18677W        W85218  44.429  29.848   2.356
18678W        W85219  12.746  27.132  11.652
18679W        W85220  14.627  11.748  12.965
18680W        W85221   9.619  11.528  12.993
18681W        W85222  32.198   5.157  12.930
18682W        W85223  30.215  23.048  14.290
18683W        W85224  26.129   3.430  13.004
18684W        W85225  22.737  40.095  14.727
18685W        W85226  25.977  17.101  14.374
18686W        W85227   0.476   0.556  12.207
18687W        W85228  15.023   2.993  14.889
18688W        W85229  43.302  13.632  13.871
18689W        W85230  19.597  36.302  11.778
18690W        W85231  24.391  31.487  11.328
18691W        W85232  19.683  26.533  11.660
18692W        W85233   4.332  14.092  13.402
18693W        W85234  15.457  39.703  10.785
18694W        W85235   0.328  30.348   4.070
18695W        W85236  24.024  41.079  13.460
18696W        W85237  20.793  32.999   2.349
18697W        W85238  31.036  15.268   3.805
18698W        W85239   9.419  21.617  11.673
18699W        W85240  41.065  13.849  12.041
18700W        W85241  13.646  17.934  12.889
18701W        W85242   3.861  42.365   0.823
18702W        W85243   5.681  39.035   2.776
18703W        W85244  30.160  35.347   2.332
18704W        W85245   2.843  15.654  14.035
18705W        W85246  18.255  14.255  12.066
18706W        W85247  36.154  38.431  10.453
18707W        W85248  19.546  41.147  14.199
18708W        W85249  34.707   5.633   2.130
18709W        W85250   7.292   9.576  13.077
18710W        W85251  44.755  21.549   4.270
18711W        W85252  22.262   8.430  10.527
18712W        W85253  13.812  41.023   0.240
18713W        W85254  30.131  10.817   0.165
18714W        W85255   8.551  18.303   0.081
18715W        W85256  34.112  44.852  11.639
18716W        W85257  42.958   8.071  12.886
18717W        W85258  39.578   2.502   3.629
18718W        W85259   5.410  23.652  10.636
18719W        W85260  13.692  25.482  13.406
18720W        W85261  21.483   2.990   1.248
18721W        W85262  11.774  21.194  14.467
18722W        W85263  27.028   5.687  11.570
18723W        W85264  31.531  32.161   3.984
18724W        W85265   7.613  27.728   4.525
18725W        W85266  32.110  20.170  11.197
18726W        W85267  28.145   5.977   0.771
18727W        W85268  28.046  23.252  10.598
18728W        W85269  30.973   0.877   2.742
18729W        W85270   0.642   6.699  11.025
18730W        W85271  34.722  25.946  11.382
18731W        W85272   9.413  11.920   3.795
18732W        W85273  12.686  16.079  14.456
18733W        W85274  19.239  28.385  13.023
18734W        W85275  25.710   4.497  13.733
18735W        W85276  41.422  12.110  14.584
18736W        W85277   9.342  34.997   4.026
18737W        W85278   1.739   5.028  10.129
18738W        W85279  32.648   8.761   2.312
18739W        W85280  26.213  36.528   2.117
18740W        W85281   4.296  44.401   0.448
18741W        W85282  22.052   8.181   4.228
18742W        W85283  28.335  11.649  11.661
18743W        W85284  42.275   5.406  12.867
18744W        W85285  41.140  39.403  12.031
18745W        W85286  24.990  10.155  13.779
18746W        W85287   6.249  30.008   4.640
18747W        W85288   6.696   3.777  14.399
18748W        W85289  27.872   8.340  12.762
18749W        W85290  28.020  12.568  11.551
18750W        W85291  33.099  35.548   1.692
18751W        W85292   6.495  38.467  11.895
18752W        W85293  20.063   2.034  11.618
18753W        W85294   6.087  38.066  12.576
18754W        W85295   7.276  33.124   3.317
18755W        W85296  27.428  19.539   3.323
18756W        W85297  22.914  31.433  14.880
18757W        W85298  33.881  33.119   4.093
18758W        W85299  10.542  25.496  14.283
18759W        W85300  18.244  16.793  11.475
18760W        W85301  12.809  13.170   2.212
18761W        W85302  30.054  25.520   1.368
18762W        W85303  25.139  34.508   0.987
18763W        W85304  23.637  18.060  13.782
18764W        W85305  41.308   0.279   3.859
18765W        W85306  32.430  20.215   0.773
18766W        W85307   9.431  22.655  14.334
18767W        W85308  13.623   8.187   1.761
18768W        W85309  19.365  21.306  12.121
18769W        W85310  18.029  44.939   2.607
18770W        W85311  35.071   0.513   1.796
18771W        W85312  39.649  36.749   0.430
18772W        W85313   9.459  42.873  14.840
18773W        W85314  40.273   7.108   2.732
18774W        W85315  40.108  41.010   3.161
18775W        W85316  31.650  28.981   3.224
18776W        W85317  10.979   0.366  13.306
18777W        W85318  30.525  19.089   4.613
18778W        W85319  39.071  36.989  11.473
18779W        W85320   4.863  21.628   2.708
18780W        W85321  11.244  28.382   0.653
18781W        W85322  29.076  37.495   1.988
18782W        W85323  27.912  13.876   3.681
18783W        W85324  44.605   2.239  14.356
18784W        W85325  37.299   2.837  11.080
18785W        W85326  23.752  30.611  12.633
18786W        W85327  20.656  28.367   0.067
18787W        W85328  41.647  43.952   4.116
18788W        W85329  41.725   4.231  12.121
18789W        W85330   9.827  42.578   2.736
18790W        W85331  21.185  38.300   3.842
18791W        W85332   8.065  11.723   4.825
18792W        W85333  43.545  36.890   4.348
18793W        W85334  32.996   8.243   1.235
18794W        W85335  16.062  18.086   2.353
18795W        W85336  32.306  36.983  13.055
18796W        W85337  26.310  11.892   1.325
18797W        W85338  11.172  37.532   3.177
18798W        W85339   3.222  27.096  12.928
18799W        W85340  27.108  36.956   4.311
18800W        W85341  32.578  16.095  12.030
18801W        W85342  22.509  12.830   3.238
18802W        W85343  31.544  18.695  11.405
18803W        W85344  31.047  13.905  12.120
18804W        W85345  18.630   3.826   0.764
18805W        W85346  40.679  22.196  12.062
18806W        W85347   5.935  32.608  14.952
18807W        W85348   3.819  20.932  12.405
18808W        W85349  44.874  34.923  11.346
18809W        W85350   2.323  26.264  11.420
18810W        W85351  16.232   8.280  10.701
18811W        W85352  12.348  40.923   4.517
18812W        W85353  40.474  36.665  12.178
18813W        W85354  18.694  14.096   3.760
18814W        W85355  31.164  27.104   4.685
18815W        W85356  18.270  19.858   1.523
18816W        W85357   9.789   3.514   4.684
18817W        W85358  37.511  14.095  11.480
18818W        W85359  17.207  40.377  13.527
18819W        W85360  13.806  39.908   2.787
18820W        W85361   9.180  36.569  14.191
18821W        W85362   4.254  40.513   4.385
18822W        W85363   7.279  25.393  14.333
18823W        W85364  25.292  14.576  14.063
18824W        W85365   8.877  16.972  14.490
18825W        W85366  19.558  35.667  11.194
18826W        W85367  29.053  41.707   4.900
18827W        W85368  35.908   6.667  11.989
18828W        W85369   9.463   3.978  12.603
18829W        W85370  12.848   8.231   0.689
18830W        W85371  31.406   4.264  11.128
18831W        W85372   4.692  12.814   3.007
18832W        W85373  11.115  29.981  12.904
18833W        W85374  44.385  32.377   1.785
18834W        W85375  40.462  31.440  14.681
18835W        W85376   2.233  10.681  13.967
18836W        W85377   4.921  29.021  12.523
18837W        W85378  33.386   4.443   2.253
18838W        W85379  32.969  25.809  12.494
18839W        W85380  28.094  15.715   3.314
18840W        W85381  21.916  42.592   2.623
18841W        W85382  44.782  23.906   4.212
18842W        W85383  29.427  37.867  10.553
18843W        W85384  17.968  21.281  14.424
18844W        W85385  13.182  41.883  12.705
18845W        W85386  20.615   8.045  13.133
18846W        W85387  22.580   2.124  12.219
18847W        W85388  31.873  33.380  14.902
18848W        W85389   9.430  43.232   0.933
18849W        W85390  39.190  29.433  14.035
18850W        W85391   8.197  32.060  14.713
18851W        W85392  24.910   9.839   1.328
18852W        W85393  34.975  14.820  12.139
18853W        W85394  19.128   6.019  10.773
18854W        W85395  14.687  39.040   2.363
18855W        W85396  21.762   8.357   2.675
18856W        W85397  24.490   2.859   2.177
18857W        W85398  30.585  34.962   0.691
18858W        W85399  24.662  22.196   4.059
18859W        W85400  42.601  12.179   2.173
18860W        W85401  33.588  16.403   0.632
18861W        W85402  33.130  37.128  11.206
18862W        W85403  31.286  19.769  10.259
18863W        W85404   8.373   4.443   2.458
18864W        W85405   8.202  34.853  10.526
18865W        W85406  13.309  12.328   2.446
18866W        W85407  34.139   4.047   3.215
18867W        W85408  40.288  25.778  13.851
18868W        W85409  24.308  26.457  10.323
18869W        W85410  37.941  13.702   5.343
18870W        W85411  21.390  34.620   1.786
18871W        W85412  35.971   1.727   3.903
18872W        W85413   8.079  12.728  10.075
18873W        W85414  36.607  11.294  12.813
18874W        W85415  37.280  16.475   1.714
18875W        W85416  14.753  20.135  10.463
18876W        W85417   2.452  28.144   3.629
18877W        W85418  41.482  21.166   2.024
18878W        W85419  23.448  31.377  14.802
18879W        W85420  24.042  28.436   4.644
18880W        W85421  26.199  34.554   1.880
18881W        W85422   6.631  29.184   2.686
18882W        W85423  11.791   6.992   0.033
18883W        W85424  21.735  13.420  10.641
18884W        W85425  11.239  18.517  11.570
18885W        W85426   7.244   8.154   4.594
18886W        W85427   3.169  17.377   0.864
18887W        W85428  29.992  38.580  14.247
18888W        W85429   9.389  21.193  11.969
18889W        W85430  28.476  13.797  13.336
18890W        W85431  42.933  39.469   1.500
18891W        W85432  12.558  14.300   2.190
18892W        W85433  33.586  20.808   4.560
18893W        W85434  32.027  15.391   1.307
18894W        W85435  15.345  27.105   2.905
18895W        W85436   8.674  28.730   1.257
18896W        W85437  28.151  30.159   2.442
18897W        W85438  16.740   0.652  13.001
18898W        W85439  29.678  14.503  14.122
18899W        W85440  15.165  27.242  13.575
18900W        W85441  25.200  35.003   2.813
18901W        W85442   9.739  38.980   0.713
18902W        W85443  15.745  38.245   1.470
18903W        W85444  41.803  16.781   0.448
18904W        W85445  10.091   9.219  13.926
18905W        W85446   6.939  22.111   4.810
18906W        W85447  10.573   3.104  12.861
18907W        W85448  38.416  19.691   1.007
18908W        W85449  13.649  44.014  14.301
18909W        W85450  31.481  20.851  12.907
18910W        W85451  24.428  35.212  14.555
18911W        W85452  11.813  42.253  11.556
18912W        W85453  10.427  16.816   4.065
18913W        W85454  33.666   7.703  10.892
18914W        W85455  20.370  10.195  10.294
18915W        W85456  34.988   0.460  14.864
18916W        W85457  17.840  29.187   3.638
18917W        W85458  23.090   9.255  10.282
18918W        W85459  37.595  33.494   2.762
18919W        W85460  25.582  20.764  10.401
18920W        W85461  39.056  19.956  12.097
18921W        W85462   0.162  20.612  13.109
18922W        W85463  40.847  32.230  13.761
18923W        W85464  18.374   4.700  12.419
18924W        W85465  32.998  22.650  12.335
18925W        W85466  17.543  23.705  13.837
18926W        W85467  32.487  26.740   4.640
18927W        W85468  16.315  13.139  13.411
18928W        W85469   9.128  29.675  13.744
18929W        W85470  22.239   7.150  14.080
18930W        W85471  38.622  29.221  13.021
18931W        W85472  13.867  20.774   2.985
18932W        W85473  20.997  22.399   3.902
18933W        W85474   6.357  18.262  12.366
18934W        W85475  38.432  11.361   0.181
18935W        W85476  32.478   9.880  13.578
18936W        W85477  21.672  33.136  10.874
18937W        W85478  12.429   1.878   3.376
18938W        W85479  11.719  32.877   3.553
18939W        W85480  11.720   2.453   0.935
18940W        W85481   1.656  16.074   0.204
18941W        W85482   4.990  22.696  14.818
18942W        W85483   7.300  12.690   3.571
18943W        W85484  21.317  32.549   3.840
18944W        W85485  41.827  42.737  13.789
18945W        W85486  35.325   1.592  12.673
18946W        W85487  40.472   2.258  12.420
18947W        W85488  22.490  12.610  14.865
18948W        W85489   3.785  19.023  13.426
18949W        W85490  44.242   4.134  10.431
18950W        W85491  40.290  13.751  14.911
18951W        W85492   9.714   3.569   3.261
18952W        W85493  27.116  36.946  12.516
18953W        W85494  44.295  25.897   3.487
18954W        W85495  22.591  33.032   2.181
18955W        W85496   6.209  29.944   0.777
18956W        W85497   0.557  33.810   0.500
18957W        W85498  14.716  23.517   3.692
18958W        W85499   1.840   7.846   0.498
18959W        W85500  21.113  36.445  12.282
18960W        W85501   4.790  25.070   1.694
18961W        W85502  34.145   1.731   3.769
18962W        W85503  33.029  10.084  13.544
18963W        W85504   1.351   1.555  10.661
18964W        W85505  27.120   7.222   1.366
18965W        W85506  33.210  36.325   3.233
18966W        W85507  30.200  26.880   4.602
18967W        W85508   2.816  42.733   2.188
18968W        W85509   4.912  25.074  13.019
18969W        W85510  30.550  40.027  14.291
18970W        W85511  40.813  26.244  10.996
18971W        W85512   6.706  16.873  12.024
18972W        W85513  22.140  27.866  14.853
18973W        W85514  32.767  29.474  12.403
18974W        W85515  36.587  41.375   0.788
18975W        W85516  38.369   8.500   3.227
18976W        W85517  28.462   4.436   3.768
18977W        W85518  10.818  11.791  12.990
18978W        W85519  27.685  30.222   2.754
18979W        W85520  15.970   4.313  12.384
18980W        W85521  12.259  38.480   4.816
18981W        W85522  12.654  19.211   1.874
18982W        W85523  29.968  30.021  12.570
18983W        W85524  38.598   5.939   4.079
18984W        W85525  41.760  36.611   2.647
18985W        W85526  41.172  41.706  14.003
18986W        W85527  10.992  20.226   0.832
18987W        W85528  43.914  35.666   2.701
18988W        W85529  15.573  39.499   2.948
18989W        W85530  12.673   4.515  14.521
18990W        W85531  44.124   2.753  13.531
18991W        W85532  27.116   1.481  13.758
18992W        W85533  10.949  35.657  11.900
18993W        W85534  32.265  33.984  13.532
18994W        W85535  40.253  31.215  13.352
18995W        W85536  25.641  42.566   1.797
18996W        W85537  36.998  20.208  14.798
18997W        W85538  12.418   3.948  12.522
18998W        W85539  22.427  43.702   2.300
18999W        W85540   4.429  41.705   4.217
19000W        W85541  23.026   4.819   3.099
19001W        W85542  19.828  22.649   4.562
19002W        W85543  33.867  20.060   4.332
19003W        W85544   0.865  39.353  13.398
19004W        W85545  18.097  31.477  11.642
19005W        W85546  36.778  30.174   0.919
19006W        W85547  19.226  32.400  14.358
19007W        W85548   7.407  28.430  13.004
19008W        W85549  37.000  24.679  11.951
19009W        W85550   4.351  43.826  13.244
19010W        W85551   3.184   8.018  12.118
19011W        W85552   0.799   3.594  10.565
19012W        W85553   8.208   6.263  10.709
19013W        W85554  10.354  22.568   4.557
19014W        W85555  29.503  26.296  13.673
19015W        W85556  34.659   9.845   4.564
19016W        W85557  18.672   7.333   4.964
19017W        W85558  44.292  14.353   3.615
19018W        W85559  32.021  21.737  14.808
19019W        W85560   2.538  12.441   4.212
19020W        W85561   5.491   2.465  12.058
19021W        W85562  13.559  27.069   4.710
19022W        W85563  41.506   5.641   0.642
19023W        W85564  36.536  16.800  12.234
19024W        W85565  22.524  37.775  11.249
19025W        W85566   8.135   4.260   4.371
19026W        W85567  29.439  17.434  14.273
19027W        W85568  13.076  24.754  10.609
19028W        W85569   8.694  33.428   0.990
19029W        W85570   1.278  27.425   1.585
19030W        W85571  18.609   9.131   2.441
19031W        W85572  12.363  19.143   4.813
19032W        W85573  27.635  41.969  12.398
19033W        W85574  11.853  33.548  11.540
19034W        W85575  11.099  41.356   2.683
19035W        W85576  15.898   7.842  10.694
19036W        W85577  34.701   8.350  11.674
19037W        W85578  17.286  18.476  13.849
19038W        W85579   1.999  22.714   4.226
19039W        W85580   9.825  24.527   2.097
19040W        W85581   6.819   9.243   2.793
19041W        W85582  22.395  10.626  14.890
19042W        W85583  30.056  35.427   1.283
19043W        W85584  30.620  27.219   1.228
19044W        W85585  36.059  36.350   1.327
19045W        W85586  18.296  38.564  11.180
19046W        W85587   6.848   9.623   0.464
19047W        W85588  20.083  34.671  10.005
19048W        W85589  10.374  37.094  14.840
19049W        W85590   4.705  25.553   1.867
19050W        W85591  20.234   8.682  13.423
19051W        W85592  25.148   2.459  13.968
19052W        W85593   0.479  15.293   1.283
19053W        W85594  35.145  27.595   3.718
19054W        W85595  43.962   0.358  12.975
19055W        W85596   3.177  32.070  11.659
19056W        W85597  11.340  37.758  14.319
19057W        W85598  33.622  28.400  12.911
19058W        W85599  40.252  44.755  12.462
19059W        W85600  37.026   4.872  12.571
19060W        W85601  38.983  43.975   1.282
19061W        W85602   2.295  12.606   3.564
19062W        W85603  25.117  29.223   2.816
19063W        W85604  12.849  20.230   1.814
19064W        W85605  11.381  10.766   2.658
19065W        W85606  40.260  21.084   4.202
19066W        W85607  31.892   7.889  12.683
19067W        W85608   7.776  24.077  13.420
19068W        W85609   7.358  30.730   0.930
19069W        W85610  15.578  25.649  14.793
19070W        W85611   3.010   1.054  12.000
19071W        W85612  34.343  27.839  11.487
19072W        W85613  14.644   7.676   0.498
19073W        W85614  25.089  24.192  11.577
19074W        W85615  20.722  37.985   0.982
19075W        W85616  24.221  43.332  13.038
19076W        W85617  34.962  30.516  10.733
19077W        W85618  12.787  36.048  13.095
19078W        W85619  17.135  28.854  11.570
19079W        W85620   5.094  24.278   2.199
19080W        W85621  15.240  32.512   2.830
19081W        W85622   0.991  17.178   2.856
19082W        W85623  32.448  18.599  14.986
19083W        W85624  39.099  39.977   1.225
19084W        W85625  37.806  39.822   3.913
19085W        W85626  43.449   3.917  13.708
19086W        W85627  10.768  42.171  13.867
19087W        W85628  41.916  15.197   2.832
19088W        W85629  12.810   1.619  12.041
19089W        W85630  15.117  33.733   2.186
19090W        W85631  42.013  43.074  13.456
19091W        W85632   6.183  35.363   2.862
19092W        W85633  32.192  38.588   3.180
19093W        W85634  31.684   7.451  14.918
19094W        W85635  36.593  36.120   4.195
19095W        W85636  34.318   4.355  10.208
19096W        W85637  40.366  44.769   3.749
19097W        W85638   9.837  23.460   2.232
19098W        W85639   9.122   9.294   2.092
19099W        W85640  29.400  19.149  14.946
19100W        W85641  20.546  39.704   2.076
19101W        W85642   4.264  22.752   4.234
19102W        W85643  10.722   6.267   1.533
19103W        W85644   9.368   1.289  13.327
19104W        W85645  18.218  19.253  12.563
19105W        W85646  37.251   3.956   3.220
19106W        W85647   3.711  15.262   4.360
19107W        W85648  24.635  32.177   4.837
19108W        W85649  43.473  24.284   1.205
19109W        W85650   1.710  19.337   1.668
19110W        W85651  24.316  26.579  13.484
19111W        W85652  15.038   4.469   0.771
19112W        W85653   8.304   2.917   0.709
19113W        W85654  35.141  29.439  12.692
19114W        W85655   5.082  25.980  14.769
19115W        W85656  14.069  28.012  14.866
19116W        W85657   7.242  22.688   1.709
19117W        W85658   7.194   0.198  14.355
19118W        W85659  27.501   5.165  12.920
19119W        W85660   4.395  38.750   1.192
19120W        W85661  21.229   0.726   3.959
19121W        W85662  44.053  38.874   2.834
19122W        W85663  26.790  39.411   3.143
19123W        W85664   6.430  37.887  10.549
19124W        W85665  15.667  20.327  13.337
19125W        W85666  16.614  14.341  13.032
19126W        W85667  31.660  38.230  12.928
19127W        W85668  39.444  26.505  14.968
19128W        W85669  38.859  36.953  13.562
19129W        W85670  18.623  28.574   0.830
19130W        W85671   4.003  10.477   0.402
19131W        W85672  13.019  35.611  10.985
19132W        W85673  39.792   6.706  12.942
19133W        W85674   7.910  33.912  12.850
19134W        W85675  12.594  35.958   2.778
19135W        W85676  25.633   3.365   0.552
19136W        W85677  22.005  15.018  10.250
19137W        W85678   5.890  42.787   4.337
19138W        W85679  10.202  44.197  10.699
19139W        W85680  31.251   1.835   5.100
19140W        W85681  18.988  16.372  11.194
19141W        W85682  23.422  28.533   2.511
19142W        W85683  39.036  28.996  14.379
19143W        W85684  28.118  24.267  11.962
19144W        W85685   5.809  25.584   0.848
19145W        W85686  25.907  31.401   4.125
19146W        W85687  32.587   6.405   2.696
19147W        W85688   0.452  29.548  12.448
19148W        W85689  30.731   5.596  10.755
19149W        W85690  19.892   9.375  11.610
19150W        W85691  39.728  35.087  11.973
19151W        W85692  12.259  26.105  11.906
19152W        W85693  24.034   4.997  12.073
19153W        W85694  37.043  13.808  12.966
19154W        W85695  31.652   4.796   1.757
19155W        W85696  41.614  17.968   3.779
19156W        W85697   3.738   1.350  14.431
19157W        W85698  33.652  13.051   2.320
19158W        W85699  38.915  14.915  10.843
19159W        W85700   5.416  32.493   4.496
19160W        W85701  28.682   6.407   3.783
19161W        W85702  25.647  23.622  11.975
19162W        W85703   8.148  11.051  13.874
19163W        W85704  14.237  19.481  11.028
19164W        W85705  36.098  44.506   4.539
19165W        W85706  16.165   0.309  11.087
19166W        W85707  21.081   0.245  11.521
19167W        W85708  15.235  41.765   0.304
19168W        W85709  15.225  31.949  11.773
19169W        W85710   9.463   5.432   0.682
19170W        W85711  10.183   7.754  13.990
19171W        W85712  11.023  21.211  12.494
19172W        W85713  24.964  26.304   1.727
19173W        W85714  25.245  22.049   1.773
19174W        W85715  15.678  18.716   3.755
19175W        W85716  29.756  10.364   3.682
19176W        W85717  34.547  29.262   2.594
19177W        W85718   7.104   7.662  12.467
19178W        W85719  20.562  20.983   0.375
19179W        W85720  19.410   5.926  13.434
19180W        W85721  39.287  19.524   0.889
19181W        W85722  43.700  32.996  11.685
19182W        W85723  10.871  12.767   2.789
19183W        W85724  16.776  19.584  12.080
19184W        W85725  39.397   0.227  10.893
19185W        W85726  33.794  41.345  11.924
19186W        W85727  28.966   4.760   1.441
19187W        W85728  21.226  16.581   2.866
19188W        W85729  12.700  30.090   4.080
19189W        W85730  35.595  29.501   5.017
19190W        W85731  28.868   6.900  11.983
19191W        W85732   1.844  16.182  13.169
19192W        W85733  12.779  18.586  12.635
19193W        W85734  33.317  13.028  14.900
19194W        W85735  17.324  27.662   3.231
19195W        W85736  38.912  36.859  12.560
19196W        W85737  43.003  36.400   0.008
19197W        W85738   0.627   8.163  12.077
19198W        W85739  19.747  22.739  14.388
19199W        W85740  37.808  11.223  14.284
19200W        W85741  20.709  33.315   2.761
19201W        W85742  15.079  30.416   2.627
19202W        W85743  26.116  18.575   2.724
19203W        W85744  27.184   9.895   0.956
19204W        W85745   3.185  16.344  14.853
19205W        W85746  36.385  11.436   4.487
19206W        W85747  26.635  43.508  13.076
19207W        W85748  41.734  29.667   3.151
19208W        W85749  14.819  21.533  10.532
19209W        W85750  35.467  39.812  14.338
19210W        W85751  10.715  33.721   3.314
19211W        W85752  19.342  28.014  14.881
19212W        W85753  33.802   0.571  14.810
19213W        W85754  36.041  30.541   3.408
19214W        W85755  26.046   6.944   1.880
19215W        W85756  40.552   7.861   1.806
19216W        W85757  16.831   3.236   2.152
19217W        W85758  43.729  12.177   2.688
19218W        W85759  19.995  10.596   3.794
19219W        W85760  20.564   1.811  14.129
19220W        W85761   1.798  25.146  13.995
19221W        W85762  32.427  38.374  14.877
19222W        W85763  35.647  44.307   3.174
19223W        W85764  21.670  29.234  11.205
19224W        W85765  37.279  38.097   3.811
19225W        W85766   7.418   0.767  10.964
19226W        W85767  40.671  21.724   3.245
19227W        W85768  22.479  41.976   4.620
19228W        W85769  19.697  12.088   0.033
19229W        W85770  16.303  41.119  13.134
19230W        W85771  11.768  32.141  14.944
19231W        W85772  38.119   3.654  13.950
19232W        W85773  42.010  34.442   1.330
19233W        W85774  10.003  10.603   4.445
19234W        W85775   3.146  20.067   3.862
19235W        W85776  10.230  11.642   0.030
19236W        W85777  11.836   1.407  13.164
19237W        W85778   4.693  16.620   4.350
19238W        W85779  20.589  25.920  10.718
19239W        W85780  37.841  27.073  11.065
19240W        W85781  32.161  28.026   4.991
19241W        W85782  34.498  34.086   2.176
19242W        W85783  12.096  30.869  10.631
19243W        W85784  10.807   6.988   3.244
19244W        W85785  42.576  17.676  12.223
19245W        W85786  43.317  13.418   5.034
19246W        W85787  41.851  21.069  13.090
19247W        W85788   2.844   5.406  11.484
19248W        W85789  31.058  12.809   3.610
19249W        W85790   8.151   3.614  13.193
19250W        W85791   8.943  27.713   1.352
19251W        W85792  29.533  34.593  14.468
19252W        W85793  43.914  38.162  13.752
19253W        W85794  21.714  12.800  12.220
19254W        W85795  18.698  40.491   2.262
19255W        W85796  43.039  32.596  12.908
19256W        W85797  18.334  23.523  12.517
19257W        W85798   1.199  44.354   0.251
19258W        W85799   2.062  10.040   4.929
19259W        W85800  36.921  44.829   3.240
19260W        W85801   8.971  43.304   2.556
19261W        W85802  20.631  30.952  10.655
19262W        W85803  35.487  34.533  12.005
19263W        W85804  12.139  15.367   2.965
19264W        W85805  19.970  12.245  10.460
19265W        W85806  15.209  38.018  14.943
19266W        W85807   8.131  25.643   4.685
19267W        W85808   9.916   6.119  11.084
19268W        W85809  34.633  12.211   0.393
19269W        W85810  19.189  24.788   0.808
19270W        W85811  33.316   2.919  12.026
19271W        W85812  41.363   7.961  13.102
19272W        W85813   1.732  35.548  13.349
19273W        W85814  41.411  40.738  11.060
19274W        W85815  40.648  39.025   4.612
19275W        W85816  39.320   4.510  10.644
19276W        W85817   3.910   2.086   3.585
19277W        W85818  44.935  34.846  13.499
19278W        W85819  29.644  33.594   4.068
19279W        W85820  41.712  41.326   1.327
19280W        W85821   4.501  42.888  10.033
19281W        W85822  18.293   3.711  12.663
19282W        W85823  18.998   5.438   0.889
19283W        W85824  29.184   2.921  13.915
19284W        W85825   5.293  39.611   0.216
19285W        W85826  12.735  41.407  13.279
19286W        W85827  35.142  34.171   0.389
19287W        W85828   6.640  41.498  12.706
19288W        W85829   7.507  10.912  12.745
19289W        W85830  13.633  14.216  14.550
19290W        W85831  32.669  43.488  14.246
19291W        W85832   4.792  14.771  14.529
19292W        W85833   4.918  43.991  11.464
19293W        W85834  13.164   2.671   4.311
19294W        W85835   8.428  27.822  13.981
19295W        W85836  17.999  33.898  13.479
19296W        W85837   4.548  24.435  13.307
19297W        W85838  11.200   4.465  14.029
19298W        W85839  26.971  37.506   4.113
19299W        W85840  27.526  13.787   4.291
19300W        W85841   9.818  44.754  12.958
19301W        W85842  25.921  22.577  14.474
19302W        W85843  16.549  23.770  11.708
19303W        W85844  42.513   8.461   2.364
19304W        W85845  36.928   9.485   0.085
19305W        W85846  12.861  18.973  13.005
19306W        W85847  16.034  10.236   0.308
19307W        W85848   2.116  10.322  12.217
19308W        W85849  23.528  14.789  14.590
19309W        W85850   8.389   1.898  14.551
19310W        W85851  36.380  30.924   5.017
19311W        W85852  31.586  32.701  11.640
19312W        W85853  33.053  44.763  14.454
19313W        W85854   6.162  20.272   2.263
19314W        W85855   2.085   3.894  13.482
19315W        W85856  19.609  34.035  12.012
19316W        W85857  30.508  25.496   3.174
19317W        W85858  19.537   8.420  13.737
19318W        W85859  10.138  43.031   3.260
19319W        W85860   1.869   9.127  12.466
19320W        W85861  25.190   5.222  12.577
19321W        W85862  27.179   7.423  14.890
19322W        W85863  28.776   4.439   3.372
19323W        W85864  41.951  35.017  10.754
19324W        W85865  16.806  42.046   2.758
19325W        W85866  25.803  34.348  11.505
19326W        W85867  38.051   2.944  14.553
19327W        W85868  11.439  19.437   1.171
19328W        W85869  28.050  41.978   0.639
19329W        W85870  30.432  39.263  11.173
19330W        W85871  28.686   9.945  14.402
19331W        W85872  22.493   3.944   0.863
19332W        W85873  18.075   1.667   2.308
19333W        W85874   7.942   3.164   1.751
19334W        W85875   7.219  34.207   1.742
19335W        W85876  25.375  35.327  14.249
19336W        W85877  38.812  10.271   2.177
19337W        W85878  25.660  20.781  12.583
19338W        W85879  25.657  44.105  12.209
19339W        W85880  28.557  26.480  12.474
19340W        W85881   6.519   2.329   4.897
19341W        W85882   4.630  32.078   1.455
19342W        W85883   6.180  34.990  14.971
19343W        W85884  40.053  36.889   1.715
19344W        W85885  24.525   7.758  12.271
19345W        W85886   2.530  39.916   4.181
19346W        W85887  10.331   0.962   2.769
19347W        W85888  37.402  28.602   2.606
19348W        W85889  23.286   1.851  10.560
19349W        W85890   3.468  16.182   0.265
19350W        W85891  20.137  19.460   2.700
19351W        W85892   6.416  17.551  10.625
19352W        W85893  34.321  27.065  14.618
19353W        W85894  42.341  43.717  12.148
19354W        W85895  19.246  35.160   1.282
19355W        W85896  19.179  22.461  14.416
19356W        W85897   6.061  44.277  11.017
19357W        W85898  24.077  19.147  12.495
19358W        W85899   9.865  25.347  11.598
19359W        W85900  38.983   5.185  13.111
19360W        W85901  42.406  28.098  13.988
19361W        W85902  43.464  36.526  13.880
19362W        W85903  12.161  18.153  11.157
19363W        W85904  16.730  32.642   2.426
19364W        W85905  28.096   6.330   2.855
19365W        W85906  18.164  24.742   2.851
19366W        W85907  22.287  10.482   3.713
19367W        W85908  18.408  21.993   1.550
19368W        W85909  13.047  26.799  14.566
19369W        W85910  34.161  26.597  14.796
19370W        W85911   9.541   7.329   4.967
19371W        W85912  11.163   7.196  13.300
19372W        W85913   8.975   0.250   1.992
19373W        W85914  13.456  37.688  11.034
19374W        W85915  29.436   9.440   2.738
19375W        W85916  19.863  28.732  11.289
19376W        W85917  15.404  41.046   3.719
19377W        W85918  10.059  29.192  12.817
19378W        W85919   5.985   8.091   5.066
19379W        W85920   9.720  25.899  12.497
19380W        W85921   8.438   6.251   1.738
19381W        W85922  40.189  12.259  12.159
19382W        W85923  23.990  27.612   4.258
19383W        W85924  36.306  34.193  11.764
19384W        W85925   0.439  37.531   2.878
19385W        W85926   2.256   9.276  13.395
19386W        W85927  19.745  24.259   4.930
19387W        W85928   0.834  10.601   2.363
19388W        W85929  21.571  44.983  10.682
19389W        W85930  22.175  40.590   4.822
19390W        W85931  17.507  17.801   3.190
19391W        W85932  17.265  43.285  14.399
19392W        W85933  28.867  20.211  11.855
19393W        W85934  19.176   7.514   0.582
19394W        W85935   7.133  10.686   2.824
19395W        W85936   6.447  17.609   1.406
19396W        W85937   0.407  43.005   0.757
19397W        W85938   4.931  10.223   4.477
19398W        W85939  17.301  25.071   4.207
19399W        W85940  32.761  39.353  10.778
19400W        W85941  13.170  15.104  11.216
19401W        W85942   5.165  25.675  10.788
19402W        W85943  30.399  42.884   5.062
19403W        W85944  30.137  16.594  14.526
19404W        W85945  20.671  17.865  14.982
19405W        W85946  34.651  39.333   3.118
19406W        W85947   1.774  11.845   3.080
19407W        W85948  36.760  20.024   2.168
19408W        W85949  42.602  11.568  10.386
19409W        W85950   0.215  28.563  13.948
19410W        W85951  41.071  43.439   3.543
19411W        W85952  42.899   1.980   4.252
19412W        W85953  31.757  14.681   3.567
19413W        W85954  44.517  27.051  10.968
19414W        W85955  13.831  38.827  10.739
19415W        W85956   7.133   0.718   3.678
19416W        W85957  39.402  28.236  10.789
19417W        W85958  43.447  11.756   0.732
19418W        W85959  42.894  43.414   0.249
19419W        W85960  17.491  26.222   3.350
19420W        W85961   9.434  44.269   0.829
19421W        W85962  36.515  20.293  12.132
19422W        W85963  40.302  31.577   0.729
19423W        W85964   6.132  44.407   2.810
19424W        W85965   9.345  41.419   2.114
19425W        W85966  31.451   6.130   3.052
19426W        W85967   4.374  32.339   4.446
19427W        W85968   8.587  28.486   3.389
19428W        W85969  34.150  10.383  14.493
19429W        W85970  16.502  30.220  11.651
19430W        W85971  41.750  41.135  11.067
19431W        W85972  12.928   9.438   1.381
19432W        W85973  30.842   5.309  11.180
19433W        W85974  16.308  44.742   4.616
19434W        W85975  23.843  43.935  14.589
19435W        W85976  40.117   5.293  14.726
19436W        W85977  31.332  14.276   3.102
19437W        W85978   6.132  22.309  11.624
19438W        W85979  42.531  22.324   4.936
19439W        W85980  25.593  33.981   4.408
19440W        W85981  31.613  19.890  13.560
19441W        W85982  21.196  15.722   2.375
19442W        W85983  20.604  14.721  11.642
19443W        W85984  22.054   6.741   2.738
19444W        W85985   4.387   7.444   0.744
19445W        W85986  32.929   8.280   1.766
19446W        W85987  40.584  39.927   0.493
19447W        W85988  38.025  20.547  12.918
19448W        W85989  16.739   1.361  11.604
19449W        W85990  24.100   0.899  11.720
19450W        W85991  41.753  21.992  14.833
19451W        W85992  15.309  18.582  11.127
19452W        W85993  34.409  26.537  11.958
19453W        W85994  40.002  29.995   3.233
19454W        W85995  24.062  13.635  13.039
19455W        W85996  16.522  21.277   3.236
19456W        W85997   4.674   5.637  13.763
19457W        W85998  30.757   5.427  13.372
19458W        W85999  42.466  15.722  12.107
19459W        W86000  37.406  18.714   4.314
19460W        W86001  35.030  39.944  13.023
19461W        W86002  42.881  12.291  12.683
19462W        W86003  43.459  32.823   3.417
19463W        W86004  32.842   2.644  12.079
19464W        W86005  40.585  37.628   0.542
19465W        W86006  10.716  26.998  12.363
19466W        W86007  43.445   8.583  12.402
19467W        W86008   0.613  25.419   0.275
19468W        W86009  24.567  36.372   4.509
19469W        W86010  42.382  36.003   4.088
19470W        W86011   3.507  14.215  13.742
19471W        W86012  42.896  30.166   0.457
19472W        W86013  34.400  12.228  14.378
19473W        W86014  24.566  18.475  11.981
19474W        W86015  25.040  26.599   3.298
19475W        W86016  39.042  35.027  12.452
19476W        W86017   7.111  37.996   4.937
19477W        W86018  14.367  16.353   2.321
19478W        W86019   6.384  30.744   1.153
19479W        W86020  24.040   9.187  13.332
19480W        W86021   1.748  22.217   0.865
19481W        W86022   8.393  11.082   0.505
19482W        W86023   8.581  34.225   3.231
19483W        W86024   7.012  43.821  12.087
19484W        W86025  12.700  11.620   2.368
19485W        W86026  12.135  44.368  12.304
19486W        W86027  23.799  14.139   0.018
19487W        W86028  41.439  23.677  13.385
19488W        W86029  38.389  27.061  10.962
19489W        W86030  25.681  20.200   0.739
19490W        W86031   1.583  44.364   4.993
19491W        W86032  37.079   5.714  10.360
19492W        W86033  11.953  17.370   4.227
19493W        W86034  11.425  43.018  13.160
19494W        W86035  26.247  11.849  10.767
19495W        W86036  39.610  39.160   4.266
19496W        W86037  34.388  20.768   3.180
19497W        W86038  10.252  18.598   3.578
19498W        W86039  21.781  17.600   9.848
19499W        W86040  35.131  35.997  12.653
19500W        W86041   9.377  12.671  13.453
19501W        W86042  42.605   5.557  11.565
19502W        W86043  11.810  12.814   3.987
19503W        W86044  17.525  11.508   2.662
19504W        W86045  12.671  12.820   4.417
19505W        W86046  16.215  38.892  10.715
19506W        W86047  43.496  25.575  10.601
19507W        W86048  40.577  41.994   1.907
19508W        W86049  42.454  37.490   2.133
19509W        W86050   0.875  13.277   0.772
19510W        W86051   7.641  18.269   3.999
19511W        W86052   1.812  16.198  13.676
19512W        W86053  23.230   9.308   3.724
19513W        W86054  36.926  21.802   1.371
19514W        W86055  37.034  10.426  14.486
19515W        W86056  35.172  35.894   2.462
19516W        W86057  42.540  39.917  13.520
19517W        W86058   1.958  21.498  14.004
19518W        W86059  12.869   3.398   3.795
19519W        W86060  31.456   1.262  14.949
19520W        W86061   4.677  36.894   0.165
19521W        W86062  37.353  24.444   3.557
19522W        W86063  13.419  32.844   2.791
19523W        W86064  42.396  40.278  13.887
19524W        W86065  40.853  37.013  11.501
19525W        W86066  37.512  22.815   5.093
19526W        W86067  26.647  27.737   0.351
19527W        W86068  15.683  21.704  12.094
19528W        W86069  17.763  24.587  12.869
19529W        W86070  16.223  26.182   1.961
19530W        W86071  35.451  44.939   4.290
19531W        W86072  43.781   6.201   4.668
19532W        W86073   2.391  15.417  14.787
19533W        W86074  11.790  37.384  13.572
19534W        W86075  17.142  14.675   3.572
19535W        W86076   2.948  25.005  13.056
19536W        W86077   6.693  22.995   3.987
19537W        W86078   0.904  19.243  12.530
19538W        W86079  43.504  26.943  11.136
19539W        W86080   9.693  16.669   3.897
19540W        W86081  28.390  34.927  14.044
19541W        W86082   5.044   6.360   4.514
19542W        W86083  25.119  41.544  13.952
19543W        W86084  16.140  10.733   2.173
19544W        W86085  30.440  14.815   1.341
19545W        W86086  35.754  10.762   4.662
19546W        W86087   9.206  44.996   2.382
19547W        W86088  20.979  13.339  14.421
19548W        W86089   2.650  37.906  11.125
19549W        W86090  29.878   8.164   1.878
19550W        W86091  26.125  39.032  13.449
19551W        W86092  36.885  31.473   3.031
19552W        W86093   8.384   1.642   3.697
19553W        W86094   8.239  36.571  13.968
19554W        W86095  38.521  28.745  11.642
19555W        W86096  19.589  13.812  12.552
19556W        W86097  13.099  22.510  11.124
19557W        W86098  44.309   2.750   1.997
19558W        W86099   7.336   7.668  11.973
19559W        W86100  12.858   1.936  13.877
19560W        W86101   2.384  37.797   3.855
19561W        W86102   0.735   0.562  11.782
19562W        W86103  12.143  28.571   0.598
19563W        W86104  23.796   9.350  14.948
19564W        W86105   1.368  30.833  14.516
19565W        W86106   3.196   2.977  12.508
19566W        W86107   4.742  39.840   2.364
19567W        W86108   1.963  15.765  14.851
19568W        W86109  38.558  44.962   1.539
19569W        W86110  42.373  17.071  13.772
19570W        W86111  18.121  15.253  12.606
19571W        W86112   1.375  41.090   2.187
19572W        W86113  17.179  10.861  11.753
19573W        W86114   8.298   1.311  10.628
19574W        W86115  11.000  38.527   0.850
19575W        W86116  14.558  34.933   4.355
19576W        W86117  13.719  39.536  13.056
19577W        W86118  30.178   0.456   2.438
19578W        W86119  18.966  24.996   1.248
19579W        W86120  17.053  16.680   1.897
19580W        W86121  36.214  30.982   4.121
19581W        W86122  27.342  25.904  11.236
19582W        W86123  42.924  19.159  11.086
19583W        W86124  36.504  35.543   1.756
19584W        W86125  12.143   3.445  11.989
19585W        W86126  37.795  10.162   9.777
19586W        W86127   6.626  36.978   4.186
19587W        W86128  25.829   9.178   0.377
19588W        W86129   1.983  18.223  11.539
19589W        W86130  22.532  44.021  11.709
19590W        W86131   2.258  41.497  12.087
19591W        W86132  26.018   5.633   2.308
19592W        W86133  22.083  30.057   1.443
19593W        W86134  13.612  32.416   1.352
19594W        W86135  19.746   9.782  13.295
19595W        W86136  23.006  24.802   3.683
19596W        W86137  36.915   2.878   4.577
19597W        W86138  39.300  15.310   1.679
19598W        W86139   0.359   4.687   4.697
19599W        W86140  15.393  26.005   1.015
19600W        W86141   4.798  15.713   2.803
19601W        W86142  11.709   8.781  12.340
19602W        W86143  27.499  15.306  13.894
19603W        W86144  10.285   7.003  10.933
19604W        W86145  32.574  22.737   2.433
19605W        W86146   4.271  24.581   1.124
19606W        W86147  35.571  36.291   0.859
19607W        W86148  18.081  43.907  14.842
19608W        W86149  35.522  16.147   4.451
19609W        W86150  42.764  10.454   1.355
19610W        W86151  29.727  29.567  11.253
19611W        W86152   6.349  19.888   0.094
19612W        W86153  40.154  17.649  13.132
19613W        W86154   7.449  19.703  13.051
19614W        W86155  12.908  30.391   3.309
19615W        W86156  17.314   6.805   4.336
19616W        W86157  17.581   6.379  14.836
19617W        W86158  23.994   9.676  13.040
19618W        W86159  38.215  13.291   3.691
19619W        W86160  25.452  24.659  13.846
19620W        W86161   8.219  18.171   2.858
19621W        W86162  14.131  42.915  13.693
19622W        W86163   2.447  26.803   1.967
19623W        W86164  33.130  38.723   4.799
19624W        W86165   7.473   1.484   2.446
19625W        W86166  19.687   4.501  14.323
19626W        W86167   2.033  20.763   2.490
19627W        W86168   2.643  22.126   2.730
19628W        W86169   7.042  11.541  11.188
19629W        W86170  22.057  11.357  14.710
19630W        W86171  18.212  44.614   4.127
19631W        W86172   5.361  16.623   1.723
19632W        W86173  37.136  24.192   0.837
19633W        W86174   7.040  20.275  11.844
19634W        W86175   4.717  40.256  12.348
19635W        W86176  24.948  18.153   4.695
19636W        W86177   8.565  36.871  10.296
19637W        W86178  26.788  16.094   0.781
19638W        W86179  35.202  35.478  12.770
19639W        W86180  33.033  25.045   1.052
19640W        W86181  14.597  24.098  11.904
19641W        W86182  18.542   1.424  12.963
19642W        W86183  19.599  25.262  12.075
19643W        W86184  14.261  27.191   0.515
19644W        W86185  37.933  37.099   4.791
19645W        W86186  21.365  25.355  10.918
19646W        W86187  16.354   6.168   4.512
19647W        W86188  10.004  31.831  12.453
19648W        W86189  11.161   6.245   1.169
19649W        W86190  35.564  24.467   1.638
19650W        W86191  16.771  17.802  11.166
19651W        W86192  24.085  14.098  10.928
19652W        W86193  39.138  11.286   1.229
19653W        W86194  25.800   7.945  11.097
19654W        W86195  12.339  29.041  13.591
19655W        W86196  19.846  22.824   0.359
19656W        W86197  44.320  26.729  14.273
19657W        W86198   9.673   8.193  14.390
19658W        W86199  36.891  27.549  11.667
19659W        W86200  10.298  19.099  13.887
19660W        W86201   9.982  42.673  13.946
19661W        W86202  20.597  16.807   0.674
19662W        W86203  32.482  21.990  14.084
19663W        W86204  12.345  29.025   0.428
19664W        W86205  17.809  44.927  11.622
19665W        W86206  43.311  29.228   1.481
19666W        W86207  20.366   6.250   1.422
19667W        W86208  42.974  10.223  13.492
19668W        W86209   4.564   2.007  12.905
19669W        W86210  33.525   0.479   5.091
19670W        W86211   8.226  19.377   0.667
19671W        W86212   9.391   9.134  10.486
19672W        W86213  19.377  19.138   4.834
19673W        W86214   2.327  24.971  12.507
19674W        W86215  40.376  23.041   4.594
19675W        W86216  28.607  17.251  12.638
19676W        W86217   5.403  16.348   0.350
19677W        W86218   9.107   4.275  11.115
19678W        W86219  41.513   5.140  13.578
19679W        W86220  14.162  16.252   1.852
19680W        W86221  14.556  28.713   4.545
19681W        W86222  39.183   1.461   3.597
19682W        W86223  22.707  15.180  10.486
19683W        W86224  16.653  20.254   1.933
19684W        W86225  34.872  21.735   3.130
19685W        W86226  34.366   0.007   3.184
19686W        W86227  18.294  33.047  12.828
19687W        W86228  37.629   8.210   3.664
19688W        W86229   7.828  38.278  11.444
19689W        W86230  33.649   5.030   2.799
19690W        W86231  12.079  28.646  13.756
19691W        W86232  36.828  26.635   3.618
19692W        W86233  41.002  15.194  13.361
19693W        W86234  41.339   5.758  11.404
19694W        W86235   4.115  18.260  12.898
19695W        W86236  26.189  19.228   3.496
19696W        W86237   6.730   1.715   1.952
19697W        W86238  24.462  32.433  11.383
19698W        W86239  14.729  21.292   0.019
19699W        W86240   3.376  12.417   0.305
19700W        W86241   6.966  41.871   4.087
19701W        W86242  17.007   0.406   1.666
19702W        W86243  11.135  33.620   3.583
19703W        W86244   6.001  25.550   3.269
19704W        W86245  39.062  34.104   3.916
19705W        W86246  13.602  35.868  12.556
19706W        W86247  36.546  35.831   0.780
19707W        W86248  39.017  25.731   0.858
19708W        W86249  36.147  25.624  11.658
19709W        W86250  23.549  13.381  14.395
19710W        W86251  17.540  24.470  12.423
19711W        W86252  34.978  24.301   2.564
19712W        W86253  36.801  22.585  12.529
19713W        W86254  12.367  37.134   2.202
19714W        W86255   0.997   8.857   3.686
19715W        W86256  44.698  38.591  12.978
19716W        W86257  40.300   6.256   4.673
19717W        W86258  14.658  19.025  12.926
19718W        W86259  23.570   4.273   1.355
19719W        W86260   1.345  34.334   3.463
19720W        W86261  41.388   8.912  11.626
19721W        W86262  19.561  30.635  12.563
19722W        W86263   4.469  39.124  14.891
19723W        W86264   1.100   4.626   3.669
19724W        W86265  19.357  18.689   3.775
19725W        W86266  43.708   3.932  14.713
19726W        W86267  40.128  25.612  13.372
19727W        W86268  22.595  11.849  12.544
19728W        W86269  16.157  18.135   0.319
19729W        W86270  38.405  19.115  10.748
19730W        W86271  27.045  32.435  14.251
19731W        W86272  12.389  22.185   3.165
19732W        W86273  29.497  38.771   3.255
19733W        W86274  11.087  40.006  12.237
19734W        W86275   2.942  33.013   0.527
19735W        W86276  11.414  36.980  12.566
19736W        W86277  17.118  26.713  14.942
19737W        W86278  40.980  40.758   4.154
19738W        W86279   0.140  19.719  12.431
19739W        W86280  18.336  30.145   0.301
19740W        W86281  16.003  17.255   0.934
19741W        W86282   3.108  11.377  11.191
19742W        W86283  24.589   0.713  14.405
19743W        W86284   6.760  22.507   1.827
19744W        W86285   8.651   6.094   0.833
19745W        W86286   9.864  20.801  14.885
19746W        W86287  13.910  40.746  14.498
19747W        W86288  30.987  40.017  14.535
19748W        W86289  19.632  23.003   0.797
19749W        W86290  28.289  12.028   3.721
19750W        W86291  31.951  37.552  13.606
19751W        W86292  21.774  15.377  10.593
19752W        W86293  17.368  28.884  11.096
19753W        W86294   5.861  12.070  11.138
19754W        W86295  14.486  35.361   2.163
19755W        W86296   7.241  20.225  14.752
19756W        W86297   1.108  42.236   1.210
19757W        W86298   2.782   0.498   3.453
19758W        W86299  15.784  15.665   2.767
19759W        W86300  31.817  13.906   0.281
19760W        W86301   4.291  11.521  11.517
19761W        W86302  19.711  25.123   2.273
19762W        W86303  31.742  30.587   2.724
19763W        W86304  44.688   2.602  10.679
19764W        W86305  20.663  34.308  11.578
19765W        W86306  40.506  44.134  13.004
19766W        W86307   6.323   1.038  12.642
19767W        W86308  25.742  32.108   1.008
19768W        W86309  15.186  39.327   0.768
19769W        W86310  20.713  16.044  13.490
19770W        W86311  18.544  22.860   1.233
19771W        W86312   5.902  25.806  14.419
19772W        W86313  19.990   9.900  12.844
19773W        W86314  30.333  21.202   4.130
19774W        W86315  13.435  19.812  10.538
19775W        W86316  10.178  18.748   4.599
19776W        W86317  32.327  17.092   1.137
19777W        W86318  35.995  14.194  14.543
19778W        W86319  19.728   4.726  11.671
19779W        W86320  16.609  40.470  11.992
19780W        W86321   0.331  14.159  14.495
19781W        W86322  22.671  41.357  13.145
19782W        W86323   5.364  36.979   2.310
19783W        W86324   7.125  37.913   1.826
19784W        W86325   3.349  21.259   4.240
19785W        W86326  20.562   7.851   0.941
19786W        W86327  17.849  42.511  12.415
19787W        W86328  21.140   8.277  10.895
19788W        W86329  32.533  13.821  11.264
19789W        W86330  34.524  41.887   0.263
19790W        W86331  15.241  44.421  14.029
19791W        W86332   2.746  42.972   4.798
19792W        W86333   6.230  40.386   3.605
19793W        W86334  42.049   6.477   2.564
19794W        W86335  13.856  17.711   2.340
19795W        W86336  35.769   4.387   4.598
19796W        W86337  28.481  10.215   2.695
19797W        W86338  11.818   4.913   2.889
19798W        W86339   4.375  23.492   5.388
19799W        W86340  26.801  26.581  14.926
19800W        W86341   1.296  42.412  11.078
19801W        W86342  15.189  42.985  14.253
19802W        W86343   8.730  30.506   1.472
19803W        W86344   0.235  43.920  12.086
19804W        W86345  11.663  31.931   0.411
19805W        W86346  44.329  13.128   0.379
19806W        W86347  14.545   1.756   2.096
19807W        W86348  42.456  30.906  12.729
19808W        W86349  33.524  32.500  11.577
19809W        W86350   9.424  38.802  12.293
19810W        W86351  29.356  33.807  12.114
19811W        W86352   0.869   0.523   1.355
19812W        W86353   2.727  18.823  11.032
19813W        W86354  24.021  41.531   0.901
19814W        W86355  18.509  25.075  10.485
19815W        W86356  39.103   3.446   3.666
19816W        W86357  34.767  19.192   3.988
19817W        W86358  18.693  44.324   5.337
19818W        W86359  13.037  38.952   1.882
19819W        W86360  44.346  11.825   1.285
19820W        W86361  20.153  17.234  11.570
19821W        W86362  22.588  28.674  14.292
19822W        W86363  38.193  31.286  14.781
19823W        W86364   6.091   5.867   2.754
19824W        W86365  11.913  16.962  11.435
19825W        W86366  32.645  27.748   0.352
19826W        W86367   6.259   0.284   0.533
19827W        W86368   8.456  41.290   3.195
19828W        W86369  35.104  25.387   4.469
19829W        W86370   5.936  15.038   0.126
19830W        W86371   6.945  26.681   2.452
19831W        W86372  16.621  39.373  13.567
19832W        W86373  40.050  11.889   4.950
19833W        W86374  38.753   3.162  12.904
19834W        W86375   1.478   2.382  13.101
19835W        W86376  35.970  32.035   2.664
19836W        W86377  21.482  16.758   0.229
19837W        W86378  19.704  35.040   4.597
19838W        W86379  41.828  43.066   1.756
19839W        W86380   1.706  11.645  12.552
19840W        W86381  42.595   7.456   3.650
19841W        W86382  35.605   5.753   0.508
19842W        W86383  42.980  17.635  14.180
19843W        W86384  43.637  41.128   4.606
19844W        W86385   9.969   8.803  13.004
19845W        W86386   8.198  29.274   1.959
19846W        W86387  42.505  13.549  12.676
19847W        W86388  29.480  20.256  10.767
19848W        W86389   3.150  16.888  12.434
19849W        W86390  20.288  43.953  11.149
19850W        W86391  13.554  21.604   1.297
19851W        W86392  43.236  12.666   1.783
19852W        W86393  29.935   0.663   1.413
19853W        W86394   0.769   1.572  13.903
19854W        W86395  42.122  39.207   1.179
19855W        W86396  35.643  10.735   0.922
19856W        W86397  22.512  20.119   0.655
19857W        W86398  39.949   7.167  13.568
19858W        W86399   4.817   8.459   2.560
19859W        W86400   6.935   6.303  11.102
19860W        W86401   4.900  26.364   3.538
19861W        W86402  18.412   2.800   4.334
19862W        W86403  36.399   8.139   2.222
19863W        W86404  15.791  25.080   4.514
19864W        W86405   7.718  25.949   4.998
19865W        W86406  23.475  43.407  13.473
19866W        W86407  32.572  25.081   0.775
19867W        W86408  36.475  15.036  13.050
19868W        W86409  41.514  25.470  10.533
19869W        W86410  11.836  27.769  13.433
19870W        W86411  32.044  24.147   5.036
19871W        W86412  34.981  13.891   2.312
19872W        W86413  13.929   3.672   0.857
19873W        W86414   9.848  10.412   0.804
19874W        W86415  24.309  33.845   3.699
19875W        W86416   0.493   3.702  12.930
19876W        W86417  19.196  35.554   3.266
19877W        W86418  31.997  34.449  12.085
19878W        W86419  31.389  17.600  13.575
19879W        W86420   1.597   6.344  11.137
19880W        W86421  15.581  19.783  13.411
19881W        W86422   8.194  41.903   1.470
19882W        W86423   5.085  29.164   0.831
19883W        W86424  10.770  23.259   3.821
19884W        W86425   4.895  24.058  11.310
19885W        W86426  19.310  12.446   4.903
19886W        W86427  27.603  26.154  14.456
19887W        W86428  12.163  16.986   1.422
19888W        W86429  34.807  31.421  12.134
19889W        W86430  11.607  26.542  11.667
19890W        W86431  40.984   6.098  11.563
19891W        W86432   0.533  10.208   2.786
19892W        W86433  19.641   2.759   2.382
19893W        W86434   3.181  15.861   1.657
19894W        W86435  20.278   2.074  13.330
19895W        W86436   4.918   0.592   0.493
19896W        W86437  13.535   5.804   2.695
19897W        W86438  14.995  17.888  14.833
19898W        W86439  33.100  32.216   0.258
19899W        W86440   0.383  17.295   1.438
19900W        W86441   3.983  38.493  12.124
19901W        W86442  39.246  13.217   1.495
19902W        W86443  29.658  26.763   0.220
19903W        W86444  25.705   9.193  12.086
19904W        W86445  33.513   3.720  14.470
19905W        W86446  33.427   8.672   4.546
19906W        W86447   2.132  39.967   3.781
19907W        W86448   2.427  12.805  11.056
19908W        W86449  24.100  44.764   3.393
19909W        W86450  22.750  40.059   3.822
19910W        W86451   5.242  35.414  14.724
19911W        W86452   2.489  41.985  12.264
19912W        W86453  23.612  44.955   3.341
19913W        W86454  17.363  31.059  13.312
19914W        W86455   1.081  16.632   2.791
19915W        W86456  31.595  40.708  14.986
19916W        W86457  33.094  21.676   1.023
19917W        W86458  13.249   4.928   4.380
19918W        W86459  19.063   5.431   2.601
19919W        W86460  21.874  19.842   0.309
19920W        W86461  29.017  21.194  14.907
19921W        W86462  26.549  20.039  12.575
19922W        W86463  36.361  18.523   1.641
19923W        W86464  13.837   4.525   0.491
19924W        W86465  23.704  43.968   4.819
19925W        W86466  30.082  19.755   2.322
19926W        W86467  37.475  39.906  13.524
19927W        W86468  14.624  17.088   2.413
19928W        W86469  24.490   4.011   2.125
19929W        W86470  12.631   1.180   1.323
19930W        W86471  28.949  10.861  14.670
19931W        W86472  34.989  16.710  10.595
19932W        W86473  33.620  44.924  11.764
19933W        W86474   2.819  17.684   2.315
19934W        W86475   7.507   6.644  10.165
19935W        W86476  17.349   7.081  13.894
19936W        W86477   1.243  30.872  11.425
19937W        W86478   6.178  28.400  14.511
19938W        W86479   4.455  21.375  12.932
19939W        W86480   9.350   8.312  14.782
19940W        W86481  42.249  15.829   1.237
19941W        W86482  44.748   8.601   3.129
19942W        W86483  44.414  28.150  12.505
19943W        W86484  26.315  44.368   2.642
19944W        W86485  34.020  16.379   1.815
19945W        W86486  31.143  21.282   3.805
19946W        W86487  11.408  21.213   4.727
19947W        W86488  33.915   8.866  14.459
19948W        W86489  33.077  23.714  11.521
19949W        W86490   9.621  12.737   4.694
19950W        W86491  16.351  32.362  13.063
19951W        W86492  17.545  39.619  13.903
19952W        W86493  38.425  20.288   3.715
19953W        W86494   4.796  12.221   3.331
19954W        W86495  43.972  14.957   5.764
19955W        W86496   8.785  26.062   2.769
19956W        W86497  22.254  25.535   3.228
19957W        W86498   7.766  43.576  11.569
19958W        W86499   6.758  27.996   1.852
19959W        W86500  39.076  36.852   2.306
19960W        W86501  32.092  36.877   0.636
19961W        W86502  10.697  31.395   0.971
19962W        W86503  21.775  22.242   3.653
19963W        W86504  12.290  34.908  10.944
19964W        W86505   5.265  35.700  11.963
19965W        W86506  40.971  11.850   3.543
19966W        W86507  15.353   5.727   2.393
19967W        W86508  24.106  40.054   0.280
19968W        W86509  13.569  15.877  14.444
19969W        W86510  31.985  19.207  14.497
19970W        W86511  33.029  23.163   3.180
19971W        W86512  34.611   5.263  14.336
19972W        W86513  42.346  28.918   4.601
19973W        W86514  12.847   8.723   0.827
19974W        W86515  12.670  11.051  11.467
19975W        W86516   5.166  40.127   2.207
19976W        W86517  36.934  23.152  12.033
19977W        W86518  16.723  44.017  13.450
19978W        W86519  29.633  20.441   1.994
19979W        W86520  19.677  29.058   0.379
19980W        W86521  19.528   8.879  13.999
19981W        W86522   8.360  32.592   3.705
19982W        W86523  32.882  19.752   4.955
19983W        W86524  41.097  20.231   3.237
19984W        W86525  17.370  31.425   2.450
19985W        W86526  22.352  26.244   3.720
19986W        W86527  44.763  11.859  13.340
19987W        W86528   1.801  25.067   2.626
19988W        W86529   7.311  40.247   1.281
19989W        W86530   6.346   5.964  12.361
19990W        W86531  14.864  39.752   0.911
19991W        W86532  29.081  13.959   4.483
19992W        W86533  16.638  21.431  12.915
19993W        W86534  27.206   6.179  12.547
19994W        W86535  24.959  39.512  11.584
19995W        W86536   2.713   8.878  11.449
19996W        W86537  18.049  30.595   0.091
19997W        W86538   2.325  15.439   3.698
19998W        W86539   0.414  13.770   2.892
19999W        W86540  30.916   6.372   1.799
20000W        W86541  41.610   6.124   5.028
20001W        W86542  40.860  23.168  12.829
20002W        W86543   6.885  37.181  12.473
20003W        W86544  20.849   6.417  13.786
20004W        W86545  14.214  33.359   2.142
20005W        W86546  42.018  35.459  11.054
20006W        W86547  25.752  36.926   4.188
20007W        W86548  10.692  13.157  14.437
20008W        W86549  32.064  27.079  14.574
20009W        W86550  33.530  20.094   2.406
20010W        W86551  30.111  19.315   3.293
20011W        W86552  26.096  20.490  13.317
20012W        W86553  17.013  35.794   2.853
20013W        W86554  26.912  31.737   4.367
20014W        W86555  23.056  11.726  12.327
20015W        W86556  27.443   8.088  12.587
20016W        W86557  38.397   3.698  13.531
20017W        W86558  36.599  31.471  11.577
20018W        W86559  21.641  23.978   2.757
20019W        W86560   0.742  19.887   2.179
20020W        W86561  26.212   2.546  14.315
20021W        W86562  15.859  32.025  11.543
20022W        W86563  12.226  25.152  12.893
20023W        W86564  21.134  29.358  10.930
20024W        W86565  33.715   9.502   1.688
20025W        W86566  10.690  39.809  11.999
20026W        W86567  13.825  15.170  12.399
20027W        W86568   8.101   1.362  13.415
20028W        W86569  21.834  43.332   4.103
20029W        W86570  29.727  13.253   0.829
20030W        W86571  24.037  27.518   4.887
20031W        W86572  18.021  23.690   0.287
20032W        W86573  35.786  30.551  13.983
20033W        W86574  44.226  29.060   3.948
20034W        W86575   0.135  18.992   0.928
20035W        W86576  31.878  16.012   3.659
20036W        W86577  26.038  11.700   0.929
20037W        W86578  24.137   1.471   0.885
20038W        W86579  22.792  32.124   2.799
20039W        W86580  28.424  26.707   0.271
20040W        W86581   9.970  36.459  12.628
20041W        W86582  17.130   3.440  11.099
20042W        W86583   3.189  26.708   4.504
20043W        W86584   5.754  29.865  12.407
20044W        W86585  13.428  43.897   0.238
20045W        W86586  16.639   3.711  13.916
20046W        W86587   6.888  42.255   3.716
20047W        W86588  41.219  39.416   2.882
20048W        W86589  13.269  12.998   3.696
20049W        W86590   5.664  38.926   1.994
20050W        W86591   2.482  32.408   3.058
20051W        W86592  19.117   6.559   3.591
20052W        W86593   7.614  17.086   4.693
20053W        W86594   6.879   0.990   4.437
20054W        W86595  31.496  34.494   0.941
20055W        W86596  27.657   2.874  13.794
20056W        W86597  22.547  44.755  14.767
20057W        W86598  29.128  25.891   0.390
20058W        W86599   5.061  32.511  10.940
20059W        W86600  15.694   7.825   4.355
20060W        W86601  44.462  29.342  13.439
20061W        W86602  37.450  36.995   4.629
20062W        W86603  13.565  27.692   2.632
20063W        W86604  27.195  42.493  11.672
20064W        W86605   7.327  43.977   3.144
20065W        W86606   6.918  20.198  12.322
20066W        W86607  38.778   5.444   2.685
20067W        W86608  43.081   1.082   2.754
20068W        W86609  16.602  27.453  13.235
20069W        W86610  24.684  40.411  12.396
20070W        W86611  30.054  13.839  11.707
20071W        W86612  34.316  14.685   1.383
20072W        W86613  21.523  26.559  12.994
20073W        W86614  24.890  44.981  14.791
20074W        W86615  13.051  40.333   1.745
20075W        W86616  37.172  29.837   1.026
20076W        W86617   6.741  29.662   4.047
20077W        W86618  27.144  34.225  12.105
20078W        W86619  31.777  43.766  11.483
20079W        W86620  15.562  18.447  14.381
20080W        W86621  32.214   0.432  12.163
20081W        W86622  30.507  11.688   9.818
20082W        W86623  25.139  21.501  14.346
20083W        W86624  21.524  25.966   4.278
20084W        W86625  21.384   9.117  11.553
20085W        W86626  27.994  42.765   2.987
20086W        W86627  12.771   7.907  11.103
20087W        W86628  11.508  14.920  11.677
20088W        W86629  11.367  15.821  10.280
20089W        W86630  12.328  40.456  12.346
20090W        W86631  27.930  25.141   1.668
20091W        W86632  43.201  16.551  14.325
20092W        W86633  34.748  24.940  13.848
20093W        W86634  29.022  12.184   4.807
20094W        W86635  15.107   3.002  14.210
20095W        W86636  39.212  41.236  12.526
20096W        W86637  36.542  20.299   0.389
20097W        W86638  44.377  27.147   2.086
20098W        W86639  44.998  16.116  14.366
20099W        W86640   6.563  26.293   3.500
20100W        W86641  28.166   3.669  14.328
20101W        W86642  16.821  31.581   2.199
20102W        W86643   5.304  28.545   3.292
20103W        W86644  17.353   0.272   0.281
20104W        W86645  14.940  10.309   2.804
20105W        W86646  17.305  42.089  13.855
20106W        W86647  11.829  39.927  10.201
20107W        W86648  26.771  27.925  13.852
20108W        W86649  23.241  19.157   3.789
20109W        W86650  16.766  19.605  14.340
20110W        W86651  21.613  28.433  10.784
20111W        W86652  21.693   1.538  10.808
20112W        W86653  11.625  30.786  12.799
20113W        W86654  40.202  30.626  10.380
20114W        W86655   3.806  13.755   3.299
20115W        W86656  13.171  10.086   2.757
20116W        W86657  29.609  13.539  14.430
20117W        W86658  30.727  44.764   0.927
20118W        W86659  14.176  14.310  10.777
20119W        W86660  16.799  33.655  14.433
20120W        W86661   5.113  14.325   1.819
20121W        W86662  37.988  13.870   0.318
20122W        W86663  19.185  16.454   5.020
20123W        W86664   7.352  16.131  12.103
20124W        W86665  18.987  36.600   4.033
20125W        W86666  30.777  23.222   1.238
20126W        W86667  16.659  27.477   2.422
20127W        W86668  16.073  37.637   3.301
20128W        W86669  16.247  31.998   2.009
20129W        W86670  26.526   5.078   4.114
20130W        W86671  20.535   3.849  13.792
20131W        W86672   3.152  42.459   0.203
20132W        W86673  29.482  43.567  10.411
20133W        W86674  29.381   6.692   0.342
20134W        W86675   0.156  39.445   0.496
20135W        W86676  15.539  25.656   3.252
20136W        W86677   0.446   1.725  11.378
20137W        W86678  20.213  21.503   2.897
20138W        W86679   8.735  44.518   0.259
20139W        W86680  21.955   7.224   0.126
20140W        W86681  34.165  19.713  10.555
20141W        W86682   9.773   1.729   3.774
20142W        W86683  32.481   7.235   4.068
20143W        W86684  14.972   4.438   2.174
20144W        W86685  31.415  15.680   1.467
20145W        W86686  12.561  40.421   0.043
20146W        W86687  34.102  30.713   0.299
20147W        W86688  13.595  35.949   2.859
20148W        W86689  39.199   8.783  10.721
20149W        W86690  21.727  14.238   1.802
20150W        W86691   7.617  10.365   0.345
20151W        W86692   7.206  14.815   0.315
20152W        W86693  25.653  17.799   1.408
20153W        W86694  12.200  10.449   1.669
20154W        W86695  41.990  11.430  12.067
20155W        W86696   3.741   9.792  12.492
20156W        W86697  31.884  44.835   2.351
20157W        W86698  24.030  33.114   1.076
20158W        W86699  19.072  30.721  12.913
20159W        W86700  31.995  27.541   4.805
20160W        W86701  14.154  18.140  14.405
20161W        W86702   8.771  16.505   4.228
20162W        W86703   7.541  27.870   0.468
20163W        W86704  12.063  40.235   1.932
20164W        W86705   5.236  15.281  13.967
20165W        W86706  14.401  28.394  11.185
20166W        W86707  15.205   9.678  14.250
20167W        W86708  31.637  42.450   4.187
20168W        W86709  10.611  12.279  13.119
20169W        W86710  22.038  13.098  11.219
20170W        W86711   3.085  39.118  12.129
20171W        W86712   0.707  11.154  10.652
20172W        W86713  22.850  26.495   4.400
20173W        W86714  37.034  14.224   3.247
20174W        W86715  38.960   4.885   4.032
20175W        W86716   7.107   7.251  10.979
20176W        W86717  10.597  19.025   4.157
20177W        W86718  32.347   3.596   4.582
20178W        W86719  23.633  25.371   2.846
20179W        W86720  44.454  15.731  14.823
20180W        W86721  13.281  16.755  14.534
20181W        W86722  44.740  33.056  13.355
20182W        W86723  33.202  34.434   0.574
20183W        W86724   4.943   3.431  14.333
20184W        W86725  36.476  15.739   1.012
20185W        W86726   8.112  10.642  14.195
20186W        W86727   1.724   6.482   2.596
20187W        W86728  29.423  19.781  14.793
20188W        W86729  36.915  16.833  12.574
20189W        W86730   5.354  18.336   5.022
20190W        W86731  24.006   9.141  12.820
20191W        W86732  11.213   6.744   0.958
20192W        W86733  41.873  12.330  14.461
20193W        W86734   9.454   8.817  11.251
20194W        W86735  30.845  23.722   1.212
20195W        W86736  24.072  16.800   1.045
20196W        W86737   2.532  15.958  13.718
20197W        W86738  37.025   9.881   0.982
20198W        W86739  37.131  27.724  11.235
20199W        W86740  41.814  15.118  13.959
20200W        W86741  17.063   1.389  14.048
20201W        W86742   9.276  13.572  11.084
20202W        W86743   2.808  42.687   1.686
20203W        W86744  20.602   4.593  14.308
20204W        W86745  15.457  12.739   4.881
20205W        W86746   7.386   4.447  14.855
20206W        W86747  28.853   7.700   1.334
20207W        W86748   1.649  30.159  10.257
20208W        W86749  24.072  26.610  13.921
20209W        W86750  17.551  30.536  11.599
20210W        W86751  30.728   9.344   2.211
20211W        W86752   1.363  26.646   3.310
20212W        W86753  26.258  35.969  14.894
20213W        W86754  16.049  37.274   4.122
20214W        W86755  29.341   4.485   2.270
20215W        W86756  27.622  32.896   1.858
20216W        W86757   1.441  18.577   3.852
20217W        W86758  44.665   4.353   0.874
20218W        W86759  37.841  44.494   1.875
20219W        W86760  31.701  32.015   2.271
20220W        W86761  27.206   9.364   1.821
20221W        W86762  18.852  33.029   4.767
20222W        W86763  43.246   3.305  11.708
20223W        W86764  34.771   9.085  13.350
20224W        W86765  41.628   2.011   3.233
20225W        W86766  14.147  13.604  11.596
20226W        W86767   1.546  36.621  11.881
20227W        W86768  37.584  35.642   3.681
20228W        W86769  15.234   4.202   1.180
20229W        W86770  28.019   1.884   3.926
20230W        W86771   3.791  42.953   2.739
20231W        W86772  13.963  24.820   4.530
20232W        W86773  26.181  29.047  11.429
20233W        W86774  11.782  38.624   5.005
20234W        W86775   7.662  12.207  12.409
20235W        W86776  25.164   7.651   3.458
20236W        W86777  31.726  31.717   0.846
20237W        W86778  10.218  41.735   1.878
20238W        W86779   1.282  26.862  12.361
20239W        W86780  31.446  12.782   3.232
20240W        W86781  40.374   0.557  11.336
20241W        W86782   9.415   8.410   0.279
20242W        W86783  44.727  13.024  11.949
20243W        W86784  24.862  19.482  12.731
20244W        W86785  34.197   7.717  13.980
20245W        W86786  14.208  18.093   0.418
20246W        W86787  33.437  33.959   0.683
20247W        W86788   8.932  34.437   0.341
20248W        W86789  36.472  15.566  10.607
20249W        W86790   9.456   8.736   4.056
20250W        W86791  16.244  29.633   2.347
20251W        W86792  24.415  16.602   2.665
20252W        W86793  43.064   9.801   2.349
20253W        W86794   8.105  30.032  10.057
20254W        W86795  17.844   7.864   2.382
20255W        W86796  16.339   8.798  12.459
20256W        W86797   1.223   4.271   3.299
20257W        W86798  31.820  17.437   1.661
20258W        W86799  40.436   6.366  10.523
20259W        W86800  13.745  36.027   0.890
20260W        W86801   4.425  27.168  10.699
20261W        W86802  35.599  25.626   0.829
20262W        W86803  27.025   8.271   2.645
20263W        W86804  31.783   0.728   4.148
20264W        W86805  28.505  25.647  14.546
20265W        W86806  14.569  41.774  12.093
20266W        W86807  12.807  42.110   3.958
20267W        W86808  36.637  28.003  11.817
20268W        W86809  34.367  40.073   1.827
20269W        W86810   1.686   7.350   1.008
20270W        W86811  16.335  34.777   0.125
20271W        W86812  29.542  27.650  12.449
20272W        W86813  42.024  43.796   1.361
20273W        W86814  24.995  14.159   0.778
20274W        W86815  35.897  21.602  11.924
20275W        W86816  11.600  12.069  13.008
20276W        W86817  37.347  25.579  12.984
20277W        W86818  38.442   7.357  12.535
20278W        W86819   3.778   6.392   0.302
20279W        W86820  14.755  39.561   2.321
20280W        W86821  28.444  10.891  13.007
20281W        W86822  36.340  17.131   2.699
20282W        W86823  12.722  11.919  13.952
20283W        W86824  19.352  39.556   4.177
20284W        W86825  41.796   7.322   4.189
20285W        W86826  40.063  10.321  13.948
20286W        W86827   8.399  36.432   4.230
20287W        W86828  28.968  39.809   1.350
20288W        W86829  15.347  31.693  10.675
20289W        W86830  17.205  30.441   4.590
20290W        W86831  43.384  24.970  13.379
20291W        W86832  33.112   4.516  13.317
20292W        W86833   6.264  38.507  10.119
20293W        W86834  12.128   6.505   0.878
20294W        W86835  28.871  43.974   1.492
20295W        W86836   5.332   3.217   1.282
20296W        W86837  20.422   1.402  12.116
20297W        W86838  36.178  38.653   4.190
20298W        W86839   1.378  26.621   2.774
20299W        W86840  12.133  40.809  13.689
20300W        W86841  19.296   8.289  13.067
20301W        W86842   0.052  24.084   5.018
20302W        W86843  39.065  12.801   2.702
20303W        W86844  19.125  33.067   0.259
20304W        W86845  42.349  23.082   4.643
20305W        W86846  11.151  17.044  14.452
20306W        W86847  22.996  12.854  13.849
20307W        W86848   7.421  32.847  11.299
20308W        W86849   8.414  29.490  10.909
20309W        W86850  23.301  44.059  12.857
20310W        W86851  40.772  20.631   0.989
20311W        W86852   3.776  37.153  11.537
20312W        W86853  43.730  41.006   2.203
20313W        W86854  21.102  27.301  11.659
20314W        W86855   0.396  30.647   0.014
20315W        W86856   8.749  34.625   1.734
20316W        W86857  34.614  38.177   4.311
20317W        W86858  17.679   4.586   0.497
20318W        W86859   5.188   6.382  11.054
20319W        W86860  40.504  36.151  12.122
20320W        W86861  31.342  19.045  11.059
20321W        W86862   0.606  27.082   2.733
20322W        W86863  34.633   9.023   0.967
20323W        W86864   0.023  34.063  13.973
20324W        W86865   5.902   9.360   2.923
20325W        W86866   1.019  16.111  11.093
20326W        W86867  13.764   9.694  13.903
20327W        W86868  25.961  24.700   1.822
20328W        W86869   8.338  20.697   1.519
20329W        W86870  25.419  26.193   5.232
20330W        W86871   2.908   4.697  14.776
20331W        W86872   0.330  15.656   3.252
20332W        W86873  32.279   5.338  10.684
20333W        W86874  43.898  27.691   2.225
20334W        W86875  31.674   6.359  14.140
20335W        W86876  18.292  25.195   1.809
20336W        W86877  21.555  32.974  13.381
20337W        W86878  32.023  19.619   4.924
20338W        W86879  13.190  40.839   1.869
20339W        W86880  12.198  42.776   1.016
20340W        W86881  10.710  26.622  10.725
20341W        W86882  22.036   1.504   4.892
20342W        W86883   2.422  15.731  11.135
20343W        W86884  38.057  43.875   4.449
20344W        W86885  14.697  39.466  14.549
20345W        W86886  27.432   5.927  13.562
20346W        W86887  37.872   8.665   3.649
20347W        W86888  31.493  10.329   4.250
20348W        W86889  35.916   9.805   3.957
20349W        W86890  14.232  38.007  13.428
20350W        W86891   5.285   6.685  10.642
20351W        W86892   5.442  41.444  11.542
20352W        W86893  17.775  19.518  14.297
20353W        W86894  15.152   7.296  14.790
20354W        W86895  35.494  33.340  14.470
20355W        W86896  25.070  36.243  11.056
20356W        W86897  44.369  43.795  11.926
20357W        W86898  26.988  11.774   0.840
20358W        W86899   1.788  25.762   3.228
20359W        W86900   3.659  13.251   2.671
20360W        W86901  25.423  14.420  11.127
20361W        W86902  24.010  32.971  12.779
20362W        W86903  18.478  14.027  13.487
20363W        W86904  15.144  34.124  14.683
20364W        W86905  37.390  33.504  14.360
20365W        W86906  32.916  16.228  12.451
20366W        W86907  24.783  20.984  13.041
20367W        W86908  10.720  40.114  11.537
20368W        W86909  31.604  15.139   1.168
20369W        W86910  26.369  10.204  12.017
20370W        W86911  42.292  34.637   0.702
20371W        W86912   7.038  44.875   3.618
20372W        W86913  40.851  42.483   2.349
20373W        W86914  23.034  16.379   4.529
20374W        W86915  11.281  39.488   4.118
20375W        W86916  32.597  13.849  12.586
20376W        W86917   4.281  17.877   4.301
20377W        W86918  39.663  10.639   0.407
20378W        W86919  27.487  24.765  14.774
20379W        W86920  37.976  21.132  11.074
20380W        W86921  24.543  30.681   3.188
20381W        W86922   8.381  32.046   3.721
20382W        W86923  13.942  10.818  11.960
20383W        W86924  18.364  40.009   2.408
20384W        W86925  10.840  11.215   4.607
20385W        W86926  44.481   0.746  11.273
20386W        W86927  38.832  17.156  14.464
20387W        W86928  36.951  34.143  14.246
20388W        W86929  26.101  24.137  13.234
20389W        W86930  30.966  38.399  12.365
20390W        W86931  20.558   5.507  14.712
20391W        W86932  26.824  28.917  13.881
20392W        W86933   0.441   7.416   2.463
20393W        W86934  17.195   0.076   0.755
20394W        W86935  23.246  26.084  12.161
20395W        W86936  29.707  33.096  13.303
20396W        W86937  20.764   5.892   0.650
20397W        W86938   4.978  44.964  11.493
20398W        W86939   1.870  36.087   3.799
20399W        W86940  37.170   6.917  10.800
20400W        W86941   2.976   7.201  13.128
20401W        W86942  40.626  38.906  13.516
20402W        W86943   7.945  42.389   1.919
20403W        W86944   0.704  39.890  11.227
20404W        W86945  20.563  41.059  12.114
20405W        W86946   0.194   2.994  14.918
20406W        W86947  16.114  39.701   1.225
20407W        W86948   9.124  43.958   1.142
20408W        W86949  34.385   6.414  13.615
20409W        W86950   0.321   5.148   1.653
20410W        W86951  18.242  14.127   0.273
20411W        W86952   5.692  32.053   0.228
20412W        W86953   9.834  35.739  13.795
20413W        W86954  33.853  19.678  12.968
20414W        W86955  20.491  28.479   2.214
20415W        W86956   0.312  13.238   2.798
20416W        W86957  41.562  39.973  13.246
20417W        W86958  42.992  25.262  10.669
20418W        W86959   9.304  10.877   0.476
20419W        W86960  37.607  11.780  14.357
20420W        W86961  21.472  18.268  14.023
20421W        W86962  14.739  25.919   2.737
20422W        W86963  34.403  34.714  14.106
20423W        W86964  44.795  20.241  12.198
20424W        W86965   5.928  32.920   0.757
20425W        W86966  32.466  29.432   1.838
20426W        W86967  11.131  23.236  14.657
20427W        W86968  37.857  22.623  10.723
20428W        W86969  19.351  40.486   1.232
20429W        W86970  37.962  15.694   1.081
20430W        W86971  32.764  24.498  14.581
20431W        W86972   5.510   8.702  14.477
20432W        W86973  15.964   5.865  10.375
20433W        W86974  21.292  12.530  13.114
20434W        W86975  38.878  37.141  14.045
20435W        W86976  30.072  20.929   1.697
20436W        W86977  39.962  11.618   0.324
20437W        W86978  24.636  15.050   2.431
20438W        W86979   2.287  33.133   1.244
20439W        W86980  24.285  29.141   4.106
20440W        W86981  43.718   0.174   2.357
20441W        W86982  35.873  40.014  13.421
20442W        W86983  21.467  22.599   3.838
20443W        W86984   8.674  36.837   2.929
20444W        W86985  33.308   1.936   3.442
20445W        W86986  22.434  40.194   4.630
20446W        W86987  30.495   4.531  14.373
20447W        W86988   4.239  24.289  14.755
20448W        W86989  37.297  15.889  14.434
20449W        W86990  35.398  36.599   3.060
20450W        W86991  40.274  34.473   2.356
20451W        W86992   7.776  42.791   1.217
20452W        W86993  21.123  21.748  14.303
20453W        W86994  44.465   6.844   5.101
20454W        W86995  44.665   4.333  14.965
20455W        W86996  34.878  32.913  13.006
20456W        W86997   9.370  37.089  11.581
20457W        W86998  11.577   0.378   4.435
20458W        W86999   5.366   1.033  13.424
20459W        W87000  15.526  33.950  11.417
20460W        W87001  34.816  43.976   0.725
20461W        W87002  31.008   6.110   2.236
20462W        W87003  22.837  13.919   2.587
20463W        W87004  18.637   6.324   3.604
20464W        W87005  14.389  23.573  12.014
20465W        W87006  39.371   4.423  12.927
20466W        W87007  17.551   4.699  13.988
20467W        W87008  34.696   1.512  13.885
20468W        W87009  35.415   9.461  13.816
20469W        W87010  21.726   1.747   1.829
20470W        W87011  15.793  10.834  14.439
20471W        W87012  41.937  31.215  11.980
20472W        W87013  35.201   9.885   4.508
20473W        W87014  27.540  10.796  11.736
20474W        W87015  25.138  43.185   0.752
20475W        W87016  31.394   3.210  10.813
20476W        W87017  21.672   9.259   4.139
20477W        W87018  24.632   7.382  12.605
20478W        W87019  13.106   9.155  10.711
20479W        W87020   1.673  28.651  10.442
20480W        W87021  24.106  35.597  14.586
20481W        W87022  30.906  16.246  12.428
20482W        W87023   9.405  21.440   3.340
20483W        W87024  38.062  34.017   3.071
20484W        W87025  42.703  30.928   4.104
20485W        W87026   8.879  35.912  13.761
20486W        W87027   9.185  36.759   4.095
20487W        W87028  28.208  24.998   4.964
20488W        W87029   5.582  29.129   0.766
20489W        W87030  38.007  24.195   1.635
20490W        W87031  44.613   4.872  13.961
20491W        W87032  17.662  17.571   1.855
20492W        W87033   6.661   9.879   4.103
20493W        W87034  10.661  31.834  12.186
20494W        W87035  30.144  26.451   1.381
20495W        W87036  33.946  34.936  10.491
20496W        W87037  18.611  11.257   2.693
20497W        W87038  25.058  18.354   3.564
20498W        W87039  15.195  19.245  11.506
20499W        W87040  26.646   7.273  11.441
20500W        W87041  34.171  11.648  11.629
20501W        W87042  28.693   1.352  10.710
20502W        W87043  28.604  11.391  12.394
20503W        W87044  44.426  17.587  10.794
20504W        W87045  38.862  34.994   2.433
20505W        W87046   8.832  38.516   1.485
20506W        W87047  40.552   1.935   2.367
20507W        W87048   8.968  14.541   2.218
20508W        W87049  39.090  29.242  12.205
20509W        W87050  44.092   3.977  14.331
20510W        W87051  25.387  10.700  10.832
20511W        W87052  44.510  39.761  10.647
20512W        W87053  36.388  16.463  14.885
20513W        W87054  27.771  44.947  11.269
20514W        W87055  34.554  40.942   1.306
20515W        W87056  27.159  13.862   3.387
20516W        W87057   9.875   2.431   4.918
20517W        W87058  38.077   8.686  13.476
20518W        W87059  41.690   6.078  10.676
20519W        W87060  35.760  16.698  13.314
20520W        W87061  25.717  44.605  12.132
20521W        W87062  24.435  33.433   1.162
20522W        W87063   1.256  32.359   1.731
20523W        W87064  44.730  37.995  12.569
20524W        W87065  17.160   4.429   4.711
20525W        W87066  16.027  26.531  10.930
20526W        W87067  19.172  44.708   1.299
20527W        W87068   7.795  24.820  10.623
20528W        W87069  22.656   4.757   1.336
20529W        W87070  18.773  17.107  13.324
20530W        W87071  13.102  28.185   1.883
20531W        W87072  19.363  13.847  13.013
20532W        W87073  36.980  16.098  13.829
20533W        W87074   2.376  27.586   3.999
20534W        W87075  38.035  22.607  12.915
20535W        W87076  17.805  15.351  10.221
20536W        W87077  42.660  38.232   4.649
20537W        W87078  14.668  32.641  13.497
20538W        W87079   8.552  13.494   3.619
20539W        W87080  32.930  37.810   0.262
20540W        W87081  44.675  36.551  11.207
20541W        W87082  18.008  10.083   2.912
20542W        W87083  18.755  19.775  11.985
20543W        W87084  32.637  17.666  10.657
20544W        W87085  32.488   0.563   3.235
20545W        W87086  15.558   1.307  10.668
20546W        W87087   6.802  19.140   1.192
20547W        W87088  26.622   7.931  14.319
20548W        W87089   6.392  27.003  13.474
20549W        W87090   1.340   8.719   3.243
20550W        W87091   2.570  12.043   3.280
20551W        W87092   9.657  33.004  12.056
20552W        W87093  21.177  37.891  14.536
20553W        W87094  41.370  16.800   3.049
20554W        W87095  25.296  37.073  10.771
20555W        W87096  13.712  13.731  11.340
20556W        W87097  10.282  44.555   3.209
20557W        W87098   6.186  35.148  13.086
20558W        W87099  10.105  16.621  13.462
20559W        W87100   8.561  13.204   1.365
20560W        W87101   4.282   4.267   2.386
20561W        W87102  30.416  31.023  11.680
20562W        W87103  42.844  16.348  13.436
20563W        W87104   5.830  19.215   3.624
20564W        W87105  18.106  10.283   1.410
20565W        W87106   7.911  23.186   1.465
20566W        W87107   5.018  13.297  14.980
20567W        W87108  21.675  37.981  12.902
20568W        W87109  19.718  40.824   4.438
20569W        W87110  39.069  37.263  11.036
20570W        W87111  17.313  19.664   0.064
20571W        W87112  22.609  29.936  10.687
20572W        W87113  19.649  20.935  11.067
20573W        W87114  16.584  38.775  12.906
20574W        W87115   3.993  15.188  12.454
20575W        W87116  24.262  30.446   5.024
20576W        W87117   1.410  37.832   0.741
20577W        W87118  20.048  30.546  13.640
20578W        W87119  44.745   8.119   2.845
20579W        W87120   0.860   2.982   0.143
20580W        W87121  13.619  29.491  14.298
20581W        W87122  42.794  38.610   0.935
20582W        W87123  19.255   6.769  12.698
20583W        W87124  41.997  12.548  11.142
20584W        W87125  35.525  18.958  10.989
20585W        W87126  31.509   8.865   0.263
20586W        W87127  14.277  28.055   0.435
20587W        W87128   6.792   3.133  11.571
20588W        W87129  34.499  27.713   0.428
20589W        W87130   7.363  31.108   4.057
20590W        W87131   0.101  31.049   0.177
20591W        W87132  39.083  42.412   4.546
20592W        W87133  41.441  40.030   3.694
20593W        W87134  39.876  12.124   0.347
20594W        W87135  43.983   2.022  12.085
20595W        W87136  25.321   4.201   1.591
20596W        W87137  27.206  21.352  14.410
20597W        W87138  38.813  32.677   2.304
20598W        W87139  28.489  23.305  11.946
20599W        W87140  27.244  30.599  14.541
20600W        W87141  11.859   8.842  14.878
20601W        W87142   9.926  44.793   4.909
20602W        W87143  40.975  41.056  11.722
20603W        W87144   2.314   1.321  11.342
20604W        W87145  33.434  20.962   2.750
20605W        W87146  18.502  28.135  12.528
20606W        W87147  28.188  28.081  11.535
20607W        W87148  13.196   0.119   1.739
20608W        W87149  14.410  14.781   3.190
20609W        W87150  44.267  21.148  14.907
20610W        W87151  33.465  33.062   2.219
20611W        W87152  42.993  10.400   0.420
20612W        W87153  19.757  30.523   1.225
20613W        W87154  22.098  35.859  14.392
20614W        W87155  32.022  35.355   0.298
20615W        W87156  33.949  35.001  11.053
20616W        W87157  22.134   7.611  10.973
20617W        W87158  32.533  13.627   3.137
20618W        W87159  25.785   2.572   2.406
20619W        W87160  20.217  41.917  12.964
20620W        W87161  39.291  20.862   1.245
20621W        W87162  18.673  10.859  11.544
20622W        W87163  30.177  42.254   0.800
20623W        W87164   4.531  34.719  10.679
20624W        W87165  44.785   2.865  13.041
20625W        W87166  24.312  41.531   4.660
20626W        W87167   0.330  36.377  12.154
20627W        W87168  10.274  34.372   2.855
20628W        W87169  15.979   0.560   4.088
20629W        W87170  32.310  42.214  12.855
20630W        W87171  15.444  43.504  11.162
20631W        W87172  32.160   3.419   1.496
20632W        W87173  20.757   9.834   0.894
20633W        W87174  27.602   6.227  11.299
20634W        W87175  27.605  15.952   1.370
20635W        W87176  38.249  29.611   3.285
20636W        W87177  23.487  10.580  11.171
20637W        W87178   9.860  32.541  10.788
20638W        W87179  32.529   6.329  14.107
20639W        W87180  14.111  26.030  11.942
20640W        W87181  35.665  33.034  13.420
20641W        W87182  10.375  28.036  13.809
20642W        W87183  29.597  18.098   0.462
20643W        W87184  41.122  44.497  14.490
20644W        W87185   2.054   9.081  14.818
20645W        W87186  10.872  10.277  10.352
20646W        W87187  10.273   6.128  10.717
20647W        W87188  34.784  38.637   4.172
20648W        W87189  11.340  19.544  13.579
20649W        W87190  39.528  21.386  13.865
20650W        W87191  43.886  25.038  12.092
20651W        W87192  20.886  21.096  14.992
20652W        W87193  43.839  11.363  12.022
20653W        W87194  33.032   5.210   4.441
20654W        W87195  16.131   6.951  11.594
20655W        W87196  24.800  32.150   0.736
20656W        W87197   1.264   0.733  13.451
20657W        W87198  31.523  40.085   3.229
20658W        W87199   4.402  21.739   0.827
20659W        W87200  20.269  40.682   4.152
20660W        W87201   5.318  30.518  11.753
20661W        W87202  42.670  24.447   5.171
20662W        W87203  23.786  43.691   1.255
20663W        W87204  20.214  33.843   1.859
20664W        W87205  21.541  25.674   3.552
20665W        W87206  26.693  15.729  13.465
20666W        W87207  10.623  40.338   1.768
20667W        W87208  42.579  14.979   2.154
20668W        W87209   6.674  31.700  11.086
20669W        W87210   1.398   1.329  11.150
20670W        W87211  41.982   3.735   4.313
20671W        W87212  27.413  41.083   4.858
20672W        W87213   4.320  22.252   0.783
20673W        W87214  33.596  27.253   2.178
20674W        W87215  19.237  18.958  14.345
20675W        W87216  34.372  13.182  13.912
20676W        W87217   1.456   7.134   1.799
20677W        W87218  10.737  26.006  12.395
20678W        W87219  40.254  21.288   0.523
20679W        W87220  16.258  12.817  11.576
20680W        W87221  20.579  30.611   3.794
20681W        W87222   1.948  44.134  11.051
20682W        W87223  13.328  32.559  12.285
20683W        W87224  30.103  31.619  14.905
20684W        W87225  20.111   2.869  12.790
20685W        W87226   8.351  24.734  11.452
20686W        W87227  25.756  11.450   4.813
20687W        W87228  35.454   7.913  14.910
20688W        W87229  38.555  33.530  11.087
20689W        W87230  21.305  34.475   9.917
20690W        W87231  14.536   1.244  12.990
20691W        W87232   9.921  17.010   4.225
20692W        W87233   7.351  42.010   2.186
20693W        W87234  16.452  24.438   0.057
20694W        W87235   0.491   5.283   0.227
20695W        W87236  32.689  21.637  12.137
20696W        W87237  40.503  43.074  13.590
20697W        W87238  33.678   2.753  12.358
20698W        W87239   3.899  10.237  12.665
20699W        W87240  41.789  31.218  14.138
20700W        W87241  38.771   0.370   1.884
20701W        W87242  28.239  18.059   1.404
20702W        W87243  23.690  10.466   1.394
20703W        W87244  37.810  40.912  12.396
20704W        W87245  23.947  32.286   0.717
20705W        W87246  37.925   8.744   3.120
20706W        W87247  26.052  14.714   1.414
20707W        W87248  12.601   5.811  14.405
20708W        W87249   7.012  14.156   1.595
20709W        W87250  22.068  12.636   0.829
20710W        W87251   9.664  18.976   0.966
20711W        W87252  40.108  13.212  12.639
20712W        W87253  13.008  15.652   3.188
20713W        W87254   2.021  43.523  10.835
20714W        W87255  35.032  11.275   3.919
20715W        W87256  29.170   8.225   2.181
20716W        W87257  17.426  14.674  13.057
20717W        W87258   8.322  23.051  10.440
20718W        W87259  43.452  11.952   1.219
20719W        W87260  24.458  24.650   3.710
20720W        W87261  38.880  41.503  12.870
20721W        W87262   2.797  38.803  11.182
20722W        W87263  37.148  37.860  12.071
20723W        W87264  34.031  30.191   4.076
20724W        W87265  30.512  29.436   3.754
20725W        W87266  27.549  20.273  13.005
20726W        W87267  35.873   9.489   3.547
20727W        W87268  43.457   9.465   2.354
20728W        W87269  14.135  35.925   2.841
20729W        W87270  16.781  43.348   4.244
20730W        W87271  27.386  38.456  11.204
20731W        W87272  10.709  35.394   0.419
20732W        W87273  31.859   8.387   4.100
20733W        W87274  13.009  26.701  11.805
20734W        W87275   2.018   6.661  11.713
20735W        W87276  36.773  29.582  14.236
20736W        W87277  20.019   9.170   1.851
20737W        W87278   9.662  21.123   1.711
20738W        W87279  12.211  32.420  14.977
20739W        W87280   5.853  13.882  12.417
20740W        W87281  30.548  37.903  11.030
20741W        W87282  17.108  16.709   3.877
20742W        W87283  14.170  13.174  14.426
20743W        W87284  43.752  32.412  10.981
20744W        W87285  31.982  10.638   2.948
20745W        W87286  31.430  14.434   4.525
20746W        W87287  32.562   7.060   2.178
20747W        W87288   6.357  18.324  14.790
20748W        W87289  31.008  23.974  14.813
20749W        W87290  37.856  17.248   2.743
20750W        W87291  27.211   8.277  11.908
20751W        W87292  44.993  25.420   2.268
20752W        W87293  31.280  34.971   0.934
20753W        W87294  22.000  21.769  10.559
20754W        W87295  32.326  10.923  12.446
20755W        W87296  42.793  30.676   2.337
20756W        W87297  32.562  27.241  12.073
20757W        W87298  43.787  34.995  13.591
20758W        W87299  40.453  20.408  14.286
20759W        W87300  19.726  23.803  10.561
20760W        W87301  30.928   4.742   2.308
20761W        W87302  28.702  36.037  11.274
20762W        W87303   0.224  42.619   0.331
20763W        W87304  29.084  28.363  13.325
20764W        W87305  43.827  14.475   1.600
20765W        W87306  43.476  23.486  13.683
20766W        W87307  16.843  43.846   1.675
20767W        W87308  35.967   1.457  11.991
20768W        W87309  32.102   9.977   2.205
20769W        W87310  10.335   9.931   2.134
20770W        W87311  15.080  20.053  11.139
20771W        W87312  28.939  12.163  11.948
20772W        W87313   0.851  13.823   4.188
20773W        W87314  36.260  28.929  11.244
20774W        W87315  43.341  28.122  14.043
20775W        W87316  13.749  43.896   1.427
20776W        W87317  43.809   8.038   4.362
20777W        W87318  40.065   2.040  12.180
20778W        W87319   2.422  16.111  14.178
20779W        W87320  27.335  42.752  12.539
20780W        W87321  10.244  31.134   3.774
20781W        W87322  40.220   8.360  13.443
20782W        W87323  13.852   4.766  13.815
20783W        W87324  14.668  41.414  11.288
20784W        W87325   0.891  26.215  11.598
20785W        W87326  22.299  10.708  12.574
20786W        W87327  27.381  39.109  14.792
20787W        W87328  20.646  37.618  12.899
20788W        W87329  34.634  41.436   0.944
20789W        W87330   5.762   8.208   1.035
20790W        W87331  10.638  28.034  10.529
20791W        W87332  29.910   7.236  14.424
20792W        W87333  33.557  20.390  14.457
20793W        W87334  23.793   2.236  13.264
20794W        W87335   5.754  36.009   2.392
20795W        W87336  17.021   8.598  13.824
20796W        W87337  39.984  41.058   4.025
20797W        W87338  39.562  26.606  11.082
20798W        W87339  23.814   3.375   2.192
20799W        W87340  22.594  38.412  12.996
20800W        W87341  30.688  24.107   2.856
20801W        W87342  23.204   3.700   4.240
20802W        W87343  10.407  10.576   4.109
20803W        W87344   8.857  29.750   2.609
20804W        W87345   8.197   7.864   2.564
20805W        W87346  13.398  42.509   1.204
20806W        W87347  39.379  15.791   3.380
20807W        W87348  40.303   8.890   3.514
20808W        W87349  13.348   4.457   1.244
20809W        W87350  24.326   7.463  11.049
20810W        W87351  18.371  23.081   2.205
20811W        W87352  43.384  41.324  13.974
20812W        W87353  33.526  24.468  12.404
20813W        W87354  21.750   8.684  13.084
20814W        W87355  21.778   0.926  14.814
20815W        W87356  36.637  10.327   3.109
20816W        W87357  40.045  10.775   3.139
20817W        W87358  35.489  38.204   0.620
20818W        W87359  38.466  40.858   1.094
20819W        W87360  34.652  19.770  13.561
20820W        W87361  31.637  21.088   4.465
20821W        W87362   0.805  14.008  14.423
20822W        W87363  18.135   8.638  13.847
20823W        W87364  30.564  14.740  12.491
20824W        W87365  44.337  28.944  11.378
20825W        W87366   5.251  38.898   4.657
20826W        W87367  13.897  16.120  13.615
20827W        W87368  41.079   1.889   1.140
20828W        W87369  24.949  32.394   4.176
20829W        W87370  16.778  36.203  11.589
20830W        W87371  24.270  22.525  10.625
20831W        W87372  43.951  11.685  14.011
20832W        W87373  12.802  15.682   0.830
20833W        W87374   3.818   2.940  11.746
20834W        W87375  35.453  29.907   3.173
20835W        W87376  16.410  23.149  13.701
20836W        W87377  33.599  30.338   5.211
20837W        W87378  38.408  35.886   0.438
20838W        W87379  31.086  21.701   3.107
20839W        W87380  34.514  13.717  13.003
20840W        W87381  39.027  38.409   0.292
20841W        W87382  32.123  43.592   0.529
20842W        W87383  23.017  21.158  11.585
20843W        W87384  13.159   3.614   2.768
20844W        W87385   9.656  12.084   3.324
20845W        W87386  25.314   1.706   2.155
20846W        W87387  10.800  15.130  12.342
20847W        W87388  24.746  29.175   3.831
20848W        W87389   1.165  21.049  14.918
20849W        W87390  24.450   0.910   4.396
20850W        W87391  27.561  36.172   0.029
20851W        W87392   1.513  33.100   0.395
20852W        W87393   4.308  13.466   0.327
20853W        W87394  36.626  12.179  14.826
20854W        W87395  36.940  15.317  10.756
20855W        W87396   0.399  21.256   1.295
20856W        W87397   9.684   0.058  14.318
20857W        W87398  37.051   3.636   4.080
20858W        W87399  32.096   5.963   3.833
20859W        W87400   0.907   2.475   4.997
20860W        W87401   9.080  24.982   5.214
20861W        W87402  27.798  39.879   3.287
20862W        W87403  13.284  14.313   4.731
20863W        W87404  35.800  31.941   2.178
20864W        W87405  14.175   3.507  14.969
20865W        W87406  37.997  15.189  14.970
20866W        W87407  26.486  14.322  12.005
20867W        W87408   2.700  25.542  14.690
20868W        W87409  15.108  13.898   4.141
20869W        W87410  27.669   7.143  14.871
20870W        W87411  27.711   5.288  11.610
20871W        W87412  27.145  14.576   2.348
20872W        W87413   1.217   6.197   1.741
20873W        W87414  10.771  28.650  12.081
20874W        W87415  43.978  14.699   2.370
20875W        W87416  12.713   8.293   2.257
20876W        W87417  24.017   1.561  13.869
20877W        W87418  10.300  36.103   3.300
20878W        W87419  40.319  42.860   2.748
20879W        W87420  29.531  34.555  10.759
20880W        W87421  28.583  18.810   3.567
20881W        W87422  12.505  36.623   4.246
20882W        W87423   7.936  38.085   1.371
20883W        W87424  17.672  27.321   3.438
20884W        W87425  28.077  25.414   2.861
20885W        W87426   7.417  25.327   2.483
20886W        W87427  29.166  26.139  14.030
20887W        W87428  18.280   8.670   0.883
20888W        W87429  21.915  18.562  13.903
20889W        W87430  24.796  16.180  11.878
20890W        W87431  28.074  44.881  12.176
20891W        W87432  24.139   0.716  13.490
20892W        W87433   3.371   6.446  10.739
20893W        W87434  44.217  40.382   0.256
20894W        W87435  11.900  14.110  12.049
20895W        W87436  25.239  42.102   0.559
20896W        W87437   7.784  33.629  11.979
20897W        W87438  18.807   9.917  12.420
20898W        W87439   6.343  34.332  12.449
20899W        W87440  43.785   2.757   1.394
20900W        W87441  27.435  18.982   2.175
20901W        W87442  28.642  19.595  10.389
20902W        W87443  21.772  23.983  13.974
20903W        W87444   1.014   9.279   0.308
20904W        W87445  15.237  23.486   3.602
20905W        W87446   1.821  38.884  14.163
20906W        W87447  10.308  42.719   1.916
20907W        W87448   3.781  43.979   1.723
20908W        W87449  34.811  24.801   2.597
20909W        W87450  39.079  43.357  10.578
20910W        W87451  15.890   2.469   1.420
20911W        W87452  44.024  22.067  13.302
20912W        W87453  16.233  36.775   4.986
20913W        W87454  13.809  34.560  12.788
20914W        W87455   0.422   2.511  11.077
20915W        W87456  29.569  15.500   4.420
20916W        W87457  14.618  42.308   2.813
20917W        W87458   8.069  41.653  11.281
20918W        W87459  15.146  39.706   0.378
20919W        W87460  15.577  30.645  13.625
20920W        W87461  12.064   8.869  11.092
20921W        W87462   2.747  26.105   0.970
20922W        W87463  14.309  12.993  11.206
20923W        W87464  18.722   0.318  13.676
20924W        W87465   2.549   7.828  14.480
20925W        W87466  34.012  15.570   2.175
20926W        W87467  40.562  12.509   3.522
20927W        W87468   4.121  10.478  11.477
20928W        W87469  25.613  33.166   1.866
20929W        W87470  41.928  33.107  13.971
20930W        W87471  40.364  26.000   0.505
20931W        W87472  27.698  24.534   4.631
20932W        W87473  10.334  30.896   1.651
20933W        W87474   5.684  39.962  14.339
20934W        W87475  38.604   5.670  14.755
20935W        W87476  15.956  31.944   2.423
20936W        W87477  14.915  44.300   0.016
20937W        W87478  44.566   9.169   0.766
20938W        W87479  23.762  22.598  10.567
20939W        W87480  25.512  17.092   3.487
20940W        W87481  21.176   0.977   0.821
20941W        W87482  36.516  19.662   5.102
20942W        W87483   4.842  14.393  10.755
20943W        W87484   6.334  16.510  12.889
20944W        W87485  37.907   6.224  11.393
20945W        W87486  33.615  24.568  11.537
20946W        W87487  21.936  32.317  11.946
20947W        W87488  18.212  17.283   0.415
20948W        W87489   4.344  23.728  11.170
20949W        W87490  15.862  15.084   1.219
20950W        W87491  33.430  25.415   3.688
20951W        W87492  28.461   4.211   1.835
20952W        W87493  33.983  43.495  11.665
20953W        W87494  14.116  29.555   1.219
20954W        W87495  17.862  38.346   2.099
20955W        W87496   5.012   4.282   2.591
20956W        W87497   1.937   8.522   3.633
20957W        W87498  27.081   3.497   0.252
20958W        W87499  37.303  27.718   4.149
20959W        W87500   5.989  28.720  14.914
20960W        W87501  38.556  37.504   2.748
20961W        W87502  28.133   7.767   0.813
20962W        W87503   6.777   9.110   3.916
20963W        W87504  32.082  34.027   0.614
20964W        W87505  31.923  23.311  12.414
20965W        W87506   3.285  34.364  11.563
20966W        W87507  26.201   6.728  13.851
20967W        W87508  16.552   0.524   0.226
20968W        W87509  10.278  36.978   2.167
20969W        W87510  23.682  20.818   0.844
20970W        W87511  30.620  12.155   1.803
20971W        W87512  22.694  21.106   2.326
20972W        W87513   8.131  16.077  12.530
20973W        W87514  36.432  42.319   1.736
20974W        W87515   5.435  20.222   1.916
20975W        W87516  34.217  20.525   0.363
20976W        W87517  34.535  39.776   2.213
20977W        W87518  39.432  35.309   3.637
20978W        W87519  15.627  33.077  12.041
20979W        W87520  13.590  36.164   1.977
20980W        W87521  43.586  30.637  13.643
20981W        W87522  30.413   3.960  12.063
20982W        W87523  19.145  28.590   2.667
20983W        W87524  16.165  36.126   0.989
20984W        W87525  10.555  36.538  12.941
20985W        W87526  10.273  16.790   1.403
20986W        W87527  20.188   9.097   4.415
20987W        W87528  44.184  42.821   3.102
20988W        W87529  11.354   2.302  10.665
20989W        W87530  13.837  16.713  12.385
20990W        W87531   1.487  29.516  12.487
20991W        W87532  15.775  43.760  14.939
20992W        W87533  22.662  25.170  10.730
20993W        W87534  40.625  29.486  11.156
20994W        W87535  20.942  11.854   0.514
20995W        W87536   5.844   3.914  11.564
20996W        W87537  30.673  17.664   1.276
20997W        W87538  39.098  27.036   4.395
20998W        W87539  44.314  23.614  11.263
20999W        W87540  37.518  36.556  12.999
21000W        W87541   9.366  41.808  12.049
21001W        W87542  11.955  16.060  13.133
21002W        W87543  16.653  14.641  10.570
21003W        W87544  42.722  13.512   5.043
21004W        W87545   2.597   2.502   0.002
21005W        W87546  28.882  27.960   1.488
21006W        W87547  27.274  32.402   1.569
21007W        W87548  27.162  37.157   3.792
21008W        W87549   5.177  39.059   2.245
21009W        W87550   3.479   3.211   1.010
21010W        W87551   4.777   9.168   1.497
21011W        W87552  12.709  13.628  12.926
21012W        W87553  16.349   3.961  12.497
21013W        W87554  22.467  28.037   3.307
21014W        W87555  10.742  15.684   1.932
21015W        W87556   5.966  25.857  10.402
21016W        W87557  16.519  36.500  10.766
21017W        W87558  20.001  43.768   2.419
21018W        W87559  43.558   5.812  13.018
21019W        W87560  10.831  31.057   1.926
21020W        W87561  36.552  43.369  11.034
21021W        W87562   0.483  32.668   1.352
21022W        W87563  24.400  29.151   1.347
21023W        W87564   3.959   7.268  13.935
21024W        W87565   4.446   2.915  14.364
21025W        W87566   8.834  22.585  12.082
21026W        W87567  32.288  41.234   2.933
21027W        W87568  38.109  14.227  10.524
21028W        W87569   2.727  33.917  10.805
21029W        W87570  26.871  11.358   1.516
21030W        W87571  30.407  36.271   4.065
21031W        W87572  19.543  37.877  12.455
21032W        W87573   3.546   0.117   3.196
21033W        W87574  11.860  16.627   2.918
21034W        W87575  31.384  42.471  11.180
21035W        W87576  31.502  15.764  13.894
21036W        W87577   6.229  30.060  12.964
21037W        W87578  18.111  32.140  12.829
21038W        W87579   7.315  34.607   4.063
21039W        W87580  24.512  17.227   1.785
21040W        W87581  37.941   1.749   3.329
21041W        W87582  12.059  29.946  12.421
21042W        W87583  32.243  35.326  11.880
21043W        W87584  27.487  40.226   3.946
21044W        W87585  15.629  11.707  10.551
21045W        W87586  30.138  15.611  12.236
21046W        W87587   5.866  39.887   3.162
21047W        W87588   6.817  16.527  14.310
21048W        W87589  38.039  16.531   0.989
21049W        W87590   2.358  36.838   1.675
21050W        W87591  12.235   8.104  14.378
21051W        W87592   8.157  40.616  10.741
21052W        W87593   9.768  12.585  14.285
21053W        W87594  16.354  34.440  10.699
21054W        W87595  27.167  41.735   0.897
21055W        W87596  15.608  30.105  11.153
21056W        W87597  20.235  28.417  13.635
21057W        W87598   6.222  44.446  11.972
21058W        W87599  40.365  14.235  10.706
21059W        W87600  10.955  36.298  13.237
21060W        W87601  33.277   8.482  12.561
21061W        W87602  10.730   2.493  11.238
21062W        W87603   2.731  17.004  10.722
21063W        W87604  40.770  39.477   1.722
21064W        W87605  33.649   0.146   4.172
21065W        W87606   9.679   4.406  14.790
21066W        W87607  14.246  42.771  14.619
21067W        W87608  42.482  16.492  10.732
21068W        W87609   2.299  38.420   1.655
21069W        W87610  18.606   9.328   3.334
21070W        W87611   7.969   2.975  12.982
21071W        W87612  29.678  11.071   0.255
21072W        W87613  26.753  43.192  11.210
21073W        W87614  39.732  18.721  14.968
21074W        W87615  24.614  37.673   4.991
21075W        W87616  17.511   6.229  10.759
21076W        W87617  32.193   7.874  13.114
21077W        W87618  43.076   1.346  14.803
21078W        W87619   9.747   9.355   4.010
21079W        W87620  31.093  28.776   4.042
21080W        W87621  19.627  21.067  13.085
21081W        W87622  21.774  12.615   2.844
21082W        W87623  35.512   8.142   3.738
21083W        W87624  38.337   2.475  11.001
21084W        W87625   0.678  27.474   0.372
21085W        W87626  20.050   9.558  14.050
21086W        W87627  11.382  42.924   0.101
21087W        W87628  17.230  18.343  10.119
21088W        W87629  41.841  19.760   5.149
21089W        W87630  26.778  24.708   3.706
21090W        W87631   2.519  27.217   0.240
21091W        W87632   6.709   2.465  12.933
21092W        W87633  40.273  43.392  13.129
21093W        W87634  15.386  40.646   2.129
21094W        W87635  25.692  33.648  11.564
21095W        W87636  31.034   0.962  14.834
21096W        W87637  31.005  19.102   3.878
21097W        W87638  29.062  20.804  13.482
21098W        W87639  24.707   0.400  13.985
21099W        W87640  34.099  16.789  14.819
21100W        W87641  37.832  34.990  14.830
21101W        W87642  35.085  30.092  13.658
21102W        W87643  27.198  18.942   4.907
21103W        W87644  13.900  13.884   2.428
21104W        W87645  27.147  31.519  12.956
21105W        W87646  10.169  29.955   0.488
21106W        W87647  30.926  19.237  14.461
21107W        W87648   0.259  42.334   2.235
21108W        W87649  17.733  24.161   2.034
21109W        W87650  21.270  10.206  10.853
21110W        W87651  36.806  32.392   0.415
21111W        W87652  35.475  35.499   2.785
21112W        W87653  27.070  36.093   0.231
21113W        W87654  17.189  31.476   9.704
21114W        W87655  14.846  32.595  14.378
21115W        W87656  18.791  19.993   2.845
21116W        W87657  37.003  15.102  14.698
21117W        W87658   8.270  32.564   1.379
21118W        W87659   3.662  26.763   4.206
21119W        W87660  19.179  21.661  13.767
21120W        W87661  25.402  35.624   2.724
21121W        W87662   5.553   7.275   1.296
21122W        W87663  29.892  24.240   1.809
21123W        W87664  39.994  29.640   0.158
21124W        W87665  28.897  13.784   4.970
21125W        W87666   2.922   8.489   3.737
21126W        W87667   9.357  42.727   0.842
21127W        W87668  33.461  22.743   1.384
21128W        W87669  12.801  10.674  10.689
21129W        W87670   3.137  22.278  14.837
21130W        W87671   6.614  36.336   2.469
21131W        W87672  30.440  37.508  14.316
21132W        W87673  42.319   4.469   0.387
21133W        W87674   0.859  37.823   4.912
21134W        W87675  17.828  14.516  11.797
21135W        W87676  10.634   6.770   1.712
21136W        W87677  16.667  22.953   1.371
21137W        W87678  13.144  11.258   4.609
21138W        W87679   9.294  15.553  14.223
21139W        W87680  16.772   7.216  12.066
21140W        W87681  29.578  42.540   4.835
21141W        W87682  20.101  44.884   2.710
21142W        W87683   9.212  24.309  11.145
21143W        W87684  14.293  14.591   2.726
21144W        W87685  21.017  17.525   0.757
21145W        W87686  25.194  38.799  11.195
21146W        W87687  39.326  15.678  12.057
21147W        W87688  38.346  16.128  10.634
21148W        W87689  18.238  41.963  13.406
21149W        W87690  20.173  13.002   2.744
21150W        W87691  26.941  18.237  13.004
21151W        W87692   2.471  32.851   2.814
21152W        W87693  29.083  44.085   2.243
21153W        W87694  43.800  23.585  13.304
21154W        W87695  39.752   4.701   3.491
21155W        W87696   1.899  25.159  14.788
21156W        W87697   2.183  23.490   4.512
21157W        W87698  34.249  41.344  12.190
21158W        W87699  34.033  41.408   1.790
21159W        W87700  24.159  15.112  14.736
21160W        W87701  33.944   5.086   9.902
21161W        W87702  38.791  24.625   1.417
21162W        W87703  28.990  31.991   1.186
21163W        W87704  29.711  32.002   0.713
21164W        W87705  40.124  43.266   0.308
21165W        W87706  38.002   9.736  13.193
21166W        W87707   3.741  17.707  11.161
21167W        W87708  14.172  37.732  13.868
21168W        W87709  20.042  37.368  13.386
21169W        W87710  14.311  26.083   1.818
21170W        W87711  44.423  32.479  14.613
21171W        W87712  37.911  39.327  11.663
21172W        W87713  34.201  41.345   1.244
21173W        W87714   1.870  29.825   3.684
21174W        W87715  18.506  19.021  14.688
21175W        W87716  20.628  25.802   1.483
21176W        W87717  41.779  42.891   0.916
21177W        W87718  30.040   1.494   0.875
21178W        W87719  35.337  37.509  10.786
21179W        W87720  15.812  10.265   3.614
21180W        W87721  32.038   2.464   4.009
21181W        W87722  42.426   4.000   0.204
21182W        W87723  42.104  35.506  14.435
21183W        W87724  31.717  39.474  11.549
21184W        W87725  19.966  44.405  11.061
21185W        W87726  26.190   6.835   4.475
21186W        W87727  41.606  33.124  12.942
21187W        W87728  44.977  20.941   1.252
21188W        W87729  22.224  14.349   0.193
21189W        W87730   0.234   7.740   4.183
21190W        W87731  41.030  26.831  12.538
21191W        W87732  38.366  12.307   0.150
21192W        W87733  16.619  20.590  13.434
21193W        W87734   9.777  11.299  11.590
21194W        W87735  31.508  44.973   1.689
21195W        W87736  43.084   5.080  10.956
21196W        W87737  36.470  30.980  11.648
21197W        W87738  24.746  22.524  13.898
21198W        W87739   4.177  38.456  13.073
21199W        W87740   2.718  43.029  11.026
21200W        W87741  29.075  17.338  12.933
21201W        W87742  16.732  17.416   3.171
21202W        W87743  42.255  39.751  14.715
21203W        W87744  28.033   5.473   0.734
21204W        W87745   6.375  14.518   1.371
21205W        W87746  14.725   5.697   0.012
21206W        W87747  16.054  10.151   1.767
21207W        W87748   1.493  39.321  13.007
21208W        W87749  10.358  44.029  11.557
21209W        W87750  29.582   6.220  12.195
21210W        W87751  36.013   6.249   4.442
21211W        W87752  33.997  31.709  11.841
21212W        W87753  34.844  31.376  14.410
21213W        W87754  42.893  14.526   2.225
21214W        W87755  36.096  15.578  10.223
21215W        W87756   2.823  22.617   0.085
21216W        W87757   3.481  30.920  12.236
21217W        W87758   5.899   0.453   3.594
21218W        W87759  23.308  15.030   0.047
21219W        W87760  40.247  39.971  14.697
21220W        W87761  21.083  20.477   4.862
21221W        W87762   4.118   2.830  10.364
21222W        W87763  40.443  32.525   0.010
21223W        W87764  36.873  41.920   4.989
21224W        W87765  42.328   2.282   0.197
21225W        W87766   2.218  19.615  11.168
21226W        W87767  35.005  12.834  11.921
21227W        W87768  37.873  18.205  12.830
21228W        W87769  38.296  28.703   4.212
21229W        W87770   6.830  28.381   4.817
21230W        W87771  21.238  11.076   4.132
21231W        W87772  12.624  36.851  13.960
21232W        W87773  13.195  32.282   3.653
21233W        W87774  13.217  14.159  12.429
21234W        W87775   1.584   7.387   2.844
21235W        W87776  11.373  11.201  13.446
21236W        W87777   0.465   8.449   2.259
21237W        W87778  15.889   9.708   3.498
21238W        W87779  38.784   5.366   4.089
21239W        W87780  38.245  29.013   4.674
21240W        W87781  37.300   2.847   3.532
21241W        W87782  13.448  10.260  14.447
21242W        W87783  27.716  43.861  10.748
21243W        W87784  32.406  39.891   1.820
21244W        W87785  10.846  31.403  12.422
21245W        W87786  37.392  30.020  14.949
21246W        W87787  29.594  39.790  13.900
21247W        W87788   0.837  42.355  12.915
21248W        W87789  41.513  26.781  13.481
21249W        W87790   3.688  18.685   1.914
21250W        W87791  41.797  11.586   0.351
21251W        W87792   3.564  41.339  10.614
21252W        W87793  43.675   6.290  10.051
21253W        W87794  38.422   2.813   2.829
21254W        W87795   3.270  19.331   2.343
21255W        W87796  15.289  32.415   1.856
21256W        W87797  17.502  42.381  13.400
21257W        W87798  35.716  27.940  12.014
21258W        W87799  13.265  36.395   4.540
21259W        W87800   2.344  29.638   3.034
21260W        W87801  10.718  36.982  12.023
21261W        W87802  32.875  16.794  11.573
21262W        W87803  41.323  44.428   1.267
21263W        W87804  30.469  38.986  14.319
21264W        W87805  19.073  31.432  14.671
21265W        W87806  31.031   3.774   1.517
21266W        W87807  35.346  34.855   1.848
21267W        W87808   3.986   9.737  12.036
21268W        W87809   8.752  15.052  12.862
21269W        W87810  41.266  39.193  12.599
21270W        W87811  37.760  35.938  13.476
21271W        W87812  38.999  42.243  11.635
21272W        W87813  28.117  36.118  12.148
21273W        W87814  19.849  20.623   4.193
21274W        W87815  20.599  14.944   2.552
21275W        W87816  23.965   6.301  11.848
21276W        W87817  39.230  21.739  13.599
21277W        W87818  18.065  40.055  10.646
21278W        W87819   4.521  23.175  10.520
21279W        W87820  44.719  16.069  13.435
21280W        W87821   2.358  32.580  14.047
21281W        W87822  37.501  32.547  13.349
21282W        W87823   9.212   0.380  13.907
21283W        W87824  11.913  29.807  13.128
21284W        W87825   1.639   8.626   0.964
21285W        W87826  15.183  14.739   1.667
21286W        W87827  43.009  26.926  10.420
21287W        W87828  20.644   8.677   2.305
21288W        W87829   2.005  24.721   1.878
21289W        W87830  44.495  24.518  11.568
21290W        W87831  16.559   2.256  11.009
21291W        W87832  21.783   4.281   3.649
21292W        W87833  40.823  10.062   1.059
21293W        W87834   5.751   3.330  14.060
21294W        W87835  13.136  39.634   1.408
21295W        W87836  26.622  38.901   2.400
21296W        W87837  24.569   3.407  11.645
21297W        W87838  18.304  20.982   0.689
21298W        W87839  19.373  38.015  11.024
21299W        W87840  35.101  11.323  11.552
21300W        W87841  22.769  10.286   3.760
21301W        W87842  29.896  10.142   4.136
21302W        W87843   6.424  30.050  13.948
21303W        W87844  13.363  43.952   4.553
21304W        W87845  37.990  38.802   4.059
21305W        W87846  37.324  26.449  14.949
21306W        W87847  10.130  13.418  10.908
21307W        W87848  36.997  38.781  12.459
21308W        W87849  30.178  16.341   4.145
21309W        W87850  26.414  13.149  11.292
21310W        W87851  39.220   1.300  14.407
21311W        W87852  14.384  22.313   0.382
21312W        W87853  43.628  21.739   2.856
21313W        W87854  39.939   9.914   0.880
21314W        W87855  44.938  11.901   2.655
21315W        W87856  33.954  17.208   4.428
21316W        W87857   0.276  19.072   4.188
21317W        W87858  26.931  27.192   1.018
21318W        W87859  20.987  41.320   1.460
21319W        W87860  24.441  11.202  11.750
21320W        W87861  28.018   1.366   3.765
21321W        W87862  10.412  23.723  13.892
21322W        W87863  10.250  28.864   1.487
21323W        W87864  24.852  20.257   1.446
21324W        W87865  17.846  35.070   1.188
21325W        W87866  37.567  30.953   1.731
21326W        W87867  27.289   6.271   4.047
21327W        W87868  17.757  19.298  11.100
21328W        W87869  26.738  33.802   3.721
21329W        W87870  38.254  14.641  10.221
21330W        W87871  29.367  38.576  11.147
21331W        W87872  39.906  32.182  10.587
21332W        W87873  33.762   6.679   4.219
21333W        W87874  31.406  41.784   1.245
21334W        W87875  15.605  27.728   3.463
21335W        W87876   8.217   7.265   4.826
21336W        W87877  22.326  21.064  12.170
21337W        W87878  44.964  14.167  11.060
21338W        W87879  25.528  20.342  11.192
21339W        W87880  41.105   9.624  10.920
21340W        W87881  16.672  16.711   3.582
21341W        W87882   3.224  33.686  10.799
21342W        W87883  37.292  15.629  14.900
21343W        W87884  19.714  31.686  14.357
21344W        W87885  26.410   5.754  12.772
21345W        W87886  41.536  36.577  13.809
21346W        W87887  27.522  16.501   1.367
21347W        W87888  42.745   4.972   4.214
21348W        W87889   5.186   0.005  13.384
21349W        W87890  38.310  13.154  11.725
21350W        W87891  42.789  42.730   1.876
21351W        W87892  23.651  12.151  13.703
21352W        W87893  24.951  17.711  13.044
21353W        W87894  36.353  21.600   0.747
21354W        W87895  31.379  14.901  12.847
21355W        W87896  29.552  15.820  13.445
21356W        W87897  32.366  15.126  13.515
21357W        W87898  41.412  12.822   0.758
21358W        W87899   8.376  34.930   1.062
21359W        W87900  27.683  27.016   0.236
21360W        W87901   3.157  32.777   5.056
21361W        W87902   0.269  41.740   3.125
21362W        W87903  25.644  27.586  14.286
21363W        W87904  29.106   5.399   1.657
21364W        W87905  33.143  17.290   0.758
21365W        W87906  12.783  26.221  10.595
21366W        W87907  30.759  20.489  13.390
21367W        W87908  30.103  27.593  13.293
21368W        W87909  10.295  33.395  10.632
21369W        W87910  36.423   5.714   4.145
21370W        W87911  23.063   4.316  14.345
21371W        W87912  40.167  18.241   4.844
21372W        W87913  18.241  43.987   2.901
21373W        W87914  19.546   0.128  13.170
21374W        W87915  10.417  20.807   9.911
21375W        W87916  14.515   7.342   2.518
21376W        W87917  14.148   8.942   0.780
21377W        W87918  22.636  19.178  13.762
21378W        W87919   0.675  36.107  12.458
21379W        W87920   9.370  15.733  13.307
21380W        W87921  44.863   9.206  14.641
21381W        W87922  44.557  27.469  11.561
21382W        W87923  18.345  42.974   2.888
21383W        W87924  26.601  44.980  14.301
21384W        W87925   4.644   6.322   0.917
21385W        W87926  32.488  30.936   2.623
21386W        W87927  20.169  35.388   2.837
21387W        W87928  15.500  17.432  11.572
21388W        W87929  28.996   3.516  12.065
21389W        W87930  35.598  32.407   2.326
21390W        W87931  17.937  24.625   3.827
21391W        W87932  37.633   3.348  14.475
21392W        W87933  28.284  21.200  12.796
21393W        W87934  38.277  16.829  12.488
21394W        W87935  39.264  19.662  14.829
21395W        W87936  41.653  35.099  12.782
21396W        W87937  19.015  11.324   0.029
21397W        W87938   2.319  41.524  14.053
21398W        W87939  36.983  13.486  11.653
21399W        W87940  24.700  30.920  13.909
21400W        W87941  40.411   2.216  12.949
21401W        W87942  25.983  15.033  13.393
21402W        W87943  26.565  35.326   0.233
21403W        W87944  15.345   4.693  12.111
21404W        W87945  16.666  41.765  12.419
21405W        W87946  44.623  36.714   3.587
21406W        W87947  16.734   4.791  11.963
21407W        W87948  33.537  10.704  11.866
21408W        W87949  24.486  39.012   3.052
21409W        W87950   3.063  43.653  12.919
21410W        W87951   2.305  12.251  13.685
21411W        W87952  34.806  20.138  11.402
21412W        W87953   3.680   0.219  10.774
21413W        W87954  32.500  38.974  13.377
21414W        W87955  40.568  42.332  11.593
21415W        W87956  25.771  40.903   0.962
21416W        W87957  28.194  43.900  13.453
21417W        W87958   1.267  17.013   0.986
21418W        W87959   7.598  23.644   3.659
21419W        W87960  16.212  33.033   1.765
21420W        W87961  30.505  25.523  14.779
21421W        W87962  15.138  40.185   2.154
21422W        W87963  29.940  15.552  14.925
21423W        W87964   3.787  22.427   3.111
21424W        W87965  18.675  41.493   1.836
21425W        W87966  12.238  35.451  14.369
21426W        W87967   7.216  17.537   1.830
21427W        W87968  30.175   7.753  14.802
21428W        W87969  28.402  22.735   3.907
21429W        W87970   9.293  27.862   1.711
21430W        W87971  17.303  17.953  13.741
21431W        W87972  39.883  15.635   3.252
21432W        W87973   6.214  34.048   2.035
21433W        W87974  43.909  22.212  12.815
21434W        W87975  14.500  17.227   0.778
21435W        W87976  37.719  38.349  13.962
21436W        W87977  35.907  17.000  11.141
21437W        W87978   8.663  23.059  12.212
21438W        W87979  35.430   5.764   3.325
21439W        W87980  27.119   6.865   0.976
21440W        W87981  34.966  14.165  14.878
21441W        W87982  19.324  37.565  14.300
21442W        W87983  11.583  43.255  11.585
21443W        W87984  30.478   0.399  13.608
21444W        W87985   8.386  44.361   2.357
21445W        W87986   0.696  19.485   0.823
21446W        W87987  23.020  27.927  14.782
21447W        W87988  19.345  23.015  13.508
21448W        W87989  25.733   4.643   5.308
21449W        W87990  23.278   4.761  11.622
21450W        W87991   2.704   0.388  13.953
21451W        W87992  44.872  21.584  11.357
21452W        W87993  43.450  10.045   4.457
21453W        W87994   9.334   2.895  12.992
21454W        W87995   0.646  24.421   4.485
21455W        W87996  10.268  24.408   4.193
21456W        W87997  31.612   3.921   0.737
21457W        W87998  23.771  41.073   1.693
21458W        W87999  23.508  36.592   0.865
21459W        W88000  38.317  38.900  11.059
21460W        W88001  31.559  36.236  11.989
21461W        W88002  12.645  30.471  14.516
21462W        W88003   8.350  15.875   2.340
21463W        W88004  14.203  34.664   3.614
21464W        W88005  18.366  29.138  12.118
21465W        W88006  42.897  41.468  12.988
21466W        W88007  27.483  13.184  11.673
21467W        W88008   5.281  30.347   4.666
21468W        W88009  16.545  14.260  11.848
21469W        W88010  12.893   3.420  13.849
21470W        W88011  11.062  25.481  14.317
21471W        W88012   7.792  17.913   0.324
21472W        W88013  36.805   0.303  14.068
21473W        W88014  30.385   0.145  14.921
21474W        W88015  33.691  13.696   9.761
21475W        W88016  20.553  24.265  14.493
21476W        W88017  10.270  16.831  11.183
21477W        W88018  25.172  42.040  12.057
21478W        W88019  26.049  20.156  12.915
21479W        W88020   3.898  30.813   0.910
21480W        W88021  28.926  34.027  11.631
21481W        W88022  18.825  32.156  14.047
21482W        W88023  10.239  27.193   1.942
21483W        W88024  20.674  28.421  13.886
21484W        W88025  16.580  26.499  10.962
21485W        W88026  17.873   7.754   4.436
21486W        W88027   9.770  14.801   1.653
21487W        W88028   6.858  38.862   2.831
21488W        W88029  23.800   5.132  14.521
21489W        W88030  44.790   2.972   1.604
21490W        W88031   9.500  28.582   2.355
21491W        W88032   2.373  33.935   0.185
21492W        W88033  10.401  25.721  13.817
21493W        W88034  38.708   1.393  11.147
21494W        W88035  44.300   2.644  14.559
21495W        W88036  38.088  31.597   2.277
21496W        W88037  12.307  24.527  11.146
21497W        W88038   7.360   9.186   1.825
21498W        W88039  29.009  19.461  10.730
21499W        W88040  39.359  21.606   0.896
21500W        W88041   8.391  27.638  11.738
21501W        W88042  40.415   7.995   3.211
21502W        W88043  16.482   5.462  13.394
21503W        W88044  28.961  14.691  10.747
21504W        W88045  31.019  20.840   5.157
21505W        W88046  15.440  19.251  13.550
21506W        W88047  17.336  20.146  14.823
21507W        W88048  41.387  13.108   3.505
21508W        W88049   4.742  14.993   0.985
21509W        W88050  13.671   8.987   3.814
21510W        W88051  29.914  39.831  12.177
21511W        W88052   1.570  17.371   1.918
21512W        W88053  16.670   9.777  12.878
21513W        W88054  14.873  38.998   4.189
21514W        W88055   7.011  17.517  13.480
21515W        W88056  27.893   8.381   4.289
21516W        W88057   8.805  17.264  12.247
21517W        W88058  42.961  10.956  11.959
21518W        W88059  37.975  37.297  12.167
21519W        W88060   9.230   6.860   4.919
21520W        W88061  41.380  12.117   3.702
21521W        W88062  40.854  16.669   4.837
21522W        W88063  33.885  41.816  14.046
21523W        W88064  30.040  29.566   1.598
21524W        W88065   1.941  33.607   3.969
21525W        W88066  23.020   6.678  13.799
21526W        W88067  42.882  40.659  14.457
21527W        W88068  19.085  30.721  11.441
21528W        W88069  43.311   5.444  12.726
21529W        W88070  33.246  14.267   2.309
21530W        W88071  36.650  44.790  11.993
21531W        W88072   2.791  12.797   1.175
21532W        W88073  11.362  20.950   3.235
21533W        W88074  10.281   6.429   0.664
21534W        W88075  33.474   4.231   1.281
21535W        W88076   8.828  26.443   3.162
21536W        W88077  42.528   1.702   3.085
21537W        W88078   3.876   1.098   1.748
21538W        W88079  25.619   6.291  14.248
21539W        W88080  22.657  13.972   1.188
21540W        W88081  22.098  31.616  14.588
21541W        W88082  39.091  20.209   0.538
21542W        W88083  13.245   8.370   2.826
21543W        W88084  37.174   9.761  12.033
21544W        W88085  31.152  36.084   0.225
21545W        W88086  27.576   0.717  10.620
21546W        W88087  21.244  21.033   2.760
21547W        W88088   1.973  21.147   3.532
21548W        W88089  42.787  36.390  11.139
21549W        W88090   5.434  32.942   3.131
21550W        W88091  44.566  35.317  12.819
21551W        W88092  37.891  12.448  14.977
21552W        W88093   0.193  42.237   3.122
21553W        W88094   0.974  17.044   0.528
21554W        W88095  36.334  29.833   3.202
21555W        W88096  18.177  32.498  11.149
21556W        W88097  18.552  25.070   4.565
21557W        W88098  32.853  18.364   1.767
21558W        W88099  21.530  36.641   3.232
21559W        W88100   8.328   9.428  14.028
21560W        W88101   0.601  23.784   3.934
21561W        W88102  28.380  21.101   4.971
21562W        W88103   9.637  33.424  12.420
21563W        W88104  10.572  23.748   3.735
21564W        W88105  18.663   1.818  10.732
21565W        W88106  27.611  44.957  13.390
21566W        W88107  29.040  23.109   1.697
21567W        W88108  36.604  27.851   1.327
21568W        W88109  40.570   1.936  14.756
21569W        W88110  19.629  21.705  10.637
21570W        W88111  27.238  38.990   1.496
21571W        W88112  33.858  22.575  12.615
21572W        W88113   1.289   3.780  14.291
21573W        W88114  35.357  36.503   0.428
21574W        W88115   1.381  43.990  12.505
21575W        W88116  34.548  15.175  11.695
21576W        W88117  11.438  17.961   3.123
21577W        W88118  34.343   7.371  11.562
21578W        W88119  12.757  32.852   3.213
21579W        W88120  25.388  38.816   0.508
21580W        W88121   9.918   4.132  11.246
21581W        W88122  35.636  21.365   2.050
21582W        W88123  12.596   3.700  13.458
21583W        W88124  18.616   5.815   4.910
21584W        W88125  35.026  26.751  13.115
21585W        W88126   5.979  15.511  11.542
21586W        W88127  22.007  19.680   1.777
21587W        W88128  27.471  41.506   1.742
21588W        W88129  39.985  25.071   3.363
21589W        W88130  39.044  31.111   1.466
21590W        W88131  12.563  26.539   4.083
21591W        W88132  15.753  23.241  10.633
21592W        W88133  22.697  10.362  12.602
21593W        W88134  29.095  32.698  13.984
21594W        W88135  30.787  41.399   3.822
21595W        W88136  14.154   9.293  10.761
21596W        W88137   8.905  13.326   2.131
21597W        W88138  29.051  26.242   0.786
21598W        W88139  15.830  13.191   1.173
21599W        W88140   3.880  20.915  11.011
21600W        W88141  15.627  21.633  13.134
21601W        W88142  27.510   1.315  11.294
21602W        W88143  27.674   0.375   1.782
21603W        W88144   0.961  29.495  14.393
21604W        W88145   8.916  35.527   1.533
21605W        W88146  18.565  30.736  10.276
21606W        W88147   0.681  40.508  12.035
21607W        W88148   5.162  36.435   3.660
21608W        W88149  42.125  38.789   9.801
21609W        W88150  41.328  31.001   1.969
21610W        W88151  37.313  36.084   3.644
21611W        W88152  37.810  23.323  13.496
21612W        W88153  24.382  11.689  12.320
21613W        W88154   2.905   9.219   3.179
21614W        W88155   6.457  28.994  11.691
21615W        W88156  40.025  18.222   2.724
21616W        W88157  27.186  11.317  14.118
21617W        W88158  15.224  11.256  11.037
21618W        W88159   6.767   7.816   2.537
21619W        W88160  29.989  38.440   4.601
21620W        W88161  27.760  43.933  12.213
21621W        W88162  30.655  19.444   2.681
21622W        W88163   3.469   7.543   0.236
21623W        W88164  34.571   7.707  14.839
21624W        W88165  41.027  40.515   4.844
21625W        W88166  31.529  17.800   4.318
21626W        W88167  22.101  11.393  13.004
21627W        W88168  40.259   3.849   4.563
21628W        W88169  38.136   2.340   2.295
21629W        W88170   7.739  23.046  13.395
21630W        W88171   5.505  25.481   1.335
21631W        W88172  40.055  34.551   3.665
21632W        W88173  28.022  26.470  10.151
21633W        W88174  23.667  17.148   4.594
21634W        W88175  38.252  12.518   4.372
21635W        W88176  15.210   0.620   1.828
21636W        W88177   9.370  16.347  12.945
21637W        W88178  23.466  35.725  11.010
21638W        W88179  32.501  12.323   1.580
21639W        W88180  19.766  14.180   3.256
21640W        W88181  24.887  38.754  14.735
21641W        W88182  29.879   1.839  12.283
21642W        W88183  43.529  43.829   1.726
21643W        W88184  43.990  40.116   2.484
21644W        W88185   8.895  41.321   1.853
21645W        W88186  23.475  44.952  11.639
21646W        W88187  25.673  40.352  14.643
21647W        W88188   5.563   9.203  12.404
21648W        W88189  31.898  20.013   2.065
21649W        W88190  26.314   1.036  13.309
21650W        W88191  25.851  11.932  12.398
21651W        W88192  14.648  38.473  10.412
21652W        W88193  33.342   7.709  11.273
21653W        W88194  10.255  39.479   2.670
21654W        W88195  14.833  25.611  12.068
21655W        W88196   1.981  41.076   3.678
21656W        W88197  41.877   3.292   3.138
21657W        W88198  30.553   7.107   0.229
21658W        W88199   0.240  28.000   4.605
21659W        W88200  44.970  15.770  11.667
21660W        W88201  12.088   8.480   2.841
21661W        W88202  27.923  22.805   2.308
21662W        W88203   7.907   3.347   2.579
21663W        W88204   2.260  34.655   0.502
21664W        W88205  32.441  35.059  12.553
21665W        W88206  22.569   3.691  12.164
21666W        W88207  23.098  25.245   3.160
21667W        W88208  21.355  38.119   5.211
21668W        W88209  24.017  11.783   1.214
21669W        W88210   0.372  17.524  12.652
21670W        W88211  21.095  26.465   1.146
21671W        W88212  10.384  39.228  13.837
21672W        W88213  40.595  31.985  13.355
21673W        W88214  21.935  18.093  14.192
21674W        W88215  15.211  22.513  12.521
21675W        W88216  24.768  24.533  14.969
21676W        W88217   2.308  13.268   2.772
21677W        W88218  11.717  26.055   1.595
21678W        W88219   1.524   9.877  13.685
21679W        W88220  28.484  40.983  11.530
21680W        W88221   1.475  27.176   4.088
21681W        W88222  19.474   7.780  10.953
21682W        W88223  28.186  28.149   2.573
21683W        W88224  38.969  17.533   4.063
21684W        W88225   8.938  31.935  11.051
21685W        W88226  37.714  44.604  10.131
21686W        W88227  10.697  44.763   3.750
21687W        W88228  16.249  37.964   3.709
21688W        W88229  22.194  21.101   2.470
21689W        W88230   9.609   5.453  12.781
21690W        W88231  22.199  26.597  10.708
21691W        W88232  20.571  40.204  12.423
21692W        W88233  27.076  11.248   2.397
21693W        W88234   4.406  26.160  14.841
21694W        W88235  35.614   7.582  10.798
21695W        W88236  17.271  18.757  12.126
21696W        W88237  16.304  25.593   4.995
21697W        W88238  40.372  27.146   3.881
21698W        W88239  33.692  27.888  12.925
21699W        W88240  38.186   8.684  12.550
21700W        W88241  12.178  28.711   4.406
21701W        W88242  41.127  20.584   2.766
21702W        W88243   9.952   1.355   1.851
21703W        W88244  16.737  25.913  10.784
21704W        W88245  36.706  32.052  13.082
21705W        W88246  20.129  11.258   5.410
21706W        W88247  14.107  16.251  13.082
21707W        W88248  22.799  41.765  12.854
21708W        W88249  38.308  27.212  12.866
21709W        W88250  40.663  13.217   1.636
21710W        W88251  35.945   5.929   3.244
21711W        W88252  20.680   4.244   0.100
21712W        W88253  26.046  27.606   2.837
21713W        W88254  16.538   3.908  14.433
21714W        W88255  36.885  16.198  11.296
21715W        W88256  16.018  41.864   1.041
21716W        W88257  19.170  21.513  13.265
21717W        W88258   4.289   9.878   1.644
21718W        W88259  36.774  37.993   4.630
21719W        W88260   7.978  21.470   1.873
21720W        W88261  25.999  34.262   4.131
21721W        W88262   3.914  37.064   1.748
21722W        W88263   8.916  17.592   3.977
21723W        W88264  10.739  42.489   1.691
21724W        W88265  20.583  38.207  13.475
21725W        W88266  34.910  27.146  12.788
21726W        W88267  14.735  30.459  11.574
21727W        W88268  24.029  32.600   1.141
21728W        W88269  33.591  44.306   3.726
21729W        W88270  11.281  14.691   0.676
21730W        W88271   3.946   2.302   4.051
21731W        W88272  31.191   1.496   3.324
21732W        W88273   5.798  24.522   1.022
21733W        W88274  36.491   6.522  14.307
21734W        W88275  26.617  18.495  11.150
21735W        W88276   1.840  19.621  10.370
21736W        W88277  25.929  11.783  12.914
21737W        W88278  17.082  14.028  10.001
21738W        W88279  11.173  18.557   4.909
21739W        W88280   0.290  17.020   5.008
21740W        W88281  30.301  30.161  11.635
21741W        W88282  35.748  14.432   5.012
21742W        W88283   8.179   7.306  13.746
21743W        W88284  42.416  39.789   0.951
21744W        W88285  34.422  27.787   1.457
21745W        W88286  10.858  15.104   3.035
21746W        W88287  38.505  32.850  11.786
21747W        W88288  37.325   8.118  12.044
21748W        W88289  26.626  37.843  12.821
21749W        W88290  28.674  31.811   3.933
21750W        W88291  32.550   3.217  13.922
21751W        W88292   5.193  20.188   2.385
21752W        W88293  41.434  29.623   0.128
21753W        W88294  34.068  40.082   3.278
21754W        W88295  35.639   1.737  13.988
21755W        W88296  42.496   2.692  10.663
21756W        W88297   2.844  36.966  13.014
21757W        W88298  34.293  14.616  12.895
21758W        W88299  42.268  35.275  11.988
21759W        W88300  42.989   2.708   4.971
21760W        W88301  12.674  34.805  11.250
21761W        W88302  11.834   3.405  14.739
21762W        W88303  14.184  38.036   4.861
21763W        W88304  25.006   8.351   2.860
21764W        W88305   1.029  44.449   2.530
21765W        W88306  30.076   9.134  14.002
21766W        W88307   3.892  23.664   5.420
21767W        W88308  38.540  41.784   0.684
21768W        W88309   1.198   2.896   2.231
21769W        W88310  12.771  35.378  10.601
21770W        W88311   9.371  42.639  11.558
21771W        W88312  13.278  17.275   0.434
21772W        W88313   3.170   8.157  11.167
21773W        W88314  15.146  36.293  12.124
21774W        W88315  15.571  13.672   2.331
21775W        W88316  23.280   4.866  12.522
21776W        W88317  35.057  43.884  13.425
21777W        W88318  41.373  12.763  13.289
21778W        W88319  14.818   8.567   2.327
21779W        W88320  39.390  24.753  11.542
21780W        W88321  23.578  43.212  11.146
21781W        W88322  39.044  42.244  10.701
21782W        W88323  23.669  21.760  14.842
21783W        W88324  19.497   3.424   3.604
21784W        W88325  25.818  28.237   3.287
21785W        W88326  34.723  18.403  11.178
21786W        W88327  31.699  31.110   1.624
21787W        W88328  21.217  16.863  13.293
21788W        W88329  34.646  23.034  11.889
21789W        W88330   3.759   7.142   2.498
21790W        W88331   7.898  12.048   2.041
21791W        W88332  44.769   7.408   1.644
21792W        W88333  39.894  25.923   0.266
21793W        W88334  43.015  43.703  12.581
21794W        W88335   9.701  21.464   0.699
21795W        W88336  35.471  24.515  14.806
21796W        W88337  20.954  18.491   3.694
21797W        W88338  12.568   8.211  10.733
21798W        W88339  25.844  20.021  10.904
21799W        W88340  19.661   7.911   4.324
21800W        W88341  23.255  36.315   2.769
21801W        W88342   6.908  41.918  12.544
21802W        W88343  29.648   7.947  14.098
21803W        W88344  44.351  12.730   0.042
21804W        W88345  28.692   5.544   1.974
21805W        W88346  29.203  10.310   4.717
21806W        W88347  43.360  36.718  14.778
21807W        W88348  14.225  38.553  12.070
21808W        W88349  24.896  11.730   0.951
21809W        W88350  38.167   3.744  10.867
21810W        W88351  39.902   5.403  11.580
21811W        W88352  44.420  43.787   3.723
21812W        W88353   0.979  43.337  13.580
21813W        W88354  32.325  22.510  11.164
21814W        W88355   8.374  25.024   1.012
21815W        W88356   4.468  17.986   1.671
21816W        W88357  38.848  14.256  13.115
21817W        W88358   1.707   0.038  11.184
21818W        W88359  42.967   0.988  13.964
21819W        W88360   7.862  43.725  12.061
21820W        W88361  23.005  30.983  12.221
21821W        W88362   0.462   5.634   1.750
21822W        W88363   7.124  25.444   4.616
21823W        W88364  11.812  14.460  14.888
21824W        W88365   3.783  44.500   3.730
21825W        W88366   8.437  27.201   4.258
21826W        W88367  15.271   8.303  12.823
21827W        W88368  32.466  39.825  10.697
21828W        W88369   0.854  34.450  13.019
21829W        W88370  43.267   3.595   4.245
21830W        W88371  10.177  11.818   2.852
21831W        W88372  38.027  31.552  12.707
21832W        W88373   4.164  18.614  10.720
21833W        W88374  34.352  23.429   1.659
21834W        W88375  19.653  14.561  12.043
21835W        W88376  27.140  27.130  10.769
21836W        W88377  32.912  33.134   3.730
21837W        W88378  19.012  28.612  13.425
21838W        W88379  30.108  16.157   3.244
21839W        W88380   9.988   8.854   4.179
21840W        W88381   7.409   3.840   0.499
21841W        W88382  27.030   7.757  12.727
21842W        W88383  22.022  16.815  12.942
21843W        W88384  16.571  34.480  13.821
21844W        W88385  23.528  36.883   0.452
21845W        W88386   5.753  24.931  12.081
21846W        W88387   2.030  22.647  10.206
21847W        W88388   1.773  22.275  14.941
21848W        W88389   8.831  26.695   0.365
21849W        W88390  33.873  36.459   0.425
21850W        W88391  15.624  35.457  11.585
21851W        W88392   9.897  21.070  14.434
21852W        W88393  29.545  10.375   0.957
21853W        W88394  13.707   7.154   3.134
21854W        W88395   2.363   0.985  13.524
21855W        W88396  32.479  11.787  11.104
21856W        W88397   6.088  28.203  13.820
21857W        W88398   3.787  44.968   4.746
21858W        W88399  31.869  27.143  12.556
21859W        W88400   4.230  13.355   2.432
21860W        W88401  28.382  30.578  11.997
21861W        W88402  40.864   1.755  13.483
21862W        W88403  11.677  18.366   4.975
21863W        W88404  32.912  12.584   2.376
21864W        W88405  16.314  29.721   3.288
21865W        W88406  34.096   5.857  14.735
21866W        W88407  26.417   6.632   4.042
21867W        W88408  40.083   9.426   3.948
21868W        W88409  13.322  10.738   0.890
21869W        W88410   8.157  37.981   9.878
21870W        W88411  20.046  11.700   0.770
21871W        W88412  42.792  16.602   1.579
21872W        W88413  10.121  30.869  14.535
21873W        W88414  31.454  13.148   3.672
21874W        W88415  12.407  35.949  14.326
21875W        W88416  37.946   0.075   2.281
21876W        W88417  13.447  19.077   1.469
21877W        W88418  44.854  16.507   3.235
21878W        W88419  26.006  11.218   3.487
21879W        W88420   8.492  13.607   2.314
21880W        W88421  27.430  23.844   3.706
21881W        W88422  38.588   2.322   3.592
21882W        W88423  40.940  37.550   0.944
21883W        W88424   0.670  44.169  12.036
21884W        W88425  22.501  25.080   4.285
21885W        W88426  27.785  31.896   5.044
21886W        W88427  12.337  24.653   3.685
21887W        W88428  16.217  44.447   2.308
21888W        W88429  32.110   5.957  14.583
21889W        W88430   5.196  26.946   4.110
21890W        W88431  25.242  20.184   3.384
21891W        W88432  12.328   1.004   4.624
21892W        W88433  29.661  10.547   0.184
21893W        W88434  20.497  30.636   0.809
21894W        W88435  41.339  22.013   4.689
21895W        W88436  41.308  10.375   2.839
21896W        W88437   5.435  22.235  11.137
21897W        W88438   1.864  35.559   0.439
21898W        W88439   7.750   3.644   1.718
21899W        W88440   5.576  26.549   4.075
21900W        W88441  36.519   5.437   2.300
21901W        W88442   5.403  33.970  13.531
21902W        W88443  27.710   5.839   3.050
21903W        W88444  19.266  33.728  13.168
21904W        W88445   7.479   6.635   0.423
21905W        W88446  38.189  16.259   3.268
21906W        W88447  25.734   3.753  10.213
21907W        W88448  20.177  18.331  11.657
21908W        W88449   5.770  16.512  13.936
21909W        W88450  26.543  42.238   0.469
21910W        W88451  35.623  34.792  14.291
21911W        W88452  27.373  12.947   4.900
21912W        W88453  34.740  29.974  10.890
21913W        W88454  28.380  19.166  14.055
21914W        W88455  36.750   6.281  11.986
21915W        W88456  22.837  22.457  13.631
21916W        W88457  21.067   6.911  12.529
21917W        W88458  28.656  34.471   2.870
21918W        W88459   6.837  27.574  11.869
21919W        W88460  40.637   9.132   0.941
21920W        W88461  10.307   4.460   4.410
21921W        W88462   8.287  17.331   2.259
21922W        W88463  14.452  40.957   3.659
21923W        W88464   7.807  14.846   3.094
21924W        W88465  43.392   6.233  12.692
21925W        W88466  15.139  41.493   0.749
21926W        W88467   0.884  38.133   0.632
21927W        W88468  17.532  33.003  12.617
21928W        W88469  26.398  29.970   4.271
21929W        W88470  40.407  44.996   2.146
21930W        W88471  23.694   7.777   4.097
21931W        W88472   6.334   0.283   4.822
21932W        W88473  32.133  30.036  10.703
21933W        W88474  14.234  14.468  12.661
21934W        W88475  26.644  42.043  10.629
21935W        W88476  23.536   5.354   1.298
21936W        W88477  23.728   9.412  14.003
21937W        W88478  36.308   5.733  12.764
21938W        W88479  39.880  41.858  11.577
21939W        W88480  25.693  35.814   0.441
21940W        W88481  19.687  22.037   2.030
21941W        W88482  22.631  15.236   5.281
21942W        W88483  27.276  24.418  12.534
21943W        W88484  15.180  26.261  13.952
21944W        W88485   2.240  23.901   3.116
21945W        W88486   2.358  39.817  13.356
21946W        W88487  33.810  22.715   0.686
21947W        W88488  32.907  44.056  13.855
21948W        W88489  34.895   6.285   5.193
21949W        W88490  41.741  17.197   2.307
21950W        W88491  16.000  32.398   1.424
21951W        W88492  41.275  32.384  10.704
21952W        W88493  42.435   6.410  14.558
21953W        W88494  22.679  28.544   0.327
21954W        W88495   2.057  41.767  14.570
21955W        W88496  38.061  40.855  10.669
21956W        W88497   7.956  29.126   1.162
21957W        W88498  21.954  29.505  14.362
21958W        W88499  37.571  41.952  13.070
21959W        W88500  29.280  14.204  11.620
21960W        W88501  14.542   0.816  13.413
21961W        W88502  37.542  38.573   3.911
21962W        W88503  12.291  18.709   3.852
21963W        W88504   4.203  14.887   0.293
21964W        W88505  26.480   0.902  14.795
21965W        W88506  18.100  35.915   0.007
21966W        W88507   0.796  26.929  13.149
21967W        W88508  32.208  25.732  13.725
21968W        W88509  26.083  13.807   1.300
21969W        W88510   5.932  18.949   0.767
21970W        W88511   6.667  10.753   2.334
21971W        W88512   3.847  10.017  10.749
21972W        W88513  18.528   3.919   1.251
21973W        W88514  23.526  29.361   0.756
21974W        W88515  43.579  24.580   0.688
21975W        W88516  28.981  21.303  10.099
21976W        W88517  14.527  12.264  12.847
21977W        W88518  23.301  14.890   2.924
21978W        W88519  28.167  16.251  13.131
21979W        W88520  10.693  18.249   0.113
21980W        W88521   1.559  27.971  14.073
21981W        W88522  11.568  21.256   1.211
21982W        W88523  40.869  42.465   1.831
21983W        W88524  32.467  17.941  12.345
21984W        W88525   4.729  32.139  12.380
21985W        W88526  19.551   3.217   4.134
21986W        W88527  26.060  26.436  14.159
21987W        W88528  19.740  42.602  11.229
21988W        W88529  12.024  12.709  13.326
21989W        W88530  40.997  24.424  12.061
21990W        W88531  23.746  17.737   1.671
21991W        W88532  22.994  17.010   0.900
21992W        W88533  42.013  39.985   2.152
21993W        W88534  34.947   5.551  13.423
21994W        W88535  39.519  40.772   0.989
21995W        W88536  15.553   9.263   1.776
21996W        W88537   0.683  44.331   4.634
21997W        W88538  25.502  33.036   3.804
21998W        W88539   6.693  23.984  14.819
21999W        W88540   2.105  42.511   2.194
22000W        W88541  20.111  37.790   4.943
22001W        W88542   0.224  40.786   2.271
22002W        W88543  27.949  13.746   0.989
22003W        W88544  27.174  20.579   0.484
22004W        W88545  30.025   8.762  13.205
22005W        W88546  35.932  33.532  13.486
22006W        W88547   6.863  32.667   1.538
22007W        W88548  10.764   9.690  13.556
22008W        W88549  10.753  33.509  11.758
22009W        W88550  13.650  10.430  11.762
22010W        W88551  40.448  34.834   1.021
22011W        W88552   0.898  22.279   0.513
22012W        W88553  16.051   1.809   0.032
22013W        W88554  30.549  37.869   0.257
22014W        W88555   5.155  38.340  10.606
22015W        W88556  44.127  27.658  12.414
22016W        W88557  23.550  36.600  14.966
22017W        W88558  29.683   6.757  12.399
22018W        W88559  12.807  10.730   0.881
22019W        W88560  40.467  24.453  13.861
22020W        W88561   4.666  25.670   4.156
22021W        W88562  43.743  34.121  10.790
22022W        W88563   5.868  21.684   2.814
22023W        W88564  22.463  32.980  12.155
22024W        W88565  33.399  41.723  14.717
22025W        W88566  17.109   5.355  10.323
22026W        W88567  28.927   2.692   4.097
22027W        W88568  27.943  41.633  12.616
22028W        W88569  42.286  34.499   3.728
22029W        W88570  29.574  14.270   1.850
22030W        W88571  21.186  44.294  10.863
22031W        W88572  13.637   4.973   0.333
22032W        W88573   0.595  36.589  11.670
22033W        W88574   7.724   8.645   9.953
22034W        W88575  33.342   0.009   4.585
22035W        W88576  10.843  44.391   2.918
22036W        W88577  36.285  39.058   0.421
22037W        W88578   2.820  33.824   2.352
22038W        W88579   9.113  30.392   4.094
22039W        W88580   7.927   5.939  13.281
22040W        W88581  25.130  12.203   0.980
22041W        W88582  19.332  26.858   3.275
22042W        W88583   0.874  36.306  13.518
22043W        W88584  40.821  40.892   0.490
22044W        W88585   1.830   5.161  12.507
22045W        W88586  16.839  26.371  10.540
22046W        W88587  34.467  14.697   4.948
22047W        W88588  12.538   8.458   3.343
22048W        W88589  32.902   9.256  10.452
22049W        W88590  33.890  25.063  10.707
22050W        W88591  43.746  43.119   3.246
22051W        W88592  31.596  25.421  11.948
22052W        W88593  24.070  30.148   4.120
22053W        W88594  20.221  10.712  12.424
22054W        W88595  35.057  27.097   3.870
22055W        W88596  43.680  10.289   3.568
22056W        W88597   7.623  42.776  10.835
22057W        W88598  28.553   9.985   1.259
22058W        W88599  40.390  19.518   5.001
22059W        W88600  21.837  39.043  11.069
22060W        W88601   1.766  28.256  12.374
22061W        W88602  25.705   0.547   4.345
22062W        W88603  17.242   2.650  11.430
22063W        W88604   6.376  16.254   2.191
22064W        W88605  30.561  18.615   2.763
22065W        W88606  32.873  13.720  14.471
22066W        W88607  31.886  24.196  11.475
22067W        W88608   6.365   8.437   5.124
22068W        W88609  38.560  36.388   1.279
22069W        W88610  26.214   3.245   1.670
22070W        W88611  25.028   9.953   3.139
22071W        W88612  30.679   0.219   1.245
22072W        W88613  23.649  39.986   0.018
22073W        W88614  36.769   3.156   5.435
22074W        W88615  36.538  19.305   0.494
22075W        W88616   9.551  14.136   4.154
22076W        W88617  23.925  35.842  11.185
22077W        W88618  40.871   6.469  12.369
22078W        W88619  43.039  40.476  12.125
22079W        W88620  31.128  14.416  12.060
22080W        W88621  21.173  36.016  12.597
22081W        W88622   2.698  42.820  11.532
22082W        W88623  15.057   1.681  12.092
22083W        W88624   9.357  39.841  12.016
22084W        W88625  43.977  30.195   0.019
22085W        W88626  44.867  24.961   1.375
22086W        W88627  10.404  44.057  14.953
22087W        W88628  20.931  15.042  12.656
22088W        W88629  43.699  33.174   1.664
22089W        W88630  17.751  16.522   1.859
22090W        W88631  15.626  39.506  13.588
22091W        W88632  36.961  33.602  14.091
22092W        W88633  38.760  18.666   3.682
22093W        W88634   8.713  35.993  12.859
22094W        W88635  13.401  29.405  14.814
22095W        W88636  18.862  26.178  13.497
22096W        W88637  41.143   0.977   2.759
22097W        W88638  11.936  29.641  11.993
22098W        W88639  28.265  16.648  14.405
22099W        W88640  16.796  44.683  14.016
22100W        W88641  44.029   8.854  14.510
22101W        W88642   0.262  19.292   3.234
22102W        W88643   1.378   1.501   0.971
22103W        W88644   4.581   4.706  10.646
22104W        W88645  41.302  25.524   3.281
22105W        W88646  37.942  23.619  14.492
22106W        W88647  39.538  23.161   0.829
22107W        W88648  28.929  43.326  12.610
22108W        W88649   1.052  22.268  13.408
22109W        W88650  19.646   9.925  11.110
22110W        W88651  24.936  13.795   3.125
22111W        W88652   2.460  23.151  10.297
22112W        W88653  37.235   6.552  13.545
22113W        W88654  30.095  44.882   1.741
22114W        W88655  14.626  24.217   2.042
22115W        W88656   7.760  31.838   3.056
22116W        W88657   8.995  41.509  13.955
22117W        W88658  22.283  36.623  13.948
22118W        W88659  20.647  37.991   1.488
22119W        W88660  11.789   0.684  14.368
22120W        W88661   0.822   8.373  10.825
22121W        W88662  41.462   8.490   0.839
22122W        W88663  14.226  20.000  11.097
22123W        W88664  44.903  25.840  14.365
22124W        W88665   1.648   5.934   0.420
22125W        W88666  28.595  11.760   4.062
22126W        W88667   0.859  43.019  10.787
22127W        W88668  20.213  23.187   4.178
22128W        W88669  25.456   6.186   3.354
22129W        W88670  35.394  32.253   1.425
22130W        W88671   5.353  28.584  10.649
22131W        W88672  12.816  13.398  11.645
22132W        W88673  40.345  31.908  10.771
22133W        W88674  41.828  13.616  13.819
22134W        W88675  10.628   8.695   1.961
22135W        W88676   7.168  18.452   4.480
22136W        W88677  26.429  40.874   2.269
22137W        W88678  32.436  18.863  11.170
22138W        W88679  38.393  13.623  11.955
22139W        W88680  15.962  13.882   9.924
22140W        W88681   7.633  14.097  13.349
22141W        W88682   5.400  17.365  11.770
22142W        W88683  34.562   1.295  14.777
22143W        W88684   7.108   3.369   2.046
22144W        W88685  29.463  40.321  13.869
22145W        W88686  31.733   1.318   1.280
22146W        W88687   0.101  12.821   2.571
22147W        W88688  17.235   5.474   0.082
22148W        W88689  18.602  31.211   5.056
22149W        W88690  41.448   6.693  11.193
22150W        W88691  22.517  12.668  13.857
22151W        W88692  42.027   9.115  12.483
22152W        W88693  32.450  18.054  14.979
22153W        W88694  25.021  12.890  14.566
22154W        W88695  30.780  10.665   5.442
22155W        W88696   3.905  11.855  14.848
22156W        W88697  26.205  32.334   3.145
22157W        W88698  36.887   8.275   0.732
22158W        W88699  37.844  39.732   2.481
22159W        W88700  38.840  11.189  14.177
22160W        W88701  31.318  19.433  10.654
22161W        W88702  43.379   7.371  14.879
22162W        W88703   7.664  13.132  11.602
22163W        W88704  26.213   0.074  11.438
22164W        W88705  34.603   1.412   9.857
22165W        W88706  33.198  10.554  11.044
22166W        W88707  28.797  30.332  12.929
22167W        W88708  34.609  12.862   1.424
22168W        W88709  27.985  32.043   3.659
22169W        W88710  22.757  32.122   9.792
22170W        W88711   0.276  32.077  11.884
22171W        W88712  34.026  17.413   1.620
22172W        W88713   1.281   8.329  13.475
22173W        W88714  39.017  32.691   0.877
22174W        W88715  35.430   3.257   0.722
22175W        W88716  32.422  41.916   3.041
22176W        W88717   8.449  39.607   3.564
22177W        W88718  14.811  24.609  14.479
22178W        W88719  27.020  24.284  12.095
22179W        W88720  31.570  22.933   2.246
22180W        W88721  24.530  35.026  13.104
22181W        W88722  10.581  12.868   1.469
22182W        W88723  19.714  18.636   2.382
22183W        W88724  15.612  12.229   3.706
22184W        W88725  26.202   4.661   1.296
22185W        W88726  15.688  43.034   0.437
22186W        W88727  11.402  40.961   2.835
22187W        W88728  27.060  29.903  11.498
22188W        W88729  33.922   4.137  11.681
22189W        W88730  30.731  41.106   1.492
22190W        W88731  29.370   4.770  11.938
22191W        W88732  18.717   8.547  14.821
22192W        W88733   2.310  34.797   3.719
22193W        W88734   7.352  40.776  11.104
22194W        W88735  12.989  25.792   2.068
22195W        W88736  23.001  15.315   0.416
22196W        W88737   7.581   3.428  13.834
22197W        W88738  18.750  20.504  11.611
22198W        W88739  41.469  44.057  11.613
22199W        W88740  39.323  10.141   1.978
22200W        W88741  44.828  33.283  14.252
22201W        W88742   5.714  35.877  11.597
22202W        W88743   4.742  30.697  10.932
22203W        W88744   4.141  43.497  14.806
22204W        W88745   8.418  10.532  13.818
22205W        W88746  42.919  19.443   0.207
22206W        W88747  34.342   5.655   3.246
22207W        W88748  22.233   2.497   2.809
22208W        W88749   9.229  31.849   2.315
22209W        W88750  41.067  18.892   5.053
22210W        W88751   4.944  21.201   0.829
22211W        W88752  17.341  32.435  14.553
22212W        W88753   8.118   9.862  14.960
22213W        W88754  33.709  32.518   1.939
22214W        W88755  19.002  24.805  12.494
22215W        W88756  29.807  25.263  12.745
22216W        W88757  16.365  12.260   1.144
22217W        W88758  15.021  32.350   3.253
22218W        W88759  26.918  32.780  13.425
22219W        W88760  32.044   5.807  10.703
22220W        W88761   3.820  14.568  13.982
22221W        W88762  42.366  43.329   0.893
22222W        W88763   7.411  18.721   0.466
22223W        W88764  29.882  19.048   1.344
22224W        W88765  44.195  10.197   3.639
22225W        W88766  31.020  21.213  13.447
22226W        W88767  28.705  18.014   0.331
22227W        W88768   8.380  20.777   1.018
22228W        W88769   2.509  41.363  11.531
22229W        W88770  36.088  15.024   2.410
22230W        W88771  40.719  31.161  11.134
22231W        W88772  30.408   9.764   2.082
22232W        W88773  40.477  19.777  11.214
22233W        W88774  38.133  39.957   3.542
22234W        W88775  25.524  27.820  13.341
22235W        W88776  36.013  31.447   3.400
22236W        W88777   9.679  31.501  13.460
22237W        W88778  29.774  39.553   0.385
22238W        W88779   0.868  23.412  10.433
22239W        W88780  33.200  33.601  12.916
22240W        W88781  25.493  15.826  10.798
22241W        W88782  29.233  30.510   3.403
22242W        W88783  21.701   0.523   9.859
22243W        W88784  26.443  34.029  12.725
22244W        W88785   8.218  24.894   4.329
22245W        W88786  25.333  11.786   3.627
22246W        W88787   4.243  36.135   2.141
22247W        W88788  35.292  30.408  14.011
22248W        W88789  44.936   1.736  14.563
22249W        W88790  19.926  10.875   0.968
22250W        W88791  43.699   2.328  12.437
22251W        W88792  37.636  40.641  14.569
22252W        W88793  19.649   5.009  14.342
22253W        W88794  31.584   4.015  14.347
22254W        W88795  40.434  24.512  12.872
22255W        W88796  43.548  12.149  11.606
22256W        W88797   2.901  20.526  11.711
22257W        W88798  28.499  27.592  11.612
22258W        W88799  33.477  25.152   0.259
22259W        W88800  15.493   0.253  12.432
22260W        W88801  15.632  34.171   0.898
22261W        W88802   5.346  33.242  13.704
22262W        W88803  21.108  42.424  12.955
22263W        W88804  13.161  43.531   0.719
22264W        W88805  42.384   8.845  14.056
22265W        W88806   6.452  13.436   0.056
22266W        W88807  15.283   5.633  12.187
22267W        W88808   3.010   8.218   1.316
22268W        W88809  21.841   0.711  14.299
22269W        W88810  10.611  27.896   2.821
22270W        W88811  33.475  43.650  12.089
22271W        W88812  12.328  14.913   3.123
22272W        W88813   3.577  25.850   4.949
22273W        W88814  17.794  12.826   4.373
22274W        W88815  41.659   2.479  13.288
22275W        W88816  35.024  25.271   3.345
22276W        W88817  15.712  41.057  10.222
22277W        W88818   2.941  15.130   3.084
22278W        W88819  28.654  15.910  10.702
22279W        W88820  33.418  21.305  10.792
22280W        W88821   3.367  41.990  12.202
22281W        W88822  11.821   5.624   2.345
22282W        W88823   4.277   9.876  12.564
22283W        W88824  30.909  42.940  14.045
22284W        W88825  37.367  21.797  11.892
22285W        W88826  23.939  32.961   2.522
22286W        W88827  37.745  36.797  11.322
22287W        W88828  15.830  24.564  10.531
22288W        W88829   4.404  42.915   0.024
22289W        W88830  18.643  37.065  14.762
22290W        W88831  37.984  32.787   1.802
22291W        W88832  23.175  13.665   2.202
22292W        W88833  30.638   0.272  12.432
22293W        W88834   5.979  41.230  13.395
22294W        W88835   2.944   9.756   1.132
22295W        W88836   7.753  22.840   3.771
22296W        W88837   6.765  37.396   1.818
22297W        W88838  42.229  31.360   2.900
22298W        W88839  34.955  21.697  11.910
22299W        W88840  42.334  42.580  12.860
22300W        W88841  44.823  27.884   1.839
22301W        W88842  41.999  11.654   2.589
22302W        W88843  25.150   0.494  10.770
22303W        W88844  37.503  37.566  14.127
22304W        W88845   5.244  11.147  11.421
22305W        W88846  24.300   9.616  13.468
22306W        W88847  28.322  12.796   0.683
22307W        W88848  38.373  32.520   0.050
22308W        W88849  14.984   9.158   3.085
22309W        W88850  12.461  25.132   0.491
22310W        W88851  43.711  34.036  14.344
22311W        W88852  32.603  28.802  10.652
22312W        W88853  29.546  30.525   1.660
22313W        W88854  12.854  44.757  11.156
22314W        W88855   0.781  25.169   4.009
22315W        W88856  41.846  26.890  13.986
22316W        W88857   2.451  44.176  10.159
22317W        W88858  15.246  10.617   3.176
22318W        W88859   1.886  16.618  12.032
22319W        W88860  11.572  10.489   0.449
22320W        W88861  34.092  42.081   4.712
22321W        W88862  19.731  39.742   1.348
22322W        W88863  22.763   6.305   1.655
22323W        W88864  32.965   6.341  13.349
22324W        W88865  28.590  13.892   4.109
22325W        W88866  32.081  33.435   2.811
22326W        W88867  18.756   3.990  11.136
22327W        W88868  38.219  31.012  11.087
22328W        W88869  15.657  36.262  11.187
22329W        W88870  17.444  26.403  14.705
22330W        W88871  17.165   3.382  13.161
22331W        W88872  42.459   6.762  12.842
22332W        W88873  32.499  40.728  11.070
22333W        W88874  25.551   1.913  14.965
22334W        W88875  36.591  31.154   2.654
22335W        W88876  28.225  20.778  12.494
22336W        W88877  39.520  33.736  11.288
22337W        W88878  31.269  22.990  14.950
22338W        W88879  23.187  19.097  14.580
22339W        W88880  44.371  30.680  14.215
22340W        W88881  36.692  27.644  12.171
22341W        W88882  40.435  28.692  13.441
22342W        W88883  28.568  37.423  11.934
22343W        W88884  30.153  23.213   2.666
22344W        W88885  31.444  31.273   0.835
22345W        W88886  42.037   3.524   1.831
22346W        W88887  30.588  28.661  11.589
22347W        W88888   2.394  34.111   2.363
22348W        W88889  43.381  19.798   1.397
22349W        W88890  24.846   4.816  10.271
22350W        W88891  24.493  43.905   4.786
22351W        W88892  38.895  29.552   0.726
22352W        W88893  27.461  29.658   2.794
22353W        W88894  26.242  32.605  11.099
22354W        W88895  24.768  35.323  13.483
22355W        W88896   1.194   8.126   4.072
22356W        W88897  30.521   5.348   3.749
22357W        W88898   1.144  41.506   1.937
22358W        W88899   0.429   8.224   3.232
22359W        W88900  43.440  42.923   4.116
22360W        W88901  12.741  16.459   4.659
22361W        W88902  28.614  24.282   2.225
22362W        W88903   4.507  14.200   4.933
22363W        W88904   6.284  21.290   4.071
22364W        W88905  18.089  41.439   0.270
22365W        W88906   3.483  21.237  11.691
22366W        W88907   8.149   5.863  13.741
22367W        W88908  21.316  33.116  13.893
22368W        W88909  41.303  11.634  12.527
22369W        W88910  27.859  38.520  13.030
22370W        W88911   7.438  38.403  14.288
22371W        W88912  43.159  25.551   1.383
22372W        W88913  43.746  20.124  14.366
22373W        W88914  16.589   6.715  14.346
22374W        W88915  32.615  35.873  14.803
22375W        W88916  42.286  10.765  10.661
22376W        W88917   2.653  39.010   4.999
22377W        W88918   3.424   5.855   4.149
22378W        W88919   6.835  25.433  12.897
22379W        W88920  41.017  36.605   3.201
22380W        W88921  32.893   0.288   4.635
22381W        W88922   7.422  15.839  13.733
22382W        W88923  12.464  40.411  10.560
22383W        W88924  11.893   3.448  13.926
22384W        W88925  26.278  28.953  13.229
22385W        W88926  37.343   6.908   3.919
22386W        W88927  20.007  23.969   2.685
22387W        W88928  37.636  37.423  12.551
22388W        W88929  14.148  20.091  11.614
22389W        W88930  34.625  40.978  11.496
22390W        W88931  36.169  34.863   1.379
22391W        W88932  37.414   8.342   3.216
22392W        W88933  27.644  44.706   2.330
22393W        W88934  17.394  36.511  13.017
22394W        W88935  42.586  41.958   1.321
22395W        W88936  28.415   1.666  13.873
22396W        W88937  15.403  43.894  12.124
22397W        W88938   2.403  38.488  14.642
22398W        W88939  21.572   2.276  11.495
22399W        W88940  32.596  39.630  11.653
22400W        W88941  15.013   4.170  14.122
22401W        W88942   4.166  28.947   0.737
22402W        W88943   6.369   7.936   2.833
22403W        W88944   7.367   5.316   0.936
22404W        W88945  39.195  10.854   0.273
22405W        W88946  22.044   1.380  14.913
22406W        W88947  11.363  30.444  11.123
22407W        W88948  14.327  44.774  14.416
22408W        W88949  15.190  28.336   4.469
22409W        W88950  38.229  20.230  14.465
22410W        W88951   2.721   4.583   4.195
22411W        W88952   5.488   3.199   3.392
22412W        W88953   0.288  21.108  12.955
22413W        W88954  15.239  24.695   1.720
22414W        W88955  23.571   7.824   0.627
22415W        W88956  19.956  20.013   1.799
22416W        W88957  34.902  17.496  13.438
22417W        W88958  23.911  35.532   1.788
22418W        W88959   3.836   7.930   2.811
22419W        W88960  21.761  34.563   0.414
22420W        W88961  25.533  42.426   2.282
22421W        W88962   4.432  27.962  10.066
22422W        W88963  12.592  36.072   0.048
22423W        W88964   4.852  44.709   3.180
22424W        W88965  12.926   1.813   3.516
22425W        W88966  43.549  27.089  12.155
22426W        W88967  30.970  24.062   2.241
22427W        W88968   8.217  19.436   2.691
22428W        W88969  11.904  16.938   5.078
22429W        W88970  12.622   3.853   0.787
22430W        W88971   7.446   2.383  11.117
22431W        W88972  41.888  40.100  13.687
22432W        W88973   0.220   6.854   3.664
22433W        W88974  11.064  19.311  10.519
22434W        W88975  42.403   9.224   0.908
22435W        W88976   5.096  22.958   4.478
22436W        W88977  25.512  39.277   3.642
22437W        W88978  43.269  43.272  12.401
22438W        W88979  40.107   1.852  14.970
22439W        W88980  13.972  32.955   3.722
22440W        W88981  32.681   1.205   1.347
22441W        W88982  44.955  22.007  11.114
22442W        W88983  16.048  15.070  11.255
22443W        W88984  19.150  36.932  14.764
22444W        W88985   7.859  20.545  12.935
22445W        W88986  44.868  12.217   3.051
22446W        W88987  31.847  28.149   2.613
22447W        W88988  26.761  37.410  13.845
22448W        W88989  15.921   6.003   3.285
22449W        W88990  38.905  26.815  14.856
22450W        W88991  14.241  38.380   2.880
22451W        W88992  19.601   1.061  11.104
22452W        W88993   0.346   0.094   3.148
22453W        W88994  13.790  12.300  11.673
22454W        W88995  29.025   3.549   3.524
22455W        W88996  11.689  15.895  11.499
22456W        W88997  33.052  31.574  13.044
22457W        W88998   4.386  12.708   0.862
22458W        W88999  22.946  27.577   0.313
22459W        W89000   7.657   5.990  13.845
22460W        W89001  29.164  29.741  12.046
22461W        W89002  13.064   5.618   2.661
22462W        W89003  19.971  10.730  11.981
22463W        W89004  41.028   8.096  10.607
22464W        W89005   9.341  29.080   4.859
22465W        W89006  43.839  26.976   1.258
22466W        W89007  32.925  21.532  14.341
22467W        W89008  14.226  22.189   5.004
22468W        W89009  35.342  19.789  12.520
22469W        W89010  38.323  16.331  14.020
22470W        W89011  17.052   7.328  14.260
22471W        W89012  42.808  10.781   0.092
22472W        W89013  41.800  36.904  10.672
22473W        W89014  31.561  22.039  13.595
22474W        W89015   3.728  21.502   3.070
22475W        W89016   5.748  19.100  12.932
22476W        W89017   6.574  15.369  14.509
22477W        W89018  13.785  41.230  12.959
22478W        W89019  43.663  34.807  11.581
22479W        W89020  25.694  43.988   0.714
22480W        W89021  26.915  35.551   4.677
22481W        W89022   4.144  44.199  13.562
22482W        W89023   3.398  34.563  14.832
22483W        W89024  43.156  13.904  11.086
22484W        W89025  28.922  13.670  10.572
22485W        W89026  36.362   7.188   2.679
22486W        W89027  38.955  25.118   3.743
22487W        W89028  28.610  21.117  12.369
22488W        W89029  36.181  39.557  10.754
22489W        W89030  41.246  31.508  14.996
22490W        W89031  18.639  20.760   1.849
22491W        W89032  43.590  41.803   1.154
22492W        W89033  18.199  28.495   4.015
22493W        W89034  40.044   7.312  11.939
22494W        W89035  17.776   6.830  13.744
22495W        W89036  43.747  42.328   1.780
22496W        W89037  32.582  12.342   3.081
22497W        W89038  11.392  35.413   0.990
22498W        W89039  34.360  38.803  14.891
22499W        W89040   6.459  19.749  10.218
22500W        W89041  21.160  25.275  12.704
22501W        W89042  12.776   4.157   4.154
22502W        W89043  28.468  11.093  13.864
22503W        W89044  12.877  27.344  14.531
22504W        W89045  15.137   2.341   3.690
22505W        W89046   6.805  24.356   4.592
22506W        W89047  25.993  11.056   2.735
22507W        W89048  28.665  17.821   3.506
22508W        W89049  10.781  14.606  12.346
22509W        W89050   4.134   5.350  11.116
22510W        W89051  39.823  18.100  13.945
22511W        W89052  43.085  34.450   0.342
22512W        W89053  44.301  44.225  12.253
22513W        W89054  11.235  20.749  12.467
22514W        W89055   3.223  13.184  10.791
22515W        W89056  25.852  25.078   4.478
22516W        W89057  44.655   9.709   0.761
22517W        W89058  16.885  12.243   1.402
22518W        W89059  30.521  25.578   3.699
22519W        W89060  41.013  22.540   1.186
22520W        W89061   1.215  21.804  13.561
22521W        W89062  32.176  25.551   2.272
22522W        W89063  23.686   8.226   0.941
22523W        W89064  36.127   8.192  13.298
22524W        W89065  34.937  39.061   5.065
22525W        W89066  14.218  29.883  12.999
22526W        W89067  43.751  28.391  11.900
22527W        W89068  28.105   8.529  11.881
22528W        W89069  41.216   0.236   1.996
22529W        W89070  41.591  27.696  11.249
22530W        W89071  31.707  37.302  14.876
22531W        W89072   2.420  39.754   0.956
22532W        W89073   0.045  12.161  12.562
22533W        W89074  11.030   1.718   1.886
22534W        W89075  42.029  40.812  14.668
22535W        W89076  39.503  12.499   1.302
22536W        W89077   9.417  18.514   2.773
22537W        W89078  24.263  35.386  11.229
22538W        W89079  35.620  12.189  14.868
22539W        W89080  37.930  10.452   0.947
22540W        W89081   3.408   5.308  11.421
22541W        W89082  36.570   1.346  13.416
22542W        W89083  44.555   7.210  11.426
22543W        W89084  29.957  39.363  12.954
22544W        W89085  19.423  24.958  14.427
22545W        W89086  21.547  39.490   2.506
22546W        W89087  16.526  18.160  13.585
22547W        W89088  41.992  36.652  12.016
22548W        W89089  18.032   6.104  14.708
22549W        W89090  44.751  32.123  11.948
22550W        W89091  23.130   5.605   4.011
22551W        W89092  22.593  17.189  12.113
22552W        W89093  33.107  21.228   0.065
22553W        W89094  34.585  44.527   3.236
22554W        W89095   6.312   9.689   1.894
22555W        W89096   6.697  17.710   0.507
22556W        W89097  11.146  25.186   2.943
22557W        W89098  44.819  39.460   1.427
22558W        W89099  36.627  38.768   4.979
22559W        W89100  24.343  19.664  10.338
22560W        W89101  44.282  35.171  13.595
22561W        W89102  41.448  26.443  11.962
22562W        W89103  25.888  30.975   1.974
22563W        W89104  16.303  24.181  12.991
22564W        W89105   1.319  27.033  14.940
22565W        W89106  31.738  33.021  14.415
22566W        W89107  20.150   6.071   4.148
22567W        W89108  37.513  44.172   1.627
22568W        W89109  42.167  19.813  11.752
22569W        W89110  43.527  20.790  14.304
22570W        W89111  32.828  18.541  11.138
22571W        W89112  37.841  11.420  11.117
22572W        W89113  28.951   4.492   1.879
22573W        W89114  43.237  20.072   3.153
22574W        W89115  12.411  30.093   2.238
22575W        W89116  23.265  16.749   1.278
22576W        W89117  37.808   1.478  13.750
22577W        W89118  22.083  28.895  14.925
22578W        W89119  20.575  33.824   2.737
22579W        W89120  30.646   7.796   4.234
22580W        W89121  24.624  10.689   2.897
22581W        W89122   7.140  21.955  12.438
22582W        W89123  10.883  12.310  11.210
22583W        W89124  31.176  34.370  13.441
22584W        W89125   1.013  18.023  14.842
22585W        W89126  18.603  10.759  14.097
22586W        W89127  21.247  15.820  10.258
22587W        W89128  44.703  17.541  14.388
22588W        W89129  21.980   3.017  11.555
22589W        W89130  10.760  10.199   0.356
22590W        W89131  12.961   6.687   0.785
22591W        W89132  37.810   0.055   4.652
22592W        W89133   5.039  21.333  12.049
22593W        W89134  12.258  14.696  14.044
22594W        W89135  15.820   1.540  12.642
22595W        W89136   8.188  18.903   0.872
22596W        W89137  23.259  35.746   4.123
22597W        W89138  37.610   1.639  14.888
22598W        W89139  36.901  30.909   2.273
22599W        W89140  32.666  21.541   1.827
22600W        W89141  32.223  40.518   0.720
22601W        W89142  31.676  25.190   3.359
22602W        W89143  39.839  32.622   4.066
22603W        W89144   8.473  30.629   4.694
22604W        W89145  15.758   9.667  10.278
22605W        W89146  40.476  24.907  10.879
22606W        W89147  29.050  17.787  14.328
22607W        W89148  35.061   3.764  14.439
22608W        W89149  12.322  42.755   0.003
22609W        W89150  28.071  28.450   1.693
22610W        W89151  26.065  36.408   2.581
22611W        W89152  31.819  21.888   0.256
22612W        W89153  32.135  23.647   0.889
22613W        W89154   1.257  10.964   3.179
22614W        W89155   2.363  33.873   2.805
22615W        W89156  26.885   7.325   3.497
22616W        W89157   2.223  13.729  11.491
22617W        W89158   7.063  23.855   2.274
22618W        W89159  40.433   6.352  13.964
22619W        W89160  30.369  20.312  14.498
22620W        W89161  23.676   8.254  12.564
22621W        W89162   2.688  39.416   3.318
22622W        W89163  21.143  28.110   3.703
22623W        W89164  31.061   7.936   0.307
22624W        W89165  25.122  23.706  13.825
22625W        W89166  18.277   7.369   0.357
22626W        W89167  23.369  13.031   0.807
22627W        W89168  11.319   5.657  12.235
22628W        W89169  13.051   3.330  14.464
22629W        W89170  29.844  15.908   4.213
22630W        W89171  15.421  43.324   4.631
22631W        W89172  40.447  40.586  14.005
22632W        W89173  12.926  39.857   0.903
22633W        W89174  22.939  13.627  11.118
22634W        W89175  22.191   4.006   1.398
22635W        W89176  32.406   1.817   2.167
22636W        W89177  16.555  18.573   2.641
22637W        W89178  22.982  43.572  12.542
22638W        W89179  37.871  15.002   2.888
22639W        W89180   2.626  41.536   4.972
22640W        W89181  44.001   3.298   3.103
22641W        W89182  43.786  44.192  11.113
22642W        W89183  35.069   3.285  12.100
22643W        W89184  28.444   1.618   1.666
22644W        W89185  26.288  24.743   3.855
22645W        W89186  42.336  15.495   2.141
22646W        W89187   5.139  41.899  12.170
22647W        W89188  27.268   3.800   2.313
22648W        W89189  29.091  29.567   1.561
22649W        W89190   9.460   1.522   1.669
22650W        W89191  24.116  22.135   4.491
22651W        W89192   5.146  20.923   2.822
22652W        W89193  31.075  14.798   4.060
22653W        W89194  43.639  33.967  12.564
22654W        W89195  14.560  35.676   2.558
22655W        W89196  16.881   4.453  10.670
22656W        W89197  32.602  41.886  13.360
22657W        W89198   3.754  40.804  14.178
22658W        W89199  44.540  34.502  13.457
22659W        W89200  39.026  11.062   4.135
22660W        W89201  21.109  28.620   0.040
22661W        W89202  28.252  24.928   0.445
22662W        W89203  27.995  38.558   4.069
22663W        W89204   8.008  17.888   3.727
22664W        W89205   5.778  36.950  12.145
22665W        W89206  26.987  33.294  14.743
22666W        W89207  27.490  26.824   2.368
22667W        W89208   1.483   4.080  12.182
22668W        W89209  17.253  24.204   4.667
22669W        W89210  38.565  39.072   0.826
22670W        W89211  13.805  15.205   3.323
22671W        W89212  41.538  24.474  12.062
22672W        W89213  32.875  38.004   3.679
22673W        W89214   8.647  39.952   1.302
22674W        W89215   4.311  23.450  13.458
22675W        W89216  29.183  42.428  12.505
22676W        W89217  39.233  10.537  13.898
22677W        W89218   3.424  20.487   3.820
22678W        W89219  39.028   0.623   2.283
22679W        W89220  21.744  17.120   0.473
22680W        W89221   1.857  35.630   2.860
22681W        W89222  38.081  10.265  14.616
22682W        W89223  24.844   6.362  11.856
22683W        W89224  24.059   7.531  10.581
22684W        W89225  24.024   8.170  12.951
22685W        W89226  13.288  30.641  14.932
22686W        W89227  17.308   4.907   1.779
22687W        W89228  22.646  36.385   1.241
22688W        W89229  11.212  28.692  12.903
22689W        W89230  12.188  36.200   2.174
22690W        W89231  40.974   1.508  10.757
22691W        W89232  14.649  17.684  10.723
22692W        W89233  26.343  15.672  10.255
22693W        W89234   0.822  16.461   4.126
22694W        W89235  12.058  15.780   3.344
22695W        W89236   4.219  22.117  13.983
22696W        W89237  18.728  34.383   3.967
22697W        W89238   0.955   5.548  13.004
22698W        W89239  31.456  10.101  12.831
22699W        W89240   4.785  19.144  10.993
22700W        W89241  24.310   3.465  13.439
22701W        W89242  42.045  25.896  12.343
22702W        W89243   4.631   4.455   4.921
22703W        W89244  18.219  24.470  14.911
22704W        W89245   3.029  30.891  11.993
22705W        W89246  22.720  29.915   4.590
22706W        W89247   7.293  32.349  11.595
22707W        W89248  26.511  17.375   4.050
22708W        W89249  16.798   9.062  13.431
22709W        W89250   3.402  41.322  14.357
22710W        W89251  27.387  27.286  14.904
22711W        W89252  15.375   2.947  11.317
22712W        W89253  13.064  15.806  11.651
22713W        W89254  35.098   0.356  12.604
22714W        W89255  14.950  32.279  13.188
22715W        W89256  33.320  31.451  12.391
22716W        W89257  40.566  26.724   4.166
22717W        W89258  18.521  29.894  14.872
22718W        W89259  34.830  23.734   3.249
22719W        W89260   3.973  44.271  11.201
22720W        W89261  16.307   9.438  13.007
22721W        W89262  43.855   0.102  12.028
22722W        W89263  20.526  36.110  13.883
22723W        W89264  16.632  36.432   3.716
22724W        W89265  21.789   6.163  13.517
22725W        W89266  12.578  43.550   0.464
22726W        W89267  30.289  14.271   4.974
22727W        W89268  36.578  22.189   1.295
22728W        W89269  43.940   8.062  11.591
22729W        W89270  31.956   1.190   0.785
22730W        W89271  22.054   5.905   2.123
22731W        W89272  17.234  24.904  11.681
22732W        W89273  26.404   0.014  14.774
22733W        W89274  25.985  27.508  11.484
22734W        W89275  18.755  24.013   2.369
22735W        W89276  10.576  12.126   0.747
22736W        W89277  25.936  38.443   3.896
22737W        W89278  43.802  13.232   4.968
22738W        W89279  12.788   3.097  12.952
22739W        W89280  39.300  22.067   4.122
22740W        W89281   8.410   6.950   3.884
22741W        W89282  38.689  39.381  13.742
22742W        W89283  19.774  30.053   3.891
22743W        W89284  38.577  41.994  10.879
22744W        W89285  24.588  35.855   0.882
22745W        W89286   5.517  41.003  13.355
22746W        W89287  21.651  21.651   0.410
22747W        W89288  38.899  26.119  13.929
22748W        W89289  34.674  13.327  12.461
22749W        W89290  25.596  42.818  12.050
22750W        W89291  34.824  19.545   4.562
22751W        W89292  32.930   6.279   4.566
22752W        W89293   4.418  13.905   0.611
22753W        W89294  41.336  30.034   2.702
22754W        W89295  35.312  36.896   2.647
22755W        W89296  35.509  18.392   1.950
22756W        W89297  17.084  15.755  11.232
22757W        W89298  35.513  30.152  14.838
22758W        W89299   3.772  40.860  11.444
22759W        W89300   4.255  27.570  13.052
22760W        W89301  12.587   2.743  14.979
22761W        W89302  25.680  19.565  13.304
22762W        W89303  23.172  33.831  13.813
22763W        W89304  23.542  38.476  14.034
22764W        W89305  25.936  43.366  12.487
22765W        W89306   9.688  17.669   2.723
22766W        W89307  24.740  13.123   0.924
22767W        W89308  12.137   2.918   2.247
22768W        W89309  44.469   8.474   0.304
22769W        W89310   8.873  11.316   0.636
22770W        W89311  34.834  37.461   3.380
22771W        W89312  32.389   2.213  12.610
22772W        W89313   7.070  15.712   1.340
22773W        W89314   3.080  25.458   9.998
22774W        W89315  26.102  26.644  12.870
22775W        W89316  34.105  22.182   3.146
22776W        W89317  15.498  21.286  14.449
22777W        W89318  37.891  25.638   0.414
22778W        W89319  27.368  10.695  14.700
22779W        W89320  32.475   7.307  12.644
22780W        W89321  13.725  18.568   5.313
22781W        W89322  28.092  23.470   0.178
22782W        W89323  41.676  28.331  10.163
22783W        W89324  13.181  26.275  13.305
22784W        W89325  27.562  31.679  14.086
22785W        W89326  27.999  33.511   0.464
22786W        W89327  15.854  26.731  13.803
22787W        W89328  21.676  14.683   4.401
22788W        W89329   5.320   4.694   2.267
22789W        W89330  26.493  31.340  12.327
22790W        W89331  26.969  22.100   4.176
22791W        W89332  20.172   9.136   3.406
22792W        W89333  26.085   9.096  10.645
22793W        W89334  25.569  17.158  10.577
22794W        W89335  39.888  26.268   2.696
22795W        W89336  42.997  34.110  10.694
22796W        W89337  13.784   9.645   0.228
22797W        W89338  29.521  36.596   2.695
22798W        W89339  25.750  15.166  10.701
22799W        W89340  41.030   3.108   3.814
22800W        W89341  19.173   7.871   4.105
22801W        W89342  21.270  20.356  13.022
22802W        W89343  29.905  35.462  11.553
22803W        W89344  15.056  12.178   3.759
22804W        W89345  37.663  30.504   2.809
22805W        W89346  16.673  12.783  13.558
22806W        W89347  33.718  18.874   2.394
22807W        W89348  30.486  20.085   3.832
22808W        W89349  12.995   4.932   1.492
22809W        W89350  21.250  30.065   2.782
22810W        W89351  10.354   7.797   5.176
22811W        W89352  22.278  31.642  10.801
22812W        W89353  27.114   9.484   0.610
22813W        W89354  39.864  12.713  12.913
22814W        W89355  20.265  44.280   0.651
22815W        W89356  15.823  44.766   0.884
22816W        W89357  28.452  25.719  11.967
22817W        W89358  25.404  36.000   2.178
22818W        W89359  17.387   1.659  14.963
22819W        W89360  31.676  26.247   4.254
22820W        W89361   0.391  40.285   2.205
22821W        W89362  20.552  29.890   4.147
22822W        W89363  28.115  37.955   0.475
22823W        W89364  24.653  20.769  12.539
22824W        W89365  15.191   6.729  11.164
22825W        W89366  32.455  13.183   1.340
22826W        W89367   3.683  16.145   4.250
22827W        W89368  21.596  11.398  11.508
22828W        W89369  29.068  37.089   0.326
22829W        W89370  14.291  25.218   2.260
22830W        W89371  31.478   5.305  14.579
22831W        W89372  18.521  29.737   4.103
22832W        W89373  12.418  27.667   0.202
22833W        W89374   3.924   0.548   3.732
22834W        W89375  30.585   4.418  13.382
22835W        W89376   7.478   6.596   3.312
22836W        W89377  20.574  10.711   4.521
22837W        W89378  35.885  21.076  12.592
22838W        W89379   5.839  23.041  14.300
22839W        W89380  34.337  27.051  11.975
22840W        W89381   6.898  32.144  11.245
22841W        W89382  29.420  33.519  10.796
22842W        W89383  23.310  40.827  12.917
22843W        W89384   0.953  30.372   3.075
22844W        W89385  25.709  11.709  11.945
22845W        W89386  13.952  43.921   0.130
22846W        W89387  17.880  18.365   3.722
22847W        W89388  30.613  38.501   3.259
22848W        W89389  36.978  31.019   0.351
22849W        W89390  31.078   0.276   1.592
22850W        W89391  38.878   0.271  10.169
22851W        W89392   3.246   1.438   0.064
22852W        W89393  42.279  42.387  12.393
22853W        W89394  11.952   2.186  13.327
22854W        W89395  27.655   3.197   1.951
22855W        W89396  30.821  42.863   4.132
22856W        W89397  31.165  11.078  10.596
22857W        W89398   4.878   7.037  10.241
22858W        W89399  14.869  13.707  11.821
22859W        W89400   1.814  35.957  11.877
22860W        W89401   4.469  33.281   2.586
22861W        W89402  16.797  44.489  10.585
22862W        W89403  32.025  41.368   1.177
22863W        W89404  41.441  10.410  12.803
22864W        W89405  11.034  12.638   1.401
22865W        W89406  36.987   6.152  12.928
22866W        W89407  30.453  18.520  10.786
22867W        W89408  43.196  13.057  10.761
22868W        W89409  28.274  32.000   3.171
22869W        W89410  16.179   4.248   0.197
22870W        W89411   9.752  32.572  13.458
22871W        W89412  43.598  32.883  11.151
22872W        W89413   5.695   4.474  13.888
22873W        W89414  17.649  32.021   0.439
22874W        W89415  13.728  17.176   3.789
22875W        W89416   2.694  26.925   3.338
22876W        W89417   8.253  23.272  11.493
22877W        W89418  40.221  17.868   9.942
22878W        W89419  10.612  11.726   4.582
22879W        W89420  41.872  22.308  12.995
22880W        W89421  35.409  44.700   3.415
22881W        W89422   2.018  16.048  11.153
22882W        W89423  13.284  29.576  11.905
22883W        W89424   6.301   0.397   3.272
22884W        W89425  39.783   4.704   4.484
22885W        W89426  44.236  35.545   1.733
22886W        W89427  24.691  11.158  11.284
22887W        W89428  20.993   9.656   2.934
22888W        W89429  11.715   5.994  12.129
22889W        W89430  13.305  21.582   0.724
22890W        W89431  36.461  36.823   0.758
22891W        W89432   2.287  28.230  10.814
22892W        W89433  35.504  10.265   1.859
22893W        W89434  41.047  29.681  13.916
22894W        W89435  31.666  12.940   2.361
22895W        W89436  18.267  27.898  11.196
22896W        W89437   0.244   9.155  13.393
22897W        W89438  43.414  13.861   0.262
22898W        W89439   4.760  15.549   4.375
22899W        W89440   3.712  24.567  12.704
22900W        W89441  26.127   8.164   0.404
22901W        W89442  10.247   3.222   4.716
22902W        W89443  25.229   8.211  13.022
22903W        W89444  39.293  18.364  14.884
22904W        W89445  14.189   8.187   1.827
22905W        W89446  22.522  24.916  12.427
22906W        W89447  37.297  33.264   3.612
22907W        W89448  32.165  27.523   0.412
22908W        W89449  38.844  32.684   4.059
22909W        W89450  20.767  18.372  10.908
22910W        W89451  28.912  28.534   0.874
22911W        W89452  37.690  25.660  10.706
22912W        W89453  29.685  41.068   4.532
22913W        W89454  21.567  37.726  10.866
22914W        W89455   6.195  41.009  14.025
22915W        W89456  13.191  16.221  14.457
22916W        W89457   3.477   3.771  14.960
22917W        W89458  39.953  37.664   3.330
22918W        W89459  17.598  20.084   1.017
22919W        W89460  29.635  31.658   3.727
22920W        W89461   7.293   5.592   3.248
22921W        W89462  17.527  34.585   3.653
22922W        W89463   1.518  33.257   5.110
22923W        W89464  27.188  33.817   4.678
22924W        W89465  22.263  16.365   0.519
22925W        W89466   6.057  12.415   2.058
22926W        W89467   6.455  30.555  14.865
22927W        W89468  27.115  30.881   4.158
22928W        W89469  25.898  14.657  10.619
22929W        W89470  28.988  10.619  13.417
22930W        W89471  10.996  38.509   9.738
22931W        W89472  27.466   6.103   2.238
22932W        W89473   1.819  41.536  13.385
22933W        W89474   7.954   0.434   0.168
22934W        W89475  21.303  35.822  11.457
22935W        W89476   9.786  10.143   4.578
22936W        W89477  35.005  29.800  13.241
22937W        W89478  14.273  13.777  13.960
22938W        W89479   6.874  20.224   4.537
22939W        W89480  39.746  39.741  12.669
22940W        W89481  31.506  17.100  13.771
22941W        W89482  16.690   9.070   1.428
22942W        W89483   1.931  33.968   3.105
22943W        W89484   9.077  40.686   1.645
22944W        W89485   6.172   9.166   0.750
22945W        W89486  36.376  39.282  14.806
22946W        W89487   5.469  10.321   2.287
22947W        W89488   4.745  18.294   4.574
22948W        W89489  24.227  42.368   0.233
22949W        W89490  33.637   6.868  12.889
22950W        W89491  32.211  13.333  12.049
22951W        W89492  37.741  38.831   2.274
22952W        W89493  22.124  42.055   0.538
22953W        W89494   3.818   0.499  12.206
22954W        W89495  38.558  32.088   0.317
22955W        W89496  12.709   7.199   2.122
22956W        W89497   6.773  20.159  14.981
22957W        W89498  37.443   6.925  12.618
22958W        W89499  35.134   9.102  12.007
22959W        W89500  41.289  44.481  11.840
22960W        W89501  40.334  36.424  11.727
22961W        W89502   2.745   8.945  11.967
22962W        W89503  26.027  23.707  11.582
22963W        W89504  15.564  11.191   0.397
22964W        W89505   9.966   1.855  14.521
22965W        W89506  28.930  27.609   4.645
22966W        W89507  14.382  38.502   4.957
22967W        W89508  17.497  15.278   3.150
22968W        W89509  15.640  16.662  14.525
22969W        W89510  13.145  22.209   4.731
22970W        W89511  38.393   7.980   3.287
22971W        W89512  32.030  44.212   4.556
22972W        W89513  43.918  44.045   4.419
22973W        W89514  21.721  32.255  10.690
22974W        W89515  12.841   1.510   3.095
22975W        W89516  14.382  31.278   1.239
22976W        W89517  19.770  24.546  14.555
22977W        W89518  42.347  31.623   1.071
22978W        W89519  37.592  26.540   2.937
22979W        W89520  18.260  19.974   2.701
22980W        W89521  13.826  33.627  14.444
22981W        W89522  27.632   2.434  10.580
22982W        W89523  42.415  38.396   0.611
22983W        W89524  35.186  39.081  14.450
22984W        W89525  10.569  39.411   0.718
22985W        W89526  15.875  35.264   4.958
22986W        W89527   2.814  42.511  13.321
22987W        W89528  18.036  32.001   1.826
22988W        W89529  14.377  23.514   1.506
22989W        W89530   2.448  12.131   4.630
22990W        W89531  32.557   5.434   4.274
22991W        W89532   6.278  17.864  13.397
22992W        W89533  32.327  12.867  13.464
22993W        W89534   2.972   7.961  10.700
22994W        W89535  17.674  36.445   3.254
22995W        W89536  28.412  22.179   0.538
22996W        W89537  38.230  15.290   1.309
22997W        W89538  23.185  40.064  11.155
22998W        W89539  14.601  42.291   1.872
22999W        W89540  30.105  30.131  14.889
23000W        W89541  10.985  23.866  12.031
23001W        W89542   0.198  42.552  13.503
23002W        W89543  10.208  40.297  12.141
23003W        W89544   5.102  35.226  11.185
23004W        W89545  38.846  34.302   0.819
23005W        W89546  16.621  26.996   2.633
23006W        W89547   2.441  40.308   3.578
23007W        W89548   2.974  42.880  14.973
23008W        W89549  18.291  29.078   4.812
23009W        W89550   3.906  38.327   0.094
23010W        W89551   2.436  20.420  12.350
23011W        W89552  36.037  37.483  11.256
23012W        W89553  42.042  15.549   0.728
23013W        W89554  20.990  18.094  13.939
23014W        W89555  36.988  44.178  11.611
23015W        W89556  38.810  15.338   3.902
23016W        W89557  11.749  15.161   4.661
23017W        W89558  37.740   0.845   3.700
23018W        W89559   3.696  33.777   2.656
23019W        W89560  33.532   3.734   1.492
23020W        W89561   1.208  30.167   1.448
23021W        W89562   5.239  25.117   0.380
23022W        W89563  21.163  25.128  14.982
23023W        W89564   2.547  34.330   3.755
23024W        W89565  31.106  27.120   4.157
23025W        W89566  19.988  40.684  13.367
23026W        W89567   6.389   4.636   2.677
23027W        W89568  39.522  29.646  13.277
23028W        W89569  34.777  24.344  12.899
23029W        W89570  16.227  27.077  13.819
23030W        W89571  16.812   8.789  10.991
23031W        W89572  25.150   9.897   1.826
23032W        W89573  15.583   0.462   1.280
23033W        W89574   4.744   1.065   2.711
23034W        W89575  23.086  44.311   3.739
23035W        W89576  29.387  35.868   1.384
23036W        W89577  29.329  29.847   0.237
23037W        W89578  40.971  15.987   3.581
23038W        W89579   4.886  23.791   2.156
23039W        W89580  35.644  24.970   1.496
23040W        W89581  10.271  17.286   1.298
23041W        W89582   6.602  28.090  13.900
23042W        W89583   9.795  20.459   2.750
23043W        W89584  30.133  38.217  13.936
23044W        W89585  34.414  29.235   1.238
23045W        W89586   0.251  28.583   1.736
23046W        W89587  38.126  33.572   1.288
23047W        W89588  31.734   9.833  11.499
23048W        W89589  28.435  41.417  12.548
23049W        W89590  10.317  22.961   3.001
23050W        W89591   1.956  27.702   4.287
23051W        W89592  11.385  34.769  12.959
23052W        W89593   4.913  31.957   3.880
23053W        W89594   3.881  24.189   5.356
23054W        W89595  25.141  10.660   0.328
23055W        W89596  38.760  21.616  11.567
23056W        W89597  32.858  41.473  12.484
23057W        W89598  35.368   5.883  11.138
23058W        W89599  41.333  28.998   0.270
23059W        W89600  20.844  22.054  14.924
23060W        W89601  22.512  32.539  11.293
23061W        W89602  36.362   9.433   4.143
23062W        W89603   4.734  34.149   3.079
23063W        W89604  42.727  30.162  11.614
23064W        W89605  22.377  39.227  11.647
23065W        W89606  22.956  31.512  14.365
23066W        W89607  26.918  33.088  13.825
23067W        W89608   1.286  11.631  14.427
23068W        W89609  42.501   5.317  11.112
23069W        W89610  11.488  16.186  12.970
23070W        W89611  39.762  12.368  14.894
23071W        W89612  38.033  10.010   3.310
23072W        W89613   7.812  28.841  11.441
23073W        W89614  36.086   7.688  13.439
23074W        W89615  14.109  18.427   3.988
23075W        W89616  33.030   0.960   2.637
23076W        W89617  26.882  22.771  11.184
23077W        W89618   7.758  14.740   0.415
23078W        W89619  24.662  38.619   3.345
23079W        W89620  38.550  27.568  10.749
23080W        W89621  38.407  38.381  13.504
23081W        W89622  11.622  22.973  12.729
23082W        W89623  30.198   1.262  12.131
23083W        W89624  37.445  16.234  14.022
23084W        W89625  31.231  14.029   2.580
23085W        W89626  14.051  30.109   2.735
23086W        W89627  27.955  23.064   4.649
23087W        W89628  12.110  18.356   1.426
23088W        W89629  31.165   7.184  11.045
23089W        W89630  39.193  21.080  12.214
23090W        W89631  18.863  10.634   0.480
23091W        W89632  36.814  25.164   4.506
23092W        W89633   3.935  42.947  13.907
23093W        W89634  37.655  33.041  13.449
23094W        W89635  12.554  23.093   4.648
23095W        W89636  33.972   1.295  13.494
23096W        W89637  24.639  34.403  14.757
23097W        W89638   5.648  11.899   0.299
23098W        W89639  17.582   8.718  13.821
23099W        W89640  13.167  11.773   3.896
23100W        W89641  34.983  10.272   1.800
23101W        W89642  43.076  36.243   0.535
23102W        W89643  30.990  33.583  14.291
23103W        W89644  43.373   6.279   3.011
23104W        W89645  15.892  21.227  12.051
23105W        W89646  11.724  33.977   3.587
23106W        W89647  40.041   5.458   3.797
23107W        W89648   3.798  13.674   2.364
23108W        W89649   1.750  20.953  11.179
23109W        W89650  28.683  16.904   4.458
23110W        W89651  29.939  32.134  10.002
23111W        W89652  11.872  33.930   2.805
23112W        W89653  33.509  13.665  12.000
23113W        W89654  34.402  43.869   3.827
23114W        W89655   2.263  37.499   3.114
23115W        W89656  35.971  28.878  12.091
23116W        W89657  30.405  37.334   2.642
23117W        W89658  14.351  43.328  12.404
23118W        W89659   8.356  33.963  11.495
23119W        W89660  30.362  43.094   4.184
23120W        W89661  21.565   5.799   3.597
23121W        W89662   3.395  34.393   1.539
23122W        W89663  32.417  26.208   4.811
23123W        W89664   3.171  18.090   4.786
23124W        W89665   6.100  21.448  11.968
23125W        W89666  39.782   5.684  13.984
23126W        W89667  18.686  27.292  13.889
23127W        W89668  25.735  14.191  10.773
23128W        W89669  37.621  34.081  12.817
23129W        W89670  44.113  10.664  13.109
23130W        W89671  35.470   1.392   3.189
23131W        W89672  32.707  40.773  11.531
23132W        W89673  34.928  37.336   4.214
23133W        W89674  14.035  43.202  10.943
23134W        W89675   4.779  19.720   5.035
23135W        W89676  43.812  42.183  14.425
23136W        W89677  34.374  29.012   2.178
23137W        W89678  23.651  31.981   1.056
23138W        W89679  33.546  26.323   1.709
23139W        W89680   9.872   0.965   1.301
23140W        W89681  36.354  41.420  12.021
23141W        W89682  32.401  20.666   3.600
23142W        W89683  31.609  30.457   2.217
23143W        W89684  13.189  27.389   3.117
23144W        W89685   8.118   9.098  12.011
23145W        W89686  17.757   0.708   1.128
23146W        W89687  29.571  44.434  12.039
23147W        W89688  37.425  39.601  12.402
23148W        W89689  41.043  10.263  13.104
23149W        W89690  31.031  14.446  14.263
23150W        W89691  21.668  22.835  12.194
23151W        W89692  37.392  40.297   4.593
23152W        W89693   8.159  33.357   1.847
23153W        W89694  21.073  26.525   9.970
23154W        W89695  40.355  11.663   4.022
23155W        W89696   2.296  15.785  10.636
23156W        W89697   9.757  25.113  12.084
23157W        W89698  35.481  44.986  12.608
23158W        W89699  26.107  10.565  13.421
23159W        W89700  24.077  32.154  14.357
23160W        W89701  29.141  43.993  14.493
23161W        W89702  37.436   5.769   1.795
23162W        W89703   4.495  29.678   2.302
23163W        W89704  12.321  24.206  13.790
23164W        W89705  16.299  20.589  13.975
23165W        W89706  24.676  12.419  11.146
23166W        W89707  11.636   3.760   3.863
23167W        W89708  42.530  41.816   0.387
23168W        W89709  24.679  32.207   3.130
23169W        W89710   5.209  32.966   4.481
23170W        W89711   9.723  39.355   2.791
23171W        W89712   3.728   3.878   3.585
23172W        W89713  33.239   4.306   0.211
23173W        W89714  26.321  22.651   4.384
23174W        W89715  12.625  26.900  13.182
23175W        W89716  40.118  35.197  11.158
23176W        W89717  15.841  10.336   2.666
23177W        W89718  39.174  43.360   3.198
23178W        W89719  10.130  43.559  14.884
23179W        W89720  13.530  16.980  13.148
23180W        W89721   8.688  29.271   1.787
23181W        W89722   6.924  41.626  13.616
23182W        W89723  16.874  19.586  13.419
23183W        W89724  23.033  35.841   0.923
23184W        W89725  31.848  17.131  14.150
23185W        W89726   6.342  41.920  13.525
23186W        W89727  39.364  24.068  10.427
23187W        W89728   6.345  36.462   1.315
23188W        W89729  43.397  37.030   1.553
23189W        W89730  20.654  41.853  13.218
23190W        W89731  39.716  11.036   4.094
23191W        W89732  18.136  11.656  11.131
23192W        W89733  38.554  41.025  12.823
23193W        W89734  22.891  12.456   4.549
23194W        W89735  20.490   7.848   4.861
23195W        W89736  39.963  31.572  11.762
23196W        W89737  15.854  22.672   0.747
23197W        W89738  31.515  41.465   2.015
23198W        W89739   9.871  26.120  13.454
23199W        W89740  24.213  20.773  11.120
23200W        W89741  29.663  24.389  13.394
23201W        W89742  32.424  16.625  10.688
23202W        W89743  13.603  25.087   3.968
23203W        W89744  43.562   1.151  14.970
23204W        W89745   9.402   0.246   4.199
23205W        W89746  41.884   3.879  14.927
23206W        W89747  10.612  22.163   2.237
23207W        W89748   8.263  36.126   4.625
23208W        W89749  22.179  41.201  14.309
23209W        W89750  36.195  35.318   4.016
23210W        W89751  38.502  42.136  13.964
23211W        W89752  26.958   8.227  11.464
23212W        W89753  34.065  42.901  13.127
23213W        W89754  19.520  27.013  11.603
23214W        W89755  24.534  12.609  13.940
23215W        W89756  36.816   6.555  13.229
23216W        W89757   1.502  34.140  12.489
23217W        W89758  12.336   2.089  12.067
23218W        W89759  29.996  28.475   1.343
23219W        W89760  39.615  40.777  11.188
23220W        W89761  39.341  39.696   1.941
23221W        W89762  38.489  16.533  14.748
23222W        W89763  33.696  34.086   3.307
23223W        W89764  31.773  12.318  14.999
23224W        W89765   1.243  39.551  10.638
23225W        W89766   8.877   1.370   0.089
23226W        W89767  42.863  14.521  11.689
23227W        W89768   7.328  31.857   2.734
23228W        W89769  18.624   9.883   0.571
23229W        W89770  16.340  11.225   2.312
23230W        W89771  16.728  14.605   1.314
23231W        W89772   5.937  20.178  13.399
23232W        W89773  34.320  25.876   0.220
23233W        W89774  24.575  26.514  13.935
23234W        W89775  26.663  41.692  13.766
23235W        W89776  11.350  18.269   2.664
23236W        W89777   5.518   2.226  13.950
23237W        W89778  10.330  20.277  11.058
23238W        W89779  41.981  17.716   3.174
23239W        W89780  41.762  35.453  11.523
23240W        W89781  39.088   2.936   1.842
23241W        W89782   4.799   6.910  12.517
23242W        W89783  29.319   1.753  14.787
23243W        W89784   8.288  34.759  12.528
23244W        W89785   4.894  28.935   0.163
23245W        W89786  27.633  24.762  12.384
23246W        W89787  37.340  22.348   4.298
23247W        W89788  13.276   5.207  13.744
23248W        W89789  21.955   8.832   3.997
23249W        W89790   5.009  12.637  12.895
23250W        W89791  15.326  25.559  12.982
23251W        W89792   0.119  13.586  13.340
23252W        W89793  15.827  24.185   5.033
23253W        W89794  39.900   1.886  10.408
23254W        W89795  28.532  21.055   1.422
23255W        W89796  31.480  14.124  11.464
23256W        W89797  33.443  26.568   3.675
23257W        W89798   3.194  38.422   1.455
23258W        W89799  38.289   5.444   0.399
23259W        W89800  13.172  11.903   2.143
23260W        W89801  11.764   5.461  12.074
23261W        W89802  17.735  30.857  10.176
23262W        W89803  21.096  39.226   0.408
23263W        W89804  43.225  43.412  13.409
23264W        W89805   7.803  15.714  14.508
23265W        W89806  41.119   1.332  14.615
23266W        W89807  32.928  17.545  13.522
23267W        W89808  44.221  34.202   0.728
23268W        W89809  39.207  28.622   2.729
23269W        W89810  17.239  12.644  12.472
23270W        W89811  44.031   6.612  11.170
23271W        W89812  20.249  27.340  11.232
23272W        W89813   8.220  44.652  12.524
23273W        W89814  41.348  16.625   3.525
23274W        W89815   8.129   1.373   3.292
23275W        W89816  14.499  25.763   3.156
23276W        W89817   6.488  39.535  14.455
23277W        W89818  27.724  31.831   0.839
23278W        W89819  31.572  15.257   0.657
23279W        W89820  16.131  24.183  14.272
23280W        W89821  31.594  32.135   1.434
23281W        W89822  13.249   4.119   2.730
23282W        W89823  19.232  40.271   3.641
23283W        W89824  29.773  12.035  11.820
23284W        W89825  27.649  15.117   3.900
23285W        W89826  15.280  41.423  13.459
23286W        W89827  25.150  39.093  13.460
23287W        W89828  25.681   8.369  12.797
23288W        W89829  44.839  24.623   1.914
23289W        W89830  35.794  19.558   3.710
23290W        W89831  23.559  35.637   2.973
23291W        W89832  26.194  38.224   2.858
23292W        W89833  14.396  11.156  14.858
23293W        W89834  39.555  15.614  14.545
23294W        W89835  19.820   3.016   0.950
23295W        W89836  19.267  10.190   2.295
23296W        W89837  41.841  16.940   4.159
23297W        W89838  25.693  16.726   2.278
23298W        W89839  41.083  30.535  13.381
23299W        W89840  15.687  33.351   3.760
23300W        W89841  28.744   9.148   0.801
23301W        W89842   4.166  19.187  13.047
23302W        W89843   7.308  26.418   3.294
23303W        W89844   3.137  33.957   4.338
23304W        W89845  21.324  36.949  12.854
23305W        W89846  10.114   2.008  14.013
23306W        W89847  18.987   4.752   3.742
23307W        W89848  30.827  10.048   2.209
23308W        W89849  28.150  37.977  14.512
23309W        W89850  27.038   5.189   3.214
23310W        W89851  23.714  28.485  11.872
23311W        W89852   0.557  38.534  14.058
23312W        W89853  12.319  21.135   0.789
23313W        W89854   5.173  18.988  11.278
23314W        W89855  26.006   3.733  13.852
23315W        W89856  36.891  28.430   2.128
23316W        W89857  38.970  26.421   3.127
23317W        W89858  17.023  27.925  11.871
23318W        W89859  36.305   3.484  14.812
23319W        W89860  19.086  33.551  12.708
23320W        W89861  16.392  18.295   5.043
23321W        W89862   3.559  29.482   0.094
23322W        W89863  42.842  13.376  13.936
23323W        W89864  14.143  24.951   3.251
23324W        W89865  21.024   0.311  14.913
23325W        W89866  35.016   4.828   2.600
23326W        W89867  22.771   5.438   1.782
23327W        W89868  12.267  20.449  14.461
23328W        W89869  13.386  39.413   0.472
23329W        W89870  32.156  36.049  12.043
23330W        W89871   9.695   1.680   0.801
23331W        W89872  24.136  35.127   0.265
23332W        W89873  28.476  34.088  13.965
23333W        W89874  28.017  35.467   0.307
23334W        W89875  42.746  11.767   1.908
23335W        W89876  40.919  21.246   3.786
23336W        W89877  36.753  31.648   2.557
23337W        W89878  28.203  42.953  14.922
23338W        W89879  33.691   8.314   2.710
23339W        W89880  19.120  41.292   0.343
23340W        W89881   2.676  25.807  11.020
23341W        W89882  39.728  36.011  11.433
23342W        W89883  43.834  18.348   0.558
23343W        W89884  30.134  18.171  14.709
23344W        W89885  20.635  21.811  14.497
23345W        W89886  15.000  32.637  10.463
23346W        W89887  17.498   3.220  10.758
23347W        W89888  41.041  30.098  12.487
23348W        W89889  12.835  44.067   2.235
23349W        W89890   4.128   7.007   0.815
23350W        W89891  36.376  17.058   1.684
23351W        W89892  35.160  41.433   5.246
23352W        W89893  43.399  16.142   9.955
23353W        W89894   7.828  19.174   1.307
23354W        W89895   5.972  34.676  11.138
23355W        W89896  32.043  44.906   2.857
23356W        W89897  24.264  18.660   3.434
23357W        W89898  39.798  11.388  10.666
23358W        W89899   6.430   8.693   1.732
23359W        W89900  37.320  10.032  10.789
23360W        W89901  37.552  28.182   4.172
23361W        W89902  23.008  30.585   4.601
23362W        W89903  26.551  11.520   1.047
23363W        W89904  27.958  36.950   2.379
23364W        W89905  20.482  37.669  13.410
23365W        W89906  23.445  16.400   1.906
23366W        W89907  30.174   6.703   4.331
23367W        W89908  41.432  39.549  12.941
23368W        W89909  34.896   1.174   0.641
23369W        W89910   6.243  31.442   3.808
23370W        W89911  10.786  28.094   1.111
23371W        W89912  29.939  12.350   3.627
23372W        W89913  37.494   9.260   1.231
23373W        W89914  44.815   6.759  13.823
23374W        W89915  13.161  11.387  14.550
23375W        W89916  36.022   5.240  10.406
23376W        W89917  37.272  28.329   1.698
23377W        W89918  29.799  28.083   1.899
23378W        W89919   7.451  41.359  10.582
23379W        W89920  25.498   5.729   4.523
23380W        W89921  16.820  31.692  12.074
23381W        W89922  13.337  17.972   0.785
23382W        W89923   2.652   4.217  14.858
23383W        W89924  10.304  37.993  12.943
23384W        W89925  17.993  13.110   0.272
23385W        W89926  19.628  22.297  10.682
23386W        W89927   6.428  26.668  13.071
23387W        W89928  43.903   4.385   0.479
23388W        W89929  21.666   3.513   3.230
23389W        W89930  41.928   6.191   3.460
23390W        W89931  33.770  25.993  12.562
23391W        W89932  37.946  26.110  10.608
23392W        W89933   6.468   9.048  12.528
23393W        W89934  26.610   1.262  10.309
23394W        W89935  34.620  31.674   0.921
23395W        W89936  29.141  17.040  10.992
23396W        W89937  19.887  36.362   5.081
23397W        W89938  15.650  16.956   4.052
23398W        W89939   1.763  37.510  11.724
23399W        W89940  21.254  29.369  11.930
23400W        W89941  13.245   2.171   1.816
23401W        W89942   9.200  37.026   3.077
23402W        W89943  11.190  36.832   1.549
23403W        W89944  25.673  19.687  13.841
23404W        W89945  41.493  20.542   3.141
23405W        W89946   9.433  32.458  11.200
23406W        W89947  35.026  22.482  13.604
23407W        W89948  39.793  44.671  12.276
23408W        W89949  15.783  13.921   2.693
23409W        W89950  19.207   3.866  10.861
23410W        W89951   4.989  16.238   2.704
23411W        W89952   3.655  17.781   1.887
23412W        W89953  10.627  20.816   4.806
23413W        W89954  23.186  34.486   2.163
23414W        W89955  32.786  31.268   4.148
23415W        W89956  22.072  27.606  10.884
23416W        W89957  28.555  38.328   0.794
23417W        W89958   6.505  27.624   3.404
23418W        W89959   2.655  37.183   1.409
23419W        W89960   6.072  19.600   4.601
23420W        W89961   4.462  34.158  12.648
23421W        W89962   9.116  14.087  13.550
23422W        W89963  34.663  15.251  14.118
23423W        W89964  29.912   1.194  13.431
23424W        W89965   5.939   7.944  12.914
23425W        W89966  23.583  32.626   0.875
23426W        W89967  15.884   2.892  11.369
23427W        W89968  14.618  35.088   0.632
23428W        W89969  10.158   2.743   4.517
23429W        W89970  30.931   7.376   4.290
23430W        W89971   7.997  19.812  10.690
23431W        W89972  22.593  36.182   4.599
23432W        W89973  28.021  27.955  14.579
23433W        W89974   1.801  13.617  13.957
23434W        W89975  33.064   6.022   4.091
23435W        W89976  13.525  28.417   3.216
23436W        W89977  10.810  19.947  12.933
23437W        W89978   5.908   5.202   9.851
23438W        W89979  23.431   2.360   2.718
23439W        W89980   3.126  37.082   1.235
23440W        W89981  42.765  19.703   0.715
23441W        W89982  17.056  18.554   2.775
23442W        W89983  37.686  41.492  10.221
23443W        W89984  28.293  29.069  12.977
23444W        W89985  40.963  43.517  14.184
23445W        W89986  12.601  12.613   3.262
23446W        W89987   4.826  37.100  10.543
23447W        W89988  13.569  18.135   2.186
23448W        W89989  19.176  13.395   9.857
23449W        W89990  31.700   6.733  10.448
23450W        W89991  42.067  44.730   4.279
23451W        W89992  13.107  33.447  14.321
23452W        W89993  15.594  23.027  13.903
23453W        W89994  35.884   5.454  13.832
23454W        W89995   8.045   6.111  14.238
23455W        W89996  42.087  43.374   0.279
23456W        W89997  28.777   2.415  12.288
23457W        W89998   9.222  41.826  13.025
23458W        W89999  15.589  22.796  12.990
23459W        W90000   3.262   7.488  12.812
23460W        W90001  32.036  37.354   2.240
23461W        W90002  31.132  32.315  11.575
23462W        W90003  34.048  35.084   0.588
23463W        W90004  26.938  28.112  11.109
23464W        W90005  21.524  33.835  12.514
23465W        W90006   2.733   0.043   0.870
23466W        W90007  44.855  26.742  13.576
23467W        W90008  25.600   7.837   2.902
23468W        W90009  39.750  35.554  11.199
23469W        W90010  43.391  15.245   1.871
23470W        W90011  15.639  27.581   2.397
23471W        W90012  12.035   9.245  10.741
23472W        W90013   6.329  22.933  11.161
23473W        W90014  13.132  43.594   4.203
23474W        W90015  14.989  18.775  11.524
23475W        W90016  34.764  23.660   4.546
23476W        W90017  14.906  34.522   2.559
23477W        W90018  21.504  35.619   3.142
23478W        W90019  20.069  37.978  13.470
23479W        W90020   2.872  36.638   2.862
23480W        W90021  11.581  30.068  12.245
23481W        W90022  18.743   9.598   4.515
23482W        W90023  26.601  17.365   2.337
23483W        W90024  37.039  39.580   1.040
23484W        W90025  25.002  29.958   4.545
23485W        W90026   3.396  31.147   2.938
23486W        W90027   4.853   7.479   2.373
23487W        W90028  42.995  26.577  14.813
23488W        W90029  16.731  21.986  12.056
23489W        W90030  29.780  14.789  10.710
23490W        W90031   3.512  30.598   1.334
23491W        W90032   1.396   8.773   0.517
23492W        W90033   2.183  42.399   4.099
23493W        W90034  14.612  41.054  10.590
23494W        W90035  12.411  32.880   9.759
23495W        W90036  17.628   3.216   2.733
23496W        W90037  13.769  30.385   2.312
23497W        W90038  30.011  28.210  11.927
23498W        W90039   2.723   2.824  14.351
23499W        W90040  35.403  13.778   2.048
23500W        W90041  27.620   6.209  11.809
23501W        W90042  39.574  42.882  12.156
23502W        W90043  32.132  33.931   1.858
23503W        W90044  25.109  34.467  14.397
23504W        W90045   0.029   0.298  12.149
23505W        W90046  14.785  13.746   4.677
23506W        W90047  25.092  31.293   2.914
23507W        W90048  35.829  13.045  14.859
23508W        W90049   3.586   4.934  10.581
23509W        W90050  26.173  36.023  12.653
23510W        W90051  30.524   7.249  13.241
23511W        W90052   3.653  23.519  12.939
23512W        W90053   2.997  11.800  12.141
23513W        W90054  14.993  33.120   3.636
23514W        W90055  32.305   3.863   3.657
23515W        W90056   2.558  26.110  14.272
23516W        W90057  34.455  32.230  14.531
23517W        W90058  31.794   2.759   5.059
23518W        W90059   9.688  32.897  11.154
23519W        W90060   2.173  39.460   3.089
23520W        W90061  37.625  33.629  12.086
23521W        W90062  26.463  13.140   2.880
23522W        W90063   4.510   7.876   3.223
23523W        W90064  25.615  28.009   2.802
23524W        W90065   8.744  43.180  11.962
23525W        W90066  37.485  36.497   3.884
23526W        W90067  41.629   2.823   3.015
23527W        W90068  25.012  34.857  13.549
23528W        W90069  36.341  29.313   3.183
23529W        W90070   8.703   2.726  11.878
23530W        W90071  20.509   7.165   1.385
23531W        W90072  12.301   7.798   3.564
23532W        W90073  34.444   0.547  11.421
23533W        W90074  13.811  40.746  13.127
23534W        W90075   0.633  29.675  12.923
23535W        W90076  38.250  34.999   4.129
23536W        W90077  30.648   4.834  11.111
23537W        W90078  23.728  22.504  12.475
23538W        W90079  21.316  28.136   0.023
23539W        W90080  23.733   2.906  14.386
23540W        W90081  20.168  27.774  14.363
23541W        W90082   8.570   9.740   4.823
23542W        W90083  28.942  35.996   2.616
23543W        W90084  37.382  36.350  13.467
23544W        W90085  37.636   8.075   1.220
23545W        W90086  24.178  16.846   0.522
23546W        W90087  39.788   2.735  11.470
23547W        W90088  38.019  23.557  10.322
23548W        W90089   3.984  16.115   1.736
23549W        W90090   3.707   1.813  13.079
23550W        W90091  11.237  16.828   2.169
23551W        W90092  26.273  38.045  12.468
23552W        W90093  31.604   5.693   0.320
23553W        W90094   9.533  27.387   3.576
23554W        W90095  33.632  32.415  13.058
23555W        W90096  31.430  37.040  12.620
23556W        W90097  18.779  32.499   3.813
23557W        W90098  22.679  19.039   0.394
23558W        W90099  29.855  22.130  14.495
23559W        W90100  30.054  27.108   0.114
23560W        W90101  17.395  41.046  13.913
23561W        W90102  24.187  11.020  11.167
23562W        W90103   4.786  43.518   1.790
23563W        W90104  20.743  14.070   1.381
23564W        W90105  33.392  14.657   2.629
23565W        W90106  20.751  22.799  14.823
23566W        W90107   0.391  42.260  14.375
23567W        W90108  17.943  35.447  13.628
23568W        W90109  26.046  18.123   1.316
23569W        W90110  40.829  20.153  11.167
23570W        W90111  31.706  28.622   2.435
23571W        W90112  18.500   8.215  14.482
23572W        W90113  42.568  29.130   3.140
23573W        W90114   7.603  25.439  13.410
23574W        W90115  23.074  44.921   0.919
23575W        W90116  15.042  21.642   0.610
23576W        W90117   3.842  30.562  11.973
23577W        W90118  24.202  20.098   3.666
23578W        W90119   3.238  40.865  11.614
23579W        W90120   8.336  44.135   3.484
23580W        W90121  33.122  31.135   3.772
23581W        W90122  40.472  30.252  14.135
23582W        W90123  16.148  44.905   3.752
23583W        W90124   7.292  36.984   1.491
23584W        W90125  26.558  11.365  12.575
23585W        W90126  14.293  21.454  11.214
23586W        W90127  25.758   8.627  10.709
23587W        W90128  16.365  13.474   1.886
23588W        W90129  18.322  37.007  12.101
23589W        W90130  13.948  43.913  11.213
23590W        W90131   4.184  37.163   0.871
23591W        W90132  26.864  30.141  13.500
23592W        W90133   1.233  14.909  10.765
23593W        W90134  24.299  34.094  12.982
23594W        W90135  32.644  11.657  10.265
23595W        W90136  41.429  37.605   4.483
23596W        W90137  28.473  17.271   2.140
23597W        W90138  32.568  13.281   0.450
23598W        W90139  32.447  29.688   1.381
23599W        W90140  30.357  26.085   1.936
23600W        W90141  27.238  44.449  13.922
23601W        W90142  24.952   1.232   1.920
23602W        W90143   9.198  18.236  12.905
23603W        W90144  13.132   9.758  11.962
23604W        W90145  18.604  41.878   1.000
23605W        W90146  38.414  44.581  11.137
23606W        W90147  35.819  32.916  14.559
23607W        W90148  41.397   9.275   2.235
23608W        W90149  34.139  34.108   0.448
23609W        W90150  27.013   6.226   4.504
23610W        W90151   2.269  23.472   0.387
23611W        W90152  21.610  31.042   4.837
23612W        W90153  19.440  16.491   1.375
23613W        W90154  23.976  40.278   0.783
23614W        W90155  11.189   8.599   2.106
23615W        W90156   0.741  18.644  11.895
23616W        W90157   3.193  21.494   3.802
23617W        W90158  14.232  31.967  14.001
23618W        W90159  32.127   3.004   2.263
23619W        W90160  26.430  29.471   3.011
23620W        W90161  14.634  26.606   1.783
23621W        W90162   0.572  21.583  10.597
23622W        W90163  22.296  34.346  13.419
23623W        W90164   2.870  34.823  13.293
23624W        W90165  32.680  23.606  12.360
23625W        W90166   6.397  32.202  13.661
23626W        W90167  14.047   1.735   2.373
23627W        W90168  31.980  42.465   3.371
23628W        W90169  17.398  38.397   2.351
23629W        W90170  12.750   2.918   0.455
23630W        W90171  28.897  43.908   0.986
23631W        W90172   3.774  34.662  11.504
23632W        W90173  33.053   5.852   3.590
23633W        W90174  37.123   9.243  11.237
23634W        W90175  17.133  10.355  14.465
23635W        W90176  31.564  10.252   3.349
23636W        W90177  38.189  27.199   1.349
23637W        W90178   1.717  21.042  14.879
23638W        W90179  35.576   5.305   3.142
23639W        W90180  30.026   2.497  14.816
23640W        W90181   4.158  36.541   2.458
23641W        W90182  24.467  40.103  14.867
23642W        W90183  34.603  20.771  14.054
23643W        W90184  41.525  24.697  13.442
23644W        W90185  18.758  34.095  14.399
23645W        W90186  30.915   1.810  12.700
23646W        W90187  12.742  28.086   0.280
23647W        W90188  25.633  31.373  13.292
23648W        W90189  13.190  14.961  12.103
23649W        W90190  44.523  16.770  12.023
23650W        W90191  10.910  34.783  11.623
23651W        W90192  41.880  28.620  10.975
23652W        W90193   4.094  40.759   3.541
23653W        W90194   8.893  32.007  13.355
23654W        W90195  27.977  23.494  14.654
23655W        W90196  15.152   9.205  10.723
23656W        W90197  10.836  25.173  11.701
23657W        W90198  41.641   9.751   0.390
23658W        W90199  14.318  29.165  10.716
23659W        W90200  36.235  21.291  11.660
23660W        W90201  11.679  43.023  12.027
23661W        W90202  13.259  29.274  11.488
23662W        W90203  20.501  10.395  11.418
23663W        W90204  37.631   7.373  14.281
23664W        W90205  24.058  44.052  10.335
23665W        W90206   7.342  38.944  11.652
23666W        W90207  42.219   7.606  11.668
23667W        W90208  38.695  24.007   3.838
23668W        W90209  27.459  41.125   2.916
23669W        W90210   7.366  23.711  10.197
23670W        W90211   2.905  43.575   1.709
23671W        W90212  19.916  39.793   2.450
23672W        W90213   8.632  43.245   1.250
23673W        W90214   2.337   5.195  13.963
23674W        W90215  14.851  27.198   0.211
23675W        W90216  21.898  21.173   0.196
23676W        W90217  31.931  29.513   0.229
23677W        W90218  36.303  34.070  14.815
23678W        W90219  41.300   8.337  11.224
23679W        W90220  19.437  16.837   2.519
23680W        W90221  41.504  34.318  11.263
23681W        W90222  21.738  37.514   1.392
23682W        W90223  35.029  22.269   1.376
23683W        W90224   8.450   1.981   4.108
23684W        W90225   0.022  20.628   1.939
23685W        W90226  30.651  22.448  13.965
23686W        W90227  39.492  27.840  13.351
23687W        W90228   3.820   2.932   2.418
23688W        W90229   4.333  29.484  12.462
23689W        W90230  40.659  42.534   0.260
23690W        W90231  44.769  25.258   0.126
23691W        W90232   9.294  14.326  13.066
23692W        W90233  43.979  35.291   3.601
23693W        W90234  35.722   5.851   2.408
23694W        W90235  24.705  37.279   2.982
23695W        W90236  11.142  29.095  10.757
23696W        W90237  26.726  40.509   4.496
23697W        W90238   6.871   1.030   2.945
23698W        W90239  42.776  11.844  12.421
23699W        W90240  10.206  39.011  14.813
23700W        W90241  33.684  24.558   1.772
23701W        W90242   3.901   2.592   3.477
23702W        W90243   2.933  27.492   1.787
23703W        W90244  15.056   9.285   4.044
23704W        W90245   3.684  36.820  12.497
23705W        W90246   4.346  38.094  12.119
23706W        W90247  32.231   9.129  12.397
23707W        W90248   5.875   9.741   0.069
23708W        W90249   9.057  15.043   2.198
23709W        W90250   5.941   8.782  13.204
23710W        W90251  36.339  30.110   3.988
23711W        W90252  11.244  44.897   3.135
23712W        W90253  15.136  30.576  14.552
23713W        W90254  28.527   2.408   2.336
23714W        W90255   4.983   8.801  11.679
23715W        W90256  33.648  17.721  10.797
23716W        W90257  35.071   6.554   2.440
23717W        W90258  38.344  22.628  12.484
23718W        W90259  43.719   6.669  11.572
23719W        W90260  20.841  30.363  14.002
23720W        W90261  14.940  21.174  11.250
23721W        W90262  14.853   8.434  12.101
23722W        W90263  43.400   1.891   3.557
23723W        W90264  22.619  22.339  11.068
23724W        W90265  43.266   2.002   2.260
23725W        W90266  15.715  33.227   1.733
23726W        W90267   5.987  14.738   3.967
23727W        W90268  20.823  13.531   4.923
23728W        W90269  29.605  30.715   2.169
23729W        W90270  40.902   6.176   0.254
23730W        W90271  38.402  35.292  10.721
23731W        W90272  17.135  14.147   0.011
23732W        W90273   9.898  12.380   0.381
23733W        W90274  43.608   8.650  13.318
23734W        W90275  15.693   7.181  14.750
23735W        W90276  34.627  27.054   4.148
23736W        W90277  27.933  41.378  13.906
23737W        W90278  10.082  16.112   2.542
23738W        W90279   0.390  11.269  13.060
23739W        W90280  31.995  28.509  11.251
23740W        W90281  15.082  29.661   0.344
23741W        W90282  37.616   4.971  11.506
23742W        W90283  11.302  41.337   0.794
23743W        W90284  39.416  21.623  10.584
23744W        W90285  42.924  17.505  13.265
23745W        W90286   1.308   4.350   4.283
23746W        W90287  18.165  12.256   1.757
23747W        W90288   6.663  22.364   3.869
23748W        W90289   9.803   2.283  11.411
23749W        W90290  11.877  39.759   1.814
23750W        W90291  31.454  25.491   1.379
23751W        W90292  30.522  14.289  13.768
23752W        W90293  39.228  21.613  11.162
23753W        W90294  14.213   8.271   2.809
23754W        W90295  41.542  40.563   2.874
23755W        W90296  35.533  36.820   0.860
23756W        W90297   6.687   0.025   3.236
23757W        W90298   4.215  28.042  12.823
23758W        W90299  15.609  30.080   4.829
23759W        W90300  16.140  23.522  13.477
23760W        W90301  42.239  22.837  11.684
23761W        W90302  22.476  40.928   5.082
23762W        W90303   3.768  15.446  11.247
23763W        W90304  31.921  31.403  11.092
23764W        W90305  28.438   4.932  12.146
23765W        W90306  38.436  12.252   3.117
23766W        W90307   5.877  10.797   3.637
23767W        W90308  16.202  19.743  11.986
23768W        W90309   4.381   3.205  11.584
23769W        W90310   9.958   1.492   0.410
23770W        W90311  22.309  11.309  13.462
23771W        W90312  28.866  44.497  11.997
23772W        W90313  35.947  18.730   1.285
23773W        W90314  13.683   2.932  13.772
23774W        W90315  13.470  19.285   3.957
23775W        W90316   0.514  23.047  11.112
23776W        W90317  19.688   9.036   0.041
23777W        W90318  25.120  38.001  10.693
23778W        W90319  33.933  36.910   1.198
23779W        W90320  18.733  13.115  10.649
23780W        W90321   3.473  20.723   3.368
23781W        W90322  23.660  21.129  12.158
23782W        W90323   8.277  37.082  14.862
23783W        W90324  13.058  16.322   3.728
23784W        W90325  15.583  37.718  11.929
23785W        W90326  18.507  19.524   0.898
23786W        W90327  39.782   9.474  13.039
23787W        W90328   6.223  23.536   4.756
23788W        W90329  26.519  31.306  13.276
23789W        W90330  17.298  19.487  14.078
23790W        W90331  41.458   2.789   3.499
23791W        W90332  11.147  11.722  14.552
23792W        W90333  29.474  13.557   2.527
23793W        W90334   2.414  41.676   3.741
23794W        W90335  34.886  15.076   2.703
23795W        W90336  28.483  28.478  12.138
23796W        W90337  44.412  31.441   3.167
23797W        W90338   8.319  14.294  14.880
23798W        W90339  20.502  10.357   3.458
23799W        W90340  28.922  22.677   0.770
23800W        W90341   7.647  13.645   4.940
23801W        W90342  27.378  23.525   2.391
23802W        W90343  39.382  23.485   0.448
23803W        W90344  32.022  40.606  12.977
23804W        W90345  24.140  21.722   3.394
23805W        W90346   0.480  42.722   3.154
23806W        W90347  34.822   1.212  10.710
23807W        W90348  18.641   8.822   4.971
23808W        W90349  18.621  23.348  13.926
23809W        W90350  40.063  28.191  12.016
23810W        W90351  42.826  14.748  10.755
23811W        W90352  39.867   3.209  14.694
23812W        W90353   9.912  19.204   0.465
23813W        W90354   6.349  38.837  13.088
23814W        W90355  30.164  11.128   3.115
23815W        W90356  34.888  14.680  10.716
23816W        W90357   3.436  14.668   1.386
23817W        W90358  35.447  32.520  13.397
23818W        W90359   5.854  30.516  13.567
23819W        W90360  37.402  32.088  11.655
23820W        W90361  44.461   6.758   4.594
23821W        W90362   3.206  37.519  14.384
23822W        W90363   8.846  25.288  11.917
23823W        W90364  44.290  24.719  12.529
23824W        W90365  21.215  12.305   1.778
23825W        W90366   2.537  38.417  12.046
23826W        W90367  37.266  39.837  14.834
23827W        W90368   2.051  10.207   1.145
23828W        W90369  43.000   8.734   2.300
23829W        W90370  21.052  30.080   2.156
23830W        W90371  24.095  42.457  12.697
23831W        W90372  21.908  28.789   3.876
23832W        W90373  18.138  36.251   2.731
23833W        W90374  27.511   7.353   1.837
23834W        W90375  25.491  24.693  12.954
23835W        W90376  14.218   6.133   0.217
23836W        W90377   3.285   0.335  12.984
23837W        W90378  31.918   0.978   0.185
23838W        W90379  43.115  30.519  13.410
23839W        W90380  28.507  21.930  12.434
23840W        W90381  31.578  26.965   3.362
23841W        W90382  22.133   4.035  11.545
23842W        W90383  44.753  16.819  12.528
23843W        W90384   7.825  22.010   4.572
23844W        W90385   2.949  17.841  14.257
23845W        W90386  19.872  33.010  11.296
23846W        W90387  20.587  23.459   2.440
23847W        W90388  21.935   9.285   0.729
23848W        W90389  16.299  34.873  13.082
23849W        W90390  32.065  39.427   3.374
23850W        W90391   5.732  10.375   2.731
23851W        W90392  22.043  40.091  12.704
23852W        W90393  28.562  37.029   0.406
23853W        W90394  29.641  29.812   3.251
23854W        W90395  37.421  10.300   0.299
23855W        W90396  26.627   3.452   0.922
23856W        W90397  10.735  10.506  10.823
23857W        W90398   2.257  27.682  10.804
23858W        W90399  24.159   3.741  11.597
23859W        W90400  27.019  25.036  14.110
23860W        W90401  22.167  27.175   2.924
23861W        W90402  12.940  30.120   5.101
23862W        W90403  34.727  31.979  13.428
23863W        W90404  10.042  40.755   0.979
23864W        W90405  40.641   2.684  14.852
23865W        W90406  29.422   8.144  13.671
23866W        W90407  44.619  18.753   4.547
23867W        W90408  27.996  34.880   2.452
23868W        W90409  42.397  23.584  11.141
23869W        W90410  15.799  27.708   0.827
23870W        W90411  33.288  35.642   0.329
23871W        W90412  23.460  40.619   1.641
23872W        W90413   4.632  43.490   2.711
23873W        W90414  40.130  18.638   1.278
23874W        W90415  13.072  18.236   0.416
23875W        W90416  32.224  40.620  14.388
23876W        W90417  40.416  41.048  13.741
23877W        W90418   0.292  29.388  13.633
23878W        W90419  36.612  12.226   0.722
23879W        W90420  19.281  23.312   3.668
23880W        W90421  31.104   0.787  12.511
23881W        W90422  10.492   3.328   1.702
23882W        W90423  12.138  42.169   3.374
23883W        W90424   3.433  14.815  13.083
23884W        W90425   5.333   1.859   3.587
23885W        W90426   1.475   0.419   4.083
23886W        W90427  42.070  30.432   0.962
23887W        W90428  30.093  40.829  12.883
23888W        W90429  19.660  16.716   4.990
23889W        W90430   5.095  19.013  12.068
23890W        W90431  12.736   3.930   2.704
23891W        W90432  23.547  22.068  14.439
23892W        W90433  23.730  24.989  13.156
23893W        W90434  42.340  40.267   3.210
23894W        W90435  24.020   8.677   0.352
23895W        W90436  12.052  25.599   1.590
23896W        W90437  35.306   6.751  14.827
23897W        W90438  42.578  32.803  12.916
23898W        W90439  31.185   6.763  13.512
23899W        W90440  16.365  26.930   4.119
23900W        W90441   9.401  31.915  13.369
23901W        W90442  41.747  16.543  11.196
23902W        W90443  26.388  16.203  14.046
23903W        W90444   1.264  17.276   4.177
23904W        W90445  38.021  39.794  10.740
23905W        W90446  13.127  37.032  14.327
23906W        W90447  39.094  27.841  14.977
23907W        W90448  13.144   5.456   3.169
23908W        W90449  31.708  16.698   0.689
23909W        W90450  42.802  30.048  14.115
23910W        W90451  11.164   5.261  14.957
23911W        W90452  35.846  43.187  12.324
23912W        W90453  42.592  30.158   4.453
23913W        W90454  26.242   9.339   4.270
23914W        W90455   1.347  27.083   3.065
23915W        W90456  26.137  31.393  14.545
23916W        W90457  42.342  26.750   0.830
23917W        W90458  38.829  44.017   2.665
23918W        W90459  22.580  27.442   4.419
23919W        W90460  35.888  21.423   1.429
23920W        W90461   1.486  25.671  13.066
23921W        W90462  26.175  33.345   0.677
23922W        W90463  10.155   5.118  10.770
23923W        W90464  11.361  36.048   4.277
23924W        W90465  35.831  27.990  14.809
23925W        W90466  26.434  24.463  10.701
23926W        W90467  32.138  29.140   4.129
23927W        W90468  34.090  14.233  10.571
23928W        W90469   9.209  14.783   3.329
23929W        W90470  35.656  21.784   1.758
23930W        W90471   4.233  44.247   3.470
23931W        W90472  14.318  15.316   3.208
23932W        W90473  31.887  33.043  12.970
23933W        W90474   6.621  10.387  14.376
23934W        W90475  41.964  34.575   3.247
23935W        W90476   8.627  17.323   4.673
23936W        W90477  18.565  18.741  13.823
23937W        W90478  43.579  21.652  13.459
23938W        W90479   0.336  41.795   0.847
23939W        W90480  41.397  44.228   4.666
23940W        W90481   4.814   0.488  13.011
23941W        W90482   6.476   6.194  14.651
23942W        W90483  12.324  14.399  12.030
23943W        W90484  27.145  32.105   4.066
23944W        W90485  12.536  14.798  12.270
23945W        W90486  32.675  28.297  10.725
23946W        W90487  28.927  42.932   1.511
23947W        W90488  40.992  38.851  13.889
23948W        W90489  16.842   1.336  10.635
23949W        W90490  42.348  27.245  12.728
23950W        W90491  39.818  35.619   2.939
23951W        W90492   9.127  41.764   5.573
23952W        W90493  15.739  30.646   1.781
23953W        W90494   6.230  23.768   0.874
23954W        W90495   9.847  17.507  13.058
23955W        W90496  18.627  37.858  11.120
23956W        W90497  19.382   5.957  14.434
23957W        W90498  40.335  43.292   0.868
23958W        W90499   3.849  29.665   4.145
23959W        W90500  25.596  34.017  11.192
23960W        W90501  38.031  11.357   3.164
23961W        W90502  38.647   8.394  12.477
23962W        W90503  30.366   4.796   0.426
23963W        W90504  43.711  17.317  12.219
23964W        W90505   6.809  40.779  12.076
23965W        W90506  36.341  25.474  10.626
23966W        W90507   6.500   2.520  13.776
23967W        W90508  33.698  36.145   3.233
23968W        W90509  26.642  32.087   0.034
23969W        W90510  13.280  40.301   3.599
23970W        W90511   4.455   7.251  10.573
23971W        W90512  27.478  11.095  12.151
23972W        W90513  14.785  36.040   0.543
23973W        W90514   8.100  28.158   1.346
23974W        W90515   9.193  36.329   0.361
23975W        W90516   7.770  35.778   1.246
23976W        W90517   2.484  19.987   2.496
23977W        W90518  26.554  28.590   1.156
23978W        W90519  43.466  39.940  11.449
23979W        W90520  44.155  39.683  14.469
23980W        W90521   4.718  37.093  13.818
23981W        W90522   2.351  10.925   0.881
23982W        W90523  32.428  11.886   2.331
23983W        W90524  15.108  27.742  11.528
23984W        W90525   0.033  32.602  13.402
23985W        W90526  15.269  33.943  10.317
23986W        W90527  32.514  26.194   1.728
23987W        W90528   6.731  17.148   2.191
23988W        W90529  42.592  26.994   3.209
23989W        W90530   3.415  25.714   3.636
23990W        W90531  16.763  32.774   4.736
23991W        W90532   9.866  19.099   2.230
23992W        W90533  21.965  20.268  14.409
23993W        W90534  39.427  18.903   4.892
23994W        W90535  36.422   5.737  12.270
23995W        W90536  13.277  11.240  13.530
23996W        W90537  22.905   7.680  14.350
23997W        W90538   1.662  14.671   2.844
23998W        W90539  18.495  27.263   0.503
23999W        W90540  12.550  19.513   3.188
24000W        W90541  37.806  20.638  13.887
24001W        W90542  26.652  25.458  11.603
24002W        W90543  37.901  21.506  13.961
24003W        W90544  31.572   7.226  12.725
24004W        W90545  17.793  10.918  10.621
24005W        W90546   6.502   1.046   2.190
24006W        W90547  27.510  38.334  13.454
24007W        W90548  27.695  11.389  12.532
24008W        W90549  17.406   1.570   4.498
24009W        W90550  27.490  27.766  12.482
24010W        W90551  13.287   5.350   2.278
24011W        W90552  12.916   4.530   1.866
24012W        W90553   5.303  19.339   4.048
24013W        W90554  35.532   9.848  13.393
24014W        W90555  24.871  41.902   4.116
24015W        W90556   3.114  25.560   1.900
24016W        W90557  37.485  15.714   2.251
24017W        W90558  17.247  42.639  14.042
24018W        W90559  22.705   0.511  13.049
24019W        W90560  28.996   6.435  12.968
24020W        W90561  40.496   0.167  14.476
24021W        W90562  44.972  12.778  13.799
24022W        W90563  35.396  43.456   2.160
24023W        W90564  38.857  19.774   0.697
24024W        W90565  15.431   2.199   1.593
24025W        W90566  36.940  37.259   2.911
24026W        W90567  43.829  28.835  13.679
24027W        W90568   6.430  38.988  14.847
24028W        W90569  26.935   5.412   1.224
24029W        W90570  27.003  16.808  12.936
24030W        W90571  11.726  19.305  14.000
24031W        W90572  35.667  39.021  13.537
24032W        W90573  43.963  37.146  13.995
24033W        W90574   5.053  44.004  12.643
24034W        W90575  28.117  19.541  12.817
24035W        W90576   0.648   9.554   2.137
24036W        W90577   7.886  35.303  14.867
24037W        W90578  15.061  30.708  13.654
24038W        W90579  16.181   1.055  14.016
24039W        W90580  36.446  19.596  11.567
24040W        W90581  30.238  14.265   2.476
24041W        W90582  27.648  39.128   2.254
24042W        W90583  27.419  27.825  14.895
24043W        W90584   6.780  27.798  10.422
24044W        W90585  29.382  14.585  12.888
24045W        W90586  10.291  20.865   0.405
24046W        W90587   2.650  27.491   0.676
24047W        W90588  19.140  41.246  11.184
24048W        W90589   4.682  37.366  14.252
24049W        W90590  14.140   9.199   3.678
24050W        W90591  14.771  14.508   0.377
24051W        W90592  21.024  32.685  12.179
24052W        W90593  35.120  44.250  12.663
24053W        W90594  29.240   3.367  10.771
24054W        W90595  26.088  12.567  14.788
24055W        W90596  32.388  13.376  11.568
24056W        W90597  23.367   3.861   0.270
24057W        W90598   8.479  26.615  12.467
24058W        W90599   2.327  14.647   1.032
24059W        W90600  39.923  28.993  14.429
24060W        W90601  44.472  35.502   4.531
24061W        W90602  34.907  29.458  14.874
24062W        W90603  28.530  38.376   4.657
24063W        W90604   5.845  41.813  11.055
24064W        W90605  32.616  43.314   0.535
24065W        W90606  31.607  38.426   2.145
24066W        W90607  39.277  39.902  10.782
24067W        W90608   3.481  20.102  12.993
24068W        W90609   0.986  20.153   4.576
24069W        W90610  23.006  43.413   2.798
24070W        W90611  26.309  34.128   3.720
24071W        W90612  38.060   3.004   1.703
24072W        W90613  13.224   1.495  13.104
24073W        W90614  12.837  11.178  13.240
24074W        W90615   8.149  32.045   4.191
24075W        W90616  30.811  28.265   0.500
24076W        W90617  24.114  11.372  14.829
24077W        W90618  18.784  31.657  14.280
24078W        W90619  21.062  17.149  10.711
24079W        W90620  16.341  44.941  14.081
24080W        W90621  16.915   1.992  13.440
24081W        W90622  36.150  14.598  11.452
24082W        W90623  43.320  25.234  12.926
24083W        W90624  18.169  18.416   1.847
24084W        W90625  32.556  32.992   2.730
24085W        W90626  12.192   9.094  14.567
24086W        W90627  35.584  11.773   2.402
24087W        W90628  16.553  23.508   0.462
24088W        W90629  29.421  19.002   3.789
24089W        W90630  39.772   1.133   2.748
24090W        W90631  38.870   5.638  10.685
24091W        W90632  16.199  40.329  10.637
24092W        W90633  26.990   2.458   2.347
24093W        W90634  18.676   5.837   4.368
24094W        W90635  12.721  12.633  11.053
24095W        W90636  11.725  12.867  11.196
24096W        W90637  38.516  10.748   3.293
24097W        W90638   1.340  25.288  10.745
24098W        W90639  17.075  13.201  14.388
24099W        W90640  14.787  34.045   3.295
24100W        W90641  33.112  40.873  14.183
24101W        W90642  29.506  31.340   3.321
24102W        W90643  24.978  29.114  12.610
24103W        W90644  19.663  10.863   2.240
24104W        W90645   3.929   5.195   0.827
24105W        W90646  26.443  18.275   1.612
24106W        W90647  29.123  41.851   4.404
24107W        W90648  40.538  36.977   3.825
24108W        W90649  19.506   5.405   0.787
24109W        W90650  13.085  39.537  10.638
24110W        W90651  31.124  34.805  11.868
24111W        W90652  36.113  34.908  11.175
24112W        W90653   7.454  43.328   2.796
24113W        W90654  27.581  35.091   0.921
24114W        W90655  42.855  23.188   3.405
24115W        W90656   4.669   3.191  13.422
24116W        W90657  21.877  44.337   0.834
24117W        W90658  39.629  19.444  13.888
24118W        W90659   6.547  11.662  11.152
24119W        W90660  16.065  18.345  13.486
24120W        W90661   4.510  16.355  12.959
24121W        W90662  33.432  29.593   0.690
24122W        W90663  32.050   1.418   3.072
24123W        W90664  21.462   0.425   0.198
24124W        W90665  27.677  10.883   3.308
24125W        W90666  44.885  34.529  11.021
24126W        W90667  42.055  41.727   1.361
24127W        W90668  33.324   6.533   3.253
24128W        W90669   1.436  36.888   2.908
24129W        W90670  17.739  30.675  10.669
24130W        W90671  40.589  11.876   2.678
24131W        W90672  35.291  14.868   4.950
24132W        W90673   9.618   3.711  12.176
24133W        W90674  34.550  17.711   0.827
24134W        W90675  14.076  24.773  11.684
24135W        W90676  33.554  24.768   1.303
24136W        W90677  10.934  36.771  13.530
24137W        W90678   3.635   8.606   3.074
24138W        W90679  11.600  30.042   2.725
24139W        W90680  14.160  40.558   3.792
24140W        W90681  40.884   0.352  13.110
24141W        W90682  26.423  25.182  12.032
24142W        W90683  39.368  22.143  14.389
24143W        W90684  40.610  29.425  13.864
24144W        W90685  27.100  20.524  12.048
24145W        W90686  14.652  33.550  13.526
24146W        W90687  41.337  25.616  13.979
24147W        W90688  23.026  44.727  14.374
24148W        W90689  16.159  15.497   1.273
24149W        W90690  17.330  39.811  14.337
24150W        W90691   7.967  21.437  12.289
24151W        W90692  40.464   9.730   3.780
24152W        W90693  38.237  11.293   1.654
24153W        W90694  30.581  38.962  10.756
24154W        W90695   9.116  27.121  14.064
24155W        W90696  40.298  19.158  12.448
24156W        W90697  43.426  20.337  12.938
24157W        W90698  37.818  35.753  11.214
24158W        W90699  19.844  10.021   4.150
24159W        W90700   7.484   4.858   2.868
24160W        W90701  15.173   2.606   4.142
24161W        W90702  39.104   3.696  10.982
24162W        W90703  24.959  17.332   2.675
24163W        W90704  30.914  15.653   1.754
24164W        W90705  24.991  34.912  12.632
24165W        W90706  30.219  26.260  10.215
24166W        W90707  17.156   2.454   4.709
24167W        W90708  21.129  25.988   3.565
24168W        W90709  13.840   0.413  11.919
24169W        W90710  25.918  37.921  14.904
24170W        W90711  27.430  21.557   4.018
24171W        W90712   7.027  34.125  14.521
24172W        W90713  15.741  10.648  11.632
24173W        W90714  18.032  10.601   3.344
24174W        W90715  22.649  36.339   2.293
24175W        W90716   5.725  18.862   1.245
24176W        W90717   3.642   0.954   0.202
24177W        W90718  32.465  21.526   1.357
24178W        W90719   5.429  28.670  13.007
24179W        W90720   2.836  24.526  13.755
24180W        W90721  40.300   2.354  10.956
24181W        W90722   0.736   5.157   3.293
24182W        W90723  22.397  25.964  12.651
24183W        W90724  17.705  19.301  13.798
24184W        W90725  28.684  22.750   1.832
24185W        W90726  13.797  33.502   0.912
24186W        W90727  27.390  19.157  13.933
24187W        W90728  29.975   4.456  11.168
24188W        W90729  32.075  25.593   3.202
24189W        W90730  34.374  19.673  13.009
24190W        W90731  37.228  32.099  13.077
24191W        W90732  29.671  44.937   2.062
24192W        W90733  34.338  41.009   0.827
24193W        W90734   7.831  12.697   4.752
24194W        W90735  33.432  38.169  13.937
24195W        W90736  32.422  11.419  14.560
24196W        W90737  22.658  25.280   3.424
24197W        W90738   1.263  19.254   4.481
24198W        W90739  11.294  11.678  13.211
24199W        W90740  32.330   3.351  14.363
24200W        W90741  35.130  38.418  11.564
24201W        W90742  43.003   0.585   2.810
24202W        W90743   8.964   9.769  13.199
24203W        W90744  21.006  44.028  12.632
24204W        W90745  32.825   2.811   3.563
24205W        W90746   7.256  11.757  10.760
24206W        W90747  32.601  15.733   2.411
24207W        W90748  32.139  15.587   3.525
24208W        W90749  27.290  43.727  12.143
24209W        W90750  20.101  30.628  11.666
24210W        W90751  18.136  10.931   4.432
24211W        W90752   3.941  37.842  10.554
24212W        W90753  43.866  30.454  14.071
24213W        W90754  25.037  28.015   0.965
24214W        W90755   1.927   4.293   2.154
24215W        W90756   5.017  16.586   3.116
24216W        W90757  42.846  24.053   4.853
24217W        W90758  36.400  21.771  11.488
24218W        W90759  23.251  15.818  12.638
24219W        W90760  33.912  26.408  13.475
24220W        W90761  15.534  21.751   1.881
24221W        W90762  31.912  41.999   3.160
24222W        W90763  31.313   2.851  14.000
24223W        W90764   5.917  39.517  14.564
24224W        W90765  12.531  34.419  12.599
24225W        W90766  29.357   9.835   2.375
24226W        W90767  34.646  25.973   4.078
24227W        W90768  44.231  25.404  11.940
24228W        W90769  35.901  10.888   3.294
24229W        W90770  12.454  13.170  14.134
24230W        W90771  16.567  31.746   0.753
24231W        W90772  19.646   1.879   1.686
24232W        W90773  17.749  17.859   5.021
24233W        W90774  13.759  16.191   4.809
24234W        W90775   9.690  10.806  13.427
24235W        W90776  32.441  27.463  14.884
24236W        W90777  10.870  36.346   2.682
24237W        W90778   4.317  16.366   2.879
24238W        W90779   0.393   6.222  14.900
24239W        W90780  27.011  28.900   3.669
24240W        W90781  16.320   7.518  12.923
24241W        W90782  32.702  21.263   4.568
24242W        W90783  30.213   3.456   4.139
24243W        W90784  12.252  20.857   2.482
24244W        W90785   5.933  30.462  13.080
24245W        W90786   4.964  23.782  12.376
24246W        W90787  19.613  38.087   2.052
24247W        W90788  31.149  41.974   2.047
24248W        W90789  23.989  15.279  14.266
24249W        W90790   9.896  27.044   0.730
24250W        W90791  25.757  19.480   1.745
24251W        W90792  24.961  25.695   3.274
24252W        W90793  14.774  42.834  14.551
24253W        W90794  26.042  28.707  14.859
24254W        W90795   6.601  27.200  12.637
24255W        W90796   8.799  37.715   4.170
24256W        W90797  18.761  40.304   0.733
24257W        W90798  40.057   5.290   1.148
24258W        W90799   3.910  27.739   1.871
24259W        W90800  21.804  27.678  12.252
24260W        W90801   3.449  30.977  14.945
24261W        W90802  40.518  27.556   2.158
24262W        W90803  43.743   9.913  12.524
24263W        W90804  35.484  26.353  14.839
24264W        W90805  18.350  41.334   2.219
24265W        W90806   8.396   5.766  10.682
24266W        W90807  43.848  20.263  12.133
24267W        W90808  15.639   9.517  12.426
24268W        W90809  15.158  15.716   5.013
24269W        W90810  20.462  28.875  13.769
24270W        W90811  15.083  41.054  13.147
24271W        W90812  31.058  36.623   2.746
24272W        W90813   8.630  12.318  14.769
24273W        W90814  29.992  22.795  11.175
24274W        W90815  33.308  19.615   2.185
24275W        W90816   3.790   9.279  12.209
24276W        W90817   1.659  27.270   2.332
24277W        W90818   6.503  44.211  10.690
24278W        W90819  21.343  39.412  13.612
24279W        W90820  37.518  32.326   3.712
24280W        W90821  25.636   1.517   0.488
24281W        W90822  39.474  35.542  13.368
24282W        W90823  35.465  37.263  12.425
24283W        W90824  18.092   2.830  14.759
24284W        W90825  43.530   2.889  10.904
24285W        W90826  30.918   0.920  13.954
24286W        W90827  14.296   6.448  14.264
24287W        W90828  14.271  40.635  10.666
24288W        W90829  41.400  41.367   4.133
24289W        W90830  28.076   0.923   4.087
24290W        W90831   9.574  44.528   1.262
24291W        W90832  44.487   1.903  12.130
24292W        W90833  42.020  44.935   1.506
24293W        W90834  29.652  12.839  12.905
24294W        W90835  26.943  15.798  11.912
24295W        W90836   6.018  40.475   4.117
24296W        W90837  35.005  16.353   1.283
24297W        W90838  18.868  21.135   9.532
24298W        W90839  22.304   2.636   4.574
24299W        W90840  25.571  30.586   0.365
24300W        W90841  19.244  17.053   0.395
24301W        W90842  38.143  11.258   1.149
24302W        W90843  30.624  30.030  14.836
24303W        W90844  44.281  21.820  10.754
24304W        W90845   2.702   6.412   3.735
24305W        W90846  11.849  32.919  14.226
24306W        W90847  35.118  27.610  13.584
24307W        W90848  11.193   8.271   3.745
24308W        W90849  18.831  37.418   4.616
24309W        W90850  11.356   4.156  14.925
24310W        W90851  20.711  25.182  14.703
24311W        W90852  41.839   6.530  14.826
24312W        W90853   4.557  15.227   1.595
24313W        W90854  32.447  39.720  11.187
24314W        W90855  21.669  32.501  13.538
24315W        W90856  39.834  27.100   3.808
24316W        W90857   3.677   5.689  12.826
24317W        W90858  23.833  22.729   1.979
24318W        W90859   7.732  29.041  14.040
24319W        W90860  20.639   0.344   1.359
24320W        W90861   0.031   8.862   2.770
24321W        W90862  11.601  17.662   0.932
24322W        W90863  44.940  25.508  12.485
24323W        W90864  15.648  11.880   2.650
24324W        W90865   3.441  35.415   2.838
24325W        W90866  40.125  44.831  10.590
24326W        W90867  24.130  11.339   2.991
24327W        W90868  16.789  23.215   4.252
24328W        W90869  37.945   8.970  14.796
24329W        W90870  36.044   9.369   4.540
24330W        W90871   2.161  35.432   4.302
24331W        W90872   9.140  41.858  14.307
24332W        W90873  27.091   4.055  11.182
24333W        W90874   6.317  23.578   1.364
24334W        W90875  28.262  23.074   2.997
24335W        W90876  40.083  41.966   1.743
24336W        W90877   3.474  15.597  11.653
24337W        W90878  34.964  16.103  14.897
24338W        W90879   8.957  41.380   1.341
24339W        W90880  34.693  28.743   2.512
24340W        W90881  17.572  34.299  11.613
24341W        W90882  11.366  18.299  12.488
24342W        W90883   8.650   8.847  11.884
24343W        W90884  37.113  31.957   0.395
24344W        W90885  13.365  20.230  12.954
24345W        W90886  30.732   3.658   2.829
24346W        W90887  13.648  18.024   3.342
24347W        W90888  23.978  35.900   2.174
24348W        W90889  25.129  29.979   2.260
24349W        W90890  23.228   4.718  13.364
24350W        W90891  20.218  38.101   4.121
24351W        W90892  40.528  22.837   4.149
24352W        W90893   2.072  28.732   2.335
24353W        W90894   9.903  22.149  11.476
24354W        W90895  31.482  22.726  10.744
24355W        W90896   2.283  35.768  11.229
24356W        W90897  42.997  26.499  14.308
24357W        W90898  29.718  18.214  12.631
24358W        W90899  14.695  23.225  12.239
24359W        W90900  13.770  18.771  10.955
24360W        W90901   6.550  39.106  13.536
24361W        W90902  28.643  40.059  14.810
24362W        W90903  42.416  37.569  12.964
24363W        W90904  30.283  31.409   4.482
24364W        W90905  44.479  32.423   3.166
24365W        W90906  25.611  44.503  11.284
24366W        W90907  34.890   5.417  12.919
24367W        W90908  36.073  13.121   0.768
24368W        W90909  29.369  35.884   0.358
24369W        W90910  19.152  32.993  13.541
24370W        W90911  33.455  23.160   4.365
24371W        W90912   1.692  42.459  10.723
24372W        W90913  18.779  14.798   3.038
24373W        W90914  35.615  21.237  11.691
24374W        W90915  16.254  14.267  13.412
24375W        W90916  10.930  32.629   1.863
24376W        W90917  44.961  35.095  13.046
24377W        W90918  25.494   7.706   0.301
24378W        W90919  28.623  17.579  13.083
24379W        W90920  11.132   4.282   2.458
24380W        W90921  25.695  16.350   0.374
24381W        W90922   0.480  16.069  13.113
24382W        W90923   8.692   3.001   3.490
24383W        W90924   2.385  14.353  12.541
24384W        W90925  11.856  31.867  13.099
24385W        W90926  43.553  19.781   0.225
24386W        W90927  41.541   9.741  11.185
24387W        W90928   5.976  20.981   2.330
24388W        W90929  29.584  17.763  11.143
24389W        W90930  26.693  16.728  13.461
24390W        W90931  34.831  21.498  13.031
24391W        W90932  37.377  26.455  14.114
24392W        W90933   3.533   2.303  12.916
24393W        W90934   0.965  35.112  10.590
24394W        W90935  32.771  15.086  11.975
24395W        W90936  10.930  15.531  10.230
24396W        W90937   6.918  38.023   2.420
24397W        W90938   8.164  30.289  14.535
24398W        W90939   2.412  25.966  14.750
24399W        W90940  19.559   6.309  12.807
24400W        W90941  17.639   1.211   1.260
24401W        W90942  43.828  33.523   2.033
24402W        W90943   0.829  24.442   4.989
24403W        W90944  11.824  35.990   4.607
24404W        W90945  10.731  31.409  14.292
24405W        W90946  14.716  23.563  14.473
24406W        W90947  18.772   2.488  14.210
24407W        W90948   4.259  18.352  14.096
24408W        W90949   2.340  38.802   3.792
24409W        W90950  27.627   6.017  12.271
24410W        W90951  22.557  33.171   3.248
24411W        W90952  28.106  24.991   3.488
24412W        W90953   9.228  33.282  12.122
24413W        W90954  40.634  37.360  12.526
24414W        W90955  40.448  34.492  13.572
24415W        W90956  11.156  13.438   4.056
24416W        W90957  16.651  32.196  14.213
24417W        W90958  20.559  38.017  12.609
24418W        W90959   0.754  18.976   1.830
24419W        W90960  26.692  22.211  13.718
24420W        W90961   6.876  31.636  12.033
24421W        W90962  20.311  17.929  12.881
24422W        W90963  17.387  16.334  13.410
24423W        W90964   8.378  10.619  11.187
24424W        W90965  37.503  39.921  11.971
24425W        W90966  26.033   7.646   0.394
24426W        W90967   8.952   4.122   3.963
24427W        W90968  11.124  18.113  12.930
24428W        W90969  21.744  38.058   4.202
24429W        W90970  24.599  32.089  13.553
24430W        W90971  41.171  22.054  13.426
24431W        W90972  25.087  29.422  13.878
24432W        W90973  32.498  11.142   1.499
24433W        W90974   8.755  24.199  14.070
24434W        W90975  39.338   1.779   3.202
24435W        W90976  27.442  42.511  14.482
24436W        W90977  22.421  33.603   0.516
24437W        W90978  35.642  37.933  14.735
24438W        W90979  38.460  17.053   2.771
24439W        W90980   9.835  27.031   4.646
24440W        W90981  32.638   9.675   0.386
24441W        W90982  13.655  37.990  10.651
24442W        W90983  39.069   8.666  13.011
24443W        W90984   5.272  28.617  10.096
24444W        W90985  17.207  15.339   1.760
24445W        W90986  11.820  16.055  10.479
24446W        W90987  38.939  21.132   4.600
24447W        W90988   5.796  11.332  12.272
24448W        W90989  42.405   8.698   0.570
24449W        W90990   8.288  14.621   0.879
24450W        W90991   9.926   2.467  10.460
24451W        W90992   6.876  28.505   2.069
24452W        W90993  32.946  28.603   4.655
24453W        W90994   8.957   4.422   1.893
24454W        W90995  35.430  37.391  14.467
24455W        W90996  18.074  43.361  12.582
24456W        W90997  17.353  41.263   2.307
24457W        W90998  27.073  41.234  10.588
24458W        W90999  40.886   2.003  14.359
24459W        W91000  17.997  25.500   0.496
24460W        W91001  31.545  26.508   3.126
24461W        W91002   0.151  22.652  12.814
24462W        W91003   3.349  34.883  13.119
24463W        W91004  29.144  29.160   0.200
24464W        W91005  22.705  16.531   3.686
24465W        W91006   5.808  21.864  11.951
24466W        W91007   9.983   9.940  14.368
24467W        W91008  20.836  28.556  11.872
24468W        W91009  35.992  16.869  14.050
24469W        W91010  20.334  36.085  14.779
24470W        W91011  22.151  36.874   4.107
24471W        W91012  18.744   4.802   2.696
24472W        W91013  33.940  43.882   3.593
24473W        W91014   7.614   9.472  12.083
24474W        W91015  15.642  42.860   4.559
24475W        W91016   9.217  13.707   2.817
24476W        W91017   0.829  19.805  10.173
24477W        W91018  22.673  40.630   3.696
24478W        W91019   4.792   5.538  11.592
24479W        W91020  37.530  42.967  12.052
24480W        W91021   3.726  32.630   3.234
24481W        W91022  37.909   1.462   4.278
24482W        W91023  44.833  28.618   3.548
24483W        W91024   5.395  24.066   3.450
24484W        W91025  10.123  18.264  12.888
24485W        W91026  35.670  38.750   4.216
24486W        W91027  15.624  44.183   3.865
24487W        W91028   1.837   2.080   3.544
24488W        W91029  32.139  15.266  13.058
24489W        W91030  24.870  21.693   4.174
24490W        W91031  23.910  32.928   3.018
24491W        W91032  40.843   7.590  11.435
24492W        W91033  44.248  12.275   1.886
24493W        W91034  29.953  31.130   4.151
24494W        W91035   2.173  16.662   1.782
24495W        W91036  28.489  34.103   4.469
24496W        W91037  41.505  37.500  13.851
24497W        W91038  11.602  39.412  11.785
24498W        W91039  19.001  43.380   0.062
24499W        W91040  16.553   8.437   1.037
24500W        W91041  13.651   9.144  10.748
24501W        W91042  33.049  34.239   1.721
24502W        W91043  13.212  19.733   4.162
24503W        W91044  31.456  44.183   1.265
24504W        W91045  19.169   1.739   0.438
24505W        W91046   7.890   5.355  12.427
24506W        W91047  10.878   0.340  13.813
24507W        W91048  13.194  41.274  12.604
24508W        W91049  26.933   0.235  12.146
24509W        W91050   5.760  21.245  13.821
24510W        W91051  21.606   8.945  11.097
24511W        W91052  28.070  12.146   1.259
24512W        W91053   7.215  38.498   2.730
24513W        W91054  43.274  37.823   4.226
24514W        W91055  19.340  29.240   0.734
24515W        W91056  18.538   3.843   2.729
24516W        W91057  17.797  15.330  12.081
24517W        W91058   7.616  43.003   4.223
24518W        W91059  31.533  33.364  12.528
24519W        W91060   6.393   8.331  10.763
24520W        W91061  44.137  19.769   9.568
24521W        W91062  30.072  38.905  14.612
24522W        W91063  20.659  15.146   3.756
24523W        W91064  13.702  40.552   2.700
24524W        W91065  29.050  24.086   3.631
24525W        W91066  41.458  32.582   4.078
24526W        W91067   5.166  21.167   1.883
24527W        W91068  23.796  38.706  13.317
24528W        W91069  25.098   6.842  11.809
24529W        W91070  25.701   9.320  11.205
24530W        W91071   6.855  34.696  12.388
24531W        W91072  26.418  30.460  12.623
24532W        W91073  44.202   2.384   4.645
24533W        W91074   0.754  14.864  14.067
24534W        W91075  39.449   8.564  14.771
24535W        W91076  26.565  32.595   2.873
24536W        W91077  29.661   0.908   1.796
24537W        W91078  27.901  39.057   4.143
24538W        W91079  26.304  28.314  11.154
24539W        W91080  14.737  24.293   2.973
24540W        W91081  41.603   3.805  10.639
24541W        W91082  39.920  34.130   1.312
24542W        W91083  33.554  41.450  13.540
24543W        W91084  30.572  14.628  11.247
24544W        W91085  15.358  35.473  14.470
24545W        W91086  24.932  44.934   1.940
24546W        W91087  43.882  15.111  13.498
24547W        W91088   5.429  15.885  12.077
24548W        W91089  28.319  17.928   5.162
24549W        W91090  27.427  36.493  12.375
24550W        W91091  28.689   3.142   4.147
24551W        W91092  38.010  42.975  14.410
24552W        W91093  27.479  28.356   4.736
24553W        W91094   9.703  14.407   3.769
24554W        W91095  14.165  15.804  13.938
24555W        W91096   1.662  28.416   5.416
24556W        W91097  31.644  41.830  10.595
24557W        W91098   8.056  35.437   2.796
24558W        W91099  19.722  17.675   1.433
24559W        W91100  38.374  32.499  12.136
24560W        W91101  16.940  22.487   1.434
24561W        W91102  41.688   6.819   4.008
24562W        W91103  38.468  25.328   3.621
24563W        W91104  35.047  10.086  13.489
24564W        W91105  44.451  25.320  13.515
24565W        W91106  37.684  44.513  12.941
24566W        W91107  29.141  21.743  11.331
24567W        W91108  21.539  21.619   1.990
24568W        W91109  40.325  38.578   3.263
24569W        W91110  29.983  44.872   2.735
24570W        W91111   3.790   0.384   5.506
24571W        W91112   2.703  32.828   1.498
24572W        W91113  26.157  26.871  14.422
24573W        W91114   5.262  31.890   0.507
24574W        W91115  38.297  41.296   2.299
24575W        W91116   3.604  30.653   0.475
24576W        W91117   3.327  34.956  14.471
24577W        W91118  44.517  26.543  14.856
24578W        W91119  17.098  36.979  11.086
24579W        W91120  14.554  28.240   1.460
24580W        W91121   5.008  33.457   4.557
24581W        W91122  36.775  31.153  13.841
24582W        W91123  32.718  24.364   3.543
24583W        W91124   3.306  11.090  13.517
24584W        W91125  25.464  37.469  13.231
24585W        W91126  13.691  26.537   3.959
24586W        W91127  30.701   5.964   2.668
24587W        W91128  35.039  35.087   4.639
24588W        W91129   2.384  34.462  10.184
24589W        W91130   6.251   5.845  11.432
24590W        W91131   5.716   2.817  13.975
24591W        W91132  23.004  44.466  13.068
24592W        W91133  31.673  42.034  11.998
24593W        W91134  26.490  21.897   4.083
24594W        W91135   0.812   2.105  10.174
24595W        W91136  19.932  30.699  11.167
24596W        W91137   1.306  30.258  10.822
24597W        W91138  27.612  15.610  11.465
24598W        W91139   0.080  41.648  12.980
24599W        W91140  26.673   1.312   0.090
24600W        W91141  43.301  32.504   4.161
24601W        W91142  41.595  16.154   4.110
24602W        W91143  32.551  32.029   3.905
24603W        W91144  24.679  17.982  12.095
24604W        W91145  36.601   8.847   2.935
24605W        W91146  17.357  27.152  11.125
24606W        W91147  39.262  30.654   0.246
24607W        W91148   9.954  27.498  14.403
24608W        W91149  17.821  42.068  13.121
24609W        W91150  18.434  18.613   1.419
24610W        W91151  32.075  11.160  14.851
24611W        W91152   5.412   8.830   3.907
24612W        W91153  42.918  38.233  13.549
24613W        W91154   6.897  18.173  14.919
24614W        W91155  11.002  14.326   0.972
24615W        W91156  36.094  31.976   4.101
24616W        W91157  17.624  10.808   4.406
24617W        W91158  26.861  26.728  10.309
24618W        W91159  12.261  24.742   1.351
24619W        W91160  20.038  36.783   3.012
24620W        W91161  33.294  30.705   0.742
24621W        W91162  16.268   5.223   1.534
24622W        W91163  34.598  32.896  13.532
24623W        W91164  35.968   5.124   2.871
24624W        W91165  40.306  22.374   4.057
24625W        W91166   2.229  37.344   1.625
24626W        W91167  37.577  44.234   0.716
24627W        W91168   1.673  35.291   4.146
24628W        W91169   2.536  23.969  12.341
24629W        W91170  17.187   4.974  14.272
24630W        W91171  22.059  30.578   3.717
24631W        W91172  40.531  33.477   0.043
24632W        W91173  15.870   5.475  10.731
24633W        W91174   6.975  16.709  10.778
24634W        W91175  21.673   9.171  12.981
24635W        W91176  28.221   6.497   3.553
24636W        W91177  19.977  41.002   0.869
24637W        W91178  27.920   2.875   1.214
24638W        W91179  28.772   2.897   0.771
24639W        W91180   6.452  11.259   3.115
24640W        W91181  27.679  37.380   2.171
24641W        W91182  18.024   8.685   1.390
24642W        W91183  26.149  17.014   1.116
24643W        W91184  13.131  16.221  10.867
24644W        W91185  14.659   8.609  13.083
24645W        W91186   2.949   3.792  14.978
24646W        W91187   3.205  36.020  10.344
24647W        W91188  24.328  23.556   9.928
24648W        W91189   6.247  37.648   0.896
24649W        W91190  24.201  30.869  12.702
24650W        W91191   9.705  41.531  12.935
24651W        W91192  42.066  25.152   2.924
24652W        W91193   6.330  24.513   4.449
24653W        W91194  27.183  35.831  14.780
24654W        W91195  18.215   5.672   1.679
24655W        W91196  20.695  17.237   0.394
24656W        W91197   3.549  33.547   1.252
24657W        W91198  35.355  35.833   1.029
24658W        W91199   9.212  40.817   3.161
24659W        W91200  15.274   1.446  12.913
24660W        W91201  22.743   8.502  12.680
24661W        W91202  42.028  36.527  13.892
24662W        W91203  40.340  36.644  10.760
24663W        W91204  41.168  16.411  10.579
24664W        W91205  18.669  32.538  12.910
24665W        W91206   6.510  20.205   0.917
24666W        W91207  27.187  14.670  10.700
24667W        W91208  30.094  10.935   2.534
24668W        W91209  22.035  32.888   3.640
24669W        W91210   4.043  32.627  14.945
24670W        W91211  24.956  13.783  10.506
24671W        W91212  36.519   0.092  11.572
24672W        W91213  43.113  27.581   3.629
24673W        W91214  40.735  33.064   3.173
24674W        W91215  31.421  43.858  13.059
24675W        W91216  34.076  19.235  11.197
24676W        W91217  44.279  13.245  13.312
24677W        W91218  38.284  21.296   2.618
24678W        W91219  18.786  38.010   4.063
24679W        W91220  17.464  40.126   4.689
24680W        W91221   7.197  37.851   0.496
24681W        W91222   0.898  26.481   3.973
24682W        W91223  41.076  38.379  12.940
24683W        W91224  23.946   1.001   0.807
24684W        W91225  11.436   9.317   2.649
24685W        W91226  10.431  38.391  14.318
24686W        W91227  17.266   0.436  10.093
24687W        W91228  39.434  24.639  13.855
24688W        W91229  41.407  21.002   2.942
24689W        W91230  27.800  26.806   1.808
24690W        W91231  39.551  29.672   0.463
24691W        W91232  27.524   0.945   1.699
24692W        W91233  44.243  36.571   3.128
24693W        W91234  22.587   3.130  14.435
24694W        W91235  44.346  14.132  11.370
24695W        W91236  41.999  12.924   1.742
24696W        W91237  42.460  26.567  14.938
24697W        W91238   1.260  39.307   2.329
24698W        W91239   6.937  38.235   0.735
24699W        W91240  22.087  22.068   1.590
24700W        W91241   2.796  26.289  11.161
24701W        W91242  14.684   2.493  12.338
24702W        W91243  10.220   6.268   4.203
24703W        W91244  43.395  14.833   4.567
24704W        W91245  37.652  42.348   3.745
24705W        W91246  44.873  13.719   2.136
24706W        W91247  25.490  22.233   2.934
24707W        W91248  25.157  16.185  13.488
24708W        W91249  26.143  39.936   1.535
24709W        W91250  16.501   3.695   2.909
24710W        W91251  31.117  20.575  14.922
24711W        W91252  27.875  22.324   2.162
24712W        W91253  18.592   1.018  14.283
24713W        W91254   8.858  32.920   2.290
24714W        W91255  33.849  25.544   1.675
24715W        W91256   5.742  30.166   0.773
24716W        W91257  19.513   3.856  13.878
24717W        W91258  43.013  37.213  13.646
24718W        W91259  30.865  37.375   3.281
24719W        W91260  38.553   6.126  10.625
24720W        W91261  37.273   3.437   3.231
24721W        W91262   7.347  28.639   3.018
24722W        W91263  28.221  21.205  11.596
24723W        W91264  15.040  21.610   2.702
24724W        W91265  30.863   4.336  14.705
24725W        W91266  14.157  35.371  13.306
24726W        W91267  13.095   1.988   4.852
24727W        W91268   3.373  33.928  14.237
24728W        W91269   0.529  11.606  12.120
24729W        W91270  43.488  35.112   1.451
24730W        W91271  20.799  37.300  10.878
24731W        W91272  21.407  32.486  10.064
24732W        W91273  44.391   8.263   3.473
24733W        W91274  14.946  30.864   2.282
24734W        W91275  37.854  25.953  11.100
24735W        W91276  36.414   7.824   0.492
24736W        W91277  16.262  39.673  11.126
24737W        W91278  37.558  15.840   3.690
24738W        W91279  13.617   9.552  14.405
24739W        W91280  28.154   2.867  13.951
24740W        W91281  12.834  24.455  13.106
24741W        W91282  12.566  26.937  14.480
24742W        W91283  10.202  19.716  14.576
24743W        W91284  19.028  28.345   1.074
24744W        W91285  23.040   0.006  14.800
24745W        W91286  29.725  32.099  13.464
24746W        W91287  31.378  34.063   2.799
24747W        W91288  43.928   9.039   4.214
24748W        W91289   6.844   4.725  14.089
24749W        W91290  31.603   0.261   4.245
24750W        W91291  19.304  41.065  14.905
24751W        W91292  18.519  10.893   0.824
24752W        W91293   1.242  15.803   3.290
24753W        W91294  35.086   1.470  14.790
24754W        W91295  22.579  32.181   3.268
24755W        W91296  23.787  30.195   4.574
24756W        W91297  29.130  22.904   1.224
24757W        W91298  28.922  11.984   2.212
24758W        W91299  41.970  37.262  12.969
24759W        W91300  23.210  17.312  13.505
24760W        W91301  38.284   4.752   1.055
24761W        W91302  19.607  44.249   2.272
24762W        W91303   9.452   1.761   3.354
24763W        W91304  19.601  31.953  13.013
24764W        W91305  20.035   6.643   4.937
24765W        W91306   4.331   1.750   0.213
24766W        W91307  36.437  38.065  10.718
24767W        W91308  26.992  41.450   0.455
24768W        W91309  29.638   8.249  10.951
24769W        W91310  19.032  20.249   1.313
24770W        W91311  24.188  44.784  13.295
24771W        W91312   7.066  20.989   1.019
24772W        W91313  29.239  41.726  14.782
24773W        W91314  41.461   5.941   2.270
24774W        W91315  24.040  26.578  13.045
24775W        W91316  10.413  31.172  13.060
24776W        W91317  35.015  44.723   1.962
24777W        W91318  35.974  23.907  13.543
24778W        W91319  28.704  43.749   2.158
24779W        W91320  14.552  15.630  13.038
24780W        W91321   5.386  36.419   4.303
24781W        W91322   2.006  41.271  12.614
24782W        W91323  39.391   8.391   2.357
24783W        W91324  23.905  42.405   0.840
24784W        W91325   6.179  42.754  13.075
24785W        W91326  33.516   2.378  11.659
24786W        W91327  10.753  15.386  11.890
24787W        W91328  41.937   4.505   4.410
24788W        W91329  31.679  33.426   0.393
24789W        W91330  25.292  22.152  13.539
24790W        W91331  34.160  40.789  14.260
24791W        W91332  39.961  19.689   1.167
24792W        W91333  40.449   8.478   1.110
24793W        W91334  20.230  36.359   0.236
24794W        W91335  17.296  27.157  10.093
24795W        W91336  23.014  11.349   3.213
24796W        W91337   1.253  14.148   0.891
24797W        W91338  41.582  27.885  10.426
24798W        W91339  14.083  20.587   4.333
24799W        W91340  11.193  42.178   3.295
24800W        W91341  21.555   1.799   0.869
24801W        W91342  34.403   7.295   2.691
24802W        W91343  20.061  35.344   0.309
24803W        W91344  34.427  35.455  11.093
24804W        W91345  31.816  15.352  13.925
24805W        W91346  14.320   3.314   0.905
24806W        W91347  35.752  37.694  13.331
24807W        W91348  34.437  21.546   1.406
24808W        W91349  13.476  28.734   2.785
24809W        W91350  42.532  41.915  12.455
24810W        W91351   4.192  33.586  14.469
24811W        W91352  19.812  14.791   0.718
24812W        W91353   1.712  34.079   4.695
24813W        W91354  32.260  12.177  14.927
24814W        W91355  10.759  31.961   0.394
24815W        W91356  22.796  42.774  10.532
24816W        W91357   9.126  25.206   2.833
24817W        W91358  25.666  37.446  14.967
24818W        W91359  20.127  25.878   4.114
24819W        W91360  25.503  16.684   4.195
24820W        W91361  25.449  16.247   1.227
24821W        W91362  40.947  27.190   0.420
24822W        W91363  31.500  32.936   4.638
24823W        W91364   9.331  33.161   3.733
24824W        W91365  15.834   2.198   3.259
24825W        W91366  44.320  27.036  10.484
24826W        W91367  23.238  31.538   4.811
24827W        W91368   9.830  34.309   3.724
24828W        W91369   2.829  19.050  13.522
24829W        W91370  36.358  37.664   1.859
24830W        W91371  37.148  42.083   2.227
24831W        W91372  17.137  14.836  14.256
24832W        W91373   3.438  10.672  14.419
24833W        W91374  34.278  37.464  11.995
24834W        W91375  35.541  30.115  12.044
24835W        W91376  38.000  44.465  13.810
24836W        W91377   7.959  23.274  12.954
24837W        W91378  10.829  12.350   4.095
24838W        W91379  26.105   6.294   0.035
24839W        W91380  24.563   3.197  13.818
24840W        W91381  29.499  24.412  12.528
24841W        W91382  32.453  26.983   0.809
24842W        W91383  31.957  17.529   2.139
24843W        W91384  28.580  12.941  14.650
24844W        W91385  32.612  23.762   4.913
24845W        W91386   7.245  16.943   0.989
24846W        W91387  21.748  23.054  11.729
24847W        W91388  16.096  15.737   0.261
24848W        W91389  25.194  12.266  13.933
24849W        W91390  34.539  27.335  12.362
24850W        W91391  21.877   8.401  14.818
24851W        W91392   5.846  12.757  14.009
24852W        W91393  21.993  11.614  12.559
24853W        W91394  27.100  30.113   2.194
24854W        W91395   6.979  11.556  12.025
24855W        W91396  23.626  39.876  11.293
24856W        W91397  42.996   9.293  13.563
24857W        W91398  15.106  42.473  10.510
24858W        W91399  11.230  17.220   2.624
24859W        W91400  17.257  19.799  10.320
24860W        W91401   1.013  36.422   3.348
24861W        W91402  28.668  35.486  13.434
24862W        W91403  29.714  20.583  12.466
24863W        W91404  11.798  29.516  13.555
24864W        W91405  15.332  14.751   2.579
24865W        W91406  23.498  19.979   4.296
24866W        W91407  21.718  38.814  14.898
24867W        W91408  13.749  42.452   2.390
24868W        W91409  42.377  29.216   1.630
24869W        W91410  37.602  35.135  11.015
24870W        W91411  26.969  16.344  11.958
24871W        W91412  13.866  19.116   2.321
24872W        W91413  22.966  34.286   0.773
24873W        W91414  17.224  17.148   4.113
24874W        W91415  23.019   9.070   1.343
24875W        W91416  21.512  11.015   0.261
24876W        W91417   1.960   0.866   2.300
24877W        W91418  38.442  39.980  12.963
24878W        W91419   6.345  25.645  12.866
24879W        W91420  36.933   2.879  12.828
24880W        W91421  37.257  40.435   1.300
24881W        W91422  41.248  27.008   2.269
24882W        W91423   5.880  31.141   1.829
24883W        W91424   7.941  27.681   1.447
24884W        W91425  40.498  44.296  12.494
24885W        W91426  31.199  31.900   3.701
24886W        W91427   0.063  10.167   1.507
24887W        W91428  39.416  33.261  11.174
24888W        W91429  37.894  23.470  13.983
24889W        W91430  21.996  31.121  13.934
24890W        W91431  15.626  36.442   0.752
24891W        W91432  26.765  29.712   3.351
24892W        W91433   1.542  34.439   3.953
24893W        W91434  28.126  22.064   4.804
24894W        W91435  29.013  34.095  13.975
24895W        W91436  32.879  22.259   2.767
24896W        W91437  39.944  17.573   1.891
24897W        W91438   1.945  20.503  11.425
24898W        W91439  17.511   3.805  11.671
24899W        W91440   2.855  38.929  12.559
24900W        W91441  40.299   9.658  10.596
24901W        W91442  36.366  13.332  13.783
24902W        W91443   4.352  12.147   2.583
24903W        W91444  20.999  28.974  12.113
24904W        W91445  34.744  39.626  11.167
24905W        W91446  38.167   7.342  12.091
24906W        W91447  17.996  21.220   0.363
24907W        W91448  14.629  31.915  14.346
24908W        W91449  41.359  15.296   3.094
24909W        W91450  37.292   9.282   0.710
24910W        W91451  26.574  40.240  11.210
24911W        W91452  16.803  17.803  13.799
24912W        W91453  26.527  18.759   2.381
24913W        W91454   4.908  24.259   0.380
24914W        W91455  36.135  17.540   4.070
24915W        W91456  11.692  17.119   3.846
24916W        W91457  37.552  30.218   3.249
24917W        W91458  15.673  31.807   2.869
24918W        W91459   2.871   5.044   0.744
24919W        W91460  37.354  35.554  12.832
24920W        W91461  10.628   6.043   3.386
24921W        W91462   6.924   6.889   0.796
24922W        W91463  34.055  22.073   4.079
24923W        W91464   6.766   9.435   4.345
24924W        W91465  25.955  23.092  14.399
24925W        W91466  22.090  41.815   1.009
24926W        W91467  10.922  34.086   1.775
24927W        W91468  41.796  42.845  12.042
24928W        W91469  35.122  36.880   2.141
24929W        W91470   1.268  27.172  11.031
24930W        W91471  24.922   8.252  11.645
24931W        W91472  27.748  43.291  12.863
24932W        W91473  36.162   1.890   5.321
24933W        W91474  30.351  16.634  11.184
24934W        W91475   1.030   1.988  10.628
24935W        W91476  43.319  16.108  13.390
24936W        W91477  39.493  22.760   4.310
24937W        W91478  18.638  34.868   4.199
24938W        W91479   8.828  11.665  11.673
24939W        W91480   3.796  13.530  10.708
24940W        W91481  13.892  37.470  11.184
24941W        W91482  20.461  29.993  11.447
24942W        W91483   4.509   2.223   3.403
24943W        W91484  34.168  41.551   3.118
24944W        W91485  39.556  36.556  13.470
24945W        W91486  27.544  25.519  12.965
24946W        W91487   3.198   0.787   1.728
24947W        W91488  21.739  19.764  11.249
24948W        W91489  33.106   3.467  11.609
24949W        W91490  44.281   9.386   2.722
24950W        W91491  13.899  43.014   1.741
24951W        W91492  28.672   9.479   1.452
24952W        W91493   5.795  31.187  12.021
24953W        W91494  19.210  12.640  11.403
24954W        W91495  31.853  27.979  11.979
24955W        W91496   3.891   1.071   3.686
24956W        W91497  43.971  30.985   3.673
24957W        W91498  21.765   2.436  13.460
24958W        W91499  14.750  30.072   0.414
24959W        W91500   0.241   7.731  10.504
24960W        W91501  32.009  16.614  12.644
24961W        W91502  31.224  23.813  13.453
24962W        W91503  13.852  43.439   1.204
24963W        W91504  32.181  11.237  12.850
24964W        W91505  26.186  36.677   1.374
24965W        W91506  35.148  30.797   4.237
24966W        W91507  34.160  38.019   1.866
24967W        W91508  24.441  29.600   3.884
24968W        W91509  44.902  18.485   3.245
24969W        W91510  21.620  41.441   2.133
24970W        W91511  13.686  11.187  12.210
24971W        W91512  38.862  38.138  13.495
24972W        W91513  22.457   7.440   2.328
24973W        W91514  41.711  40.314   1.923
24974W        W91515  38.261  41.706   1.117
24975W        W91516  31.557  10.252  12.347
24976W        W91517  38.024   3.632   4.324
24977W        W91518  42.256  22.229   0.351
24978W        W91519  19.369   0.242   1.039
24979W        W91520  14.392  27.874  11.159
24980W        W91521   2.219  10.310   3.712
24981W        W91522  18.186  43.034  10.704
24982W        W91523  38.946   6.300   4.188
24983W        W91524  13.321  31.813   3.843
24984W        W91525  33.960   4.796  11.182
24985W        W91526  18.697  44.937   1.266
24986W        W91527  26.207  10.247   2.485
24987W        W91528  26.220  33.093  12.002
24988W        W91529  34.063  18.565   0.494
24989W        W91530  34.315   4.497   5.112
24990W        W91531   6.649  16.592  14.822
24991W        W91532  21.584   0.486  12.401
24992W        W91533   6.930  18.992   4.185
24993W        W91534  36.089  19.622   0.247
24994W        W91535   3.946  41.297   2.850
24995W        W91536  42.884  11.723   0.509
24996W        W91537  31.444  33.435  14.476
24997W        W91538  25.436  29.917   1.837
24998W        W91539  17.252  16.817   1.432
24999W        W91540  41.505   0.957   2.390
25000W        W91541  40.987   6.900   0.887
25001W        W91542  17.636  25.101  14.588
25002W        W91543  44.432   0.905   2.307
25003W        W91544  13.793  24.591  14.383
25004W        W91545  44.769  16.073   2.878
25005W        W91546  10.688  17.791   2.865
25006W        W91547  27.190  40.668   3.670
25007W        W91548  32.314  11.195  11.590
25008W        W91549  40.363  12.956  10.336
25009W        W91550  29.127  33.192   3.230
25010W        W91551  17.584  26.795   0.388
25011W        W91552  11.855   2.719  14.395
25012W        W91553  34.619  25.665  14.875
25013W        W91554  44.880  39.502  10.918
25014W        W91555  40.528   4.766  11.607
25015W        W91556   3.887   3.963   4.843
25016W        W91557  25.502  44.248  10.860
25017W        W91558  16.872   6.690   4.609
25018W        W91559  13.342  43.965  13.888
25019W        W91560  18.728  24.511  14.854
25020W        W91561   9.671   5.437  12.298
25021W        W91562  39.941  26.482   3.252
25022W        W91563  32.757   9.907   4.568
25023W        W91564  39.887  39.344   1.655
25024W        W91565  28.230  14.153  14.493
25025W        W91566  25.663   7.107   2.814
25026W        W91567  17.015   4.148   0.357
25027W        W91568  10.821   2.139  12.746
25028W        W91569  35.611  25.735   2.852
25029W        W91570  33.647  38.645  13.897
25030W        W91571  42.469  16.775  12.247
25031W        W91572  23.656   9.723   0.923
25032W        W91573  29.551  40.636  12.160
25033W        W91574  35.087  14.812   2.278
25034W        W91575  43.539   2.651  13.926
25035W        W91576   2.190   4.126  12.996
25036W        W91577  20.264  28.208   4.970
25037W        W91578   2.786  44.891  13.784
25038W        W91579  35.054  10.290   1.282
25039W        W91580  32.902  26.753  13.454
25040W        W91581  39.327  39.855   0.745
25041W        W91582  26.091   2.706  10.623
25042W        W91583  22.708  26.944   1.404
25043W        W91584  16.466  38.389  11.605
25044W        W91585  14.593   0.902  11.089
25045W        W91586   3.768  38.423   0.949
25046W        W91587  22.960   6.223  11.587
25047W        W91588  22.566  25.899   2.126
25048W        W91589  11.826  27.155   3.242
25049W        W91590  37.269  14.536   0.773
25050W        W91591   9.239  24.801   4.316
25051W        W91592   4.765  39.376  10.561
25052W        W91593  30.948  44.801   1.416
25053W        W91594  23.008  43.050   4.649
25054W        W91595  35.793  22.278   0.860
25055W        W91596  33.965  30.944  11.911
25056W        W91597   1.439  12.803  10.798
25057W        W91598  11.221  21.103  14.974
25058W        W91599  25.131  19.115   2.528
25059W        W91600  44.323   8.734  10.697
25060W        W91601  37.385  23.668   2.521
25061W        W91602  39.101   7.712  11.473
25062W        W91603  13.073  23.044   4.731
25063W        W91604  21.186  13.877  13.584
25064W        W91605  41.901  27.647  10.784
25065W        W91606  29.470  10.829   2.058
25066W        W91607   0.384   4.748   3.486
25067W        W91608  18.246   8.914  11.448
25068W        W91609  26.216   0.055  10.825
25069W        W91610  14.399  15.859  12.139
25070W        W91611  10.471  37.240  12.602
25071W        W91612  24.279  44.515   0.983
25072W        W91613   7.985  19.014  11.174
25073W        W91614  14.968  39.435  12.857
25074W        W91615  16.378  44.409  14.125
25075W        W91616  26.380  38.436   2.380
25076W        W91617  22.028  30.640   2.825
25077W        W91618  33.852  27.154  11.801
25078W        W91619  25.302  19.725  11.971
25079W        W91620  36.026  35.337  12.989
25080W        W91621  10.324  19.098   3.709
25081W        W91622  34.471  34.426   4.459
25082W        W91623  20.840  16.788   1.814
25083W        W91624  12.661   0.542  14.462
25084W        W91625  37.977   0.525  11.117
25085W        W91626  44.194  35.046   1.873
25086W        W91627  22.910   0.512  14.920
25087W        W91628  11.113   9.484  11.180
25088W        W91629  39.888  41.541  13.032
25089W        W91630  19.772  35.590  13.831
25090W        W91631  40.789   6.205   1.230
25091W        W91632   8.663   1.057  11.635
25092W        W91633  11.919  30.699   3.209
25093W        W91634  14.564   0.876  14.318
25094W        W91635  29.727  16.449  12.552
25095W        W91636  25.274   1.542   3.420
25096W        W91637  30.915  29.943   1.723
25097W        W91638  38.605  11.117   3.872
25098W        W91639  21.041  41.539  14.936
25099W        W91640  18.772  39.429   1.451
25100W        W91641  17.121  15.802   3.419
25101W        W91642  11.799  44.498   1.785
25102W        W91643  28.712  28.031  12.391
25103W        W91644  39.994  18.827  10.486
25104W        W91645   1.872  33.641  11.193
25105W        W91646  24.753  12.271  12.947
25106W        W91647  27.060  40.823  12.015
25107W        W91648  36.705  27.169  12.017
25108W        W91649   5.821  32.634  12.194
25109W        W91650  44.864  30.569  11.031
25110W        W91651   5.369   9.401  11.932
25111W        W91652   1.193  23.938   3.281
25112W        W91653  32.900  30.275  11.144
25113W        W91654  19.270  34.440  12.014
25114W        W91655  20.784   5.209   3.355
25115W        W91656  37.105  26.143  13.725
25116W        W91657  19.871  37.997  11.147
25117W        W91658  26.610  13.977  12.833
25118W        W91659  20.187  16.136  12.589
25119W        W91660  24.749  31.765   4.561
25120W        W91661  21.074   5.932  13.925
25121W        W91662   4.868   5.332  12.498
25122W        W91663  13.842  10.474   1.707
25123W        W91664  26.153  23.532  12.943
25124W        W91665  27.547  18.762  12.153
25125W        W91666   9.445   3.232   2.062
25126W        W91667   7.717  11.044   3.614
25127W        W91668  14.582  15.151  11.544
25128W        W91669  12.308  17.174   3.389
25129W        W91670   9.825   6.225   0.516
25130W        W91671  20.457  41.611  11.099
25131W        W91672  25.560  37.975  13.095
25132W        W91673  25.184  33.566  11.556
25133W        W91674  34.343  20.670   4.079
25134W        W91675   2.404  28.001  12.134
25135W        W91676  42.035  11.397   0.761
25136W        W91677  16.562   4.409   1.867
25137W        W91678  18.097  13.751   1.854
25138W        W91679   6.002  35.509   3.411
25139W        W91680   8.024  44.561   3.309
25140W        W91681   6.301  24.377  13.643
25141W        W91682  22.648   1.689   3.688
25142W        W91683   8.437  42.861   0.980
25143W        W91684  43.629  18.514   1.230
25144W        W91685  44.012   4.626  10.599
25145W        W91686  37.162  24.776  13.784
25146W        W91687  39.750  11.272   2.421
25147W        W91688  40.489  41.045  10.959
25148W        W91689  20.279  38.903  12.849
25149W        W91690   7.118  25.163   5.094
25150W        W91691  44.287  12.322  10.746
25151W        W91692   7.188   1.823   2.174
25152W        W91693   4.274  33.072  13.308
25153W        W91694  19.573  15.329  11.700
25154W        W91695  28.084  40.174  12.511
25155W        W91696  23.983  13.804  10.494
25156W        W91697  26.478  24.983  10.717
25157W        W91698   6.105  29.652  13.844
25158W        W91699  25.250  18.843  14.919
25159W        W91700   5.788  16.562   2.075
25160W        W91701   3.926  21.662  14.507
25161W        W91702   8.912   6.042   1.774
25162W        W91703   1.848  37.040  12.601
25163W        W91704   0.222  37.537  13.803
25164W        W91705  28.564  29.609   4.145
25165W        W91706  43.489  31.637   1.746
25166W        W91707  31.549  31.844   2.757
25167W        W91708  23.471  32.910  12.180
25168W        W91709  15.875  26.973  13.115
25169W        W91710  12.677   0.681   4.427
25170W        W91711  27.047  20.999  14.747
25171W        W91712  32.078   4.805   1.175
25172W        W91713  39.330   1.369  14.939
25173W        W91714  37.615   3.314   3.595
25174W        W91715  29.576  16.974   4.959
25175W        W91716  32.563  35.105   0.790
25176W        W91717   4.789  38.459   0.061
25177W        W91718  34.841  42.611   1.165
25178W        W91719  28.487  43.545   4.530
25179W        W91720  38.848   4.054   1.163
25180W        W91721  11.559  44.718  14.476
25181W        W91722   3.228  28.018   0.450
25182W        W91723  32.337  39.154  12.867
25183W        W91724   3.999  22.277  11.081
25184W        W91725   7.428  17.815   2.274
25185W        W91726  43.486  19.273  14.002
25186W        W91727  18.333   7.253  13.044
25187W        W91728  38.796  27.855   4.035
25188W        W91729  18.626  44.287  11.658
25189W        W91730  10.356  43.182  10.884
25190W        W91731  37.278  42.058  10.975
25191W        W91732  44.817  40.268   2.893
25192W        W91733  32.151  17.503   3.690
25193W        W91734  20.542  12.277  14.914
25194W        W91735   4.293  30.367  13.810
25195W        W91736  22.276  13.129  13.739
25196W        W91737   2.508  39.334   2.723
25197W        W91738  41.302   2.429   0.351
25198W        W91739   3.841  24.150   0.058
25199W        W91740  18.541  15.350  13.761
25200W        W91741   9.202  20.166   3.670
25201W        W91742   8.656  29.500   4.533
25202W        W91743  38.353  16.473   2.094
25203W        W91744  28.043  11.252  10.756
25204W        W91745   4.902   6.687   3.680
25205W        W91746  26.506   2.631   1.190
25206W        W91747  37.938  15.160   4.826
25207W        W91748  14.206  32.343   4.217
25208W        W91749  25.996  13.950  10.332
25209W        W91750   4.425  25.281   0.757
25210W        W91751  43.416  43.461   2.148
25211W        W91752  37.876  21.287  13.448
25212W        W91753  20.780  24.616  14.857
25213W        W91754  23.543  32.130  14.343
25214W        W91755  19.626   1.980   0.320
25215W        W91756  19.536  33.396   0.366
25216W        W91757  17.316  25.473   3.847
25217W        W91758  22.916  37.074  12.130
25218W        W91759  40.344   6.635   4.313
25219W        W91760  39.241  42.662   2.301
25220W        W91761  13.450  14.344  12.948
25221W        W91762  17.868  29.016  12.130
25222W        W91763   6.883  40.729  13.792
25223W        W91764  30.145  42.161   3.676
25224W        W91765  34.667  37.126  11.989
25225W        W91766  36.783  16.142   3.964
25226W        W91767  29.826  26.943  14.231
25227W        W91768  35.595   4.348  12.027
25228W        W91769  30.368  33.659  12.994
25229W        W91770  36.259  12.464   0.445
25230W        W91771   4.301  13.248   4.431
25231W        W91772  28.051  28.570   1.195
25232W        W91773  41.569   3.078  12.800
25233W        W91774  38.344   2.546   0.817
25234W        W91775  32.101  34.423  13.321
25235W        W91776  30.673  10.431   0.976
25236W        W91777  25.167  20.236  13.907
25237W        W91778  36.564  38.244  11.183
25238W        W91779   3.579   9.327  13.078
25239W        W91780  17.453  33.481  11.920
25240W        W91781  44.012  18.325  14.499
25241W        W91782  24.514   0.968   3.868
25242W        W91783  15.657  35.145   4.484
25243W        W91784  30.656  17.564  11.008
25244W        W91785   6.732   3.055   5.437
25245W        W91786  14.246   1.827   5.270
25246W        W91787   5.309  32.382   5.399
25247W        W91788  39.398  37.384  11.458
25248W        W91789  31.519   3.941   3.267
25249W        W91790  38.892  30.271   1.458
25250W        W91791  39.873   7.252   3.725
25251W        W91792  27.857   4.758  14.007
25252W        W91793  19.969  27.300   3.666
25253W        W91794  37.025  12.623  12.817
25254W        W91795  24.065  26.727   2.874
25255W        W91796  17.372  25.554  12.899
25256W        W91797  39.769  36.509  12.980
25257W        W91798  25.167  25.549   3.738
25258W        W91799  35.389  40.072   3.717
25259W        W91800  15.956   2.450  14.289
25260W        W91801  31.541   9.076  13.039
25261W        W91802  17.173   8.133   4.510
25262W        W91803  16.714  27.597   1.907
25263W        W91804  12.902  28.217  13.399
25264W        W91805  38.345   4.835  11.060
25265W        W91806  12.843  18.846   4.236
25266W        W91807   4.349  24.781  14.687
25267W        W91808  16.797  43.627  13.940
25268W        W91809   7.793  34.407  14.100
25269W        W91810  39.583  39.554  11.946
25270W        W91811  13.438  40.501   3.135
25271W        W91812   0.676  11.585  13.376
25272W        W91813  38.973  13.877  13.960
25273W        W91814   4.910  10.326  11.271
25274W        W91815  32.969  30.362   4.632
25275W        W91816  27.123  11.721  10.547
25276W        W91817  13.373   6.316  10.825
25277W        W91818  36.966  29.747  11.638
25278W        W91819  13.441   9.107   5.117
25279W        W91820  26.127  14.500  11.052
25280W        W91821  37.891  18.096  14.237
25281W        W91822  13.074   9.234  14.923
25282W        W91823   8.669  23.435   3.404
25283W        W91824  36.326  37.631   5.022
25284W        W91825  21.591  40.101   4.320
25285W        W91826  39.315  30.401  12.581
25286W        W91827  37.486  13.175  10.651
25287W        W91828  37.428  12.155   4.834
25288W        W91829   1.791   6.757  13.435
25289W        W91830  20.188   5.552  12.163
25290W        W91831  18.218  13.824  13.022
25291W        W91832  14.596  19.696  11.954
25292W        W91833   4.937  44.530   1.659
25293W        W91834  42.694  32.258  11.801
25294W        W91835   0.504  13.638   4.723
25295W        W91836  36.460  35.859  11.545
25296W        W91837  27.258  13.784   0.491
25297W        W91838  42.525  32.410  10.358
25298W        W91839  24.671  12.311   3.183
25299W        W91840  40.747   9.653   1.900
25300W        W91841  27.472   8.714   2.148
25301W        W91842  39.226  14.270  13.493
25302W        W91843   5.770  16.792  13.501
25303W        W91844   4.111  12.079   1.297
25304W        W91845   6.174   3.617   1.732
25305W        W91846  22.490   4.427  11.465
25306W        W91847  32.384  10.418   2.129
25307W        W91848  27.615  16.228   9.990
25308W        W91849   0.469  31.617   1.373
25309W        W91850   8.440  14.628  12.842
25310W        W91851  38.585  18.196   3.627
25311W        W91852  11.834  43.545  13.972
25312W        W91853  29.530  43.929  11.590
25313W        W91854  14.309   3.248  13.977
25314W        W91855  12.039  10.387   0.660
25315W        W91856  41.558  43.312   2.178
25316W        W91857  42.621  35.314   2.219
25317W        W91858  37.564  31.519   2.281
25318W        W91859  14.618  14.555   4.350
25319W        W91860   9.238   2.268   3.145
25320W        W91861  21.188  40.276   0.432
25321W        W91862   3.404  44.262   3.514
25322W        W91863   5.397  41.497  13.466
25323W        W91864   2.583   9.103  14.833
25324W        W91865  11.722  28.762   1.278
25325W        W91866  38.138  33.852  11.126
25326W        W91867  18.307  37.546  12.169
25327W        W91868  41.734  13.361  14.367
25328W        W91869  23.119   3.654   3.742
25329W        W91870  17.273   8.728   2.171
25330W        W91871  27.698  42.020   3.992
25331W        W91872  18.165  31.840   3.715
25332W        W91873  43.549  19.320  13.042
25333W        W91874  20.209  19.350   4.318
25334W        W91875   2.820   6.636   3.272
25335W        W91876  37.841  20.571  14.392
25336W        W91877  30.370  19.031  10.644
25337W        W91878  43.398  17.523   1.426
25338W        W91879  43.497   9.233   4.385
25339W        W91880  22.239  17.356   1.354
25340W        W91881  24.197  10.084   0.275
25341W        W91882  23.037   9.811   4.039
25342W        W91883  25.525  13.366   1.795
25343W        W91884  16.252  10.073  11.097
25344W        W91885   4.897   7.188   3.737
25345W        W91886  34.207  14.391   9.872
25346W        W91887  24.910  35.441   2.706
25347W        W91888  34.172   4.306  13.565
25348W        W91889  23.674  19.837   3.212
25349W        W91890  42.291  16.986  11.516
25350W        W91891   7.422  27.249   4.309
25351W        W91892   9.230  21.803  12.639
25352W        W91893  26.720  10.205  12.836
25353W        W91894   8.280  34.420  11.729
25354W        W91895  11.991  10.992   1.363
25355W        W91896   8.960   0.395   1.500
25356W        W91897   1.268  26.435  11.256
25357W        W91898  44.024   8.947  12.486
25358W        W91899   9.868  25.815   0.974
25359W        W91900  14.213  25.403   0.631
25360W        W91901  25.694  30.389  13.118
25361W        W91902  19.956  25.666   3.656
25362W        W91903  12.477  10.914  12.942
25363W        W91904  15.119  17.762  11.434
25364W        W91905  10.857  38.593   1.362
25365W        W91906  10.861  41.662  13.821
25366W        W91907  16.678  16.374  13.109
25367W        W91908   4.598  35.331   2.533
25368W        W91909  26.452  26.881  13.887
25369W        W91910  15.788  32.385   3.671
25370W        W91911  39.239  12.764  14.814
25371W        W91912   6.510   5.783   3.610
25372W        W91913  26.405  13.652  10.532
25373W        W91914  23.174  25.017   0.641
25374W        W91915  34.717  14.686  14.835
25375W        W91916  24.815  15.233  11.234
25376W        W91917  27.268  24.471   1.506
25377W        W91918   3.813  18.734   1.423
25378W        W91919  39.611  24.145  13.853
25379W        W91920  22.810  31.754   4.072
25380W        W91921  11.468  27.066  12.526
25381W        W91922   9.251   1.254   0.464
25382W        W91923  18.512  42.779  13.951
25383W        W91924  43.831   7.747   2.934
25384W        W91925  23.045  25.295  11.695
25385W        W91926  40.864  37.372  10.537
25386W        W91927  23.007   8.490  11.440
25387W        W91928  42.393   6.432   3.840
25388W        W91929  31.433  17.179   1.439
25389W        W91930  34.846  32.701  11.479
25390W        W91931  16.069  13.665   0.978
25391W        W91932  13.813  18.273   1.681
25392W        W91933  36.870  42.828   3.724
25393W        W91934  27.142  11.392   3.360
25394W        W91935  21.199  17.431  14.574
25395W        W91936  31.160  13.512  10.739
25396W        W91937  16.821   3.285  14.561
25397W        W91938  29.407   4.191   1.844
25398W        W91939  18.138  13.760  14.924
25399W        W91940  13.013  27.389  11.196
25400W        W91941  24.024  43.255   1.753
25401W        W91942  14.790  22.998   2.334
25402W        W91943  10.068  43.743   4.588
25403W        W91944  44.720  15.568  12.073
25404W        W91945  17.996  17.047  11.092
25405W        W91946  43.968  28.971   1.580
25406W        W91947  28.164  37.565   1.210
25407W        W91948   3.917  29.698   1.488
25408W        W91949   0.311   4.193  12.983
25409W        W91950  33.454  25.661   0.260
25410W        W91951  13.999   6.372   1.121
25411W        W91952  27.454  36.422   3.314
25412W        W91953   1.142  33.231   4.487
25413W        W91954  18.558  14.075  11.608
25414W        W91955  40.374  33.843  12.619
25415W        W91956  14.496  19.261  13.524
25416W        W91957   2.449  18.010  14.349
25417W        W91958  16.652  13.107  12.492
25418W        W91959  10.026   5.782  14.033
25419W        W91960  28.118  15.454   9.842
25420W        W91961  37.593  28.217   3.306
25421W        W91962  41.806  37.132  11.157
25422W        W91963   6.350   9.924  14.772
25423W        W91964  16.272  36.463   4.560
25424W        W91965  33.049  39.530  14.167
25425W        W91966  40.044  40.452  11.169
25426W        W91967  40.554  28.636   4.286
25427W        W91968  44.937   6.919   4.785
25428W        W91969  16.488  27.116  11.718
25429W        W91970  16.143  38.506  13.763
25430W        W91971  32.617  22.250   2.242
25431W        W91972  35.188   2.783   2.147
25432W        W91973  42.528   7.211  13.972
25433W        W91974  24.580  23.537  11.946
25434W        W91975  25.759  10.865  11.620
25435W        W91976  16.134  35.922   2.916
25436W        W91977   8.728  13.816  13.325
25437W        W91978  33.923  37.271   1.544
25438W        W91979  14.904  36.237   1.862
25439W        W91980  11.219   2.911  14.350
25440W        W91981  11.107   2.654   0.664
25441W        W91982  23.953  34.544   2.727
25442W        W91983   6.444  16.359   0.255
25443W        W91984  28.112  27.144   0.488
25444W        W91985  34.594  11.328   4.934
25445W        W91986   3.120  10.505  10.937
25446W        W91987  26.209   8.701   2.397
25447W        W91988  16.194   5.576  12.017
25448W        W91989  34.615  37.352  14.938
25449W        W91990  15.359  34.910  13.063
25450W        W91991  37.623  22.265   3.195
25451W        W91992  20.655  28.373   4.158
25452W        W91993  22.952   3.012  12.952
25453W        W91994  39.278  43.106   3.675
25454W        W91995   4.408  36.668   0.898
25455W        W91996  38.535  18.810   4.588
25456W        W91997  11.967   3.793   2.175
25457W        W91998  23.927  37.023   4.968
25458W        W91999  32.527   2.117   3.196
25459W        W92000  39.069   0.123   2.270
25460W        W92001  39.690   7.301  10.964
25461W        W92002  30.486  18.803  11.280
25462W        W92003  38.078  19.603  12.848
25463W        W92004  41.271  41.845   4.331
25464W        W92005   2.396   1.791   0.255
25465W        W92006  33.153  26.626   2.000
25466W        W92007  14.160  18.109   3.585
25467W        W92008  10.397  12.389  11.086
25468W        W92009  18.063  40.974  12.487
25469W        W92010  39.494  36.429  14.306
25470W        W92011  39.763  38.006  13.362
25471W        W92012  16.447  35.010   3.314
25472W        W92013  20.629   5.345   4.950
25473W        W92014  12.381   9.924   2.251
25474W        W92015  12.097  31.962  12.220
25475W        W92016  14.095  24.112  12.025
25476W        W92017  27.624  28.742   4.403
25477W        W92018  36.692  15.272   0.576
25478W        W92019   2.281  42.008   0.868
25479W        W92020  30.570  35.971   0.877
25480W        W92021  13.793  17.492   3.317
25481W        W92022  36.893  34.263   0.724
25482W        W92023  12.319  14.628  14.860
25483W        W92024  32.084  38.002   0.044
25484W        W92025  35.335   6.207   4.979
25485W        W92026  31.771  40.388  11.592
25486W        W92027  30.134  37.584  10.990
25487W        W92028  35.209   7.414  13.295
25488W        W92029  44.718  15.567   2.182
25489W        W92030  25.470  23.323   2.113
25490W        W92031  34.673   3.717   2.357
25491W        W92032   0.021  31.915   1.408
25492W        W92033  25.908  44.751   2.702
25493W        W92034  40.261  44.817  12.988
25494W        W92035   6.835   7.995   1.472
25495W        W92036  24.198  38.362   3.368
25496W        W92037  11.310  33.032  12.534
25497W        W92038  39.745  12.878  14.921
25498W        W92039  19.804  34.510   2.754
25499W        W92040  39.096  24.078   3.484
25500W        W92041  15.713  14.626  13.774
25501W        W92042  43.126  24.958  11.074
25502W        W92043  42.957   2.510   1.833
25503W        W92044  27.039   2.820  14.467
25504W        W92045  37.779  24.211   3.840
25505W        W92046  23.676   2.006   0.451
25506W        W92047  36.624  43.876  10.889
25507W        W92048  34.522  28.846  12.154
25508W        W92049  15.574  24.358  11.525
25509W        W92050  15.505  33.419  14.041
25510W        W92051  36.604  20.537  11.544
25511W        W92052  13.897   0.387  13.272
25512W        W92053  15.786  38.298  12.422
25513W        W92054  35.477   3.226   3.511
25514W        W92055  10.836  19.303   3.749
25515W        W92056  41.786  19.198  14.267
25516W        W92057   6.920  26.041   5.423
25517W        W92058  41.987   6.673   3.602
25518W        W92059  31.401  19.072   0.401
25519W        W92060  24.231  34.404  13.409
25520W        W92061  29.602   5.722   0.860
25521W        W92062  31.928  14.288  13.198
25522W        W92063  41.449  31.227  12.963
25523W        W92064   0.257  32.149   2.223
25524W        W92065  12.380  37.399   2.703
25525W        W92066  40.075  40.821  14.925
25526W        W92067  30.407   4.569   1.308
25527W        W92068   7.891  37.844   5.357
25528W        W92069   9.632  14.587   1.204
25529W        W92070  38.542  25.003  13.419
25530W        W92071  41.020   5.571   4.445
25531W        W92072  10.245  43.519  11.307
25532W        W92073  27.640  23.749  14.956
25533W        W92074  17.508  36.877  12.631
25534W        W92075  38.448  24.167   0.189
25535W        W92076  32.540  17.027   2.866
25536W        W92077  26.296   3.730   2.187
25537W        W92078   1.285  41.921  12.984
25538W        W92079  25.057  16.311   2.871
25539W        W92080  41.804  33.863  13.445
25540W        W92081  31.508   0.475   1.857
25541W        W92082  17.763  25.529  13.276
25542W        W92083   1.113  22.717   0.296
25543W        W92084  26.539   8.872   1.142
25544W        W92085  14.747  33.093  14.445
25545W        W92086  11.783  34.358  12.000
25546W        W92087  13.127  35.410  13.284
25547W        W92088  42.308  40.356  13.394
25548W        W92089  19.311  12.570  10.922
25549W        W92090  38.757   5.862   0.243
25550W        W92091  41.246  20.741  11.662
25551W        W92092  23.552   2.648   3.196
25552W        W92093  10.159  21.520  14.454
25553W        W92094   9.528  31.959   0.017
25554W        W92095  41.971  10.150   0.348
25555W        W92096  25.445   6.753  10.567
25556W        W92097  34.049  21.916   1.347
25557W        W92098  20.515  20.229  11.117
25558W        W92099  38.959  34.594  13.124
25559W        W92100   8.589  10.619  12.936
25560W        W92101  36.966  24.007   0.365
25561W        W92102  19.002  20.007  11.518
25562W        W92103   1.652  10.398  12.020
25563W        W92104  11.689   1.303  10.780
25564W        W92105   7.215  36.958  11.222
25565W        W92106  18.718  39.092  11.686
25566W        W92107  24.294   7.451   1.718
25567W        W92108  24.637  20.478  11.109
25568W        W92109  12.363  14.079   2.632
25569W        W92110   9.364  35.207   1.722
25570W        W92111  42.415   7.709  11.193
25571W        W92112  39.804  30.948  14.390
25572W        W92113   7.711  27.147   2.303
25573W        W92114  42.240   6.700   4.665
25574W        W92115  40.400  32.006  13.912
25575W        W92116  40.475   1.322  10.678
25576W        W92117  12.771  25.322  12.956
25577W        W92118  30.157  36.326   1.096
25578W        W92119   1.344   9.645   0.060
25579W        W92120  12.041  26.084  14.734
25580W        W92121  19.609  21.088  14.073
25581W        W92122  19.844  39.916  12.195
25582W        W92123  20.099  23.446  11.922
25583W        W92124  40.430  39.515  12.147
25584W        W92125  31.968   4.233   0.340
25585W        W92126  27.214  23.093   0.325
25586W        W92127  17.127  24.713   1.318
25587W        W92128   6.385  37.222  13.550
25588W        W92129  17.540  34.106  13.367
25589W        W92130  17.143  32.077  12.472
25590W        W92131  27.493  19.071   3.093
25591W        W92132  28.441  42.957  13.509
25592W        W92133  37.402  41.558  11.037
25593W        W92134  39.524  10.973  14.349
25594W        W92135  22.329  31.678   0.059
25595W        W92136  12.405  33.374   4.412
25596W        W92137  11.208  31.370  11.456
25597W        W92138  32.591  23.241  14.500
25598W        W92139  16.381  19.762  14.882
25599W        W92140   6.891   1.025  12.989
25600W        W92141  40.866   0.243   0.860
25601W        W92142  34.568  20.618  12.589
25602W        W92143  34.842  26.435  14.416
25603W        W92144  13.011  16.597   1.184
25604W        W92145  11.882  33.503  10.199
25605W        W92146  12.406  12.844  10.701
25606W        W92147  31.954  13.664  13.885
25607W        W92148  14.744  25.274  10.361
25608W        W92149  41.058  33.386   2.251
25609W        W92150  36.336  31.650   1.745
25610W        W92151  13.883   8.654  12.412
25611W        W92152  36.607   2.744   0.018
25612W        W92153  39.494  41.330  14.260
25613W        W92154  17.346  19.726  13.646
25614W        W92155  10.833   9.508  11.637
25615W        W92156  19.491  44.711   0.891
25616W        W92157  17.172  40.784   2.339
25617W        W92158  12.862  12.675   3.690
25618W        W92159   6.463  14.676   2.865
25619W        W92160   6.430  26.615  10.700
25620W        W92161  33.844   0.738  10.224
25621W        W92162  34.889  26.622   0.462
25622W        W92163  16.862  18.271  14.022
25623W        W92164  39.360  36.651   0.857
25624W        W92165  28.561   8.130   4.488
25625W        W92166  27.839   5.052   4.286
25626W        W92167  28.843  18.388  12.942
25627W        W92168  43.011  23.661  13.580
25628W        W92169  18.103  41.311  13.022
25629W        W92170  10.062  36.184  11.984
25630W        W92171   2.525  14.720  13.387
25631W        W92172  22.176  24.935  13.180
25632W        W92173   7.750  25.025  10.120
25633W        W92174  14.174  10.175  14.660
25634W        W92175   6.119  30.920   4.552
25635W        W92176   1.472  33.410  13.434
25636W        W92177  43.766  15.697   0.206
25637W        W92178  21.552  15.159  11.900
25638W        W92179  40.720  22.245  14.701
25639W        W92180  11.767  22.651   1.359
25640W        W92181  14.667   3.260  14.349
25641W        W92182  37.027   9.150   3.751
25642W        W92183  19.016  42.578  14.252
25643W        W92184  39.046  44.274  13.602
25644W        W92185  20.910   1.114   5.198
25645W        W92186  36.628  34.061   1.725
25646W        W92187  14.585  22.780   0.370
25647W        W92188   1.037  28.568   0.757
25648W        W92189  14.160  28.170  11.630
25649W        W92190   4.245  16.116   0.845
25650W        W92191  41.435  17.004  13.464
25651W        W92192   5.165  10.137   3.603
25652W        W92193  35.835  18.431  11.110
25653W        W92194   9.314   9.224  13.800
25654W        W92195   6.715  23.267   2.228
25655W        W92196   4.773  14.770   3.310
25656W        W92197  24.463  14.771   1.353
25657W        W92198  41.020  38.457  11.202
25658W        W92199  27.025   9.134   3.824
25659W        W92200  26.503   5.002   3.246
25660W        W92201  35.374  38.314  11.109
25661W        W92202  29.007  23.791   2.835
25662W        W92203  15.702  44.778  12.457
25663W        W92204  33.880   5.905  10.958
25664W        W92205  40.994  19.665  11.180
25665W        W92206  43.848   7.766   2.424
25666W        W92207  18.210  30.189  12.923
25667W        W92208  43.741  16.746  11.516
25668W        W92209  17.177  28.549   4.248
25669W        W92210  43.343  12.437   4.650
25670W        W92211  12.915  11.288  12.723
25671W        W92212  23.699  41.550   3.348
25672W        W92213  32.224  28.596  14.426
25673W        W92214   6.318  38.392  13.978
25674W        W92215  14.338  41.538   2.350
25675W        W92216  32.020  39.480  14.933
25676W        W92217  19.574  10.192   0.979
25677W        W92218  22.204  42.275   2.314
25678W        W92219  43.859  15.551  12.392
25679W        W92220  33.937  30.849  10.840
25680W        W92221  21.268  12.761   1.267
25681W        W92222   1.047   4.765   0.865
25682W        W92223  11.424  35.965  14.541
25683W        W92224  38.186  35.833   2.137
25684W        W92225   1.309  23.706  10.553
25685W        W92226  44.227  43.175  14.777
25686W        W92227  37.019  13.898   1.330
25687W        W92228  26.091  25.306   4.874
25688W        W92229  33.857  33.230  11.634
25689W        W92230   5.185  34.492   3.729
25690W        W92231  21.360  23.472   1.365
25691W        W92232  22.989   8.801   2.694
25692W        W92233  14.030   0.995   4.089
25693W        W92234   2.769  41.892  12.802
25694W        W92235  20.901  30.061   1.631
25695W        W92236   6.091  38.534   5.306
25696W        W92237  13.872  20.619  10.814
25697W        W92238  16.179   2.394  11.759
25698W        W92239  17.028   3.230  12.391
25699W        W92240  19.241   4.116  13.541
25700W        W92241   7.288  27.517  11.641
25701W        W92242  21.722  25.105   2.462
25702W        W92243   0.801   6.900  12.423
25703W        W92244  33.373  18.811  13.658
25704W        W92245  24.982  35.173  14.999
25705W        W92246   3.972  42.691  14.390
25706W        W92247  38.905  31.662  13.534
25707W        W92248   8.181  24.002   2.835
25708W        W92249  36.893   4.660   1.301
25709W        W92250  12.836  40.814   0.271
25710W        W92251  24.814   9.230  13.899
25711W        W92252   1.953  34.160   2.628
25712W        W92253   8.473  27.029   2.635
25713W        W92254  24.054   4.100  10.771
25714W        W92255  39.579  38.398  13.061
25715W        W92256   9.318  32.672   4.639
25716W        W92257  23.182  28.245   3.752
25717W        W92258  21.609  40.890  12.095
25718W        W92259  11.769  24.992  14.105
25719W        W92260  19.656  30.510   3.561
25720W        W92261  39.874  16.968   0.053
25721W        W92262   3.595  21.106   0.946
25722W        W92263  43.349  17.336  13.952
25723W        W92264  29.089  26.090  11.471
25724W        W92265   2.303  42.574  11.080
25725W        W92266   4.876   3.456   1.163
25726W        W92267   8.840   7.089   4.185
25727W        W92268  11.583  31.893   3.824
25728W        W92269  33.816   9.812  11.583
25729W        W92270  35.411   6.270   0.693
25730W        W92271  40.387   7.738   3.886
25731W        W92272  36.545  28.373   0.450
25732W        W92273   9.087  27.482   0.877
25733W        W92274  31.900  40.963  13.391
25734W        W92275  17.458  31.721   3.278
25735W        W92276  20.484   9.782   2.816
25736W        W92277  34.136  19.114   2.903
25737W        W92278  33.914  16.350   2.712
25738W        W92279   2.036  41.157   2.822
25739W        W92280  30.911  23.054  12.921
25740W        W92281   6.875  13.675   3.218
25741W        W92282  35.578  39.723   3.167
25742W        W92283   6.750   1.490  13.879
25743W        W92284   8.675  17.254  14.075
25744W        W92285  26.593  20.020   3.559
25745W        W92286   7.457  21.505  12.411
25746W        W92287  23.423  20.452   4.062
25747W        W92288  26.780  12.936   1.947
25748W        W92289  11.260  21.326   3.669
25749W        W92290  17.510  14.425   1.891
25750W        W92291  17.052  22.032   1.764
25751W        W92292  23.600   2.334  13.756
25752W        W92293  23.715  23.264  13.984
25753W        W92294  43.919  41.427   1.287
25754W        W92295  38.658  24.395  12.425
25755W        W92296  25.769  29.566   3.548
25756W        W92297  13.827  43.545  14.353
25757W        W92298  31.320  40.624   2.154
25758W        W92299   0.512  12.165   4.790
25759W        W92300   9.752  38.499  12.545
25760W        W92301  26.522  13.839   4.138
25761W        W92302  16.152  16.803   1.638
25762W        W92303  16.551  10.406  10.188
25763W        W92304   9.194  38.331  14.158
25764W        W92305  18.569   0.386   2.814
25765W        W92306  37.156   9.596  12.599
25766W        W92307   6.188  17.653   1.852
25767W        W92308  28.986  37.029  14.033
25768W        W92309  37.578   0.449  14.555
25769W        W92310  21.361  40.000  11.548
25770W        W92311   6.315  20.137   4.679
25771W        W92312   6.741  36.882  10.749
25772W        W92313  24.119  16.089  13.342
25773W        W92314  15.826   3.371  12.952
25774W        W92315  20.120  16.474   4.984
25775W        W92316   2.882   4.428   1.228
25776W        W92317  22.003  34.043   4.234
25777W        W92318   1.710  22.983   5.046
25778W        W92319  42.377   1.396   3.900
25779W        W92320  37.318  33.984  11.623
25780W        W92321   9.645  19.294  10.520
25781W        W92322   0.298   2.442   2.123
25782W        W92323   2.834  25.847  13.778
25783W        W92324  24.169   6.145  10.343
25784W        W92325   4.530  14.196  14.746
25785W        W92326  40.258  10.310  14.702
25786W        W92327  13.732   7.168   1.664
25787W        W92328  31.547   8.852  12.550
25788W        W92329  36.218   7.660   0.948
25789W        W92330  35.568   3.988  11.063
25790W        W92331  30.400   3.082  11.943
25791W        W92332  35.784  18.535   3.752
25792W        W92333  24.299  34.937   1.963
25793W        W92334  22.695  25.299  12.107
25794W        W92335  19.514  42.307   1.404
25795W        W92336  44.335   1.789  14.338
25796W        W92337  27.210  24.542  13.546
25797W        W92338   4.715  21.255   1.293
25798W        W92339  11.299  15.200   3.831
25799W        W92340  44.964  31.603  13.452
25800W        W92341   8.786   9.366   4.564
25801W        W92342  38.407  34.863  13.965
25802W        W92343  42.849  33.462   0.358
25803W        W92344  24.791  15.243   3.920
25804W        W92345   2.324  12.384  14.201
25805W        W92346  21.180  27.659   9.673
25806W        W92347   3.187  20.126  11.675
25807W        W92348  32.339   8.234  12.721
25808W        W92349  22.640  25.418   3.921
25809W        W92350  25.042  19.555  10.726
25810W        W92351   8.089   1.772  10.733
25811W        W92352  38.048   5.279  12.080
25812W        W92353  12.910  30.905   2.402
25813W        W92354  24.475  36.979   0.202
25814W        W92355   5.767  13.800   1.932
25815W        W92356  14.647   4.127   2.434
25816W        W92357   8.351  30.115   4.535
25817W        W92358   9.408  37.238   0.211
25818W        W92359  30.307   6.337  11.380
25819W        W92360  43.534  22.090   3.705
25820W        W92361  38.413  41.440   3.175
25821W        W92362  29.467  14.068  12.872
25822W        W92363   6.972  40.779   3.909
25823W        W92364  43.490  22.549   0.844
25824W        W92365  12.567  32.446   4.138
25825W        W92366  37.793  38.627   3.182
25826W        W92367  35.839  36.369   0.394
25827W        W92368  19.224  12.410  13.920
25828W        W92369  23.029  36.937   4.466
25829W        W92370  26.589  19.450  13.391
25830W        W92371  16.892  36.817   3.473
25831W        W92372  19.767  27.125  13.984
25832W        W92373   3.723  10.283   1.228
25833W        W92374   6.809   2.275  14.345
25834W        W92375  24.701   5.569   2.285
25835W        W92376  32.580  19.529  12.498
25836W        W92377   1.538   5.667   0.889
25837W        W92378  32.394   2.447   3.583
25838W        W92379  33.154  24.124  12.486
25839W        W92380  43.723   0.607  14.770
25840W        W92381  35.343  18.684   3.573
25841W        W92382  43.433   4.068   2.446
25842W        W92383  42.404  30.937   1.653
25843W        W92384  44.835  10.671  10.866
25844W        W92385  34.140  42.570   1.764
25845W        W92386  19.691   4.160   2.924
25846W        W92387  44.797  19.749   0.512
25847W        W92388   1.163  14.482  13.030
25848W        W92389  29.976  29.874   4.348
25849W        W92390  17.394   8.130  12.018
25850W        W92391  34.820  26.500   5.018
25851W        W92392   3.688  11.076  13.177
25852W        W92393  21.175  22.928  13.366
25853W        W92394  32.688  21.948  11.136
25854W        W92395  23.880  24.494   1.315
25855W        W92396  34.961  40.548   2.558
25856W        W92397  15.804  18.544  13.897
25857W        W92398  22.644  19.508  11.519
25858W        W92399  41.525  10.615   2.279
25859W        W92400  36.770  33.681  10.867
25860W        W92401  24.482  42.157  12.462
25861W        W92402  26.539  43.805   0.442
25862W        W92403   5.676  11.785  13.978
25863W        W92404  15.828  14.090   2.140
25864W        W92405   1.970   8.498   2.638
25865W        W92406   3.219  44.790   0.903
25866W        W92407  14.763  19.525   1.446
25867W        W92408  18.736  12.394  13.017
25868W        W92409  12.576  28.033  12.089
25869W        W92410  42.972   1.831   3.288
25870W        W92411  31.912  23.092  11.940
25871W        W92412  32.829  36.366   1.996
25872W        W92413   0.891  44.499  14.510
25873W        W92414  23.076  24.535   0.517
25874W        W92415  32.672  33.925   1.886
25875W        W92416   4.790  14.630   2.253
25876W        W92417  37.292  38.435   2.943
25877W        W92418  21.509   3.915  14.908
25878W        W92419  19.138  28.463  11.206
25879W        W92420  13.809  12.719   3.158
25880W        W92421  22.316  13.195   9.734
25881W        W92422  28.218   4.277   4.210
25882W        W92423  40.469  15.171  13.361
25883W        W92424  37.522  34.940  10.549
25884W        W92425   5.387   0.175   1.150
25885W        W92426  40.124  44.803  14.358
25886W        W92427   7.055  36.530  11.473
25887W        W92428  14.825  32.660   4.445
25888W        W92429   3.964  25.547   0.883
25889W        W92430  15.887   1.487  13.153
25890W        W92431   7.776  22.571   4.616
25891W        W92432   2.355   5.178  13.037
25892W        W92433  32.435  21.007  11.442
25893W        W92434  33.481  39.419  13.803
25894W        W92435   7.469  42.859   0.010
25895W        W92436   2.336  36.462  14.920
25896W        W92437   6.874   5.293  13.386
25897W        W92438  43.057  41.230   1.742
25898W        W92439   2.747  14.551  13.957
25899W        W92440  42.976   7.647   0.068
25900W        W92441  27.069  43.626  11.176
25901W        W92442  35.049  36.053   1.487
25902W        W92443   5.110   7.457   1.461
25903W        W92444  39.866  26.053   4.497
25904W        W92445  40.088  34.937  14.910
25905W        W92446  22.752  16.646   1.227
25906W        W92447  13.891  17.859  14.748
25907W        W92448  25.625  12.155   0.800
25908W        W92449  34.884  33.079   3.019
25909W        W92450  19.247  39.759  11.190
25910W        W92451   8.583  41.154  13.932
25911W        W92452  24.815  18.640  13.344
25912W        W92453   7.735  19.287   3.165
25913W        W92454   7.737  37.820   0.061
25914W        W92455   9.895  14.277   1.521
25915W        W92456  20.607  21.975  10.540
25916W        W92457  32.670   0.410  13.107
25917W        W92458   0.300  20.144  12.881
25918W        W92459   3.840  30.205   1.354
25919W        W92460   0.528  18.726  13.144
25920W        W92461  14.367  18.312  11.927
25921W        W92462  30.985   9.274  10.460
25922W        W92463  37.723  12.924  14.871
25923W        W92464  24.541  27.177  10.767
25924W        W92465  12.068  30.830  12.398
25925W        W92466  12.691   7.399  12.419
25926W        W92467   1.433  21.910   3.134
25927W        W92468   3.405  41.249  11.096
25928W        W92469   6.438  44.206   3.632
25929W        W92470   5.448  25.616   0.449
25930W        W92471   7.026  29.508  10.664
25931W        W92472  22.172  16.863  12.096
25932W        W92473  40.776  23.740   4.605
25933W        W92474  19.290  42.572  11.015
25934W        W92475  34.583  29.071   1.708
25935W        W92476  28.892   4.692  11.740
25936W        W92477  21.496  31.579   3.807
25937W        W92478   1.461  33.888   0.674
25938W        W92479  43.985   9.858  10.734
25939W        W92480  13.219  36.470   3.638
25940W        W92481  14.564   4.847  11.739
25941W        W92482  30.387  11.732  14.714
25942W        W92483   5.330  39.885   1.784
25943W        W92484  40.202  15.847  11.523
25944W        W92485   1.854  11.041  13.944
25945W        W92486  23.999  10.406   4.060
25946W        W92487  25.718  41.850  13.859
25947W        W92488  31.383  36.441  13.910
25948W        W92489   5.773  33.545   1.517
25949W        W92490  12.640   0.250   0.937
25950W        W92491  21.608  17.849  12.781
25951W        W92492   9.438   3.770   2.800
25952W        W92493   6.226  16.722  11.993
25953W        W92494  32.462  18.686  14.080
25954W        W92495  34.877   8.886   4.546
25955W        W92496  19.320  17.580  12.681
25956W        W92497   6.904  39.979   1.473
25957W        W92498   5.839  42.335  10.976
25958W        W92499  18.286  18.023  12.091
25959W        W92500  17.529  30.928   2.890
25960W        W92501  18.850  43.407  12.055
25961W        W92502   5.170  14.204   0.963
25962W        W92503  29.837   1.327   3.780
25963W        W92504  44.724   2.184   3.341
25964W        W92505  21.284  43.786   2.996
25965W        W92506   6.177  36.638   0.840
25966W        W92507  28.119  14.447   4.573
25967W        W92508  19.322  29.217  11.842
25968W        W92509  31.326  31.612   4.149
25969W        W92510  26.553   6.476   4.507
25970W        W92511  16.987   8.642   4.545
25971W        W92512  20.059  15.947  13.056
25972W        W92513  42.245  40.485   2.289
25973W        W92514  32.368   9.991  10.231
25974W        W92515   6.123  37.557   3.607
25975W        W92516  41.173  31.142   4.259
25976W        W92517   3.752  23.029  10.512
25977W        W92518  33.185   6.517   4.189
25978W        W92519  26.980   6.919  13.036
25979W        W92520  37.467  36.899   0.627
25980W        W92521  35.998   5.941  13.717
25981W        W92522  15.379   0.399   2.272
25982W        W92523  44.328   2.890  11.930
25983W        W92524  20.136   0.576   4.649
25984W        W92525  43.601   2.812   0.618
25985W        W92526  18.271  40.498   1.951
25986W        W92527  19.275  18.980   2.301
25987W        W92528  36.453  30.958   0.404
25988W        W92529  37.865  37.915  14.236
25989W        W92530  20.646  41.726  12.721
25990W        W92531  38.765  38.753   4.161
25991W        W92532   8.854  37.796   2.634
25992W        W92533  44.387  40.521   0.725
25993W        W92534  34.224   5.658   1.827
25994W        W92535  35.285  17.241   2.480
25995W        W92536  34.468  23.500  12.036
25996W        W92537  29.127  25.248   0.943
25997W        W92538  18.109  28.423  13.557
25998W        W92539  15.683  17.482  13.826
25999W        W92540  21.301  40.578  12.373
26000W        W92541   7.773  26.979  13.320
26001W        W92542  21.592   7.921  13.793
26002W        W92543  39.696   9.610  14.567
26003W        W92544  24.144  28.270   0.151
26004W        W92545   5.846  28.966  13.528
26005W        W92546  10.663   9.530  13.098
26006W        W92547  34.858  24.632  14.237
26007W        W92548   5.762  32.042   2.868
26008W        W92549  42.397   8.468   4.750
26009W        W92550  17.737  31.440  14.275
26010W        W92551   9.634  22.063   1.308
26011W        W92552  33.955   1.260   3.624
26012W        W92553   6.589  25.199   9.793
26013W        W92554  16.800  41.252  13.298
26014W        W92555  34.891  31.942  14.643
26015W        W92556  28.109  15.314   4.114
26016W        W92557  42.446  35.533   4.275
26017W        W92558  25.575  39.043  13.129
26018W        W92559  11.241  39.335   1.251
26019W        W92560  14.084  12.549  14.085
26020W        W92561  25.909  43.956  13.058
26021W        W92562  29.826  29.997   3.840
26022W        W92563   1.889  42.004   4.598
26023W        W92564  26.568  23.139   1.328
26024W        W92565  12.790  37.424   4.710
26025W        W92566  11.601  31.390   3.759
26026W        W92567   1.778  12.721   4.389
26027W        W92568   2.036  24.026  14.507
26028W        W92569  40.963   0.696   2.182
26029W        W92570   7.111  25.410  13.504
26030W        W92571  30.492   0.876  11.885
26031W        W92572  42.205   4.253  11.913
26032W        W92573  39.239   2.755  13.977
26033W        W92574  16.138  34.010   4.554
26034W        W92575  13.359  42.955   2.999
26035W        W92576   3.342  11.297   2.068
26036W        W92577  25.552   6.113   2.838
26037W        W92578  14.814  39.460  13.374
26038W        W92579  30.570  22.504  10.672
26039W        W92580   3.138  18.650  12.644
26040W        W92581  11.322  34.434  13.990
26041W        W92582  28.612  27.916  13.771
26042W        W92583  20.629  43.806   0.827
26043W        W92584  27.148  20.675   2.735
26044W        W92585  39.550  21.667  14.470
26045W        W92586   9.143  17.634  12.414
26046W        W92587  24.575   4.571   2.186
26047W        W92588  31.944  21.415  12.518
26048W        W92589  43.556  39.261   3.882
26049W        W92590  34.654   9.250  11.909
26050W        W92591  16.707  36.180  14.234
26051W        W92592   5.359  37.588  12.949
26052W        W92593   6.741  18.328  14.446
26053W        W92594  13.735   9.266   0.785
26054W        W92595  29.674  21.236   2.250
26055W        W92596  15.671   1.856  11.609
26056W        W92597  33.481  25.748  11.129
26057W        W92598  40.274  24.647  14.771
26058W        W92599  30.795  13.143   2.887
26059W        W92600   3.752   7.291   3.441
26060W        W92601  36.070  37.989  11.997
26061W        W92602  12.674   9.272  14.563
26062W        W92603  17.105  31.525  14.991
26063W        W92604  16.541   9.216  14.298
26064W        W92605  16.116   8.607  11.113
26065W        W92606  14.911  42.332  12.593
26066W        W92607  23.986  38.965  10.532
26067W        W92608   9.470  20.255  13.539
26068W        W92609  41.047  14.795  12.179
26069W        W92610  29.357  42.831   1.207
26070W        W92611  30.390  35.426  13.868
26071W        W92612   7.835  23.691   1.356
26072W        W92613  17.017  34.906  14.979
26073W        W92614  19.845  38.409   3.298
26074W        W92615  37.536  35.384   0.209
26075W        W92616   4.702  41.243   4.194
26076W        W92617   6.987  24.256  11.644
26077W        W92618  22.562   6.742   1.212
26078W        W92619  29.765  20.561  11.087
26079W        W92620   4.240  38.290  12.580
26080W        W92621  28.518  37.942   4.970
26081W        W92622   7.084   5.121  14.441
26082W        W92623   8.247  34.002   4.008
26083W        W92624   8.898  43.188   2.072
26084W        W92625  26.113   0.806   5.017
26085W        W92626   5.392  36.175  13.977
26086W        W92627  37.034  23.246  13.979
26087W        W92628  30.161  38.275   3.737
26088W        W92629  35.450  30.911   3.817
26089W        W92630   5.412  34.589   0.755
26090W        W92631   1.903  15.783  13.951
26091W        W92632  40.368  33.420  10.930
26092W        W92633  24.740  42.096   0.747
26093W        W92634   8.926  10.015  10.702
26094W        W92635  11.704  13.634  11.943
26095W        W92636  16.747  33.171   3.149
26096W        W92637  38.572  28.721  11.135
26097W        W92638   2.932   1.219   1.781
26098W        W92639  25.074  26.935  13.267
26099W        W92640  19.768   6.137  12.343
26100W        W92641  37.020  37.066   2.142
26101W        W92642  22.765  17.516  11.696
26102W        W92643  19.744   8.860  13.530
26103W        W92644  32.451  33.789  12.584
26104W        W92645  31.060  19.115  12.537
26105W        W92646   8.950  24.691  12.444
26106W        W92647  29.525  16.006   4.623
26107W        W92648  16.547  11.833   0.897
26108W        W92649  22.499  19.666  10.839
26109W        W92650  23.530   0.668  11.159
26110W        W92651  44.296  40.246  11.368
26111W        W92652  33.387  16.560  11.639
26112W        W92653  35.620  25.142   2.781
26113W        W92654  26.532  27.732   2.823
26114W        W92655  32.394  20.089  10.761
26115W        W92656  25.859   4.177  10.719
26116W        W92657  10.171  22.620   2.660
26117W        W92658  25.948  31.908   0.571
26118W        W92659   2.937  25.556  12.327
26119W        W92660  37.808  38.958  14.975
26120W        W92661  44.287   3.360  14.839
26121W        W92662  13.613  15.207   4.367
26122W        W92663  42.466   0.233  12.176
26123W        W92664  10.703  41.421  12.442
26124W        W92665  11.250  18.641  14.078
26125W        W92666  17.079  15.773   1.441
26126W        W92667  26.223  22.204  11.638
26127W        W92668  38.081   5.289  14.425
26128W        W92669  10.411  24.249   3.691
26129W        W92670  26.879  17.748   4.031
26130W        W92671   2.931  19.212   1.958
26131W        W92672   0.124  42.944  13.832
26132W        W92673  44.975   5.563   3.068
26133W        W92674  37.431  27.537  11.638
26134W        W92675   7.286  34.801  11.617
26135W        W92676  18.780   8.608  12.050
26136W        W92677  27.196  32.056   2.250
26137W        W92678  28.158  30.159   5.020
26138W        W92679  27.658  16.152  12.896
26139W        W92680  35.808   8.825   4.213
26140W        W92681  25.250  18.664   4.440
26141W        W92682  36.139  27.499   1.919
26142W        W92683  13.723  35.487   0.905
26143W        W92684  19.591  18.617   4.225
26144W        W92685   7.988   3.311  12.063
26145W        W92686  15.873  34.597  10.647
26146W        W92687  15.766   5.327   1.449
26147W        W92688  22.163   2.949   0.796
26148W        W92689  34.959  37.690   3.834
26149W        W92690  32.876  32.961  13.014
26150W        W92691   2.280  11.235  12.004
26151W        W92692   3.933  27.196   0.232
26152W        W92693   7.887  24.758   4.702
26153W        W92694  13.789  29.742  11.166
26154W        W92695   6.870   8.146  12.403
26155W        W92696  34.720   8.299   2.763
26156W        W92697   7.745  17.148   0.987
26157W        W92698  37.714  40.291   3.012
26158W        W92699   3.438  32.827  11.549
26159W        W92700  31.089   6.288   2.727
26160W        W92701   5.416  20.197  13.402
26161W        W92702  25.907   3.332   4.547
26162W        W92703   2.249  28.581   4.344
26163W        W92704  11.813  23.731  14.967
26164W        W92705  34.469   8.443   4.307
26165W        W92706  25.916  32.476  14.937
26166W        W92707  36.860   6.393  13.850
26167W        W92708  35.526  26.237  10.279
26168W        W92709  17.556  17.985   4.059
26169W        W92710   8.765  11.490  10.785
26170W        W92711  32.971  27.107  11.263
26171W        W92712  23.031  34.793   0.922
26172W        W92713  38.041  33.295  12.161
26173W        W92714   7.132  36.891   4.361
26174W        W92715  38.089  13.070   2.813
26175W        W92716  34.419   3.069  12.617
26176W        W92717  11.139  16.911   0.813
26177W        W92718  33.497  43.010   2.327
26178W        W92719  16.591  44.527  11.046
26179W        W92720   1.040  36.862  11.889
26180W        W92721   2.266  43.327  13.090
26181W        W92722  32.508  37.049   0.379
26182W        W92723  28.031  18.346   1.027
26183W        W92724  11.114  19.710   3.035
26184W        W92725  36.531  12.310   2.711
26185W        W92726  27.035   2.999   0.356
26186W        W92727  27.525  31.497  13.600
26187W        W92728   7.159  23.435   0.929
26188W        W92729  22.610  40.971  14.554
26189W        W92730   5.762   3.266  13.528
26190W        W92731   9.584   1.680  14.836
26191W        W92732  17.017  37.894  11.077
26192W        W92733  10.091  12.584  10.708
26193W        W92734   7.915  14.131   0.313
26194W        W92735  29.511   2.910   2.866
26195W        W92736  40.377  16.486  14.817
26196W        W92737  44.388  14.298  11.861
26197W        W92738  18.647  39.022   2.222
26198W        W92739  11.148  23.348   1.739
26199W        W92740  23.468  30.185  12.455
26200W        W92741  35.739  18.364  14.116
26201W        W92742  20.979  10.300  14.329
26202W        W92743  28.526   7.344  14.972
26203W        W92744  40.604  27.000  14.455
26204W        W92745   6.469  43.081  14.008
26205W        W92746  26.230  22.073  13.145
26206W        W92747   5.398  42.014  13.546
26207W        W92748  25.534  29.112  12.147
26208W        W92749  24.125   1.436  10.438
26209W        W92750  34.480   4.955  11.366
26210W        W92751  16.448  43.365   3.825
26211W        W92752  10.879   5.673  14.345
26212W        W92753  22.058   3.832   2.322
26213W        W92754  19.577  13.251   3.240
26214W        W92755  13.736  22.946   4.504
26215W        W92756  11.932  21.726   2.330
26216W        W92757  36.001  42.592  10.747
26217W        W92758  32.246  42.124   0.473
26218W        W92759  34.965  25.943  14.278
26219W        W92760  14.567   4.824   4.496
26220W        W92761  30.704  32.515   3.626
26221W        W92762  44.817   7.378   4.994
26222W        W92763   0.276  19.764   2.443
26223W        W92764  21.091  13.231   1.356
26224W        W92765  44.320  33.044  12.082
26225W        W92766  23.278  42.389  13.428
26226W        W92767  43.985  36.592  13.913
26227W        W92768  42.845  27.480   4.547
26228W        W92769  30.493  39.916   0.249
26229W        W92770  12.880   7.523  14.126
26230W        W92771   1.482  18.437  14.238
26231W        W92772  27.906   3.873   3.516
26232W        W92773   9.987  44.630   2.672
26233W        W92774  24.210  13.454   1.477
26234W        W92775   8.322  11.663  14.827
26235W        W92776  30.505  11.809   4.469
26236W        W92777   8.114  30.662   4.260
26237W        W92778  25.947  19.536   2.264
26238W        W92779  24.731  14.306   1.222
26239W        W92780  18.994  17.974  14.320
26240W        W92781  41.308  37.915  13.000
26241W        W92782  31.016   8.474   4.747
26242W        W92783  34.860  10.804  14.779
26243W        W92784  33.565  29.605  13.982
26244W        W92785  41.487   7.956  10.879
26245W        W92786   8.284   6.252   2.749
26246W        W92787  12.812  30.638  14.034
26247W        W92788  41.364  15.979   1.836
26248W        W92789   4.301   4.329   1.866
26249W        W92790  27.804   0.642  10.144
26250W        W92791  22.333  43.461   4.045
26251W        W92792   5.430  10.690   0.032
26252W        W92793   6.896  34.430   3.798
26253W        W92794  16.335  32.429  14.600
26254W        W92795  25.869  38.654   0.470
26255W        W92796  35.496  23.485   2.199
26256W        W92797  44.820  23.194  13.955
26257W        W92798  32.130  20.950   0.490
26258W        W92799  15.560   1.981   3.655
26259W        W92800   0.681  37.271  13.269
26260W        W92801  10.785  13.197  12.152
26261W        W92802  34.612  22.174  12.014
26262W        W92803  17.275  37.900   4.182
26263W        W92804  23.558  13.132  11.845
26264W        W92805  20.722  13.072  11.530
26265W        W92806  44.744  16.965   2.289
26266W        W92807  10.538  39.216   9.776
26267W        W92808  23.817  27.593  11.186
26268W        W92809  16.410   0.486   2.258
26269W        W92810   8.446  31.402   1.776
26270W        W92811  38.519  39.468   1.470
26271W        W92812   2.827   3.376  14.701
26272W        W92813   0.070  31.911   2.810
26273W        W92814  44.753  25.322  12.004
26274W        W92815  14.392   6.519   2.896
26275W        W92816  22.557  24.580  14.296
26276W        W92817  19.019  20.294  12.807
26277W        W92818  33.689  21.057  12.141
26278W        W92819  33.865  26.365  14.417
26279W        W92820  21.759  20.899  10.606
26280W        W92821  24.485   3.213  14.410
26281W        W92822  23.011  30.077  12.694
26282W        W92823   8.321  40.044   1.851
26283W        W92824   1.249  26.377  12.573
26284W        W92825   3.183  37.584  12.425
26285W        W92826  32.906  26.512   1.560
26286W        W92827  25.065  40.369   2.565
26287W        W92828  22.744   3.223   5.047
26288W        W92829  32.498   8.240  13.503
26289W        W92830  44.553  25.383  10.030
26290W        W92831  21.515  16.061   4.752
26291W        W92832  17.700  24.602   3.084
26292W        W92833  33.162  17.075  13.348
26293W        W92834  36.583  34.122  11.064
26294W        W92835  10.622   8.469   0.804
26295W        W92836   2.285   5.518  11.141
26296W        W92837  40.366   1.449  14.789
26297W        W92838  28.744  44.417  13.825
26298W        W92839  17.660  41.384   2.705
26299W        W92840   3.171  22.542   0.448
26300W        W92841  13.706  35.255  11.424
26301W        W92842  16.408  38.758   4.522
26302W        W92843  29.150  42.787   4.609
26303W        W92844  43.955  35.704  12.412
26304W        W92845  34.600  20.257  13.961
26305W        W92846  17.648  25.875   3.717
26306W        W92847  32.898  39.086   3.242
26307W        W92848   0.667  22.721   1.268
26308W        W92849  21.462  41.486  12.943
26309W        W92850  24.604   3.803   4.118
26310W        W92851  32.476   8.624   4.655
26311W        W92852  27.389  17.503   0.362
26312W        W92853  33.410   1.579  14.422
26313W        W92854  34.507  21.271  14.767
26314W        W92855  15.293  44.380   2.511
26315W        W92856  39.129  41.754   4.892
26316W        W92857   5.878  21.614   1.888
26317W        W92858  37.589  16.037  14.859
26318W        W92859  18.772   3.822   2.228
26319W        W92860   1.869  29.573  11.185
26320W        W92861  20.231  16.256  13.460
26321W        W92862  29.188  16.297   0.951
26322W        W92863  34.206  17.125  12.528
26323W        W92864  25.516  43.191   4.477
26324W        W92865  18.009  33.392   2.886
26325W        W92866  10.091  19.045   2.705
26326W        W92867  13.848  39.215  14.771
26327W        W92868  18.789  37.117  11.531
26328W        W92869  22.029  17.775   0.892
26329W        W92870  21.676  40.291   0.928
26330W        W92871  33.147  10.820   0.087
26331W        W92872  33.455  26.247   4.120
26332W        W92873  42.617   7.743  14.225
26333W        W92874  37.695  22.714   2.912
26334W        W92875  43.285  37.254  14.707
26335W        W92876  20.142  36.306   3.163
26336W        W92877  14.264   1.534  14.827
26337W        W92878  18.295  38.421  12.161
26338W        W92879  39.991  12.813  13.398
26339W        W92880  43.286  15.987  10.511
26340W        W92881  36.487  10.173  14.743
26341W        W92882  31.343  10.619   1.874
26342W        W92883  27.172  19.737   4.228
26343W        W92884  21.138  26.294   3.107
26344W        W92885   9.882  37.548  14.319
26345W        W92886  17.585  39.250  12.657
26346W        W92887   9.565   2.336   1.101
26347W        W92888  32.886  28.301  11.635
26348W        W92889  36.891  30.716   2.773
26349W        W92890  40.339  30.483   0.038
26350W        W92891  42.011  17.375  14.442
26351W        W92892  39.122  14.421   0.726
26352W        W92893   9.375  17.357   0.120
26353W        W92894  10.679  26.560  10.221
26354W        W92895  11.369   7.797   3.672
26355W        W92896  24.307  18.627  13.376
26356W        W92897  43.955  43.564   4.604
26357W        W92898  28.976  16.608   2.746
26358W        W92899   5.304  41.528   4.489
26359W        W92900   9.377  27.065   4.359
26360W        W92901  27.783   0.966  13.413
26361W        W92902  24.750  18.047   0.803
26362W        W92903  25.158  40.314  10.556
26363W        W92904  20.617  27.024   4.281
26364W        W92905   6.635   7.320   0.713
26365W        W92906  17.776  23.235  11.544
26366W        W92907   9.201  29.669   1.252
26367W        W92908  25.896  32.145   3.725
26368W        W92909  44.817  20.091  12.680
26369W        W92910  25.694  42.375  14.027
26370W        W92911  44.003  44.211  14.355
26371W        W92912  21.304   3.530  14.174
26372W        W92913  20.464  17.171  12.090
26373W        W92914  29.849  32.887  11.119
26374W        W92915  25.318   9.239   0.306
26375W        W92916  13.727   4.282   4.828
26376W        W92917   3.370   0.816  13.367
26377W        W92918  43.941   9.541   4.118
26378W        W92919  43.583   4.782  13.875
26379W        W92920  22.342   7.693  13.495
26380W        W92921   2.471  18.833  11.799
26381W        W92922  27.696   3.734   1.371
26382W        W92923  27.741  13.729  11.003
26383W        W92924   3.552  38.359   0.481
26384W        W92925  32.190  34.980  14.810
26385W        W92926  26.131   3.321   0.754
26386W        W92927   1.766  26.485  14.344
26387W        W92928  15.703   0.214   3.621
26388W        W92929  26.649  31.014   4.335
26389W        W92930   5.615  22.081   1.753
26390W        W92931  23.612  30.943  10.906
26391W        W92932   6.725  28.114  12.981
26392W        W92933  33.186  18.521   1.328
26393W        W92934  24.312  20.902   3.850
26394W        W92935  12.822  34.899  10.770
26395W        W92936  36.899  18.391  13.484
26396W        W92937   4.293  31.458  12.589
26397W        W92938   2.016   4.889   0.839
26398W        W92939  28.056  21.916  13.531
26399W        W92940  18.668  19.972  13.552
26400W        W92941  35.377   2.401  13.073
26401W        W92942  22.007  30.681   4.745
26402W        W92943  40.900  37.596   1.451
26403W        W92944  35.518  33.534  12.818
26404W        W92945  27.076   1.348  12.866
26405W        W92946  20.499  36.058  11.139
26406W        W92947  37.255  29.636   5.092
26407W        W92948  43.417  17.483  10.725
26408W        W92949  29.795  28.606   1.821
26409W        W92950  38.465  19.703   2.363
26410W        W92951   0.327  38.464  12.175
26411W        W92952  29.715  19.222  12.254
26412W        W92953   4.444  18.077   0.343
26413W        W92954  26.026  30.702  12.847
26414W        W92955  39.789   0.499  11.081
26415W        W92956  14.004  41.451   1.980
26416W        W92957  40.413  38.488   2.162
26417W        W92958  44.803  37.806   1.301
26418W        W92959  13.887  29.035   0.543
26419W        W92960  39.609  11.141   5.382
26420W        W92961  12.553   0.314   3.603
26421W        W92962  40.084  30.817   3.889
26422W        W92963  24.101   4.207   4.986
26423W        W92964   9.414  16.679  14.343
26424W        W92965  42.382  23.340  11.927
26425W        W92966  33.159  36.857  14.442
26426W        W92967  11.755  17.159  13.732
26427W        W92968  32.169  25.960   2.835
26428W        W92969   6.751   7.306   2.731
26429W        W92970   3.835  38.404   2.825
26430W        W92971  13.831  10.745  12.448
26431W        W92972  29.895  34.147   3.047
26432W        W92973  11.826  15.791   1.644
26433W        W92974  12.363  43.994   4.640
26434W        W92975  40.762   3.854   4.430
26435W        W92976  15.280  18.818   3.132
26436W        W92977  25.102  25.850   5.007
26437W        W92978  10.110  40.411   2.694
26438W        W92979  19.179   5.650   3.379
26439W        W92980  12.846  14.756   2.250
26440W        W92981  13.851   0.699   0.736
26441W        W92982  13.629  26.561  11.226
26442W        W92983   5.011   9.479   0.518
26443W        W92984  12.297   8.074   3.108
26444W        W92985  18.513  36.913  12.608
26445W        W92986  10.572  15.200  14.226
26446W        W92987  41.895  29.168   1.836
26447W        W92988  43.525  42.426  13.284
26448W        W92989  34.130  34.607  11.351
26449W        W92990  16.632  10.533  11.153
26450W        W92991  37.844  25.419  11.153
26451W        W92992   1.981  31.150  12.432
26452W        W92993  22.899  16.129  11.440
26453W        W92994  23.983  17.199   2.723
26454W        W92995  30.480  31.965   1.310
26455W        W92996  44.246  23.120   4.722
26456W        W92997  23.341  27.360  12.651
26457W        W92998  25.751   8.368  14.306
26458W        W92999   3.044   8.681  13.571
26459W        W93000  30.971  30.918   0.877
26460W        W93001  30.953  16.307  11.537
26461W        W93002  39.722   3.590  13.202
26462W        W93003  37.230  26.980   3.761
26463W        W93004  27.574  26.175   4.700
26464W        W93005  41.793  20.839  11.674
26465W        W93006  15.731  38.732  13.995
26466W        W93007  40.337   4.475  14.933
26467W        W93008   4.974   8.982  14.755
26468W        W93009  37.344  41.396   1.290
26469W        W93010  37.439  21.962  12.423
26470W        W93011   0.721   0.200   0.966
26471W        W93012  42.745  28.658   0.275
26472W        W93013  11.827   1.995  14.009
26473W        W93014  39.073  28.712   3.577
26474W        W93015  12.670  28.678  13.804
26475W        W93016  26.958  36.657   2.686
26476W        W93017  10.222  27.659  14.895
26477W        W93018  44.439  14.630  12.855
26478W        W93019  18.213  43.870  11.090
26479W        W93020   1.194   2.959  14.757
26480W        W93021   7.420  37.802   4.044
26481W        W93022  10.152  19.610  13.506
26482W        W93023  44.928   9.672   1.424
26483W        W93024  19.523   1.275   1.744
26484W        W93025  17.096  41.585  13.030
26485W        W93026  41.553  36.200   1.359
26486W        W93027  40.975  44.839   0.410
26487W        W93028   8.325  17.014  11.055
26488W        W93029  30.638  30.458   4.577
26489W        W93030  25.110  11.381   1.858
26490W        W93031  17.797  41.448  11.624
26491W        W93032  37.993  19.297   3.364
26492W        W93033  37.530  24.953   1.994
26493W        W93034  28.492  22.790  11.960
26494W        W93035  16.659  29.858   2.120
26495W        W93036  34.200   1.462   0.374
26496W        W93037  12.635  35.184  12.952
26497W        W93038  15.004  41.347   2.848
26498W        W93039  20.247  26.397   4.989
26499W        W93040  44.317  31.350   3.658
26500W        W93041  43.859  20.728   0.538
26501W        W93042  25.618  25.356   3.583
26502W        W93043   8.818  24.952   1.257
26503W        W93044  35.641  22.195   2.197
26504W        W93045  39.402   9.713   2.924
26505W        W93046   9.952  16.263  10.568
26506W        W93047  16.503  20.061   0.311
26507W        W93048  41.383   6.112  14.392
26508W        W93049  33.035  24.985   4.599
26509W        W93050  12.729  33.957   1.334
26510W        W93051  15.547  15.261  10.618
26511W        W93052  27.647  43.099   4.939
26512W        W93053   7.120   9.536  10.694
26513W        W93054  12.685  23.770   2.941
26514W        W93055  17.563  44.074  10.615
26515W        W93056   7.885  38.073   3.973
26516W        W93057   3.844  30.641  13.001
26517W        W93058  39.294  27.594   0.423
26518W        W93059  28.524  37.959   3.478
26519W        W93060  43.305  20.144   2.189
26520W        W93061   9.213  15.751  14.863
26521W        W93062  33.035   7.430   3.451
26522W        W93063  30.443  43.384   3.326
26523W        W93064  20.870  26.385  13.915
26524W        W93065   3.374  40.687  11.165
26525W        W93066   8.962  21.831   1.959
26526W        W93067  10.329  33.997  13.076
26527W        W93068  40.552  36.197  12.974
26528W        W93069  14.644  35.662   3.058
26529W        W93070  24.309  18.277  12.511
26530W        W93071  13.909  37.351   2.763
26531W        W93072   0.953  30.969   3.684
26532W        W93073  21.186   6.009  13.026
26533W        W93074  32.809  43.029  14.017
26534W        W93075  18.783  31.508  13.359
26535W        W93076   3.010  32.567   0.793
26536W        W93077   3.228   8.017  12.938
26537W        W93078   3.938   4.692   3.629
26538W        W93079  26.652   3.392   1.939
26539W        W93080  21.509   8.730   1.022
26540W        W93081  23.971   3.475   3.083
26541W        W93082  22.675  39.054  12.043
26542W        W93083   2.450  41.947  13.776
26543W        W93084  13.630  19.312   3.454
26544W        W93085  39.806  39.747  14.841
26545W        W93086  38.898  14.703   2.000
26546W        W93087  11.267  10.060   0.251
26547W        W93088  19.361  32.786   4.828
26548W        W93089  41.412  29.409  12.851
26549W        W93090  33.455   5.703  13.024
26550W        W93091   7.140  30.128   2.041
26551W        W93092   1.471  20.928   4.222
26552W        W93093   4.766  24.530  14.852
26553W        W93094   8.014  42.152   0.375
26554W        W93095   3.733  34.409  13.322
26555W        W93096  21.177   8.857  13.267
26556W        W93097   7.640  20.059  11.169
26557W        W93098  28.663  16.505   4.137
26558W        W93099  25.540  15.730  11.895
26559W        W93100   2.077   0.543  13.410
26560W        W93101  43.531  37.643  11.131
26561W        W93102  25.768  12.701  10.857
26562W        W93103  15.938  43.367   4.776
26563W        W93104  25.518  41.094   0.084
26564W        W93105   2.197  19.220  14.964
26565W        W93106  33.867  15.756  12.285
26566W        W93107  10.347  41.930  14.067
26567W        W93108  41.951   8.402   0.701
26568W        W93109   2.975  31.164   0.760
26569W        W93110  21.200   9.271  11.103
26570W        W93111  31.470  27.507   4.044
26571W        W93112  34.695  15.045   1.836
26572W        W93113  17.554  22.476   3.705
26573W        W93114  34.085  11.135   2.858
26574W        W93115  16.145   8.858  11.981
26575W        W93116  44.774  39.009   3.304
26576W        W93117   6.137  37.906  14.009
26577W        W93118  15.570  28.955  14.843
26578W        W93119  27.472  13.133   3.121
26579W        W93120  25.027  43.412  12.515
26580W        W93121  16.242  26.869  14.863
26581W        W93122  30.449  23.095   1.609
26582W        W93123  43.208  34.511   2.725
26583W        W93124   2.524   1.192   9.955
26584W        W93125  39.720  34.190  11.149
26585W        W93126   7.606  14.392   3.245
26586W        W93127  12.515  16.961  14.304
26587W        W93128   9.707   9.874   2.282
26588W        W93129   7.683  35.831   5.012
26589W        W93130   9.702  44.824   2.224
26590W        W93131  25.612   0.250  10.802
26591W        W93132  21.326  30.056  11.970
26592W        W93133  19.808   5.538   5.401
26593W        W93134  43.787   6.748  13.415
26594W        W93135   9.784   2.724  14.772
26595W        W93136  32.507  30.438  11.581
26596W        W93137  28.159  14.549   2.289
26597W        W93138   9.782  10.936  11.177
26598W        W93139  24.557  23.250   4.068
26599W        W93140  33.620   0.272   9.482
26600W        W93141  16.742  40.827   0.944
26601W        W93142  22.989  39.204   2.708
26602W        W93143  18.078  26.993  14.610
26603W        W93144  28.378  10.870   2.916
26604W        W93145  32.772  39.331  13.112
26605W        W93146  30.288  16.880  14.966
26606W        W93147   6.606  39.586  12.640
26607W        W93148  15.746  16.256   2.229
26608W        W93149  13.688   7.379   4.546
26609W        W93150   9.940   4.485  11.611
26610W        W93151  20.831  18.723  14.721
26611W        W93152  26.021  39.635   2.828
26612W        W93153  34.920  25.088   0.950
26613W        W93154  17.603  41.818   3.233
26614W        W93155  15.364  42.533  12.375
26615W        W93156  16.176  39.609   4.408
26616W        W93157  18.276  13.216   0.928
26617W        W93158  34.891  22.705  12.271
26618W        W93159  28.141   2.404  10.696
26619W        W93160  23.644  32.336   4.066
26620W        W93161  22.590  11.614  13.029
26621W        W93162   5.387  32.857  12.371
26622W        W93163  31.942   4.254   1.335
26623W        W93164   3.409   7.330   1.131
26624W        W93165  21.690  36.540   0.944
26625W        W93166  14.822  15.592  11.590
26626W        W93167  36.126  14.209   2.627
26627W        W93168   6.501  15.751   9.763
26628W        W93169  24.135  40.566   0.355
26629W        W93170  37.921  26.133  14.175
26630W        W93171  29.429  17.302  13.361
26631W        W93172   3.139  36.018  14.783
26632W        W93173  25.165  16.154  12.657
26633W        W93174  41.492  13.242  11.516
26634W        W93175   7.569  24.535  14.790
26635W        W93176   5.160  13.232   0.480
26636W        W93177  34.702  39.035  14.566
26637W        W93178  16.184  19.148   4.609
26638W        W93179   3.030  11.185   3.338
26639W        W93180  40.048  23.627  12.527
26640W        W93181  10.364  21.978  11.661
26641W        W93182  20.281  44.576  14.258
26642W        W93183  35.797  29.444  12.918
26643W        W93184  22.982  28.919   0.102
26644W        W93185  18.136  13.076   3.222
26645W        W93186  42.973  12.279   3.334
26646W        W93187  18.872   4.472  14.341
26647W        W93188  36.676  13.598  14.924
26648W        W93189  38.393  16.815  13.841
26649W        W93190  44.908  41.285   2.247
26650W        W93191   3.286  18.816  13.584
26651W        W93192  43.523  21.225   1.143
26652W        W93193  20.099   1.756   1.268
26653W        W93194  12.352  22.665   1.352
26654W        W93195   6.865   0.877  14.369
26655W        W93196   3.982  32.937   4.891
26656W        W93197  14.685  33.584   2.971
26657W        W93198   5.327   3.627  13.964
26658W        W93199  22.667  36.784   4.016
26659W        W93200   9.093  36.456  13.636
26660W        W93201   0.465  37.425  12.820
26661W        W93202   2.774  32.797   2.393
26662W        W93203  33.198  11.658   4.248
26663W        W93204  20.473  21.352  13.615
26664W        W93205  16.256  30.523   1.094
26665W        W93206   9.660  41.731  10.576
26666W        W93207  12.184  15.052  13.107
26667W        W93208   2.415   5.755   0.477
26668W        W93209  39.456  39.548  14.324
26669W        W93210   2.534  13.813  13.041
26670W        W93211  38.332  37.133   1.794
26671W        W93212  38.214  24.104  12.532
26672W        W93213   6.404  38.724   3.099
26673W        W93214  33.112  10.315   1.821
26674W        W93215  10.716   7.917  13.930
26675W        W93216  38.592  26.861  12.052
26676W        W93217  15.341  43.569   1.027
26677W        W93218  33.168  15.794  14.564
26678W        W93219   6.958  22.208  10.760
26679W        W93220   8.759  43.836   4.234
26680W        W93221  20.871  38.601   2.882
26681W        W93222  28.714   4.501  12.179
26682W        W93223  33.548  43.969  13.365
26683W        W93224  21.200   2.897   2.694
26684W        W93225  25.905  31.907   1.858
26685W        W93226  29.445  39.246   1.761
26686W        W93227  27.539  10.382   3.231
26687W        W93228  24.139   6.914   0.850
26688W        W93229  26.655  25.289   2.734
26689W        W93230  17.217   1.506   2.544
26690W        W93231  39.916  25.297  12.445
26691W        W93232   4.940   6.005  11.737
26692W        W93233  35.799  41.492   2.213
26693W        W93234   7.796  27.249  12.870
26694W        W93235   9.937  28.863  12.433
26695W        W93236   3.830  16.450  11.474
26696W        W93237   0.863  13.748   2.219
26697W        W93238  19.438   7.358   1.374
26698W        W93239   1.094  42.590  14.094
26699W        W93240   9.313   8.772   1.335
26700W        W93241  24.213  35.172  12.082
26701W        W93242  39.318  19.239   3.653
26702W        W93243  19.596  11.311   3.712
26703W        W93244  26.895  38.795  12.943
26704W        W93245  13.252  32.034  14.922
26705W        W93246  30.579  41.047   2.787
26706W        W93247  26.163  29.888   2.218
26707W        W93248   4.770  20.553  11.199
26708W        W93249  29.806  42.904   0.277
26709W        W93250  31.718   5.239   0.567
26710W        W93251   3.403   4.029  11.633
26711W        W93252  10.574   3.065   4.339
26712W        W93253  30.453  19.648  10.719
26713W        W93254  11.703  38.979   3.267
26714W        W93255  28.174  39.245   3.742
26715W        W93256  31.506  24.244   4.719
26716W        W93257  11.032  33.336  13.455
26717W        W93258  32.872  36.180  12.885
26718W        W93259  37.764  39.237  13.604
26719W        W93260  29.460  20.516   0.500
26720W        W93261  26.529   2.700   4.097
26721W        W93262   9.311   4.025  13.739
26722W        W93263  20.987  38.416   4.335
26723W        W93264   3.958  29.120  13.491
26724W        W93265   1.777  44.985  13.948
26725W        W93266  35.125  36.939   0.567
26726W        W93267   5.713   6.628   3.931
26727W        W93268  25.009  12.758   4.242
26728W        W93269  35.151  13.166  10.601
26729W        W93270  27.326  33.986   0.820
26730W        W93271  39.347  14.351   3.221
26731W        W93272   8.912   2.342   4.513
26732W        W93273  20.267  19.750  10.654
26733W        W93274   8.720  15.401   0.373
26734W        W93275   8.658  17.465  14.564
26735W        W93276   8.168  43.049   1.447
26736W        W93277   8.271   5.027  11.204
26737W        W93278  26.481  40.041  11.921
26738W        W93279  27.266   3.995  12.043
26739W        W93280  11.718  32.057   2.655
26740W        W93281   8.770   9.120   0.330
26741W        W93282   6.719  44.055   0.982
26742W        W93283  19.734  17.714  10.225
26743W        W93284  39.006  27.461   9.870
26744W        W93285   9.391  22.095   1.855
26745W        W93286  10.778  42.314   4.127
26746W        W93287   5.342  15.248   3.642
26747W        W93288  26.488  17.597  12.374
26748W        W93289  33.391   1.497   0.758
26749W        W93290  12.930  22.678   2.080
26750W        W93291  22.040   8.842   4.488
26751W        W93292  35.646   3.764  13.628
26752W        W93293  21.776  41.894  12.864
26753W        W93294  21.155   8.351  13.119
26754W        W93295  38.032   3.668  12.823
26755W        W93296  39.153  41.677  10.240
26756W        W93297  24.511  38.949   4.360
26757W        W93298  14.599  28.840  14.469
26758W        W93299   3.966  24.479   2.849
26759W        W93300  42.419  22.004  12.380
26760W        W93301  26.162  40.378   4.642
26761W        W93302   7.626  34.851  14.859
26762W        W93303  18.703  37.996   2.670
26763W        W93304  21.652  29.551  11.665
26764W        W93305  23.071  40.981   2.290
26765W        W93306  44.718  32.647   5.041
26766W        W93307  33.661  22.449  11.691
26767W        W93308  20.153  16.763  13.409
26768W        W93309  41.760  34.474   2.274
26769W        W93310  44.938  36.103  11.206
26770W        W93311  24.028  18.412   0.490
26771W        W93312  22.544  37.736   4.238
26772W        W93313  34.401  38.815   0.995
26773W        W93314  19.230  40.499  10.626
26774W        W93315   1.406  34.829   0.915
26775W        W93316   9.159   8.899  14.234
26776W        W93317  35.120   3.982   0.337
26777W        W93318  38.875  32.825  14.962
26778W        W93319  34.660   6.987   3.156
26779W        W93320  28.714   3.684   1.382
26780W        W93321  42.858   2.901  14.883
26781W        W93322  30.700  36.406   1.120
26782W        W93323   1.265  38.617  12.048
26783W        W93324   5.768  29.131  10.477
26784W        W93325  39.433  12.384  14.478
26785W        W93326  40.375  36.657   0.927
26786W        W93327   9.969  23.571  11.950
26787W        W93328   0.277  12.287   3.376
26788W        W93329  27.408  26.976  11.992
26789W        W93330  24.013  10.866   0.726
26790W        W93331  20.158  31.514   2.798
26791W        W93332  41.026  26.152  10.538
26792W        W93333  33.989   5.759   4.587
26793W        W93334   4.018  20.048  13.826
26794W        W93335   2.650  15.368  12.477
26795W        W93336  35.985  37.809   2.736
26796W        W93337   2.757  24.626  14.560
26797W        W93338  10.503  35.878   4.370
26798W        W93339  32.941  10.867   3.731
26799W        W93340   0.094  28.118   3.628
26800W        W93341  36.474   2.996   2.035
26801W        W93342   6.335  38.712  11.085
26802W        W93343  29.222   5.512   2.692
26803W        W93344  26.956   4.695  13.879
26804W        W93345  32.295  44.456   3.045
26805W        W93346  33.482  26.987   3.150
26806W        W93347  23.398  38.941   3.266
26807W        W93348   8.862   3.877   3.147
26808W        W93349  43.762  26.740  13.127
26809W        W93350  43.583  38.176  11.126
26810W        W93351  42.021  14.112  13.843
26811W        W93352  42.534  24.538  13.253
26812W        W93353   9.243   7.267  14.247
26813W        W93354  22.603  42.404   4.893
26814W        W93355  41.989   5.772   1.861
26815W        W93356   6.819   3.689   2.353
26816W        W93357  32.541  35.409  11.470
26817W        W93358  36.491   6.390  10.590
26818W        W93359  42.945  24.483  11.141
26819W        W93360  36.815   5.022  11.121
26820W        W93361   2.162  32.947  11.534
26821W        W93362  32.636   1.657  11.787
26822W        W93363  29.561  11.658   2.634
26823W        W93364  27.119  17.013  13.421
26824W        W93365  34.531  19.645   3.065
26825W        W93366  10.327  20.126  14.214
26826W        W93367  27.442  44.271   0.307
26827W        W93368  15.318  29.647   9.847
26828W        W93369  42.064   9.945  13.468
26829W        W93370  16.088   8.044  11.129
26830W        W93371   5.320  22.980  12.507
26831W        W93372  23.906   7.304   4.138
26832W        W93373  34.111   8.305  12.240
26833W        W93374  35.129  36.318   3.381
26834W        W93375   7.370  26.256   3.778
26835W        W93376   1.944   1.949   0.425
26836W        W93377   4.455  40.973  12.957
26837W        W93378   0.640  44.400  11.174
26838W        W93379  12.608  42.085  11.504
26839W        W93380  38.011  23.957   0.391
26840W        W93381   7.763  37.770   0.982
26841W        W93382  40.271  41.482  11.152
26842W        W93383   3.147  19.714   2.659
26843W        W93384  11.795  33.525   0.059
26844W        W93385   1.914   5.645  10.799
26845W        W93386  28.767  40.119  13.291
26846W        W93387   5.566   3.707   0.392
26847W        W93388  13.470  41.627  11.434
26848W        W93389  13.817  33.569   2.436
26849W        W93390   5.730   1.196   3.110
26850W        W93391   1.162  15.388   2.261
26851W        W93392  16.893   0.967   0.191
26852W        W93393  25.225  13.585  11.412
26853W        W93394  21.624  30.999  11.924
26854W        W93395  19.958  24.531   4.240
26855W        W93396  29.357  25.087  14.009
26856W        W93397  29.410   6.538  13.984
26857W        W93398   3.211  18.702  14.441
26858W        W93399   4.473  29.003  14.177
26859W        W93400  28.600  38.820  12.514
26860W        W93401  15.485  34.871   3.614
26861W        W93402  12.195   0.879  10.571
26862W        W93403   5.069  25.723  13.023
26863W        W93404  43.488  15.717   0.620
26864W        W93405  44.406  11.824   3.753
26865W        W93406  36.285  32.987   2.636
26866W        W93407  32.593  31.040  10.709
26867W        W93408   7.314  17.468   0.973
26868W        W93409  41.563  23.419   2.220
26869W        W93410  22.732  13.370   0.010
26870W        W93411   4.724  33.072   3.394
26871W        W93412  29.430  32.446   0.728
26872W        W93413  40.092   7.415   0.392
26873W        W93414  30.090  34.052   1.431
26874W        W93415  21.519  12.029   3.513
26875W        W93416   3.814  14.327   4.495
26876W        W93417   4.903  30.475   1.936
26877W        W93418  34.078   7.749   3.406
26878W        W93419  32.746  28.116   2.287
26879W        W93420  26.590   7.105  10.955
26880W        W93421  38.877  40.312   3.852
26881W        W93422  42.115  29.082   0.733
26882W        W93423  40.070  15.761   2.060
26883W        W93424  19.796  32.410   0.174
26884W        W93425  20.053  42.695   3.761
26885W        W93426  37.828  25.540   0.926
26886W        W93427  16.604   2.237  13.083
26887W        W93428  16.694   0.312   0.859
26888W        W93429  11.659   8.345   1.934
26889W        W93430  13.286   9.019   0.762
26890W        W93431  35.381  19.216   2.831
26891W        W93432  30.814  30.735  12.902
26892W        W93433  13.300   0.135   0.215
26893W        W93434  24.755  10.344   3.718
26894W        W93435   6.665   2.813  11.067
26895W        W93436  20.096   8.637   4.674
26896W        W93437  39.491  40.971   1.465
26897W        W93438  14.342   4.338  12.898
26898W        W93439   0.974  11.095  13.696
26899W        W93440  20.736  43.717   4.725
26900W        W93441   1.441  25.911  12.581
26901W        W93442  23.102  29.914  13.716
26902W        W93443  28.159  10.801   0.271
26903W        W93444  35.791  43.674  13.833
26904W        W93445  18.083   6.404  12.558
26905W        W93446   6.196  31.125  12.352
26906W        W93447  33.318  33.033   4.071
26907W        W93448  25.261  18.257  14.290
26908W        W93449  12.639  39.827  14.309
26909W        W93450   3.924  30.320   3.308
26910W        W93451   4.620  23.099  14.922
26911W        W93452  42.681  43.393   5.084
26912W        W93453   3.064  41.009   3.692
26913W        W93454   0.828  17.618  10.483
26914W        W93455  41.114  40.678   3.141
26915W        W93456  35.524   8.422   0.970
26916W        W93457   8.120   5.195  13.002
26917W        W93458   6.971  44.233  11.294
26918W        W93459  35.486  32.638   0.745
26919W        W93460  21.885  28.209  10.262
26920W        W93461  14.721   1.846   2.584
26921W        W93462  28.766  26.628  13.055
26922W        W93463  36.994  19.594   1.951
26923W        W93464  15.231  39.768  13.377
26924W        W93465  25.916  39.267  11.731
26925W        W93466  27.119  18.713   0.243
26926W        W93467  37.092  30.197   1.421
26927W        W93468  18.611  25.081   2.714
26928W        W93469  32.509  12.381  14.258
26929W        W93470  21.459  22.960   1.217
26930W        W93471   7.707  43.883  12.543
26931W        W93472  27.972  38.295   2.087
26932W        W93473  21.722  33.613  11.620
26933W        W93474  30.601  35.091   4.120
26934W        W93475  18.915  42.585  12.464
26935W        W93476  42.831  33.655  14.334
26936W        W93477  35.193  44.747   2.439
26937W        W93478  15.264   2.537  11.625
26938W        W93479  20.161  10.756   0.020
26939W        W93480   9.652   2.245  13.885
26940W        W93481  33.676  30.126   1.866
26941W        W93482  17.278   8.250   1.272
26942W        W93483  25.605  42.295  12.019
26943W        W93484   5.912  18.286  12.656
26944W        W93485  33.493   1.733  11.375
26945W        W93486   0.961  25.072   3.178
26946W        W93487  43.439   2.209   2.716
26947W        W93488   9.139  35.318   3.344
26948W        W93489  36.805  32.904   1.241
26949W        W93490  29.019   2.178   4.832
26950W        W93491   3.789   3.259   0.226
26951W        W93492  35.542  41.894   1.923
26952W        W93493  16.829  37.972  11.562
26953W        W93494  39.263   4.041   4.159
26954W        W93495  13.206  38.537  14.483
26955W        W93496  12.958  42.852   9.837
26956W        W93497  16.463  14.132   3.302
26957W        W93498  20.659  15.532   1.268
26958W        W93499  10.955  39.514   4.883
26959W        W93500  34.905  41.038  13.538
26960W        W93501  32.312   0.005  11.892
26961W        W93502  25.018  23.069  14.513
26962W        W93503  10.824  41.095   0.598
26963W        W93504  37.104  30.497   1.886
26964W        W93505  26.973  42.499   2.243
26965W        W93506  18.721  26.553   3.226
26966W        W93507  32.096  18.708  13.465
26967W        W93508  40.291  28.471  12.412
26968W        W93509   5.125  16.638  12.482
26969W        W93510  13.732  20.664  14.994
26970W        W93511  24.585   6.928   0.455
26971W        W93512  16.169   8.849   3.660
26972W        W93513   2.279  22.265  10.483
26973W        W93514  40.399   0.730   2.955
26974W        W93515   9.182  16.189  12.471
26975W        W93516  12.915   3.825   3.186
26976W        W93517  43.053  41.900   0.318
26977W        W93518   8.592   6.011  12.506
26978W        W93519  29.941  44.490  10.539
26979W        W93520  20.759   2.379  12.463
26980W        W93521   4.535  25.798  13.990
26981W        W93522  21.965  17.635   2.838
26982W        W93523  14.719  11.385  11.681
26983W        W93524  40.141  44.989  11.998
26984W        W93525  15.911   9.737  10.773
26985W        W93526  36.349  31.021  14.746
26986W        W93527  12.517  13.175  11.091
26987W        W93528   2.052   7.701   0.948
26988W        W93529  21.989  31.942   4.046
26989W        W93530  25.128  22.988   4.483
26990W        W93531   5.436   7.750   2.956
26991W        W93532   1.982  21.188  13.311
26992W        W93533  11.814  23.590   4.481
26993W        W93534  40.565  33.996   0.728
26994W        W93535  39.706  25.880   4.038
26995W        W93536  21.336  30.677   0.473
26996W        W93537  28.999  13.543   4.138
26997W        W93538  28.031  35.170  10.358
26998W        W93539   3.956  37.322  11.080
26999W        W93540  31.923   9.002   1.439
27000W        W93541  29.589  10.789   2.540
27001W        W93542  29.377   1.272  14.059
27002W        W93543   8.756  35.539   2.070
27003W        W93544   5.188  39.984  11.667
27004W        W93545  10.731  20.055   0.075
27005W        W93546  43.006  27.076   3.696
27006W        W93547  10.147   5.862  10.290
27007W        W93548  44.943   8.214  12.865
27008W        W93549  34.679  25.563   0.941
27009W        W93550  18.826  23.594  12.376
27010W        W93551   6.080   3.492   4.139
27011W        W93552  41.824  38.458  11.586
27012W        W93553  37.426  44.520   0.293
27013W        W93554  40.903  24.101   4.251
27014W        W93555   2.385  21.664   0.815
27015W        W93556  11.068   6.005  13.964
27016W        W93557  38.254  23.736  14.976
27017W        W93558  15.357   7.025  11.540
27018W        W93559  17.531  33.442  12.901
27019W        W93560   5.204  44.413   2.447
27020W        W93561  42.328  36.475   4.319
27021W        W93562  27.571  21.789  12.915
27022W        W93563  16.807  36.548  11.201
27023W        W93564  40.935   3.034   4.724
27024W        W93565  11.276  33.647   2.166
27025W        W93566  25.937  35.534   2.767
27026W        W93567   7.018  15.237   1.607
27027W        W93568  34.017   7.972   2.463
27028W        W93569  35.623  10.455   3.186
27029W        W93570   0.507  44.951   1.361
27030W        W93571  24.808  12.284   4.149
27031W        W93572  31.118  39.033   2.725
27032W        W93573  30.964  10.533   2.220
27033W        W93574  42.603  13.491   9.688
27034W        W93575   0.777  25.235  11.559
27035W        W93576  18.831   4.949  12.383
27036W        W93577  28.649  30.014  13.291
27037W        W93578   1.335   6.372  14.546
27038W        W93579  11.358  32.574   4.513
27039W        W93580  16.089  33.853  11.486
27040W        W93581  44.219   4.316  11.988
27041W        W93582  16.076   8.302   1.180
27042W        W93583   1.263  17.420  12.917
27043W        W93584  22.959   8.399   3.356
27044W        W93585  44.316  20.395   1.132
27045W        W93586  32.740  10.800   3.273
27046W        W93587  32.495  29.888   2.615
27047W        W93588  36.579  21.242  13.885
27048W        W93589  35.498  14.817  13.017
27049W        W93590  13.952  37.517  12.177
27050W        W93591   9.376  25.589   0.857
27051W        W93592  28.208  23.186   0.812
27052W        W93593  21.233  29.653   4.531
27053W        W93594  22.705  38.003  14.382
27054W        W93595   6.666  18.773  11.128
27055W        W93596  28.936  35.566   3.450
27056W        W93597  20.929  20.840   3.956
27057W        W93598   5.634   8.835   4.364
27058W        W93599   4.323  36.111  14.689
27059W        W93600  31.951  10.812   3.805
27060W        W93601   4.919  30.468  14.925
27061W        W93602   1.409  15.628   2.818
27062W        W93603  16.758  10.252  12.385
27063W        W93604  38.951   9.731  14.576
27064W        W93605  15.375  21.823   2.367
27065W        W93606  17.513  35.961  12.421
27066W        W93607   6.222  24.734   2.249
27067W        W93608  42.087  40.395  11.644
27068W        W93609  24.253   4.449  13.791
27069W        W93610  36.010  44.964  10.628
27070W        W93611  43.993   8.066  14.868
27071W        W93612   5.472  17.823  12.014
27072W        W93613  12.738  32.287  11.575
27073W        W93614   6.232  21.613  14.233
27074W        W93615  27.938  42.852   2.453
27075W        W93616  33.671   3.804   3.267
27076W        W93617  20.305  16.780  14.303
27077W        W93618   2.827  36.167   1.444
27078W        W93619  11.615  41.324   4.126
27079W        W93620   5.285  33.946  10.570
27080W        W93621  37.423  36.065   1.844
27081W        W93622  36.352  20.361   4.339
27082W        W93623  17.260  41.544  13.987
27083W        W93624  35.506  22.570   2.576
27084W        W93625  27.963  31.721  13.428
27085W        W93626  24.535   7.883  10.815
27086W        W93627  27.126  23.924  12.518
27087W        W93628  34.531  44.351   3.738
27088W        W93629  11.803  14.644   4.510
27089W        W93630  43.833  12.683   3.394
27090W        W93631  38.858   0.875   1.747
27091W        W93632   4.626  20.652  12.603
27092W        W93633  19.519  26.026  14.543
27093W        W93634   7.159  23.598  12.057
27094W        W93635  11.286   3.932  10.897
27095W        W93636  42.034  34.116  13.856
27096W        W93637  15.640   3.713  11.100
27097W        W93638  33.886   8.699   3.655
27098W        W93639  43.013  33.310  13.996
27099W        W93640  21.280  33.536   5.111
27100W        W93641  22.613   8.452  11.089
27101W        W93642  30.481   2.221  14.027
27102W        W93643  14.906  15.875  12.030
27103W        W93644  18.249  20.664  13.825
27104W        W93645  12.832  42.371  12.557
27105W        W93646  31.011  11.433   0.232
27106W        W93647  20.518  41.048   0.738
27107W        W93648   3.264  20.218  14.428
27108W        W93649   5.123  40.625   1.996
27109W        W93650   3.980  18.717  13.847
27110W        W93651  40.838  10.490   1.314
27111W        W93652  22.796  26.364  10.703
27112W        W93653  27.409  38.395  11.702
27113W        W93654  39.443  41.674  12.380
27114W        W93655  41.875  21.581   0.121
27115W        W93656  24.631  25.112   0.442
27116W        W93657  30.997   4.251   0.693
27117W        W93658   4.884  44.425  12.929
27118W        W93659  10.804  11.143  14.232
27119W        W93660   4.788  10.818   2.444
27120W        W93661   8.727  32.423   2.405
27121W        W93662   5.925  17.828  14.419
27122W        W93663  32.039  10.221  13.585
27123W        W93664  20.013   3.535  11.564
27124W        W93665  10.159  37.265  10.939
27125W        W93666  32.127   0.348  13.166
27126W        W93667  16.744  22.490  13.384
27127W        W93668  44.437   5.645   3.170
27128W        W93669   3.457  28.738   4.652
27129W        W93670  23.034  16.695   4.938
27130W        W93671  43.119   9.301   1.588
27131W        W93672   0.604  35.178   4.938
27132W        W93673   7.206  23.365   2.386
27133W        W93674  13.631   8.630   4.187
27134W        W93675  33.101   9.529   4.532
27135W        W93676  34.950  44.741   5.062
27136W        W93677  22.935   6.990   1.460
27137W        W93678  27.747  30.935  10.815
27138W        W93679  22.271  27.780  13.880
27139W        W93680   0.486   0.678  12.896
27140W        W93681  41.884   9.658   4.803
27141W        W93682  13.507  15.631   4.059
27142W        W93683  29.400  17.295   4.145
27143W        W93684  29.682  23.689  14.204
27144W        W93685  25.983   5.977   0.908
27145W        W93686  29.355  22.102   3.138
27146W        W93687  19.138  31.242   2.339
27147W        W93688  39.806   3.930  13.624
27148W        W93689  41.197  43.597  12.609
27149W        W93690  29.903  38.307   1.633
27150W        W93691   4.418  22.027  12.094
27151W        W93692   8.347  35.607   3.769
27152W        W93693   5.563  39.772   5.038
27153W        W93694  21.187  32.347  13.420
27154W        W93695  26.400   3.824  14.764
27155W        W93696  37.332  41.916   3.766
27156W        W93697  31.480   3.210   4.321
27157W        W93698  15.209  23.702  14.584
27158W        W93699  43.956  40.961  11.395
27159W        W93700  12.819  35.640  14.853
27160W        W93701  27.887  24.035   1.964
27161W        W93702   9.129  37.415  13.562
27162W        W93703  25.420  18.940  12.331
27163W        W93704  14.226  14.793  11.585
27164W        W93705  25.174   0.752   4.664
27165W        W93706  27.899   8.729  12.389
27166W        W93707  41.422  28.477  10.697
27167W        W93708   1.411  34.541  12.168
27168W        W93709  26.731  23.156   2.706
27169W        W93710  28.502  39.808  14.330
27170W        W93711   4.698  29.606  14.149
27171W        W93712  27.964   4.961   1.981
27172W        W93713  35.846  29.685   4.506
27173W        W93714  38.434   5.891   2.722
27174W        W93715  16.213  22.289  12.611
27175W        W93716  21.648  34.643   2.229
27176W        W93717  30.477  18.048  11.066
27177W        W93718  12.119  25.652  11.622
27178W        W93719  23.408  18.026  12.829
27179W        W93720  14.038  21.377   1.290
27180W        W93721  40.697  28.988  11.309
27181W        W93722  13.141  41.113   4.049
27182W        W93723   7.360  37.998   3.572
27183W        W93724   9.804  15.521  12.023
27184W        W93725   6.241  42.080   2.791
27185W        W93726  15.537  37.466   5.007
27186W        W93727  30.864   5.849  12.023
27187W        W93728  27.086   4.173   1.828
27188W        W93729  38.381  36.174   3.279
27189W        W93730   9.419   1.365   3.719
27190W        W93731   1.518  36.881   3.832
27191W        W93732  15.548  36.955   3.355
27192W        W93733  28.709  27.132   4.490
27193W        W93734  42.444   7.942   4.785
27194W        W93735  25.475   8.847  10.322
27195W        W93736  22.582  32.639  12.656
27196W        W93737  34.801  20.020   4.316
27197W        W93738  43.638   2.830   4.221
27198W        W93739  10.584  43.904  12.037
27199W        W93740  23.756  34.814   4.158
27200W        W93741  25.945  25.579   0.455
27201W        W93742  38.442  23.032   3.839
27202W        W93743  14.108  25.266   9.965
27203W        W93744   7.339   5.217  13.584
27204W        W93745  41.307   7.623   1.050
27205W        W93746  32.081  40.787   4.532
27206W        W93747  40.409   2.195   0.541
27207W        W93748  43.452  44.195  12.390
27208W        W93749   2.950  35.205   1.254
27209W        W93750  32.174  32.275   1.572
27210W        W93751  22.344   9.860  10.637
27211W        W93752  30.085  43.052  13.555
27212W        W93753  35.295  36.000   4.547
27213W        W93754  43.407   4.962   0.871
27214W        W93755  19.703   9.229   3.568
27215W        W93756   6.870   9.836  12.325
27216W        W93757  22.965  25.808   3.872
27217W        W93758  14.796  42.788  10.762
27218W        W93759  41.518   4.298   2.795
27219W        W93760  43.430  24.597  11.306
27220W        W93761  18.111  23.731  14.443
27221W        W93762  25.076  29.878   0.200
27222W        W93763  31.197  17.803  11.667
27223W        W93764   9.227   4.767  10.817
27224W        W93765  25.677  37.473  10.704
27225W        W93766   2.414  43.652   0.024
27226W        W93767  37.370  21.137   4.498
27227W        W93768  16.593   7.911  13.224
27228W        W93769  13.229  41.395  14.081
27229W        W93770   6.904  36.000  10.253
27230W        W93771  44.111  29.206   5.228
27231W        W93772  28.003  38.083   1.504
27232W        W93773  36.669  29.093  12.966
27233W        W93774  38.593   4.419   0.436
27234W        W93775  44.007  36.562  12.338
27235W        W93776  38.355  21.087  13.413
27236W        W93777  40.950  36.660  11.128
27237W        W93778  43.440  40.932   2.640
27238W        W93779  24.857  26.520  13.502
27239W        W93780   3.217  42.759   4.675
27240W        W93781  39.940  12.171  14.456
27241W        W93782  11.007   7.603   1.941
27242W        W93783  31.537   7.289   2.957
27243W        W93784  41.972  41.908  10.664
27244W        W93785  42.862  22.510  14.121
27245W        W93786  37.924   1.444  12.369
27246W        W93787  15.278  12.817  11.604
27247W        W93788  35.621  15.445  10.431
27248W        W93789  18.655  20.778  13.152
27249W        W93790  25.963   1.321  12.982
27250W        W93791   1.420  30.482  11.733
27251W        W93792  41.097   0.812  13.120
27252W        W93793  31.176  12.800   2.176
27253W        W93794  24.915  13.359  12.631
27254W        W93795  11.431  25.766  13.934
27255W        W93796  22.557  31.409   2.655
27256W        W93797  11.853  14.793  13.500
27257W        W93798   9.442  44.509  10.122
27258W        W93799   8.071  10.754   2.670
27259W        W93800  42.414  41.350   3.062
27260W        W93801  42.682  11.641   3.957
27261W        W93802   6.682  29.845  13.420
27262W        W93803  25.491   4.874   2.254
27263W        W93804  10.722  11.267   1.768
27264W        W93805  10.102  33.512   0.227
27265W        W93806  37.794   4.979   4.505
27266W        W93807  29.591   2.418  11.717
27267W        W93808  33.459  23.029   4.887
27268W        W93809  16.200  34.471   3.126
27269W        W93810  10.023  20.253  11.484
27270W        W93811   1.327   3.799   0.330
27271W        W93812  24.633  29.574  13.517
27272W        W93813  33.181  40.586  13.350
27273W        W93814   5.070  39.949   5.051
27274W        W93815  44.041  31.174   1.217
27275W        W93816  36.800  24.649  12.423
27276W        W93817  13.094  25.043   1.741
27277W        W93818  29.553  25.399  10.481
27278W        W93819  29.524  44.308   4.427
27279W        W93820  26.615   1.307   2.321
27280W        W93821  21.025  22.924   3.769
27281W        W93822  18.062  38.080  12.454
27282W        W93823  42.912  39.730   2.238
27283W        W93824  37.682  29.923   0.892
27284W        W93825   6.936   7.177   1.557
27285W        W93826  22.489  23.431   2.894
27286W        W93827   7.409  12.772  12.522
27287W        W93828  26.154  28.123   2.768
27288W        W93829   6.113  41.062   0.043
27289W        W93830  43.457  40.212   0.888
27290W        W93831  39.687  17.805  12.942
27291W        W93832   0.980  19.846  11.157
27292W        W93833  10.327  14.612  11.571
27293W        W93834  44.933  12.474   0.319
27294W        W93835   9.871   6.663  13.185
27295W        W93836   6.385  20.825  11.603
27296W        W93837  37.562  25.058   0.964
27297W        W93838  13.394  36.666   4.069
27298W        W93839  14.628  43.952   2.167
27299W        W93840  32.496  36.308   3.539
27300W        W93841  10.930  22.147   4.107
27301W        W93842   6.423   0.419  11.576
27302W        W93843  19.142   4.268   1.179
27303W        W93844   6.983  27.500  12.815
27304W        W93845  34.168  17.039   0.267
27305W        W93846  36.850  10.775   2.113
27306W        W93847  30.448  36.714   2.083
27307W        W93848  22.627  18.044  11.690
27308W        W93849  13.849  27.665  12.011
27309W        W93850  16.512   5.032   0.320
27310W        W93851   7.277  35.879  13.941
27311W        W93852   4.912  32.911  12.537
27312W        W93853  23.438   0.296   2.953
27313W        W93854   4.788  27.218   5.231
27314W        W93855  26.898  44.797   1.548
27315W        W93856  33.122  31.637   2.430
27316W        W93857   2.703  14.472  14.760
27317W        W93858  33.659  26.516  14.864
27318W        W93859   7.699  18.257  13.139
27319W        W93860  17.736  28.519  12.289
27320W        W93861  24.303  25.568  11.286
27321W        W93862  35.917  34.682   4.835
27322W        W93863   9.009  26.727   2.227
27323W        W93864  29.025  21.064   1.636
27324W        W93865   5.442  15.214   1.765
27325W        W93866  12.474  31.151   1.476
27326W        W93867  39.568  32.843   0.360
27327W        W93868   1.497  43.251  11.968
27328W        W93869  13.292  38.280  11.302
27329W        W93870  21.961  14.367  13.461
27330W        W93871  35.017   2.548  11.661
27331W        W93872  17.067  14.572   0.758
27332W        W93873  25.467   0.278   4.701
27333W        W93874  30.204   7.311  12.842
27334W        W93875  34.423  17.138  14.584
27335W        W93876  30.482  24.246   0.541
27336W        W93877   1.988   3.512   2.744
27337W        W93878  20.244  44.174  10.228
27338W        W93879  10.389  18.055  11.739
27339W        W93880   0.147  23.506   1.692
27340W        W93881   9.157  13.144   4.098
27341W        W93882  29.129  39.582   3.115
27342W        W93883  15.670  21.677  13.656
27343W        W93884   4.919  18.599   0.844
27344W        W93885   0.252  25.595   4.750
27345W        W93886  35.387  31.418  11.656
27346W        W93887  42.829  18.486   0.371
27347W        W93888  22.500  14.631  13.351
27348W        W93889  34.360  30.951  11.127
27349W        W93890  39.510  19.186  14.731
27350W        W93891  29.077  35.378  14.690
27351W        W93892  43.978  30.454   1.892
27352W        W93893   9.369   7.851   0.873
27353W        W93894  20.791  15.828  12.088
27354W        W93895  15.147   9.647  12.339
27355W        W93896   4.443   6.763  10.369
27356W        W93897  12.842   7.855  14.903
27357W        W93898  28.751  11.755   3.581
27358W        W93899  27.036  18.637   2.255
27359W        W93900  33.118  41.892   0.481
27360W        W93901  10.110  10.332   4.977
27361W        W93902  25.451  22.815  14.355
27362W        W93903  22.015  13.580  12.208
27363W        W93904  35.435  16.216  11.077
27364W        W93905  41.886  20.661   4.850
27365W        W93906  34.531   7.483   3.151
27366W        W93907   9.909  11.449   0.810
27367W        W93908   9.226  27.658  11.470
27368W        W93909  33.385   1.777  12.921
27369W        W93910  35.184   8.186  12.445
27370W        W93911   9.644  14.416   0.719
27371W        W93912  24.738  10.828  12.534
27372W        W93913   2.248  16.832   0.202
27373W        W93914  15.291  11.898  12.801
27374W        W93915  18.461  33.378   3.623
27375W        W93916   0.794   0.773   2.770
27376W        W93917  34.364  25.585   3.811
27377W        W93918  12.463  40.291   2.353
27378W        W93919  26.101  31.842  11.537
27379W        W93920  24.066  27.232  11.481
27380W        W93921  24.473  27.463   4.612
27381W        W93922   3.389  40.284   0.244
27382W        W93923  24.360  11.532  14.422
27383W        W93924  24.705  23.660   0.233
27384W        W93925  14.137  10.965  14.424
27385W        W93926  42.118  21.743  13.033
27386W        W93927   6.851  33.425   3.430
27387W        W93928  13.641   2.486   1.708
27388W        W93929   4.927  24.263   3.580
27389W        W93930   5.334  31.488  10.559
27390W        W93931   8.324  21.597   0.766
27391W        W93932  29.164   5.910  12.979
27392W        W93933   5.880  10.573   0.314
27393W        W93934   5.540  35.512  12.411
27394W        W93935  38.504  14.263  14.926
27395W        W93936  19.408  32.309   4.599
27396W        W93937  26.198  39.863  11.154
27397W        W93938   4.253  26.878   0.510
27398W        W93939  26.382  10.894  12.640
27399W        W93940  20.295  21.987   2.711
27400W        W93941  26.928  36.367  11.630
27401W        W93942  15.896  32.549  12.929
27402W        W93943  16.225  14.607   3.286
27403W        W93944  43.213  40.839  14.066
27404W        W93945  10.310  41.880   4.266
27405W        W93946  39.435  14.572   0.309
27406W        W93947  34.875  37.453   2.873
27407W        W93948   1.282   0.993   0.947
27408W        W93949  42.147  17.041   9.976
27409W        W93950  17.246  28.545  14.480
27410W        W93951   8.375   4.348  11.504
27411W        W93952   8.002  44.834  10.623
27412W        W93953  22.120  22.030   1.054
27413W        W93954  32.405  42.807  13.731
27414W        W93955  44.745  12.568  12.804
27415W        W93956  15.432  39.021   2.817
27416W        W93957  20.586  11.855   2.272
27417W        W93958   6.394  18.335   4.094
27418W        W93959   1.737  26.542  13.391
27419W        W93960   7.342   8.189  10.659
27420W        W93961  15.810  30.938  14.004
27421W        W93962  25.127  38.549  12.550
27422W        W93963  18.256  39.267   4.174
27423W        W93964   9.850  13.353   0.554
27424W        W93965  32.363  19.476  11.604
27425W        W93966  14.169  13.847   1.722
27426W        W93967  17.280  12.018  13.482
27427W        W93968  40.569  28.133   0.547
27428W        W93969   3.000   9.727  10.962
27429W        W93970  35.908  44.915  14.848
27430W        W93971  16.537  10.950  10.891
27431W        W93972  33.527  39.824  13.504
27432W        W93973  39.737  22.215  12.767
27433W        W93974  31.063   7.821   1.668
27434W        W93975  36.293  44.736   0.756
27435W        W93976   9.129  44.794   4.209
27436W        W93977  36.634  13.364  14.447
27437W        W93978  41.713   7.261  11.173
27438W        W93979  34.463  35.620  14.586
27439W        W93980   5.789  21.192  12.673
27440W        W93981  38.973  25.232   2.773
27441W        W93982  21.932   0.583   4.000
27442W        W93983  20.294   4.292   0.495
27443W        W93984  13.462  23.115  13.046
27444W        W93985  16.250   7.462  11.515
27445W        W93986  27.691   3.448  14.497
27446W        W93987  13.804  44.042  10.723
27447W        W93988  35.899  32.050   0.754
27448W        W93989  32.481  37.792   0.880
27449W        W93990  26.602   5.656   4.021
27450W        W93991   0.049  11.606  11.788
27451W        W93992   3.058  32.972  12.895
27452W        W93993  18.348  35.409   1.806
27453W        W93994   2.175  26.957  12.101
27454W        W93995  43.094  36.475  13.024
27455W        W93996  21.021  22.651  10.655
27456W        W93997  23.191   6.648   1.789
27457W        W93998  34.556   0.426   4.427
27458W        W93999  29.100  37.162  12.417
27459W        W94000  13.188  20.795   1.316
27460W        W94001  40.348  43.995   2.084
27461W        W94002   7.863  28.636   2.862
27462W        W94003  20.438  15.304   2.218
27463W        W94004   4.862  30.021   4.592
27464W        W94005  38.760  25.553   0.443
27465W        W94006  29.439  31.506   1.954
27466W        W94007   6.426  29.617  14.670
27467W        W94008  30.775  28.425   1.950
27468W        W94009  37.240  40.948  13.812
27469W        W94010  29.457  40.076  12.135
27470W        W94011  41.396   0.791  13.585
27471W        W94012  36.857   8.677  12.516
27472W        W94013  17.603   0.734   4.618
27473W        W94014  15.102   8.110  14.291
27474W        W94015  18.251  36.260   3.657
27475W        W94016  15.073   0.353  13.763
27476W        W94017  35.456   0.813   4.344
27477W        W94018   9.376  36.779   1.153
27478W        W94019  19.084  15.927  10.085
27479W        W94020  26.350  13.712  11.052
27480W        W94021  35.337  10.581  10.724
27481W        W94022  24.922   8.864   0.319
27482W        W94023  42.683  14.794   2.627
27483W        W94024  33.705  14.347  12.864
27484W        W94025  14.795  26.932  14.756
27485W        W94026   0.814   2.204   3.744
27486W        W94027  15.705  29.184  13.467
27487W        W94028   3.925   0.311  11.728
27488W        W94029  29.879   8.195  11.926
27489W        W94030  12.240   2.985   1.238
27490W        W94031  21.549   6.210   0.892
27491W        W94032   4.732  30.159   0.981
27492W        W94033   1.019  32.983   0.560
27493W        W94034   1.977   9.446   2.210
27494W        W94035  37.380  12.552  14.994
27495W        W94036  20.114  28.677   0.913
27496W        W94037  31.000  24.702   3.459
27497W        W94038  30.062  16.688  13.317
27498W        W94039  11.034  42.408  11.906
27499W        W94040  29.941  15.955  10.682
27500W        W94041  20.230   1.493   0.843
27501W        W94042   9.650  20.596  14.457
27502W        W94043  14.797  17.020  13.034
27503W        W94044   6.329  15.149  12.348
27504W        W94045  36.510  39.547  13.925
27505W        W94046  30.906  19.612  14.873
27506W        W94047  22.817  18.224  14.022
27507W        W94048  13.944  29.997  10.701
27508W        W94049  44.266  29.123  12.951
27509W        W94050  24.508  17.911  13.990
27510W        W94051  29.711  10.851   1.041
27511W        W94052  11.171  14.916  12.612
27512W        W94053  15.260  40.596  13.346
27513W        W94054   7.785  27.811   3.192
27514W        W94055  22.322   6.340   1.960
27515W        W94056  12.110  31.657   0.395
27516W        W94057   9.491  12.187   4.247
27517W        W94058  18.223  28.954  13.512
27518W        W94059  32.644  24.494  13.991
27519W        W94060   4.723   6.569  12.095
27520W        W94061   8.866  44.965   3.310
27521W        W94062  26.033  36.393   3.089
27522W        W94063   4.845  27.069  10.979
27523W        W94064  13.766   0.787   1.580
27524W        W94065  18.099   6.261   4.108
27525W        W94066  33.752   6.891   3.348
27526W        W94067  43.531   1.395  12.143
27527W        W94068  29.368   5.125   0.703
27528W        W94069   4.248  11.680   3.376
27529W        W94070   3.483  23.642  13.588
27530W        W94071  32.898  32.365   1.050
27531W        W94072  28.024  27.021   4.823
27532W        W94073  11.182  38.064   3.114
27533W        W94074  14.861   4.859  12.187
27534W        W94075  27.172   2.717  13.952
27535W        W94076   3.666  14.173  14.282
27536W        W94077  18.016   9.078  10.561
27537W        W94078  29.356  40.960   4.140
27538W        W94079  23.698  13.481  13.847
27539W        W94080  39.243  12.870  11.145
27540W        W94081  10.584  15.724   4.733
27541W        W94082  40.623  20.469   2.694
27542W        W94083  41.443  22.227   1.324
27543W        W94084  35.338  36.369  12.990
27544W        W94085   6.310  34.574   0.918
27545W        W94086   9.151  14.103  14.880
27546W        W94087  33.476   7.472   4.046
27547W        W94088  36.486  33.832   0.286
27548W        W94089   8.183  37.023   3.178
27549W        W94090  35.472  38.991  10.715
27550W        W94091  31.945  32.423  14.352
27551W        W94092  33.712   5.787   1.585
27552W        W94093  35.360   1.687   1.225
27553W        W94094  29.231   6.225   1.212
27554W        W94095  28.696  34.622   0.285
27555W        W94096   8.215  26.970  10.352
27556W        W94097  40.944  41.968  11.763
27557W        W94098  38.515   4.411   4.575
27558W        W94099  15.753  33.365   2.610
27559W        W94100  31.509  25.581  11.480
27560W        W94101  32.955  30.303  12.435
27561W        W94102  15.068  17.603  12.552
27562W        W94103  16.385  22.007   0.411
27563W        W94104  19.422  25.243   4.545
27564W        W94105  20.525  15.227   3.257
27565W        W94106   8.740  16.716  11.013
27566W        W94107  40.213   1.806  11.746
27567W        W94108  31.641  30.534  14.458
27568W        W94109   6.192  19.821  12.482
27569W        W94110   0.721  29.543   4.247
27570W        W94111   3.692  41.441  13.869
27571W        W94112   2.222  21.613  13.503
27572W        W94113  19.058  37.388   1.909
27573W        W94114  30.437  26.088  12.337
27574W        W94115  27.520  16.749   0.882
27575W        W94116  44.194  33.371   4.529
27576W        W94117   2.999  13.064  12.559
27577W        W94118  32.666   2.602   3.113
27578W        W94119   8.965  24.281   2.372
27579W        W94120   4.707  25.530   3.274
27580W        W94121  28.635  21.361   4.591
27581W        W94122   1.373  37.856   1.916
27582W        W94123  27.968   8.342   2.652
27583W        W94124  18.684  29.591   0.839
27584W        W94125  36.842   2.279  14.362
27585W        W94126   5.391  11.360  10.985
27586W        W94127  43.754  15.490  11.890
27587W        W94128  41.506  25.065   0.072
27588W        W94129   9.396  22.025   2.762
27589W        W94130  36.853  11.751  12.622
27590W        W94131  30.783   3.756  13.028
27591W        W94132   0.505  43.530   0.724
27592W        W94133   6.158  14.756   0.506
27593W        W94134  21.600  20.953  12.405
27594W        W94135  31.887  37.189  13.244
27595W        W94136  42.783  30.921  13.566
27596W        W94137  43.952  26.968   4.802
27597W        W94138  38.268  44.300   4.786
27598W        W94139   6.978  17.262   0.394
27599W        W94140  11.186  30.925   1.541
27600W        W94141  24.749  14.196  12.071
27601W        W94142  29.057  44.766   3.975
27602W        W94143  42.147  22.714   2.433
27603W        W94144  16.901  24.031   3.670
27604W        W94145  27.005  21.530   4.819
27605W        W94146  44.910  22.228  12.993
27606W        W94147   3.081   8.774  12.423
27607W        W94148  44.197  29.615  13.048
27608W        W94149   3.698  27.735  13.825
27609W        W94150  32.287  35.307   3.303
27610W        W94151   5.185  17.639   0.386
27611W        W94152   8.861  43.847  12.513
27612W        W94153  13.509  34.435  10.394
27613W        W94154  10.216  23.692   0.267
27614W        W94155  33.323  44.746  12.669
27615W        W94156  24.736  13.192   3.678
27616W        W94157   6.355  13.707  13.010
27617W        W94158  26.097  26.059   3.597
27618W        W94159  15.808  29.426   1.679
27619W        W94160  39.284  38.421  11.500
27620W        W94161  32.069  20.520  13.109
27621W        W94162  40.487  31.046   3.607
27622W        W94163   1.468  20.207   3.652
27623W        W94164  22.780  31.916   0.063
27624W        W94165   8.769  15.257  12.387
27625W        W94166  39.119  13.831  12.993
27626W        W94167  20.796  24.638  10.862
27627W        W94168  19.765  10.361  13.342
27628W        W94169   6.584   3.397  14.051
27629W        W94170  29.503  11.437  12.615
27630W        W94171  25.605   5.933   0.232
27631W        W94172  16.880  31.903  13.207
27632W        W94173   1.164  29.595   0.019
27633W        W94174   5.725  21.006   2.822
27634W        W94175  41.454  41.304  13.907
27635W        W94176  25.411  24.754   1.704
27636W        W94177   3.664   5.675  11.981
27637W        W94178  28.901  29.639  10.790
27638W        W94179  22.706  36.890  13.803
27639W        W94180  14.683  23.100   1.556
27640W        W94181  24.755  33.870  13.018
27641W        W94182  24.095  19.645   4.359
27642W        W94183  36.789  15.080   5.123
27643W        W94184   1.557   0.814   3.275
27644W        W94185  39.643   5.460   2.373
27645W        W94186  15.731  36.290  13.381
27646W        W94187   4.865  14.843  13.406
27647W        W94188  41.186  37.972  11.284
27648W        W94189  23.722  32.020  11.512
27649W        W94190  26.273  12.602  12.060
27650W        W94191  23.449  27.414   3.313
27651W        W94192  44.506   5.070   0.464
27652W        W94193  22.679   2.292  10.704
27653W        W94194  20.260   5.984   0.855
27654W        W94195  23.627  36.435  14.019
27655W        W94196  30.151  42.257  11.655
27656W        W94197  11.825  11.851   4.086
27657W        W94198  31.145  19.972  12.596
27658W        W94199  16.077  25.588   3.111
27659W        W94200   3.245  42.315  13.548
27660W        W94201   4.012  20.927   4.927
27661W        W94202  43.962   9.935  12.057
27662W        W94203   5.895  13.788  10.579
27663W        W94204  43.493  17.901  12.142
27664W        W94205  12.372   3.804   4.099
27665W        W94206  43.846  13.559   2.405
27666W        W94207  19.295  17.138  13.739
27667W        W94208  35.301  24.266  13.077
27668W        W94209   8.358  32.701   4.753
27669W        W94210   9.676  24.003  14.431
27670W        W94211  37.561  16.787   2.667
27671W        W94212  27.709  15.185  10.167
27672W        W94213  37.430  24.281  10.754
27673W        W94214   8.224  13.636  12.616
27674W        W94215  31.608  28.147   0.999
27675W        W94216  32.522   5.771  10.528
27676W        W94217  14.118  34.542  13.529
27677W        W94218  43.911  40.492  12.642
27678W        W94219  34.892  35.381  12.345
27679W        W94220  43.693  30.724   2.795
27680W        W94221  15.482  34.966  10.221
27681W        W94222   3.910   7.978  14.501
27682W        W94223  16.114  35.596   0.897
27683W        W94224   1.507   7.895   2.820
27684W        W94225   6.901  15.237   0.499
27685W        W94226  29.920  11.739   1.281
27686W        W94227   7.150   1.885   3.819
27687W        W94228  11.252  39.326  12.953
27688W        W94229  31.873  39.004   3.133
27689W        W94230  20.084   5.854  11.137
27690W        W94231  30.119  15.303  14.412
27691W        W94232  37.994  32.720  14.182
27692W        W94233   4.394   1.332  14.881
27693W        W94234  17.941  22.269  12.805
27694W        W94235  32.925   9.558  13.597
27695W        W94236  27.079  31.082   2.132
27696W        W94237  36.521  33.405  10.514
27697W        W94238   6.881   6.420   2.073
27698W        W94239  15.103  39.040   3.731
27699W        W94240  17.045  34.837   1.638
27700W        W94241  28.111   2.255   5.076
27701W        W94242  25.538  32.054   4.888
27702W        W94243  13.736  36.733   0.294
27703W        W94244  20.524  28.989   3.253
27704W        W94245  26.589  29.954   3.782
27705W        W94246  11.620  24.076  13.117
27706W        W94247  25.617  15.361   0.545
27707W        W94248  23.669  13.642   4.307
27708W        W94249  41.144  37.157   2.366
27709W        W94250  26.354  28.866  12.730
27710W        W94251  36.561  13.100   0.048
27711W        W94252  14.280  31.706  13.561
27712W        W94253  40.510   4.676  13.868
27713W        W94254   4.760  11.519  10.180
27714W        W94255  13.378  31.364   1.065
27715W        W94256  13.450  42.597   3.382
27716W        W94257  20.609  20.698   4.922
27717W        W94258  13.677  22.260   1.914
27718W        W94259   0.799  22.266   1.012
27719W        W94260  36.957  21.746  13.966
27720W        W94261  29.000   0.861   2.634
27721W        W94262  12.052  24.498  12.510
27722W        W94263  22.126   6.173   2.759
27723W        W94264  28.688  26.809   1.608
27724W        W94265  43.193  35.972   4.722
27725W        W94266  37.144  14.966  10.404
27726W        W94267   2.680  29.637  14.956
27727W        W94268   0.244  13.461   4.319
27728W        W94269  39.770  44.213   0.212
27729W        W94270  25.793   8.405  13.791
27730W        W94271  30.080  37.085   2.254
27731W        W94272  26.053   1.807   2.879
27732W        W94273  39.335   2.005   4.083
27733W        W94274  29.994  16.196   4.612
27734W        W94275  32.671  23.638  12.891
27735W        W94276  15.841  28.366   4.049
27736W        W94277   6.204  27.040  14.260
27737W        W94278  23.021  19.052   3.344
27738W        W94279  37.832  15.372  10.988
27739W        W94280  14.312  19.003  14.453
27740W        W94281  10.080  25.404  12.458
27741W        W94282  34.924   4.069  14.041
27742W        W94283   4.878  26.652   0.903
27743W        W94284  31.641   7.392  12.234
27744W        W94285  39.951  32.512  11.992
27745W        W94286  29.948   2.344  10.958
27746W        W94287   0.856   8.759   1.436
27747W        W94288  19.459  37.136  11.143
27748W        W94289  40.778   6.259   2.890
27749W        W94290  32.591  35.050   4.333
27750W        W94291  36.082  41.019   3.114
27751W        W94292   6.396  18.802  12.382
27752W        W94293   9.291  30.436  12.571
27753W        W94294  22.720  29.954   2.702
27754W        W94295  26.620  19.704  10.696
27755W        W94296  42.473  20.757  12.855
27756W        W94297  20.488   1.692  13.008
27757W        W94298   0.375   1.949  11.870
27758W        W94299  38.005  15.206  10.487
27759W        W94300  42.718   7.982   1.326
27760W        W94301  29.650  36.738   5.068
27761W        W94302   1.752  20.750   3.760
27762W        W94303  16.352  25.540  14.892
27763W        W94304   0.768  42.482  12.000
27764W        W94305   3.939  29.213   0.339
27765W        W94306  27.977  10.331   1.461
27766W        W94307  16.605  33.682  13.399
27767W        W94308  44.685  42.406   0.491
27768W        W94309  32.122  33.605  13.885
27769W        W94310  18.075  37.129   4.820
27770W        W94311   6.860  10.491  12.254
27771W        W94312  12.600  43.239  12.040
27772W        W94313  22.665  21.157   0.854
27773W        W94314  26.194  10.962   2.257
27774W        W94315  25.909   0.015  13.820
27775W        W94316   7.963  17.151   0.471
27776W        W94317  34.224  13.720   9.747
27777W        W94318  34.656  42.012  14.418
27778W        W94319  21.608   8.772  13.549
27779W        W94320  10.217  35.005   4.229
27780W        W94321  16.533  36.010   4.595
27781W        W94322  35.207   0.866   0.960
27782W        W94323   9.450  35.227   5.108
27783W        W94324  41.872  30.455   9.946
27784W        W94325  36.225   8.503   2.805
27785W        W94326   7.925  35.068  10.918
27786W        W94327  38.368  29.114   3.315
27787W        W94328  31.306  30.127   1.418
27788W        W94329  44.266  20.819   1.433
27789W        W94330  17.543  36.763   1.750
27790W        W94331  31.458  41.591   0.335
27791W        W94332  26.596  35.013   1.289
27792W        W94333  40.795  36.564   3.670
27793W        W94334   6.370  12.701  13.107
27794W        W94335   3.374  22.568   3.382
27795W        W94336  33.618  12.573   2.557
27796W        W94337  12.619  21.360   3.018
27797W        W94338  41.015  23.161  11.906
27798W        W94339  43.884  26.677   2.215
27799W        W94340  28.108  33.095  11.268
27800W        W94341  37.923  44.699   1.409
27801W        W94342   0.737  20.076   3.132
27802W        W94343  37.789  34.884   4.338
27803W        W94344  42.448  21.043   2.670
27804W        W94345  24.108  41.566  13.623
27805W        W94346  44.775  36.443   2.289
27806W        W94347  29.789   7.356  14.927
27807W        W94348   7.152  22.106   0.894
27808W        W94349   6.218  10.305   0.665
27809W        W94350  34.060  17.527   0.333
27810W        W94351  34.152   1.925  11.293
27811W        W94352  37.681  24.152   2.409
27812W        W94353   7.302   1.342   0.834
27813W        W94354   6.964  15.337  10.696
27814W        W94355  32.010  32.044  14.018
27815W        W94356  33.956  19.340  12.494
27816W        W94357  41.401  24.748  14.445
27817W        W94358  11.057  25.697  10.741
27818W        W94359   4.710  13.882  10.816
27819W        W94360  30.594   0.015   1.726
27820W        W94361  11.674  33.357   2.368
27821W        W94362   9.852  13.242  12.964
27822W        W94363  21.098  13.300   4.262
27823W        W94364  17.752  32.111   4.627
27824W        W94365  23.801   0.440  11.523
27825W        W94366  11.780  36.705  12.059
27826W        W94367  32.355  29.491  13.387
27827W        W94368  20.501   6.633  11.239
27828W        W94369   8.420  36.970   3.630
27829W        W94370   4.721  44.449   2.685
27830W        W94371  21.597  39.049   0.342
27831W        W94372   2.944   5.821  10.713
27832W        W94373   1.223   3.323   3.177
27833W        W94374  30.471  43.708   2.480
27834W        W94375  34.971   5.408   5.309
27835W        W94376  37.213  13.176   4.675
27836W        W94377  36.066   4.863  12.203
27837W        W94378  27.234  35.043   4.725
27838W        W94379   6.236  10.702   1.601
27839W        W94380  20.690  24.760  11.796
27840W        W94381  42.965  31.023  12.117
27841W        W94382  12.653   5.267  10.493
27842W        W94383  26.427   1.802   4.591
27843W        W94384  26.948  17.340   0.607
27844W        W94385  34.202  13.670   1.904
27845W        W94386  10.819  27.267   4.137
27846W        W94387   8.812  20.276   1.724
27847W        W94388  33.623  29.941   4.258
27848W        W94389  39.234   2.332   3.290
27849W        W94390  10.189  37.588  11.927
27850W        W94391  16.585  13.932   3.757
27851W        W94392  41.792  40.332   2.485
27852W        W94393  29.982   0.838   3.703
27853W        W94394  27.627  40.404  12.286
27854W        W94395  29.964  11.498  11.517
27855W        W94396  12.791  41.547  12.790
27856W        W94397   2.065  22.838  14.046
27857W        W94398  27.284  29.008   4.102
27858W        W94399  35.731  15.951  10.299
27859W        W94400   3.651   2.821  12.241
27860W        W94401  20.298   2.914   0.185
27861W        W94402   1.361  23.769   9.753
27862W        W94403  10.252   2.564  11.466
27863W        W94404  34.476  15.712   3.893
27864W        W94405   2.392  30.006   3.654
27865W        W94406  38.871  12.497  11.109
27866W        W94407   3.801  19.646  14.838
27867W        W94408  13.851  41.052  11.079
27868W        W94409  27.605  25.280  12.490
27869W        W94410  30.172   1.450  10.997
27870W        W94411   0.557   8.233   0.398
27871W        W94412  25.746  39.949   2.494
27872W        W94413  31.676  11.151   4.584
27873W        W94414  10.720   5.163   4.149
27874W        W94415  13.277   5.281  11.101
27875W        W94416  11.268  18.235   4.092
27876W        W94417  27.537   6.282  13.936
27877W        W94418  18.824  16.732   9.994
27878W        W94419  28.674   8.875  13.017
27879W        W94420  34.585  41.858   4.587
27880W        W94421  26.037  35.300   4.896
27881W        W94422   1.708  44.271   0.357
27882W        W94423   1.833  41.501   0.397
27883W        W94424   2.850  20.152   0.912
27884W        W94425   7.392  23.002   2.703
27885W        W94426  19.853  21.587   4.684
27886W        W94427  38.438  16.535   2.582
27887W        W94428  39.993  39.334  12.908
27888W        W94429  31.815  16.744  11.797
27889W        W94430  33.136  18.183   2.190
27890W        W94431   8.368  29.452  10.398
27891W        W94432   9.734  22.140  14.940
27892W        W94433  26.585  28.933   2.404
27893W        W94434   2.001   2.413   3.177
27894W        W94435  31.526  35.579   4.917
27895W        W94436  33.220  25.130   1.965
27896W        W94437  35.055  42.638  10.307
27897W        W94438  14.199  12.430  14.886
27898W        W94439  43.167  28.542   4.853
27899W        W94440  34.529  24.197   1.332
27900W        W94441  22.456  41.811   2.326
27901W        W94442  22.631   1.060   1.021
27902W        W94443  36.875  42.351  13.250
27903W        W94444  23.934  37.780   3.766
27904W        W94445  22.134  44.224  13.439
27905W        W94446  18.149  19.188   0.038
27906W        W94447  32.026  37.843  10.681
27907W        W94448  26.065  29.941   0.170
27908W        W94449  23.877  20.713  13.423
27909W        W94450  16.370  25.643   3.556
27910W        W94451  15.636  40.954  12.561
27911W        W94452  31.086   1.935  10.756
27912W        W94453   6.223  36.970  13.993
27913W        W94454   5.220  22.323  13.352
27914W        W94455  41.898  20.097   2.375
27915W        W94456  43.037   9.495  11.091
27916W        W94457  21.103  40.947   4.641
27917W        W94458  36.667  25.108  12.609
27918W        W94459  24.607  35.979  12.352
27919W        W94460  37.534  13.686  12.356
27920W        W94461  36.936   5.125   2.324
27921W        W94462  35.928   0.762   2.691
27922W        W94463  33.088  43.288  14.465
27923W        W94464  24.658  38.474  11.983
27924W        W94465  14.726  24.065  13.811
27925W        W94466  39.996   2.403   0.794
27926W        W94467  42.502  24.435   3.348
27927W        W94468  21.705  26.441   2.391
27928W        W94469  11.538  13.321  13.872
27929W        W94470  25.477  16.594  14.971
27930W        W94471  11.104  19.424  11.392
27931W        W94472  20.272  17.680   1.710
27932W        W94473  15.658  19.236   3.663
27933W        W94474  13.797  28.180   0.266
27934W        W94475  25.723  43.038   3.212
27935W        W94476  18.202  40.493   2.483
27936W        W94477  10.384  10.047  13.545
27937W        W94478  39.594   1.790  13.900
27938W        W94479  42.947   6.487  11.941
27939W        W94480  15.775  19.538   1.352
27940W        W94481   1.528  36.367  10.585
27941W        W94482   4.887  15.336  13.359
27942W        W94483  25.947  37.978   4.550
27943W        W94484  25.628  26.619   0.478
27944W        W94485  40.479  42.986   0.049
27945W        W94486  19.791   8.733  14.419
27946W        W94487  39.051  39.811   9.922
27947W        W94488  20.292  37.697   1.213
27948W        W94489   4.590  26.642  13.477
27949W        W94490   0.072  40.459  11.056
27950W        W94491   6.474  34.507   2.904
27951W        W94492  32.849   6.879   4.058
27952W        W94493   4.807  40.220  10.051
27953W        W94494  32.105  33.547  12.149
27954W        W94495  36.511  11.266  10.626
27955W        W94496   4.448  40.221  10.614
27956W        W94497   1.568   9.700   4.276
27957W        W94498   4.876  22.686  11.398
27958W        W94499  28.549  15.339  12.477
27959W        W94500   3.718  23.983   0.536
27960W        W94501  36.749  31.010   1.380
27961W        W94502   3.501  36.300   4.269
27962W        W94503  10.072  34.872  12.893
27963W        W94504  12.837   9.719  13.287
27964W        W94505  18.738   6.650   1.346
27965W        W94506  12.127   0.951  13.157
27966W        W94507  29.990  24.998   0.460
27967W        W94508  37.833  37.330  11.397
27968W        W94509  21.472  20.252   3.172
27969W        W94510  11.493   0.015  12.525
27970W        W94511  25.543  27.967   0.835
27971W        W94512  22.527  11.223   4.805
27972W        W94513   1.330  33.891   1.636
27973W        W94514   3.165  26.300  10.765
27974W        W94515  39.335   7.224   3.598
27975W        W94516   0.091  14.105   3.642
27976W        W94517  15.247  11.787  14.225
27977W        W94518  17.283  31.221   3.289
27978W        W94519  39.822  15.319  11.009
27979W        W94520  27.036  42.867  10.854
27980W        W94521  29.361  35.341  13.862
27981W        W94522  31.603  18.559  13.696
27982W        W94523  20.749  39.461   1.466
27983W        W94524  29.929  31.034   0.721
27984W        W94525  44.179  16.016  11.239
27985W        W94526  28.591  37.049  12.282
27986W        W94527   9.081  41.344  14.479
27987W        W94528   6.758  29.894   4.517
27988W        W94529  16.818   5.839  10.925
27989W        W94530  12.864  16.127   3.284
27990W        W94531  27.902  24.009   0.363
27991W        W94532  21.113   4.511  14.373
27992W        W94533  43.047   7.299  10.620
27993W        W94534  22.315  11.713  11.216
27994W        W94535  17.576  32.174  12.183
27995W        W94536  14.280  19.639   1.166
27996W        W94537  31.366  33.035  13.031
27997W        W94538  41.250  39.712  10.892
27998W        W94539  33.363  12.720   0.363
27999W        W94540  15.363   5.287  11.394
28000W        W94541  42.069  37.999  13.977
28001W        W94542  24.261  18.781  11.522
28002W        W94543   3.794   6.792   4.228
28003W        W94544  13.184  33.930   3.787
28004W        W94545  23.040   6.878  14.508
28005W        W94546  13.297   9.089   2.614
28006W        W94547  17.157  37.551  11.540
28007W        W94548  31.527   3.280  13.785
28008W        W94549  17.853   7.282  14.000
28009W        W94550  27.788   8.979   1.235
28010W        W94551  27.638  22.979  13.994
28011W        W94552  24.137  38.904  11.597
28012W        W94553  35.860  16.193  10.742
28013W        W94554   7.828   3.426   3.089
28014W        W94555  11.892  24.790  10.343
28015W        W94556  21.658   8.361   1.341
28016W        W94557  39.784  17.151   4.119
28017W        W94558  19.954  19.284   1.285
28018W        W94559  42.745  36.221  13.372
28019W        W94560   1.303  17.356   2.388
28020W        W94561  32.147   4.060   2.184
28021W        W94562  23.031  42.457  10.880
28022W        W94563  34.044   5.771   1.195
28023W        W94564  41.442   2.257   1.879
28024W        W94565  43.768  36.359   2.262
28025W        W94566  26.522  22.466  13.303
28026W        W94567  41.437  19.388  13.870
28027W        W94568   0.513  31.203   2.313
28028W        W94569  31.006  43.346   2.977
28029W        W94570  24.075  42.931   4.763
28030W        W94571  21.531  17.772   2.604
28031W        W94572  25.232  36.186   4.236
28032W        W94573  43.596  43.265   2.592
28033W        W94574  43.959   7.336  12.779
28034W        W94575   8.269  18.229   1.871
28035W        W94576  11.846  19.515  12.844
28036W        W94577  40.631  27.233  13.786
28037W        W94578  37.648  37.373  10.559
28038W        W94579  31.406  19.786   0.808
28039W        W94580   6.662   6.429   0.875
28040W        W94581   1.703  14.615   3.745
28041W        W94582  24.078   8.115   4.092
28042W        W94583  37.509  24.383  13.801
28043W        W94584  10.600   6.325   2.947
28044W        W94585  23.988  39.882   2.113
28045W        W94586   1.065  36.380  11.722
28046W        W94587  14.242  11.637  13.294
28047W        W94588  17.354  27.367  12.537
28048W        W94589  23.995  21.603  12.485
28049W        W94590  26.499   3.315   3.751
28050W        W94591  13.382   7.784  14.847
28051W        W94592  16.358  42.990  12.077
28052W        W94593  19.410  43.637  14.800
28053W        W94594   0.829  17.662  10.988
28054W        W94595   0.262  22.836   3.555
28055W        W94596  32.415  37.258   1.770
28056W        W94597  21.026   0.667   1.247
28057W        W94598  39.884   2.206  14.288
28058W        W94599  11.595  26.566   0.305
28059W        W94600   3.277  12.827  14.298
28060W        W94601   2.194  15.165  12.689
28061W        W94602  29.895  18.235   4.219
28062W        W94603  41.796  17.078   0.907
28063W        W94604  15.302  27.894  11.990
28064W        W94605  10.702   3.869   3.296
28065W        W94606  25.599  44.766   2.297
28066W        W94607  29.420  27.563   4.503
28067W        W94608  34.580  33.620  11.691
28068W        W94609  10.102  25.303  11.102
28069W        W94610  42.811  34.001   0.392
28070W        W94611  28.701  18.720   1.707
28071W        W94612  16.141  30.584  14.358
28072W        W94613  31.099  30.366  12.165
28073W        W94614  44.298  38.163  14.508
28074W        W94615   9.843  17.126  14.902
28075W        W94616  20.024  21.171   2.234
28076W        W94617   6.715   5.453   1.963
28077W        W94618  39.817  40.703   2.830
28078W        W94619  32.045   3.509  10.220
28079W        W94620  21.900  42.838   3.921
28080W        W94621  16.746  25.292   4.826
28081W        W94622  23.617   5.836  13.979
28082W        W94623   8.640  29.044   4.093
28083W        W94624  36.672  21.561   2.784
28084W        W94625  23.648  28.394   4.984
28085W        W94626  25.294  12.159   1.468
28086W        W94627   6.021  21.096  13.413
28087W        W94628   5.939  31.841  13.346
28088W        W94629   3.528  15.601   1.376
28089W        W94630  21.477  18.853   4.908
28090W        W94631  27.654  36.797   1.442
28091W        W94632  30.142  27.855  11.569
28092W        W94633  20.827  39.255   4.168
28093W        W94634   1.858  15.819  11.592
28094W        W94635   4.931  26.247  13.017
28095W        W94636   7.765  44.966   3.944
28096W        W94637  20.518  38.898  12.201
28097W        W94638  33.447  37.340  10.311
28098W        W94639  10.913  13.902   1.304
28099W        W94640  37.077  10.995   0.655
28100W        W94641  41.867  16.770   1.804
28101W        W94642   1.732  40.619   4.460
28102W        W94643  25.499  10.122   0.398
28103W        W94644  35.003   5.470   1.341
28104W        W94645  14.255  31.518  12.183
28105W        W94646  11.607  32.897   1.309
28106W        W94647  15.149  12.569   4.107
28107W        W94648  41.330  20.109   0.537
28108W        W94649  20.335   2.444  14.334
28109W        W94650  26.220  39.361   4.183
28110W        W94651   7.202  16.234  14.034
28111W        W94652   2.222  39.275  11.983
28112W        W94653   0.538  36.901   0.482
28113W        W94654  23.133  13.793  12.428
28114W        W94655  41.031  31.989   1.780
28115W        W94656  25.013  21.139  14.811
28116W        W94657  22.190  43.236   2.128
28117W        W94658  44.235   7.443   4.128
28118W        W94659  35.893  41.441  14.356
28119W        W94660  24.445  22.172   0.413
28120W        W94661  44.911  16.325  12.458
28121W        W94662  30.590   8.881  12.531
28122W        W94663  16.239  27.433   1.935
28123W        W94664  20.554  13.816   0.844
28124W        W94665  24.296  36.496   4.080
28125W        W94666  41.560  23.933  10.794
28126W        W94667  40.449   7.587   0.765
28127W        W94668  27.703  10.165   0.953
28128W        W94669  33.802  14.670   1.699
28129W        W94670  44.744   1.717   4.672
28130W        W94671  36.081  42.832  13.582
28131W        W94672   1.939  24.366   4.298
28132W        W94673  25.970  32.138   4.604
28133W        W94674  35.069  15.613  14.755
28134W        W94675  10.039  21.172  12.720
28135W        W94676  21.285  15.053  14.790
28136W        W94677  14.095  29.644   3.563
28137W        W94678  44.681  36.630   1.807
28138W        W94679   0.396   6.291  11.714
28139W        W94680  14.981  22.714   1.747
28140W        W94681  35.156  23.012  11.938
28141W        W94682   3.486   4.803   3.361
28142W        W94683  44.297   1.931   0.265
28143W        W94684   4.274   0.488   5.379
28144W        W94685  29.124   5.329   0.213
28145W        W94686   7.419  19.975   0.880
28146W        W94687   1.414  14.557   2.393
28147W        W94688  27.915  43.392   0.049
28148W        W94689  21.472   7.943   3.243
28149W        W94690  21.650  17.058   2.184
28150W        W94691  34.661  18.005  10.864
28151W        W94692   6.666  25.770   4.237
28152W        W94693   2.436  16.527  13.041
28153W        W94694   5.658  39.338   5.378
28154W        W94695  28.564  17.899  13.497
28155W        W94696  32.898  34.122  14.777
28156W        W94697  17.601  33.575  13.390
28157W        W94698   6.454  20.588  11.158
28158W        W94699  17.322  24.577   0.840
28159W        W94700  29.641   4.006  12.475
28160W        W94701  21.548   7.408  13.853
28161W        W94702  38.771  23.749   5.127
28162W        W94703  15.383  27.118   2.385
28163W        W94704  41.004  37.191  11.018
28164W        W94705  22.868  15.607  11.447
28165W        W94706  14.842  23.035  14.572
28166W        W94707  29.060   0.416   0.069
28167W        W94708   1.429  11.199   2.184
28168W        W94709  20.451  19.221   0.432
28169W        W94710  27.924  18.235   4.093
28170W        W94711  31.145  31.693  13.019
28171W        W94712  27.933   1.451   1.861
28172W        W94713  11.206   8.678  11.593
28173W        W94714  28.711  11.130   0.771
28174W        W94715  36.908   4.868  14.334
28175W        W94716   7.318   0.597   2.350
28176W        W94717  17.238  28.655  12.259
28177W        W94718  15.221  21.931  10.878
28178W        W94719  43.729  12.328   1.905
28179W        W94720  26.014  35.490   1.917
28180W        W94721  32.535  26.665   3.149
28181W        W94722   7.630  21.730  11.963
28182W        W94723  40.936  24.252  10.660
28183W        W94724   2.198  14.142   1.723
28184W        W94725  29.476  43.399  10.917
28185W        W94726   1.804  29.602   0.528
28186W        W94727  22.715   7.835  10.281
28187W        W94728  15.484   1.423   3.564
28188W        W94729  32.992  42.265  14.416
28189W        W94730  36.106  19.086   0.310
28190W        W94731  40.856   4.419   0.760
28191W        W94732   7.198   6.795  14.966
28192W        W94733  29.930  40.417   2.710
28193W        W94734   2.730  43.737  11.466
28194W        W94735  19.653   6.746   3.617
28195W        W94736   4.531  39.583   1.947
28196W        W94737  34.899  17.780   1.770
28197W        W94738  36.872  14.722   4.241
28198W        W94739  31.415   9.581  11.162
28199W        W94740  44.038  34.829  12.943
28200W        W94741  17.023  19.377  12.463
28201W        W94742  33.033  26.432   0.341
28202W        W94743  23.562  36.981  11.576
28203W        W94744  29.868   4.719   4.716
28204W        W94745   0.727  20.638  12.253
28205W        W94746  34.137   0.239  12.730
28206W        W94747  23.658   9.256   5.036
28207W        W94748   7.519   2.008   4.144
28208W        W94749  14.304   6.167   0.744
28209W        W94750  41.517  20.385   2.187
28210W        W94751  24.805  18.103  13.364
28211W        W94752  15.629  13.168   3.128
28212W        W94753  23.716  38.506  10.736
28213W        W94754  13.212  41.954  13.216
28214W        W94755  38.276  34.591   3.191
28215W        W94756  30.905  16.906   0.861
28216W        W94757  43.214  32.112   0.325
28217W        W94758   8.744  24.235  10.777
28218W        W94759   1.123  42.967  14.967
28219W        W94760  23.926  16.128  11.631
28220W        W94761  41.797  44.833  10.829
28221W        W94762  13.364  33.599  14.741
28222W        W94763  23.201  19.988  11.936
28223W        W94764   5.153  16.425  11.579
28224W        W94765  31.555  26.120   4.775
28225W        W94766  22.687  16.825  12.546
28226W        W94767   4.682  40.482  13.698
28227W        W94768  22.744  42.961   2.855
28228W        W94769  17.976  30.308   0.936
28229W        W94770  35.160   9.877  13.012
28230W        W94771  39.819  11.335  12.546
28231W        W94772   1.241  43.914   2.170
28232W        W94773  38.418  17.741   4.655
28233W        W94774  37.368  43.251  11.664
28234W        W94775  38.649  13.327   2.241
28235W        W94776  21.731  23.745  14.979
28236W        W94777   0.599   9.708   2.745
28237W        W94778  16.639   4.108   3.771
28238W        W94779  17.146  29.513   1.341
28239W        W94780   3.996  10.209   5.001
28240W        W94781  39.112  15.792   1.772
28241W        W94782  25.050  38.436   1.153
28242W        W94783   4.653  37.647   5.048
28243W        W94784   4.897  21.635  14.121
28244W        W94785   0.478  37.381   1.613
28245W        W94786   0.806  40.034   0.294
28246W        W94787   0.693  25.163   1.111
28247W        W94788  13.143  11.197  12.172
28248W        W94789  16.614   2.241  13.813
28249W        W94790  12.580  21.555   1.728
28250W        W94791  37.150  34.713   0.790
28251W        W94792  16.026  35.606  14.960
28252W        W94793  27.984  35.395   4.619
28253W        W94794  14.751  33.426  12.489
28254W        W94795  22.012  32.051  14.324
28255W        W94796  30.951  26.264  10.756
28256W        W94797  16.559   6.662   2.156
28257W        W94798  41.396   5.982   0.248
28258W        W94799  16.808  16.867  13.034
28259W        W94800   2.970  34.063   1.903
28260W        W94801   4.798  39.462  13.260
28261W        W94802  44.867  17.742   4.603
28262W        W94803  28.315  35.467   2.840
28263W        W94804  34.690  30.514  14.371
28264W        W94805   7.328  32.600   3.335
28265W        W94806  32.938  13.303   5.562
28266W        W94807  36.904  33.761   0.928
28267W        W94808  29.857  38.415  11.135
28268W        W94809  32.177  33.580   0.361
28269W        W94810  23.636  40.288  10.966
28270W        W94811  39.023  20.975   3.805
28271W        W94812   2.668  20.278   3.899
28272W        W94813  44.521  12.049   2.310
28273W        W94814  37.466   6.310   1.192
28274W        W94815   7.324  22.024  13.370
28275W        W94816  36.328  18.107  14.493
28276W        W94817  33.547   7.155   4.529
28277W        W94818   0.052  14.330   4.089
28278W        W94819  18.248  32.684  14.445
28279W        W94820  38.969   4.956   2.673
28280W        W94821  28.086   3.383   1.173
28281W        W94822  17.707  14.758   0.708
28282W        W94823  27.377  11.126   1.389
28283W        W94824  40.267  19.824  11.967
28284W        W94825  12.122  41.224   1.694
28285W        W94826  11.369  13.196   1.359
28286W        W94827  18.007  25.791   2.727
28287W        W94828  33.867  21.769  10.570
28288W        W94829  34.445  16.097  11.487
28289W        W94830   0.478  30.908  14.286
28290W        W94831  23.014  25.523  12.909
28291W        W94832   5.942  15.548  14.971
28292W        W94833  23.562   4.740  14.269
28293W        W94834  23.339  32.096   2.980
28294W        W94835  12.664   3.368   3.322
28295W        W94836   7.798   3.921   3.227
28296W        W94837  28.970  44.385   3.083
28297W        W94838   5.919   8.345  14.528
28298W        W94839  22.244  43.031   2.614
28299W        W94840  13.179  29.561  13.904
28300W        W94841  14.723  23.059  10.629
28301W        W94842   0.872  19.656  10.700
28302W        W94843   5.757  15.731   1.747
28303W        W94844  42.280   1.700   1.767
28304W        W94845  22.595   2.513   3.204
28305W        W94846   2.206   1.786  11.180
28306W        W94847   5.860  36.045  10.760
28307W        W94848  30.551  17.024   0.456
28308W        W94849   1.668  17.806  10.624
28309W        W94850  41.080  16.166  13.538
28310W        W94851   4.463   3.409   3.791
28311W        W94852  21.667  35.165   4.493
28312W        W94853   8.915  21.699   4.073
28313W        W94854  23.932  23.943  14.452
28314W        W94855   6.914   8.307   2.352
28315W        W94856   5.758  30.729   4.224
28316W        W94857  42.353  30.522   4.833
28317W        W94858  26.659  23.307  13.927
28318W        W94859   0.969  18.208  11.672
28319W        W94860  32.410  13.239  14.868
28320W        W94861  40.938  27.521  13.457
28321W        W94862  39.935  30.603  14.747
28322W        W94863  15.832  28.303   2.639
28323W        W94864  34.936  37.906   3.119
28324W        W94865  34.319  20.788   2.224
28325W        W94866   1.901  24.747   3.203
28326W        W94867   8.386  22.500   3.185
28327W        W94868  40.945  35.156  11.069
28328W        W94869  31.542  22.474  12.001
28329W        W94870   4.159  35.122  10.803
28330W        W94871  28.835  19.730  11.665
28331W        W94872  20.329  26.841  11.123
28332W        W94873  22.498  43.450   2.752
28333W        W94874  36.964  17.604  12.063
28334W        W94875  23.074   3.787  11.447
28335W        W94876  10.837  13.808  11.667
28336W        W94877  13.410  15.318  13.953
28337W        W94878  14.850  27.046   4.086
28338W        W94879  32.155  23.591  14.988
28339W        W94880   0.856  38.841   4.261
28340W        W94881  31.181  35.483   2.360
28341W        W94882  22.729  40.313   0.222
28342W        W94883  21.549   6.833   2.867
28343W        W94884  22.944  32.464  14.399
28344W        W94885  20.754  41.481   1.004
28345W        W94886  35.407  29.454   2.859
28346W        W94887   4.657  27.470   2.342
28347W        W94888  18.722  13.652   3.509
28348W        W94889  17.592  17.599  14.036
28349W        W94890  37.008  36.528   2.207
28350W        W94891  25.190  18.900  13.577
28351W        W94892  35.146  40.208   4.137
28352W        W94893   6.911  12.928  12.479
28353W        W94894  41.460  30.690   4.448
28354W        W94895  24.846  25.436  11.272
28355W        W94896   1.651  42.066   4.115
28356W        W94897  40.943  15.844   1.547
28357W        W94898  18.812  30.111   4.324
28358W        W94899   1.919  30.654  12.565
28359W        W94900  35.779  33.483   0.820
28360W        W94901  11.778   8.896   2.772
28361W        W94902  22.356  22.593  12.595
28362W        W94903  14.320  17.802   4.503
28363W        W94904  11.609   3.931   1.842
28364W        W94905  19.166  44.362  10.676
28365W        W94906  44.652  19.676  11.006
28366W        W94907  25.766   5.526   2.750
28367W        W94908  17.637  16.866   3.170
28368W        W94909   7.757  44.881   2.929
28369W        W94910  14.124  42.829   4.568
28370W        W94911  23.751  38.628   1.750
28371W        W94912  38.416  12.718  12.001
28372W        W94913   9.660  10.570  12.110
28373W        W94914  25.096   5.925  14.034
28374W        W94915  15.367  37.104  11.079
28375W        W94916  41.010  22.134  12.934
28376W        W94917  20.101  41.581   3.163
28377W        W94918  11.814  10.974  13.749
28378W        W94919  14.531   4.351   0.784
28379W        W94920  14.644  27.657   0.867
28380W        W94921   6.877  17.277  11.694
28381W        W94922  41.421  16.094   0.314
28382W        W94923   0.422   4.700   2.974
28383W        W94924  13.614  36.866   1.382
28384W        W94925  14.559  13.872   5.126
28385W        W94926   5.490  38.552  11.962
28386W        W94927  22.241  39.621  13.490
28387W        W94928  15.925  22.262  14.465
28388W        W94929  21.507  36.077   4.981
28389W        W94930  40.967  44.567   2.867
28390W        W94931  44.876  42.258   1.886
28391W        W94932  25.033  16.502   3.888
28392W        W94933  39.343  44.979  13.705
28393W        W94934  20.123  33.604  12.741
28394W        W94935  12.935  22.757  14.513
28395W        W94936  25.327  30.513  14.391
28396W        W94937  11.171  17.082  12.103
28397W        W94938  39.479  32.861   2.766
28398W        W94939  30.072  13.760  13.717
28399W        W94940  15.276  27.837   4.546
28400W        W94941  43.399  27.019   4.937
28401W        W94942  18.579  38.791  14.785
28402W        W94943  12.247   0.790  11.463
28403W        W94944  16.647  41.799   3.577
28404W        W94945  25.592  15.572  14.938
28405W        W94946  24.281  23.731  11.381
28406W        W94947  34.872   4.382  12.093
28407W        W94948  11.391   6.159  14.958
28408W        W94949  29.793  43.883   4.319
28409W        W94950  24.950  44.943  12.962
28410W        W94951  10.629  35.083   2.213
28411W        W94952  38.038  43.018  12.012
28412W        W94953  37.301  42.412  11.626
28413W        W94954  31.030   7.646  11.236
28414W        W94955  18.793  13.610   1.662
28415W        W94956   0.662  11.140  11.194
28416W        W94957  24.986   4.649  13.566
28417W        W94958   3.774  15.391  12.040
28418W        W94959  33.834  35.652   2.395
28419W        W94960  43.537  30.403  13.153
28420W        W94961  19.970  42.161   3.859
28421W        W94962  23.199  32.659  10.894
28422W        W94963  26.421  22.517  11.165
28423W        W94964  31.430   5.839   2.613
28424W        W94965  39.380  16.769   2.668
28425W        W94966  19.780   7.882   0.374
28426W        W94967  40.272  40.301  12.533
28427W        W94968  43.887  32.993  10.634
28428W        W94969  30.543  31.670  10.907
28429W        W94970  38.781  20.951  10.814
28430W        W94971  10.237  32.137  12.826
28431W        W94972  25.673  23.364  11.525
28432W        W94973  39.829   0.345  10.600
28433W        W94974  16.593  28.714  13.447
28434W        W94975  25.121   2.452  12.989
28435W        W94976  29.051  34.598   1.669
28436W        W94977   9.649  36.634  14.406
28437W        W94978  29.699  28.126  10.688
28438W        W94979  33.973  29.877   4.630
28439W        W94980  35.290  31.895  12.661
28440W        W94981  21.160  42.984   1.029
28441W        W94982  26.682  35.921   3.105
28442W        W94983  24.382   3.762   0.443
28443W        W94984  31.973  40.268  13.932
28444W        W94985  37.424  26.987  10.749
28445W        W94986  32.276   2.653   5.270
28446W        W94987  38.567  32.965  14.329
28447W        W94988  22.342  41.864   3.208
28448W        W94989  39.415  20.248   3.883
28449W        W94990  22.402  23.010   0.773
28450W        W94991   6.991   1.724   0.537
28451W        W94992   6.689  11.411   2.677
28452W        W94993   9.596   4.792   1.339
28453W        W94994   7.856  37.725   2.704
28454W        W94995  20.217   3.362  12.885
28455W        W94996  34.606  34.515  12.642
28456W        W94997   6.184  38.872   9.782
28457W        W94998  34.823  21.071  12.661
28458W        W94999  13.718  34.128  13.024
28459W        W95000  36.013  31.903   0.245
28460W        W95001  15.808   8.356   2.049
28461W        W95002  27.286   0.023   1.888
28462W        W95003  31.308  17.329   2.841
28463W        W95004  12.802   4.903   4.643
28464W        W95005  15.725   2.011  10.246
28465W        W95006   7.409  42.151  12.783
28466W        W95007  27.289  27.023   4.167
28467W        W95008  25.142  15.423  12.094
28468W        W95009  27.089  19.248   4.486
28469W        W95010  39.043   3.823   1.580
28470W        W95011  39.078  41.723  10.749
28471W        W95012  31.032  28.219  10.250
28472W        W95013  23.086  33.905  14.308
28473W        W95014   1.954  38.504  11.217
28474W        W95015  43.889  34.367   2.347
28475W        W95016  25.587   5.946  13.829
28476W        W95017  27.426  23.980   1.640
28477W        W95018  36.432   3.661   0.339
28478W        W95019  30.082  36.187  11.021
28479W        W95020  22.226  12.679  14.383
28480W        W95021   5.240  13.598   5.004
28481W        W95022  16.601  19.692  11.621
28482W        W95023  36.056  13.466   1.251
28483W        W95024  13.452  42.862   2.005
28484W        W95025  10.653  13.747  14.793
28485W        W95026   1.809  41.362   3.277
28486W        W95027  24.489   7.180   3.395
28487W        W95028  24.397   4.361   1.761
28488W        W95029   8.892  32.862   3.645
28489W        W95030  41.523  13.752   0.771
28490W        W95031  28.559  10.794   3.391
28491W        W95032  44.864  40.796  13.069
28492W        W95033  43.525  38.896  10.665
28493W        W95034   3.955   9.358  12.700
28494W        W95035  37.544  26.083   1.519
28495W        W95036   7.797  33.984  12.366
28496W        W95037  34.082  15.652   4.736
28497W        W95038  44.240   6.931  12.476
28498W        W95039  13.787  29.645  12.089
28499W        W95040  12.921  19.012   1.465
28500W        W95041  27.071  42.442   3.332
28501W        W95042  35.447  23.998  14.865
28502W        W95043  34.842  21.037   3.635
28503W        W95044  26.977  35.822   3.555
28504W        W95045  32.260   6.837   2.572
28505W        W95046   1.263  29.522  13.368
28506W        W95047   1.852   7.233  10.751
28507W        W95048  22.020   9.064  13.644
28508W        W95049  29.978  21.252   4.547
28509W        W95050  30.501   4.361  11.359
28510W        W95051  30.673   6.858   0.683
28511W        W95052   5.416  41.094   1.667
28512W        W95053   4.829  40.155  11.335
28513W        W95054   8.874  41.108  12.639
28514W        W95055  32.294   8.872   0.941
28515W        W95056  17.100  16.880  10.833
28516W        W95057  24.014  10.063  13.417
28517W        W95058  44.871   5.422  13.090
28518W        W95059  22.656  36.002  11.970
28519W        W95060  19.138  17.805   0.828
28520W        W95061   6.084   2.466  11.528
28521W        W95062  26.564  13.571   1.401
28522W        W95063   4.951  17.722  10.853
28523W        W95064  36.972  26.419   2.249
28524W        W95065  12.965  35.851  13.519
28525W        W95066  28.705  36.265  14.995
28526W        W95067  37.620  41.508  13.788
28527W        W95068  19.090  12.165   2.878
28528W        W95069   1.821  10.785   0.016
28529W        W95070  35.659  19.318   0.210
28530W        W95071   4.273   1.152  12.955
28531W        W95072  28.176  42.268  10.821
28532W        W95073  11.189  10.227  10.760
28533W        W95074  16.331  11.898   4.165
28534W        W95075   5.943   3.225  12.036
28535W        W95076  29.969  22.178   0.526
28536W        W95077  33.526  25.443  14.791
28537W        W95078  14.238   9.334   2.129
28538W        W95079   7.189  14.184   4.165
28539W        W95080  31.601   3.158   5.365
28540W        W95081  33.462  39.893   0.031
28541W        W95082  24.189  38.923  12.555
28542W        W95083   4.736  26.098   2.126
28543W        W95084  37.773  11.178   1.874
28544W        W95085  13.124  19.322  11.483
28545W        W95086  11.943  19.243   4.526
28546W        W95087  24.413  19.269  11.505
28547W        W95088  26.771  34.471  11.295
28548W        W95089  36.357   5.932   1.404
28549W        W95090  15.760  36.786   2.042
28550W        W95091  28.129  35.452   2.353
28551W        W95092   1.633  13.304  12.105
28552W        W95093  32.892  39.104   0.910
28553W        W95094  16.102  33.529   1.554
28554W        W95095  20.999   1.236   1.242
28555W        W95096  40.460  42.553   4.233
28556W        W95097  18.023  43.400   0.966
28557W        W95098  36.577  33.088   2.218
28558W        W95099  25.754  36.974   1.398
28559W        W95100  26.309   6.242  12.625
28560W        W95101  31.975  17.714   3.257
28561W        W95102  31.882  35.031   3.106
28562W        W95103  34.447  15.774  13.994
28563W        W95104  20.158  41.012   1.730
28564W        W95105  11.916   9.364   2.894
28565W        W95106  31.278  31.426   1.700
28566W        W95107  17.012  11.430   3.312
28567W        W95108  34.193  23.357  12.473
28568W        W95109  17.293  11.590   0.510
28569W        W95110  11.665  39.067   0.522
28570W        W95111  43.391  44.089   1.232
28571W        W95112  29.212   2.946   0.438
28572W        W95113   1.418  35.486   0.081
28573W        W95114  39.120  40.871   0.057
28574W        W95115  25.881  22.512   4.629
28575W        W95116  32.417   8.111   1.643
28576W        W95117  19.559  16.741  10.732
28577W        W95118  14.719  19.785   1.918
28578W        W95119  19.226  16.976   5.097
28579W        W95120  12.385  30.139  10.248
28580W        W95121   7.091  13.146   3.628
28581W        W95122   8.841  27.952   0.867
28582W        W95123  38.798  34.015  14.052
28583W        W95124  39.493  11.571  13.793
28584W        W95125  14.323  31.444  13.108
28585W        W95126   6.415  35.381   2.127
28586W        W95127  17.073  31.182   2.806
28587W        W95128  39.427  39.354  10.573
28588W        W95129  18.942  44.858   4.737
28589W        W95130   1.768  25.700   2.306
28590W        W95131   9.144  15.411  12.034
28591W        W95132  42.037  36.146   2.798
28592W        W95133  11.626  24.523  12.256
28593W        W95134  36.257  26.512  10.280
28594W        W95135  38.151  12.729   4.912
28595W        W95136   8.314  27.115   3.328
28596W        W95137  33.704   1.427  14.006
28597W        W95138  32.324  38.494   4.390
28598W        W95139  27.402  18.226   4.789
28599W        W95140  41.564   8.806   2.338
28600W        W95141   1.333   9.263   3.567
28601W        W95142  22.629  44.400  14.405
28602W        W95143  17.116  11.082   0.423
28603W        W95144   5.103   5.216   3.684
28604W        W95145  20.627  21.497  10.358
28605W        W95146  31.109  27.203   3.268
28606W        W95147  27.273   9.820   2.736
28607W        W95148  41.853   4.315   0.732
28608W        W95149   3.757   1.304  13.914
28609W        W95150  35.034  23.473  12.696
28610W        W95151   9.871   4.200  12.884
28611W        W95152  38.857  17.507   4.559
28612W        W95153   0.794  27.169   0.800
28613W        W95154  19.218  43.655  13.340
28614W        W95155   6.208   2.787  11.911
28615W        W95156   8.825  29.512  11.591
28616W        W95157  39.334   7.399   1.294
28617W        W95158  18.992  17.174  14.739
28618W        W95159   0.691   1.136  13.035
28619W        W95160  31.604  36.749   0.511
28620W        W95161   9.393   0.846   3.188
28621W        W95162  21.103  31.284  13.216
28622W        W95163  10.393   7.611  12.535
28623W        W95164  21.041  21.830   4.588
28624W        W95165  30.236   3.895   0.329
28625W        W95166  24.994  22.044   2.226
28626W        W95167  23.776  29.010  13.357
28627W        W95168   0.679  35.265   1.004
28628W        W95169  27.979  23.930  13.278
28629W        W95170  41.920  30.872  12.386
28630W        W95171  33.590  43.247   1.616
28631W        W95172  28.448  24.992  11.563
28632W        W95173  43.335   7.290  11.973
28633W        W95174  30.910  32.644   1.999
28634W        W95175   8.316  22.725   2.248
28635W        W95176  34.877  43.521   0.948
28636W        W95177  30.439  10.556   0.508
28637W        W95178  18.705  37.930   4.592
28638W        W95179  18.084  30.862   1.743
28639W        W95180  39.014  42.331  13.913
28640W        W95181  11.373   5.137   0.932
28641W        W95182  25.752  39.975  11.659
28642W        W95183  15.726   8.373   3.578
28643W        W95184  22.692  10.086  12.124
28644W        W95185   2.732  15.544   1.681
28645W        W95186   1.932  32.343   2.147
28646W        W95187  18.806  25.399   2.357
28647W        W95188   0.297  20.209  12.357
28648W        W95189  42.563  16.163  11.190
28649W        W95190   3.520  16.414  13.827
28650W        W95191   0.328   9.942  12.165
28651W        W95192  34.342  33.065  10.724
28652W        W95193  35.593  26.203  11.531
28653W        W95194   3.175  35.596   0.491
28654W        W95195  23.741  43.556   2.075
28655W        W95196  14.603  41.993  14.481
28656W        W95197  12.320  23.184   1.405
28657W        W95198  29.192  12.083   1.794
28658W        W95199  44.489   1.219  14.874
28659W        W95200  38.564  38.661   2.551
28660W        W95201  24.067  33.622  11.557
28661W        W95202  31.658  26.692  11.123
28662W        W95203   4.952   9.793   0.959
28663W        W95204  32.635   5.902  13.386
28664W        W95205  16.164  23.781  13.922
28665W        W95206   4.877   7.077  14.030
28666W        W95207   9.853  41.899   3.874
28667W        W95208  12.479  38.401  11.536
28668W        W95209  30.087  32.415  12.817
28669W        W95210   7.647   1.630   2.923
28670W        W95211  21.985  15.785   4.107
28671W        W95212  20.302  17.678  12.429
28672W        W95213  36.392  18.903   1.993
28673W        W95214   6.293  29.936   4.141
28674W        W95215  21.123  11.586  12.083
28675W        W95216  39.023  29.068   0.807
28676W        W95217  22.947  10.215   0.481
28677W        W95218  24.621  22.170  12.603
28678W        W95219  39.792  15.273   4.870
28679W        W95220  29.186  41.731  14.258
28680W        W95221  24.692  41.443   4.274
28681W        W95222  43.228  22.463  10.282
28682W        W95223  28.154  33.310   0.916
28683W        W95224  35.482  10.184  11.140
28684W        W95225  13.841  24.155   3.686
28685W        W95226  36.892  28.309   0.819
28686W        W95227  35.048  33.072   4.810
28687W        W95228  40.400  26.479   1.435
28688W        W95229  18.737  22.773   4.054
28689W        W95230  23.115  10.145  13.335
28690W        W95231  38.010  34.293   2.631
28691W        W95232  42.522  37.996  13.230
28692W        W95233   1.889  39.052   3.785
28693W        W95234   2.234  15.386   1.543
28694W        W95235  12.762  26.979   4.282
28695W        W95236   7.545  28.496  11.164
28696W        W95237  10.072  31.955   2.396
28697W        W95238  29.667   7.756   0.938
28698W        W95239  12.693  27.633  10.838
28699W        W95240  35.370   1.049  12.673
28700W        W95241  40.983  33.277   1.444
28701W        W95242  33.677   0.990  10.639
28702W        W95243  31.079  19.113  13.569
28703W        W95244  24.149  19.598   1.881
28704W        W95245  24.529  40.331  10.789
28705W        W95246  14.271  14.818  14.866
28706W        W95247  38.123  26.027   1.801
28707W        W95248  35.259  30.020  10.793
28708W        W95249   8.513  11.543   5.008
28709W        W95250   5.986  34.514   0.084
28710W        W95251  37.429  14.320  14.256
28711W        W95252  15.734  42.755   2.436
28712W        W95253  30.456  43.417  12.844
28713W        W95254  44.532  35.018  14.024
28714W        W95255  14.931  23.147   2.828
28715W        W95256  26.993  29.529  14.323
28716W        W95257  25.649   1.062  11.184
28717W        W95258  38.578  11.752   0.919
28718W        W95259  25.006  30.398   3.215
28719W        W95260  32.674  40.895   2.810
28720W        W95261   6.173  38.564   0.775
28721W        W95262  16.012  17.858  12.579
28722W        W95263  14.048  21.228  13.404
28723W        W95264  15.009  28.485  12.507
28724W        W95265   4.927  34.015  13.314
28725W        W95266   8.808  32.480   0.044
28726W        W95267  28.154  42.337  13.853
28727W        W95268   1.286  35.355   2.816
28728W        W95269  18.688  15.383   1.934
28729W        W95270  29.136  36.593   3.700
28730W        W95271  19.173  13.580   3.289
28731W        W95272  39.819  27.080  13.923
28732W        W95273   7.798  32.041  13.614
28733W        W95274  27.970  28.906   3.635
28734W        W95275  32.744   5.601   1.351
28735W        W95276  33.802  44.800   4.690
28736W        W95277  38.184  23.392  11.259
28737W        W95278  34.072  33.975  14.348
28738W        W95279  34.278  28.549   0.855
28739W        W95280   0.408  27.670   1.698
28740W        W95281  20.545  26.896   2.928
28741W        W95282  10.833  19.474  10.956
28742W        W95283  33.405  43.704   4.333
28743W        W95284  27.077  32.373  10.668
28744W        W95285  27.958  13.578  11.503
28745W        W95286   0.870  36.619  14.752
28746W        W95287  10.777  38.399   1.842
28747W        W95288  30.125  15.037  10.994
28748W        W95289  14.255  30.405  13.057
28749W        W95290  43.887  16.155   2.374
28750W        W95291  12.379  16.214  14.863
28751W        W95292  23.069  12.901  11.840
28752W        W95293  27.293   9.928   1.826
28753W        W95294  26.949  36.479  12.634
28754W        W95295  38.575  28.557   1.224
28755W        W95296  18.416  11.746   5.505
28756W        W95297  14.158   2.227  14.129
28757W        W95298  33.869  13.547   0.320
28758W        W95299  30.157  30.893   1.204
28759W        W95300  14.829  39.970  14.577
28760W        W95301  12.260  33.541  12.980
28761W        W95302  43.944  43.681   1.373
28762W        W95303   3.497  20.268  10.289
28763W        W95304   7.933  17.980   1.573
28764W        W95305  19.195   6.508   4.256
28765W        W95306   6.557  35.694  12.445
28766W        W95307  18.191  25.701  11.969
28767W        W95308   8.717   0.832  12.105
28768W        W95309  42.876  33.591  11.654
28769W        W95310   7.821  41.119   2.248
28770W        W95311   8.972   8.008  12.560
28771W        W95312  29.709  37.476   1.251
28772W        W95313  34.821  22.736   0.801
28773W        W95314  13.568  14.205   4.289
28774W        W95315  12.299  18.809   4.380
28775W        W95316  26.067  18.095   2.409
28776W        W95317  41.018  27.205   4.637
28777W        W95318   8.847  16.587   2.102
28778W        W95319  29.228  29.482  12.884
28779W        W95320  24.261   2.133  13.001
28780W        W95321   7.243   4.638  14.407
28781W        W95322  30.435  43.051   1.253
28782W        W95323  32.382  25.358   1.231
28783W        W95324  34.058   4.254  14.064
28784W        W95325  28.469  10.292   3.216
28785W        W95326  38.587   2.733  13.504
28786W        W95327  44.854  36.118   1.847
28787W        W95328  15.565  44.387  13.452
28788W        W95329  28.650  35.139   3.135
28789W        W95330  27.634  35.282   3.850
28790W        W95331  35.799  31.504   0.505
28791W        W95332   1.424  15.237  11.117
28792W        W95333   9.180  29.899   3.910
28793W        W95334  17.275  28.158  14.844
28794W        W95335  10.796  27.036   3.689
28795W        W95336  24.170  40.972  11.181
28796W        W95337  18.260  10.888   2.671
28797W        W95338   9.225  21.294  12.490
28798W        W95339   5.197  10.165  12.574
28799W        W95340  19.840  27.376  14.421
28800W        W95341   3.860  39.896   2.708
28801W        W95342  43.444   7.005   0.852
28802W        W95343  12.710   6.738   2.347
28803W        W95344  10.216  34.065   2.112
28804W        W95345   9.842   5.174   1.655
28805W        W95346  43.210  19.641   2.779
28806W        W95347  12.811  19.236  12.068
28807W        W95348   6.820  11.865  11.551
28808W        W95349   8.472  17.820   2.171
28809W        W95350  25.556  15.179   1.993
28810W        W95351  17.712  32.627   4.784
28811W        W95352  15.000  26.415   2.241
28812W        W95353   3.099  21.865  10.853
28813W        W95354   4.365   8.442   1.800
28814W        W95355  25.450  25.715  12.068
28815W        W95356  27.868   7.862  12.399
28816W        W95357  13.300   2.490   4.806
28817W        W95358  30.417  34.554  14.864
28818W        W95359  20.949  26.171   1.769
28819W        W95360  13.262   4.918   4.922
28820W        W95361  23.583   0.138  12.106
28821W        W95362  36.547   0.168   0.461
28822W        W95363  31.032   0.194  14.341
28823W        W95364  17.378  37.339  12.378
28824W        W95365  12.761  23.674  11.194
28825W        W95366  37.941   7.934  13.858
28826W        W95367  14.562  34.298   1.813
28827W        W95368  28.870   3.328   0.304
28828W        W95369  23.778  42.749  10.254
28829W        W95370  39.804  23.156   4.130
28830W        W95371   6.788  38.729  12.264
28831W        W95372   8.850  24.446  14.519
28832W        W95373  32.843  17.208  12.397
28833W        W95374   4.761  35.492   0.443
28834W        W95375  29.446   3.771  14.990
28835W        W95376  43.884  40.029  11.868
28836W        W95377  17.629  23.367   3.673
28837W        W95378   5.357  21.468  14.022
28838W        W95379  39.471  18.527   0.941
28839W        W95380  11.180  40.644  13.882
28840W        W95381  32.191  39.989   2.694
28841W        W95382  31.056   0.365   2.602
28842W        W95383  10.211  24.093  14.672
28843W        W95384  34.677  21.542  12.546
28844W        W95385  26.631  37.139  11.063
28845W        W95386  20.576  37.169  12.173
28846W        W95387  38.357  19.498  15.000
28847W        W95388  44.411  15.878   3.717
28848W        W95389  23.762  34.451  12.585
28849W        W95390  23.135  18.573   0.949
28850W        W95391  15.621  20.146  13.802
28851W        W95392  34.213  30.222   0.354
28852W        W95393  43.213  10.713  11.564
28853W        W95394  12.250  26.433  10.456
28854W        W95395  21.077  37.634  10.135
28855W        W95396   0.274  32.661  11.239
28856W        W95397   0.903   0.283  10.824
28857W        W95398   7.143  41.057  13.011
28858W        W95399   2.268  42.375  14.574
28859W        W95400  44.089   2.667   0.494
28860W        W95401   0.705  28.091  11.234
28861W        W95402  15.630  21.526  11.612
28862W        W95403  24.515  44.510   2.849
28863W        W95404  24.157  39.952   3.926
28864W        W95405   8.840   5.461   1.447
28865W        W95406  42.937  28.752   3.129
28866W        W95407  20.564  15.696  13.124
28867W        W95408  44.482  37.509  12.553
28868W        W95409  15.087   1.029  12.665
28869W        W95410  19.728  35.190   1.426
28870W        W95411  42.800  33.392  14.814
28871W        W95412  42.367  17.658   0.495
28872W        W95413   2.257   1.315   0.441
28873W        W95414  36.539  39.024  12.476
28874W        W95415  26.399  26.502  11.553
28875W        W95416   8.427  19.621  12.992
28876W        W95417  43.389   5.990   4.366
28877W        W95418  40.895  20.140   0.831
28878W        W95419  20.035  39.288  14.458
28879W        W95420   9.647  14.373   9.678
28880W        W95421   7.296  33.430   3.720
28881W        W95422  19.645  35.373  11.728
28882W        W95423  13.497   1.226   0.277
28883W        W95424   2.317   8.652  14.903
28884W        W95425   9.872  13.764   1.396
28885W        W95426  15.611  33.890   2.783
28886W        W95427  42.790  44.387   0.208
28887W        W95428   1.903  19.027   1.289
28888W        W95429   6.700  15.240  14.030
28889W        W95430  31.515  28.149  14.000
28890W        W95431  16.067  28.555  10.544
28891W        W95432   6.099  12.791   4.254
28892W        W95433  27.532  22.385   3.554
28893W        W95434  38.101  19.581   4.173
28894W        W95435  35.792  35.978  14.702
28895W        W95436  23.610  41.105   2.566
28896W        W95437  22.512  16.141   0.112
28897W        W95438  12.234  21.549   2.705
28898W        W95439  43.195  14.272  13.853
28899W        W95440  15.210  10.207   4.126
28900W        W95441  15.620  36.943  11.500
28901W        W95442  24.757  24.153   3.206
28902W        W95443  24.330   4.359   3.105
28903W        W95444  35.294  11.189  14.319
28904W        W95445  42.466  26.474  12.872
28905W        W95446  41.636  35.767   0.832
28906W        W95447   4.068   5.334  12.076
28907W        W95448  41.608  41.539  10.734
28908W        W95449  36.906  10.280   9.863
28909W        W95450  19.837  36.215   0.546
28910W        W95451   1.778  31.884   3.490
28911W        W95452  29.638   8.869  14.706
28912W        W95453  18.532  20.201  12.588
28913W        W95454  14.560   0.824  12.028
28914W        W95455   1.992  12.425  12.867
28915W        W95456  26.119  11.664   2.615
28916W        W95457  15.281  30.503  14.063
28917W        W95458   0.040   2.924  10.895
28918W        W95459  33.131  41.035   0.107
28919W        W95460  20.061  13.637  14.401
28920W        W95461  20.628  33.016  12.176
28921W        W95462   5.628   8.241   2.756
28922W        W95463  29.999  22.775  11.988
28923W        W95464  27.147  24.491   0.971
28924W        W95465  42.668  13.248   3.334
28925W        W95466  43.462  12.320  14.393
28926W        W95467   2.722  39.321  10.482
28927W        W95468  34.378   6.865  14.417
28928W        W95469  23.495   3.754   2.293
28929W        W95470  26.095  41.317   4.205
28930W        W95471  29.884  42.033   2.279
28931W        W95472  32.771   4.365   3.572
28932W        W95473   8.746   6.398   1.240
28933W        W95474   8.041   0.348  10.641
28934W        W95475   4.687  41.530   1.700
28935W        W95476  34.745  23.215   4.204
28936W        W95477  34.330   8.712  12.516
28937W        W95478   9.489  42.107  13.391
28938W        W95479   5.497  37.512  14.673
28939W        W95480  44.939  34.622   2.808
28940W        W95481  25.178  43.381  11.603
28941W        W95482   7.264  12.873  13.537
28942W        W95483   5.347  38.798  10.511
28943W        W95484  37.172  43.765   1.491
28944W        W95485  27.679  35.947  14.558
28945W        W95486   7.804  26.646   1.411
28946W        W95487  12.798  13.272  12.511
28947W        W95488  32.949   6.872  11.068
28948W        W95489   5.342   6.507   3.089
28949W        W95490   6.232  14.578   0.017
28950W        W95491  19.672  30.582   2.594
28951W        W95492  43.442  44.236   4.325
28952W        W95493  29.065  19.832   1.524
28953W        W95494   3.715  37.988  14.754
28954W        W95495  17.032  16.243   3.168
28955W        W95496  24.222  35.553   1.332
28956W        W95497   8.251  25.087  10.584
28957W        W95498  22.774  26.873   2.196
28958W        W95499  13.651  43.524  10.695
28959W        W95500  16.207  18.354  12.085
28960W        W95501  24.321  25.756  14.496
28961W        W95502  28.371  15.416  14.595
28962W        W95503  37.010  17.099  13.810
28963W        W95504  13.573  11.220   0.847
28964W        W95505  23.606  25.490   4.660
28965W        W95506  19.146  22.667  13.929
28966W        W95507  19.102  18.085  13.417
28967W        W95508  22.381  37.868  13.372
28968W        W95509  35.575  10.879  12.035
28969W        W95510   5.299  38.037   0.442
28970W        W95511   9.279  33.363  10.322
28971W        W95512  42.703  43.003  14.028
28972W        W95513   0.408  22.474  12.388
28973W        W95514  13.861  20.163   3.603
28974W        W95515  32.027   1.621   9.931
28975W        W95516  38.325  24.916  12.091
28976W        W95517  38.730  21.212   4.130
28977W        W95518  29.107   7.658   3.868
28978W        W95519  18.042  29.693  14.032
28979W        W95520  14.660  15.436  10.124
28980W        W95521  44.741  18.600  11.164
28981W        W95522  26.116  19.901  14.017
28982W        W95523  27.677  29.029   0.376
28983W        W95524  33.454  30.170   4.704
28984W        W95525   4.900  31.885  10.200
28985W        W95526  12.324  12.342  10.908
28986W        W95527  16.330  36.763   4.148
28987W        W95528  22.757  33.632  11.450
28988W        W95529  23.184  32.606   4.256
28989W        W95530  37.764  10.822   2.849
28990W        W95531  34.646  23.031   1.907
28991W        W95532  30.409  17.017   1.786
28992W        W95533   1.186   0.196  11.238
28993W        W95534  31.427  16.163  12.466
28994W        W95535  26.709  14.350  12.457
28995W        W95536  15.275  10.889  13.023
28996W        W95537  44.766  21.614   4.871
28997W        W95538  37.988  44.837   3.770
28998W        W95539  36.563  34.822   2.397
28999W        W95540   1.307   3.701  13.383
29000W        W95541  10.660  25.112   1.142
29001W        W95542  18.847  36.002   3.651
29002W        W95543  38.388  36.945  10.669
29003W        W95544  39.077  31.935  12.584
29004W        W95545  25.100  40.595  14.363
29005W        W95546   4.446  43.068  10.528
29006W        W95547  10.206  28.942   0.431
29007W        W95548  29.629  35.187   4.830
29008W        W95549  28.041   1.497   1.346
29009W        W95550  40.688  44.387   1.803
29010W        W95551  22.284  12.518  11.483
29011W        W95552   2.971   6.814  12.145
29012W        W95553  42.655  21.089   1.159
29013W        W95554  24.659  37.831  13.488
29014W        W95555  39.274  44.501   1.288
29015W        W95556   6.337  22.115   3.593
29016W        W95557  40.143   2.763   1.876
29017W        W95558   5.228  41.492   5.396
29018W        W95559  21.551  11.551   1.147
29019W        W95560  41.695  40.894   1.655
29020W        W95561  42.732  33.459  13.553
29021W        W95562   6.180  26.991  12.454
29022W        W95563  21.014  23.998  13.410
29023W        W95564  31.026   9.749  10.230
29024W        W95565   3.534  19.522  11.218
29025W        W95566  35.566  38.580   0.227
29026W        W95567  33.232  42.891   3.577
29027W        W95568   7.921  39.466   1.360
29028W        W95569  40.938  15.020   1.947
29029W        W95570   4.436  31.167  11.486
29030W        W95571  26.645  33.030  11.708
29031W        W95572  18.240  40.262  12.847
29032W        W95573   8.672  27.962   3.214
29033W        W95574  12.895  30.074  13.322
29034W        W95575   2.160  14.703  10.493
29035W        W95576   6.103   6.828  12.537
29036W        W95577  14.783  43.340  14.783
29037W        W95578   4.061  26.381  11.234
29038W        W95579  40.195  27.578   1.143
29039W        W95580  37.800  28.464   1.884
29040W        W95581   9.920  34.634  14.508
29041W        W95582  33.212  15.188   1.917
29042W        W95583  28.938  43.955  11.862
29043W        W95584   4.280   8.190   0.366
29044W        W95585   7.324   4.637   3.310
29045W        W95586   7.484  19.801  10.725
29046W        W95587  24.116  11.634  13.176
29047W        W95588   1.036  37.793   9.718
29048W        W95589  28.167  37.912  13.626
29049W        W95590  16.923  23.784   4.686
29050W        W95591  26.564  42.758   0.454
29051W        W95592  12.163  23.658   2.283
29052W        W95593   4.399  43.740   5.098
29053W        W95594  10.055   0.457   0.603
29054W        W95595  34.921   1.283  14.327
29055W        W95596   4.295   3.993  13.345
29056W        W95597  10.794   2.969  12.069
29057W        W95598  35.940  21.770   2.296
29058W        W95599   1.281  11.931  12.583
29059W        W95600   0.707  27.044   2.227
29060W        W95601  44.637  40.910   4.180
29061W        W95602  12.127  32.487  11.025
29062W        W95603  10.586  21.278   3.987
29063W        W95604  35.442  37.100  13.496
29064W        W95605  29.559  43.358   0.347
29065W        W95606  30.048  15.413   4.222
29066W        W95607  28.827  17.379  11.681
29067W        W95608  15.779   9.756   1.961
29068W        W95609   5.447  22.635   0.480
29069W        W95610  31.078  32.692   0.389
29070W        W95611  33.506  37.843  14.811
29071W        W95612  42.630  31.536   2.636
29072W        W95613  29.218  38.033   2.753
29073W        W95614  14.260  23.079   1.206
29074W        W95615  12.812  41.364  13.778
29075W        W95616   8.791  14.688   1.744
29076W        W95617   7.330   1.331  11.648
29077W        W95618  35.611  18.114   0.027
29078W        W95619  27.998   8.893  13.939
29079W        W95620  13.864   9.379  12.322
29080W        W95621  35.613  27.205  11.581
29081W        W95622  44.875  44.242  14.366
29082W        W95623   8.819  19.137   4.150
29083W        W95624  19.412  28.990   1.742
29084W        W95625  34.612   3.622   5.458
29085W        W95626  36.338  26.930   4.451
29086W        W95627  24.932  16.219   2.276
29087W        W95628  24.957  35.915   2.449
29088W        W95629   0.247  39.954  12.042
29089W        W95630  34.063   0.220   4.521
29090W        W95631   0.917  39.909  12.615
29091W        W95632  23.627   3.801   3.649
29092W        W95633  22.136  16.557  14.325
29093W        W95634  43.350  17.456  11.900
29094W        W95635   2.352  34.502   1.470
29095W        W95636  28.103  18.206  12.475
29096W        W95637  42.925  29.265   1.104
29097W        W95638   5.166   9.097   0.856
29098W        W95639  19.626  38.859  11.290
29099W        W95640   4.222   0.851  11.114
29100W        W95641  43.255  41.990  11.199
29101W        W95642  35.109  34.915  11.106
29102W        W95643  27.335   7.843  11.550
29103W        W95644  42.615   0.352   0.462
29104W        W95645   8.202  20.243   3.903
29105W        W95646  13.111   4.055  11.127
29106W        W95647  35.792   2.693   2.750
29107W        W95648   8.605  30.460   4.234
29108W        W95649   7.841   9.679  12.480
29109W        W95650   4.885  31.073   4.372
29110W        W95651  13.600  26.152   2.379
29111W        W95652  17.593  37.956  10.050
29112W        W95653   8.752  27.725   3.959
29113W        W95654  13.146  24.342   2.332
29114W        W95655   8.659  40.017  13.025
29115W        W95656   5.497  37.524  11.080
29116W        W95657  43.789   2.242   0.539
29117W        W95658  32.689   9.089   1.896
29118W        W95659  37.854   4.789  11.970
29119W        W95660  28.266  10.239   3.714
29120W        W95661  40.538  39.842   5.042
29121W        W95662  36.839  43.412  12.859
29122W        W95663   7.392  15.136   0.726
29123W        W95664   9.793   9.674  11.703
29124W        W95665  12.207  36.996  14.325
29125W        W95666  32.433  22.460   0.274
29126W        W95667  44.428  38.480   4.679
29127W        W95668   4.413  43.369  10.945
29128W        W95669  41.571   8.280  14.779
29129W        W95670  42.786  26.686  12.155
29130W        W95671  31.403  17.007   3.211
29131W        W95672  14.624  18.340   4.634
29132W        W95673  17.757  34.009  12.500
29133W        W95674  43.878   9.706  14.000
29134W        W95675  36.473  17.959  14.970
29135W        W95676  13.117  40.252  11.858
29136W        W95677  15.822  44.298  14.862
29137W        W95678  17.106  10.605   3.204
29138W        W95679   0.330  37.847   1.438
29139W        W95680  33.556  23.498   0.564
29140W        W95681   2.894  31.464   0.349
29141W        W95682   8.848  25.180   0.246
29142W        W95683  42.059  26.391  12.546
29143W        W95684  12.834  43.077  10.700
29144W        W95685  30.377  32.476  12.372
29145W        W95686  21.263  26.969   1.289
29146W        W95687  18.344  32.309  14.813
29147W        W95688   6.199  27.481   2.283
29148W        W95689  33.495  36.304  14.755
29149W        W95690  34.611   8.304   1.404
29150W        W95691  33.383  30.060  13.293
29151W        W95692  39.647   3.718  14.939
29152W        W95693  29.968  25.847   4.701
29153W        W95694  10.791  41.841  14.315
29154W        W95695  14.806  33.078   1.472
29155W        W95696  28.933  23.716  13.677
29156W        W95697  29.092  26.200  13.001
29157W        W95698   6.751  43.331  12.783
29158W        W95699  27.478  43.236   0.302
29159W        W95700   2.502  39.963   5.083
29160W        W95701  36.315  13.952  14.883
29161W        W95702   8.148  11.154   3.904
29162W        W95703   7.655  37.404   9.753
29163W        W95704  16.032   9.289   3.232
29164W        W95705  16.701  42.140   4.552
29165W        W95706  44.430  35.400  14.734
29166W        W95707   8.169  19.250  10.723
29167W        W95708  20.520  15.870   4.810
29168W        W95709  37.218  11.812   4.045
29169W        W95710  18.543  11.934   0.719
29170W        W95711   3.729  35.138  12.919
29171W        W95712  20.519  18.365  14.929
29172W        W95713  21.674   7.599  12.472
29173W        W95714  35.653  38.532  13.683
29174W        W95715  19.289  35.609   4.181
29175W        W95716  37.678  11.909  11.170
29176W        W95717  18.611   0.408   3.693
29177W        W95718  34.609  23.691   4.057
29178W        W95719  28.714  37.453  13.923
29179W        W95720  24.690  32.691   3.326
29180W        W95721  30.382  28.782   1.958
29181W        W95722   3.149  17.782   1.917
29182W        W95723  31.100  30.585   2.366
29183W        W95724  32.078  29.103   1.926
29184W        W95725  21.059  12.089   2.280
29185W        W95726   3.487  21.938   2.355
29186W        W95727   3.836   6.662   2.664
29187W        W95728   2.273   8.424  12.985
29188W        W95729  38.104  10.969  11.126
29189W        W95730  38.434   0.322  10.508
29190W        W95731   7.948  41.460  10.371
29191W        W95732  28.642  26.682   3.729
29192W        W95733  12.593  39.267  14.273
29193W        W95734  10.811  38.396   4.645
29194W        W95735   0.767  33.120  13.074
29195W        W95736  44.937  14.622   1.891
29196W        W95737  44.988  23.981  12.761
29197W        W95738   2.314  30.189  13.306
29198W        W95739   6.612  24.543  11.454
29199W        W95740  28.422   4.437  13.880
29200W        W95741  12.898  24.806   0.592
29201W        W95742   7.446  26.689   2.316
29202W        W95743  33.112  38.960   3.711
29203W        W95744  26.267  26.185  11.921
29204W        W95745  28.875  40.404   2.787
29205W        W95746  27.429  14.694   3.232
29206W        W95747  11.521  13.302   3.068
29207W        W95748   0.353  12.198   2.765
29208W        W95749  27.237  24.589   2.270
29209W        W95750   8.212  24.934  14.067
29210W        W95751   3.968  37.820   5.157
29211W        W95752  39.255  34.854   3.233
29212W        W95753  16.719  26.990   0.223
29213W        W95754  37.221  29.850  12.064
29214W        W95755  25.974   6.671  12.968
29215W        W95756  33.023  15.866  12.077
29216W        W95757  24.392  23.111   3.280
29217W        W95758  23.082  36.925   1.934
29218W        W95759   2.164  27.992   2.697
29219W        W95760   0.422  14.850   4.157
29220W        W95761  15.771  28.914   0.339
29221W        W95762  40.986  43.468   4.060
29222W        W95763   5.344   9.176   1.701
29223W        W95764  30.123  41.847   4.513
29224W        W95765  17.062   0.343  12.426
29225W        W95766  31.985   2.091  10.661
29226W        W95767   0.340   6.653   1.870
29227W        W95768  18.458  40.413   4.643
29228W        W95769  43.911  36.348   1.503
29229W        W95770  10.248  23.456  11.533
29230W        W95771  17.029  25.053  14.126
29231W        W95772  20.939   6.917  11.226
29232W        W95773  23.729  39.503  11.642
29233W        W95774   4.495  39.405   4.233
29234W        W95775  16.902   6.825  10.663
29235W        W95776  35.271   4.470   4.757
29236W        W95777   1.623  13.423  14.826
29237W        W95778  42.867  13.883  13.884
29238W        W95779   1.831  22.193  12.014
29239W        W95780  19.990  17.243  10.288
29240W        W95781  37.886  44.440  14.386
29241W        W95782  24.935  30.212  13.539
29242W        W95783  11.699   1.755  13.523
29243W        W95784  12.274  17.216  11.747
29244W        W95785  38.971  37.593   2.365
29245W        W95786  20.165   9.578   4.677
29246W        W95787  13.206  15.621   4.502
29247W        W95788  17.532  16.192   0.931
29248W        W95789  43.469  36.488   0.264
29249W        W95790  30.598   0.161   2.445
29250W        W95791  15.060   5.898  14.080
29251W        W95792  11.509  12.596  14.405
29252W        W95793  27.537   5.356  14.399
29253W        W95794  33.627  15.088  10.619
29254W        W95795  43.381  39.418  13.977
29255W        W95796  40.712  43.533  12.379
29256W        W95797  25.007  22.583   3.630
29257W        W95798  24.516   8.343  11.047
29258W        W95799  15.284   5.110  12.394
29259W        W95800  21.661   4.430   4.454
29260W        W95801   9.333   6.871   1.738
29261W        W95802  23.581  24.725  12.221
29262W        W95803  32.331  32.647   2.341
29263W        W95804   7.477  17.755  12.006
29264W        W95805  31.276  26.549   9.931
29265W        W95806  16.120  24.589   1.890
29266W        W95807   4.169  37.832  13.815
29267W        W95808  41.844  33.936  14.359
29268W        W95809  20.392   3.684   4.151
29269W        W95810  10.732   6.816  10.709
29270W        W95811  38.238  13.802  14.857
29271W        W95812   8.788  36.931  14.849
29272W        W95813  27.898  27.882  11.171
29273W        W95814  35.655  36.560  11.690
29274W        W95815   0.133  36.642   2.649
29275W        W95816  26.507  13.805   2.262
29276W        W95817  27.664  23.566   0.460
29277W        W95818  36.230  14.638  14.230
29278W        W95819  17.783  28.074  11.197
29279W        W95820  18.067  14.574   1.039
29280W        W95821  11.804  23.983   4.069
29281W        W95822  40.162  11.053   2.213
29282W        W95823  30.513  33.498  14.974
29283W        W95824   2.789   1.931  12.710
29284W        W95825  10.526   7.740  14.380
29285W        W95826  36.329  11.084  12.402
29286W        W95827   4.453  43.388   0.238
29287W        W95828  32.205  34.082   2.342
29288W        W95829  12.177  31.877   2.814
29289W        W95830   2.465  26.608  14.022
29290W        W95831  36.405  11.561   3.450
29291W        W95832  17.110   0.911  13.334
29292W        W95833   2.869   0.137   0.017
29293W        W95834   2.429  15.134   1.946
29294W        W95835  21.696  21.317  10.280
29295W        W95836  11.759   1.745   4.967
29296W        W95837   2.487  44.217   3.206
29297W        W95838  20.565   9.244   4.741
29298W        W95839  27.141  25.201  13.070
29299W        W95840  27.959  22.737   4.225
29300W        W95841  16.174  28.389  11.534
29301W        W95842  38.912  17.817   1.392
29302W        W95843  10.340  37.445  10.481
29303W        W95844  24.151  21.130  12.302
29304W        W95845  42.813   8.880   0.269
29305W        W95846  34.140  31.840  14.743
29306W        W95847  21.044   7.782  12.992
29307W        W95848   5.748  34.137  14.797
29308W        W95849  23.005  39.465  12.113
29309W        W95850  40.256  25.252  14.051
29310W        W95851   7.272  38.785   2.316
29311W        W95852  27.829  33.119   1.359
29312W        W95853   5.349  32.361  13.049
29313W        W95854  42.779  44.017  12.250
29314W        W95855  38.153  18.587  12.348
29315W        W95856  23.061  44.246   2.451
29316W        W95857  12.105   4.376  10.610
29317W        W95858   1.055  16.575   0.744
29318W        W95859  26.979  20.513  12.914
29319W        W95860  11.783  34.946  11.667
29320W        W95861   7.766   8.408  10.438
29321W        W95862  14.712  21.213   0.926
29322W        W95863  39.268   5.489   1.800
29323W        W95864   6.886  16.141   1.918
29324W        W95865  13.436   1.637   5.078
29325W        W95866   0.848  27.076   1.724
29326W        W95867  37.827  27.964   0.915
29327W        W95868  24.897  12.646   0.843
29328W        W95869  14.874  37.055   2.805
29329W        W95870   7.228  43.641  14.472
29330W        W95871   9.895   4.147   4.433
29331W        W95872  25.115  24.257  13.835
29332W        W95873  28.285  40.783  12.984
29333W        W95874   3.845  35.844   1.960
29334W        W95875   9.700  31.926  14.062
29335W        W95876   8.223  43.962  14.943
29336W        W95877   3.498  27.077  11.179
29337W        W95878  11.215  20.161   2.824
29338W        W95879  11.755   4.586   2.133
29339W        W95880  32.130   3.418  11.557
29340W        W95881  37.651  37.907   0.113
29341W        W95882  38.979  41.482  14.366
29342W        W95883  13.499  32.062  12.177
29343W        W95884  10.786  29.954  10.652
29344W        W95885  29.556   6.339   3.738
29345W        W95886  23.980  37.133  12.836
29346W        W95887  41.982  12.604   0.405
29347W        W95888  42.290  21.073   0.363
29348W        W95889  38.874   8.425  13.833
29349W        W95890  44.404  20.032   2.716
29350W        W95891   7.735  33.279   3.995
29351W        W95892  27.517  20.589  11.191
29352W        W95893  33.446   7.705  12.287
29353W        W95894  13.964  25.659   4.093
29354W        W95895  43.030  35.608  10.689
29355W        W95896  14.080  16.108   3.616
29356W        W95897  11.383  17.847  14.864
29357W        W95898  26.376  12.188  11.163
29358W        W95899  37.525  25.056   3.953
29359W        W95900  32.963  38.850   0.468
29360W        W95901  39.113  33.625  13.292
29361W        W95902  31.912  44.485   1.344
29362W        W95903  41.772  35.770  10.224
29363W        W95904  34.863   8.153   4.088
29364W        W95905  44.173  36.336  10.885
29365W        W95906  20.776  29.634   3.650
29366W        W95907   0.281  34.810   1.766
29367W        W95908  35.419   8.079  14.384
29368W        W95909   1.943  17.756   1.791
29369W        W95910  11.784  26.927   2.768
29370W        W95911  29.040  28.581  12.858
29371W        W95912  25.129  38.264  12.096
29372W        W95913   8.049   2.492   0.838
29373W        W95914   4.905   6.882  11.716
29374W        W95915  32.539  11.473   2.863
29375W        W95916  36.929  19.691   4.786
29376W        W95917  31.537   1.232  12.217
29377W        W95918  10.296  31.511   0.212
29378W        W95919  30.012  22.102  12.409
29379W        W95920   5.376  43.432  12.544
29380W        W95921  20.685  13.678   0.358
29381W        W95922   9.596  34.903  12.024
29382W        W95923  13.264   0.088  12.038
29383W        W95924   6.330  32.298   1.277
29384W        W95925  24.062  21.041  14.899
29385W        W95926  12.564  16.672  13.439
29386W        W95927  27.468  41.975  14.407
29387W        W95928  30.808   1.792  12.203
29388W        W95929  18.026  36.845  13.461
29389W        W95930  14.060  16.078  14.453
29390W        W95931   1.832  33.601  13.730
29391W        W95932  35.983  28.988  10.827
29392W        W95933   6.293  31.862   4.110
29393W        W95934  39.186  34.526   3.612
29394W        W95935  23.983  41.048   0.303
29395W        W95936  30.990  34.918  14.138
29396W        W95937  19.652  17.071   3.525
29397W        W95938  11.195  31.579   4.619
29398W        W95939  17.732  19.870  12.908
29399W        W95940  31.066   3.831   0.991
29400W        W95941  32.667   2.360  13.992
29401W        W95942   7.314   3.811  13.003
29402W        W95943  20.654   2.209   4.200
29403W        W95944  12.904  27.575  13.949
29404W        W95945   7.938  10.221  10.731
29405W        W95946  23.143  12.308  13.623
29406W        W95947  14.375  16.538   3.659
29407W        W95948  10.087   7.446  12.920
29408W        W95949  17.022  34.790   5.081
29409W        W95950  19.801   9.404   2.701
29410W        W95951  23.577   2.224  12.305
29411W        W95952  26.451  20.000   1.883
29412W        W95953   5.788  34.198   4.006
29413W        W95954  37.842  18.082  13.735
29414W        W95955   8.813   3.210   2.897
29415W        W95956  12.141  30.558   2.312
29416W        W95957  26.891  12.893   4.288
29417W        W95958  19.488  11.355   4.495
29418W        W95959  18.700  12.140   2.579
29419W        W95960  39.548  22.165  13.549
29420W        W95961  34.236  15.749   1.027
29421W        W95962  20.573   9.936  12.106
29422W        W95963  28.153  23.488   1.687
29423W        W95964  35.447  12.540  11.955
29424W        W95965  12.727   4.182  12.171
29425W        W95966  21.611  12.822  10.347
29426W        W95967  42.316  40.568   1.317
29427W        W95968   3.569  19.801   3.713
29428W        W95969   4.665  11.634   0.418
29429W        W95970   9.439  13.166   0.270
29430W        W95971  18.722   5.934   0.887
29431W        W95972   8.546  42.474  13.965
29432W        W95973   8.665   5.299  11.558
29433W        W95974  37.834  13.191  11.580
29434W        W95975  38.615  39.110  13.295
29435W        W95976  11.705  11.126  14.803
29436W        W95977  29.668   7.900   2.719
29437W        W95978   3.518  12.479  10.117
29438W        W95979   0.969  11.545  11.352
29439W        W95980  41.576  31.371   1.697
29440W        W95981   2.521  37.669   1.351
29441W        W95982  14.018  10.432   1.193
29442W        W95983  17.174  42.557  12.558
29443W        W95984  21.909  34.720  12.749
29444W        W95985   9.616   8.241  10.504
29445W        W95986  24.723  29.251  14.522
29446W        W95987   8.563   9.891  11.857
29447W        W95988  12.060   3.349   4.169
29448W        W95989  41.454  19.759   4.075
29449W        W95990  23.496  35.903  11.538
29450W        W95991  31.601  17.220   0.510
29451W        W95992  19.651   8.366   4.586
29452W        W95993  28.594  27.175   3.979
29453W        W95994   5.694  30.913  13.024
29454W        W95995  43.846  39.604   1.597
29455W        W95996  16.762  10.879   2.262
29456W        W95997  10.717   9.990  10.812
29457W        W95998   2.594  16.723  11.131
29458W        W95999  39.422  41.973   1.784
29459W        W96000   3.060  41.865   2.905
29460W        W96001   3.211  10.872  13.016
29461W        W96002  26.612  31.703  14.198
29462W        W96003  41.790  24.513  12.506
29463W        W96004  43.789  44.460   2.863
29464W        W96005   6.228  18.563   0.416
29465W        W96006  20.495   0.897  11.059
29466W        W96007  21.625  21.990  14.294
29467W        W96008  34.899  34.909   3.838
29468W        W96009   5.508  11.346   3.248
29469W        W96010   0.816  40.496  12.986
29470W        W96011  20.746  10.030  12.606
29471W        W96012  30.314  44.055   3.257
29472W        W96013  22.418   3.160  12.933
29473W        W96014  36.983  23.241  12.568
29474W        W96015  22.008  26.137   4.120
29475W        W96016   8.712  13.683  10.892
29476W        W96017  11.821  12.199  12.551
29477W        W96018  21.585  23.100   1.693
29478W        W96019  16.361  35.417  14.634
29479W        W96020  35.340  35.686  14.075
29480W        W96021  12.917  14.909   1.250
29481W        W96022  22.998  32.981   3.448
29482W        W96023   9.686  37.803   1.710
29483W        W96024   3.728  44.925   1.784
29484W        W96025  16.151  18.285   1.187
29485W        W96026  38.901  30.876   3.313
29486W        W96027  36.823  35.831  13.903
29487W        W96028   4.668  18.678   3.185
29488W        W96029  27.970  29.753   2.774
29489W        W96030  16.488  15.227  11.048
29490W        W96031  39.064  27.044  12.219
29491W        W96032  44.796   9.344   2.834
29492W        W96033   0.031  22.331   3.739
29493W        W96034  15.752  15.831   0.939
29494W        W96035  28.405   5.991   2.042
29495W        W96036  29.378  14.148   4.119
29496W        W96037  32.954  29.675  11.971
29497W        W96038  36.807   7.779   0.892
29498W        W96039  41.783   6.012  14.897
29499W        W96040   5.696  35.670  11.123
29500W        W96041   6.068  10.550  14.001
29501W        W96042  22.492   6.010  12.513
29502W        W96043  43.324  21.683   4.204
29503W        W96044  36.124  26.158  11.578
29504W        W96045  43.420  13.410   2.757
29505W        W96046  16.805  39.228   0.906
29506W        W96047  21.170  28.101  13.399
29507W        W96048  14.460  33.176   3.712
29508W        W96049  40.124  19.503   3.369
29509W        W96050   6.849  16.752   3.399
29510W        W96051  43.931  36.467  11.331
29511W        W96052   5.272  30.999  11.945
29512W        W96053  28.022   9.033   1.880
29513W        W96054   4.546   4.296   2.865
29514W        W96055   8.388  39.992   2.773
29515W        W96056  27.522   7.925  10.337
29516W        W96057  22.076  29.458  13.396
29517W        W96058  35.357  19.304  10.600
29518W        W96059  30.681  16.120   1.939
29519W        W96060  27.863  31.191   2.559
29520W        W96061  18.277  21.577   1.812
29521W        W96062  17.756  10.361  13.309
29522W        W96063  31.300  21.215   4.906
29523W        W96064  33.947   5.836   3.584
29524W        W96065  38.210  22.488   2.313
29525W        W96066   1.386  15.959  14.352
29526W        W96067   7.653  30.940   4.471
29527W        W96068  14.201  26.720   0.738
29528W        W96069   9.374  23.995  10.746
29529W        W96070  35.151   6.659   2.928
29530W        W96071  23.528   8.223  13.549
29531W        W96072   3.731  38.359  10.682
29532W        W96073  25.745   4.436   1.402
29533W        W96074  36.016  39.438   0.934
29534W        W96075  31.619  11.389  14.859
29535W        W96076   4.218   1.579  14.016
29536W        W96077  44.245  12.865   2.646
29537W        W96078  10.268  35.502  11.768
29538W        W96079  10.794   8.640  11.233
29539W        W96080  33.393   0.020   3.251
29540W        W96081   6.882  34.452   2.135
29541W        W96082  25.623  16.730  13.947
29542W        W96083  35.144  19.853  13.425
29543W        W96084  11.295  27.266  12.084
29544W        W96085  22.016  31.493   3.738
29545W        W96086   0.768  29.186  12.901
29546W        W96087  32.182  39.345   2.255
29547W        W96088  42.322  24.414   0.212
29548W        W96089   4.772  33.914   2.178
29549W        W96090  40.415   0.225   3.113
29550W        W96091  44.986   3.978   4.869
29551W        W96092  32.863   1.091  14.743
29552W        W96093   8.537  33.989  14.432
29553W        W96094  39.053  15.224  14.908
29554W        W96095  15.811  40.268   0.796
29555W        W96096  42.770  41.939  13.325
29556W        W96097  17.186  36.389  14.282
29557W        W96098  33.102  43.318  11.345
29558W        W96099  34.119  16.332  12.622
29559W        W96100  29.451  42.517  11.225
29560W        W96101   0.777  41.693   3.248
29561W        W96102  28.916   2.188   2.022
29562W        W96103   9.242  20.043   3.139
29563W        W96104  23.701   0.644   5.062
29564W        W96105  22.260  34.039   1.643
29565W        W96106  33.439  40.437   2.701
29566W        W96107   3.721  42.883  11.978
29567W        W96108  26.787  19.582   1.950
29568W        W96109  19.682  42.529   1.888
29569W        W96110  25.501  11.112  13.034
29570W        W96111  25.731  43.553   0.963
29571W        W96112  44.698   5.914   1.267
29572W        W96113  15.151   1.666   0.327
29573W        W96114   8.209   3.536   1.514
29574W        W96115  20.362  44.436   1.842
29575W        W96116  34.054   0.424   4.055
29576W        W96117   3.397   6.533  12.263
29577W        W96118  25.235  43.388   1.730
29578W        W96119  33.111  41.803  10.402
29579W        W96120  26.589   1.792   1.557
29580W        W96121  22.142  12.258  10.662
29581W        W96122   0.181  27.604   4.172
29582W        W96123   3.954   9.797  12.966
29583W        W96124  34.412  17.102   1.447
29584W        W96125  11.934   1.593   1.850
29585W        W96126  25.992  13.905   2.406
29586W        W96127   4.391   5.947   3.726
29587W        W96128  26.517   0.781  12.925
29588W        W96129  25.110  26.417   0.444
29589W        W96130  33.585  29.031   1.145
29590W        W96131  10.115  19.406   0.044
29591W        W96132  16.079  36.878   1.628
29592W        W96133  11.987  14.196  12.953
29593W        W96134  37.856  19.628  14.793
29594W        W96135  19.047  15.198   3.213
29595W        W96136  10.946   6.425  14.887
29596W        W96137  24.678   6.333   3.421
29597W        W96138  11.701  21.861  11.401
29598W        W96139  33.549   0.613   1.118
29599W        W96140  25.421  20.875   1.785
29600W        W96141  23.951  26.556  11.228
29601W        W96142  27.924  28.864  12.015
29602W        W96143  14.344  31.161   2.605
29603W        W96144  16.095  24.943  13.666
29604W        W96145  17.519  12.882   0.470
29605W        W96146  42.412  17.450  11.388
29606W        W96147   2.728  19.350   0.765
29607W        W96148  23.543  13.741  14.792
29608W        W96149  15.624  37.581  13.068
29609W        W96150  44.482  25.180   4.209
29610W        W96151  19.138   2.760   2.334
29611W        W96152  24.036  38.740   4.472
29612W        W96153  12.220  34.106  13.503
29613W        W96154   0.346  19.739   2.955
29614W        W96155   8.354  29.996  11.689
29615W        W96156  21.034  23.080  12.451
29616W        W96157  10.381  29.104  13.443
29617W        W96158  23.266   9.636  13.381
29618W        W96159   9.379  16.917   4.266
29619W        W96160  14.448  38.314  13.000
29620W        W96161  35.922  21.588  14.971
29621W        W96162  32.988  15.503   2.682
29622W        W96163  24.264  15.404   1.704
29623W        W96164  43.045  42.657  14.224
29624W        W96165  42.810  33.984  13.428
29625W        W96166  35.454  11.604   3.929
29626W        W96167  44.221   2.256  13.366
29627W        W96168  26.137  12.671  13.131
29628W        W96169  29.962  29.372  14.293
29629W        W96170  16.496  23.623  14.652
29630W        W96171   2.706  40.447   4.337
29631W        W96172  36.028  35.607  13.431
29632W        W96173  11.836  35.481   4.643
29633W        W96174  24.655  39.125  13.794
29634W        W96175   7.108   6.712  12.637
29635W        W96176  39.136  16.680  13.449
29636W        W96177  43.824  12.125  13.439
29637W        W96178   5.470   2.251  14.841
29638W        W96179  31.661  16.128   1.705
29639W        W96180  21.741  21.144  13.402
29640W        W96181   1.230  23.136   3.786
29641W        W96182   3.767  20.013   3.118
29642W        W96183  11.690  16.753   1.499
29643W        W96184  16.167  26.671   1.805
29644W        W96185   1.153   4.706  13.969
29645W        W96186  13.412  33.900  14.328
29646W        W96187  20.700  17.807   1.974
29647W        W96188  11.848   5.937   2.783
29648W        W96189   1.482   5.426   1.349
29649W        W96190  29.550  11.614   5.017
29650W        W96191   5.433  42.357   0.445
29651W        W96192  27.130   8.171   3.541
29652W        W96193  29.098   2.539  11.066
29653W        W96194   5.350  29.006  13.396
29654W        W96195  28.020  32.312   1.064
29655W        W96196  16.182  10.956   4.022
29656W        W96197  44.747   3.253  10.040
29657W        W96198   4.999  11.265   3.237
29658W        W96199  25.607   8.057   4.189
29659W        W96200  13.125  36.568   2.157
29660W        W96201  16.391  24.029   2.236
29661W        W96202  19.258   3.786   1.355
29662W        W96203  27.976   9.398   4.141
29663W        W96204   9.708   7.180   1.510
29664W        W96205  20.682  10.321   1.965
29665W        W96206  40.092  43.628   3.101
29666W        W96207  12.537  41.466  10.691
29667W        W96208   5.652   6.650  11.111
29668W        W96209   7.430  41.318   0.437
29669W        W96210  10.730  22.667  12.395
29670W        W96211   3.302   7.442   3.215
29671W        W96212  28.786  14.362  11.594
29672W        W96213  41.888   2.248   2.251
29673W        W96214   7.109  30.881   3.611
29674W        W96215  28.117  12.033   2.839
29675W        W96216   1.291  40.607  13.527
29676W        W96217   9.575  33.432   0.287
29677W        W96218  20.771  12.744   1.503
29678W        W96219   3.222   3.645   4.118
29679W        W96220  37.439  44.420   2.651
29680W        W96221  22.642  28.397   2.890
29681W        W96222  22.789  14.097  10.820
29682W        W96223  18.086  35.371   3.776
29683W        W96224   5.372  11.742   2.438
29684W        W96225  23.179  11.676   2.812
29685W        W96226   4.205  16.711   3.697
29686W        W96227  31.087  11.440   5.032
29687W        W96228  32.124  28.922  11.566
29688W        W96229  16.555   0.915  10.663
29689W        W96230  17.585  40.831   2.050
29690W        W96231  23.874  38.049  12.677
29691W        W96232  34.077  39.943   3.945
29692W        W96233  27.915  42.676  11.854
29693W        W96234   6.473  33.076   1.767
29694W        W96235  17.570  40.212  10.775
29695W        W96236   1.642   8.406  11.906
29696W        W96237  41.437  32.889   3.646
29697W        W96238  40.591   6.649  13.487
29698W        W96239  43.387  21.503  11.504
29699W        W96240  11.676  15.365   4.191
29700W        W96241  24.232  29.441  14.544
29701W        W96242  36.004   4.746  10.799
29702W        W96243   7.105   0.564   2.839
29703W        W96244  41.966  13.373   1.978
29704W        W96245  17.626  40.914   4.290
29705W        W96246  10.353  19.981  13.175
29706W        W96247  11.256  16.998   1.674
29707W        W96248  29.506  20.292  14.950
29708W        W96249  38.772  14.792   0.694
29709W        W96250  12.342  19.654  14.989
29710W        W96251   5.902   0.301   2.216
29711W        W96252  28.270  19.250   2.217
29712W        W96253   5.726  29.477   0.415
29713W        W96254  20.666  29.246  14.801
29714W        W96255  10.849  32.329   2.310
29715W        W96256  40.905  42.933  10.932
29716W        W96257  15.149  40.166   3.247
29717W        W96258  11.314  43.677   4.018
29718W        W96259  30.986  31.592   2.108
29719W        W96260   4.184   2.874   0.794
29720W        W96261   6.299  37.922  13.034
29721W        W96262  30.214   5.296   0.361
29722W        W96263  32.820  25.293  11.819
29723W        W96264  17.766  37.877  12.865
29724W        W96265  20.756  19.647   0.408
29725W        W96266  22.296   9.958   2.914
29726W        W96267  17.548  14.383  13.612
29727W        W96268  33.605  17.731  13.807
29728W        W96269   2.705  35.945   4.880
29729W        W96270  35.598  41.055   3.836
29730W        W96271  36.554  31.915  12.151
29731W        W96272  15.258   0.836  13.099
29732W        W96273  14.016  20.678   2.489
29733W        W96274  12.689  40.285   4.219
29734W        W96275   6.036  34.447  12.009
29735W        W96276  31.573  24.045   4.211
29736W        W96277  36.083  33.305  12.165
29737W        W96278  33.042  10.261  12.518
29738W        W96279  25.223  21.266   5.071
29739W        W96280  11.588  20.288   1.462
29740W        W96281  38.128  24.041   3.154
29741W        W96282  22.096  22.411   3.285
29742W        W96283  10.275  44.815   4.067
29743W        W96284  12.215  31.602  10.921
29744W        W96285  20.887  23.635  11.618
29745W        W96286   2.504   9.550   3.065
29746W        W96287  42.848  36.617  12.543
29747W        W96288  35.491  17.208   1.056
29748W        W96289  32.945  21.001  11.569
29749W        W96290  14.112  20.586  12.293
29750W        W96291  42.026  33.573  12.081
29751W        W96292  39.822   3.404  13.687
29752W        W96293  43.853   9.611  14.979
29753W        W96294  30.642  25.168  13.834
29754W        W96295  31.973  15.925   0.396
29755W        W96296  33.553   6.579  14.868
29756W        W96297   1.840  11.674   1.274
29757W        W96298  37.902  42.592  11.130
29758W        W96299  20.057  27.486  12.183
29759W        W96300  39.627  21.902  11.393
29760W        W96301  13.811  33.866  13.981
29761W        W96302   6.189  22.306   2.389
29762W        W96303   2.243  35.055  13.839
29763W        W96304   8.199  16.501   1.224
29764W        W96305  21.875  21.250   1.139
29765W        W96306  36.340  38.246  12.767
29766W        W96307  38.261  26.540   1.305
29767W        W96308  14.529  33.086   4.570
29768W        W96309  10.947   3.144  13.981
29769W        W96310  22.619  40.096   2.760
29770W        W96311   9.879  14.168   4.523
29771W        W96312   0.866   9.916   3.632
29772W        W96313  35.083  41.284  14.011
29773W        W96314  37.137  24.052   3.198
29774W        W96315  44.792  11.638   2.193
29775W        W96316  38.113  17.042   4.216
29776W        W96317  33.957  13.861   2.350
29777W        W96318  30.030  23.036   3.152
29778W        W96319  28.888  18.227   2.212
29779W        W96320  41.329  37.069   4.588
29780W        W96321  25.037  40.541   0.367
29781W        W96322  26.121  44.248  14.305
29782W        W96323   0.762  23.908  14.122
29783W        W96324   0.162  26.739  11.563
29784W        W96325  24.982  27.306   0.455
29785W        W96326  13.222   1.379   3.419
29786W        W96327  29.029   9.950   4.017
29787W        W96328  15.665  11.655  13.149
29788W        W96329  12.487   3.895   2.213
29789W        W96330  25.727   5.426   0.285
29790W        W96331  11.636  15.784  13.414
29791W        W96332  15.935  31.209   0.575
29792W        W96333  38.469  11.463  11.926
29793W        W96334   3.939   6.464  12.496
29794W        W96335  35.526  13.125   2.350
29795W        W96336  33.356  34.010  12.189
29796W        W96337   5.655  11.774  12.042
29797W        W96338  14.855   9.670   3.131
29798W        W96339  38.252  10.767   3.778
29799W        W96340  16.217  12.204   4.703
29800W        W96341  35.908   3.295   0.913
29801W        W96342  19.633  42.997   1.691
29802W        W96343  16.942  23.561  12.968
29803W        W96344  19.534  23.760   3.738
29804W        W96345  36.648  22.984   0.072
29805W        W96346  39.637  10.294  12.562
29806W        W96347   1.319  30.370   5.429
29807W        W96348  42.234   7.776   0.123
29808W        W96349  17.696  11.870  12.237
29809W        W96350   7.546  20.813   0.967
29810W        W96351  12.658  42.639   2.668
29811W        W96352   9.764   7.991  14.911
29812W        W96353   7.348  33.443  14.675
29813W        W96354  23.456  27.874  14.081
29814W        W96355   8.238   0.560   0.894
29815W        W96356   1.360  11.878   1.396
29816W        W96357   7.847  29.648   3.262
29817W        W96358  24.256  38.371  12.459
29818W        W96359   3.419  44.104  13.641
29819W        W96360  10.877  42.435  10.588
29820W        W96361  21.826  25.463   4.532
29821W        W96362  13.902  39.956   1.794
29822W        W96363  18.715   8.882  12.496
29823W        W96364  11.849  38.914   4.133
29824W        W96365  32.578  11.563  14.055
29825W        W96366  31.366  13.784   3.249
29826W        W96367  29.920  20.890   4.165
29827W        W96368  16.275  15.055   0.781
29828W        W96369   5.952  14.270   0.493
29829W        W96370  22.686   1.035  11.648
29830W        W96371  14.247  42.872   4.036
29831W        W96372  18.234  20.211  14.757
29832W        W96373  20.639  16.587   3.012
29833W        W96374  29.547  33.453   3.136
29834W        W96375  28.930  28.202   3.738
29835W        W96376  14.296  38.442   3.901
29836W        W96377  22.923  12.575  11.053
29837W        W96378  21.590  27.090   4.108
29838W        W96379  33.246  18.208  12.987
29839W        W96380  31.210  21.635  13.966
29840W        W96381  36.470  25.357  11.964
29841W        W96382   9.094  31.161  13.015
29842W        W96383   4.951  21.753   0.839
29843W        W96384  38.961  16.666   3.862
29844W        W96385  26.652  24.931   3.232
29845W        W96386  27.736  30.846   0.787
29846W        W96387   7.969   1.323   3.761
29847W        W96388  15.572  38.844   3.668
29848W        W96389  34.787  34.595   0.413
29849W        W96390  17.772  23.549   0.721
29850W        W96391  24.989  19.970   1.865
29851W        W96392   4.975  25.537   1.398
29852W        W96393   3.607  35.474  11.082
29853W        W96394  32.741  35.425  10.458
29854W        W96395  43.466   0.726   1.444
29855W        W96396  12.412  43.231  14.766
29856W        W96397  32.905  25.972  14.411
29857W        W96398  24.522  38.513  12.923
29858W        W96399  10.467  14.326   3.143
29859W        W96400  38.075  43.696   2.293
29860W        W96401  17.477  10.437  11.909
29861W        W96402  37.542  14.718  12.150
29862W        W96403   8.363  19.810   3.634
29863W        W96404  37.351  15.125  12.584
29864W        W96405  33.945  21.978   2.253
29865W        W96406  34.856   8.061   4.972
29866W        W96407  34.820  18.545  14.922
29867W        W96408  30.446  12.105   3.558
29868W        W96409  20.795   4.984  12.461
29869W        W96410  23.917  44.497  14.093
29870W        W96411   2.517  23.705   2.704
29871W        W96412  21.952  33.706  11.084
29872W        W96413  40.552   7.583  14.395
29873W        W96414  24.862  27.117  11.928
29874W        W96415  22.648  37.428   5.246
29875W        W96416  24.694   7.242   1.423
29876W        W96417  22.363   3.001   4.199
29877W        W96418  31.504   3.145   2.862
29878W        W96419  41.517  10.734  11.104
29879W        W96420  22.719  13.759  14.205
29880W        W96421   4.225  34.817  11.212
29881W        W96422  35.111  20.251   3.385
29882W        W96423  13.060  41.012  13.412
29883W        W96424  22.430   2.222   3.668
29884W        W96425   3.218  37.856  11.099
29885W        W96426  14.798  32.459   0.735
29886W        W96427  26.968  35.624   2.750
29887W        W96428  28.131   6.932   2.249
29888W        W96429   3.376   7.314  14.654
29889W        W96430   8.108  31.078  11.158
29890W        W96431  33.594  40.120   4.110
29891W        W96432  38.517  41.559  13.602
29892W        W96433  10.924   5.127  12.964
29893W        W96434  30.960  31.040   4.057
29894W        W96435  31.265  37.981  14.460
29895W        W96436   9.722  31.153   2.437
29896W        W96437  20.510  15.713   3.035
29897W        W96438  33.444  41.233   0.715
29898W        W96439   3.558   4.189  11.135
29899W        W96440  38.390   3.815   1.821
29900W        W96441  25.274  43.550  11.103
29901W        W96442  40.754  36.367  10.566
29902W        W96443  27.476  33.633  11.000
29903W        W96444  27.506  39.323  13.371
29904W        W96445  39.469  31.923  14.921
29905W        W96446   5.215  27.407  11.145
29906W        W96447  13.859   9.991  14.304
29907W        W96448  35.588   9.848   0.693
29908W        W96449  29.624   0.342  10.669
29909W        W96450   5.158  30.720   3.777
29910W        W96451  32.160   5.446  13.490
29911W        W96452  37.097   7.832   4.849
29912W        W96453  18.779  13.399   3.037
29913W        W96454  42.187   3.908   0.983
29914W        W96455  40.008  36.955   3.785
29915W        W96456  17.110  33.514  12.575
29916W        W96457  30.669  28.527  14.758
29917W        W96458  17.617  10.656  11.469
29918W        W96459  14.580  22.698  13.469
29919W        W96460  11.189  31.094   3.665
29920W        W96461  35.312  18.151   2.861
29921W        W96462   8.078  40.365  14.518
29922W        W96463  13.668  42.020  13.424
29923W        W96464  33.548  36.856  10.522
29924W        W96465  31.453  17.783   1.807
29925W        W96466  24.488  20.488  12.103
29926W        W96467  34.008  13.806   0.776
29927W        W96468  13.319   4.632   2.827
29928W        W96469  32.861  36.995   4.035
29929W        W96470  21.070  26.204  13.088
29930W        W96471  13.506  13.622   4.194
29931W        W96472  20.485   8.060  10.463
29932W        W96473  20.767  26.981   0.364
29933W        W96474  18.546  15.781   3.325
29934W        W96475  25.051  32.710   3.741
29935W        W96476  22.917  36.872   1.061
29936W        W96477  34.437  21.649  14.418
29937W        W96478  42.463  30.897   2.680
29938W        W96479  14.175  38.386  11.257
29939W        W96480  16.329  36.790  12.159
29940W        W96481  26.399  36.666  10.991
29941W        W96482  17.626  18.598  10.451
29942W        W96483  42.371  26.949  11.134
29943W        W96484  32.426  27.404  11.598
29944W        W96485  27.198  40.729  10.649
29945W        W96486   2.354  42.954   2.303
29946W        W96487  23.238   0.505   4.456
29947W        W96488  18.613  44.457   3.852
29948W        W96489   0.475   1.814   3.690
29949W        W96490  42.183   2.498  13.388
29950W        W96491   6.064  20.622  11.948
29951W        W96492  17.592  38.020  11.012
29952W        W96493  33.922  35.519   1.872
29953W        W96494  22.622  42.756   4.476
29954W        W96495  27.228   5.911  11.127
29955W        W96496  18.596  19.003  12.311
29956W        W96497  39.039   0.918  12.426
29957W        W96498  31.015  11.315  11.053
29958W        W96499  30.703  30.562  12.442
29959W        W96500   3.490  39.353  11.921
29960W        W96501  43.902   1.386   4.174
29961W        W96502  40.612   0.027  10.650
29962W        W96503   0.832  42.506   1.549
29963W        W96504  19.122  38.938  11.994
29964W        W96505   7.496  23.770   4.174
29965W        W96506  41.955   3.054   2.681
29966W        W96507   1.802  37.848  12.143
29967W        W96508  29.176  11.193   0.428
29968W        W96509  28.332   7.264  13.499
29969W        W96510   5.207  22.201  10.678
29970W        W96511   0.902  10.501   3.638
29971W        W96512   6.232   5.344   4.669
29972W        W96513  26.762  23.569   0.507
29973W        W96514  30.301  14.352  11.588
29974W        W96515   0.392  41.894   4.437
29975W        W96516  44.514  30.413   4.030
29976W        W96517  42.626  10.331   4.892
29977W        W96518   1.838  30.860   4.439
29978W        W96519  38.624  41.189   4.618
29979W        W96520  27.978  10.756  14.261
29980W        W96521  21.803  40.169   4.880
29981W        W96522  15.790  39.102  11.753
29982W        W96523  40.320   7.698   2.274
29983W        W96524   1.698  39.953   4.594
29984W        W96525  32.583   3.233  13.414
29985W        W96526  20.983  13.366  10.354
29986W        W96527  35.267  44.136   1.312
29987W        W96528  19.683   2.705  13.015
29988W        W96529  16.708  18.192   0.477
29989W        W96530  17.247  23.985   1.977
29990W        W96531  18.330   3.369  13.039
29991W        W96532  34.069  23.406  14.377
29992W        W96533   4.326  35.983  11.146
29993W        W96534  18.987   2.836  14.517
29994W        W96535   3.718  25.037  13.434
29995W        W96536  36.135  43.005   3.454
29996W        W96537  37.132  44.381   3.420
29997W        W96538   3.858   0.814   4.166
29998W        W96539  25.909  14.912   3.181
29999W        W96540  22.046  24.025   1.769
30000W        W96541  22.758  30.284   3.223
30001W        W96542   2.440  23.158   2.611
30002W        W96543  13.396  13.767   2.429
30003W        W96544  10.238   8.786   2.815
30004W        W96545  13.995  22.082  13.764
30005W        W96546   0.200  19.056  10.716
30006W        W96547  38.181  20.406   4.977
30007W        W96548  10.603  38.124   3.171
30008W        W96549  17.216  22.096   4.580
30009W        W96550   5.078  44.337  10.214
30010W        W96551  28.448  37.483  13.462
30011W        W96552   5.176  24.231  14.022
30012W        W96553  15.189   2.889   2.165
30013W        W96554  37.883  17.711   3.392
30014W        W96555  24.960  26.764  12.295
30015W        W96556  19.655  10.854  14.144
30016W        W96557  40.444  24.208  14.998
30017W        W96558  32.491  31.402   4.565
30018W        W96559  34.393  32.424  11.484
30019W        W96560  25.514  39.018   1.557
30020W        W96561  23.105   3.477   5.429
30021W        W96562   1.976   3.384   4.833
30022W        W96563   3.649  27.154   2.718
30023W        W96564  31.137  22.230   2.808
30024W        W96565  30.155  41.504   0.201
30025W        W96566   3.600  33.566  14.983
30026W        W96567  21.411  20.210  11.268
30027W        W96568  28.493  33.641   0.405
30028W        W96569  38.836   4.662  10.776
30029W        W96570   0.944  26.005  14.398
30030W        W96571  40.419  30.714  14.562
30031W        W96572  29.455  44.429   4.955
30032W        W96573  32.069  24.191   4.150
30033W        W96574  34.988  12.864   0.163
30034W        W96575  43.837  37.555   2.951
30035W        W96576  25.613  39.741  11.218
30036W        W96577  31.473  18.327  14.647
30037W        W96578  16.620  43.746  14.779
30038W        W96579  15.083  13.323  14.308
30039W        W96580  38.535  29.486   3.703
30040W        W96581   2.397   9.151   2.226
30041W        W96582  28.710  17.138   0.555
30042W        W96583   1.305   6.149  12.379
30043W        W96584  10.332  16.734   3.160
30044W        W96585  32.931  36.761   2.317
30045W        W96586   2.924   6.318  13.334
30046W        W96587  44.093  28.258   0.978
30047W        W96588   4.925   7.916  13.904
30048W        W96589   0.277  41.928  13.924
30049W        W96590  25.404  20.644   0.868
30050W        W96591  33.469  22.756   2.331
30051W        W96592  28.734  41.087  12.859
30052W        W96593   8.935  10.866  12.577
30053W        W96594  21.973  19.223   3.343
30054W        W96595  44.991  38.488  12.560
30055W        W96596  40.552  33.023   0.351
30056W        W96597  19.151  12.607  14.826
30057W        W96598  42.009   5.323  14.246
30058W        W96599  37.291  30.142  11.618
30059W        W96600  12.044  20.038   4.095
30060W        W96601  37.868  30.025   1.937
30061W        W96602   3.500   1.832  11.919
30062W        W96603  23.117  19.538  11.699
30063W        W96604  38.073  28.202   4.189
30064W        W96605   6.260  30.259   2.654
30065W        W96606  43.440  17.025  14.381
30066W        W96607  43.421   7.423   2.470
30067W        W96608  20.768  37.148   1.840
30068W        W96609  31.838  41.344   4.484
30069W        W96610  28.639  44.473   0.258
30070W        W96611  40.504   9.852  14.780
30071W        W96612  21.076  29.480  14.019
30072W        W96613  19.858  13.022  12.143
30073W        W96614  32.982  33.730  10.046
30074W        W96615  23.492   4.374  12.531
30075W        W96616  15.679  42.038   0.303
30076W        W96617   2.947   2.547  13.947
30077W        W96618  26.062   5.820   0.420
30078W        W96619  30.412  23.675   2.839
30079W        W96620  29.675  16.054  13.887
30080W        W96621  42.103   0.867  13.041
30081W        W96622  43.558  21.265  11.067
30082W        W96623   1.291  26.959   0.796
30083W        W96624   1.436  17.461  12.050
30084W        W96625  36.399  40.580   3.063
30085W        W96626  12.168  13.403  12.028
30086W        W96627   3.753   8.947   4.073
30087W        W96628   6.872   5.556  11.897
30088W        W96629  18.989  36.636  13.047
30089W        W96630  23.526  34.606  13.821
30090W        W96631  22.118  36.455  10.720
30091W        W96632  20.743   7.879  11.479
30092W        W96633  14.394  30.841   1.622
30093W        W96634  25.182  44.953  10.636
30094W        W96635  19.501   7.226   2.742
30095W        W96636  38.219  14.736  14.833
30096W        W96637  21.095  43.543  12.515
30097W        W96638  12.885  25.182   1.261
30098W        W96639  20.718  22.552   3.242
30099W        W96640  35.323  17.016  12.189
30100W        W96641  28.409  15.614  12.893
30101W        W96642   8.519  25.181  12.353
30102W        W96643   3.906  12.047  12.989
30103W        W96644  27.113  26.268  14.652
30104W        W96645  23.973  38.316   4.770
30105W        W96646   3.761  18.015  12.585
30106W        W96647  41.514  38.814  13.536
30107W        W96648  25.345  38.044   0.926
30108W        W96649  33.869  19.684  13.932
30109W        W96650   4.671  11.375   0.939
30110W        W96651  20.915   9.312   1.632
30111W        W96652  23.984  24.728   0.740
30112W        W96653  10.125  14.245   3.517
30113W        W96654  28.441   8.404   0.006
30114W        W96655  20.779  41.084   0.272
30115W        W96656  44.513   0.264   1.825
30116W        W96657  41.461   0.366  14.502
30117W        W96658   9.913   0.332   3.319
30118W        W96659  20.227  14.425  12.825
30119W        W96660   6.422  31.191  13.357
30120W        W96661  43.486  31.585  13.385
30121W        W96662  18.253  43.933  14.238
30122W        W96663  44.102   4.870  13.967
30123W        W96664  21.874  22.828   0.606
30124W        W96665  44.055  27.008  13.494
30125W        W96666  42.399  31.055  12.230
30126W        W96667   5.923  38.419  11.061
30127W        W96668  25.974   3.888  11.632
30128W        W96669  14.377   0.488  14.648
30129W        W96670  23.678  35.637  12.027
30130W        W96671  10.176   4.599  12.053
30131W        W96672  20.287   0.384   2.700
30132W        W96673  15.298  36.551   4.236
30133W        W96674  41.272   9.871  11.595
30134W        W96675   6.443  32.296  11.501
30135W        W96676  36.801   9.401  13.539
30136W        W96677  23.266  11.185   2.764
30137W        W96678   1.971  24.463  12.885
30138W        W96679  33.501  19.267   0.250
30139W        W96680  41.846  31.685   3.090
30140W        W96681   9.968  38.549   1.505
30141W        W96682  32.664   4.611   2.712
30142W        W96683  43.727  27.264  14.020
30143W        W96684  12.873  44.455   3.196
30144W        W96685   9.369  25.413  12.975
30145W        W96686  33.281  22.718   4.162
30146W        W96687  28.483  33.412   2.053
30147W        W96688  34.019  26.573  11.154
30148W        W96689  30.462   0.370   3.383
30149W        W96690  19.854  23.694   4.168
30150W        W96691  37.622   9.747   3.147
30151W        W96692  23.533  13.084  11.343
30152W        W96693  31.940  31.517   3.241
30153W        W96694  25.289   9.123   1.325
30154W        W96695  11.318   5.930  14.413
30155W        W96696  10.941  18.591  13.058
30156W        W96697  34.645  26.421   0.953
30157W        W96698  15.527   3.424   2.579
30158W        W96699  38.345  16.998  11.615
30159W        W96700  31.930  36.030  14.969
30160W        W96701  25.406   6.926   0.108
30161W        W96702  38.760  32.233   2.760
30162W        W96703  32.882  16.219   4.500
30163W        W96704  33.128  33.212   1.842
30164W        W96705  31.434  26.080   2.836
30165W        W96706  11.623  30.493  11.596
30166W        W96707  32.444  33.503  10.756
30167W        W96708  22.072  12.208  13.467
30168W        W96709  27.057  13.135  14.030
30169W        W96710   5.413  35.197  13.864
30170W        W96711  24.976  19.769   1.321
30171W        W96712   8.409   8.665   1.339
30172W        W96713  23.081  42.329  14.389
30173W        W96714  24.017   9.907   4.110
30174W        W96715  19.578  27.937  11.624
30175W        W96716  42.273  11.202   3.307
30176W        W96717  31.425  38.186  14.940
30177W        W96718   1.340  12.276  12.172
30178W        W96719  21.044  14.045   0.959
30179W        W96720  12.715   1.097  14.442
30180W        W96721  36.878  18.965  12.504
30181W        W96722  15.270   9.329   0.243
30182W        W96723  39.439  35.191  11.528
30183W        W96724  15.349  43.001   2.694
30184W        W96725  23.125  29.906   2.366
30185W        W96726  33.038  30.866   3.340
30186W        W96727  14.028  22.210  10.851
30187W        W96728  25.786  13.837   1.798
30188W        W96729  30.168  23.650  10.772
30189W        W96730  20.090  32.594   3.776
30190W        W96731   4.973  44.543   0.303
30191W        W96732   7.344   0.588  13.872
30192W        W96733  18.088  14.326  12.958
30193W        W96734  11.986  32.658  12.532
30194W        W96735  21.194   2.855  10.765
30195W        W96736  16.384  12.744  11.074
30196W        W96737  42.943  18.139   4.161
30197W        W96738   9.903   5.870  14.537
30198W        W96739  34.317  16.898   4.222
30199W        W96740  16.806  43.867   2.560
30200W        W96741  33.072   1.684   5.491
30201W        W96742  12.207  24.163  13.293
30202W        W96743  41.863  44.347  13.050
30203W        W96744   4.296  24.456   2.402
30204W        W96745  16.510   4.827  11.514
30205W        W96746  12.749  36.541  12.201
30206W        W96747  33.067  28.669  13.387
30207W        W96748  18.135  27.425  13.847
30208W        W96749  11.798  21.313   0.766
30209W        W96750  17.329  38.051  11.451
30210W        W96751  39.605   7.134  14.959
30211W        W96752  17.807   4.473   4.101
30212W        W96753   4.495  38.751  14.048
30213W        W96754  37.863  28.113  13.058
30214W        W96755   0.789  10.246  12.143
30215W        W96756  24.965  13.831   1.370
30216W        W96757   1.012   6.405   2.787
30217W        W96758  42.026  38.025   1.775
30218W        W96759  34.235  44.433  13.814
30219W        W96760  42.041   9.338  11.643
30220W        W96761   3.816  22.988   2.698
30221W        W96762  39.390   1.361  12.500
30222W        W96763  41.251   5.287  12.122
30223W        W96764  15.150  42.376  11.045
30224W        W96765   9.890   2.399  12.379
30225W        W96766   0.804  22.044   1.474
30226W        W96767   2.711   8.153  12.916
30227W        W96768  16.406  41.014  14.842
30228W        W96769   9.212  41.328   2.956
30229W        W96770  35.499  16.409  14.870
30230W        W96771  11.105  17.599  11.422
30231W        W96772  12.105  22.421  14.052
30232W        W96773  25.684   3.787  11.217
30233W        W96774  42.513  33.483  12.196
30234W        W96775  37.390  13.137   3.335
30235W        W96776  29.002  33.633  13.748
30236W        W96777  14.306  24.625   4.203
30237W        W96778  14.196  26.717   2.574
30238W        W96779  33.804  11.323   0.284
30239W        W96780  29.468  41.437   3.537
30240W        W96781  34.720  25.544   1.859
30241W        W96782  13.143  23.113  12.614
30242W        W96783  14.208  38.535  14.330
30243W        W96784  34.397  35.820   0.869
30244W        W96785   9.868  44.252  13.912
30245W        W96786  34.928   3.830   1.255
30246W        W96787  22.971  19.303  13.379
30247W        W96788   6.377  40.051  14.990
30248W        W96789  31.160  27.392  11.416
30249W        W96790  18.743  33.509  14.393
30250W        W96791  19.359  37.998  12.941
30251W        W96792   9.145  38.051   3.997
30252W        W96793  25.499  37.803   0.427
30253W        W96794  13.692  32.517   1.857
30254W        W96795   5.123   6.121  12.339
30255W        W96796  21.208  11.053   0.874
30256W        W96797  14.668  22.452   5.070
30257W        W96798  33.011  29.698  14.280
30258W        W96799  44.219   0.161  12.404
30259W        W96800   5.395  30.360  11.234
30260W        W96801  19.921  42.845   0.175
30261W        W96802  37.083  24.655  14.941
30262W        W96803   8.892   8.048   4.136
30263W        W96804   6.446  26.015  11.566
30264W        W96805  14.854  36.074   2.383
30265W        W96806  28.521  24.488   2.921
30266W        W96807   4.821  40.001   1.816
30267W        W96808  13.791  12.204   4.793
30268W        W96809   7.154  42.626   0.853
30269W        W96810  11.786  15.464   0.758
30270W        W96811  31.898  11.402  14.426
30271W        W96812   5.871  22.206   2.785
30272W        W96813  34.063  12.307  14.988
30273W        W96814   0.859  40.815  14.630
30274W        W96815  31.427   3.977  11.577
30275W        W96816  30.915  37.395  10.806
30276W        W96817   8.902  28.987  13.334
30277W        W96818  43.899  40.497  12.130
30278W        W96819  38.347  34.113  13.325
30279W        W96820  43.979  36.611   4.279
30280W        W96821  18.745  27.684  11.253
30281W        W96822   9.740  12.594   3.325
30282W        W96823  25.364  23.689   0.233
30283W        W96824   6.995  16.460  11.950
30284W        W96825  30.012  40.606  10.566
30285W        W96826   9.570   6.757  12.030
30286W        W96827   2.841  29.408   2.923
30287W        W96828  18.688   9.634   2.419
30288W        W96829  30.903  41.826   4.095
30289W        W96830  22.575  42.251   0.276
30290W        W96831  32.628   2.938  12.973
30291W        W96832  35.915   5.902  14.689
30292W        W96833  41.196   7.152  11.197
30293W        W96834  35.956  10.431  11.175
30294W        W96835   7.713  33.098   4.826
30295W        W96836  29.430  34.061  10.770
30296W        W96837   3.345   4.726  11.019
30297W        W96838  18.261  41.928  10.601
30298W        W96839   8.880  14.674  13.853
30299W        W96840  21.305  24.180  12.133
30300W        W96841  41.812  12.175   3.943
30301W        W96842  26.123  42.329   3.290
30302W        W96843  14.192  23.523  11.163
30303W        W96844  29.490   2.851   2.361
30304W        W96845  44.219  17.472  11.580
30305W        W96846   1.484  25.997   4.539
30306W        W96847  26.447  34.014  13.234
30307W        W96848  18.618  19.771   1.903
30308W        W96849   3.938  21.166  11.958
30309W        W96850   2.811  15.009  10.727
30310W        W96851  40.927  24.316   1.914
30311W        W96852  12.416  28.271  13.591
30312W        W96853   1.965  43.817   3.752
30313W        W96854   3.300  16.389   3.261
30314W        W96855  23.125   2.343   2.273
30315W        W96856  36.601  17.914   2.491
30316W        W96857   6.166  38.480  10.613
30317W        W96858   9.531  39.419   0.508
30318W        W96859  19.921  42.135  12.177
30319W        W96860  25.070  37.278   0.766
30320W        W96861  32.147  16.198  12.915
30321W        W96862  40.166  27.428  13.799
30322W        W96863   8.933   5.212  12.010
30323W        W96864   4.853  22.453  10.940
30324W        W96865   2.807  19.620   1.684
30325W        W96866  44.506  32.041   1.390
30326W        W96867  13.273  24.837   2.189
30327W        W96868  21.203  27.286   3.108
30328W        W96869   1.230   8.758   0.026
30329W        W96870  42.502  17.824   4.938
30330W        W96871  15.660  40.851  10.717
30331W        W96872  43.032  11.476   3.613
30332W        W96873  12.061  10.498   1.166
30333W        W96874  23.977   3.514   0.741
30334W        W96875   7.722  37.362   3.243
30335W        W96876  21.980  38.647  13.566
30336W        W96877   8.734  37.089  12.449
30337W        W96878  23.885  31.283  12.651
30338W        W96879   1.668  14.508  12.138
30339W        W96880  26.676  20.255   0.680
30340W        W96881  14.173  29.594  14.305
30341W        W96882  15.427  44.699   5.102
30342W        W96883  43.193   5.275   1.898
30343W        W96884  29.171  11.242  14.375
30344W        W96885  33.864   3.778   4.087
30345W        W96886   2.300  11.897  11.535
30346W        W96887  35.160  29.551   0.327
30347W        W96888  11.020  26.914  12.780
30348W        W96889  39.999  20.159   0.484
30349W        W96890  20.660  11.699   3.860
30350W        W96891  24.231  43.593   3.933
30351W        W96892  17.473  21.192   1.261
30352W        W96893  23.731   3.966  12.027
30353W        W96894  22.552  14.355  10.416
30354W        W96895   6.176  10.728   2.632
30355W        W96896  19.103  19.716   1.703
30356W        W96897   9.448  20.083   4.655
30357W        W96898  20.592   4.863   2.512
30358W        W96899  13.290  26.596   4.648
30359W        W96900  32.651  36.074   1.212
30360W        W96901  20.027   2.104   4.903
30361W        W96902  21.598   1.429  13.514
30362W        W96903  32.500   6.683   0.822
30363W        W96904   4.927  21.183  10.670
30364W        W96905  30.452  30.563   1.552
30365W        W96906  29.845  18.782  12.001
30366W        W96907   5.748  33.651   4.975
30367W        W96908  21.206  10.897  13.521
30368W        W96909  35.547  26.438   4.254
30369W        W96910  30.515  16.147   0.858
30370W        W96911  19.571   8.361   2.854
30371W        W96912  14.092   9.081   4.583
30372W        W96913  29.551  31.625  13.386
30373W        W96914  42.354  42.250   3.616
30374W        W96915  40.907  25.573   1.396
30375W        W96916  41.096  27.445   1.333
30376W        W96917  13.844  23.292  14.292
30377W        W96918   1.085  18.084  11.207
30378W        W96919  43.831  25.965  13.491
30379W        W96920  41.274  41.725  11.092
30380W        W96921  20.286  22.635   2.928
30381W        W96922  22.533  17.252   0.903
30382W        W96923  33.426  23.667   1.390
30383W        W96924   0.784   2.438  12.423
30384W        W96925  40.880  42.965   3.682
30385W        W96926  36.508  43.867  13.706
30386W        W96927  20.058   5.640  10.660
30387W        W96928  14.549  23.646  12.519
30388W        W96929  30.239  37.470  11.479
30389W        W96930  42.703  12.704   1.991
30390W        W96931   5.347   1.782  11.397
30391W        W96932  40.826   1.258  13.146
30392W        W96933  24.116  15.901   5.233
30393W        W96934  23.958  23.230   0.043
30394W        W96935  28.070  29.152  14.528
30395W        W96936  24.603  31.608   5.059
30396W        W96937  24.906  39.264  14.849
30397W        W96938  38.547  28.593   4.632
30398W        W96939  17.368  29.056  14.452
30399W        W96940   1.316  21.036   3.079
30400W        W96941  44.966  17.994   2.220
30401W        W96942  15.527   6.765  14.438
30402W        W96943  19.355  43.474  12.016
30403W        W96944  42.567  14.709   4.205
30404W        W96945  29.244   8.773  11.764
30405W        W96946  15.650  11.065   3.191
30406W        W96947  44.927  41.277  13.303
30407W        W96948   1.270   3.731  11.371
30408W        W96949  14.103  15.258  11.335
30409W        W96950  23.218  32.877  12.998
30410W        W96951  26.674   1.409  14.059
30411W        W96952  43.709  33.896  14.840
30412W        W96953  28.986  21.095  13.996
30413W        W96954  17.161   3.043   2.938
30414W        W96955   1.439  10.816   1.211
30415W        W96956  38.463  42.664   3.652
30416W        W96957  38.880   9.876  12.619
30417W        W96958  36.074  43.964   4.487
30418W        W96959   2.523  25.392   5.139
30419W        W96960  19.306  21.212  14.503
30420W        W96961   0.362  23.052  13.722
30421W        W96962  26.740  16.537  14.528
30422W        W96963  29.423  17.220  10.611
30423W        W96964   0.128  36.650   4.776
30424W        W96965  18.320  39.934  14.519
30425W        W96966  19.453  20.197   0.303
30426W        W96967  25.073  23.196   4.011
30427W        W96968  20.217  29.735   4.598
30428W        W96969  41.972  23.922  11.305
30429W        W96970  40.443  33.358  13.528
30430W        W96971  30.343  40.661  14.828
30431W        W96972   3.654  37.355  12.459
30432W        W96973  24.180  17.809   4.009
30433W        W96974  33.400   3.691   0.008
30434W        W96975  13.273  39.147   1.443
30435W        W96976  27.997  15.749   0.404
30436W        W96977  37.397  13.944  10.057
30437W        W96978  18.719  19.187   2.588
30438W        W96979  27.270   9.988  10.155
30439W        W96980  21.361  33.997   3.312
30440W        W96981  10.666  36.337  11.479
30441W        W96982  25.896  20.021  13.504
30442W        W96983   7.058  32.363  12.969
30443W        W96984  33.549  13.550   0.779
30444W        W96985   1.366   7.852   0.261
30445W        W96986  17.501  36.789  14.348
30446W        W96987   7.314   4.258   4.713
30447W        W96988   2.831  14.247  13.502
30448W        W96989   2.266  43.765  11.803
30449W        W96990  17.943  36.389  13.139
30450W        W96991   1.216   4.808   2.347
30451W        W96992  23.646  20.007   3.781
30452W        W96993  37.852   7.411  10.430
30453W        W96994  39.149  15.156   1.223
30454W        W96995   0.823  41.441   0.431
30455W        W96996  16.339  10.397   3.931
30456W        W96997  39.973  28.520  13.563
30457W        W96998  41.890  21.421   3.077
30458W        W96999  21.123  12.826   4.474
30459W        W97000  22.200   1.751  12.419
30460W        W97001  33.704   1.712   1.110
30461W        W97002  31.887  30.574  12.779
30462W        W97003   7.290  28.505  10.712
30463W        W97004  14.279  10.186   2.621
30464W        W97005   8.136  20.852  13.690
30465W        W97006   0.669  18.103  13.965
30466W        W97007  23.286   0.324   4.958
30467W        W97008  12.783  44.256   1.160
30468W        W97009  11.522   5.289   1.405
30469W        W97010  39.870   5.972  13.551
30470W        W97011  40.171  26.113  12.565
30471W        W97012  29.386  21.647  12.195
30472W        W97013  15.451   0.835   4.796
30473W        W97014  12.047  23.130   4.518
30474W        W97015  30.174  32.303  13.299
30475W        W97016  31.388  17.033   0.935
30476W        W97017   1.342  30.001   9.880
30477W        W97018   5.158  21.298   0.361
30478W        W97019  31.469  27.629  13.895
30479W        W97020  41.860  11.119   4.357
30480W        W97021  30.382  36.758  14.310
30481W        W97022  27.426  14.627   0.972
30482W        W97023  12.328  23.726  15.000
30483W        W97024  39.464   4.668   4.071
30484W        W97025  15.772  19.661   4.615
30485W        W97026  39.578  40.898   3.236
30486W        W97027  20.524  42.768  13.550
30487W        W97028  36.117  38.818  14.967
30488W        W97029  36.398  13.381   0.462
30489W        W97030  20.721  29.243   0.625
30490W        W97031  12.285   1.012  12.670
30491W        W97032  14.089  11.909   3.849
30492W        W97033  13.693   5.301  14.927
30493W        W97034  11.378  20.474  14.470
30494W        W97035  13.398  31.042   1.810
30495W        W97036  28.126  12.321  14.840
30496W        W97037  24.439  43.747  13.292
30497W        W97038   0.043  38.990  12.336
30498W        W97039  38.911  22.765  12.510
30499W        W97040  21.584  24.588  12.480
30500W        W97041  44.903  34.803  10.585
30501W        W97042   5.768  17.961   0.854
30502W        W97043  12.846   6.371  10.747
30503W        W97044   0.510  44.952   0.527
30504W        W97045   6.229  14.295   3.133
30505W        W97046   8.728   7.917  11.093
30506W        W97047  10.357  44.270   2.798
30507W        W97048   4.827   6.912  13.518
30508W        W97049   4.860   8.194   3.655
30509W        W97050   2.596  21.782   1.271
30510W        W97051  34.375  43.241   0.879
30511W        W97052  42.831   6.845  11.576
30512W        W97053   6.405  28.122   4.532
30513W        W97054  11.899  24.999   3.618
30514W        W97055  14.943   4.968  14.477
30515W        W97056   5.810  25.859  13.104
30516W        W97057  42.852   8.798  11.574
30517W        W97058  20.380  37.262  14.496
30518W        W97059  23.107  16.120  12.255
30519W        W97060  19.102  41.939  10.428
30520W        W97061  36.030  24.985   0.501
30521W        W97062  18.834  38.528   2.175
30522W        W97063  28.931   3.978   1.803
30523W        W97064  23.401  32.905  13.968
30524W        W97065  43.797  40.655   4.465
30525W        W97066  28.872  28.711   0.355
30526W        W97067  15.832  34.093   3.230
30527W        W97068  19.547   5.730   2.611
30528W        W97069  37.294  38.554  14.164
30529W        W97070  43.599   1.703   1.262
30530W        W97071  44.264   4.819   3.828
30531W        W97072  10.913  33.022   2.908
30532W        W97073  24.584  12.242   0.885
30533W        W97074  12.187  35.177   2.229
30534W        W97075  19.940  30.605  13.111
30535W        W97076  15.802  27.156   2.675
30536W        W97077  42.844  17.209   4.147
30537W        W97078  41.044  13.785   2.369
30538W        W97079  32.892  34.532   3.131
30539W        W97080   9.647   4.444  12.481
30540W        W97081  22.429  11.834  13.468
30541W        W97082  15.145   4.822   4.315
30542W        W97083  42.095  25.638   3.692
30543W        W97084   1.607  17.301   0.696
30544W        W97085  30.002   7.687  11.567
30545W        W97086   1.867   6.685  10.773
30546W        W97087   0.495  26.209   1.217
30547W        W97088  11.202   0.718  11.479
30548W        W97089  16.208  23.116   0.526
30549W        W97090  25.613  26.293   3.660
30550W        W97091  11.911  28.262  13.462
30551W        W97092  15.350  30.572   3.575
30552W        W97093  38.128  25.322  14.220
30553W        W97094  22.246  42.301  13.492
30554W        W97095  18.802  12.332   0.481
30555W        W97096   6.611  23.623  14.399
30556W        W97097  27.702  17.082   0.366
30557W        W97098  43.481  21.551   0.748
30558W        W97099  13.367  18.706  10.631
30559W        W97100  31.457  43.410   2.654
30560W        W97101  33.902  15.570  12.761
30561W        W97102   0.458   1.597   0.229
30562W        W97103  44.550   0.468   4.529
30563W        W97104  37.342  12.888   2.774
30564W        W97105   5.231  10.768   2.176
30565W        W97106  25.942  31.912   2.694
30566W        W97107  14.814   0.594   3.401
30567W        W97108  14.586  26.695  12.501
30568W        W97109  28.929   9.478   4.130
30569W        W97110   7.790  30.868   2.221
30570W        W97111  29.993  21.969  11.592
30571W        W97112  39.894  15.583  13.815
30572W        W97113  23.253   1.512   1.275
30573W        W97114  24.149  20.607   1.896
30574W        W97115   8.634  23.019   0.767
30575W        W97116  40.729  44.924  12.432
30576W        W97117  20.709  34.274   1.290
30577W        W97118  15.608  33.174   4.756
30578W        W97119   5.528  25.694  14.024
30579W        W97120  34.106  20.495   1.783
30580W        W97121  23.738  41.793  13.981
30581W        W97122   3.263  26.011   3.140
30582W        W97123  28.591  38.706   1.717
30583W        W97124  34.699  36.611  12.027
30584W        W97125   3.227  44.819   2.655
30585W        W97126  17.794  42.377   4.114
30586W        W97127   2.623  18.024  13.073
30587W        W97128  29.519  23.683   1.409
30588W        W97129   2.751  18.578  14.884
30589W        W97130   2.995  15.764  12.420
30590W        W97131  38.023  18.848   2.408
30591W        W97132  41.495  21.736   2.843
30592W        W97133   7.928  33.616   2.746
30593W        W97134  34.406  28.241   3.710
30594W        W97135  12.590  30.914   4.680
30595W        W97136  13.272   9.142   1.672
30596W        W97137  29.573  10.186   5.079
30597W        W97138   0.311   4.472   4.213
30598W        W97139  40.392   3.538   3.274
30599W        W97140  32.698  21.224  14.738
30600W        W97141  43.862   9.324   0.455
30601W        W97142  14.338  21.129  12.984
30602W        W97143  13.653  11.754   2.326
30603W        W97144  26.933  38.277  12.911
30604W        W97145  15.193  25.824   4.564
30605W        W97146   3.729  25.151   0.223
30606W        W97147  11.333  33.879  12.027
30607W        W97148  31.129  21.721   2.618
30608W        W97149  40.123  37.183  13.948
30609W        W97150  44.465   6.657   4.093
30610W        W97151   4.761  18.779   1.366
30611W        W97152   6.627  27.871   0.501
30612W        W97153  29.084  43.981  10.859
30613W        W97154  25.180  29.931   1.381
30614W        W97155  20.920  30.712  11.016
30615W        W97156  21.004  10.383   3.338
30616W        W97157   0.969   5.213  13.875
30617W        W97158   8.039  26.396  14.893
30618W        W97159  27.242  10.358  12.809
30619W        W97160  21.208   6.603   2.571
30620W        W97161  28.634  39.913   2.645
30621W        W97162   2.010  11.228   3.281
30622W        W97163  13.944  22.982  12.888
30623W        W97164  25.926  22.108  10.890
30624W        W97165   7.598  12.520   0.507
30625W        W97166  12.079   2.257  14.979
30626W        W97167  35.145   4.988   0.296
30627W        W97168  30.880  40.905   0.582
30628W        W97169  38.458  14.038   1.387
30629W        W97170  40.964  12.562  14.036
30630W        W97171   9.098  13.229   1.130
30631W        W97172   3.797   4.068  10.692
30632W        W97173   6.750  28.132  14.412
30633W        W97174  31.415   6.324  10.555
30634W        W97175  40.854  20.624  13.999
30635W        W97176  43.089  31.620  14.395
30636W        W97177   2.513  35.456   1.438
30637W        W97178  33.226  19.768  10.856
30638W        W97179  22.658   1.295  14.263
30639W        W97180  20.259  28.807   1.830
30640W        W97181  13.144  14.366  14.371
30641W        W97182  32.928   2.878   0.740
30642W        W97183   7.196  27.995  11.895
30643W        W97184  11.350  24.853  12.506
30644W        W97185  24.933  35.751  10.044
30645W        W97186  32.143  30.311  14.281
30646W        W97187  12.213  37.937  10.675
30647W        W97188   1.422  17.542   2.853
30648W        W97189  33.498  43.531  11.575
30649W        W97190  38.586  33.864   1.188
30650W        W97191   9.453  42.270   4.390
30651W        W97192  38.687  36.534  10.781
30652W        W97193  14.201  22.563  14.953
30653W        W97194  25.169  12.780  13.567
30654W        W97195  27.082  40.681  12.508
30655W        W97196  18.293   8.292   1.602
30656W        W97197   7.262  16.823   0.194
30657W        W97198  33.018   7.499   1.929
30658W        W97199   0.961   3.870   2.711
30659W        W97200   3.415   4.746  13.654
30660W        W97201  40.400   6.695  12.424
30661W        W97202  10.911  33.376  12.604
30662W        W97203   4.966  20.310   1.103
30663W        W97204   4.904  32.017  14.367
30664W        W97205   0.048   6.678  12.883
30665W        W97206  15.667  10.268   0.688
30666W        W97207   3.851  22.462   0.905
30667W        W97208  24.412   4.920  13.965
30668W        W97209   9.447   6.622  14.562
30669W        W97210  24.979  23.214   3.195
30670W        W97211  37.955  41.715  14.982
30671W        W97212   7.673   9.767  10.742
30672W        W97213  12.275  23.412  14.023
30673W        W97214  29.951   5.222  14.536
30674W        W97215  28.820  23.945  11.484
30675W        W97216  38.540  35.417  13.868
30676W        W97217  26.989  16.877   0.874
30677W        W97218  18.516  29.745   9.984
30678W        W97219  32.393  26.553  11.613
30679W        W97220   3.950   0.324  10.336
30680W        W97221  13.553  16.208   0.951
30681W        W97222  32.436   3.154  14.809
30682W        W97223  41.745   6.161   4.488
30683W        W97224  22.876   0.794  10.578
30684W        W97225  13.888  27.203  13.641
30685W        W97226  44.586  29.088   3.535
30686W        W97227  21.060  38.762  14.508
30687W        W97228  18.305  35.647   0.443
30688W        W97229  34.511  35.094   1.393
30689W        W97230   8.340  29.765  14.716
30690W        W97231   4.973  33.373   0.858
30691W        W97232   1.317  35.696   5.208
30692W        W97233  19.113  32.331  10.513
30693W        W97234  21.538  43.339  10.238
30694W        W97235  15.276  22.927  10.679
30695W        W97236  33.060  25.224  14.937
30696W        W97237   1.001   3.143   3.839
30697W        W97238  11.267  33.102   2.122
30698W        W97239  34.751  35.219  12.840
30699W        W97240  40.328  18.058  14.944
30700W        W97241  36.070  25.610  12.166
30701W        W97242   3.862  29.177   4.018
30702W        W97243   8.478  17.127   3.660
30703W        W97244  12.414  24.087   1.762
30704W        W97245   9.587  16.563  13.384
30705W        W97246  39.233  27.447   3.162
30706W        W97247  13.817  22.217  13.309
30707W        W97248   6.226  29.433   4.095
30708W        W97249  11.160  35.076   2.248
30709W        W97250  42.858  35.843  11.100
30710W        W97251   6.882  33.420  14.447
30711W        W97252  15.380  24.061  14.944
30712W        W97253  10.762  23.456  13.009
30713W        W97254  37.221  32.588  12.889
30714W        W97255   1.334  29.380   1.726
30715W        W97256  33.434  27.688   2.419
30716W        W97257   9.598  21.255  14.868
30717W        W97258  29.596  13.785   1.640
30718W        W97259  38.436   2.623  11.490
30719W        W97260   6.638  33.052   0.236
30720W        W97261  37.452  42.038  13.985
30721W        W97262   5.089  19.578   0.877
30722W        W97263  40.332  31.080   0.903
30723W        W97264  14.822  20.310   0.938
30724W        W97265  35.680  24.922  11.031
30725W        W97266   1.392  21.750  10.744
30726W        W97267  40.077  32.988  13.930
30727W        W97268  22.225   7.839  10.495
30728W        W97269  38.861  18.623   4.202
30729W        W97270  23.237  21.372  12.024
30730W        W97271  43.042  23.586   1.436
30731W        W97272  15.682   4.480   4.924
30732W        W97273  24.879  10.852   3.782
30733W        W97274  18.727   0.473   0.360
30734W        W97275  30.032   8.638  14.246
30735W        W97276   7.903  25.488   2.570
30736W        W97277  37.366  42.948  12.959
30737W        W97278  41.019  22.805   3.666
30738W        W97279  38.361  21.241   1.164
30739W        W97280  15.200  44.935  14.046
30740W        W97281   4.763  32.008  11.034
30741W        W97282  35.610  35.854  12.271
30742W        W97283  14.765   7.697  13.876
30743W        W97284  11.563  44.806  10.620
30744W        W97285   8.914  31.153   0.285
30745W        W97286  29.885  44.484   0.827
30746W        W97287  29.849  41.553  11.004
30747W        W97288  19.518  12.311  11.662
30748W        W97289  12.156  10.338  13.257
30749W        W97290  10.196  25.676   4.644
30750W        W97291   1.148  33.083   3.924
30751W        W97292  21.045  16.126  13.890
30752W        W97293   9.668   7.699  13.073
30753W        W97294   6.812  30.884  13.520
30754W        W97295  14.057  40.378  13.861
30755W        W97296  44.983  22.273   2.454
30756W        W97297   6.403  32.014   3.626
30757W        W97298  13.397  11.369   3.713
30758W        W97299  11.975  14.091   4.583
30759W        W97300   7.784  28.002   3.657
30760W        W97301  27.438  20.201   2.646
30761W        W97302  25.933  39.414   2.384
30762W        W97303  22.462  10.342  11.749
30763W        W97304  20.755  28.987   1.742
30764W        W97305  44.722  20.580   1.511
30765W        W97306  25.997  38.796  11.970
30766W        W97307  12.799   8.847  13.928
30767W        W97308   2.299  31.908   4.066
30768W        W97309  20.730   7.384  10.821
30769W        W97310  27.105  25.703  10.775
30770W        W97311  31.334  21.624  13.435
30771W        W97312  13.835   8.174  11.106
30772W        W97313   2.229  27.770  12.993
30773W        W97314  44.948  27.129  11.265
30774W        W97315   9.957  25.264  13.492
30775W        W97316  20.105   0.337  14.003
30776W        W97317  23.085   6.630  11.301
30777W        W97318  13.066  12.235   0.342
30778W        W97319  20.756  13.630  11.471
30779W        W97320   1.800  10.638  12.464
30780W        W97321  32.644   3.457  12.948
30781W        W97322  32.952  11.373   3.695
30782W        W97323  28.783  13.850   3.294
30783W        W97324  20.348  13.514   1.643
30784W        W97325   0.905  34.858   1.218
30785W        W97326  26.558  34.936  13.862
30786W        W97327  39.375  37.493   2.693
30787W        W97328  39.058  21.336  14.743
30788W        W97329  28.138   4.984   4.934
30789W        W97330   1.042   8.118   3.213
30790W        W97331  20.075  25.207  12.959
30791W        W97332  29.609   8.478  13.991
30792W        W97333  25.023   5.345   3.239
30793W        W97334  38.386  41.410  13.112
30794W        W97335   0.428   5.215   2.680
30795W        W97336  21.191  28.646   3.692
30796W        W97337  18.665   2.320   4.883
30797W        W97338  27.841   7.252  13.581
30798W        W97339   0.170  10.822  13.943
30799W        W97340  11.619  17.849   4.889
30800W        W97341  32.643  18.588   4.077
30801W        W97342  34.446  30.998   4.091
30802W        W97343  43.396  24.122  14.859
30803W        W97344  22.649  39.225  13.474
30804W        W97345   3.908  26.332  13.151
30805W        W97346  24.827   4.675   5.036
30806W        W97347   3.773  16.131  13.311
30807W        W97348  15.433  22.677  11.629
30808W        W97349  13.691  44.368   0.282
30809W        W97350  17.301  24.497  14.850
30810W        W97351   5.835  11.247  10.776
30811W        W97352  25.725   8.870   4.573
30812W        W97353  21.841  37.529  12.645
30813W        W97354  40.216  25.720  11.100
30814W        W97355  22.215  21.499   3.373
30815W        W97356  29.418  18.623  14.920
30816W        W97357  20.023  26.613  14.729
30817W        W97358  37.003  35.576   0.804
30818W        W97359  38.975   9.170   4.556
30819W        W97360  21.797  38.130   0.811
30820W        W97361  20.688  43.938   3.688
30821W        W97362  19.758  41.983  12.760
30822W        W97363  43.055   0.686  11.294
30823W        W97364  17.993   9.132  14.028
30824W        W97365  36.080  20.007   0.601
30825W        W97366  28.106   9.899  11.093
30826W        W97367  29.671  31.014  12.024
30827W        W97368   3.879   2.431   0.561
30828W        W97369  42.475  27.372   0.266
30829W        W97370   5.713  19.244   2.148
30830W        W97371   6.196   8.606  12.448
30831W        W97372  17.131  41.360   0.480
30832W        W97373  15.895  28.125  11.193
30833W        W97374  19.770  42.402   3.429
30834W        W97375  42.807  13.586  12.031
30835W        W97376  15.324  12.183   3.295
30836W        W97377   6.855  20.635  11.551
30837W        W97378   3.359  35.426   1.508
30838W        W97379  16.170   4.844  14.527
30839W        W97380  10.850  37.606  12.614
30840W        W97381  11.448  19.035   1.488
30841W        W97382  23.009  43.748  14.221
30842W        W97383  36.754  19.461  12.533
30843W        W97384   0.665  18.436   0.700
30844W        W97385  13.837  36.079   2.421
30845W        W97386  17.618   9.639   1.353
30846W        W97387  27.016  25.009   2.490
30847W        W97388   5.668  43.019   4.732
30848W        W97389  11.880  23.210   2.270
30849W        W97390   0.395  33.844  12.059
30850W        W97391  18.086  44.512   3.174
30851W        W97392   0.536  42.932   3.683
30852W        W97393  30.474  23.486   3.722
30853W        W97394  34.931  26.658  10.705
30854W        W97395  23.081  26.415  14.879
30855W        W97396   5.604   2.703   1.060
30856W        W97397   0.266  12.356   1.797
30857W        W97398  31.613  29.728  13.039
30858W        W97399  27.696  39.470   4.418
30859W        W97400  29.568  24.033   4.746
30860W        W97401  21.317  14.122  12.038
30861W        W97402  38.587  11.379  12.789
30862W        W97403  10.805  43.501   1.914
30863W        W97404  22.128  23.694  11.059
30864W        W97405  11.095  39.841  11.242
30865W        W97406  25.232  42.422  10.801
30866W        W97407   8.782   6.591   0.745
30867W        W97408  37.333   8.328   0.240
30868W        W97409  23.106  22.164   3.993
30869W        W97410   9.388  39.930   0.343
30870W        W97411  15.560   5.636  13.885
30871W        W97412  22.481   4.472   2.735
30872W        W97413   9.297  18.566   0.781
30873W        W97414   8.120   9.239   2.220
30874W        W97415  17.490   2.757   4.400
30875W        W97416  26.465  21.416  12.410
30876W        W97417  12.358  12.315  12.507
30877W        W97418  12.392  20.062   4.553
30878W        W97419  16.319   6.194   2.336
30879W        W97420  22.715  33.335   1.349
30880W        W97421  35.424  29.828  12.879
30881W        W97422  10.806  32.651  11.727
30882W        W97423  35.819  42.951   0.957
30883W        W97424  28.093  19.533  11.919
30884W        W97425  13.298  41.451  13.573
30885W        W97426  13.844  18.189  12.011
30886W        W97427  18.200  12.784   3.667
30887W        W97428  28.712  34.687   3.768
30888W        W97429  10.333  28.500   2.390
30889W        W97430  23.126  26.566   2.410
30890W        W97431   9.891  21.158  11.852
30891W        W97432  33.447  34.426   0.072
30892W        W97433  12.831   4.144  12.888
30893W        W97434  33.200  16.158   2.290
30894W        W97435  36.180  13.776   1.848
30895W        W97436  34.781  13.296  14.940
30896W        W97437  15.339  42.395   2.255
30897W        W97438  15.657  28.676  14.403
30898W        W97439   4.350  10.436  14.562
30899W        W97440  27.973   9.467   0.017
30900W        W97441   0.790   3.782  11.575
30901W        W97442  36.277  34.366   1.472
30902W        W97443  16.649  40.296   2.894
30903W        W97444   0.075  44.677   1.290
30904W        W97445  14.769  14.606  10.608
30905W        W97446  35.110   6.756   0.515
30906W        W97447  11.214  20.577   3.582
30907W        W97448  43.310  23.832   5.028
30908W        W97449  37.923   5.852   4.513
30909W        W97450  23.504  37.675   3.060
30910W        W97451  30.073  17.449   3.342
30911W        W97452  33.270  43.455  10.748
30912W        W97453  17.516  34.996   1.742
30913W        W97454  15.415   0.739   0.383
30914W        W97455  31.147  30.549  13.711
30915W        W97456   4.018  41.276  10.202
30916W        W97457  33.164  39.915   0.488
30917W        W97458  22.269   6.699  11.953
30918W        W97459   5.224  31.861  14.993
30919W        W97460  21.125  39.877  13.532
30920W        W97461   7.278  20.765  14.699
30921W        W97462   5.740  41.210  12.014
30922W        W97463  14.105  20.530   1.436
30923W        W97464  40.972   4.377  10.778
30924W        W97465  15.712   8.118  12.958
30925W        W97466  24.749   2.791  11.103
30926W        W97467  20.407  41.391  13.054
30927W        W97468  32.875  29.623  13.338
30928W        W97469  22.512   1.204   3.609
30929W        W97470  14.394  24.512   4.727
30930W        W97471  21.798   5.986   3.176
30931W        W97472  40.881  44.708   1.317
30932W        W97473  39.726  12.474   4.056
30933W        W97474  14.439  10.713  12.083
30934W        W97475  20.348  18.428  12.853
30935W        W97476  29.065  17.197   3.745
30936W        W97477  24.733  29.546  10.906
30937W        W97478  10.254  23.534  10.190
30938W        W97479  36.962   9.305  14.587
30939W        W97480   6.302  27.919   0.917
30940W        W97481  44.958  14.588  10.734
30941W        W97482  22.305  17.638  14.571
30942W        W97483  16.869  44.894  13.143
30943W        W97484   3.280  22.097   0.720
30944W        W97485  18.701  22.330  14.152
30945W        W97486  23.549   6.924   0.698
30946W        W97487  26.404  20.299  14.307
30947W        W97488  41.712  41.446   0.408
30948W        W97489   2.522   3.442  13.572
30949W        W97490  44.909  17.619   0.954
30950W        W97491  21.126  37.851  11.126
30951W        W97492  38.999  41.792   2.440
30952W        W97493  42.206  43.431   1.750
30953W        W97494  36.423   6.378   2.976
30954W        W97495  31.721   6.867  13.593
30955W        W97496  20.184  39.361  11.565
30956W        W97497  11.814  44.665   2.629
30957W        W97498  24.599  16.471  12.661
30958W        W97499  30.649  34.457  12.543
30959W        W97500   4.802  29.627  12.644
30960W        W97501  20.740  10.476   2.468
30961W        W97502  26.712  15.721  12.398
30962W        W97503  14.965  22.544  14.409
30963W        W97504  28.475  43.847  11.633
30964W        W97505  32.665   6.579   3.488
30965W        W97506  32.029  21.395   0.222
30966W        W97507  20.467   6.504  10.620
30967W        W97508  19.530  41.862  14.351
30968W        W97509  27.022  43.320  14.395
30969W        W97510  24.232  16.166  10.778
30970W        W97511   3.537   1.699   2.649
30971W        W97512  36.498   6.304   4.286
30972W        W97513  29.438   7.127  10.683
30973W        W97514  18.725  16.609  13.129
30974W        W97515   1.208  25.266   1.383
30975W        W97516   0.678  21.158   2.254
30976W        W97517  10.935  40.011   3.584
30977W        W97518  22.259  44.049  14.405
30978W        W97519  35.096   0.728   0.460
30979W        W97520  13.683   5.956  11.609
30980W        W97521  33.741   1.100   9.865
30981W        W97522  37.280  28.671   4.167
30982W        W97523   5.595  23.772  14.449
30983W        W97524  23.035  28.580  13.537
30984W        W97525  37.077  16.637   2.568
30985W        W97526  20.794   1.012  10.650
30986W        W97527  32.973  36.886  13.976
30987W        W97528   4.433  40.784   1.352
30988W        W97529  11.824  13.203  11.662
30989W        W97530  14.118  23.041   1.678
30990W        W97531  44.506  44.044   2.868
30991W        W97532  26.627  31.590   3.688
30992W        W97533  29.679  29.658   0.737
30993W        W97534  25.457  38.959   1.040
30994W        W97535  27.148   2.260  10.699
30995W        W97536  35.575   5.729  11.963
30996W        W97537  11.338  38.545  10.600
30997W        W97538  30.396  13.330  14.981
30998W        W97539  43.943  20.500  12.604
30999W        W97540  41.587  32.633   1.423
31000W        W97541  32.438   5.282  14.475
31001W        W97542  17.502  34.024   2.843
31002W        W97543  24.950  40.219   4.054
31003W        W97544  13.393   3.806   1.430
31004W        W97545  17.101  14.079   1.911
31005W        W97546  41.570  42.465  11.447
31006W        W97547  40.216   7.251  14.181
31007W        W97548  36.555  31.636  13.966
31008W        W97549  19.081  18.619  13.935
31009W        W97550   0.684  11.240  14.093
31010W        W97551   5.275  37.076  13.008
31011W        W97552  21.689   1.013   2.350
31012W        W97553  35.389  21.504   1.371
31013W        W97554  31.481   2.530   0.932
31014W        W97555  19.390  14.431   1.920
31015W        W97556  13.874   3.261   3.828
31016W        W97557  16.269  22.703  13.416
31017W        W97558  23.868  26.353   0.247
31018W        W97559  25.120  28.001   1.488
31019W        W97560  20.977  19.834   3.228
31020W        W97561  34.826  30.511  13.815
31021W        W97562  33.820  10.898   1.800
31022W        W97563   4.399  33.507  10.929
31023W        W97564   7.588  37.892  11.692
31024W        W97565  36.074  20.536   0.504
31025W        W97566  20.804  14.287   3.241
31026W        W97567  38.262  15.248   0.412
31027W        W97568  11.766  32.403  12.160
31028W        W97569  29.117  27.827  11.450
31029W        W97570   6.962  32.197   0.688
31030W        W97571  14.638  14.524  12.356
31031W        W97572  26.754   1.424   4.512
31032W        W97573  43.871   8.424  12.627
31033W        W97574  18.177  41.528   2.687
31034W        W97575  14.043  10.782  13.380
31035W        W97576  25.883  20.010   2.790
31036W        W97577   4.620  42.189   4.146
31037W        W97578  25.153  30.641   1.591
31038W        W97579  16.800  44.477   2.315
31039W        W97580  43.749  27.259  13.113
31040W        W97581  25.955   5.294  14.828
31041W        W97582  32.777  11.109  13.839
31042W        W97583  34.629  38.459   3.072
31043W        W97584  18.306   9.846   2.110
31044W        W97585  38.372  35.095   1.814
31045W        W97586   7.596  42.449   2.299
31046W        W97587  13.132  31.505   2.604
31047W        W97588   2.652  10.240   4.992
31048W        W97589  26.062  42.026  11.124
31049W        W97590   4.093   0.059   3.808
31050W        W97591  36.967  12.669  12.308
31051W        W97592   6.585  18.551   1.505
31052W        W97593  22.516  28.955   4.699
31053W        W97594  21.909  26.173  10.601
31054W        W97595  13.702  26.535   1.932
31055W        W97596   6.533  34.221   4.678
31056W        W97597  25.526  27.663   0.386
31057W        W97598   5.605  22.032   3.199
31058W        W97599  42.959  36.154  10.701
31059W        W97600   9.018  10.309  13.028
31060W        W97601  42.812  21.231   3.306
31061W        W97602  40.355  10.807  14.712
31062W        W97603   9.132  31.123   3.692
31063W        W97604   4.847  40.883   2.793
31064W        W97605  33.761  34.867  12.753
31065W        W97606   3.421  23.338   0.017
31066W        W97607  22.732   6.211   2.325
31067W        W97608  43.466  31.657   0.325
31068W        W97609  41.545  43.776   3.501
31069W        W97610  36.118  41.913   2.089
31070W        W97611  15.172  22.527   3.079
31071W        W97612  22.973  23.137  14.906
31072W        W97613  31.085  37.087  11.624
31073W        W97614  38.877  43.012   2.732
31074W        W97615  38.697   9.143  11.631
31075W        W97616  38.165  42.822   0.871
31076W        W97617  27.375  37.465  11.230
31077W        W97618  26.521  15.726   1.683
31078W        W97619  30.649  12.091  12.142
31079W        W97620  13.517  14.748  12.461
31080W        W97621  28.953  26.635   4.565
31081W        W97622   4.976  25.049  14.909
31082W        W97623  26.710   5.269  11.570
31083W        W97624  32.436  15.674  12.919
31084W        W97625   8.390  27.914   2.761
31085W        W97626  22.882  32.913   4.949
31086W        W97627   0.545  41.762  14.403
31087W        W97628  21.188  12.747  10.072
31088W        W97629  30.673  39.684  12.464
31089W        W97630   1.061  22.828   4.179
31090W        W97631  38.709  22.099   0.981
31091W        W97632   1.548  25.963   1.820
31092W        W97633  15.744  29.554  11.576
31093W        W97634  26.173  15.181   4.632
31094W        W97635  17.388   2.250  13.582
31095W        W97636  39.927  43.279  14.418
31096W        W97637  10.366  30.989  11.709
31097W        W97638  21.701  39.052   2.214
31098W        W97639   2.770  11.596   3.143
31099W        W97640   6.475  33.151   2.338
31100W        W97641  21.626  40.548   4.025
31101W        W97642  34.080   8.712   3.148
31102W        W97643   2.042  34.096  12.523
31103W        W97644  39.264  28.275  12.409
31104W        W97645  30.090  34.348   0.221
31105W        W97646   3.444  17.219  12.086
31106W        W97647  15.340  35.168  14.059
31107W        W97648  40.061  33.630  12.277
31108W        W97649  36.055  28.455  14.831
31109W        W97650  36.860  33.219   3.314
31110W        W97651  20.660  21.269  14.544
31111W        W97652  44.965  28.765   3.063
31112W        W97653  34.607  39.360  10.716
31113W        W97654  30.419  16.105  10.655
31114W        W97655  23.715  36.814  13.358
31115W        W97656  10.214  14.179   4.889
31116W        W97657   9.268  29.196  11.216
31117W        W97658   4.850  15.583  11.996
31118W        W97659  17.623  22.215  11.546
31119W        W97660   4.952  10.630   1.352
31120W        W97661  19.227  19.190   1.774
31121W        W97662  21.123   5.382   0.243
31122W        W97663  39.812   0.827   4.335
31123W        W97664  13.668  15.283  12.902
31124W        W97665  14.346  37.438   3.675
31125W        W97666  27.976  19.244   0.398
31126W        W97667  38.538  24.938  14.309
31127W        W97668   0.518  21.167   3.709
31128W        W97669  20.919   6.340   2.263
31129W        W97670  33.357  16.326  14.298
31130W        W97671  42.554  39.447   4.169
31131W        W97672  24.993  31.946  13.889
31132W        W97673   6.177  16.768   0.426
31133W        W97674  11.097  29.947  12.366
31134W        W97675  22.029  31.123   0.785
31135W        W97676   6.899   9.311  12.657
31136W        W97677  41.761  44.296   0.284
31137W        W97678  12.325  29.860  10.682
31138W        W97679   7.232  13.330  12.523
31139W        W97680  26.638  36.908  11.956
31140W        W97681   6.524   8.404   1.268
31141W        W97682  42.640  33.268   4.993
31142W        W97683  16.147  10.138   2.282
31143W        W97684   0.694   1.679  10.917
31144W        W97685   3.243  42.998   2.353
31145W        W97686  37.497   6.415   4.031
31146W        W97687  22.093  44.828   1.619
31147W        W97688  25.956  34.201  14.502
31148W        W97689  11.377  15.711   4.435
31149W        W97690  10.832   2.898   1.221
31150W        W97691   7.745  10.811   4.666
31151W        W97692  10.966  38.482  13.494
31152W        W97693  36.478   6.778  12.840
31153W        W97694   8.458  15.670  12.466
31154W        W97695  13.980  36.566  11.449
31155W        W97696  32.926  28.017   2.774
31156W        W97697  40.593  25.047  10.409
31157W        W97698  27.638  40.786   0.342
31158W        W97699   5.338   8.256  10.539
31159W        W97700  26.699  41.449  13.283
31160W        W97701  28.681  23.207   3.913
31161W        W97702   1.552   6.423  13.749
31162W        W97703   0.414  31.117  14.757
31163W        W97704  14.728  25.318  13.949
31164W        W97705   7.777  25.719  14.358
31165W        W97706   8.323  26.687   0.266
31166W        W97707  26.135  18.481   4.177
31167W        W97708   2.727  30.816   1.036
31168W        W97709  23.486   9.194  14.447
31169W        W97710  39.280  20.043  13.375
31170W        W97711  43.471  42.877  12.102
31171W        W97712  40.310  29.121   1.258
31172W        W97713   1.015  33.653   2.721
31173W        W97714   9.493  16.795   2.616
31174W        W97715   8.712  18.017  14.670
31175W        W97716  38.311  15.179  12.963
31176W        W97717  14.219   2.522  12.571
31177W        W97718  13.791  37.226   0.419
31178W        W97719   7.431  36.995   2.025
31179W        W97720  36.471  23.761   0.381
31180W        W97721   0.120   2.176  14.261
31181W        W97722  26.531  24.249   2.749
31182W        W97723  27.948  18.251   2.357
31183W        W97724  44.327  21.295   5.243
31184W        W97725  16.237  16.060  14.870
31185W        W97726  19.983  28.786   3.230
31186W        W97727  13.077  38.891   3.755
31187W        W97728  14.065  15.761  13.199
31188W        W97729  10.701  38.847  14.249
31189W        W97730  34.095  24.262   1.780
31190W        W97731   6.871   5.033   0.986
31191W        W97732   8.721  26.708   1.306
31192W        W97733  25.471  39.529  11.675
31193W        W97734  43.467   7.774   4.684
31194W        W97735  31.500  11.850  12.612
31195W        W97736  28.947  29.490  12.445
31196W        W97737  21.842  22.524   0.178
31197W        W97738   4.248  11.423  12.324
31198W        W97739  15.078  13.959   5.063
31199W        W97740  28.972   4.469  13.916
31200W        W97741  31.432  30.940  10.593
31201W        W97742   7.021  37.308  14.550
31202W        W97743  42.629  22.572   0.550
31203W        W97744  36.539  30.498   4.303
31204W        W97745  27.286   7.457   5.057
31205W        W97746  13.494  44.727  12.672
31206W        W97747  29.671  21.814  14.869
31207W        W97748   7.219   2.940  14.664
31208W        W97749  17.604  37.111  11.076
31209W        W97750  21.570  34.049  10.987
31210W        W97751  11.197  24.972   4.847
31211W        W97752  17.818  19.131   2.599
31212W        W97753   6.825   7.799  12.023
31213W        W97754  10.258  12.907  13.011
31214W        W97755   3.903  31.570   0.322
31215W        W97756  16.072  41.202   2.643
31216W        W97757  29.720  34.519  11.655
31217W        W97758  15.888  42.264  11.611
31218W        W97759  28.540   7.683   2.300
31219W        W97760  28.874  24.816   2.660
31220W        W97761   4.393  33.175   3.857
31221W        W97762  23.314  43.817   2.672
31222W        W97763  27.674  20.025  12.584
31223W        W97764  33.109  16.319   0.836
31224W        W97765   5.913   5.399   2.968
31225W        W97766  24.785  10.781  11.634
31226W        W97767  37.609  29.006   1.741
31227W        W97768   2.242   6.317   0.608
31228W        W97769   6.423  25.862   0.597
31229W        W97770  19.024   3.448  10.600
31230W        W97771  34.453  25.124   3.603
31231W        W97772  28.497  14.699   1.243
31232W        W97773   3.309  16.814  12.931
31233W        W97774  22.781  37.612   1.909
31234W        W97775   7.832  24.013  12.533
31235W        W97776  10.356  31.786   0.651
31236W        W97777  23.990   4.297  12.446
31237W        W97778   7.694  41.873   1.322
31238W        W97779   2.591  25.091   1.319
31239W        W97780  16.113  26.539  13.370
31240W        W97781  11.767   6.224  10.684
31241W        W97782   2.421  37.971  10.655
31242W        W97783  23.213  11.678  13.706
31243W        W97784   9.271  13.350  11.960
31244W        W97785  42.399  28.000   3.228
31245W        W97786  34.112  21.205   3.419
31246W        W97787  20.025  12.485   2.697
31247W        W97788  18.232  36.000   1.321
31248W        W97789  17.795  27.912  13.977
31249W        W97790   3.055  15.350  14.470
31250W        W97791  36.136  28.647   0.299
31251W        W97792  10.617  19.630  13.742
31252W        W97793  16.132  21.055  13.819
31253W        W97794  35.272  14.282   4.113
31254W        W97795  19.843  16.758   1.594
31255W        W97796  16.675  21.578  14.280
31256W        W97797   3.718  21.519   1.263
31257W        W97798  26.453  16.671  11.238
31258W        W97799   5.781  17.337  14.396
31259W        W97800  39.053  19.772  11.047
31260W        W97801  23.463  39.864   2.246
31261W        W97802  21.269   3.830   4.609
31262W        W97803  39.478  13.307  14.961
31263W        W97804   9.306  42.335   1.171
31264W        W97805   8.774   2.201  14.708
31265W        W97806  42.935   7.758   2.373
31266W        W97807  37.412  22.807   4.070
31267W        W97808  24.560  30.682  14.409
31268W        W97809  28.466  19.072   0.391
31269W        W97810  21.196  44.161   4.182
31270W        W97811   7.425  29.826   3.597
31271W        W97812  18.738  33.029  10.580
31272W        W97813  17.832  33.561  10.630
31273W        W97814  36.074  11.792  12.118
31274W        W97815  17.325  44.029   4.859
31275W        W97816  35.669  39.498   4.762
31276W        W97817  42.030  10.243  13.921
31277W        W97818  28.328  24.205   1.751
31278W        W97819  14.513  22.831   1.942
31279W        W97820  23.586  19.848  14.457
31280W        W97821  12.106  19.442  10.568
31281W        W97822  37.422  24.565   1.685
31282W        W97823  30.479  29.698  11.781
31283W        W97824  30.087  41.849  14.363
31284W        W97825  10.637  19.018  12.568
31285W        W97826  26.214  44.540  12.003
31286W        W97827  36.655  37.516  13.818
31287W        W97828  21.135  34.163   1.883
31288W        W97829   6.614   5.108   0.359
31289W        W97830   2.362  20.208   0.796
31290W        W97831  26.690   2.426  11.271
31291W        W97832  37.853  44.649  11.626
31292W        W97833  14.180  44.287   3.806
31293W        W97834  17.465  44.952   4.142
31294W        W97835  15.751   6.246   0.795
31295W        W97836   6.111  27.432   3.145
31296W        W97837  29.231  20.318   2.396
31297W        W97838  17.666   1.806  14.087
31298W        W97839   4.293  32.488   1.308
31299W        W97840  26.549  43.052   1.770
31300W        W97841   9.378   0.694   1.394
31301W        W97842  11.972  38.437  11.503
31302W        W97843  21.307  14.304   0.333
31303W        W97844  25.417  30.355  11.103
31304W        W97845   9.081  30.748  10.289
31305W        W97846  38.797   9.395  10.273
31306W        W97847  20.086  18.075   5.020
31307W        W97848  13.274  33.783  12.939
31308W        W97849   9.122  28.233   3.186
31309W        W97850   5.798  27.581   2.632
31310W        W97851   8.276  39.379  11.725
31311W        W97852   0.995  21.808  10.404
31312W        W97853   1.938   3.162  12.941
31313W        W97854  32.537  37.165  11.413
31314W        W97855  29.524  44.292   1.278
31315W        W97856  42.984  35.305   0.713
31316W        W97857   4.585  37.340  12.530
31317W        W97858  20.573  10.329  12.998
31318W        W97859  11.348   6.833   3.966
31319W        W97860  34.148   6.660   1.332
31320W        W97861  21.058   2.370   4.550
31321W        W97862  43.294  22.237  12.187
31322W        W97863  22.737  10.528   2.135
31323W        W97864  19.345   0.355  12.048
31324W        W97865  18.972  38.202  12.172
31325W        W97866  36.033  17.400  12.451
31326W        W97867  39.947  42.969   0.700
31327W        W97868  11.679  13.271   4.182
31328W        W97869  10.785  43.403   3.359
31329W        W97870  15.556   1.629  14.996
31330W        W97871  18.899  10.869   3.907
31331W        W97872  16.616  24.799   4.672
31332W        W97873  21.500  26.568   2.855
31333W        W97874  32.925  13.355  14.839
31334W        W97875   3.277  40.284   3.107
31335W        W97876  25.490  14.913   0.796
31336W        W97877  17.703  40.871   3.047
31337W        W97878  20.062  11.103   3.790
31338W        W97879  43.028  20.531   1.971
31339W        W97880  40.815  27.571  10.670
31340W        W97881  40.260  14.530   1.602
31341W        W97882  17.153  14.914   2.341
31342W        W97883  22.118  43.054   4.793
31343W        W97884  10.346   0.878  12.545
31344W        W97885  26.220  21.327  12.856
31345W        W97886  13.452  39.809   3.753
31346W        W97887  17.954  30.717   1.281
31347W        W97888  21.498   0.995  12.475
31348W        W97889  11.374  40.415   3.271
31349W        W97890  23.121   2.829  13.402
31350W        W97891  24.208  39.876   3.021
31351W        W97892  35.540  22.344  13.751
31352W        W97893   9.234  35.832   0.465
31353W        W97894  34.706  10.277  14.783
31354W        W97895  38.930   1.674   4.015
31355W        W97896  25.442  32.095  12.029
31356W        W97897  39.527  16.886   4.479
31357W        W97898   3.820   8.952   0.455
31358W        W97899  27.568  25.208   3.718
31359W        W97900  30.445  32.029  11.968
31360W        W97901  37.338   9.197   4.177
31361W        W97902   0.600  35.343  10.883
31362W        W97903  33.942  42.688   2.345
31363W        W97904  27.885  37.584  11.131
31364W        W97905  29.950  33.174   4.331
31365W        W97906  40.756  25.276   0.994
31366W        W97907  19.571  33.644   0.843
31367W        W97908  11.771  27.063  12.069
31368W        W97909   7.482   3.918  12.497
31369W        W97910  29.687  39.441  11.591
31370W        W97911  38.948   8.368  14.776
31371W        W97912   0.390  23.002  14.247
31372W        W97913  34.919  36.529   2.475
31373W        W97914  30.664  41.138  11.008
31374W        W97915  21.739  13.672   1.893
31375W        W97916   6.179  30.196   2.105
31376W        W97917   5.865   6.934  10.745
31377W        W97918   2.243  32.442   2.581
31378W        W97919  35.048  31.370   0.929
31379W        W97920  34.050  24.061   3.666
31380W        W97921  16.851  25.480   3.629
31381W        W97922  31.569   0.932  11.267
31382W        W97923  44.926  12.280   5.030
31383W        W97924  22.175  19.233   3.812
31384W        W97925  12.846  27.064  14.069
31385W        W97926  25.694   3.392   4.061
31386W        W97927  30.095  44.989   0.845
31387W        W97928  44.039   3.685  10.242
31388W        W97929  34.779  28.942  14.916
31389W        W97930  19.565  26.987   0.759
31390W        W97931  26.755  41.717   3.277
31391W        W97932  44.237  31.101   2.345
31392W        W97933  12.334  42.741   4.265
31393W        W97934  34.126  20.130  13.051
31394W        W97935  34.611   5.937  13.523
31395W        W97936  36.688  34.049   3.461
31396W        W97937  21.576  15.204  11.025
31397W        W97938   4.694  30.152  10.598
31398W        W97939  26.610  32.120  14.497
31399W        W97940  29.847  13.935   2.565
31400W        W97941   6.158  34.224  10.085
31401W        W97942  26.953  27.666  11.364
31402W        W97943   4.294  36.793  14.515
31403W        W97944   9.501  44.862   4.575
31404W        W97945   1.918  44.683   0.595
31405W        W97946  23.790  40.822  13.068
31406W        W97947  17.937  28.400   1.905
31407W        W97948  33.928  21.715  14.298
31408W        W97949  36.835  16.629   4.485
31409W        W97950  33.822  27.940   2.746
31410W        W97951  23.077  41.883   4.191
31411W        W97952   6.996   3.149   5.017
31412W        W97953   0.973  18.116   3.328
31413W        W97954  11.059  41.804  12.572
31414W        W97955  12.865  36.863   0.436
31415W        W97956  16.756   3.286   3.102
31416W        W97957  37.585  19.662   1.372
31417W        W97958  22.192  41.948   1.909
31418W        W97959  42.719   2.274   3.201
31419W        W97960  33.454  37.631  13.000
31420W        W97961  27.514  29.542  10.866
31421W        W97962  28.740  18.484  14.579
31422W        W97963  18.503  10.643  11.993
31423W        W97964  32.027  29.590   0.726
31424W        W97965  12.735  25.587  14.411
31425W        W97966   7.789  28.068  14.633
31426W        W97967  18.748  22.431  13.165
31427W        W97968  33.991  15.129  14.748
31428W        W97969   2.159  42.599   3.602
31429W        W97970  13.165   5.920  10.565
31430W        W97971  13.930  34.188   2.726
31431W        W97972   1.163  43.481   4.276
31432W        W97973  12.638  25.806  11.657
31433W        W97974   7.678   7.546  14.397
31434W        W97975  14.660  35.350  13.260
31435W        W97976  35.367  18.979  13.405
31436W        W97977  39.444   9.087  14.839
31437W        W97978   0.144   1.999   2.400
31438W        W97979  32.655   7.106   3.591
31439W        W97980  43.070  11.178   1.839
31440W        W97981   6.185   4.979  12.821
31441W        W97982  33.221  39.977   2.853
31442W        W97983   7.025  24.573  11.171
31443W        W97984   9.281  34.591   2.587
31444W        W97985  36.648  32.907  13.533
31445W        W97986   2.238   6.582  12.721
31446W        W97987  36.894  10.655  11.659
31447W        W97988  39.601   2.567  13.502
31448W        W97989  28.323  36.110  13.409
31449W        W97990  44.283  15.391   3.505
31450W        W97991  14.324   3.465   1.398
31451W        W97992  10.294  41.531  14.370
31452W        W97993  32.193  34.866   3.607
31453W        W97994   5.848  35.047   3.130
31454W        W97995  44.219  31.676  12.532
31455W        W97996  17.245  25.470   3.195
31456W        W97997   2.767  37.202  10.386
31457W        W97998  36.368  13.050   3.235
31458W        W97999  40.948  12.359  13.430
31459W        W98000   0.650  34.463   4.320
31460W        W98001  10.576  15.582  10.628
31461W        W98002  14.351  43.995  12.570
31462W        W98003  16.630   6.139   1.455
31463W        W98004  11.558   3.296   4.109
31464W        W98005  22.166   7.787  12.753
31465W        W98006   8.724  13.742   1.880
31466W        W98007   1.350  36.151   4.914
31467W        W98008  43.860  24.227   3.278
31468W        W98009   3.176   5.116  14.635
31469W        W98010   9.939  16.447  11.733
31470W        W98011  31.609  21.011   2.561
31471W        W98012  29.691  42.944   3.027
31472W        W98013   6.826  17.002  13.456
31473W        W98014  39.831   0.811   4.920
31474W        W98015  38.242   9.859   3.759
31475W        W98016  40.067  26.871   4.222
31476W        W98017  29.014  35.485   0.361
31477W        W98018  29.664   4.630  13.500
31478W        W98019  27.895  12.640  12.394
31479W        W98020  18.152  12.385  13.300
31480W        W98021  14.272   7.764  12.910
31481W        W98022  29.508  37.569   3.699
31482W        W98023   3.259   6.368   3.345
31483W        W98024   8.407  10.318   3.480
31484W        W98025  33.955  40.521  13.054
31485W        W98026  19.217   0.807  12.341
31486W        W98027  42.750  29.191  14.389
31487W        W98028  20.216  10.134  13.309
31488W        W98029  13.150  27.966   4.765
31489W        W98030  14.540  42.837   1.084
31490W        W98031  36.339   9.680   3.700
31491W        W98032  19.979  38.795   2.721
31492W        W98033  28.103  33.477   2.385
31493W        W98034  26.148  34.714   3.909
31494W        W98035  29.023  10.520   3.332
31495W        W98036  10.384  42.953   3.716
31496W        W98037  16.554  41.994  14.303
31497W        W98038  35.526  19.819  13.794
31498W        W98039  37.144   2.895  10.312
31499W        W98040  41.417   5.780  12.346
31500W        W98041  19.647  11.925  12.422
31501W        W98042  22.454   2.908   2.284
31502W        W98043  12.250  22.697  13.195
31503W        W98044   1.781   0.396  11.872
31504W        W98045   6.283  36.861  10.486
31505W        W98046  42.984  17.449  12.753
31506W        W98047  10.386  35.109  12.560
31507W        W98048  26.029  28.292   2.263
31508W        W98049  20.051  44.354   2.764
31509W        W98050  36.419  28.884  13.410
31510W        W98051  24.128  23.034   4.294
31511W        W98052  25.650  22.116  11.843
31512W        W98053   6.843  39.831  14.934
31513W        W98054   4.986  23.195   1.379
31514W        W98055  26.919   5.705   4.629
31515W        W98056  20.923  14.144  14.075
31516W        W98057   5.863  38.925  11.822
31517W        W98058  17.841   9.237  11.580
31518W        W98059  36.051   5.947   0.710
31519W        W98060  43.239   4.638   1.237
31520W        W98061  33.966  41.403   0.787
31521W        W98062  29.624  12.701   2.860
31522W        W98063  24.015  26.155  13.395
31523W        W98064  38.808  33.494  13.949
31524W        W98065   3.521   2.791  14.794
31525W        W98066  30.921  26.361  12.444
31526W        W98067  38.511  27.781  11.670
31527W        W98068  44.054  37.477  13.069
31528W        W98069   2.001  26.734   0.032
31529W        W98070  38.030  34.042  14.783
31530W        W98071  41.615  39.053   1.293
31531W        W98072  19.861  34.923  13.970
31532W        W98073  28.409  26.088   3.364
31533W        W98074   6.968   0.932  10.762
31534W        W98075  40.725  11.340   4.188
31535W        W98076  26.560  21.021  14.923
31536W        W98077  39.536  33.453   2.288
31537W        W98078  15.062  38.433   1.746
31538W        W98079  22.528  13.627  12.864
31539W        W98080  34.943  37.634  14.490
31540W        W98081   4.111  32.632  13.545
31541W        W98082  36.924   2.503   0.379
31542W        W98083   7.673   8.607  12.828
31543W        W98084  28.921  15.550   3.290
31544W        W98085  17.361  19.301   3.344
31545W        W98086  19.081  35.661   1.422
31546W        W98087  28.515  28.948   2.929
31547W        W98088   4.467   4.802   4.540
31548W        W98089  22.503  35.153  14.950
31549W        W98090  38.370   7.629   0.963
31550W        W98091  14.113  14.025  13.492
31551W        W98092  22.110  34.862   0.704
31552W        W98093  40.376  43.778   0.713
31553W        W98094  29.558  37.340  10.386
31554W        W98095   9.770  31.854   3.672
31555W        W98096  41.373  26.938  12.062
31556W        W98097  42.801  16.880  11.574
31557W        W98098   6.704  33.980   2.277
31558W        W98099  22.514  35.438  12.646
31559W        W98100   6.433  24.377   5.299
31560W        W98101  17.604  30.684   2.022
31561W        W98102  19.505   6.759  13.156
31562W        W98103   3.888   7.478   0.964
31563W        W98104   6.881  25.070  10.219
31564W        W98105  31.701  22.753  11.585
31565W        W98106  13.078   1.716   2.684
31566W        W98107  16.350  40.960   3.056
31567W        W98108  17.847  32.084   3.356
31568W        W98109   0.383  35.967   3.029
31569W        W98110  28.533  35.209  10.795
31570W        W98111  42.909  41.718  11.499
31571W        W98112  31.844  32.625  11.183
31572W        W98113   5.878  15.759   4.120
31573W        W98114  20.559  34.528   0.877
31574W        W98115   5.773  12.569  11.070
31575W        W98116  14.593  23.516   4.477
31576W        W98117  36.862  13.141   1.918
31577W        W98118  12.518  15.406  12.876
31578W        W98119  11.303  13.734   3.265
31579W        W98120   9.262  28.664  13.658
31580W        W98121  21.416  44.134  14.101
31581W        W98122  21.535  23.058  14.379
31582W        W98123  41.735  39.446   2.847
31583W        W98124  19.873  19.690   4.909
31584W        W98125   1.445  31.101  13.433
31585W        W98126   8.612  34.922   3.884
31586W        W98127  34.647  39.088  11.170
31587W        W98128   5.258  42.831   0.424
31588W        W98129   7.378  21.121  10.429
31589W        W98130  36.584  18.568  14.280
31590W        W98131   8.731  37.895   0.869
31591W        W98132   3.793  22.470   4.136
31592W        W98133  24.436  28.019  12.088
31593W        W98134  37.594   2.340   2.260
31594W        W98135  39.399   9.912   4.509
31595W        W98136  13.144   8.881   1.244
31596W        W98137   8.724  42.437  12.938
31597W        W98138   4.961   3.337  13.036
31598W        W98139  26.645   2.429  12.322
31599W        W98140  19.593  38.660   0.529
31600W        W98141  26.027  23.212   1.209
31601W        W98142  23.648  15.271  14.709
31602W        W98143  26.438  21.433  11.196
31603W        W98144  29.672   0.884   3.157
31604W        W98145  41.975  18.163   1.462
31605W        W98146  29.875  39.864   4.774
31606W        W98147  35.552  36.435   4.353
31607W        W98148  43.768  20.149  11.626
31608W        W98149   5.348   3.774  11.670
31609W        W98150  30.620   6.317  14.073
31610W        W98151  44.590  13.187  14.930
31611W        W98152   0.226  36.050  14.344
31612W        W98153  42.730  15.064  12.905
31613W        W98154  38.039  37.616  14.930
31614W        W98155  24.451  20.274  13.385
31615W        W98156  36.060   1.797  12.863
31616W        W98157  38.326  40.769  12.414
31617W        W98158  21.673  28.055  13.411
31618W        W98159  37.380  36.526   4.390
31619W        W98160  30.966  12.136   4.452
31620W        W98161  35.613  38.345  14.234
31621W        W98162  17.825  42.290   2.358
31622W        W98163  40.310  19.845  12.921
31623W        W98164   8.949  21.187   4.573
31624W        W98165   5.008   4.905   4.502
31625W        W98166  21.626  27.704   0.858
31626W        W98167   3.449  29.031   0.300
31627W        W98168  30.051   1.713   1.378
31628W        W98169  43.959  36.174   2.738
31629W        W98170  19.525  11.038   2.742
31630W        W98171   5.189  43.852   1.861
31631W        W98172  28.200   6.183   1.340
31632W        W98173   1.303  41.534   3.285
31633W        W98174  11.622  29.102  13.847
31634W        W98175  40.997   6.782  14.458
31635W        W98176   6.171  33.822  10.643
31636W        W98177  40.766  26.507  12.876
31637W        W98178  26.594  15.236   1.263
31638W        W98179  25.637  39.277  13.593
31639W        W98180  26.669   7.271  11.968
31640W        W98181  11.727  17.096   2.743
31641W        W98182   1.703  12.851   1.894
31642W        W98183   9.830  36.827  11.672
31643W        W98184  17.774  34.089   3.790
31644W        W98185  24.270   8.343  14.011
31645W        W98186   1.270  42.053  14.787
31646W        W98187   7.673  16.715   0.713
31647W        W98188  11.050  13.998   2.363
31648W        W98189  16.737  11.151  12.373
31649W        W98190   8.470  22.597  14.332
31650W        W98191  10.554  28.479   1.356
31651W        W98192  25.437  28.901   1.856
31652W        W98193  43.681  15.325   9.830
31653W        W98194   3.291   7.858   2.205
31654W        W98195  25.719  21.378   4.301
31655W        W98196   6.637  16.628  13.839
31656W        W98197  21.677  40.506   0.452
31657W        W98198  26.698   1.800   0.304
31658W        W98199  30.829  17.102  14.296
31659W        W98200  38.670  40.795  10.055
31660W        W98201  28.435  20.712   0.954
31661W        W98202  42.572  34.471   2.048
31662W        W98203  34.103  15.983  12.998
31663W        W98204  41.196  25.807  12.490
31664W        W98205  30.431  11.459  10.264
31665W        W98206  36.637   4.657   0.444
31666W        W98207  22.195  40.236  11.580
31667W        W98208  29.515  30.881  13.812
31668W        W98209  37.377  40.217   2.638
31669W        W98210  30.647  41.456   1.858
31670W        W98211  16.991  19.759  11.203
31671W        W98212  37.733   1.859   4.543
31672W        W98213  14.125  34.232  12.517
31673W        W98214   7.201  44.830   3.120
31674W        W98215  36.259  11.992   3.640
31675W        W98216  29.930  29.212   0.611
31676W        W98217  36.654   2.320   4.944
31677W        W98218  36.570   1.532   4.108
31678W        W98219   2.474  27.666  12.537
31679W        W98220  10.531  21.894   0.323
31680W        W98221  13.285  16.530   2.675
31681W        W98222   9.384  36.128  11.206
31682W        W98223  23.739   2.801   3.651
31683W        W98224   5.888   3.762  13.418
31684W        W98225  29.097  33.432   1.362
31685W        W98226  32.420  26.126  12.916
31686W        W98227  41.835  26.046   3.900
31687W        W98228  22.152  26.726   0.194
31688W        W98229  40.948   4.429  11.654
31689W        W98230   1.249   7.262  11.264
31690W        W98231  37.067  16.594  11.572
31691W        W98232   7.225  24.539   3.180
31692W        W98233  33.851   6.248   1.220
31693W        W98234  27.702  28.236  12.343
31694W        W98235  11.818  17.181   1.770
31695W        W98236  38.242   9.603   0.451
31696W        W98237   4.709  18.099   0.837
31697W        W98238  35.533   8.911   5.118
31698W        W98239  30.240  37.792   2.788
31699W        W98240  19.479  39.563  13.057
31700W        W98241  18.742  23.533   9.580
31701W        W98242  30.479  27.114   1.951
31702W        W98243  31.338  18.991   1.184
31703W        W98244  16.174   9.668   4.398
31704W        W98245   7.705  41.487  14.697
31705W        W98246  31.019   4.333  11.529
31706W        W98247  16.563  43.388  10.690
31707W        W98248  44.214  21.127  11.538
31708W        W98249  23.240  16.134  11.030
31709W        W98250  25.017  23.684   0.641
31710W        W98251  36.062   7.261   2.150
31711W        W98252  21.244  39.034  10.811
31712W        W98253  37.683  30.820   3.665
31713W        W98254  34.825   9.783   1.857
31714W        W98255  39.035  10.183  14.262
31715W        W98256  13.838  14.710  12.857
31716W        W98257  36.850  41.982   0.981
31717W        W98258   3.176   9.636  13.424
31718W        W98259  37.678  29.185   0.371
31719W        W98260  27.115   0.702   4.167
31720W        W98261  34.846   9.307   2.329
31721W        W98262  19.159  41.062  10.669
31722W        W98263  20.662  37.469  10.415
31723W        W98264  25.513  25.205  14.679
31724W        W98265  37.157   6.874   2.030
31725W        W98266  19.049   5.409  12.557
31726W        W98267  10.953   6.965  12.086
31727W        W98268  20.089   2.927  13.784
31728W        W98269  16.260  34.526   5.588
31729W        W98270  37.173   4.855  13.541
31730W        W98271  40.278  29.891   4.254
31731W        W98272  13.314  15.750   1.703
31732W        W98273  27.449  43.740   0.208
31733W        W98274  38.823  22.890  11.567
31734W        W98275  25.025  14.823   4.188
31735W        W98276  30.347  26.108  11.307
31736W        W98277  23.537  14.979  11.092
31737W        W98278  38.093  17.628   1.547
31738W        W98279   5.544  17.147   1.457
31739W        W98280   3.832  16.525  10.892
31740W        W98281  34.871   3.035  11.690
31741W        W98282  36.504  36.951  14.356
31742W        W98283   3.274  28.078  12.145
31743W        W98284   4.844  37.924  12.067
31744W        W98285  16.596  20.206  13.788
31745W        W98286   5.253  29.411  12.488
31746W        W98287  17.124  15.344  14.279
31747W        W98288  17.260  43.047  11.624
31748W        W98289  38.380  29.607   2.394
31749W        W98290  40.895  16.842   0.399
31750W        W98291  38.407   7.706  13.831
31751W        W98292  28.145  33.396  14.994
31752W        W98293  36.035   0.789  12.856
31753W        W98294  16.036  20.932  10.569
31754W        W98295  25.574  24.965  11.622
31755W        W98296  22.457  19.604   3.583
31756W        W98297   8.832  29.572   0.497
31757W        W98298   9.206  32.720  14.783
31758W        W98299  15.242   3.359  11.051
31759W        W98300  19.917  21.182  11.407
31760W        W98301  33.443  26.011  12.176
31761W        W98302   6.866   2.746   0.560
31762W        W98303   8.650  37.280   3.232
31763W        W98304  36.244  24.504  13.940
31764W        W98305  33.483  23.092  14.795
31765W        W98306  20.314  30.614   4.283
31766W        W98307  21.702  37.491  14.002
31767W        W98308  31.003  24.260  12.009
31768W        W98309  26.110  16.084   2.807
31769W        W98310  13.582  12.356  13.035
31770W        W98311  16.698  40.962   3.884
31771W        W98312  38.517   8.073   1.213
31772W        W98313  27.452   1.192  10.790
31773W        W98314  11.835  40.494  11.109
31774W        W98315  29.499  31.746   4.523
31775W        W98316   5.435   3.533   4.295
31776W        W98317  32.651  27.980   1.791
31777W        W98318   8.319   9.715  14.506
31778W        W98319  35.522  39.392  11.629
31779W        W98320  18.015  19.112  14.519
31780W        W98321   8.916  34.986   4.295
31781W        W98322  26.040  38.521  13.437
31782W        W98323  40.391   9.877  11.469
31783W        W98324  32.059  32.446  10.743
31784W        W98325  21.190  34.065   2.806
31785W        W98326   7.378   5.180   1.916
31786W        W98327  26.412  30.345   0.109
31787W        W98328  25.046  41.690   0.800
31788W        W98329  15.724  13.616  12.942
31789W        W98330  20.726   0.726   0.828
31790W        W98331  33.985  10.561   0.854
31791W        W98332  43.860  26.016   4.301
31792W        W98333   8.177   0.878   4.805
31793W        W98334   0.992   5.247  12.049
31794W        W98335  20.649  42.900   0.979
31795W        W98336  16.825  39.901   3.379
31796W        W98337  27.588  37.813   1.354
31797W        W98338   2.539  17.198   4.026
31798W        W98339   2.196   5.353   3.188
31799W        W98340   6.754  40.446   3.577
31800W        W98341  19.524  43.274   4.925
31801W        W98342  29.093  19.719  14.378
31802W        W98343  39.738  21.693  13.453
31803W        W98344  27.193  34.647  13.428
31804W        W98345  39.797  35.943  13.506
31805W        W98346   3.958  42.551   3.695
31806W        W98347  27.138  26.937  12.622
31807W        W98348  26.936  32.227   4.550
31808W        W98349  34.145  34.645  12.446
31809W        W98350   3.845  30.578  13.933
31810W        W98351   1.845  37.640   2.810
31811W        W98352   0.779  23.088   2.268
31812W        W98353  24.218  12.050  11.269
31813W        W98354  39.515  38.445  11.043
31814W        W98355  17.291  42.299   3.307
31815W        W98356  44.309   5.786  11.049
31816W        W98357  10.847  17.413  11.849
31817W        W98358  37.579  39.541   4.300
31818W        W98359  40.293  11.520  12.708
31819W        W98360  10.736   3.126  14.453
31820W        W98361  43.003  31.108   3.561
31821W        W98362  24.491  41.634  11.654
31822W        W98363  40.738  30.152   1.882
31823W        W98364   5.686  41.956  11.531
31824W        W98365  39.971  20.233  11.728
31825W        W98366  38.333  40.812  13.310
31826W        W98367  37.580  41.808   2.971
31827W        W98368  33.019  33.622   2.661
31828W        W98369  42.317  38.961  14.368
31829W        W98370  20.628  25.710  14.452
31830W        W98371  31.384  13.667  11.803
31831W        W98372  41.671   6.983   1.790
31832W        W98373  32.177  35.953   0.989
31833W        W98374  22.115  23.079  13.538
31834W        W98375  22.047  42.091   2.784
31835W        W98376  28.498  18.894  12.125
31836W        W98377  41.631  42.483   1.197
31837W        W98378  12.631  22.512  14.888
31838W        W98379  29.426  31.110   0.721
31839W        W98380  27.669  12.574  13.580
31840W        W98381  36.336  30.655  12.554
31841W        W98382  20.564  31.964   4.021
31842W        W98383   0.849  43.543   2.668
31843W        W98384  20.279   9.145   1.385
31844W        W98385  25.493  32.462  13.306
31845W        W98386  34.016  12.213   9.462
31846W        W98387  39.352  21.622   2.411
31847W        W98388  18.004  20.655   3.801
31848W        W98389  31.895  35.596   1.293
31849W        W98390  42.205  25.986  11.162
31850W        W98391   9.847  28.498   2.741
31851W        W98392  10.359  13.766   3.654
31852W        W98393  34.325  36.906   4.149
31853W        W98394  20.724   9.450  11.125
31854W        W98395  41.559  28.220   3.146
31855W        W98396  40.995  17.970   2.860
31856W        W98397  30.374   2.012  13.032
31857W        W98398  19.892   5.180   9.824
31858W        W98399  43.267   2.863   3.232
31859W        W98400   0.462  37.828   1.945
31860W        W98401   9.677  37.389   4.545
31861W        W98402  29.746  20.595   4.991
31862W        W98403  14.265   1.734   2.841
31863W        W98404  26.607  13.156  10.410
31864W        W98405   0.960  18.544   2.667
31865W        W98406  40.046  30.821   4.872
31866W        W98407  18.455  38.678   1.831
31867W        W98408   3.763   5.288   1.708
31868W        W98409   9.440   2.309  12.134
31869W        W98410  43.513  40.831  11.645
31870W        W98411   6.137  34.865   2.709
31871W        W98412  34.553  14.270  14.589
31872W        W98413  10.226  15.043   1.780
31873W        W98414  37.922  43.391   4.353
31874W        W98415  33.507   8.245  13.524
31875W        W98416  30.986  24.753  11.276
31876W        W98417  34.884  10.134  12.169
31877W        W98418  35.061  20.263   3.922
31878W        W98419  21.544  34.318   0.933
31879W        W98420   9.368  17.815  13.353
31880W        W98421  31.710  26.046   3.775
31881W        W98422  21.126  32.925   0.357
31882W        W98423  11.629   1.809   0.392
31883W        W98424   0.812  10.345  11.651
31884W        W98425  34.359  15.602  11.489
31885W        W98426  27.090  10.882  13.840
31886W        W98427  14.767   5.750   3.271
31887W        W98428  32.761  20.884  10.131
31888W        W98429  13.888  22.590  11.181
31889W        W98430  11.292   1.352  14.379
31890W        W98431   8.979  42.992  11.542
31891W        W98432  26.964  17.327   4.320
31892W        W98433   6.880  31.252   4.210
31893W        W98434   3.371  11.421  12.169
31894W        W98435  44.583   7.891   4.791
31895W        W98436  14.815   3.731  10.550
31896W        W98437  36.066  28.541  13.998
31897W        W98438  31.931   1.603   3.536
31898W        W98439  21.252  29.076  10.511
31899W        W98440  33.631  34.548  10.387
31900W        W98441  23.556  17.092  11.781
31901W        W98442   4.183  40.903   0.438
31902W        W98443  30.168   3.388   2.324
31903W        W98444  28.983  37.064   3.832
31904W        W98445  17.871   6.116   0.227
31905W        W98446  18.252  41.858  12.881
31906W        W98447   7.739  23.147   0.029
31907W        W98448   2.484  12.721  13.830
31908W        W98449  31.472  17.188  10.147
31909W        W98450  38.752  13.808  14.830
31910W        W98451  38.577   6.667   0.702
31911W        W98452  37.865  40.537   1.924
31912W        W98453   5.760   8.042   1.734
31913W        W98454   5.763  21.457   2.372
31914W        W98455  15.210   1.991   0.729
31915W        W98456  37.324  20.982  14.581
31916W        W98457  21.567  19.580  14.991
31917W        W98458  34.071  38.487   1.237
31918W        W98459  26.366  35.331  13.374
31919W        W98460  16.871  39.021   2.619
31920W        W98461  10.079  31.205   2.828
31921W        W98462  24.952  28.130   2.455
31922W        W98463  16.782   9.854   0.676
31923W        W98464  19.789  22.756  11.188
31924W        W98465  20.814  37.373   3.373
31925W        W98466  28.081   8.268  10.524
31926W        W98467  40.230  22.332   9.896
31927W        W98468  26.476  30.687   3.176
31928W        W98469  12.199  31.978   3.658
31929W        W98470  40.388   5.439  12.991
31930W        W98471  10.377  37.080   4.635
31931W        W98472  18.566  34.405   3.476
31932W        W98473  35.452  38.996  14.015
31933W        W98474  29.477  36.884  13.882
31934W        W98475  20.753  14.567   2.222
31935W        W98476  24.665  16.584   3.108
31936W        W98477  38.524   5.633  11.716
31937W        W98478  24.445   0.658  14.983
31938W        W98479  20.012  26.609  10.802
31939W        W98480  10.383   2.764  14.561
31940W        W98481   6.720  32.591   2.870
31941W        W98482  20.468  23.703  13.577
31942W        W98483   0.274  16.674  12.542
31943W        W98484  36.538  30.526  14.848
31944W        W98485   9.762  11.327  13.435
31945W        W98486  38.184  20.529   3.331
31946W        W98487  22.539  30.169  11.135
31947W        W98488  42.498  27.642  12.438
31948W        W98489   9.367  34.568  12.435
31949W        W98490  11.057  40.334  10.194
31950W        W98491  42.545  38.421  12.931
31951W        W98492  37.403  41.048   0.442
31952W        W98493   9.806  44.672   0.794
31953W        W98494  35.939  32.453  12.532
31954W        W98495   2.329  37.139   0.701
31955W        W98496   5.807  11.353   1.372
31956W        W98497  34.177   9.025  11.848
31957W        W98498  44.268   9.899  14.833
31958W        W98499  38.558  38.582  10.666
31959W        W98500  17.216   8.181  14.827
31960W        W98501  30.234  26.600   2.004
31961W        W98502   6.633   3.448   1.858
31962W        W98503   2.258  37.434   2.568
31963W        W98504  30.097   2.457  12.938
31964W        W98505   6.706  39.081   3.291
31965W        W98506  43.969  31.119  11.148
31966W        W98507   7.040  19.668   3.732
31967W        W98508  27.654  13.374   0.746
31968W        W98509   8.612  11.684   1.076
31969W        W98510  11.097  34.421  10.860
31970W        W98511  33.680   9.703  13.094
31971W        W98512   7.677   2.902   1.390
31972W        W98513  21.674  14.631   3.872
31973W        W98514  21.989  15.759  12.992
31974W        W98515   6.596  30.424   4.576
31975W        W98516   7.921  20.592   1.229
31976W        W98517  19.651  29.554  12.018
31977W        W98518  41.122  16.371   9.862
31978W        W98519  22.016  21.557   4.400
31979W        W98520  18.792  23.453  14.865
31980W        W98521  26.013  25.567   2.753
31981W        W98522   4.481  11.237   3.043
31982W        W98523   1.933   9.763   0.378
31983W        W98524  27.305  21.097   4.902
31984W        W98525   8.935  42.245  10.439
31985W        W98526   4.250  18.021  12.456
31986W        W98527   5.211  35.970   2.381
31987W        W98528  36.452  43.548   1.220
31988W        W98529  21.203  10.751   1.507
31989W        W98530   3.731   6.213   4.885
31990W        W98531  12.564  17.103   0.629
31991W        W98532  33.522   7.900   4.936
31992W        W98533  15.024  43.855  14.261
31993W        W98534  12.267  35.887   3.168
31994W        W98535  24.994  26.225   0.933
31995W        W98536  27.051   4.785  10.703
31996W        W98537  39.448  20.111  12.397
31997W        W98538  27.516  23.714  13.458
31998W        W98539  35.046   9.395   4.562
31999W        W98540   5.157   0.805  14.709
32000W        W98541  24.589  41.968   2.402
32001W        W98542  43.022  44.381   4.048
32002W        W98543   5.172  16.989   4.128
32003W        W98544  40.249  12.371  13.015
32004W        W98545  10.546  17.130   4.588
32005W        W98546  16.801  29.539  13.747
32006W        W98547  19.666  27.295   3.243
32007W        W98548  20.156  22.761   2.033
32008W        W98549  26.780  38.958  11.409
32009W        W98550   4.010  43.646   4.735
32010W        W98551   2.081  12.201   3.293
32011W        W98552  29.478  22.899   1.893
32012W        W98553  26.687   5.100   1.984
32013W        W98554  42.951  22.116   1.235
32014W        W98555  37.503  36.552   2.397
32015W        W98556  44.687  13.249  10.619
32016W        W98557  22.189  11.690   2.769
32017W        W98558  21.541  26.883  10.568
32018W        W98559  22.651  38.805  11.575
32019W        W98560   6.351   9.236   3.661
32020W        W98561  33.631  33.109   3.194
32021W        W98562  25.675  20.202  13.936
32022W        W98563  16.806  27.288  14.362
32023W        W98564  24.733   2.468   1.392
32024W        W98565  30.111  43.362   1.005
32025W        W98566  26.704  22.124   3.613
32026W        W98567  26.968   1.770  10.685
32027W        W98568   9.715   1.355  10.687
32028W        W98569  14.631   1.595   3.435
32029W        W98570   7.372  29.698   0.627
32030W        W98571  33.840  28.864   3.734
32031W        W98572   5.313  27.781   0.696
32032W        W98573   7.256   1.510  12.119
32033W        W98574  24.196  24.786   2.233
32034W        W98575  29.880   4.832  12.036
32035W        W98576   8.770   0.726  11.167
32036W        W98577   4.829  12.129   0.371
32037W        W98578  22.130  13.877  12.642
32038W        W98579  44.090  13.771  13.961
32039W        W98580  35.930  38.944   0.772
32040W        W98581   9.818  13.055  10.677
32041W        W98582  41.572  41.766  13.614
32042W        W98583   1.230  31.102  13.917
32043W        W98584  41.865  19.340  13.458
32044W        W98585  21.101  29.582  10.466
32045W        W98586  28.906  14.767   3.296
32046W        W98587   9.735   4.777  13.477
32047W        W98588  30.580   6.817  10.531
32048W        W98589  44.341  38.038   4.129
32049W        W98590  31.544  28.599   0.231
32050W        W98591  23.553  27.247   4.167
32051W        W98592   2.456  14.161   4.546
32052W        W98593   0.290  28.382  11.176
32053W        W98594  40.768  23.841  14.503
32054W        W98595   3.261  40.073  11.950
32055W        W98596  31.904  13.166  14.811
32056W        W98597   9.753  12.644  10.320
32057W        W98598  41.429  35.964  13.018
32058W        W98599  17.767  41.887  12.659
32059W        W98600  39.612  44.026   2.307
32060W        W98601  32.115  25.308  10.276
32061W        W98602  10.721  14.380   2.388
32062W        W98603  41.301   7.938  13.959
32063W        W98604  43.710  26.908   2.737
32064W        W98605  34.664   7.795  11.602
32065W        W98606  37.846  21.669   3.380
32066W        W98607  31.624   5.033   9.948
32067W        W98608  42.461   3.879  10.941
32068W        W98609  17.077  14.872  11.881
32069W        W98610  21.472  28.798  13.848
32070W        W98611  31.494  12.136  12.172
32071W        W98612  11.740  25.982   3.292
32072W        W98613  21.066   1.375  14.796
32073W        W98614  36.657  34.489   4.469
32074W        W98615  11.680  28.259  14.849
32075W        W98616  30.089  40.881   2.857
32076W        W98617  22.368  35.232   0.446
32077W        W98618  12.218  17.323  13.517
32078W        W98619  23.298   4.328   0.887
32079W        W98620  43.922  35.411  14.920
32080W        W98621   1.929  18.260  14.402
32081W        W98622  14.346  34.159  12.051
32082W        W98623  32.542   9.903   3.202
32083W        W98624  12.412  44.064   0.435
32084W        W98625  12.846  23.350  11.568
32085W        W98626  33.815  26.102  13.055
32086W        W98627  40.617  23.552   2.177
32087W        W98628  23.019  40.978   1.325
32088W        W98629  19.454   6.752  10.619
32089W        W98630   0.662  40.703   5.115
32090W        W98631  37.639  27.025  11.541
32091W        W98632  22.275  15.326  14.939
32092W        W98633   5.370  13.563   2.881
32093W        W98634  25.584  27.451   2.712
32094W        W98635  30.159  17.145   0.810
32095W        W98636   5.285  19.572   5.151
32096W        W98637  35.615  13.346  10.766
32097W        W98638   2.247  38.206  14.256
32098W        W98639  35.778   1.315  11.544
32099W        W98640  18.996  38.006  10.684
32100W        W98641  24.709  42.943   1.809
32101W        W98642  34.971  22.457   4.642
32102W        W98643  26.665  20.649   1.391
32103W        W98644  16.711  21.777   0.792
32104W        W98645   8.267  10.686   0.843
32105W        W98646  16.717  10.959   0.800
32106W        W98647  38.365  44.699  11.623
32107W        W98648   1.674  25.038   1.626
32108W        W98649  10.696  27.508   0.672
32109W        W98650  44.032  23.670   0.429
32110W        W98651   7.747  44.852   1.419
32111W        W98652  33.727  43.095   4.925
32112W        W98653   7.816  22.787  10.368
32113W        W98654  16.284  27.975  13.899
32114W        W98655  24.482  32.534   1.811
32115W        W98656  34.486  44.453  14.553
32116W        W98657   1.392  14.045   2.409
32117W        W98658  24.974  18.785  12.068
32118W        W98659   3.869  15.758   0.008
32119W        W98660  40.494  42.626   4.850
32120W        W98661  35.419  10.873   2.693
32121W        W98662  23.599  27.506   4.620
32122W        W98663  43.322  15.152   2.726
32123W        W98664  12.836  30.599  12.467
32124W        W98665  23.446  31.884  11.947
32125W        W98666   4.864  38.861  10.664
32126W        W98667  30.868  34.038   3.383
32127W        W98668  43.598  13.891   2.689
32128W        W98669   5.285  42.026  14.543
32129W        W98670  20.083  42.618   1.570
32130W        W98671  23.774   5.610   3.189
32131W        W98672  38.833  44.903   0.650
32132W        W98673  39.450  30.128  12.112
32133W        W98674  42.813  44.069  12.881
32134W        W98675  42.765  38.166   1.209
32135W        W98676  28.106  13.083  12.398
32136W        W98677  18.103  32.684   4.084
32137W        W98678  14.023  20.194  14.948
32138W        W98679  31.456  29.090   0.448
32139W        W98680  29.679   3.184  11.293
32140W        W98681  19.309  12.138  11.212
32141W        W98682   8.897  43.475   1.629
32142W        W98683   1.451  42.895   5.067
32143W        W98684   0.191  29.954  11.599
32144W        W98685   3.695  13.755   0.946
32145W        W98686  42.909  38.023   2.703
32146W        W98687  27.661  35.302   1.406
32147W        W98688  40.825  34.186  11.940
32148W        W98689  36.327   4.645   0.870
32149W        W98690  12.790  43.880  11.534
32150W        W98691  10.461  11.846   1.984
32151W        W98692  15.830  42.976  14.546
32152W        W98693  20.131  35.087   1.125
32153W        W98694   8.467  19.081   4.949
32154W        W98695  29.488  25.263   4.174
32155W        W98696  28.111  16.258  11.281
32156W        W98697  13.675  28.694   4.516
32157W        W98698  28.414  13.007  10.259
32158W        W98699  33.576  29.077   0.641
32159W        W98700  32.836  29.296  14.570
32160W        W98701   5.432  35.338   1.707
32161W        W98702  12.315   0.676   3.229
32162W        W98703   4.279  23.619   2.778
32163W        W98704  42.117  39.546  12.030
32164W        W98705  20.822  43.970  11.082
32165W        W98706  36.044  42.017  10.687
32166W        W98707  13.194   4.242   0.235
32167W        W98708  19.593  10.044   1.469
32168W        W98709  42.853  18.139   3.227
32169W        W98710  28.683   9.396  12.972
32170W        W98711  28.713  27.364  11.199
32171W        W98712  17.740  15.464   1.886
32172W        W98713  38.688  21.061  12.122
32173W        W98714  44.756  34.121   4.568
32174W        W98715  41.499   9.614  14.910
32175W        W98716  35.333  19.727   0.159
32176W        W98717  20.491   2.879  14.110
32177W        W98718  34.094  27.867  14.472
32178W        W98719  21.039   3.311   1.300
32179W        W98720  31.931  17.712  11.191
32180W        W98721   4.932   9.229   2.394
32181W        W98722  14.659  19.617   3.913
32182W        W98723   7.838  12.310   0.921
32183W        W98724  15.224  34.941   2.634
32184W        W98725  14.437   3.476  11.574
32185W        W98726  21.737  42.342  14.944
32186W        W98727  15.281  41.411   2.062
32187W        W98728  24.994  18.093   1.612
32188W        W98729   6.750  37.732  14.735
32189W        W98730  22.594  36.608   0.786
32190W        W98731  14.667  12.758   4.466
32191W        W98732   1.742  44.274  12.835
32192W        W98733  11.364  12.816   2.860
32193W        W98734   6.955  38.289   3.715
32194W        W98735  15.778   2.492   0.436
32195W        W98736  31.434  23.350   3.226
32196W        W98737  13.857   1.345  12.236
32197W        W98738  17.742  43.327  10.688
32198W        W98739  42.480   1.828   0.462
32199W        W98740   6.289  42.786  14.490
32200W        W98741  12.302  36.622  11.593
32201W        W98742   8.710  19.792   4.812
32202W        W98743  20.062  13.343  13.543
32203W        W98744  12.287   0.431  13.180
32204W        W98745  11.216  22.309  14.877
32205W        W98746  28.613  12.088  11.543
32206W        W98747  11.635   0.263   3.819
32207W        W98748  25.070  26.973  13.769
32208W        W98749  41.516  35.523   0.367
32209W        W98750  15.779  22.734  10.744
32210W        W98751  34.063   4.550  10.732
32211W        W98752   1.515  34.163   2.367
32212W        W98753   7.376  40.102   0.010
32213W        W98754  42.574  28.507  12.629
32214W        W98755  28.561   0.825  11.647
32215W        W98756   5.391  16.187   3.741
32216W        W98757  30.465  27.005   3.958
32217W        W98758  22.650  11.541  10.719
32218W        W98759  18.156  10.576  13.887
32219W        W98760  32.230  14.211   0.473
32220W        W98761  23.749  40.302   2.316
32221W        W98762  44.504  37.396   1.354
32222W        W98763  14.682   1.443   2.919
32223W        W98764  12.078  32.259   4.117
32224W        W98765  32.983  15.713  10.685
32225W        W98766   3.830   7.648  10.686
32226W        W98767  15.818  30.751   2.906
32227W        W98768  10.331  17.567   0.390
32228W        W98769  36.511  11.847   2.486
32229W        W98770   3.006  20.247  11.207
32230W        W98771  21.249   1.159  14.312
32231W        W98772  14.710   7.293   1.415
32232W        W98773  22.444  14.139  13.487
32233W        W98774  29.625   4.204  13.209
32234W        W98775  20.235   8.794   0.171
32235W        W98776  29.805  44.758   4.497
32236W        W98777  12.334  41.174  11.072
32237W        W98778  21.536  42.754  13.763
32238W        W98779  28.993  37.611   0.234
32239W        W98780  12.181  29.141  12.552
32240W        W98781  36.472   0.540   4.091
32241W        W98782  19.242  26.964  12.230
32242W        W98783  32.612   7.700   4.230
32243W        W98784  38.883  35.501  12.050
32244W        W98785   3.319  12.282  13.115
32245W        W98786  22.045  31.719   1.790
32246W        W98787  24.293  34.377   3.724
32247W        W98788  17.571  44.789  12.046
32248W        W98789  33.938  18.626   3.724
32249W        W98790  29.551  22.915   0.931
32250W        W98791  29.099   4.862   4.381
32251W        W98792  43.897  41.026  12.397
32252W        W98793  44.872  11.201  12.125
32253W        W98794  43.583  17.043   3.594
32254W        W98795  24.016   4.227  11.674
32255W        W98796  37.627  33.400   4.117
32256W        W98797  16.650  17.656   0.492
32257W        W98798  32.997   9.333   1.185
32258W        W98799  16.763   7.095   2.347
32259W        W98800   0.288  43.368   4.258
32260W        W98801  42.567  26.883   0.380
32261W        W98802  11.810  40.639   0.343
32262W        W98803   0.838  40.523   4.652
32263W        W98804  11.681  13.468  13.162
32264W        W98805  43.330  42.216   0.903
32265W        W98806   1.662   8.383   4.037
32266W        W98807   1.024  25.637   0.056
32267W        W98808  30.389   4.475  10.862
32268W        W98809  43.252  26.223   3.644
32269W        W98810  25.641  20.762   2.963
32270W        W98811  12.873  35.101   3.161
32271W        W98812  13.148  14.198  13.362
32272W        W98813  19.449  37.047  14.324
32273W        W98814  40.082  38.499  11.989
32274W        W98815  25.563  26.614  14.110
32275W        W98816  41.375  36.939  12.183
32276W        W98817  43.170  16.328   1.794
32277W        W98818  11.437  39.823   4.498
32278W        W98819  32.743  23.987   0.431
32279W        W98820  29.048  40.097   0.913
32280W        W98821  38.734  38.987   1.337
32281W        W98822  17.090  18.471  11.539
32282W        W98823  29.224  33.394  12.433
32283W        W98824   8.288   0.792  10.583
32284W        W98825  28.032   3.224   2.309
32285W        W98826  41.456   4.343   4.268
32286W        W98827  35.654   5.001  12.498
32287W        W98828  39.857   5.722  10.720
32288W        W98829  36.878  11.674   3.231
32289W        W98830  11.583  39.852  12.144
32290W        W98831  18.182  22.295   2.872
32291W        W98832   9.762  29.338  11.061
32292W        W98833  28.090  16.703  12.376
32293W        W98834  32.506  16.315   0.193
32294W        W98835  19.682  26.694   2.465
32295W        W98836  13.445  22.148  11.874
32296W        W98837  29.687   3.249  14.164
32297W        W98838  34.412  10.352   1.045
32298W        W98839  33.550  25.136  12.885
32299W        W98840  16.769  21.934  13.358
32300W        W98841   6.412  34.438  14.825
32301W        W98842  39.495  44.005  13.887
32302W        W98843  27.924  42.301  14.335
32303W        W98844  22.937  17.223   2.709
32304W        W98845  41.503  38.970   2.839
32305W        W98846   7.664  17.343  13.198
32306W        W98847  11.988  27.405   0.124
32307W        W98848   1.997  22.522  14.528
32308W        W98849  19.746  43.844   0.207
32309W        W98850  33.040  44.318   4.897
32310W        W98851  26.424  31.967   1.813
32311W        W98852  44.471  42.750   2.635
32312W        W98853  20.094   0.596  14.479
32313W        W98854  27.922  27.003  11.278
32314W        W98855  16.559  40.193  12.432
32315W        W98856  19.857  43.828   3.356
32316W        W98857   1.786  24.939  12.980
32317W        W98858  25.890  42.847  12.477
32318W        W98859  11.691  28.935   4.383
32319W        W98860  40.016   4.483   1.173
32320W        W98861  22.329  17.139   4.555
32321W        W98862   2.309  31.769  11.444
32322W        W98863  25.801  26.542  14.597
32323W        W98864  27.605  39.425  14.409
32324W        W98865  28.981  14.778  14.802
32325W        W98866  21.365  33.965  11.467
32326W        W98867   5.662   3.306  11.027
32327W        W98868  34.478   6.357  14.512
32328W        W98869  41.805  11.755  11.713
32329W        W98870  11.743   9.646   3.287
32330W        W98871  33.907   4.937   1.189
32331W        W98872  27.819   7.415  11.203
32332W        W98873  34.337  25.728  13.406
32333W        W98874  31.162  35.674  12.475
32334W        W98875   4.829   4.251  10.669
32335W        W98876  36.640  30.699   1.796
32336W        W98877   3.714   0.928   0.804
32337W        W98878  35.620   3.947   4.234
32338W        W98879  19.768  33.573  13.296
32339W        W98880  16.310   6.930   4.106
32340W        W98881  16.487  40.534  12.846
32341W        W98882   3.768  11.160   2.354
32342W        W98883  43.225   9.355   2.799
32343W        W98884  13.619  21.080   1.188
32344W        W98885   7.728  22.030  11.528
32345W        W98886  37.993  39.345   4.042
32346W        W98887  17.440  14.641   1.127
32347W        W98888   5.379   3.173   2.197
32348W        W98889   6.569  14.240  13.519
32349W        W98890   7.016   2.956  10.263
32350W        W98891  33.081  18.582  12.399
32351W        W98892  33.422  26.482  11.903
32352W        W98893  33.716  23.622   4.340
32353W        W98894  26.252  13.107  12.152
32354W        W98895   9.956  16.252  14.082
32355W        W98896  21.994  42.853  14.817
32356W        W98897   0.716  30.075   3.841
32357W        W98898  18.014  38.996  11.176
32358W        W98899  36.392  41.292   1.787
32359W        W98900  37.511  25.931   1.036
32360W        W98901   6.407  22.418  11.188
32361W        W98902  22.297  22.540   1.771
32362W        W98903  32.800  43.531  13.016
32363W        W98904  29.445  25.516  10.962
32364W        W98905  29.025  27.104  12.937
32365W        W98906  22.657   7.340  10.293
32366W        W98907  40.087  12.608   0.291
32367W        W98908  30.510   5.093   2.327
32368W        W98909   4.245  26.492   5.427
32369W        W98910  44.304  31.135  13.944
32370W        W98911  26.580  23.509  11.643
32371W        W98912  43.761   3.269   2.654
32372W        W98913  24.734   7.307  10.650
32373W        W98914   6.178  11.902   2.150
32374W        W98915  32.387   5.455   2.297
32375W        W98916  33.196  35.542  13.492
32376W        W98917  34.074  21.307   0.070
32377W        W98918  29.115  16.409  14.349
32378W        W98919   5.904  12.316  12.454
32379W        W98920   7.750  13.790   1.659
32380W        W98921   9.771  10.359  11.102
32381W        W98922  39.677   8.771   0.819
32382W        W98923  44.782  10.924   3.317
32383W        W98924  16.199  40.079   4.614
32384W        W98925  39.303  31.589   3.037
32385W        W98926  19.114  40.914  12.039
32386W        W98927  42.837  27.163   5.004
32387W        W98928  10.250  35.344   3.793
32388W        W98929  20.496  20.237  13.531
32389W        W98930  13.569  19.189  10.646
32390W        W98931   3.229  22.188  12.430
32391W        W98932  40.529  18.646   3.587
32392W        W98933  25.891   8.179   3.173
32393W        W98934  32.588  38.975  12.459
32394W        W98935  15.720  19.464  11.560
32395W        W98936   4.227  14.866  12.836
32396W        W98937  11.412  24.390   2.715
32397W        W98938  43.226  20.900  11.213
32398W        W98939  27.636  12.677   3.936
32399W        W98940   7.664  13.941   2.149
32400W        W98941  41.772   7.679   3.722
32401W        W98942  38.029  20.195  13.994
32402W        W98943  34.227  19.441  11.656
32403W        W98944  10.767  23.233   2.967
32404W        W98945  32.029  41.135   2.054
32405W        W98946  28.161  30.906  11.109
32406W        W98947   6.846  18.319   4.869
32407W        W98948   0.302  31.989  13.593
32408W        W98949  33.147  20.534  11.605
32409W        W98950  27.710  11.599   4.409
32410W        W98951   1.834  17.645   3.646
32411W        W98952   3.723   0.882  14.676
32412W        W98953  42.979  10.014  12.041
32413W        W98954  26.413   4.281   4.596
32414W        W98955  35.429  33.498   4.647
32415W        W98956   1.884   0.405  12.898
32416W        W98957  13.349   1.802   1.248
32417W        W98958  19.754  31.122   1.839
32418W        W98959  13.569   5.827  12.503
32419W        W98960  36.568  15.072   3.268
32420W        W98961  10.821   7.914   3.658
32421W        W98962  13.885  17.343  14.504
32422W        W98963   9.904   4.849  14.928
32423W        W98964  16.189   8.403   0.662
32424W        W98965  24.419  44.267  12.578
32425W        W98966  23.073  42.901   5.134
32426W        W98967  28.051  32.808   0.985
32427W        W98968  11.368  26.089  11.706
32428W        W98969  33.559  35.383   4.612
32429W        W98970   2.860  13.122  14.351
32430W        W98971  27.347  12.373  11.094
32431W        W98972   6.537   4.322  14.312
32432W        W98973   1.568  25.607   2.793
32433W        W98974  32.098  36.451   3.231
32434W        W98975  39.361  41.527  13.805
32435W        W98976  41.436  44.081  10.444
32436W        W98977  39.738  36.238  12.546
32437W        W98978  31.890  26.184   0.942
32438W        W98979  31.165  30.835  12.548
32439W        W98980   8.757  35.953  11.879
32440W        W98981   2.932  37.974  10.694
32441W        W98982  19.023  25.113  10.635
32442W        W98983   7.658  16.818  13.065
32443W        W98984  34.572  31.473  13.007
32444W        W98985  37.610  31.336   3.648
32445W        W98986  34.632  25.505  11.627
32446W        W98987  34.401  23.064  10.967
32447W        W98988   8.867   4.815   0.415
32448W        W98989   2.714   1.496  14.900
32449W        W98990   1.218   5.147   3.735
32450W        W98991   8.067  24.582   3.600
32451W        W98992   0.604  26.288  12.928
32452W        W98993  25.393  29.854   4.236
32453W        W98994   4.773  21.760   3.595
32454W        W98995  21.303   7.931   1.383
32455W        W98996  18.902   5.395   4.307
32456W        W98997  35.617  16.081  14.471
32457W        W98998  41.994  38.757   3.153
32458W        W98999  44.740  28.172  14.205
32459W        W99000   0.963  43.852   4.580
32460W        W99001  30.838   6.284   3.711
32461W        W99002  41.633  18.794   0.374
32462W        W99003  24.123   3.411  11.986
32463W        W99004  24.376  43.823  14.453
32464W        W99005  18.055  16.415  14.785
32465W        W99006  33.018  17.235   4.874
32466W        W99007   4.381  23.050   5.129
32467W        W99008  30.363  21.954  13.745
32468W        W99009  25.691  34.847   3.322
32469W        W99010  42.295  18.768   1.002
32470W        W99011  23.225  18.230   2.320
32471W        W99012  31.000   5.127   3.756
32472W        W99013   5.424   5.037   0.699
32473W        W99014  18.167   6.854  14.075
32474W        W99015  32.947  23.146   4.375
32475W        W99016  34.223  32.484   1.785
32476W        W99017  42.445  20.813  14.877
32477W        W99018  13.161  14.967   2.663
32478W        W99019   3.032  41.335   2.815
32479W        W99020  22.903   8.438   4.261
32480W        W99021  44.071  14.307  13.866
32481W        W99022   4.918  33.537   2.645
32482W        W99023  43.037  34.348  12.066
32483W        W99024  35.041  38.985  10.061
32484W        W99025  44.773  10.414   2.842
32485W        W99026   1.362  36.031  14.894
32486W        W99027   5.998  17.956  14.916
32487W        W99028  27.999  44.852   0.762
32488W        W99029  41.956  11.989  13.429
32489W        W99030  40.199  29.238   4.999
32490W        W99031  24.547  33.040   3.684
32491W        W99032  22.625  16.276   1.923
32492W        W99033   8.148  15.096  14.015
32493W        W99034  42.797   5.414  12.873
32494W        W99035  23.194   4.635   2.263
32495W        W99036  40.763  25.446   3.329
32496W        W99037  20.274  18.087  10.154
32497W        W99038  31.559  42.353   4.690
32498W        W99039  10.161   7.199  10.472
32499W        W99040  13.055  15.510  12.127
32500W        W99041  11.849  43.691   3.516
32501W        W99042  13.781   6.803   1.325
32502W        W99043  27.009  21.242  11.217
32503W        W99044  31.282  36.918   4.025
32504W        W99045  41.774  18.630   1.830
32505W        W99046  33.162  13.901  13.499
32506W        W99047  13.850  33.057  11.070
32507W        W99048   4.887   5.248   4.140
32508W        W99049   2.878  27.201  11.189
32509W        W99050  29.186  21.834   1.065
32510W        W99051  18.888  17.735  13.100
32511W        W99052  26.656   8.174  13.801
32512W        W99053   3.836  31.166  12.583
32513W        W99054  43.228  38.398   3.745
32514W        W99055  12.687  11.257  14.742
32515W        W99056  10.781  23.449   2.497
32516W        W99057  40.382  14.776  13.720
32517W        W99058  32.800  39.048  14.111
32518W        W99059  40.135  41.805   3.360
32519W        W99060  33.369  23.277  12.006
32520W        W99061   7.759   6.693   4.516
32521W        W99062   8.599  23.723   2.009
32522W        W99063  20.515   2.405  10.689
32523W        W99064   6.799  33.949  12.952
32524W        W99065  29.016   1.007  11.856
32525W        W99066  29.018  20.555  13.016
32526W        W99067  28.119  14.335  12.055
32527W        W99068  27.644  33.089   0.859
32528W        W99069  43.422   8.835  13.766
32529W        W99070  16.312   7.132   0.433
32530W        W99071  14.749   0.765  12.924
32531W        W99072  27.339  32.557   4.554
32532W        W99073   9.752  36.669   4.109
32533W        W99074   4.797  24.691   1.318
32534W        W99075  42.227   0.972  14.937
32535W        W99076  43.556   6.299  14.017
32536W        W99077  12.033  15.765   0.395
32537W        W99078  11.682  20.763   1.260
32538W        W99079   1.612   7.239  13.402
32539W        W99080  14.014  28.293   2.431
32540W        W99081  33.386  11.389  10.771
32541W        W99082  43.474  24.499   2.389
32542W        W99083   4.652  11.219   2.167
32543W        W99084  29.461  19.938   4.200
32544W        W99085  43.316  28.009  12.595
32545W        W99086   5.805   0.484   0.394
32546W        W99087  10.418  12.107   3.618
32547W        W99088   8.787  36.442   0.038
32548W        W99089  29.507  37.148  11.657
32549W        W99090  38.074   9.895  13.666
32550W        W99091  32.164  43.986   2.834
32551W        W99092   3.678  34.234   0.150
32552W        W99093   4.399  27.108  13.627
32553W        W99094  15.592  42.330   4.594
32554W        W99095  43.258  42.731   1.004
32555W        W99096   1.161   2.487  14.534
32556W        W99097  21.733  20.826   3.777
32557W        W99098  18.316   8.789   3.878
32558W        W99099  43.315  29.610   4.154
32559W        W99100  19.269  13.403   2.822
32560W        W99101  42.457   7.719   4.328
32561W        W99102   3.003  31.407   3.283
32562W        W99103  22.161   3.973   9.771
32563W        W99104  20.770  14.181   0.565
32564W        W99105  15.171  20.232  14.048
32565W        W99106  40.963  41.977  12.262
32566W        W99107  10.715  17.229  12.902
32567W        W99108  10.899  43.132   2.293
32568W        W99109  27.299  21.455   3.508
32569W        W99110  11.684  30.040  11.237
32570W        W99111  33.308  35.432   4.154
32571W        W99112   6.856  40.591  11.152
32572W        W99113  43.064  26.895   1.914
32573W        W99114  23.986   5.495  12.202
32574W        W99115   0.805  39.002  10.052
32575W        W99116  14.384  44.495  10.512
32576W        W99117  42.537  40.581  12.874
32577W        W99118  43.181   4.239  14.896
32578W        W99119   5.224  25.610  13.524
32579W        W99120  18.169  41.727  13.874
32580W        W99121  12.550  24.849   4.581
32581W        W99122  22.029   8.858  11.418
32582W        W99123  29.143  13.549   1.714
32583W        W99124  11.177   6.663   2.495
32584W        W99125  33.966   0.598   5.366
32585W        W99126  35.835  26.299   1.027
32586W        W99127  35.877  15.813   1.874
32587W        W99128   7.976  31.962   4.957
32588W        W99129  41.716  29.695  13.160
32589W        W99130  30.790   8.761   1.466
32590W        W99131   4.949  42.909  10.866
32591W        W99132  25.491  17.448  12.173
32592W        W99133  12.778  36.342  13.563
32593W        W99134  22.268  20.768  10.539
32594W        W99135  26.766  25.429   3.219
32595W        W99136  29.029  36.479   2.828
32596W        W99137  38.980  20.058   3.012
32597W        W99138  10.362  33.870   0.526
32598W        W99139   4.129   8.932  12.489
32599W        W99140  10.344  40.874   2.822
32600W        W99141  38.899  10.144  12.162
32601W        W99142  17.676  34.928  12.504
32602W        W99143   7.568   4.560  11.104
32603W        W99144  34.830  14.307  11.055
32604W        W99145  13.853  27.923   4.064
32605W        W99146  31.149  15.091   0.942
32606W        W99147  31.377  25.612   4.529
32607W        W99148   0.848  24.401  14.254
32608W        W99149  35.027   4.855   3.124
32609W        W99150  10.384   7.604  11.744
32610W        W99151  12.316  21.081  11.121
32611W        W99152  38.521  25.929   2.324
32612W        W99153  43.531  11.877  13.768
32613W        W99154   9.396  25.482   2.452
32614W        W99155   0.724  38.986  12.207
32615W        W99156  24.756   0.358   3.184
32616W        W99157  42.457   5.173  12.399
32617W        W99158  13.283  21.928   1.924
32618W        W99159  20.243  31.006   2.683
32619W        W99160  32.696  43.329   1.859
32620W        W99161   8.229   8.608  12.160
32621W        W99162  44.091   1.811  13.006
32622W        W99163   1.086  28.601   1.303
32623W        W99164  10.600   0.902   4.558
32624W        W99165  15.489  41.325  14.874
32625W        W99166  16.287  35.898  13.002
32626W        W99167  37.566  20.570  12.605
32627W        W99168  19.550  25.997  14.019
32628W        W99169  38.062  18.621   1.922
32629W        W99170   9.318  11.135   1.825
32630W        W99171  33.446  39.134   4.085
32631W        W99172  40.827   0.434   3.708
32632W        W99173  22.271   8.377   0.731
32633W        W99174  21.647   7.927  12.020
32634W        W99175  32.928  20.873  12.966
32635W        W99176   9.043   1.002   3.742
32636W        W99177  24.804   4.560   0.874
32637W        W99178  16.182  19.611   2.300
32638W        W99179  18.054  39.743   1.028
32639W        W99180  14.822  24.761   0.688
32640W        W99181  20.411  29.457  11.566
32641W        W99182  28.834   5.794   0.257
32642W        W99183  30.560   0.506  11.506
32643W        W99184  20.422   7.546  13.120
32644W        W99185   1.668  22.630  11.134
32645W        W99186  44.664  29.214   4.303
32646W        W99187  14.830  11.436  14.958
32647W        W99188  41.334  14.212   0.360
32648W        W99189   8.117  10.707   3.630
32649W        W99190  15.042  28.990  12.422
32650W        W99191  27.590   0.794   0.807
32651W        W99192  42.231  33.105   1.027
32652W        W99193  37.210  20.190  12.612
32653W        W99194  30.895  15.166  12.527
32654W        W99195  33.936  43.569   1.746
32655W        W99196   2.666   8.291  14.840
32656W        W99197  38.000   5.101  10.684
32657W        W99198  21.812  20.692   0.446
32658W        W99199  25.242  15.029   3.715
32659W        W99200   2.128   9.715   1.781
32660W        W99201   8.129  31.169   4.477
32661W        W99202  37.304  23.466  12.233
32662W        W99203  10.765   7.145   1.359
32663W        W99204  29.006  28.889   1.753
32664W        W99205  33.884  38.627  14.789
32665W        W99206  22.194  15.628   4.586
32666W        W99207  39.863  23.231   3.157
32667W        W99208  19.551  18.611   1.898
32668W        W99209  24.506   1.281  12.453
32669W        W99210  29.360  43.530  14.469
32670W        W99211  39.094  14.753   2.465
32671W        W99212  22.752  21.677   0.894
32672W        W99213  13.844  10.762   2.747
32673W        W99214   6.534  24.696  13.302
32674W        W99215  34.873  20.061  14.850
32675W        W99216  36.916   8.793  14.459
32676W        W99217  35.446  23.961  12.685
32677W        W99218   2.861  19.102   4.525
32678W        W99219  26.262  33.514   4.917
32679W        W99220  41.113  14.458   3.223
32680W        W99221  18.136  18.409  13.895
32681W        W99222   8.205   7.930  12.098
32682W        W99223  15.366  41.433   4.917
32683W        W99224  39.004  33.857  10.643
32684W        W99225  17.202  19.440   0.505
32685W        W99226   4.869   4.484   2.131
32686W        W99227  41.485  34.053   2.640
32687W        W99228   7.856  32.698  11.046
32688W        W99229  12.311  42.445  12.475
32689W        W99230   8.742   6.492   2.664
32690W        W99231  35.997  31.131   0.200
32691W        W99232  23.601   0.858   4.608
32692W        W99233  27.509  13.883   2.968
32693W        W99234  35.028  13.217  14.487
32694W        W99235  42.234  29.208   3.535
32695W        W99236  32.984  35.226  12.548
32696W        W99237   1.362  26.118   4.045
32697W        W99238  35.312   1.706   0.290
32698W        W99239  25.684  41.311   2.295
32699W        W99240  40.660  25.053   5.134
32700W        W99241  21.996   9.800   1.921
32701W        W99242   6.386  13.241  12.071
32702W        W99243   5.730  44.146  13.427
32703W        W99244  28.221  23.651   3.239
32704W        W99245  35.940  31.948  12.712
32705W        W99246  23.060  44.200  12.433
32706W        W99247   3.397  21.582  14.359
32707W        W99248  17.602  16.657   4.102
32708W        W99249  29.877   8.327   4.097
32709W        W99250  10.468  27.649  11.656
32710W        W99251  36.689  22.869   1.815
32711W        W99252  13.200   8.739   4.430
32712W        W99253  17.563  13.223  11.373
32713W        W99254   9.399  15.057   1.311
32714W        W99255  20.056   6.175  12.937
32715W        W99256  14.784  16.826  12.122
32716W        W99257  16.674  32.537  13.823
32717W        W99258   2.390   3.279  12.670
32718W        W99259   6.202  42.433  13.787
32719W        W99260  24.797  21.267  12.601
32720W        W99261   7.908   8.867  10.656
32721W        W99262  44.922   5.061  14.334
32722W        W99263   2.518  10.208  13.122
32723W        W99264  42.110  12.040   3.251
32724W        W99265  22.611  22.920  13.786
32725W        W99266   9.430  22.712   1.142
32726W        W99267   8.167  40.847   1.375
32727W        W99268  19.573  33.459  11.360
32728W        W99269  23.692  34.529   2.220
32729W        W99270  15.933  27.507  13.860
32730W        W99271  37.067  40.637  11.130
32731W        W99272  19.626   5.793  12.982
32732W        W99273   4.311  16.277   2.373
32733W        W99274  35.372  30.912  11.662
32734W        W99275  18.265  14.140   0.783
32735W        W99276  18.730  10.164   2.338
32736W        W99277  24.984   6.257  10.675
32737W        W99278  43.283  12.230  12.047
32738W        W99279  15.119   4.383   3.127
32739W        W99280   2.142  28.483   3.840
32740W        W99281   3.845  23.644   9.952
32741W        W99282   1.042  37.460  12.903
32742W        W99283  18.248  29.405  10.304
32743W        W99284   8.538  41.857  10.281
32744W        W99285  26.877  20.116  13.351
32745W        W99286   5.229  39.745  13.063
32746W        W99287  32.381   5.799  11.559
32747W        W99288   0.285  39.233   1.330
32748W        W99289  33.594   7.222  11.186
32749W        W99290  44.429  10.817   0.016
32750W        W99291  33.821  26.762  10.305
32751W        W99292  12.727  17.290  11.118
32752W        W99293  18.065  18.915   1.711
32753W        W99294  27.280  11.776  14.365
32754W        W99295   8.286  19.839   0.884
32755W        W99296  35.450  43.695   3.650
32756W        W99297  41.437  34.661   3.194
32757W        W99298  28.141  30.864   1.349
32758W        W99299  35.979  37.241  13.106
32759W        W99300   3.258  13.866  14.393
32760W        W99301  15.525  41.528  10.066
32761W        W99302  43.558  21.472  14.863
32762W        W99303   5.299  13.338  14.174
32763W        W99304  42.992  37.166  10.564
32764W        W99305   6.167  34.933   1.819
32765W        W99306  41.555   2.204  13.871
32766W        W99307  14.263  37.318  10.834
32767W        W99308  29.667  14.236   3.174
32768W        W99309  31.867  15.097  13.485
32769W        W99310   7.310  12.602  13.073
32770W        W99311  31.639  11.112  11.054
32771W        W99312  16.672  34.104  14.165
32772W        W99313  41.182  21.693  12.699
32773W        W99314  24.108  40.445  11.092
32774W        W99315  38.824   1.579   0.228
32775W        W99316   6.834   9.083   4.736
32776W        W99317   7.435  42.400   1.237
32777W        W99318  44.611  38.783   3.727
32778W        W99319  40.470  24.058   2.759
32779W        W99320  25.834  12.323  12.068
32780W        W99321  28.095  32.465  14.192
32781W        W99322  29.205  30.172  10.917
32782W        W99323  26.664  28.696  11.941
32783W        W99324  19.531  28.218   3.133
32784W        W99325  33.468  10.357   2.182
32785W        W99326   4.723  20.521  13.129
32786W        W99327  42.006   7.606   4.586
32787W        W99328   9.001  30.694   4.509
32788W        W99329  44.213  39.454  13.914
32789W        W99330  25.633  27.972   3.687
32790W        W99331  20.725  44.382   4.114
32791W        W99332  12.156  40.682   1.697
32792W        W99333  12.406  24.081   4.914
32793W        W99334   3.499  44.414   1.780
32794W        W99335  37.601  21.589   4.600
32795W        W99336  33.136  43.374  12.388
32796W        W99337  23.923  29.152  10.722
32797W        W99338  43.827   4.150   4.695
32798W        W99339  36.043   2.224  12.560
32799W        W99340  37.553   0.839  14.915
32800W        W99341  15.351   8.408  11.943
32801W        W99342  19.540  21.090   3.157
32802W        W99343  21.998  34.460  14.969
32803W        W99344  42.302  12.906   3.160
32804W        W99345  25.650  24.107   2.760
32805W        W99346  43.944  12.912   1.137
32806W        W99347  43.758   2.438   3.093
32807W        W99348  23.517  34.935   0.080
32808W        W99349  30.679  11.283   1.201
32809W        W99350  14.798  18.730   3.396
32810W        W99351  41.849  30.018   2.660
32811W        W99352  40.301  41.627  13.884
32812W        W99353  13.006   1.417   0.389
32813W        W99354  40.942  40.019   0.885
32814W        W99355   7.295   9.178  13.882
32815W        W99356   6.155   0.763  13.046
32816W        W99357  40.574  11.042  14.308
32817W        W99358  26.324  17.590   2.735
32818W        W99359  33.968  35.396  11.382
32819W        W99360   2.406   2.517  11.975
32820W        W99361  42.040  32.621  13.803
32821W        W99362  41.903   5.003  14.682
32822W        W99363  41.235   6.462   1.240
32823W        W99364  30.138  13.180  14.514
32824W        W99365  11.863  29.022   3.034
32825W        W99366   1.434  12.397  11.663
32826W        W99367  25.643  43.968  14.309
32827W        W99368  37.836  26.479   1.629
32828W        W99369  16.723   8.374  11.598
32829W        W99370  18.593  12.213  13.535
32830W        W99371  28.612  18.562   0.411
32831W        W99372  30.197   7.123  10.744
32832W        W99373  15.079  16.042  11.569
32833W        W99374  21.237  29.529   0.054
32834W        W99375   2.501  20.453   1.231
32835W        W99376  16.560  21.061  14.280
32836W        W99377   6.373  15.860  11.586
32837W        W99378  11.198  30.049  14.452
32838W        W99379  35.579  43.839   0.245
32839W        W99380  38.108  13.619   3.110
32840W        W99381   3.757  19.612   4.398
32841W        W99382  23.449   7.773  14.295
32842W        W99383  20.004  10.404   0.757
32843W        W99384   5.752  35.313   4.463
32844W        W99385   5.777  17.082  13.939
32845W        W99386   4.690  21.782   1.296
32846W        W99387  40.838  20.740   3.717
32847W        W99388  22.205  24.014   3.445
32848W        W99389  18.860  24.557   4.152
32849W        W99390  21.543   2.040   2.214
32850W        W99391  42.124   3.932  12.394
32851W        W99392  14.819  42.758   1.956
32852W        W99393  33.330  14.637  11.642
32853W        W99394  17.894   8.152  12.106
32854W        W99395  29.161  26.594   3.723
32855W        W99396   5.884  44.336  12.438
32856W        W99397   1.416  22.741  12.355
32857W        W99398  18.468  11.417  10.241
32858W        W99399  18.768  31.431   0.176
32859W        W99400  16.208   0.508   0.656
32860W        W99401  38.832   2.899   4.969
32861W        W99402  29.837  25.649   2.933
32862W        W99403  21.158  34.492  14.380
32863W        W99404  28.272  28.283  13.619
32864W        W99405   7.833  40.341  11.909
32865W        W99406   9.770  31.447   0.312
32866W        W99407  23.771  17.172   2.247
32867W        W99408   0.060   3.428  14.662
32868W        W99409   1.672   7.950  13.489
32869W        W99410  42.764  33.917  12.113
32870W        W99411  28.104   2.551  14.814
32871W        W99412  20.837   6.232  11.956
32872W        W99413  24.905  17.611   3.111
32873W        W99414  21.237  18.004  11.208
32874W        W99415   9.144   1.844  12.155
32875W        W99416  44.555  41.534   0.858
32876W        W99417  33.003  22.679   3.715
32877W        W99418  23.597  14.642  14.065
32878W        W99419   1.013   6.154  14.935
32879W        W99420  31.551  43.358   4.251
32880W        W99421  21.237  33.872  14.066
32881W        W99422   1.076  28.348  14.802
32882W        W99423  10.231  41.420   0.565
32883W        W99424  31.998   5.532  12.614
32884W        W99425  14.296   5.223   0.576
32885W        W99426   3.237  37.194   3.235
32886W        W99427  18.319   8.173   1.111
32887W        W99428  35.201  10.180  14.940
32888W        W99429  31.653  32.819  10.735
32889W        W99430  33.300  42.832   1.615
32890W        W99431  23.102  37.140   1.455
32891W        W99432  27.903   5.764  13.365
32892W        W99433  28.560  15.274   4.485
32893W        W99434  35.831   1.103  13.222
32894W        W99435  37.883  36.909  14.679
32895W        W99436  29.217  35.585  12.567
32896W        W99437  30.626  12.598  12.085
32897W        W99438  37.062  31.013   1.799
32898W        W99439  15.233  10.652  11.689
32899W        W99440   9.230   6.831   0.846
32900W        W99441  22.544  37.422  12.104
32901W        W99442  28.013  21.572  11.929
32902W        W99443  19.685  40.446  11.198
32903W        W99444  20.655  32.895  10.446
32904W        W99445  39.507   1.802   2.246
32905W        W99446  25.363  33.958  14.726
32906W        W99447  28.065  14.836  11.338
32907W        W99448  26.159  23.411   2.637
32908W        W99449  28.872  19.483  13.929
32909W        W99450  27.110  29.542  10.183
32910W        W99451  22.720  25.486  14.053
32911W        W99452  10.412  16.239  14.931
32912W        W99453  28.675  13.646   4.540
32913W        W99454   7.119  31.292   1.910
32914W        W99455  31.801   9.893   5.016
32915W        W99456  14.748  38.009   1.267
32916W        W99457  26.999   8.030  12.303
32917W        W99458  32.452  10.675   3.718
32918W        W99459   9.809  30.564   0.785
32919W        W99460  18.532  11.420  12.168
32920W        W99461  22.219  29.504  13.904
32921W        W99462   7.951  11.428  11.467
32922W        W99463  12.855   0.228   4.582
32923W        W99464  40.416  20.150  13.360
32924W        W99465  41.217  35.944   0.506
32925W        W99466  23.810  20.132   4.965
32926W        W99467   0.810  30.400  10.639
32927W        W99468  34.697  39.538   4.978
32928W        W99469  22.585  16.193   3.280
32929W        W99470  30.170   6.506   1.310
32930W        W99471  26.599   5.361  13.857
32931W        W99472  30.971  40.656  13.806
32932W        W99473  36.678  42.494  10.240
32933W        W99474  25.589  15.296   3.412
32934W        W99475   7.795  18.040   4.964
32935W        W99476  23.026  15.093   4.650
32936W        W99477  28.043  30.187  12.080
32937W        W99478   3.825  26.018  14.684
32938W        W99479  35.356  40.512  12.024
32939W        W99480  42.497  11.135  14.834
32940W        W99481  42.022   9.778  10.684
32941W        W99482  20.702  40.039  14.237
32942W        W99483   1.306  17.572   3.723
32943W        W99484  41.492  23.723  11.284
32944W        W99485  16.393  16.323   4.519
32945W        W99486  40.954  42.022  14.387
32946W        W99487  15.813   9.621  11.602
32947W        W99488  37.906  10.428   3.592
32948W        W99489  39.776  41.525  12.004
32949W        W99490   1.154  22.522   2.866
32950W        W99491  29.984   0.702  14.314
32951W        W99492   1.541   6.946  13.003
32952W        W99493  34.553   6.128  14.013
32953W        W99494  39.478   7.922  14.494
32954W        W99495  18.759  19.237  11.076
32955W        W99496  14.623  19.713  10.162
32956W        W99497  18.216  23.944  13.341
32957W        W99498  30.992  35.978   2.126
32958W        W99499  27.038  10.925  10.995
32959W        W99500   1.138  34.447  14.503
32960W        W99501  10.392   5.320  11.173
32961W        W99502  19.035  42.009   2.335
32962W        W99503  18.100   5.333  11.453
32963W        W99504   4.639  39.461   3.726
32964W        W99505   9.462   5.611  14.442
32965W        W99506  30.124  15.231   3.246
32966W        W99507  10.851  25.823   3.346
32967W        W99508  11.092  27.956   2.974
32968W        W99509  42.478  12.363  12.980
32969W        W99510  18.633  26.144   0.989
32970W        W99511  13.241  23.006   0.367
32971W        W99512  21.599  33.517  13.989
32972W        W99513  43.505  42.301  12.771
32973W        W99514  18.661  44.262  14.106
32974W        W99515  13.248  44.058  11.645
32975W        W99516  39.857  30.431   3.596
32976W        W99517  11.659  22.047  10.487
32977W        W99518  23.480  41.160   4.741
32978W        W99519   8.778  43.799   2.757
32979W        W99520   0.413  27.721  12.855
32980W        W99521  14.607  29.149  10.275
32981W        W99522  37.141  34.971  11.189
32982W        W99523  29.528  12.667   0.491
32983W        W99524  32.248   8.805  14.106
32984W        W99525   0.530  41.879   0.329
32985W        W99526  11.336  44.632  12.869
32986W        W99527  29.444  41.992   2.589
32987W        W99528  18.264  42.199  14.976
32988W        W99529  43.869  17.575   4.769
32989W        W99530  25.834  19.367   0.571
32990W        W99531  10.278  34.066  14.456
32991W        W99532  44.242  25.354   0.235
32992W        W99533   8.885  33.420   1.516
32993W        W99534  30.605  20.227   0.734
32994W        W99535  20.783  18.119  12.809
32995W        W99536  37.574  27.524   4.554
32996W        W99537  33.621  13.423   4.209
32997W        W99538  15.043  33.666  11.453
32998W        W99539   3.712  35.841  13.502
32999W        W99540  29.407  19.813  13.009
33000W        W99541  34.557  13.378  14.388
33001W        W99542  33.277  14.688  10.577
33002W        W99543  22.023   0.358   3.510
33003W        W99544   7.196  21.541  14.327
33004W        W99545   0.448   0.139  11.869
33005W        W99546   3.277  29.285  11.672
33006W        W99547  33.341  38.343   4.499
33007W        W99548  38.460  33.985   0.699
33008W        W99549  22.653  44.010   3.198
33009W        W99550   3.554   6.332   2.331
33010W        W99551  25.563   5.963  10.275
33011W        W99552   5.273  18.215   0.873
33012W        W99553  34.033  44.745  13.471
33013W        W99554   8.723  42.481   4.097
33014W        W99555  13.286  26.151  10.728
33015W        W99556  40.809  28.559   0.874
33016W        W99557  39.321  21.898  14.863
33017W        W99558  27.534  12.415   4.386
33018W        W99559   6.996   3.739   1.422
33019W        W99560  33.525  15.724   2.340
33020W        W99561  37.821  23.022   4.659
33021W        W99562  35.056  30.136   4.975
33022W        W99563  25.360  27.678  13.804
33023W        W99564  30.436  17.243  10.231
33024W        W99565  22.240   0.377  14.054
33025W        W99566  24.675  19.322   2.706
33026W        W99567  15.813  14.354   0.283
33027W        W99568   5.903   5.899  12.100
33028W        W99569   4.318  40.457  14.499
33029W        W99570  16.580  39.506   1.324
33030W        W99571  30.969  12.333   0.517
33031W        W99572   7.965  21.045   4.629
33032W        W99573  26.989  30.620  14.997
33033W        W99574  31.221  37.748  10.585
33034W        W99575  34.634  19.739  10.407
33035W        W99576  42.327  16.774   4.093
33036W        W99577  29.163  31.621  10.736
33037W        W99578  29.059  27.152  12.374
33038W        W99579  34.544  44.662   4.169
33039W        W99580  18.327  17.314  11.435
33040W        W99581  10.383  41.790  11.988
33041W        W99582  39.642   7.573   3.348
33042W        W99583  39.855  17.388  13.452
33043W        W99584   1.584  40.947   2.668
33044W        W99585  35.391  10.361  11.615
33045W        W99586  31.435  35.976  12.986
33046W        W99587  40.845  43.949  13.368
33047W        W99588  41.314  26.302   0.269
33048W        W99589   4.631  16.798  12.503
33049W        W99590  36.433  42.854  10.572
33050W        W99591  43.701  40.314   1.725
33051W        W99592  27.111  29.034  10.939
33052W        W99593  31.620   1.206   4.198
33053W        W99594  42.012  18.777  10.779
33054W        W99595  41.409  44.393  13.402
33055W        W99596  27.689   6.202   0.019
33056W        W99597  17.595  38.354  12.768
33057W        W99598  35.878   5.316  12.052
33058W        W99599  11.276  17.254   1.188
33059W        W99600  17.234  14.272  14.216
33060W        W99601  11.042  37.413  11.053
33061W        W99602   1.299  19.741  11.519
33062W        W99603  17.309  17.060  13.518
33063W        W99604  18.238  14.537   2.409
33064W        W99605  31.562  39.620  10.622
33065W        W99606  15.536  35.446   0.804
33066W        W99607  41.879   4.566  10.367
33067W        W99608  21.133  17.275   2.282
33068W        W99609  36.901  21.480  11.632
33069W        W99610  35.148  31.548   3.733
33070W        W99611   1.072   0.319   1.795
33071W        W99612  25.268   1.402  11.333
33072W        W99613   1.729   0.909  11.172
33073W        W99614  26.052  43.234  14.291
33074W        W99615  32.824  37.006  13.049
33075W        W99616  20.049  37.923   0.191
33076W        W99617  44.429  27.884   0.124
33077W        W99618  34.428  25.157   1.182
33078W        W99619  44.868  38.845   2.131
33079W        W99620  12.867  38.199   3.242
33080W        W99621  26.732   1.301  11.654
33081W        W99622  38.496  37.428   0.148
33082W        W99623  22.270  22.284   2.256
33083W        W99624  36.056  35.354  13.869
33084W        W99625  28.960  29.232   2.797
33085W        W99626  36.813   7.011   0.639
33086W        W99627  21.457  40.542   1.874
33087W        W99628  18.713  44.420   0.401
33088W        W99629   9.138   7.417  11.809
33089W        W99630  31.660  30.528   0.284
33090W        W99631  43.696  26.572   4.515
33091W        W99632   4.662  27.667  13.887
33092W        W99633  18.702  27.733  12.151
33093W        W99634  34.036  42.981  11.656
33094W        W99635   5.447  18.067   4.052
33095W        W99636  15.795  36.543   4.734
33096W        W99637  44.738  21.899  10.481
33097W        W99638   0.430   0.417   2.747
33098W        W99639  26.555  34.557   3.561
33099W        W99640   9.885  16.903  14.418
33100W        W99641  21.470  31.450  12.263
33101W        W99642  30.096  28.973   2.348
33102W        W99643  34.893   0.057   2.728
33103W        W99644  11.676   2.359   4.176
33104W        W99645   4.221  37.689   0.958
33105W        W99646  24.421  22.223   1.569
33106W        W99647  44.359  28.852  13.553
33107W        W99648  10.677  34.298  12.470
33108W        W99649  42.307   2.639  12.507
33109W        W99650   9.953  10.754   3.931
33110W        W99651   1.550  20.173   4.601
33111W        W99652  22.178  29.942  12.547
33112W        W99653   9.440  32.010   0.513
33113W        W99654   6.528   1.856  14.369
33114W        W99655   5.352  15.306  14.476
33115W        W99656  39.901  18.836   0.871
33116W        W99657  23.088  18.742  10.631
33117W        W99658  29.567   6.464  14.891
33118W        W99659  41.258  12.954  11.149
33119W        W99660  18.731  23.527   0.993
33120W        W99661   9.319  32.304  14.253
33121W        W99662  39.537  35.474  14.234
33122W        W99663   8.351  37.489   2.794
33123W        W99664  32.690  29.240  11.924
33124W        W99665  28.117  31.367   1.253
33125W        W99666  42.791  35.337  11.998
33126W        W99667  24.996   8.340   0.467
33127W        W99668  36.117  38.437  10.961
33128W        W99669   1.374  23.734   4.673
33129W        W99670  17.360  11.927  11.035
33130W        W99671  18.245  19.517   2.397
33131W        W99672  37.240  22.645  11.613
33132W        W99673  33.469   1.429   3.477
33133W        W99674   2.977  42.933  14.455
33134W        W99675  24.025  44.538  12.808
33135W        W99676  42.072  27.089  13.588
33136W        W99677  34.051  16.232  10.702
33137W        W99678  43.836  19.449  13.624
33138W        W99679  11.366  23.826   1.784
33139W        W99680  13.218  41.440  13.078
33140W        W99681  43.215  11.676   3.167
33141W        W99682  25.224   5.391  13.062
33142W        W99683  16.636  27.362   4.166
33143W        W99684  41.033  27.875   3.845
33144W        W99685   0.346  42.780  14.300
33145W        W99686   1.700  25.741   4.965
33146W        W99687   7.157  12.815  12.044
33147W        W99688  37.107  22.243   3.371
33148W        W99689  11.597  15.675  12.904
33149W        W99690  17.130  34.396  13.462
33150W        W99691  38.079   7.468   1.787
33151W        W99692  19.521   4.825   3.700
33152W        W99693  40.875  15.183  14.938
33153W        W99694  22.464  15.576  12.866
33154W        W99695  37.105   1.770  12.060
33155W        W99696  37.413  29.959  13.470
33156W        W99697  40.365  10.814   2.687
33157W        W99698  43.485  26.305   4.086
33158W        W99699  41.304   1.965  11.185
33159W        W99700  11.298  31.365  14.989
33160W        W99701  22.174  15.552   1.759
33161W        W99702   3.328  11.082   4.076
33162W        W99703  24.207   0.020   1.105
33163W        W99704   4.280  11.670   2.834
33164W        W99705  12.880  19.466  12.812
33165W        W99706  14.368   2.560  11.618
33166W        W99707  24.297  15.451   0.135
33167W        W99708  16.819  35.377   3.254
33168W        W99709   4.660  23.231   4.470
33169W        W99710   5.994  43.899   4.953
33170W        W99711  10.059  32.226   4.297
33171W        W99712  21.043  42.414   1.940
33172W        W99713  35.484  26.376   3.221
33173W        W99714  41.746   5.523  13.862
33174W        W99715  42.935  14.345  10.454
33175W        W99716  31.328  25.099  11.506
33176W        W99717  41.846  25.098   2.441
33177W        W99718  22.672  18.618  13.011
33178W        W99719  17.513  19.090   1.784
33179W        W99720  37.098  18.853   2.479
33180W        W99721  44.369  21.634  11.263
33181W        W99722  31.021  23.242  10.342
33182W        W99723  26.315   7.880  11.186
33183W        W99724  44.378  41.016  13.161
33184W        W99725  23.692   5.179   0.412
33185W        W99726  38.473  26.385   0.366
33186W        W99727  40.252  24.563   2.653
33187W        W99728  13.679  39.299   1.740
33188W        W99729  25.849  17.475   1.811
33189W        W99730  22.007  22.312  10.524
33190W        W99731  32.046  30.558   4.143
33191W        W99732  10.284  31.137   1.186
33192W        W99733  21.773  43.081   2.420
33193W        W99734  21.132  31.722  10.992
33194W        W99735  33.469  36.145  13.824
33195W        W99736   4.791   5.956  11.253
33196W        W99737  32.643  44.926  13.303
33197W        W99738  26.503  43.830   4.416
33198W        W99739  16.153   7.028  12.940
33199W        W99740  15.193  10.643  12.597
33200W        W99741  17.090   4.402  12.984
33201W        W99742   7.128  43.962   0.673
33202W        W99743   1.217  32.934  13.698
33203W        W99744   9.217  11.281  12.476
33204W        W99745  15.670  41.915   3.672
33205W        W99746  39.847  13.138  13.994
33206W        W99747  40.240  34.168  11.127
33207W        W99748  34.351  41.885   4.142
33208W        W99749  37.098  27.932   3.234
33209W        W99750  21.619  32.650  14.412
33210W        W99751  36.949   3.292  13.135
33211W        W99752   7.478  26.739   3.702
33212W        W99753  37.886  38.429   1.484
33213W        W99754  31.481  11.092  14.385
33214W        W99755  27.932   0.070  13.992
33215W        W99756   1.641  42.710  10.271
33216W        W99757  27.058   2.248  14.174
33217W        W99758   5.310  15.561  13.548
33218W        W99759   1.174  33.046  11.533
33219W        W99760   2.049   1.348  13.291
33220W        W99761  21.578  43.446   4.575
33221W        W99762  37.973   4.465   4.661
33222W        W99763   4.762  12.538  10.282
33223W        W99764  25.565  34.527   0.717
33224W        W99765  36.557  38.611   0.448
33225W        W99766  20.942   3.337   2.720
33226W        W99767   6.404  44.834   0.309
33227W        W99768  23.355   7.348   4.219
33228W        W99769   7.853  40.590  11.161
33229W        W99770  27.975  40.426  11.178
33230W        W99771  29.565   5.737   1.811
33231W        W99772  39.373  24.005   2.196
33232W        W99773  22.409  14.880   4.974
33233W        W99774   4.178  10.167   3.821
33234W        W99775  19.229   4.947   2.745
33235W        W99776  21.314  12.299  11.605
33236W        W99777  25.961   8.801  12.308
33237W        W99778   1.456  33.371   2.611
33238W        W99779  38.406  33.437   0.860
33239W        W99780   1.383   4.184  11.543
33240W        W99781  24.698  19.417  14.256
33241W        W99782  27.450  14.390   5.130
33242W        W99783  19.899   2.918   2.799
33243W        W99784  19.010  13.089  11.649
33244W        W99785   5.924  17.696  10.608
33245W        W99786  19.086  31.213  12.026
33246W        W99787  22.963  41.034   0.368
33247W        W99788   2.865   1.022   0.082
33248W        W99789  40.879   9.197   2.248
33249W        W99790   9.381  16.242  14.723
33250W        W99791  31.014  42.922   1.280
33251W        W99792  19.736  19.088   2.610
33252W        W99793  33.030  32.134   3.748
33253W        W99794  31.681   3.787   2.291
33254W        W99795  29.618  19.929  13.463
33255W        W99796  33.543  43.046  14.436
33256W        W99797  20.709   9.324   2.674
33257W        W99798  10.264   7.128  12.571
33258W        W99799   6.994  36.713  14.390
33259W        W99800   7.657  19.607  13.629
33260W        W99801   0.668  31.187  13.875
33261W        W99802  43.055   1.688  12.072
33262W        W99803  42.789  14.817  11.252
33263W        W99804  43.989  10.836  12.120
33264W        W99805  18.501   4.959   3.133
33265W        W99806  26.842  29.949   0.926
33266W        W99807  34.368  40.586   1.713
33267W        W99808  36.561   8.395  10.727
33268W        W99809  43.177   0.294   4.862
33269W        W99810   6.660  24.621  12.479
33270W        W99811  36.811   4.394   4.571
33271W        W99812  31.448  28.516  11.899
33272W        W99813  39.753  21.414   0.626
33273W        W99814  28.396  21.220   4.135
33274W        W99815  29.986  23.920   1.264
33275W        W99816  42.998   1.198  11.256
33276W        W99817  20.952  36.197   0.747
33277W        W99818  26.981  28.519   0.734
33278W        W99819  36.461  35.080  13.046
33279W        W99820  14.055  32.906   2.370
33280W        W99821  28.111  23.937  12.355
33281W        W99822  43.012  37.040  13.160
33282W        W99823  24.217   7.183  12.857
33283W        W99824  31.395  31.685   1.247
33284W        W99825  29.045  35.384  11.670
33285W        W99826   9.609  19.164   0.047
33286W        W99827   4.784  11.358   2.646
33287W        W99828  35.938  17.174   1.353
33288W        W99829  10.386  31.975   0.010
33289W        W99830  26.869  20.962  12.228
33290W        W99831  37.641  30.420   0.197
33291W        W99832  44.290  22.181  10.338
33292W        W99833  37.364  39.437  13.363
33293W        W99834  10.837  32.766   4.332
33294W        W99835  35.154  19.733   3.224
33295W        W99836   7.939  12.830   0.740
33296W        W99837  15.946  16.596  11.546
33297W        W99838   9.227  10.906  14.931
33298W        W99839   2.869  43.389   0.712
33299W        W99840   1.645  12.335  10.662
33300W        W99841  24.073  20.167   0.329
33301W        W99842   4.690  17.068   1.838
33302W        W99843   0.563  22.624  11.898
33303W        W99844  41.429  11.283  13.987
33304W        W99845   5.753   8.377  10.846
33305W        W99846  21.258  37.185   1.700
33306W        W99847   6.439  32.576   4.579
33307W        W99848  32.155  39.852   1.374
33308W        W99849  10.046   6.723   3.447
33309W        W99850  33.633  16.696   1.988
33310W        W99851  27.383  38.320   0.134
33311W        W99852  25.838  40.453   5.098
33312W        W99853  41.095  37.668  10.894
33313W        W99854  14.673  25.095  12.368
33314W        W99855  14.114  37.878  11.466
33315W        W99856   1.784  15.559  12.055
33316W        W99857  31.666  14.966  11.127
33317W        W99858  41.647   0.335  13.843
33318W        W99859  18.597  43.850   2.086
33319W        W99860  17.941   0.552  11.271
33320W        W99861  11.820  35.637   0.816
33321W        W99862  44.178  40.041   3.349
33322W        W99863  25.218  18.571  11.586
33323W        W99864  21.517  24.082   1.829
33324W        W99865  27.232   4.882   0.359
33325W        W99866  18.602  27.890   2.821
33326W        W99867  14.652  24.101   0.695
33327W        W99868  10.877  37.493  14.094
33328W        W99869  35.913  21.764   3.295
33329W        W99870  24.235  37.461   2.377
33330W        W99871  42.867  33.320   2.771
33331W        W99872  27.087  29.483   0.996
33332W        W99873  31.204  39.494  11.589
33333W        W99874  37.145  29.164   1.953
33334W        W99875  36.822  31.142  12.881
33335W        W99876  15.542  40.446   3.043
33336W        W99877  26.895  36.753   1.823
33337W        W99878   6.875  13.965  11.355
33338W        W99879  11.442   1.402   1.775
33339W        W99880   5.462  13.773   4.159
33340W        W99881  30.501  41.615  13.047
33341W        W99882   3.926  19.803  11.377
33342W        W99883  27.267  10.244  14.418
33343W        W99884  29.404  29.011   2.955
33344W        W99885  33.984  34.868  13.758
33345W        W99886  27.470  15.111   4.860
33346W        W99887   2.480  26.696   1.048
33347W        W99888  11.122  44.120   3.255
33348W        W99889  14.830  20.788   0.017
33349W        W99890  37.268  18.464  11.982
33350W        W99891   0.178  15.572  14.343
33351W        W99892  13.801  19.675   3.791
33352W        W99893  10.538  28.639  13.933
33353W        W99894  20.054   9.202   0.434
33354W        W99895  44.142  12.181  13.923
33355W        W99896  41.324  15.523  12.033
33356W        W99897   4.685  41.080   0.536
33357W        W99898   5.609  10.398  10.620
33358W        W99899  24.040  28.036  12.451
33359W        W99900  33.537  31.115  11.110
33360W        W99901  34.530   0.362   3.899
33361W        W99902  42.400   0.989   2.279
33362W        W99903  24.884  27.598  11.582
33363W        W99904  11.305  22.090  13.418
33364W        W99905   4.637  26.677   3.215
33365W        W99906  25.855   8.140  10.606
33366W        W99907  39.511  30.546  14.257
33367W        W99908  42.085  14.675  14.521
33368W        W99909  15.159   2.031  11.717
33369W        W99910  30.117  36.627  11.280
33370W        W99911  26.443  42.304   2.246
33371W        W99912  21.711  32.885   2.175
33372W        W99913  34.167  22.455   1.341
33373W        W99914  12.830  18.622  10.713
33374W        W99915  10.621  30.930  10.769
33375W        W99916   7.946  20.330  14.275
33376W        W99917  12.860  41.052  12.932
33377W        W99918  38.436  30.559  12.902
33378W        W99919  44.459  24.423  12.128
33379W        W99920  18.678  43.254  14.093
33380W        W99921  26.042  43.362   4.006
33381W        W99922  17.263   6.510   3.807
33382W        W99923   2.139  42.652  10.573
33383W        W99924  30.761   1.015   1.427
33384W        W99925  24.263  42.399   2.314
33385W        W99926   6.444   4.486  10.760
33386W        W99927  11.201   2.215   1.847
33387W        W99928  30.022  16.698   4.504
33388W        W99929   2.276  34.205  10.964
33389W        W99930  44.104  18.576   2.467
33390W        W99931  36.961  42.862  10.468
33391W        W99932  33.518  10.118   0.659
33392W        W99933  26.718  44.247   2.257
33393W        W99934  24.583  10.533   2.358
33394W        W99935  35.124  23.606   4.158
33395W        W99936  22.642  41.918  14.870
33396W        W99937   1.015  43.237  12.167
33397W        W99938  16.280  44.534   0.901
33398W        W99939  41.788   8.382   4.265
33399W        W99940  42.066  27.109  10.741
33400W        W99941  32.128  10.698  13.460
33401W        W99942  30.575  33.654  13.494
33402W        W99943  44.792  29.170   2.802
33403W        W99944  29.726   3.597   4.234
33404W        W99945  19.177  37.316   3.694
33405W        W99946  12.421  44.977   4.744
33406W        W99947  38.138  34.096   1.300
33407W        W99948  26.693  13.620   3.223
33408W        W99949  31.177  17.594  10.887
33409W        W99950   1.491   4.493   1.404
33410W        W99951  37.385   7.306   2.725
33411W        W99952  12.802   9.825   4.175
33412W        W99953  15.573  36.902   1.576
33413W        W99954   0.451   6.819   3.204
33414W        W99955  15.602   0.795  10.738
33415W        W99956  35.729   4.469  11.159
33416W        W99957  38.089  41.780   2.380
33417W        W99958  37.951  21.823   1.363
33418W        W99959   4.396  34.084  12.147
33419W        W99960  40.090  32.099   4.137
33420W        W99961  33.810  15.240  13.661
33421W        W99962  36.596  33.354  12.198
33422W        W99963  22.732  23.416  13.951
33423W        W99964  42.555  11.852  12.893
33424W        W99965  29.167   6.901   1.866
33425W        W99966  22.802  20.161   2.231
33426W        W99967   2.365  22.780  11.514
33427W        W99968   6.261   9.092  13.488
33428W        W99969  26.128  23.443  11.144
33429W        W99970  14.242  34.316  10.239
33430W        W99971  31.470  25.328  13.762
33431W        W99972   8.275   9.232  13.000
33432W        W99973   5.881   9.654  14.071
33433W        W99974  16.473  20.798   4.547
33434W        W99975  32.009  41.978  14.324
33435W        W99976  11.324  37.604  13.816
33436W        W99977  14.736   9.562   2.151
33437W        W99978  40.263  15.274  12.896
33438W        W99979  25.532   9.666  13.949
33439W        W99980  27.962   8.058  10.063
33440W        W99981  31.957  11.245   2.648
33441W        W99982   1.618   4.622   3.626
33442W        W99983   4.823  20.203   4.903
33443W        W99984  29.956   1.273   2.899
33444W        W99985  38.068  37.144   0.659
33445W        W99986   7.852  17.831  14.053
33446W        W99987   6.774  29.663  11.083
33447W        W99988   5.737  16.287  13.332
33448W        W99989  14.284  22.688   2.376
33449W        W99990  19.116  10.635  13.999
33450W        W99991  14.300  18.137  12.834
33451W        W99992  36.571  14.707   4.679
33452W        W99993  24.990  27.376  10.597
33453W        W99994   8.628  41.501   3.651
33454W        W99995   3.925  37.873  13.355
33455W        W99996  16.361  30.681   3.123
33456W        W99997  36.531  16.599   3.178
33457W        W99998  13.220  10.255  12.107
33458W        W99999   1.896  19.591  13.305
33459W        W    0  24.940   1.527  13.923
33460W        W    1  22.849  13.229   3.222
33461W        W    2  14.821  42.966   0.626
33462W        W    3   4.437  18.599  11.575
33463W        W    4  31.048  12.362  11.918
33464W        W    5  28.893   2.721  11.526
33465W        W    6   5.356  20.562  13.804
33466W        W    7   7.455  27.635  12.690
33467W        W    8  34.116  25.959   4.045
33468W        W    9   9.106   1.718  13.450
33469W        W   10   4.745  18.707   0.265
33470W        W   11  18.491  15.847  10.739
33471W        W   12  28.148  38.770  11.609
33472W        W   13  30.012   3.857   2.510
33473W        W   14   6.472  10.437  14.852
33474W        W   15   8.072  16.701   1.713
33475W        W   16  35.868  30.834  14.806
33476W        W   17  41.429  24.195   1.038
33477W        W   18   5.911   8.585   4.866
33478W        W   19  14.432  42.422  12.397
33479W        W   20  23.523   3.421   0.500
33480W        W   21   2.908  36.508  11.665
33481W        W   22  44.491   3.320   1.329
33482W        W   23   0.772  23.259  14.996
33483W        W   24  11.133  40.627   0.882
33484W        W   25  23.458  12.228   0.054
33485W        W   26  43.520  31.957  14.888
33486W        W   27  39.357  36.590  12.584
33487W        W   28  21.240  36.081  13.106
33488W        W   29  19.617  43.908   1.205
33489W        W   30  28.675   2.946   3.225
33490W        W   31  24.949  12.154   2.352
33491W        W   32   7.109  19.727  14.505
33492W        W   33  27.612   3.719   4.565
33493W        W   34   1.331  28.641  12.550
33494W        W   35  16.077  33.336   2.168
33495W        W   36  21.513  24.187  14.846
33496W        W   37  36.196  42.312   2.833
33497W        W   38  36.102  28.689  11.662
33498W        W   39  31.464   9.735  12.455
33499W        W   40  39.450  12.405   5.108
33500W        W   41  27.014   7.489   1.797
33501W        W   42  14.275  10.655  14.815
33502W        W   43   1.752   0.949  13.463
33503W        W   44  29.502  14.548  11.978
33504W        W   45  22.239  43.937  10.267
33505W        W   46  15.746   3.202  10.986
33506W        W   47  10.130  28.032  11.576
33507W        W   48  18.547  12.761   0.724
33508W        W   49  19.391   8.094   2.417
33509W        W   50   5.475  28.696   0.008
33510W        W   51   1.889   0.728   4.062
33511W        W   52  12.987  20.497   4.134
33512W        W   53  16.255   7.838  14.534
33513W        W   54  20.704  11.638   3.356
33514W        W   55  24.178  18.727   3.924
33515W        W   56  18.837  16.340   3.788
33516W        W   57  16.322  17.078   3.253
33517W        W   58  19.856   2.502  12.524
33518W        W   59  24.079   9.343  12.363
33519W        W   60  24.596  23.293   2.860
33520W        W   61   2.114  44.279   3.586
33521W        W   62  33.138  40.258   4.279
33522W        W   63  38.250  40.912   1.939
33523W        W   64  38.836  44.356   0.977
33524W        W   65   3.183  38.918   4.137
33525W        W   66  17.329  22.731   4.109
33526W        W   67  39.703  33.626   3.615
33527W        W   68  10.388  13.846  12.553
33528W        W   69  28.233   4.276  12.128
33529W        W   70  23.343  28.719   0.892
33530W        W   71  20.329  21.094  10.479
33531W        W   72  15.413   3.292   3.465
33532W        W   73  22.159  39.218   0.479
33533W        W   74  21.751  41.447  13.412
33534W        W   75  12.412   3.484   1.311
33535W        W   76  18.218  14.961   3.576
33536W        W   77   1.948  25.870   0.294
33537W        W   78  11.844   8.795   5.061
33538W        W   79  38.147  20.800  11.649
33539W        W   80  18.580  25.096   3.699
33540W        W   81  38.289  38.635   0.691
33541W        W   82  35.425   4.247   3.221
33542W        W   83   0.022  24.978  14.342
33543W        W   84   7.168  16.816   3.814
33544W        W   85  21.103  26.157  12.584
33545W        W   86  44.691  28.591  13.872
33546W        W   87  41.903  16.776  13.561
33547W        W   88  40.335  20.046   2.579
33548W        W   89  21.130  23.562   3.218
33549W        W   90  40.469  21.774   0.427
33550W        W   91  43.867  26.754  13.994
33551W        W   92  22.936  22.659  12.400
33552W        W   93  16.608  40.495  11.100
33553W        W   94  10.999  20.464   4.075
33554W        W   95  34.457  18.536  11.599
33555W        W   96  18.001  19.279   0.960
33556W        W   97  30.137  36.329   1.628
33557W        W   98  15.773  18.634  12.062
33558W        W   99  14.254  18.275  13.879
33559W        W  100   0.843  31.587  11.639
33560W        W  101  33.845  24.470   4.550
33561W        W  102  37.450  28.575  14.766
33562W        W  103   3.764  19.500   2.215
33563W        W  104  27.922  38.855  10.555
33564W        W  105  10.566  31.768  13.952
33565W        W  106   2.951  35.127  12.874
33566W        W  107   5.650   7.163  13.411
33567W        W  108  16.548  36.128   0.285
33568W        W  109  38.508  16.030   2.318
33569W        W  110  26.504   4.234   0.052
33570W        W  111  37.411  31.597   4.607
33571W        W  112   9.956  11.928   0.629
33572W        W  113  30.506  24.274   2.403
33573W        W  114  36.730   4.046   4.038
33574W        W  115   1.444  21.110   4.700
33575W        W  116  17.383   1.238  13.657
33576W        W  117  18.153   7.208   0.856
33577W        W  118  19.524  14.266   2.785
33578W        W  119  10.838  40.127   0.406
33579W        W  120  25.709  32.651  11.534
33580W        W  121  44.956  31.072  13.415
33581W        W  122   4.069  10.920   4.574
33582W        W  123  22.283  23.450   4.672
33583W        W  124  28.576  25.715   3.709
33584W        W  125  34.495  31.104  11.584
33585W        W  126  13.162   5.961   3.049
33586W        W  127   7.452  14.162  12.466
33587W        W  128  38.916   1.238   2.717
33588W        W  129  33.619  15.120  11.842
33589W        W  130   4.783   9.338  13.909
33590W        W  131  21.215  37.367   0.369
33591W        W  132  32.497  35.447   2.483
33592W        W  133  30.485   6.596   3.341
33593W        W  134  15.804  37.328   1.410
33594W        W  135  40.164  16.297   3.822
33595W        W  136  14.798  38.816  12.000
33596W        W  137  26.197  10.190   4.578
33597W        W  138  25.767  23.287   1.684
33598W        W  139  39.211  21.075  10.447
33599W        W  140  24.717   5.207  11.952
33600W        W  141   0.548  30.988   2.781
33601W        W  142  25.905  20.207  14.388
33602W        W  143  29.438  37.425   0.465
33603W        W  144  41.362  26.665  13.963
33604W        W  145  26.225   6.469  13.394
33605W        W  146  41.417  25.027  10.800
33606W        W  147   2.340  24.651   1.447
33607W        W  148   4.603  24.021   0.054
33608W        W  149  23.058  34.979   4.151
33609W        W  150  11.305   0.327  14.112
33610W        W  151   6.825  12.601  12.848
33611W        W  152  29.511  32.748  14.299
33612W        W  153   3.477  23.820   4.221
33613W        W  154  36.508  18.925   3.335
33614W        W  155  35.141  15.858   1.427
33615W        W  156  17.734  32.789  14.385
33616W        W  157  24.198  21.224   3.425
33617W        W  158  34.301  31.874   3.661
33618W        W  159   5.717  19.264  10.745
33619W        W  160  36.066   3.536  13.177
33620W        W  161   1.255  14.253  14.331
33621W        W  162  36.073  29.658  12.516
33622W        W  163  32.878   3.388  14.995
33623W        W  164  41.719  13.267   0.828
33624W        W  165  40.168  14.647  11.074
33625W        W  166  12.227  24.878  14.356
33626W        W  167  38.554  32.008  13.313
33627W        W  168  26.112  17.540   1.332
33628W        W  169  27.248   9.328  13.602
33629W        W  170  33.162  26.127  11.230
33630W        W  171  35.127  36.743  11.122
33631W        W  172  22.566  23.291  13.430
33632W        W  173  33.465  40.269   1.261
33633W        W  174  19.661   8.173  10.658
33634W        W  175  14.220  27.626   3.714
33635W        W  176  41.087  16.754  10.203
33636W        W  177  42.524  25.936  13.641
33637W        W  178  18.725  29.574  10.436
33638W        W  179  26.175  17.859  11.984
33639W        W  180  37.279  32.189   3.281
33640W        W  181  13.230  12.139  13.889
33641W        W  182  27.387   1.980  14.489
33642W        W  183  43.586  37.396  14.275
33643W        W  184  14.156   4.863   0.231
33644W        W  185  18.302   5.237   1.393
33645W        W  186  26.835  29.276   2.122
33646W        W  187  16.332   2.349   3.218
33647W        W  188  21.015   0.932   2.842
33648W        W  189  17.863   3.690   4.419
33649W        W  190  13.115  29.730  12.369
33650W        W  191  12.523  38.957   1.880
33651W        W  192  43.658   5.145   2.739
33652W        W  193  33.735  40.419  14.250
33653W        W  194  44.433  16.023   4.625
33654W        W  195   7.664  38.826  12.892
33655W        W  196  29.910  39.244   2.740
33656W        W  197  25.396  34.036  11.683
33657W        W  198   9.252  17.031  11.590
33658W        W  199   4.139  10.363  10.977
33659W        W  200  41.375  19.462  14.393
33660W        W  201  29.728  36.143  13.363
33661W        W  202  32.738  33.909   4.185
33662W        W  203  30.730  41.947   1.744
33663W        W  204  43.012  37.704  13.476
33664W        W  205  36.512  11.883  11.866
33665W        W  206  36.121  26.967   2.112
33666W        W  207  32.617  26.990  10.365
33667W        W  208  35.624  25.896   3.336
33668W        W  209   1.878  14.785   2.342
33669W        W  210  28.515   8.221   3.985
33670W        W  211  33.372  13.859  14.507
33671W        W  212   3.748  24.097  12.939
33672W        W  213  23.524  34.722   3.330
33673W        W  214   1.772   4.266   0.192
33674W        W  215  40.249  22.665   2.379
33675W        W  216  22.126   8.632  10.982
33676W        W  217  16.583  33.170   2.139
33677W        W  218  41.522   8.214  12.636
33678W        W  219  11.686  36.447  14.724
33679W        W  220  20.996  31.070   1.349
33680W        W  221   1.672  38.067  11.296
33681W        W  222  12.139   6.215  12.418
33682W        W  223  16.654  34.000   4.540
33683W        W  224  11.849  14.671  10.445
33684W        W  225  10.641  19.378   0.905
33685W        W  226  44.917  18.652   1.937
33686W        W  227  42.486  39.887   2.840
33687W        W  228  31.972   2.938  10.377
33688W        W  229   8.981  42.845  10.610
33689W        W  230   3.796  44.524   0.819
33690W        W  231   9.685   9.599  13.988
33691W        W  232  37.601  28.960  13.082
33692W        W  233  34.111  18.808   1.456
33693W        W  234  35.394  27.439   1.474
33694W        W  235  43.050  12.289   1.240
33695W        W  236  15.617   2.263  10.689
33696W        W  237  42.753  12.598  13.396
33697W        W  238  18.047  11.256  14.697
33698W        W  239  24.922  41.904  13.519
33699W        W  240   5.960  23.192   1.261
33700W        W  241  30.511   2.151   0.471
33701W        W  242  30.099  28.708   0.500
33702W        W  243  19.286  16.743  14.612
33703W        W  244  42.299   0.532   2.539
33704W        W  245   0.056  32.074  12.362
33705W        W  246   2.348  40.392   2.092
33706W        W  247   0.894  14.271  12.615
33707W        W  248  14.827  14.681   2.661
33708W        W  249  34.970   4.416   3.387
33709W        W  250  22.729  41.435   0.102
33710W        W  251  18.435  38.945   3.627
33711W        W  252  40.888   7.606  10.721
33712W        W  253   7.007  21.010  14.329
33713W        W  254  28.340  40.354   2.748
33714W        W  255  16.825   9.128   4.550
33715W        W  256  19.608  24.645   4.583
33716W        W  257  31.557  25.712   0.048
33717W        W  258  23.277  25.568   4.208
33718W        W  259  21.487  38.680  11.186
33719W        W  260   2.380  26.040   1.396
33720W        W  261  25.589   0.756  10.788
33721W        W  262  20.748   4.661  14.786
33722W        W  263  31.569   9.643   3.688
33723W        W  264  34.626  25.474   4.268
33724W        W  265  19.784  28.073  10.736
33725W        W  266  33.504  33.559   0.016
33726W        W  267  34.677  16.688  11.124
33727W        W  268  43.502  13.306   1.812
33728W        W  269  22.174  19.484  11.188
33729W        W  270  38.015  14.390  12.573
33730W        W  271  36.204   7.650  14.379
33731W        W  272  26.034  18.315   4.872
33732W        W  273  42.071   1.465  14.920
33733W        W  274  20.106   6.767  11.520
33734W        W  275  34.229  29.322  11.586
33735W        W  276   7.412  36.744   5.008
33736W        W  277  23.026  35.007  13.331
33737W        W  278  32.522   6.272  10.620
33738W        W  279  28.144  21.899   3.988
33739W        W  280  17.363  28.069   4.127
33740W        W  281  21.738  42.179   1.005
33741W        W  282  17.023  36.366  10.713
33742W        W  283  31.099  13.046  13.935
33743W        W  284  11.455   6.485  12.003
33744W        W  285   2.586  43.178   1.867
33745W        W  286  12.337  42.713   0.513
33746W        W  287  19.965   3.383   0.511
33747W        W  288  26.754  38.962   2.887
33748W        W  289   3.786   7.977   4.437
33749W        W  290  17.197  23.660  11.936
33750W        W  291  27.726  26.478  10.595
33751W        W  292   5.471   3.579   4.829
33752W        W  293  24.305  19.939  14.909
33753W        W  294  23.078   5.628  13.110
33754W        W  295  11.420   8.709  13.020
33755W        W  296  19.826   6.933  13.994
33756W        W  297  15.614  36.363   2.304
33757W        W  298   5.045   7.665   1.933
33758W        W  299  16.843  26.920  12.038
33759W        W  300  30.590  18.829   4.143
33760W        W  301  34.032  42.120  11.549
33761W        W  302  30.987  13.452   4.589
33762W        W  303   5.605  26.655   1.885
33763W        W  304  18.198  32.587  11.637
33764W        W  305  15.105  20.249  12.414
33765W        W  306  42.258  35.146   2.827
33766W        W  307  40.490  36.849   1.977
33767W        W  308  13.287  13.339  10.646
33768W        W  309  21.521   1.337   0.083
33769W        W  310  25.731  30.620   1.576
33770W        W  311  27.225  32.640  13.819
33771W        W  312  13.768  44.241   4.790
33772W        W  313  29.661  37.528   4.584
33773W        W  314   5.523   9.026  13.477
33774W        W  315  24.527  27.918   0.843
33775W        W  316  19.535   9.372  14.129
33776W        W  317  32.997  25.406   0.426
33777W        W  318  21.203  26.505  11.775
33778W        W  319   0.280  33.286   4.410
33779W        W  320   4.478  42.743   4.941
33780W        W  321  11.353  13.847  11.128
33781W        W  322  37.404   1.337  14.083
33782W        W  323  26.537   8.047  13.274
33783W        W  324  23.159  10.089  12.322
33784W        W  325  37.579  24.055   5.391
33785W        W  326  27.207   9.298  12.576
33786W        W  327   6.969  20.249   2.671
33787W        W  328  15.183  41.965   4.801
33788W        W  329  27.106  14.782   5.049
33789W        W  330  33.027  30.801   4.250
33790W        W  331  42.933  24.167   3.445
33791W        W  332  21.548  38.152  11.155
33792W        W  333  43.930  28.447   4.528
33793W        W  334   1.542  37.507   0.305
33794W        W  335   6.719  21.688  13.778
33795W        W  336  28.204   6.050   0.174
33796W        W  337  41.508  27.996  14.521
33797W        W  338  23.661  16.728   4.009
33798W        W  339  17.593  26.531   4.401
33799W        W  340   8.238  22.115  13.265
33800W        W  341  13.305  22.823   2.418
33801W        W  342  16.109   7.344  14.433
33802W        W  343  38.522  44.368  13.716
33803W        W  344  11.381  21.018  11.551
33804W        W  345  30.443   7.806  12.492
33805W        W  346   8.331  13.986  14.473
33806W        W  347  31.491   2.432  11.519
33807W        W  348  15.281  17.300   4.176
33808W        W  349  31.640  34.487   2.881
33809W        W  350  34.497  15.472  10.744
33810W        W  351  35.950  30.085  14.316
33811W        W  352  12.269  34.469   1.835
33812W        W  353  28.072  31.513  11.585
33813W        W  354  42.882   4.861   1.994
33814W        W  355  29.679  10.247  12.980
33815W        W  356  32.975   6.170  14.316
33816W        W  357  12.091  14.519   1.741
33817W        W  358  42.257   3.678  12.839
33818W        W  359  26.097  35.213   2.372
33819W        W  360  21.311  21.165  14.697
33820W        W  361  19.613  25.798   4.042
33821W        W  362   7.073  27.005  11.228
33822W        W  363  21.192  17.003   3.734
33823W        W  364  38.332  12.262   1.714
33824W        W  365   7.911  26.060   1.857
33825W        W  366  26.021  12.229  11.588
33826W        W  367   7.884  21.277  14.527
33827W        W  368  24.890   2.745   2.519
33828W        W  369  25.149  37.852   2.402
33829W        W  370  29.902  17.194  13.741
33830W        W  371  28.977  44.817   4.941
33831W        W  372   9.165  44.544   3.339
33832W        W  373   0.372  39.574  14.512
33833W        W  374   0.479  38.810   2.257
33834W        W  375  11.819  44.564   0.895
33835W        W  376  22.710  31.034   3.601
33836W        W  377  26.803   1.686  10.051
33837W        W  378   3.566  20.534  11.165
33838W        W  379  27.682  13.293   4.156
33839W        W  380   9.898  17.345  10.549
33840W        W  381  19.267  35.213  10.759
33841W        W  382   0.045  39.857  14.838
33842W        W  383   3.920  37.635  11.494
33843W        W  384   6.088  13.282  13.628
33844W        W  385   9.742   8.709  12.505
33845W        W  386  42.890  16.700   4.968
33846W        W  387  39.843  18.296   4.435
33847W        W  388  33.814  24.646   0.853
33848W        W  389   7.294  27.086  12.815
33849W        W  390   4.296  18.170   2.553
33850W        W  391  40.893  35.030  12.405
33851W        W  392  14.185  22.267   3.496
33852W        W  393  43.040  11.690   1.493
33853W        W  394  31.274  29.640   4.507
33854W        W  395  30.685  36.547  12.800
33855W        W  396  41.211   8.406   0.398
33856W        W  397  40.659  33.457   3.689
33857W        W  398  14.800   3.908   1.435
33858W        W  399  37.103  21.807  13.044
33859W        W  400  23.461  41.911   1.204
33860W        W  401  35.990  27.898   2.237
33861W        W  402  26.333  34.830  13.415
33862W        W  403  23.131  37.061   3.983
33863W        W  404  38.863  34.524   3.179
33864W        W  405  44.430   8.197  10.670
33865W        W  406  23.686   6.712  12.540
33866W        W  407  42.575  27.076  10.680
33867W        W  408  33.369  28.006  14.861
33868W        W  409   6.785  35.875  13.238
33869W        W  410   7.868  21.551  11.343
33870W        W  411  26.174   1.835  11.182
33871W        W  412  42.494  13.101   1.710
33872W        W  413   5.815  21.463  10.982
33873W        W  414   7.177   3.262  11.064
33874W        W  415  35.034  23.573   1.297
33875W        W  416  15.453   1.187  14.698
33876W        W  417  44.518  11.421  14.764
33877W        W  418  18.191   3.160   1.483
33878W        W  419  36.661  39.366   0.751
33879W        W  420  29.827  18.735   0.919
33880W        W  421   2.676  12.197  12.184
33881W        W  422   5.857  20.607  14.754
33882W        W  423  18.138  17.542  11.914
33883W        W  424   8.767  20.697  13.254
33884W        W  425   9.168  17.566  14.555
33885W        W  426  20.239  38.066   3.239
33886W        W  427  35.066  20.733  13.523
33887W        W  428   0.929  37.962   2.164
33888W        W  429  16.711  32.050  11.676
33889W        W  430   2.389  44.073  14.351
33890W        W  431  23.530   3.414   2.697
33891W        W  432  29.697   0.324   1.112
33892W        W  433  15.050   9.859   3.781
33893W        W  434  15.586  44.497   1.259
33894W        W  435  33.638  21.771  11.025
33895W        W  436  17.598   8.004   1.968
33896W        W  437  14.933  21.149  13.632
33897W        W  438  17.617  13.621  10.668
33898W        W  439  30.350   7.905  13.266
33899W        W  440  19.059  15.724   3.241
33900W        W  441   4.312  20.374   2.424
33901W        W  442  12.149  42.961   2.026
33902W        W  443  27.919  40.392   3.106
33903W        W  444  16.922  44.371  11.412
33904W        W  445  15.431   1.295  12.402
33905W        W  446  24.469   6.947  13.436
33906W        W  447  25.746  37.293   4.554
33907W        W  448  33.484  31.565   0.761
33908W        W  449  29.840  37.027   0.935
33909W        W  450   7.490  38.985  13.891
33910W        W  451  12.673  30.570   5.159
33911W        W  452  39.970  44.308   4.641
33912W        W  453  15.553  43.208   1.837
33913W        W  454  22.006  31.345  12.081
33914W        W  455  44.027  29.567   2.185
33915W        W  456  26.902  27.579  13.359
33916W        W  457  11.964  38.508   3.181
33917W        W  458  34.598  28.216   2.316
33918W        W  459  39.823   1.155  13.609
33919W        W  460  30.661  29.703  13.077
33920W        W  461  20.001  15.149   2.416
33921W        W  462  27.856   1.357   2.368
33922W        W  463  33.845  24.858  12.488
33923W        W  464  23.046  37.418   2.905
33924W        W  465  22.703  23.953   3.760
33925W        W  466  29.510  23.593   9.929
33926W        W  467   3.936  10.828   1.409
33927W        W  468  36.218  40.806   1.836
33928W        W  469  33.468  12.086   2.723
33929W        W  470  24.456  27.622   3.220
33930W        W  471  10.803   5.402   1.581
33931W        W  472   2.196  40.359  11.089
33932W        W  473  12.299  33.296   3.921
33933W        W  474   2.075  33.440  11.624
33934W        W  475  24.728   1.955   1.270
33935W        W  476  24.907  24.230   2.268
33936W        W  477  32.866  16.686  13.091
33937W        W  478  22.553  23.027  12.375
33938W        W  479  24.373   4.012  14.077
33939W        W  480   8.249   1.562   0.819
33940W        W  481  33.655  41.863  11.085
33941W        W  482  44.078  12.384  14.773
33942W        W  483  33.962  15.283  13.169
33943W        W  484  10.105   3.490  13.665
33944W        W  485  37.414   6.917   3.410
33945W        W  486  28.980   3.018   2.720
33946W        W  487  30.696  35.911   0.378
33947W        W  488   1.803   3.866   0.576
33948W        W  489   6.597   6.739  11.134
33949W        W  490  22.129  35.949   2.474
33950W        W  491  35.167  44.706  12.917
33951W        W  492  27.325  39.395   0.383
33952W        W  493  22.081  39.310   1.374
33953W        W  494  10.215   1.517  13.884
33954W        W  495  44.347  22.772   0.285
33955W        W  496   2.751  10.292   0.423
33956W        W  497  10.370  39.867   0.483
33957W        W  498   8.834  35.109   1.811
33958W        W  499  35.088   0.989  13.935
33959W        W  500  42.542  29.572   3.710
33960W        W  501  40.503  18.466  11.817
33961W        W  502  21.280  10.697  14.426
33962W        W  503   8.517  21.409   4.259
33963W        W  504   7.399  12.860   1.651
33964W        W  505  28.205  42.366   3.865
33965W        W  506  12.737  41.778  14.947
33966W        W  507  14.190  41.487  12.771
33967W        W  508  10.869  37.411  10.547
33968W        W  509  10.107   8.280  10.339
33969W        W  510   6.079  33.698  10.145
33970W        W  511   9.361  18.310  10.746
33971W        W  512  35.405   0.237  12.173
33972W        W  513  15.107   0.622  12.345
33973W        W  514  34.957  36.135   2.868
33974W        W  515   8.095   1.734   2.047
33975W        W  516  40.980  31.148   3.772
33976W        W  517  25.982  27.585  13.266
33977W        W  518  44.024   5.615   1.940
33978W        W  519  13.152   9.160  11.564
33979W        W  520  40.009  35.990   1.654
33980W        W  521  17.757  29.029   0.775
33981W        W  522  33.813  31.681   0.372
33982W        W  523  42.350  27.605   4.381
33983W        W  524  11.913   7.164  13.000
33984W        W  525  32.110  16.766  14.400
33985W        W  526  36.994  18.507   4.106
33986W        W  527  40.804  10.118  14.056
33987W        W  528  24.532   7.172   4.705
33988W        W  529  31.416   4.400   1.540
33989W        W  530  30.103  33.066   2.476
33990W        W  531  25.677  30.037   3.362
33991W        W  532  12.750  10.314   4.904
33992W        W  533  42.882  42.239   1.740
33993W        W  534  27.955  37.800   4.291
33994W        W  535  28.686   0.947   0.895
33995W        W  536   6.818   3.166  10.681
33996W        W  537   5.175  22.008  12.581
33997W        W  538   4.303  16.612  11.647
33998W        W  539  34.510  38.530  12.926
33999W        W  540   6.477   7.198   2.225
34000W        W  541  38.690   4.319  11.960
34001W        W  542   5.136   5.256  11.256
34002W        W  543  11.393   4.490  12.185
34003W        W  544   6.378  21.328  11.537
34004W        W  545   2.825  15.227  11.586
34005W        W  546   7.523  24.807   9.663
34006W        W  547  41.253   4.395   2.315
34007W        W  548  12.249  26.527  13.221
34008W        W  549  39.466  29.019   1.666
34009W        W  550  10.627  33.454   2.874
34010W        W  551   5.601   6.232  12.468
34011W        W  552  23.461  17.264  12.266
34012W        W  553  24.946  13.710  13.027
34013W        W  554  11.219  37.554  11.523
34014W        W  555   0.038  32.423   1.345
34015W        W  556  18.029  38.403   4.379
34016W        W  557  25.174  40.036  13.556
34017W        W  558  21.546   4.130   4.068
34018W        W  559  18.279  44.426   4.604
34019W        W  560  14.589  10.150  13.839
34020W        W  561  31.982  13.068   1.833
34021W        W  562  12.271  36.570  10.921
34022W        W  563  11.828  30.993   2.180
34023W        W  564  17.262  43.916  13.944
34024W        W  565   7.376  35.680   1.673
34025W        W  566  23.674  37.477   0.792
34026W        W  567  18.138  36.738   0.711
34027W        W  568  21.581  27.450  11.567
34028W        W  569   4.386   8.830   1.465
34029W        W  570  44.042  39.430  14.909
34030W        W  571  10.445  15.149   0.337
34031W        W  572  24.414  14.640   2.168
34032W        W  573  20.623  15.777  14.906
34033W        W  574  37.952  40.505   3.412
34034W        W  575   1.262  10.301  12.365
34035W        W  576   4.580  38.544   5.146
34036W        W  577  31.505  12.087   3.670
34037W        W  578  28.409   5.434  10.941
34038W        W  579  17.394  19.180   2.329
34039W        W  580  33.675   2.407   2.217
34040W        W  581   0.910   5.110   0.491
34041W        W  582  41.283  37.326  14.289
34042W        W  583  33.423  17.179   3.118
34043W        W  584  33.937  21.260  10.479
34044W        W  585  24.790  42.444   3.121
34045W        W  586  18.296   0.444  12.171
34046W        W  587  29.094   0.893   4.023
34047W        W  588  39.286  40.296  10.451
34048W        W  589  23.855  23.464   4.444
34049W        W  590  37.485  13.540   2.439
34050W        W  591  35.080  42.241  10.652
34051W        W  592  17.525  41.778  14.593
34052W        W  593   3.101  43.133   1.868
34053W        W  594   6.226  14.222  10.712
34054W        W  595  44.933  17.628  13.436
34055W        W  596   4.301   7.348   3.277
34056W        W  597   1.125   1.917   0.763
34057W        W  598  21.182  21.946  12.042
34058W        W  599  34.878   0.593  11.165
34059W        W  600  20.604  19.705  14.739
34060W        W  601  17.737  12.670   3.904
34061W        W  602  27.717   9.484  11.244
34062W        W  603  36.112   7.321  11.551
34063W        W  604   3.021  27.121  12.456
34064W        W  605   2.877  19.654   4.527
34065W        W  606  38.106  30.114   3.281
34066W        W  607  31.142  28.210   3.197
34067W        W  608  23.774   0.267   1.276
34068W        W  609  24.735  39.454   3.228
34069W        W  610  11.746  22.485   0.519
34070W        W  611  39.589  14.711  11.962
34071W        W  612  15.642   6.294  13.037
34072W        W  613   4.710  33.374  12.544
34073W        W  614  16.727  44.263   3.364
34074W        W  615  30.694   1.315   3.249
34075W        W  616  35.869  24.132  13.985
34076W        W  617  26.487   5.949   4.470
34077W        W  618  15.289  41.832  10.920
34078W        W  619   8.261  33.442   3.707
34079W        W  620  25.703  38.965  11.123
34080W        W  621  40.652  11.859   3.168
34081W        W  622  39.796   1.107   0.471
34082W        W  623  12.118   4.656   0.420
34083W        W  624  25.531   5.275  11.976
34084W        W  625  27.988  17.397   3.980
34085W        W  626   6.346   8.390   3.082
34086W        W  627  26.612  10.532   1.378
34087W        W  628  23.303   9.194  11.129
34088W        W  629   0.960  16.619  12.038
34089W        W  630  12.857  30.534   0.588
34090W        W  631  43.366  18.963   1.059
34091W        W  632  11.706   7.350  11.645
34092W        W  633  42.239  36.994  12.341
34093W        W  634   3.698  36.026  10.514
34094W        W  635  26.275   2.846  11.079
34095W        W  636  28.067   9.349   2.720
34096W        W  637   0.067  15.260  11.610
34097W        W  638   6.527  19.738   3.729
34098W        W  639  14.102  19.016   0.726
34099W        W  640  32.936   6.704   2.219
34100W        W  641   9.246  23.902   0.461
34101W        W  642  35.011   3.116   3.795
34102W        W  643  15.193  32.673  13.407
34103W        W  644  38.065  29.158   4.195
34104W        W  645  29.626  31.209   2.365
34105W        W  646  21.726  42.601   1.295
34106W        W  647   1.312  11.376   1.274
34107W        W  648  36.086  18.393  12.723
34108W        W  649   1.026  15.368  11.441
34109W        W  650  43.864  21.858  11.070
34110W        W  651  27.024   7.796  10.533
34111W        W  652  18.584  35.106  14.747
34112W        W  653  26.573  34.318  14.462
34113W        W  654  41.915  36.371  10.755
34114W        W  655  30.718  28.783   2.357
34115W        W  656  41.630  28.032   4.518
34116W        W  657  36.971  38.486   1.632
34117W        W  658  27.093   5.309  10.742
34118W        W  659  23.978  36.581   1.281
34119W        W  660  12.590  34.999   3.564
34120W        W  661  41.561   3.891  14.246
34121W        W  662  18.280   3.940  13.573
34122W        W  663  41.747  19.748   0.905
34123W        W  664   6.266  33.652   2.378
34124W        W  665  21.351  30.985  13.549
34125W        W  666  17.963  18.260   4.749
34126W        W  667  37.818  12.207   2.454
34127W        W  668  32.680   1.287   2.274
34128W        W  669  44.918  36.116  13.937
34129W        W  670  20.781   6.118  10.202
34130W        W  671  29.449  18.690   1.324
34131W        W  672  12.066   6.349   3.724
34132W        W  673  22.632   2.147  13.072
34133W        W  674   4.942  15.150  10.238
34134W        W  675  28.544   3.641   4.084
34135W        W  676  42.864  43.459   3.092
34136W        W  677   0.181  18.674  12.615
34137W        W  678  35.057  22.493  13.086
34138W        W  679  18.681  31.373   2.143
34139W        W  680  27.614  11.665   3.772
34140W        W  681  19.670  36.889  14.787
34141W        W  682  21.069   9.900  14.786
34142W        W  683  24.615  28.363  13.052
34143W        W  684  26.142  36.593   4.194
34144W        W  685  44.288  21.681   1.257
34145W        W  686  11.700  30.964   1.672
34146W        W  687   5.206   9.800  10.555
34147W        W  688   6.210  31.744   2.824
34148W        W  689   5.235   2.052   3.112
34149W        W  690  14.420   7.093   9.878
34150W        W  691  21.321   7.352  11.577
34151W        W  692  14.354  39.859   4.302
34152W        W  693  32.688  16.794   1.954
34153W        W  694  29.564  15.882  10.299
34154W        W  695  35.942  14.866   4.081
34155W        W  696  25.969  34.464  10.741
34156W        W  697   1.181  42.309  13.319
34157W        W  698  44.074  33.006  12.546
34158W        W  699   6.691  27.145  14.421
34159W        W  700   6.328   7.918   3.338
34160W        W  701   8.642  38.220  13.471
34161W        W  702  40.939  31.126  14.830
34162W        W  703  38.921  11.105   3.241
34163W        W  704  18.604  31.703  12.343
34164W        W  705  43.542  29.378   3.573
34165W        W  706  10.744   3.712  12.084
34166W        W  707  33.130  25.429   4.113
34167W        W  708  24.749  11.703  14.777
34168W        W  709  15.006   7.728   3.234
34169W        W  710  36.527  40.728   4.887
34170W        W  711  13.590  12.767   1.418
34171W        W  712  30.888  19.120   0.385
34172W        W  713  32.517  33.558   3.070
34173W        W  714  30.909   8.162   2.668
34174W        W  715  33.870  31.431  13.568
34175W        W  716  43.973  19.713   3.323
34176W        W  717  41.498   5.683   3.308
34177W        W  718   2.798  43.761   2.491
34178W        W  719   4.228  18.402   4.569
34179W        W  720  29.619  15.256  10.943
34180W        W  721  38.457  35.605   0.876
34181W        W  722  35.516   8.873   0.241
34182W        W  723  11.645  15.163  13.118
34183W        W  724  16.611  27.073   3.686
34184W        W  725   4.656  22.055   0.419
34185W        W  726  17.528  12.068   0.364
34186W        W  727  40.286  16.973   2.251
34187W        W  728  31.025  28.055   0.986
34188W        W  729  21.237   0.467  14.050
34189W        W  730  32.126   0.942   3.326
34190W        W  731  11.712  37.447  11.645
34191W        W  732  31.288  25.464  10.209
34192W        W  733  44.643   7.659  12.603
34193W        W  734  39.491  11.167   2.848
34194W        W  735  31.680  27.327  14.290
34195W        W  736   9.726  16.508   3.212
34196W        W  737   5.950  28.900  11.686
34197W        W  738   9.330  44.703  14.577
34198W        W  739  19.931  33.435   0.011
34199W        W  740   7.344  35.893   4.613
34200W        W  741  44.842  29.827  14.619
34201W        W  742   0.697  44.929  11.186
34202W        W  743  35.131  43.618   1.411
34203W        W  744  19.432  43.429   0.885
34204W        W  745   7.915   2.654  11.119
34205W        W  746  36.966  37.614   3.706
34206W        W  747  40.585  31.539  14.193
34207W        W  748   7.282  29.584   2.117
34208W        W  749  17.823  13.713   3.400
34209W        W  750  34.745  14.639  13.850
34210W        W  751   3.984   9.009   1.194
34211W        W  752   7.454   2.935  13.144
34212W        W  753  11.503  16.513   0.766
34213W        W  754  19.590  17.549  13.581
34214W        W  755  24.807   9.337   3.621
34215W        W  756  12.545  18.022   0.445
34216W        W  757  13.342   8.279  12.885
34217W        W  758  10.094  19.627  11.517
34218W        W  759  38.433   1.046   2.810
34219W        W  760  36.940  11.963   2.781
34220W        W  761  36.440  38.417   4.618
34221W        W  762  23.610   5.466  13.589
34222W        W  763  35.347  39.468  13.465
34223W        W  764  26.258  41.353  14.519
34224W        W  765   0.823  32.133  11.653
34225W        W  766   6.759   1.708  13.415
34226W        W  767  33.396  28.221   2.689
34227W        W  768   4.801  23.615  14.797
34228W        W  769  39.864  37.406  11.260
34229W        W  770   4.745  24.453  11.858
34230W        W  771   8.722  33.986   0.471
34231W        W  772   5.278  19.831  11.000
34232W        W  773   8.909   9.892  12.710
34233W        W  774  40.764  37.463   3.704
34234W        W  775  29.408   2.768   4.319
34235W        W  776  22.971  24.179  12.549
34236W        W  777  33.098   5.365  13.282
34237W        W  778   0.573   0.518  10.493
34238W        W  779  27.683   8.896  13.538
34239W        W  780  10.903  16.450   2.580
34240W        W  781  12.929  20.988   4.450
34241W        W  782  36.158  18.001  11.093
34242W        W  783   7.306  31.342  12.013
34243W        W  784  43.596  20.550   2.401
34244W        W  785  15.201  23.507  11.797
34245W        W  786  15.714   5.461   0.480
34246W        W  787  31.643   7.128  14.053
34247W        W  788  13.606  26.417  12.534
34248W        W  789  28.227  35.081   1.997
34249W        W  790   0.903  41.818  10.770
34250W        W  791  39.932  12.138   5.393
34251W        W  792  18.966  33.346  13.950
34252W        W  793   1.264  22.060   0.910
34253W        W  794  20.084   4.752   1.140
34254W        W  795  36.637  14.069  13.166
34255W        W  796  19.840  12.065  11.961
34256W        W  797  11.963   0.797  11.014
34257W        W  798  11.589  37.942  11.493
34258W        W  799  23.644  35.370   1.378
34259W        W  800   8.975  37.461   0.441
34260W        W  801  11.501   0.847   2.100
34261W        W  802  15.016  14.273   0.772
34262W        W  803  34.139  15.745   0.491
34263W        W  804  25.984  26.108   0.749
34264W        W  805   1.249  23.206   0.225
34265W        W  806  44.310   8.077  14.427
34266W        W  807  14.975  22.725  10.306
34267W        W  808  10.786  25.926   1.735
34268W        W  809  24.163  17.387   0.306
34269W        W  810   3.987   5.855  10.775
34270W        W  811   9.238  24.622  11.616
34271W        W  812  33.963  32.627   1.364
34272W        W  813  16.196  13.750   2.927
34273W        W  814  22.736  31.509   4.527
34274W        W  815  33.850   6.875  10.858
34275W        W  816  35.842  21.113  13.506
34276W        W  817  44.500  19.802  14.790
34277W        W  818  31.145  40.974  12.837
34278W        W  819  29.152  28.113   1.074
34279W        W  820   0.541   7.738   3.737
34280W        W  821  29.792  21.625  12.531
34281W        W  822   4.308   0.461  14.710
34282W        W  823   7.726   6.821  14.986
34283W        W  824  17.221   8.449  11.653
34284W        W  825  35.474  40.998  14.259
34285W        W  826  27.121  37.572   1.319
34286W        W  827  22.678  39.883   4.302
34287W        W  828  41.047  42.017   1.628
34288W        W  829  27.597  20.699  14.565
34289W        W  830  43.321  16.439   2.268
34290W        W  831   5.985  37.801   1.372
34291W        W  832  38.645  30.006  12.880
34292W        W  833  28.454  13.313   1.451
34293W        W  834  21.460  34.756  12.492
34294W        W  835  25.521  28.664  13.629
34295W        W  836  15.699  38.229  10.581
34296W        W  837   6.067   2.768  14.353
34297W        W  838  21.528  19.343   2.314
34298W        W  839  19.770   9.702  14.467
34299W        W  840  17.167  25.862   3.517
34300W        W  841   5.064  40.267  13.356
34301W        W  842  39.416  14.666   2.839
34302W        W  843   2.700   3.343  13.088
34303W        W  844  12.174  35.693  13.903
34304W        W  845   5.917  26.484   1.287
34305W        W  846  17.314  27.185   3.070
34306W        W  847  44.756  35.380   4.089
34307W        W  848  12.282  43.087  12.548
34308W        W  849  41.041  17.039   3.385
34309W        W  850  35.796   5.839  12.867
34310W        W  851  11.169  23.146  10.944
34311W        W  852  39.069  42.585  14.770
34312W        W  853   0.240  32.400   2.661
34313W        W  854   1.230  14.503  13.811
34314W        W  855   3.366  18.413   4.442
34315W        W  856  33.271  20.098   1.946
34316W        W  857   8.933  41.204   3.353
34317W        W  858  21.234  12.762   0.358
34318W        W  859  12.461  43.008   2.986
34319W        W  860  34.583  42.053  13.023
34320W        W  861  41.414   7.384   1.972
34321W        W  862  27.974  40.668  12.574
34322W        W  863  39.988  15.370  11.502
34323W        W  864  22.093  13.655   9.552
34324W        W  865  23.602  17.973   4.633
34325W        W  866  42.927  18.401   3.725
34326W        W  867  34.954  29.482   4.202
34327W        W  868  42.470  33.801  14.755
34328W        W  869  14.108  25.333  13.718
34329W        W  870  19.120   9.618   2.707
34330W        W  871  10.949  27.733   1.892
34331W        W  872  43.278  25.431   2.332
34332W        W  873  35.726  12.046  13.094
34333W        W  874  23.738   7.013  12.959
34334W        W  875  13.379  37.424   1.870
34335W        W  876  25.747  21.815  13.600
34336W        W  877  27.124  28.065   0.967
34337W        W  878  20.473  41.297   1.399
34338W        W  879  10.814  10.061  13.900
34339W        W  880   7.692  41.032   1.232
34340W        W  881  20.783  37.648   0.336
34341W        W  882  19.290   8.680  10.499
34342W        W  883   1.498  36.987   0.259
34343W        W  884  31.871  10.321  11.449
34344W        W  885  19.611  32.435  10.658
34345W        W  886  24.799  44.547  11.748
34346W        W  887  39.413   8.291   0.966
34347W        W  888  12.168  25.996   1.900
34348W        W  889  44.530   9.838  11.603
34349W        W  890  32.449  22.255   0.753
34350W        W  891  32.334   7.180  10.560
34351W        W  892  34.479  32.587   2.412
34352W        W  893  18.146  11.428   4.563
34353W        W  894  43.254  38.975   4.432
34354W        W  895  25.908  19.547   3.183
34355W        W  896  43.820  36.331  14.352
34356W        W  897  35.818  37.498   3.160
34357W        W  898   9.679  20.226  11.887
34358W        W  899  18.779   3.639   5.027
34359W        W  900  38.808  30.805  12.049
34360W        W  901  11.666  29.820  14.526
34361W        W  902  44.023  28.291   9.915
34362W        W  903  38.552  21.318  12.988
34363W        W  904  17.791  40.222  12.561
34364W        W  905  41.926  30.148   3.183
34365W        W  906   0.385   6.739   4.545
34366W        W  907  38.968  36.046   4.504
34367W        W  908  39.047  20.246  14.033
34368W        W  909  39.438   0.818  13.738
34369W        W  910  12.306  15.700   2.593
34370W        W  911  14.656  20.087  11.464
34371W        W  912  20.119  36.882  11.493
34372W        W  913   4.441  25.073   4.479
34373W        W  914  33.085  38.325   1.373
34374W        W  915  11.605  19.070  13.020
34375W        W  916   6.961  17.204   2.658
34376W        W  917  15.082  34.992  14.465
34377W        W  918  21.697  11.954  10.705
34378W        W  919  44.237  41.947  12.808
34379W        W  920  34.119  31.435  11.435
34380W        W  921  41.809  17.032  13.105
34381W        W  922  13.105  23.090   1.815
34382W        W  923  15.113  42.382  11.960
34383W        W  924  31.067  34.974   4.387
34384W        W  925   2.630  12.542   3.156
34385W        W  926  27.882  35.964   0.393
34386W        W  927   7.760  19.584   2.099
34387W        W  928  20.789  38.321  14.458
34388W        W  929  28.717  16.897   2.405
34389W        W  930  41.595   3.860  13.721
34390W        W  931  33.586  26.531  12.944
34391W        W  932  22.136  12.163  11.806
34392W        W  933  24.612  27.102   4.975
34393W        W  934  34.847  30.958  10.988
34394W        W  935  11.856   8.610  10.493
34395W        W  936  31.401  17.631   0.254
34396W        W  937  18.220  28.091  12.069
34397W        W  938  16.875  18.740  12.490
34398W        W  939  27.482  21.159  10.471
34399W        W  940   6.888  12.050  11.080
34400W        W  941  32.814  15.278  14.282
34401W        W  942   6.943  44.351  13.023
34402W        W  943  25.772   6.452  13.666
34403W        W  944  29.139  16.207  11.330
34404W        W  945  28.036  34.004   0.303
34405W        W  946  34.861   5.684   4.154
34406W        W  947   7.875  38.382  13.077
34407W        W  948   1.936  32.014   2.633
34408W        W  949   5.102  18.780  12.532
34409W        W  950   0.081   1.397  12.612
34410W        W  951  32.120  31.265   0.066
34411W        W  952  19.262  16.251  13.444
34412W        W  953  18.428   4.779   1.667
34413W        W  954  10.100   6.471   1.156
34414W        W  955   9.906  30.180   1.300
34415W        W  956  20.637   9.192  14.738
34416W        W  957   2.515  13.645  11.077
34417W        W  958  18.850  44.604  14.469
34418W        W  959  18.974  37.499  10.257
34419W        W  960  19.765  23.829  12.031
34420W        W  961  38.282  10.893   2.832
34421W        W  962   2.754  26.073  11.651
34422W        W  963  16.022  20.055  13.048
34423W        W  964  42.526   4.755  13.073
34424W        W  965  31.567  13.014   0.656
34425W        W  966  25.682  23.801  14.336
34426W        W  967   5.244  33.447  10.717
34427W        W  968  29.858  22.101   4.229
34428W        W  969  39.399  12.105   1.011
34429W        W  970   4.667  15.401  10.643
34430W        W  971  35.153  35.058  13.627
34431W        W  972  19.282  41.410  11.651
34432W        W  973  26.046  35.817   4.804
34433W        W  974   0.417  10.158   1.883
34434W        W  975  20.788  15.520   2.605
34435W        W  976   7.727  27.594   4.035
34436W        W  977  16.181   4.111   2.772
34437W        W  978  41.263  13.860  12.538
34438W        W  979  31.150   9.933  13.205
34439W        W  980   6.317  26.277  14.033
34440W        W  981   3.904   1.632   1.741
34441W        W  982  12.099  29.164   4.627
34442W        W  983  26.703  42.730   3.101
34443W        W  984  27.720  36.562   2.157
34444W        W  985  24.756   9.780   4.815
34445W        W  986   1.729  27.974  12.807
34446W        W  987   0.758  32.484   2.660
34447W        W  988  30.442  35.195   1.888
34448W        W  989  10.715  24.112  12.393
34449W        W  990  19.829  37.085  13.021
34450W        W  991  13.589  16.212   3.799
34451W        W  992  37.427  35.805   2.321
34452W        W  993  31.933   8.218   3.618
34453W        W  994   2.503   5.714   3.445
34454W        W  995  20.214  26.765  12.867
34455W        W  996   9.675  21.656  13.543
34456W        W  997   6.786  31.329   3.330
34457W        W  998  19.263  36.879  10.666
34458W        W  999   5.782  25.312   2.664
34459W        W 1000  26.916  39.982  13.786
34460W        W 1001   0.453  13.615  13.725
34461W        W 1002   5.882  32.493   1.771
34462W        W 1003  31.463  34.836  12.280
34463W        W 1004  29.557  24.602  13.872
34464W        W 1005  41.839  24.514  13.854
34465W        W 1006  25.190   6.859   2.816
34466W        W 1007   8.415  15.120  13.559
34467W        W 1008  17.593   0.540  14.421
34468W        W 1009  24.787  23.205   0.485
34469W        W 1010  34.920   5.982   1.280
34470W        W 1011  12.417   6.284  12.848
34471W        W 1012  35.756  34.951  13.818
34472W        W 1013  15.105   0.793   2.458
34473W        W 1014  34.977  42.212  14.012
34474W        W 1015   3.529   7.192   0.641
34475W        W 1016  13.245  23.809  14.763
34476W        W 1017  15.186  34.918   3.164
34477W        W 1018  13.987  11.326  11.602
34478W        W 1019  37.508   6.302   0.164
34479W        W 1020  37.315  44.735   4.973
34480W        W 1021   2.035  40.044   2.862
34481W        W 1022  14.689  23.949   3.341
34482W        W 1023   7.796   1.418  10.482
34483W        W 1024  20.272   4.346  10.436
34484W        W 1025  27.008   9.916  11.866
34485W        W 1026  31.413  32.140  12.901
34486W        W 1027  39.798  37.585   1.943
34487W        W 1028  17.745   6.494  13.358
34488W        W 1029  36.249   4.433   2.259
34489W        W 1030  27.857   8.168   4.842
34490W        W 1031  22.950  18.172   1.837
34491W        W 1032  44.727  21.558  10.876
34492W        W 1033  40.388  38.978   2.355
34493W        W 1034  20.902   6.222   1.410
34494W        W 1035  11.656  41.437   2.723
34495W        W 1036  13.044  15.717  14.566
34496W        W 1037  36.048  42.901  14.538
34497W        W 1038   0.244  36.895   1.364
34498W        W 1039  16.546  24.563   0.534
34499W        W 1040  29.196  36.997   2.699
34500W        W 1041  23.458  37.577  14.926
34501W        W 1042  14.589   3.365   0.320
34502W        W 1043  10.895  21.655   0.635
34503W        W 1044   6.639   4.592   4.443
34504W        W 1045  43.690   5.889   2.296
34505W        W 1046   0.602   5.885  14.518
34506W        W 1047   9.204  35.434   4.327
34507W        W 1048  16.486  18.374  12.531
34508W        W 1049  43.718  29.930   0.959
34509W        W 1050  28.471  39.942   1.211
34510W        W 1051  19.020  27.695   4.479
34511W        W 1052  37.482  17.742  11.472
34512W        W 1053  18.721   8.256  13.820
34513W        W 1054  42.437   9.466   1.376
34514W        W 1055   8.850  29.316   0.034
34515W        W 1056  44.818   2.426  13.912
34516W        W 1057   7.437  11.815  12.660
34517W        W 1058  43.913  35.752  10.690
34518W        W 1059  23.043  26.562  12.020
34519W        W 1060   0.359   5.103   5.001
34520W        W 1061  43.192   4.412   2.157
34521W        W 1062  10.287  43.998   2.331
34522W        W 1063  15.627  23.255  11.574
34523W        W 1064   3.976  29.751   0.072
34524W        W 1065   4.485  36.379   4.413
34525W        W 1066  31.703   8.307  11.419
34526W        W 1067   6.403   3.205   2.739
34527W        W 1068  27.460  17.558   1.300
34528W        W 1069   3.764  41.665  11.008
34529W        W 1070  30.947   7.932  12.472
34530W        W 1071  17.779  35.557   0.165
34531W        W 1072   4.117  13.899  10.411
34532W        W 1073  27.081  34.291   4.895
34533W        W 1074   2.849  24.390  12.300
34534W        W 1075   2.901   3.210   1.792
34535W        W 1076  33.502  14.805  14.025
34536W        W 1077   7.854   0.886  11.223
34537W        W 1078   6.306  26.147  12.987
34538W        W 1079  27.930  19.767   1.175
34539W        W 1080  25.758   6.944  12.553
34540W        W 1081   1.135  40.217  11.999
34541W        W 1082  17.695  22.471   2.839
34542W        W 1083  11.126   8.887  13.412
34543W        W 1084   8.763  26.134   3.751
34544W        W 1085  32.914  23.161   0.810
34545W        W 1086  40.968   3.243   2.147
34546W        W 1087   5.935  16.760   3.381
34547W        W 1088  33.619  17.226   0.229
34548W        W 1089  35.581  31.763   4.134
34549W        W 1090  26.496  40.545  13.086
34550W        W 1091  32.636  27.791  14.474
34551W        W 1092  38.615  19.142  12.969
34552W        W 1093  29.149  42.290   2.896
34553W        W 1094  24.909   4.435   2.824
34554W        W 1095  34.608  13.096  11.139
34555W        W 1096  29.871  20.525   3.119
34556W        W 1097  10.524  12.345  12.222
34557W        W 1098   5.413  33.675   4.087
34558W        W 1099  10.705  25.449   4.619
34559W        W 1100   9.368  41.384   0.309
34560W        W 1101  14.414  41.978   4.040
34561W        W 1102  31.624  33.826  14.164
34562W        W 1103  19.073  32.243   2.314
34563W        W 1104   3.388  19.266   2.843
34564W        W 1105   9.435   7.608   3.681
34565W        W 1106   5.737  31.837  14.744
34566W        W 1107  35.935  24.723  13.444
34567W        W 1108  14.042   5.395   1.460
34568W        W 1109  29.704  32.164  14.850
34569W        W 1110  21.519  10.396   2.897
34570W        W 1111  23.508   2.933   1.237
34571W        W 1112   3.791  39.288   0.877
34572W        W 1113  36.363  15.941  13.280
34573W        W 1114  28.646   0.707  14.018
34574W        W 1115  44.930  23.893   0.082
34575W        W 1116  29.461  10.323  14.782
34576W        W 1117  15.517   7.923   3.336
34577W        W 1118  14.777  38.526   1.275
34578W        W 1119  28.955  35.509  14.175
34579W        W 1120  26.005  30.342   0.480
34580W        W 1121  34.617  12.666   1.905
34581W        W 1122  17.497   1.139   2.781
34582W        W 1123  10.167  36.884   2.694
34583W        W 1124  40.770  24.881  11.290
34584W        W 1125  22.042   6.099  14.156
34585W        W 1126  37.087  40.292   3.837
34586W        W 1127   7.927  37.320   5.393
34587W        W 1128  12.650  31.893   2.278
34588W        W 1129  19.813  25.741  12.027
34589W        W 1130  14.909  40.726   4.438
34590W        W 1131   2.531  39.486  12.995
34591W        W 1132  30.119  34.067  12.463
34592W        W 1133  27.155  43.835  14.342
34593W        W 1134  42.801   8.441  11.174
34594W        W 1135  44.003  14.340  12.979
34595W        W 1136  36.865  41.385   1.526
34596W        W 1137  13.013  31.134   1.419
34597W        W 1138   8.980  33.157  14.619
34598W        W 1139  31.318   2.016   4.612
34599W        W 1140  16.990  32.967   0.698
34600W        W 1141  40.735  17.457  11.187
34601W        W 1142  20.715   7.794  11.986
34602W        W 1143  10.173  34.129  12.605
34603W        W 1144  32.628  10.724   4.194
34604W        W 1145   2.270  35.654   4.771
34605W        W 1146  38.498   6.055  11.989
34606W        W 1147  44.519  40.466   3.316
34607W        W 1148   7.043   8.761   2.661
34608W        W 1149   0.007  19.545   4.236
34609W        W 1150  13.220  12.811  11.229
34610W        W 1151  22.964  43.535  13.476
34611W        W 1152  26.104  26.485   2.381
34612W        W 1153  32.804  23.430  11.174
34613W        W 1154  23.056  35.405   4.440
34614W        W 1155  19.212   7.011   0.464
34615W        W 1156   4.209   4.463   0.005
34616W        W 1157   8.242   0.423  13.745
34617W        W 1158  31.532   1.324  10.430
34618W        W 1159  42.612  14.972  10.339
34619W        W 1160  23.717  28.689   2.971
34620W        W 1161  39.538  34.323  12.102
34621W        W 1162  15.154  43.722  13.424
34622W        W 1163   8.352  36.582  14.808
34623W        W 1164   5.152  36.476  11.225
34624W        W 1165  44.175  13.203  13.820
34625W        W 1166  32.073  33.523  11.129
34626W        W 1167  17.120  34.450  12.930
34627W        W 1168  19.718  15.223  13.600
34628W        W 1169  16.369  36.504  14.973
34629W        W 1170  25.050  17.312  11.880
34630W        W 1171   9.482   2.999   4.365
34631W        W 1172  23.037  43.375   1.898
34632W        W 1173  15.037  14.851  14.392
34633W        W 1174   6.146   1.429   3.373
34634W        W 1175  22.249  31.180  12.638
34635W        W 1176  34.249  33.453   0.697
34636W        W 1177  25.148  39.441  10.692
34637W        W 1178  16.516  29.408   1.341
34638W        W 1179  40.769  37.999  11.610
34639W        W 1180  13.673  31.322  14.821
34640W        W 1181  44.700  39.405   1.935
34641W        W 1182  22.686  29.497  13.045
34642W        W 1183  20.461   5.884   2.674
34643W        W 1184  24.317  16.676  10.890
34644W        W 1185  19.077  22.230  12.821
34645W        W 1186   5.297  25.140   2.650
34646W        W 1187  40.223  36.064  11.325
34647W        W 1188  43.457   9.159  13.346
34648W        W 1189   1.984  38.122   1.926
34649W        W 1190  11.086   1.319   0.749
34650W        W 1191  12.304  24.179   2.257
34651W        W 1192   3.263  37.726   3.063
34652W        W 1193  23.405  27.083   0.905
34653W        W 1194  44.963  13.799   4.674
34654W        W 1195  24.161   7.243   1.255
34655W        W 1196  30.293  10.278   9.842
34656W        W 1197  39.518  16.146  11.030
34657W        W 1198  26.393  41.044  11.933
34658W        W 1199  40.502  44.301   2.759
34659W        W 1200  16.592  35.834   3.156
34660W        W 1201  13.924  35.155   1.792
34661W        W 1202   1.059  36.606   3.816
34662W        W 1203   4.335  30.921   0.228
34663W        W 1204   6.774  24.521   0.992
34664W        W 1205   1.948   4.973  13.647
34665W        W 1206   8.440  31.127   3.124
34666W        W 1207  28.458  31.599  14.561
34667W        W 1208  19.620  23.354  10.766
34668W        W 1209  26.289  27.157   1.692
34669W        W 1210  43.483  40.329  12.918
34670W        W 1211   0.690   2.818  14.682
34671W        W 1212  21.503  19.715   3.309
34672W        W 1213  29.331   3.484  11.605
34673W        W 1214  20.619  28.681  13.333
34674W        W 1215   1.194   0.533   0.101
34675W        W 1216  28.179  26.706  10.607
34676W        W 1217   9.693   9.534  12.189
34677W        W 1218  25.070  10.172   0.114
34678W        W 1219  21.753  10.076  12.550
34679W        W 1220   6.186  17.216   3.326
34680W        W 1221  21.652  25.363   1.144
34681W        W 1222  34.581  31.436  11.187
34682W        W 1223  31.377   6.756   3.687
34683W        W 1224  15.555   1.492   1.314
34684W        W 1225  12.240   0.893  14.534
34685W        W 1226  11.696   3.963  11.218
34686W        W 1227  14.379  35.497   3.947
34687W        W 1228  24.453  39.075  14.651
34688W        W 1229  16.723   5.263  12.159
34689W        W 1230  42.270  28.863   0.284
34690W        W 1231  28.104   5.516   0.171
34691W        W 1232  32.116  15.743   2.607
34692W        W 1233  38.569  22.099   2.293
34693W        W 1234   5.714  36.963  11.634
34694W        W 1235  42.166   0.472  13.813
34695W        W 1236  28.057   1.323  13.085
34696W        W 1237  13.306  13.866   1.898
34697W        W 1238  10.724  37.387   1.921
34698W        W 1239  21.598  21.166  12.902
34699W        W 1240  32.896  21.655   0.340
34700W        W 1241   0.368  37.287   0.151
34701W        W 1242   1.284  34.726  13.959
34702W        W 1243  20.465  20.151  12.649
34703W        W 1244  17.194  39.447   3.889
34704W        W 1245  43.952  27.727   3.225
34705W        W 1246  40.881  17.001   2.899
34706W        W 1247  27.866  38.585  10.995
34707W        W 1248  22.291  41.487  13.517
34708W        W 1249   8.335  31.789  12.583
34709W        W 1250   2.762  19.786   4.047
34710W        W 1251  21.301  30.396   3.253
34711W        W 1252  14.752   4.024   1.945
34712W        W 1253  15.368  18.264  14.848
34713W        W 1254   6.566  24.674   3.958
34714W        W 1255  11.179  25.470   1.051
34715W        W 1256   0.766  10.782  14.392
34716W        W 1257  31.494   2.616   4.123
34717W        W 1258  38.021  38.071  12.013
34718W        W 1259  28.505  23.964   2.882
34719W        W 1260  17.223  26.005  10.555
34720W        W 1261  43.739  34.532  13.852
34721W        W 1262   8.488  43.311  11.141
34722W        W 1263  24.704  39.901  14.444
34723W        W 1264  18.042  26.990  14.106
34724W        W 1265  38.085  22.679   1.432
34725W        W 1266  31.932  27.154  11.107
34726W        W 1267  21.038  37.996   0.022
34727W        W 1268  25.210  20.460   3.823
34728W        W 1269  42.854   3.331  12.064
34729W        W 1270  29.599  23.541  12.945
34730W        W 1271  10.709  30.419   2.163
34731W        W 1272  33.331  30.022   1.467
34732W        W 1273  15.688  36.719  11.981
34733W        W 1274  15.707   1.769   1.834
34734W        W 1275  23.277  22.975  13.098
34735W        W 1276  20.393  13.968   2.772
34736W        W 1277  15.812  32.222   0.964
34737W        W 1278  22.587  42.730   0.479
34738W        W 1279  33.220  15.233  13.922
34739W        W 1280  31.179  42.583   0.914
34740W        W 1281  24.619  33.545   3.428
34741W        W 1282  10.740  42.790   5.070
34742W        W 1283  14.688  12.979   3.196
34743W        W 1284  30.968  24.783  10.735
34744W        W 1285  26.757  13.194   3.850
34745W        W 1286  10.454  24.482   0.997
34746W        W 1287   5.703  40.218   4.702
34747W        W 1288   4.339  24.292  13.814
34748W        W 1289  33.641  41.276  14.802
34749W        W 1290  12.688  23.615   2.439
34750W        W 1291  37.667  43.983  11.142
34751W        W 1292  37.397  30.737   3.219
34752W        W 1293  39.852   0.168   1.335
34753W        W 1294  24.439  24.469   2.577
34754W        W 1295  15.181  27.925   3.650
34755W        W 1296  24.281  26.100  13.852
34756W        W 1297  35.375  22.084  12.491
34757W        W 1298  35.324  13.591  14.316
34758W        W 1299  21.571  29.760   0.883
34759W        W 1300  14.602  23.582  13.968
34760W        W 1301  19.128  12.600   5.366
34761W        W 1302  31.031  11.365  14.355
34762W        W 1303  26.387  29.651   0.467
34763W        W 1304  38.156  30.126  11.099
34764W        W 1305  27.532  18.710   4.542
34765W        W 1306   3.301  41.835   1.919
34766W        W 1307  23.193  20.507  14.935
34767W        W 1308  34.233   4.673   9.805
34768W        W 1309  19.232  19.734   1.191
34769W        W 1310  39.794  10.772   2.693
34770W        W 1311  24.561  33.493   0.654
34771W        W 1312   3.053  40.446  10.824
34772W        W 1313  13.758  38.342   1.170
34773W        W 1314  42.883  42.524   0.744
34774W        W 1315   4.524   7.648   2.017
34775W        W 1316  22.998  13.992   1.850
34776W        W 1317  14.805   8.392   1.562
34777W        W 1318   5.686  26.075  12.207
34778W        W 1319   2.783  32.401   1.222
34779W        W 1320   4.641  16.866  14.343
34780W        W 1321  41.989  16.732   2.363
34781W        W 1322   6.474   2.345  11.890
34782W        W 1323  33.004  12.361  11.491
34783W        W 1324   4.571  31.704  12.175
34784W        W 1325  41.713  24.971  12.097
34785W        W 1326  12.364  26.387   2.662
34786W        W 1327  40.032  30.668  10.862
34787W        W 1328  33.582  39.591   0.454
34788W        W 1329  23.739  28.626  11.012
34789W        W 1330  42.597   6.084  12.610
34790W        W 1331   4.923  34.094  14.180
34791W        W 1332  30.448   8.343   3.683
34792W        W 1333  18.664  43.800   4.571
34793W        W 1334  17.575   4.228  14.803
34794W        W 1335  30.101  43.842   1.711
34795W        W 1336  21.322  28.306   3.260
34796W        W 1337   3.760  10.636   2.370
34797W        W 1338  29.901   7.996  10.577
34798W        W 1339  35.060  24.720  10.723
34799W        W 1340  11.336  37.542  13.312
34800W        W 1341  35.525   8.165   4.529
34801W        W 1342   3.264   8.839   4.470
34802W        W 1343   4.268  18.323   3.074
34803W        W 1344  43.393  42.096   3.744
34804W        W 1345  32.533  42.707  14.973
34805W        W 1346  18.466  16.200  11.132
34806W        W 1347  35.171  18.857   4.032
34807W        W 1348   5.379  44.431  12.062
34808W        W 1349  14.315   2.041  11.660
34809W        W 1350   2.780  28.791   0.948
34810W        W 1351  24.499  16.708   0.131
34811W        W 1352  28.484  19.778  14.870
34812W        W 1353  31.090  23.800   3.597
34813W        W 1354  24.647  27.576  14.937
34814W        W 1355  38.379  36.345   3.804
34815W        W 1356  13.673  30.450   1.236
34816W        W 1357  38.958  28.907   1.320
34817W        W 1358  33.641  20.165  12.220
34818W        W 1359  11.737   2.892  12.093
34819W        W 1360   0.698  37.679  13.665
34820W        W 1361  39.383  31.618  11.446
34821W        W 1362   8.580  19.298  11.497
34822W        W 1363  41.012  12.845  14.525
34823W        W 1364  34.155  33.519  11.934
34824W        W 1365   7.781  27.736  13.075
34825W        W 1366  13.902   4.542   3.663
34826W        W 1367  29.003  17.576  13.449
34827W        W 1368  40.481  38.257   3.642
34828W        W 1369  39.891   2.532  13.063
34829W        W 1370  15.668   1.708  13.584
34830W        W 1371   1.197  28.690  10.231
34831W        W 1372  38.974  16.295   2.308
34832W        W 1373  14.582  29.533   0.286
34833W        W 1374  12.688   5.913   2.846
34834W        W 1375  39.292  36.169   3.525
34835W        W 1376  20.514  10.355  13.956
34836W        W 1377  34.944  29.859   4.536
34837W        W 1378  36.040  40.504   4.526
34838W        W 1379  43.716  12.227   0.540
34839W        W 1380  26.627  11.808   2.811
34840W        W 1381  40.021   9.181  11.722
34841W        W 1382  37.054  39.984  14.396
34842W        W 1383  28.514  10.386   0.341
34843W        W 1384  26.972  22.647   4.245
34844W        W 1385   5.220  27.186   1.446
34845W        W 1386  12.215   1.389   2.251
34846W        W 1387  10.290  15.659  11.061
34847W        W 1388   6.291  15.838   1.406
34848W        W 1389  22.434   0.233  14.917
34849W        W 1390  41.898   8.844  11.472
34850W        W 1391  11.805  19.825  10.731
34851W        W 1392   9.101   2.833  10.684
34852W        W 1393  15.577  17.412  11.056
34853W        W 1394  32.508  19.743   4.613
34854W        W 1395  10.194  38.056  10.410
34855W        W 1396   4.618  16.549  11.233
34856W        W 1397  14.224  27.081  14.020
34857W        W 1398  36.469  27.009   2.944
34858W        W 1399  14.335  32.386   1.706
34859W        W 1400  16.400  27.290  10.862
34860W        W 1401   3.646  40.877  11.942
34861W        W 1402   7.039   0.446  10.229
34862W        W 1403  10.814  26.149   2.201
34863W        W 1404  28.224  19.758  10.104
34864W        W 1405  35.558  40.453   2.378
34865W        W 1406  34.695  40.215  12.469
34866W        W 1407  44.101   8.791   4.683
34867W        W 1408  38.781   4.736  13.560
34868W        W 1409  17.349  23.782   3.824
34869W        W 1410  25.178  18.629  10.729
34870W        W 1411  38.998  11.447  13.766
34871W        W 1412  33.400  23.814  11.947
34872W        W 1413   2.669  14.409   0.672
34873W        W 1414  43.913   4.802   0.801
34874W        W 1415  41.009  23.402   0.923
34875W        W 1416  12.673  15.834   4.068
34876W        W 1417   7.341  44.005  10.834
34877W        W 1418  30.637  33.122   3.647
34878W        W 1419  16.749  12.184  14.323
34879W        W 1420  12.606   8.333  14.716
34880W        W 1421  24.277  19.193   4.679
34881W        W 1422   1.573  41.446   2.833
34882W        W 1423  20.489  37.477  14.959
34883W        W 1424   0.208  15.104  14.931
34884W        W 1425  42.442  19.620   3.254
34885W        W 1426   1.479  42.244   1.590
34886W        W 1427  43.260   2.422  12.186
34887W        W 1428  26.941   3.141  14.883
34888W        W 1429  17.779  17.055   1.851
34889W        W 1430  14.827   4.814  14.981
34890W        W 1431  25.800  31.603  12.846
34891W        W 1432  33.746  43.176   0.693
34892W        W 1433  10.421  22.516  14.475
34893W        W 1434  17.637  32.559  13.324
34894W        W 1435  10.314  21.685  10.466
34895W        W 1436  32.652  17.089   2.377
34896W        W 1437   3.262  31.846   2.177
34897W        W 1438  38.763   3.553   1.224
34898W        W 1439  38.506  31.600  12.541
34899W        W 1440  35.100  37.846  11.095
34900W        W 1441  38.072  38.130   3.282
34901W        W 1442  33.017  29.100  10.575
34902W        W 1443  13.329  11.685   4.886
34903W        W 1444   8.126  15.267   3.567
34904W        W 1445  34.561  34.967  12.401
34905W        W 1446  12.404  12.695   0.956
34906W        W 1447  16.585  29.513  12.864
34907W        W 1448  30.940  21.698   4.513
34908W        W 1449  14.182  17.026  13.357
34909W        W 1450  26.474  21.000  11.490
34910W        W 1451  21.967  38.468  11.087
34911W        W 1452  41.664  25.006   1.952
34912W        W 1453  25.769  18.626   4.514
34913W        W 1454  30.965  26.177   3.129
34914W        W 1455   5.895   0.558  10.696
34915W        W 1456  18.310  32.082  11.462
34916W        W 1457  14.184  41.863   1.390
34917W        W 1458  31.889  10.891   0.263
34918W        W 1459   8.200   9.442   3.444
34919W        W 1460   5.229  37.874  14.962
34920W        W 1461  27.149  10.154   4.568
34921W        W 1462  38.359  25.160   4.204
34922W        W 1463  15.195  20.273   3.297
34923W        W 1464  16.604  33.516   1.464
34924W        W 1465   0.805  29.828   1.315
34925W        W 1466  36.957   1.005  12.495
34926W        W 1467  42.417  37.238  14.749
34927W        W 1468  18.892   2.968   2.744
34928W        W 1469   6.230   4.161   2.793
34929W        W 1470  24.115  30.625   3.888
34930W        W 1471  26.541  25.855  13.048
34931W        W 1472  19.784   9.884  11.604
34932W        W 1473  22.185  42.004   3.709
34933W        W 1474   0.966   5.291   4.195
34934W        W 1475  23.287  19.466   3.130
34935W        W 1476   9.727  28.109   1.287
34936W        W 1477  27.538   3.855  11.296
34937W        W 1478  34.101  14.322  14.296
34938W        W 1479  36.587   3.746   1.998
34939W        W 1480  39.610  30.422  11.025
34940W        W 1481  13.820  27.629  12.869
34941W        W 1482  24.043  39.364  14.985
34942W        W 1483  40.581  33.979   1.239
34943W        W 1484  13.029  24.513  12.628
34944W        W 1485  12.924  25.549  14.879
34945W        W 1486  42.159  25.452   4.665
34946W        W 1487   8.084  39.497   0.389
34947W        W 1488  38.090   3.970  14.832
34948W        W 1489  22.982   6.409  14.265
34949W        W 1490  38.388  28.060   3.763
34950W        W 1491   5.413  10.014   4.574
34951W        W 1492  40.565  28.667   1.310
34952W        W 1493   5.636  13.308   0.635
34953W        W 1494  18.950  21.137  12.398
34954W        W 1495  25.648  40.492   1.838
34955W        W 1496  44.525  24.396   4.920
34956W        W 1497  28.976  13.040   1.678
34957W        W 1498  10.303  25.259   0.532
34958W        W 1499  38.324  37.739   0.529
34959W        W 1500  17.338  44.497   1.627
34960W        W 1501  13.485  19.258   4.821
34961W        W 1502  41.248  14.642   1.762
34962W        W 1503  24.123  23.888  10.515
34963W        W 1504  18.800  26.846   4.236
34964W        W 1505  29.600  21.473   2.861
34965W        W 1506  42.500  24.685  11.331
34966W        W 1507  29.939  43.561   2.458
34967W        W 1508  44.335   7.489   2.840
34968W        W 1509   8.209  34.227  12.561
34969W        W 1510  39.034  10.730  14.358
34970W        W 1511  36.387  22.168  14.475
34971W        W 1512  37.118   2.343   3.598
34972W        W 1513  28.727  12.582   2.350
34973W        W 1514   4.471  44.903  11.445
34974W        W 1515  35.532  14.363  13.754
34975W        W 1516   1.662  22.766   0.022
34976W        W 1517  26.180  33.425  13.256
34977W        W 1518  42.842  37.583   2.443
34978W        W 1519   7.830  39.780   3.619
34979W        W 1520  21.272  43.211   2.390
34980W        W 1521  14.179  34.036   1.563
34981W        W 1522  19.268  32.616   4.081
34982W        W 1523  29.260  31.102  14.376
34983W        W 1524  15.982   8.405  14.662
34984W        W 1525  30.708  15.181   5.319
34985W        W 1526  29.542  24.285  14.282
34986W        W 1527  27.409   1.846  11.458
34987W        W 1528  37.098  23.141   3.193
34988W        W 1529  35.132  34.932  12.616
34989W        W 1530   5.801  20.245  13.903
34990W        W 1531  26.673  10.755   4.125
34991W        W 1532   1.365  28.015  10.674
34992W        W 1533  30.851   4.232  12.862
34993W        W 1534  15.650  11.356  14.517
34994W        W 1535  15.380  21.694   1.005
34995W        W 1536  23.251  34.610  12.492
34996W        W 1537  44.559  19.539   3.957
34997W        W 1538  20.214  32.877  14.400
34998W        W 1539  33.051  27.954   1.373
34999W        W 1540  20.136  12.988   4.076
35000W        W 1541  27.363  22.965   0.819
35001W        W 1542  11.387  26.712  12.132
35002W        W 1543  11.094  16.056   2.831
35003W        W 1544  33.134  27.419  10.902
35004W        W 1545  28.242  39.881   9.967
35005W        W 1546  10.405  34.585  14.319
35006W        W 1547  37.832   4.359   3.164
35007W        W 1548  41.277   6.349   4.676
35008W        W 1549  18.673  44.397   1.280
35009W        W 1550  18.622   7.996   0.742
35010W        W 1551  15.703   5.508   2.803
35011W        W 1552   2.423  44.454   2.733
35012W        W 1553  31.826  17.313   1.074
35013W        W 1554   9.166   0.989  12.307
35014W        W 1555  14.817  28.732   0.724
35015W        W 1556  29.491  29.131  14.425
35016W        W 1557   5.825  24.576   2.905
35017W        W 1558  23.720  31.379  10.647
35018W        W 1559  27.412  37.326   0.737
35019W        W 1560  20.137   5.474   1.762
35020W        W 1561  27.738  11.340   1.702
35021W        W 1562  15.893  40.539   2.229
35022W        W 1563  37.707  41.856  14.396
35023W        W 1564   9.802  32.935  13.938
35024W        W 1565  33.495   8.895  14.898
35025W        W 1566  36.717  30.428   2.238
35026W        W 1567  25.906   6.636   4.111
35027W        W 1568  27.462  22.761  11.898
35028W        W 1569   6.761   9.389  14.513
35029W        W 1570  31.975  37.333  10.723
35030W        W 1571  38.264  18.806   3.630
35031W        W 1572  35.803  40.520  14.849
35032W        W 1573  24.740  35.577   1.366
35033W        W 1574   8.726  32.051   3.280
35034W        W 1575  22.106  18.492   3.623
35035W        W 1576   6.757  42.563   4.871
35036W        W 1577  16.461  43.354   4.670
35037W        W 1578  21.166  14.604  12.833
35038W        W 1579  16.689   1.901  11.703
35039W        W 1580  39.860  26.224  13.000
35040W        W 1581  14.600  16.809   4.537
35041W        W 1582   5.042  23.459   4.734
35042W        W 1583  29.694  42.971  11.173
35043W        W 1584  35.322  25.524  13.859
35044W        W 1585  12.669  40.778  11.008
35045W        W 1586  31.602  34.081  10.628
35046W        W 1587   2.205  13.547  14.771
35047W        W 1588  18.287  35.820   4.165
35048W        W 1589  42.973  41.595  12.435
35049W        W 1590  16.404  36.399  12.920
35050W        W 1591   0.889  14.019  11.122
35051W        W 1592   6.767  10.897  14.504
35052W        W 1593   2.887  43.006  13.529
35053W        W 1594  40.965  33.060   3.638
35054W        W 1595   4.791   4.343  14.869
35055W        W 1596   9.662  13.629   3.319
35056W        W 1597   8.622   8.406   3.862
35057W        W 1598  21.046   7.650   3.176
35058W        W 1599   9.274  20.574   1.070
35059W        W 1600  20.217  20.223  13.098
35060W        W 1601  35.533  40.451   4.397
35061W        W 1602  39.948   9.755  14.019
35062W        W 1603  44.725   5.357   4.570
35063W        W 1604  30.562   9.509   5.021
35064W        W 1605  22.980  36.407  13.283
35065W        W 1606  19.557  26.043   1.862
35066W        W 1607  42.066  29.959   1.320
35067W        W 1608  31.186  34.034  11.155
35068W        W 1609  37.373  43.763   1.957
35069W        W 1610   2.928  27.639   0.265
35070W        W 1611  11.152  22.202   2.295
35071W        W 1612  27.425  13.719  14.379
35072W        W 1613   5.053  44.842   3.670
35073W        W 1614  33.476   9.252   2.605
35074W        W 1615  20.964  20.840  14.501
35075W        W 1616   9.861  42.406  10.614
35076W        W 1617  28.069   6.962   3.727
35077W        W 1618  14.744  31.179  12.910
35078W        W 1619  25.254  27.988   3.355
35079W        W 1620  12.314   2.565   4.554
35080W        W 1621  12.506  33.528   4.879
35081W        W 1622   9.855  44.024  14.378
35082W        W 1623  14.295  19.893   3.671
35083W        W 1624  10.166  36.462  11.547
35084W        W 1625  38.328   9.238   1.821
35085W        W 1626  40.388  38.113   0.429
35086W        W 1627   5.974   1.273   5.034
35087W        W 1628  13.272  18.530  12.440
35088W        W 1629  22.716   2.963   4.600
35089W        W 1630  36.042  11.118   2.627
35090W        W 1631   9.161   0.004   3.738
35091W        W 1632   4.296  32.575  13.047
35092W        W 1633  35.966  14.978  12.805
35093W        W 1634  36.515   6.765  14.805
35094W        W 1635  24.284  11.775  11.752
35095W        W 1636  35.565   8.784   1.840
35096W        W 1637  12.875   0.255  10.892
35097W        W 1638  38.833   6.786   0.244
35098W        W 1639  22.294   7.090   4.997
35099W        W 1640   5.142  41.360  14.763
35100W        W 1641  20.079  41.971  13.870
35101W        W 1642  25.719  25.241  10.360
35102W        W 1643  21.260   2.532   1.729
35103W        W 1644  20.595   6.604  14.266
35104W        W 1645   3.382  41.523  12.468
35105W        W 1646  34.954  40.088  11.147
35106W        W 1647  35.904  24.256  14.863
35107W        W 1648  10.934  15.951   2.343
35108W        W 1649  20.111  11.439  10.730
35109W        W 1650   2.707  23.274   3.225
35110W        W 1651   4.137   6.393   1.905
35111W        W 1652  21.170   2.721   0.412
35112W        W 1653  21.062  38.458  13.391
35113W        W 1654  11.311  36.549   0.171
35114W        W 1655  26.711  43.444   3.673
35115W        W 1656  11.352   7.717  11.548
35116W        W 1657  14.991  21.424  14.399
35117W        W 1658  16.604  28.643   2.812
35118W        W 1659  33.634  18.386   2.212
35119W        W 1660   4.921  42.443   0.397
35120W        W 1661  27.373  15.572   3.206
35121W        W 1662  21.494  19.658   1.891
35122W        W 1663  42.774  20.184   3.405
35123W        W 1664  44.712  31.037   3.293
35124W        W 1665  44.291  31.638  13.844
35125W        W 1666  27.279  25.545   3.248
35126W        W 1667  29.530  35.917  10.945
35127W        W 1668  35.982   8.389   3.630
35128W        W 1669   2.175  28.501   5.343
35129W        W 1670  32.766  38.932  11.995
35130W        W 1671   4.526  20.960   4.897
35131W        W 1672  14.308  33.815   3.441
35132W        W 1673  43.988  10.688  11.218
35133W        W 1674  42.985  35.520   3.056
35134W        W 1675   0.871  14.612   1.914
35135W        W 1676  41.949  15.380  11.270
35136W        W 1677  38.321  13.724   2.181
35137W        W 1678  25.907  11.371  13.251
35138W        W 1679  32.385   1.710  13.901
35139W        W 1680  14.391  42.831   2.484
35140W        W 1681  35.073   1.501  11.982
35141W        W 1682  37.556  10.437  12.592
35142W        W 1683   2.389  35.043  14.326
35143W        W 1684  35.608   9.966   4.942
35144W        W 1685  36.400  11.664  14.768
35145W        W 1686  33.481  32.995  10.783
35146W        W 1687   3.222  17.319   3.207
35147W        W 1688  34.712  16.587  13.413
35148W        W 1689  14.139   8.821  12.021
35149W        W 1690  25.039  24.853  10.819
35150W        W 1691   2.470  26.876  11.259
35151W        W 1692   3.597  19.021  11.182
35152W        W 1693  40.318  35.570  11.487
35153W        W 1694  22.805   6.281   0.272
35154W        W 1695  10.916  34.635  13.085
35155W        W 1696  43.444  24.932   3.166
35156W        W 1697  16.142  35.853   0.433
35157W        W 1698   1.795  38.644   2.848
35158W        W 1699  16.518   3.335  13.591
35159W        W 1700  42.860  19.740   1.420
35160W        W 1701  22.137   3.985  12.879
35161W        W 1702  43.181  38.398   4.687
35162W        W 1703  42.058  23.500   4.566
35163W        W 1704  12.749  20.063   2.305
35164W        W 1705  15.256  11.952  11.851
35165W        W 1706  19.203  38.455  11.246
35166W        W 1707  21.042  39.271  14.034
35167W        W 1708   8.170   4.770   1.926
35168W        W 1709  27.011  15.092   4.072
35169W        W 1710  11.446  35.099  14.374
35170W        W 1711  29.424  34.076   3.783
35171W        W 1712   2.029  32.170   4.427
35172W        W 1713  27.197  35.679  12.068
35173W        W 1714  39.871   4.771   0.554
35174W        W 1715  30.030   6.028  12.428
35175W        W 1716  37.754   6.203  14.519
35176W        W 1717  20.739   0.747  14.970
35177W        W 1718  23.308  15.874  10.160
35178W        W 1719  19.804  11.059   1.417
35179W        W 1720  34.040   4.386  13.051
35180W        W 1721  43.681  30.157  11.642
35181W        W 1722   6.798  32.658   0.512
35182W        W 1723  37.754  29.716   3.313
35183W        W 1724  33.814  11.284  11.593
35184W        W 1725   4.856  32.935   3.905
35185W        W 1726  19.296  36.486  12.490
35186W        W 1727   5.936  25.791   3.716
35187W        W 1728   7.330  42.692  12.728
35188W        W 1729  22.827   1.822   1.291
35189W        W 1730  35.914  30.483  12.013
35190W        W 1731   3.460   8.210  10.748
35191W        W 1732   1.039  12.326   4.009
35192W        W 1733  25.950   5.449   5.019
35193W        W 1734  41.967  24.146   1.106
35194W        W 1735   5.722  14.624   2.353
35195W        W 1736  29.489  35.688   4.706
35196W        W 1737  19.779  44.073   3.806
35197W        W 1738  44.971  15.397   1.209
35198W        W 1739  41.503  28.672   2.868
35199W        W 1740  11.530  37.775   2.832
35200W        W 1741  18.016   1.809  13.127
35201W        W 1742  44.050  39.605  12.630
35202W        W 1743  14.117  15.777   0.347
35203W        W 1744  30.561   9.978  10.229
35204W        W 1745  29.543  30.137  13.390
35205W        W 1746  17.026  37.442   4.153
35206W        W 1747  34.841  36.351   3.803
35207W        W 1748  41.350   2.557  12.876
35208W        W 1749  36.336   5.263   5.011
35209W        W 1750  42.713  24.584   2.853
35210W        W 1751  38.023  34.509  14.070
35211W        W 1752  19.877  34.169   0.527
35212W        W 1753  12.456  10.679  11.072
35213W        W 1754  17.766  11.920  11.743
35214W        W 1755  26.403  20.774  14.092
35215W        W 1756  16.581  12.020   2.275
35216W        W 1757  26.930  14.189   4.067
35217W        W 1758  24.484  39.307  11.577
35218W        W 1759  10.268  23.910  12.540
35219W        W 1760  31.052  17.428  11.362
35220W        W 1761  13.710  27.933  14.150
35221W        W 1762  40.568  41.384   3.212
35222W        W 1763  20.641  41.831  14.726
35223W        W 1764  12.566  30.950   0.993
35224W        W 1765  21.418  35.001   1.261
35225W        W 1766  20.236  31.036  11.396
35226W        W 1767   1.224   3.222   0.900
35227W        W 1768  15.317  30.030   2.886
35228W        W 1769   6.421   5.808  14.971
35229W        W 1770   8.213  12.655  14.773
35230W        W 1771  19.754  26.251   4.265
35231W        W 1772  13.641  39.056   0.858
35232W        W 1773  18.996  33.854  14.801
35233W        W 1774  27.974   5.491   4.081
35234W        W 1775  29.170   3.227   2.237
35235W        W 1776  24.163  11.800   2.711
35236W        W 1777  34.087  33.103  13.478
35237W        W 1778  39.926  20.099  11.225
35238W        W 1779   6.222   1.450  14.382
35239W        W 1780   0.186  12.748   0.703
35240W        W 1781  30.690   0.094   4.641
35241W        W 1782  40.393  39.091  10.962
35242W        W 1783  35.533   7.218   2.198
35243W        W 1784  27.400  44.750  11.643
35244W        W 1785  27.568  11.919  10.376
35245W        W 1786  17.101  10.863   4.483
35246W        W 1787  17.335  40.545  14.030
35247W        W 1788   8.173  20.538   4.347
35248W        W 1789  19.259  32.105   1.830
35249W        W 1790   4.385   3.710  11.515
35250W        W 1791  39.465  27.003   4.801
35251W        W 1792  13.996  31.723  11.562
35252W        W 1793  42.987   7.530  12.849
35253W        W 1794   8.655   0.508  14.425
35254W        W 1795  25.937  31.623  11.084
35255W        W 1796   6.972  10.355   2.218
35256W        W 1797  38.852  15.804   4.174
35257W        W 1798  37.310   8.667   3.705
35258W        W 1799  41.637  42.270   0.308
35259W        W 1800  20.721  14.611   0.293
35260W        W 1801  24.780   5.279  13.833
35261W        W 1802  20.815   7.690  13.463
35262W        W 1803  26.227  19.614  12.523
35263W        W 1804  42.022  25.593  13.301
35264W        W 1805  42.481  30.375   0.247
35265W        W 1806  15.201   9.713   4.826
35266W        W 1807  38.095  23.106   3.125
35267W        W 1808  24.665  21.254   3.659
35268W        W 1809  31.201   3.302   2.458
35269W        W 1810  17.873  18.071  11.798
35270W        W 1811  32.246  21.831   4.098
35271W        W 1812  39.861  16.567   3.214
35272W        W 1813  30.002  22.561  14.224
35273W        W 1814  31.039  25.245  13.439
35274W        W 1815  36.776  26.954   0.325
35275W        W 1816  32.531   7.664   1.925
35276W        W 1817  43.993  14.282  11.028
35277W        W 1818  22.974  23.204   4.185
35278W        W 1819  23.091  30.065  14.646
35279W        W 1820  12.422  39.987   4.532
35280W        W 1821  37.992   7.971   1.771
35281W        W 1822   3.149  40.699  12.561
35282W        W 1823   2.399  41.070  12.354
35283W        W 1824   2.859  44.762  12.402
35284W        W 1825  38.507  29.210   0.619
35285W        W 1826  33.843  11.778  11.231
35286W        W 1827  22.439  41.841   1.417
35287W        W 1828  41.926  27.937  13.755
35288W        W 1829  33.844   9.943   0.249
35289W        W 1830  42.244  30.641  14.438
35290W        W 1831  26.103  28.681   4.610
35291W        W 1832  11.929  20.965  12.984
35292W        W 1833  34.428   2.851  13.816
35293W        W 1834  39.107   3.489   0.385
35294W        W 1835  38.852  42.772   1.415
35295W        W 1836   2.472  28.370   0.894
35296W        W 1837  13.865  32.191  10.761
35297W        W 1838  44.384  17.759   3.933
35298W        W 1839  18.197  23.038  13.921
35299W        W 1840  12.751  28.356  14.372
35300W        W 1841  28.001   8.430  14.181
35301W        W 1842  16.884   9.725   1.946
35302W        W 1843  17.509  20.569   0.802
35303W        W 1844  44.364   9.112   1.703
35304W        W 1845   3.926  32.714   0.450
35305W        W 1846  34.899  42.446   4.606
35306W        W 1847  16.697  16.657  12.559
35307W        W 1848  12.207  13.608  13.784
35308W        W 1849   7.141  37.915  14.464
35309W        W 1850  26.632  28.086  12.643
35310W        W 1851  13.716  41.803   1.129
35311W        W 1852  40.998  30.628  12.599
35312W        W 1853  23.727  29.088  14.418
35313W        W 1854  44.940  35.842  13.513
35314W        W 1855  11.070  12.251  11.675
35315W        W 1856  41.552  29.634   1.889
35316W        W 1857  40.894   2.332   1.282
35317W        W 1858  28.844   5.887   3.791
35318W        W 1859  37.789  27.560  14.964
35319W        W 1860  19.943  16.972   2.631
35320W        W 1861  25.100  17.586  14.339
35321W        W 1862   9.832  35.363  14.923
35322W        W 1863  38.519  36.279  11.706
35323W        W 1864  13.239  42.340   2.576
35324W        W 1865  18.148  35.564  12.699
35325W        W 1866  37.606  30.535   4.098
35326W        W 1867  32.864   2.344   0.918
35327W        W 1868   1.753  30.451   1.763
35328W        W 1869   1.252   8.457  14.569
35329W        W 1870  21.817  15.683  12.498
35330W        W 1871  18.527  10.262  10.799
35331W        W 1872  12.307  34.260  12.128
35332W        W 1873  18.959  15.161  14.239
35333W        W 1874  43.528  40.806  10.400
35334W        W 1875   6.841  37.270   2.908
35335W        W 1876  21.852  14.180   3.173
35336W        W 1877  37.087   3.286   3.679
35337W        W 1878   6.632  38.590  13.588
35338W        W 1879  26.153  25.183   1.918
35339W        W 1880  21.565  40.147  13.380
35340W        W 1881  32.159  37.531  14.881
35341W        W 1882  30.224  32.412   1.253
35342W        W 1883  15.621  28.580  11.707
35343W        W 1884  15.363   1.795  12.530
35344W        W 1885   0.913  25.007  14.217
35345W        W 1886   1.918  17.723  11.335
35346W        W 1887   5.064  34.539  11.866
35347W        W 1888  37.844  37.411  14.480
35348W        W 1889  38.747  35.106  14.312
35349W        W 1890  36.289  43.428  12.130
35350W        W 1891  43.119  17.612   2.805
35351W        W 1892  36.526  43.484   4.123
35352W        W 1893  27.202   0.017   2.414
35353W        W 1894  16.658  38.458  12.515
35354W        W 1895  29.836  39.588   1.738
35355W        W 1896   7.472  18.050   1.817
35356W        W 1897  36.035   7.225   4.412
35357W        W 1898   0.024  29.090   3.866
35358W        W 1899  30.339  23.189   4.367
35359W        W 1900  24.946  20.227  12.178
35360W        W 1901  17.245  32.583  11.012
35361W        W 1902  27.991   9.837   3.879
35362W        W 1903  31.679  40.975  12.708
35363W        W 1904  29.172  25.621  13.930
35364W        W 1905   3.881  28.895   3.598
35365W        W 1906  43.064  14.776  10.145
35366W        W 1907  37.198   3.607  11.546
35367W        W 1908  12.610   8.231   4.908
35368W        W 1909  24.694  34.553  13.273
35369W        W 1910   2.747  23.160  12.855
35370W        W 1911  20.179  16.718  11.543
35371W        W 1912  42.372  36.450  11.697
35372W        W 1913   4.405  19.990   4.724
35373W        W 1914  35.810  31.091  10.596
35374W        W 1915  21.121   7.912   2.238
35375W        W 1916  19.654  16.837  14.050
35376W        W 1917  12.043   4.700  10.130
35377W        W 1918  44.961   3.911   0.828
35378W        W 1919  40.217  24.080  10.910
35379W        W 1920  21.722   5.744  14.567
35380W        W 1921  12.151  18.126  14.956
35381W        W 1922  30.112  39.149  10.733
35382W        W 1923  26.139  22.978   4.730
35383W        W 1924  15.093  36.359   0.849
35384W        W 1925  32.612  41.572   3.812
35385W        W 1926   7.760   7.863  13.411
35386W        W 1927  43.786  39.180  12.751
35387W        W 1928  41.720   4.758  12.799
35388W        W 1929  14.338  27.858  12.962
35389W        W 1930  12.568  26.065   4.332
35390W        W 1931  35.453  24.186   3.883
35391W        W 1932   3.268  40.807   0.250
35392W        W 1933  25.293  35.635   0.199
35393W        W 1934  12.821  24.401   3.682
35394W        W 1935   8.185  19.740   1.845
35395W        W 1936  30.239  10.688  11.206
35396W        W 1937  34.445  19.836  12.039
35397W        W 1938  17.200  22.729   0.554
35398W        W 1939   0.202  27.885  11.182
35399W        W 1940  22.639  36.128   1.682
35400W        W 1941   2.451  19.726   0.989
35401W        W 1942  25.053  26.871  10.692
35402W        W 1943  34.105  44.347   4.848
35403W        W 1944  44.428   7.235   3.286
35404W        W 1945  40.213  16.385  11.509
35405W        W 1946  22.436   1.321  12.015
35406W        W 1947  15.165  21.315  11.717
35407W        W 1948  27.461  15.981   4.200
35408W        W 1949   1.507  32.131   2.335
35409W        W 1950  13.302  20.599  10.750
35410W        W 1951  14.282  14.033   4.721
35411W        W 1952  37.541  17.051  14.991
35412W        W 1953  14.296  17.296  10.565
35413W        W 1954   8.457  12.328   4.341
35414W        W 1955  30.591   2.848   1.078
35415W        W 1956  22.668  21.740   0.063
35416W        W 1957  16.868  39.302  11.579
35417W        W 1958   9.362   9.746   1.345
35418W        W 1959  23.377  42.802  12.538
35419W        W 1960  29.521  43.458   4.667
35420W        W 1961   5.163  41.242  10.994
35421W        W 1962  16.504   2.843   2.210
35422W        W 1963  29.173  14.962   4.245
35423W        W 1964  38.898  15.390  13.963
35424W        W 1965   8.646  22.136   4.861
35425W        W 1966  10.600  40.753  13.976
35426W        W 1967  43.436  23.957  13.425
35427W        W 1968  24.126  14.571   0.390
35428W        W 1969  28.036  38.216   3.176
35429W        W 1970  29.188  42.759  14.936
35430W        W 1971   5.319   5.992   3.230
35431W        W 1972  25.183   2.791   4.274
35432W        W 1973  31.464  17.163  14.992
35433W        W 1974  32.434   5.962   2.171
35434W        W 1975   9.786  28.103  11.991
35435W        W 1976  30.492  23.708   0.470
35436W        W 1977  25.180  33.028  14.744
35437W        W 1978   1.811  33.680   4.988
35438W        W 1979  20.540   2.333  13.858
35439W        W 1980  30.488  16.693  13.018
35440W        W 1981  23.126   8.106  10.148
35441W        W 1982  44.339   3.691  11.578
35442W        W 1983   2.549  30.960  12.122
35443W        W 1984  38.800  35.634  10.738
35444W        W 1985  35.975   0.440  13.773
35445W        W 1986   4.010   5.353  12.626
35446W        W 1987  25.424  13.319  12.575
35447W        W 1988  40.250  15.653  11.039
35448W        W 1989  13.549   1.316  13.952
35449W        W 1990  23.118  29.214  12.203
35450W        W 1991  43.379  17.773   1.885
35451W        W 1992  40.016   1.671   0.457
35452W        W 1993   5.231  20.779  11.191
35453W        W 1994  12.215   0.755   4.186
35454W        W 1995  39.103   7.141  10.812
35455W        W 1996  16.348  38.507  12.106
35456W        W 1997  42.292  21.716  14.814
35457W        W 1998  12.036  35.466   3.362
35458W        W 1999  40.049  41.951  14.594
35459W        W 2000   1.200  39.803   4.574
35460W        W 2001   5.836  23.680  14.892
35461W        W 2002   1.416  22.623   1.934
35462W        W 2003  29.557  19.430  13.541
35463W        W 2004  41.841  35.068   3.146
35464W        W 2005   8.904  17.771  11.982
35465W        W 2006  43.098  26.062   2.796
35466W        W 2007  27.131   1.472   0.836
35467W        W 2008  32.927  33.928   0.727
35468W        W 2009  23.131  17.223  11.527
35469W        W 2010   7.465  26.244  12.482
35470W        W 2011   8.730  27.545  11.389
35471W        W 2012  23.049  13.871   3.097
35472W        W 2013  21.472  31.248   1.263
35473W        W 2014   7.145  13.589  14.950
35474W        W 2015  28.988  24.665   4.605
35475W        W 2016  39.866  23.728  11.030
35476W        W 2017  11.909   7.882  13.339
35477W        W 2018   4.666  36.345  13.392
35478W        W 2019  18.317   9.309   3.777
35479W        W 2020  30.103  17.723   0.048
35480W        W 2021  29.205  35.071  14.282
35481W        W 2022  24.719   5.444  14.321
35482W        W 2023  42.429  16.849   2.704
35483W        W 2024  44.222  14.773   2.811
35484W        W 2025  43.165  10.982  12.522
35485W        W 2026  14.875  31.950   0.876
35486W        W 2027   5.821  28.709  11.207
35487W        W 2028  27.426  28.593  10.929
35488W        W 2029   0.547  17.186  10.442
35489W        W 2030  27.442  43.028  14.487
35490W        W 2031  26.274   5.838  12.275
35491W        W 2032  40.383  37.154  10.635
35492W        W 2033  33.610  22.202   0.017
35493W        W 2034  31.992   4.506   4.173
35494W        W 2035  10.715   8.914  10.795
35495W        W 2036  18.102  13.639   2.409
35496W        W 2037  39.374  15.491   2.158
35497W        W 2038  16.333  32.868  14.331
35498W        W 2039   2.245  43.493  12.603
35499W        W 2040  15.208  13.739   0.173
35500W        W 2041  44.360  30.633   1.217
35501W        W 2042  37.181  33.832  12.980
35502W        W 2043  44.233   6.268  12.956
35503W        W 2044  42.368  20.243  11.989
35504W        W 2045  28.018  30.666   2.342
35505W        W 2046  18.774  37.377  12.512
35506W        W 2047  26.688  39.774  11.464
35507W        W 2048  29.424   7.393   2.206
35508W        W 2049  22.399  35.502  14.093
35509W        W 2050   7.632  28.673   4.800
35510W        W 2051  33.414  27.527   4.846
35511W        W 2052  26.599  20.468   4.150
35512W        W 2053  30.704  22.735   0.347
35513W        W 2054  19.827  27.667   0.317
35514W        W 2055  27.205  23.694  14.299
35515W        W 2056  30.391  33.979   2.895
35516W        W 2057   7.749  42.000  14.519
35517W        W 2058  17.651  40.030   0.217
35518W        W 2059  43.238   2.759   0.984
35519W        W 2060   3.693  30.381  11.490
35520W        W 2061  30.757  29.597   4.641
35521W        W 2062  10.931   6.771  11.611
35522W        W 2063  36.846  42.904   1.047
35523W        W 2064  16.411  40.938  13.935
35524W        W 2065   1.051  13.986  13.004
35525W        W 2066  17.127  33.865  11.827
35526W        W 2067  27.963  32.515   0.200
35527W        W 2068  28.108  19.001  12.860
35528W        W 2069   3.457  12.792   0.972
35529W        W 2070  12.832  10.798  14.960
35530W        W 2071  19.274  35.663   2.387
35531W        W 2072  43.391  40.323  13.459
35532W        W 2073  32.042  15.161  14.920
35533W        W 2074  18.512   7.294  11.154
35534W        W 2075  43.544   9.966   2.266
35535W        W 2076  41.518  27.438   2.444
35536W        W 2077  37.245   6.389  10.920
35537W        W 2078  36.662  15.408   1.388
35538W        W 2079   1.510  21.591  14.270
35539W        W 2080  35.809  20.230   4.193
35540W        W 2081  35.558  29.933   1.181
35541W        W 2082  11.483  36.039   0.932
35542W        W 2083  24.680  19.896  14.062
35543W        W 2084   3.455  42.178  11.204
35544W        W 2085   4.561  34.512  11.938
35545W        W 2086  15.365  31.898  13.847
35546W        W 2087   2.346  11.235  13.931
35547W        W 2088  24.581  16.104   2.636
35548W        W 2089  42.342  20.616   4.148
35549W        W 2090  12.851  28.673  10.512
35550W        W 2091  27.248  28.025  12.886
35551W        W 2092  21.972  30.097   0.928
35552W        W 2093  35.334  25.585   3.644
35553W        W 2094  31.418   9.855   4.684
35554W        W 2095   3.558   4.122  10.183
35555W        W 2096   1.728   6.176   1.718
35556W        W 2097  19.967  16.989  11.994
35557W        W 2098  33.797  15.240  12.336
35558W        W 2099  16.934  26.238   0.701
35559W        W 2100  11.108  20.056   1.416
35560W        W 2101   0.078   7.723   1.060
35561W        W 2102   3.436  43.789   2.610
35562W        W 2103  26.481  24.265   4.592
35563W        W 2104  37.377  22.509   2.507
35564W        W 2105  40.765  14.659   3.565
35565W        W 2106  17.794  33.018   1.675
35566W        W 2107  34.120   0.788  13.499
35567W        W 2108  10.125  28.018  10.634
35568W        W 2109  11.275   4.634  13.553
35569W        W 2110  39.089  42.756  11.588
35570W        W 2111  44.497  36.484  12.065
35571W        W 2112  34.292  15.464  13.533
35572W        W 2113   2.572  25.298   2.593
35573W        W 2114  44.840  33.887  11.510
35574W        W 2115  39.690  28.244   1.915
35575W        W 2116  40.858  15.713  10.434
35576W        W 2117  35.671  19.705   2.002
35577W        W 2118   7.872  31.343  11.561
35578W        W 2119  26.520  39.517  14.688
35579W        W 2120   3.818  13.261   0.378
35580W        W 2121  11.279  29.484   1.417
35581W        W 2122  18.608  36.202   4.063
35582W        W 2123   3.774  32.694  10.700
35583W        W 2124  19.275  33.214   3.838
35584W        W 2125  43.790   1.965  13.466
35585W        W 2126   4.473  37.336   0.333
35586W        W 2127  26.051  33.443   1.756
35587W        W 2128  15.443  21.214  13.681
35588W        W 2129  18.517  28.614  13.259
35589W        W 2130  41.316  36.338  12.452
35590W        W 2131  31.007  37.379  12.632
35591W        W 2132  11.480  30.499   2.925
35592W        W 2133  40.259   5.181   1.780
35593W        W 2134  33.108  40.366   3.719
35594W        W 2135  38.437  17.909  11.677
35595W        W 2136  15.245   8.734  14.119
35596W        W 2137  32.593   4.701  13.884
35597W        W 2138  35.804  13.826   2.838
35598W        W 2139  13.781  36.502  12.004
35599W        W 2140  20.024  41.761   0.323
35600W        W 2141  32.015  41.451  14.635
35601W        W 2142  42.539  37.747   4.947
35602W        W 2143   3.741   8.658   0.878
35603W        W 2144   9.598  40.510   2.593
35604W        W 2145  32.344  12.750  12.166
35605W        W 2146  29.399  25.148  11.337
35606W        W 2147  32.566   3.752   4.094
35607W        W 2148   0.243  24.071  11.927
35608W        W 2149  37.961  24.801   4.879
35609W        W 2150  28.852  15.132   2.937
35610W        W 2151  13.822  42.751   3.729
35611W        W 2152  32.360  43.135   4.973
35612W        W 2153  20.055  33.865  11.071
35613W        W 2154   3.710  43.950   0.798
35614W        W 2155  28.057  25.885   4.614
35615W        W 2156  22.775  43.105   0.816
35616W        W 2157   9.133  31.439  11.477
35617W        W 2158  25.481  15.622   3.025
35618W        W 2159  32.548  17.219  11.533
35619W        W 2160  23.067  24.258   4.850
35620W        W 2161  21.144  28.981   2.447
35621W        W 2162  33.370   9.806   1.366
35622W        W 2163  29.450  37.999  12.069
35623W        W 2164  11.112  44.464  14.413
35624W        W 2165  40.786  36.307   4.117
35625W        W 2166  14.315  31.727  12.671
35626W        W 2167  18.019   9.067   1.769
35627W        W 2168   2.161  21.279  11.216
35628W        W 2169  29.990  35.604   3.396
35629W        W 2170  29.060  11.472  10.236
35630W        W 2171   6.981  32.790  14.004
35631W        W 2172  20.255  40.085   0.804
35632W        W 2173   3.168  16.630   2.800
35633W        W 2174  32.532  30.073   1.001
35634W        W 2175  40.286  27.108  11.232
35635W        W 2176  21.244  36.460  14.359
35636W        W 2177   6.435  28.730   2.580
35637W        W 2178  22.513  11.106  14.735
35638W        W 2179  23.197  23.963  13.873
35639W        W 2180   7.668   9.829   4.583
35640W        W 2181   0.754  29.171  12.143
35641W        W 2182   4.796  33.250  11.582
35642W        W 2183  17.823  33.873  12.995
35643W        W 2184  20.674   3.952  12.468
35644W        W 2185  38.013  22.731   0.910
35645W        W 2186  20.518  39.556  10.771
35646W        W 2187  21.589   6.205  14.431
35647W        W 2188  44.769   9.146   3.725
35648W        W 2189   4.036  24.687   1.942
35649W        W 2190   2.215  25.976   2.281
35650W        W 2191  23.267   6.720   4.890
35651W        W 2192  27.669  35.706   2.287
35652W        W 2193  11.679  39.929   1.237
35653W        W 2194  31.378  23.560  11.178
35654W        W 2195   0.027  22.260  11.569
35655W        W 2196  30.436  23.916   0.948
35656W        W 2197  10.048  33.577   2.262
35657W        W 2198   7.956  11.123   0.839
35658W        W 2199  14.594  12.312   0.237
35659W        W 2200  24.118  11.255  10.710
35660W        W 2201  24.153   0.020   4.149
35661W        W 2202  41.298  11.394   0.346
35662W        W 2203   4.658   4.692  12.524
35663W        W 2204   7.799  25.030  12.092
35664W        W 2205   8.962  35.379  11.235
35665W        W 2206   5.424  38.383   4.612
35666W        W 2207  10.404  13.611  13.391
35667W        W 2208  11.599  21.240  11.987
35668W        W 2209  35.575  27.878   3.180
35669W        W 2210   9.174  17.605  11.540
35670W        W 2211  40.470   7.620   4.881
35671W        W 2212  32.141  31.952   0.041
35672W        W 2213  37.142  35.147   0.498
35673W        W 2214  10.641  32.224   3.247
35674W        W 2215  16.887  27.387  12.280
35675W        W 2216  35.834  42.837   1.481
35676W        W 2217  38.035  21.569  13.018
35677W        W 2218   4.422  19.307  12.615
35678W        W 2219   0.874  27.158   3.341
35679W        W 2220  22.265  13.514  14.095
35680W        W 2221  35.970  30.142  13.426
35681W        W 2222  14.242  13.730  12.920
35682W        W 2223  43.935  29.133  14.082
35683W        W 2224  36.419  33.563   3.495
35684W        W 2225  20.156  32.408  13.367
35685W        W 2226   2.531  39.785   0.245
35686W        W 2227  30.262  28.720  13.029
35687W        W 2228  11.851  22.864   4.108
35688W        W 2229   8.818  33.594  12.089
35689W        W 2230  22.572   8.685  14.557
35690W        W 2231  16.978  19.111  10.469
35691W        W 2232   3.894  23.017   0.844
35692W        W 2233  22.628  24.883   1.941
35693W        W 2234  17.638   2.422   4.887
35694W        W 2235  35.117  16.806  11.566
35695W        W 2236   8.658   1.432   0.534
35696W        W 2237  42.069  36.593   3.068
35697W        W 2238   2.780  30.949   2.062
35698W        W 2239  16.479  34.924  11.952
35699W        W 2240  13.050  32.084  13.884
35700W        W 2241  18.705   7.811   3.615
35701W        W 2242   5.936  39.104  14.881
35702W        W 2243  36.079  41.931  12.838
35703W        W 2244  32.968  13.720  13.957
35704W        W 2245  32.586  28.486   1.915
35705W        W 2246  25.546   5.594  14.816
35706W        W 2247   5.749  31.694   0.977
35707W        W 2248  22.555  39.459  14.300
35708W        W 2249  27.953  13.338   1.351
35709W        W 2250   8.044  27.996   0.482
35710W        W 2251  22.827  23.403   4.645
35711W        W 2252  17.044  37.120   3.074
35712W        W 2253  31.809   5.170   1.432
35713W        W 2254   8.628   4.025  11.825
35714W        W 2255  31.155  19.512   4.336
35715W        W 2256  37.932  11.718   2.356
35716W        W 2257   1.749  20.515  14.926
35717W        W 2258  25.106  26.087  14.283
35718W        W 2259  28.074  39.801  10.562
35719W        W 2260  16.059   4.395  13.787
35720W        W 2261  44.675  42.695  13.815
35721W        W 2262   4.681  30.851  13.531
35722W        W 2263   8.223   9.790  10.847
35723W        W 2264  12.360  10.981   1.718
35724W        W 2265  39.455   8.921  13.323
35725W        W 2266  43.965  24.762  10.716
35726W        W 2267   1.216   2.361   1.904
35727W        W 2268  22.488  44.422   2.882
35728W        W 2269   7.465  39.247   1.177
35729W        W 2270  26.026  39.302  13.930
35730W        W 2271  32.475  21.573   0.031
35731W        W 2272  13.541  30.686   4.099
35732W        W 2273  38.250  28.858   2.821
35733W        W 2274   4.901   6.260   0.480
35734W        W 2275   8.950  31.004   3.217
35735W        W 2276  36.352  31.912  10.858
35736W        W 2277  34.153  43.095  13.979
35737W        W 2278  35.594  39.746   0.722
35738W        W 2279  31.671  44.879  14.277
35739W        W 2280  19.490  14.685   0.337
35740W        W 2281  12.836   9.410   3.399
35741W        W 2282  40.336  16.112   2.420
35742W        W 2283  35.250  33.540   0.847
35743W        W 2284  16.518   7.912  14.999
35744W        W 2285  11.215   2.283   1.032
35745W        W 2286  33.470   8.133   2.272
35746W        W 2287   4.968  20.018   1.960
35747W        W 2288  13.112  31.520  11.483
35748W        W 2289  31.984   2.248   2.723
35749W        W 2290  41.326  18.145   3.271
35750W        W 2291  34.343  24.660  11.203
35751W        W 2292   5.226   6.142   4.064
35752W        W 2293  19.947  24.027   1.818
35753W        W 2294  33.085  20.149  14.090
35754W        W 2295  18.211  23.956  14.890
35755W        W 2296  32.731  23.500   4.061
35756W        W 2297  27.809  18.636  10.806
35757W        W 2298  37.087  22.335   1.228
35758W        W 2299   3.027   0.820  11.539
35759W        W 2300   7.196  11.058  13.935
35760W        W 2301   0.704  15.121  12.320
35761W        W 2302  20.856   0.773   3.609
35762W        W 2303   4.896  23.296  12.536
35763W        W 2304  16.264   6.833  12.469
35764W        W 2305  24.594  36.272  14.273
35765W        W 2306  21.072  19.711  13.888
35766W        W 2307  42.011   8.812  10.962
35767W        W 2308  26.573  40.041   4.647
35768W        W 2309  36.044  13.622  10.702
35769W        W 2310  27.500   9.256  10.816
35770W        W 2311  39.880  43.490   0.714
35771W        W 2312  10.658  22.613   0.860
35772W        W 2313  21.508  40.383  10.628
35773W        W 2314  38.870   5.467  12.565
35774W        W 2315   6.301  18.091  10.662
35775W        W 2316  28.733  44.365  13.000
35776W        W 2317  40.380  43.279  12.646
35777W        W 2318  44.581  28.859  14.856
35778W        W 2319  17.922  10.100   4.878
35779W        W 2320  16.058  14.802   4.516
35780W        W 2321  30.915  40.693   2.969
35781W        W 2322  19.691  42.102   2.697
35782W        W 2323  21.831  30.114   2.788
35783W        W 2324  14.040  16.701   0.327
35784W        W 2325  21.767  20.187  13.036
35785W        W 2326  14.703  39.852  12.124
35786W        W 2327  32.107  30.222   4.550
35787W        W 2328  30.504  44.535   3.203
35788W        W 2329  29.130  42.257   4.810
35789W        W 2330  19.976  29.733  11.517
35790W        W 2331   7.984  42.301   4.567
35791W        W 2332   5.235  18.713  14.550
35792W        W 2333   1.942  29.740  13.865
35793W        W 2334  39.609   9.628  11.133
35794W        W 2335   5.373  43.908  14.527
35795W        W 2336  26.597  40.968  10.627
35796W        W 2337   0.128  29.682  12.850
35797W        W 2338  16.525   4.699  13.826
35798W        W 2339   5.445  16.718   1.166
35799W        W 2340  34.813   7.544   2.373
35800W        W 2341  33.981  35.176   2.712
35801W        W 2342   4.857  28.209   4.036
35802W        W 2343  23.069  21.692  11.631
35803W        W 2344   8.126  31.611  14.473
35804W        W 2345  41.933   4.980  13.851
35805W        W 2346   5.055  34.547  11.131
35806W        W 2347  19.088  14.057  11.567
35807W        W 2348  20.114   9.785   2.385
35808W        W 2349  43.886  19.059   4.549
35809W        W 2350   9.298   5.298  14.060
35810W        W 2351  30.671  32.518  11.939
35811W        W 2352  38.035  18.059   1.876
35812W        W 2353  22.629  14.392   4.608
35813W        W 2354  12.068  36.793   1.348
35814W        W 2355  21.507  38.823  13.431
35815W        W 2356  37.056  25.632   4.308
35816W        W 2357   2.905  37.545   3.809
35817W        W 2358  29.903  37.511   2.509
35818W        W 2359  39.027   4.390   3.838
35819W        W 2360   0.895  11.721   2.815
35820W        W 2361  25.611   6.255  10.686
35821W        W 2362  34.029  39.133  12.676
35822W        W 2363   1.844  42.982   2.186
35823W        W 2364  37.404  21.471   3.518
35824W        W 2365  15.766   8.659   1.393
35825W        W 2366  20.311  11.714   4.509
35826W        W 2367  16.473  19.282   1.003
35827W        W 2368  16.055  32.076  12.768
35828W        W 2369  15.672  30.061  11.667
35829W        W 2370  10.106  37.768  10.836
35830W        W 2371   1.729  44.195   4.524
35831W        W 2372  17.182   8.438   2.849
35832W        W 2373  33.598  20.505  11.118
35833W        W 2374  19.263  43.172   2.915
35834W        W 2375  34.319  18.820   1.934
35835W        W 2376  20.468  44.132  11.917
35836W        W 2377   9.324  40.144  14.865
35837W        W 2378  20.590   8.826   3.901
35838W        W 2379  29.641  35.108  10.365
35839W        W 2380   5.751  23.631  13.100
35840W        W 2381  36.259  33.365  10.008
35841W        W 2382  34.366   5.364  11.990
35842W        W 2383  22.777  41.550   3.306
35843W        W 2384  16.215  44.253   4.870
35844W        W 2385  41.544  23.493   4.626
35845W        W 2386  23.812  34.334   1.348
35846W        W 2387  24.564  14.603   4.221
35847W        W 2388  13.075  27.541   2.655
35848W        W 2389  20.570  32.121   1.803
35849W        W 2390  20.081  28.111   0.395
35850W        W 2391  10.986  34.038  13.868
35851W        W 2392   1.822  38.399   0.894
35852W        W 2393   1.449   0.038   0.965
35853W        W 2394  22.757  35.943   3.159
35854W        W 2395   4.743  39.956  13.104
35855W        W 2396  22.286  36.091  13.974
35856W        W 2397   7.269  22.665   3.723
35857W        W 2398  33.513  27.429   9.967
35858W        W 2399  11.322  24.251  11.937
35859W        W 2400  29.543  12.883   3.343
35860W        W 2401  41.295  17.512   0.867
35861W        W 2402  27.582  11.082  13.887
35862W        W 2403  19.197  15.575   1.596
35863W        W 2404  15.073  44.469  13.116
35864W        W 2405  35.995  39.216  11.089
35865W        W 2406  43.753  38.050   3.173
35866W        W 2407  31.070  31.192  12.936
35867W        W 2408  12.033  13.368   3.030
35868W        W 2409  10.723   0.811   3.602
35869W        W 2410  27.104   8.151  14.285
35870W        W 2411  31.189  40.401  10.753
35871W        W 2412  30.947  35.989  11.145
35872W        W 2413  35.086  35.784   3.335
35873W        W 2414  35.312  25.186   4.004
35874W        W 2415  22.133   1.217  10.791
35875W        W 2416  29.068   9.596  14.362
35876W        W 2417  35.568  34.627   3.661
35877W        W 2418  44.675  36.261  10.778
35878W        W 2419  44.455  20.781   1.915
35879W        W 2420  11.617   8.389  12.648
35880W        W 2421  13.681  18.202   3.833
35881W        W 2422  33.169  11.603   2.862
35882W        W 2423   0.233  18.527   0.426
35883W        W 2424  30.200  18.021  12.583
35884W        W 2425  19.613  39.334   4.561
35885W        W 2426  34.124  17.591   2.087
35886W        W 2427  33.647  36.854   1.674
35887W        W 2428  27.006  10.722  14.349
35888W        W 2429  33.450  19.217   3.372
35889W        W 2430  15.600   2.545  11.107
35890W        W 2431  39.493  37.535  10.936
35891W        W 2432  44.845  24.056  12.269
35892W        W 2433  27.088  24.041  13.429
35893W        W 2434  29.707  14.389   2.335
35894W        W 2435  38.872  41.318   3.423
35895W        W 2436   8.930  18.703  12.853
35896W        W 2437  13.052  29.064  13.790
35897W        W 2438  36.700  37.609   3.254
35898W        W 2439  17.247  36.510   0.797
35899W        W 2440  31.831  20.680  11.996
35900W        W 2441  13.242  37.584   4.516
35901W        W 2442  41.075  40.935   0.054
35902W        W 2443  38.583   1.199  12.139
35903W        W 2444   6.360  31.212   2.096
35904W        W 2445  30.479   5.967   4.847
35905W        W 2446  36.336  16.443  13.163
35906W        W 2447  23.067  32.890   1.937
35907W        W 2448   9.792  37.387  11.653
35908W        W 2449   2.618  37.572   4.583
35909W        W 2450   1.989  31.921  12.956
35910W        W 2451  18.075  41.497  12.522
35911W        W 2452  31.691  17.346   4.522
35912W        W 2453  33.902  12.152   3.935
35913W        W 2454  26.481  23.579  12.539
35914W        W 2455   4.369  19.287   3.637
35915W        W 2456  30.982  42.851  11.560
35916W        W 2457  29.253  44.309   2.666
35917W        W 2458   0.354  35.055  10.513
35918W        W 2459  42.079  24.999   0.763
35919W        W 2460  11.142  39.858   1.277
35920W        W 2461   3.567  24.148  13.441
35921W        W 2462  29.609   1.477  14.458
35922W        W 2463   0.573  29.562  14.047
35923W        W 2464  15.794  43.765   0.850
35924W        W 2465  22.148  23.182   0.327
35925W        W 2466   9.893  16.667   1.827
35926W        W 2467  38.926   9.512   1.731
35927W        W 2468  32.963   4.032  12.494
35928W        W 2469   2.241   3.715  10.537
35929W        W 2470  35.809  39.286   1.931
35930W        W 2471   6.421  10.240  10.417
35931W        W 2472  13.550  19.097   0.245
35932W        W 2473  30.640   3.415  11.657
35933W        W 2474   7.130  16.231  13.526
35934W        W 2475  31.211  39.297   1.368
35935W        W 2476   8.880  24.135  13.181
35936W        W 2477  37.514   4.245   4.524
35937W        W 2478  40.736  34.313  14.954
35938W        W 2479  28.180   7.823  11.154
35939W        W 2480  20.728  35.294   2.249
35940W        W 2481  38.122   6.963   1.765
35941W        W 2482  41.232  10.141   1.385
35942W        W 2483   6.535  43.742   2.028
35943W        W 2484  10.356  39.406   0.177
35944W        W 2485  30.999  20.776   4.128
35945W        W 2486  39.060  41.033   1.768
35946W        W 2487  24.315  21.539  12.056
35947W        W 2488  17.599  11.033   1.768
35948W        W 2489  13.933   6.220   4.504
35949W        W 2490   0.572  14.261  14.968
35950W        W 2491  15.300  16.186  13.846
35951W        W 2492  33.960  29.687  12.932
35952W        W 2493  41.580   7.658  14.403
35953W        W 2494  37.878  31.644  13.578
35954W        W 2495  25.193  20.660  13.027
35955W        W 2496  18.217  25.240  11.667
35956W        W 2497  37.345  13.109   0.177
35957W        W 2498  38.529  11.638   1.949
35958W        W 2499  13.329  40.374  10.857
35959W        W 2500  41.790  31.368  12.447
35960W        W 2501  13.921  18.164   2.588
35961W        W 2502  27.891  15.518  14.434
35962W        W 2503  22.901   6.249  14.746
35963W        W 2504  25.788   6.184   5.486
35964W        W 2505  44.508  22.082   2.508
35965W        W 2506  30.110  14.099   0.013
35966W        W 2507  39.624   3.760   0.901
35967W        W 2508  38.046  34.361  12.985
35968W        W 2509   9.187  15.422  12.929
35969W        W 2510   9.720  17.185  14.001
35970W        W 2511  26.931  22.325   2.242
35971W        W 2512  28.221  31.584   3.819
35972W        W 2513  34.581  16.080  12.743
35973W        W 2514  30.307   7.987   1.138
35974W        W 2515  27.593  15.499   9.761
35975W        W 2516   6.917   6.238  12.480
35976W        W 2517  27.403  14.283   4.368
35977W        W 2518  38.151  13.107  12.495
35978W        W 2519   6.544  18.482   3.606
35979W        W 2520   3.796  44.762  11.629
35980W        W 2521   0.953  11.116  12.681
35981W        W 2522  20.540  41.263   3.198
35982W        W 2523   4.491   1.677  12.516
35983W        W 2524  35.445  12.994  12.172
35984W        W 2525  19.718  38.548  14.010
35985W        W 2526  14.654  23.270  11.335
35986W        W 2527  18.849  10.254  13.288
35987W        W 2528   7.612  39.670   0.238
35988W        W 2529  35.056   8.844   1.989
35989W        W 2530  15.490  27.294   0.827
35990W        W 2531  39.365   9.162  12.872
35991W        W 2532  12.167  42.244   1.821
35992W        W 2533  33.254   0.436  13.920
35993W        W 2534  35.590   5.726   1.920
35994W        W 2535  20.945  40.946   2.209
35995W        W 2536  17.042   7.758   0.521
35996W        W 2537  43.370  36.429   4.513
35997W        W 2538   8.000  13.107   3.327
35998W        W 2539   7.710  16.291  13.958
35999W        W 2540   1.458   2.416   2.340
36000W        W 2541  31.995  22.761  14.090
36001W        W 2542  44.471   6.378  14.914
36002W        W 2543  35.671  19.019  13.002
36003W        W 2544   4.163  17.191  14.247
36004W        W 2545  18.649   0.682   4.601
36005W        W 2546  35.047  16.591  12.074
36006W        W 2547  33.613  38.762  10.472
36007W        W 2548  21.112  12.581   2.206
36008W        W 2549  19.996   4.015   4.074
36009W        W 2550  21.744   9.811  14.297
36010W        W 2551   2.192  21.429   1.237
36011W        W 2552  33.308   5.441   2.151
36012W        W 2553   4.070  36.702  12.135
36013W        W 2554  33.266  41.544   2.101
36014W        W 2555  20.661  41.476  14.343
36015W        W 2556  11.190  10.009  12.045
36016W        W 2557  18.318  26.646   1.142
36017W        W 2558  23.575   2.975   1.825
36018W        W 2559  22.454  19.885   1.966
36019W        W 2560   1.838   2.189   1.248
36020W        W 2561  43.954  37.150   1.798
36021W        W 2562   0.998  39.114   0.623
36022W        W 2563  10.378  12.579   4.168
36023W        W 2564   9.437   7.698   4.619
36024W        W 2565  44.248  22.553  12.998
36025W        W 2566  26.986  28.613  11.202
36026W        W 2567  38.598   3.757  10.592
36027W        W 2568  33.744  30.544  11.679
36028W        W 2569   9.098   0.440  12.096
36029W        W 2570   3.285  19.644   4.138
36030W        W 2571  13.152   1.299   1.200
36031W        W 2572  37.638   3.027  14.887
36032W        W 2573  36.866  21.051  14.321
36033W        W 2574   9.360  41.146   1.654
36034W        W 2575   2.078  10.715   2.822
36035W        W 2576  35.295  26.986   0.474
36036W        W 2577  38.827  37.317   4.006
36037W        W 2578  37.013   4.473  13.943
36038W        W 2579  20.085  17.551   4.987
36039W        W 2580  10.712   1.235  12.696
36040W        W 2581  20.137   5.548   4.147
36041W        W 2582  25.727  29.062   0.077
36042W        W 2583  25.118  14.677  12.537
36043W        W 2584  23.780  42.712  13.887
36044W        W 2585  20.602   5.787  11.827
36045W        W 2586  26.399  20.512   3.333
36046W        W 2587  11.154  32.119   3.655
36047W        W 2588  38.642  19.889  11.461
36048W        W 2589  37.490  32.726  12.404
36049W        W 2590  37.161  14.814  12.973
36050W        W 2591  17.101  31.764   1.531
36051W        W 2592  35.577  19.762  10.682
36052W        W 2593   7.470  20.101   4.711
36053W        W 2594  25.768  28.241  11.206
36054W        W 2595  36.401  41.741   4.686
36055W        W 2596  10.537   4.981  12.048
36056W        W 2597   0.223  22.938   1.601
36057W        W 2598   0.586   0.255  13.538
36058W        W 2599   5.339   7.063   1.724
36059W        W 2600  37.580   6.125  12.233
36060W        W 2601   0.677  20.220  14.374
36061W        W 2602   1.035  22.789  11.994
36062W        W 2603  16.581  36.930   4.579
36063W        W 2604  42.542  30.928   1.173
36064W        W 2605  10.935  22.008  13.040
36065W        W 2606  34.250  34.671  13.304
36066W        W 2607   7.255  32.070  14.367
36067W        W 2608  19.764  10.520   4.238
36068W        W 2609  16.884  27.243  10.972
36069W        W 2610   1.209  35.289   1.078
36070W        W 2611  39.095  34.628  12.095
36071W        W 2612  27.151  29.618   2.376
36072W        W 2613  10.198  29.899   3.651
36073W        W 2614  13.540  44.269  12.077
36074W        W 2615  13.789  19.668  14.441
36075W        W 2616  37.815  17.197  14.266
36076W        W 2617  34.696  38.332  12.468
36077W        W 2618  40.864  39.420   3.886
36078W        W 2619  43.696   6.703   1.239
36079W        W 2620  39.068  28.379   3.162
36080W        W 2621  41.104  15.920  13.997
36081W        W 2622  26.791  37.940   0.925
36082W        W 2623  35.877  11.751  14.666
36083W        W 2624   3.284  40.575  13.871
36084W        W 2625  11.563  26.038   2.613
36085W        W 2626  37.396  11.764  10.773
36086W        W 2627  20.415  30.200   1.645
36087W        W 2628  27.954   0.878   3.563
36088W        W 2629  19.779  40.042   0.007
36089W        W 2630  23.669  17.654  12.576
36090W        W 2631  29.290   5.531   4.028
36091W        W 2632  14.640  28.938  14.990
36092W        W 2633  28.055   4.723  11.304
36093W        W 2634  31.953  37.300  12.687
36094W        W 2635  32.427  26.632   4.148
36095W        W 2636  17.056  38.745  10.070
36096W        W 2637  39.556  11.272   3.683
36097W        W 2638   2.458   9.762  13.382
36098W        W 2639  13.310  36.136   2.427
36099W        W 2640  30.178  34.384   3.870
36100W        W 2641  33.117  39.853  11.711
36101W        W 2642   6.822  16.210   3.451
36102W        W 2643   6.491  31.294   0.318
36103W        W 2644  34.452   4.887   4.817
36104W        W 2645  41.930  36.117  14.885
36105W        W 2646  20.998  23.142  11.550
36106W        W 2647   3.844  34.645   5.037
36107W        W 2648  27.850  40.771   2.071
36108W        W 2649  38.691  37.802  13.893
36109W        W 2650  26.763  14.514   2.709
36110W        W 2651  35.293  44.373  13.562
36111W        W 2652  22.199  41.335   1.191
36112W        W 2653   5.140  34.018  11.085
36113W        W 2654  42.525  36.197  14.881
36114W        W 2655  13.321  35.755   1.109
36115W        W 2656  14.658  17.648  11.235
36116W        W 2657  16.177   3.199  10.658
36117W        W 2658  43.511  11.265   3.672
36118W        W 2659  37.957  16.136   1.354
36119W        W 2660  40.561   9.761   2.369
36120W        W 2661  23.378  25.763   2.192
36121W        W 2662   7.209   4.937   2.448
36122W        W 2663   0.271  30.388   1.857
36123W        W 2664   3.875  17.823   0.902
36124W        W 2665  31.290  28.393   0.690
36125W        W 2666  35.163  23.216  10.551
36126W        W 2667  32.852  27.704   4.191
36127W        W 2668   1.316  33.337  11.943
36128W        W 2669   5.414  10.900  10.735
36129W        W 2670  37.750  21.114   1.757
36130W        W 2671  31.435  38.902  14.332
36131W        W 2672  41.027  33.330  14.984
36132W        W 2673  43.302  33.971   3.119
36133W        W 2674  13.381  44.223   1.891
36134W        W 2675  44.043  38.512   3.276
36135W        W 2676  18.967  23.074  12.546
36136W        W 2677  33.109  21.754   4.367
36137W        W 2678  11.177   9.722  10.731
36138W        W 2679  41.813   9.763  13.932
36139W        W 2680  17.674   8.364  11.034
36140W        W 2681  20.172  32.083   1.346
36141W        W 2682   4.171  33.450  11.972
36142W        W 2683  19.722   3.486  14.166
36143W        W 2684   6.898  26.574  10.928
36144W        W 2685  23.060  36.104   1.362
36145W        W 2686  38.297   8.940  14.377
36146W        W 2687  41.244  26.016  11.181
36147W        W 2688  38.453   5.618  14.244
36148W        W 2689  28.911  18.020   3.105
36149W        W 2690  14.189  23.778  10.728
36150W        W 2691   8.917  23.728   3.748
36151W        W 2692   4.782  16.072   3.636
36152W        W 2693  10.374  18.544   1.779
36153W        W 2694  14.128   1.547   3.439
36154W        W 2695  15.322  28.686   4.852
36155W        W 2696   0.907  30.593  14.436
36156W        W 2697   8.957  31.113  12.139
36157W        W 2698  38.423  26.206  14.087
36158W        W 2699  38.365  33.746   4.480
36159W        W 2700   1.857   3.808   1.572
36160W        W 2701  28.402  17.133  14.490
36161W        W 2702  28.176   8.643   1.170
36162W        W 2703  11.651  14.761  12.505
36163W        W 2704  16.261   7.482   3.175
36164W        W 2705   9.208  43.309   0.009
36165W        W 2706  39.434  41.612   3.633
36166W        W 2707   0.383   9.911  11.116
36167W        W 2708  16.133  32.853   4.121
36168W        W 2709   0.925  37.124   1.880
36169W        W 2710  23.460  33.798   2.856
36170W        W 2711  25.435  20.724  14.905
36171W        W 2712  24.914   1.002  14.829
36172W        W 2713  22.692   2.871   0.903
36173W        W 2714  38.387  36.135   0.876
36174W        W 2715  10.481  34.373   1.333
36175W        W 2716  43.841  19.067   1.291
36176W        W 2717  31.956  25.182   1.949
36177W        W 2718   8.224  17.610   0.435
36178W        W 2719  39.395  42.441   1.386
36179W        W 2720   3.822   4.856   0.290
36180W        W 2721  38.077  36.764  12.164
36181W        W 2722   7.124  14.119  13.433
36182W        W 2723  33.625  36.315  12.622
36183W        W 2724   0.716  30.919  11.318
36184W        W 2725   3.261  31.638  13.548
36185W        W 2726  23.614   9.849  10.762
36186W        W 2727  26.724  40.539   2.490
36187W        W 2728  30.186  17.753   4.184
36188W        W 2729  21.548  42.592  12.038
36189W        W 2730   1.751  26.235   2.258
36190W        W 2731   3.303  24.305  12.522
36191W        W 2732   1.400  34.630   1.457
36192W        W 2733  37.783   3.971  11.104
36193W        W 2734  25.920  33.002   1.475
36194W        W 2735  35.033  17.321  11.442
36195W        W 2736  11.118  19.702   0.077
36196W        W 2737  16.021  22.200  11.247
36197W        W 2738  37.411  12.094   2.165
36198W        W 2739  25.535  26.792  13.077
36199W        W 2740  27.970  35.931  11.688
36200W        W 2741   4.294  21.050  11.609
36201W        W 2742   9.387  30.849   4.088
36202W        W 2743  34.855  21.647  14.845
36203W        W 2744   4.753  28.371   1.878
36204W        W 2745  40.748  16.377  13.916
36205W        W 2746  29.499  27.087   4.162
36206W        W 2747  26.538  13.411   1.911
36207W        W 2748  29.233   7.730  13.476
36208W        W 2749  35.538  21.736   0.297
36209W        W 2750  33.664  36.089   2.149
36210W        W 2751  40.996  11.922  10.719
36211W        W 2752  13.381   2.925  11.894
36212W        W 2753  27.451  31.041   3.073
36213W        W 2754  41.570  16.735  10.439
36214W        W 2755   2.028  30.414  14.929
36215W        W 2756   5.828   9.856  14.557
36216W        W 2757  11.332  40.441   5.151
36217W        W 2758  40.151   6.213  11.509
36218W        W 2759  35.202  15.840  10.308
36219W        W 2760  43.112  14.809  13.156
36220W        W 2761  11.006  10.952   1.479
36221W        W 2762  28.048  25.472  11.155
36222W        W 2763  19.204   5.541   0.396
36223W        W 2764  41.763  21.538   1.757
36224W        W 2765   4.042   0.789   3.281
36225W        W 2766  26.504  27.681  14.436
36226W        W 2767  30.575   0.744   1.019
36227W        W 2768   4.000  15.795   2.349
36228W        W 2769  27.550  36.865   0.528
36229W        W 2770  11.646   2.396  12.950
36230W        W 2771   7.088  10.228  14.298
36231W        W 2772   7.411   9.878   2.965
36232W        W 2773  20.458  36.972   0.837
36233W        W 2774  39.441  28.705  11.658
36234W        W 2775  40.017   6.261   4.183
36235W        W 2776  16.828  33.600   0.998
36236W        W 2777  30.337  38.411   4.206
36237W        W 2778   2.868  44.649   4.995
36238W        W 2779  25.149   3.632  12.533
36239W        W 2780  35.185  16.920   2.860
36240W        W 2781  18.010  42.430  13.409
36241W        W 2782  27.202  35.306   2.406
36242W        W 2783  25.430  41.494  11.631
36243W        W 2784  40.964  11.437   3.248
36244W        W 2785  32.593  24.703  11.633
36245W        W 2786  36.515  40.490   1.587
36246W        W 2787  43.947  14.607  11.944
36247W        W 2788  31.597  16.301   1.200
36248W        W 2789  33.945  18.302  11.605
36249W        W 2790  10.334   6.885   2.472
36250W        W 2791   2.058  33.949  11.627
36251W        W 2792   0.644   2.842  13.250
36252W        W 2793  21.061  42.910  13.107
36253W        W 2794  36.553  39.822  12.974
36254W        W 2795  37.356  29.576   4.200
36255W        W 2796  31.835  17.163   3.466
36256W        W 2797  44.827  14.125  10.523
36257W        W 2798  10.853  16.138   4.128
36258W        W 2799   0.903  21.229  11.201
36259W        W 2800  26.012  43.375   4.544
36260W        W 2801   2.658  16.032   3.283
36261W        W 2802  20.578   1.236  14.912
36262W        W 2803   4.530  43.724   1.265
36263W        W 2804   0.345  21.948   1.709
36264W        W 2805  33.506  27.191  14.451
36265W        W 2806  11.768  36.536  11.555
36266W        W 2807  19.794  34.252  14.584
36267W        W 2808   6.819  32.149  11.943
36268W        W 2809  28.854  13.414   5.354
36269W        W 2810  19.799   2.544  11.138
36270W        W 2811  21.448  23.491   2.784
36271W        W 2812  26.433  33.097  13.643
36272W        W 2813  24.579  25.917   0.881
36273W        W 2814  33.900  11.220  12.964
36274W        W 2815  14.289   0.968  14.846
36275W        W 2816  25.055  36.297   3.741
36276W        W 2817  39.073  40.329   2.975
36277W        W 2818   2.904  20.803   1.308
36278W        W 2819  24.572  23.697   1.350
36279W        W 2820   7.251  44.300   2.711
36280W        W 2821  30.223  22.003   1.009
36281W        W 2822  43.176  11.214   1.324
36282W        W 2823   9.120   8.256   0.663
36283W        W 2824  25.193  22.489   2.069
36284W        W 2825  38.755  11.490   4.205
36285W        W 2826  18.831   2.812   0.008
36286W        W 2827  32.056  18.599   3.162
36287W        W 2828  24.206  20.000   3.163
36288W        W 2829  42.270  37.876  11.537
36289W        W 2830   4.163  14.319  11.251
36290W        W 2831  16.255  42.966   5.008
36291W        W 2832  31.330  31.815  11.575
36292W        W 2833  37.171  33.990   3.422
36293W        W 2834  32.642  10.816   2.415
36294W        W 2835  11.241  19.945  13.234
36295W        W 2836  36.320   8.497  13.682
36296W        W 2837  30.878  27.625   0.244
36297W        W 2838  23.250  10.984   4.583
36298W        W 2839  30.805  36.557   3.177
36299W        W 2840   6.380  13.655   1.110
36300W        W 2841  13.214  31.172   0.066
36301W        W 2842  14.850  25.120   0.269
36302W        W 2843   8.007   4.363  13.066
36303W        W 2844  17.958  34.631  11.638
36304W        W 2845  34.380  44.887  12.458
36305W        W 2846  23.186  36.848  13.463
36306W        W 2847  26.689  20.163   3.084
36307W        W 2848  16.700   5.175  13.806
36308W        W 2849   3.405   7.116   4.165
36309W        W 2850  20.186  12.111   0.277
36310W        W 2851   9.774  12.847  12.038
36311W        W 2852  42.105  44.804   0.969
36312W        W 2853  22.154  43.904   0.790
36313W        W 2854  38.756  42.803  13.106
36314W        W 2855  31.866   6.836   3.786
36315W        W 2856   6.952  44.478  10.795
36316W        W 2857  37.814  34.446  12.484
36317W        W 2858  11.457  19.592  14.345
36318W        W 2859  28.532  25.269  11.063
36319W        W 2860  43.304  33.707  14.591
36320W        W 2861  25.820   5.400   3.628
36321W        W 2862   0.705  12.753  12.509
36322W        W 2863  25.669  11.823  14.740
36323W        W 2864   5.472  23.051   1.311
36324W        W 2865  20.730  31.956   0.113
36325W        W 2866  15.773   8.837   2.335
36326W        W 2867  17.516  37.986  13.509
36327W        W 2868   6.908  19.468   0.222
36328W        W 2869  44.486  19.844  10.561
36329W        W 2870  41.792  18.822   0.854
36330W        W 2871  39.746  18.905   2.196
36331W        W 2872   0.529  27.566  14.866
36332W        W 2873  31.026  33.087   2.821
36333W        W 2874   2.152  41.359  11.173
36334W        W 2875  41.276  15.925  10.692
36335W        W 2876  39.142  33.774   2.161
36336W        W 2877   6.663  44.915  10.832
36337W        W 2878   8.339   4.693   2.895
36338W        W 2879  35.464   3.745   3.399
36339W        W 2880  26.768   9.770  11.432
36340W        W 2881  33.467  41.498   4.847
36341W        W 2882   5.906  10.796  14.845
36342W        W 2883  43.927  30.198  13.613
36343W        W 2884  30.696  21.950   0.774
36344W        W 2885  35.564   1.211  13.970
36345W        W 2886  37.509   7.656  13.841
36346W        W 2887  18.174  29.605   4.837
36347W        W 2888  43.329  28.482   1.213
36348W        W 2889  35.845  33.537  11.450
36349W        W 2890  13.148  44.481   1.462
36350W        W 2891  11.313  28.659  12.414
36351W        W 2892  38.935  13.308   1.066
36352W        W 2893  27.076  28.771   4.511
36353W        W 2894  12.826   4.428   2.750
36354W        W 2895   6.156  40.288   0.419
36355W        W 2896  10.141  12.307   0.955
36356W        W 2897  22.473  20.083   3.329
36357W        W 2898  22.250  40.266   0.455
36358W        W 2899  15.232  15.480  10.965
36359W        W 2900  28.800   5.852  14.340
36360W        W 2901   1.628   5.941  14.357
36361W        W 2902  40.832  40.953  14.581
36362W        W 2903  13.373   1.135   1.638
36363W        W 2904  41.398  30.816   3.927
36364W        W 2905  16.643  31.362   3.627
36365W        W 2906  24.463   4.194   4.533
36366W        W 2907   5.883   1.136   4.537
36367W        W 2908  10.890  41.143  11.610
36368W        W 2909   2.221  36.957   4.127
36369W        W 2910  16.711  10.400   0.798
36370W        W 2911  24.341  18.353   0.885
36371W        W 2912  24.996  24.337  10.809
36372W        W 2913  25.620  36.548  14.744
36373W        W 2914  18.555   7.157   1.219
36374W        W 2915  44.767   3.659  13.350
36375W        W 2916  38.055  38.079  14.689
36376W        W 2917  35.597   8.262   0.464
36377W        W 2918  14.090  29.798   5.502
36378W        W 2919  18.034  35.225   0.490
36379W        W 2920  42.816  28.943  10.655
36380W        W 2921   2.630  19.335  11.069
36381W        W 2922  19.563   1.285   5.132
36382W        W 2923  29.963  24.405   4.506
36383W        W 2924  40.383  12.980   4.498
36384W        W 2925  29.936  35.166  11.107
36385W        W 2926  23.523  21.396   4.101
36386W        W 2927   5.360  26.772   3.641
36387W        W 2928  11.984  36.848   0.465
36388W        W 2929  19.283  36.215  12.947
36389W        W 2930  18.721   8.174   3.259
36390W        W 2931  14.894  38.838  10.699
36391W        W 2932  14.206  38.635   1.316
36392W        W 2933  39.843  12.202   3.636
36393W        W 2934  31.067  17.866  13.881
36394W        W 2935  31.076  28.422  13.937
36395W        W 2936  15.521  16.365   4.802
36396W        W 2937  43.477  15.211   0.517
36397W        W 2938  20.058  20.462  14.407
36398W        W 2939  43.999   4.556  12.427
36399W        W 2940  21.490   8.513   1.822
36400W        W 2941  28.040  34.377  10.700
36401W        W 2942  14.210   3.698   2.695
36402W        W 2943  14.469  24.371  14.786
36403W        W 2944  27.879  30.229  11.578
36404W        W 2945  17.100  24.900   1.812
36405W        W 2946  24.035   1.191   4.648
36406W        W 2947  36.311  20.112  11.583
36407W        W 2948   3.764  40.353   3.660
36408W        W 2949   2.037  34.865  11.594
36409W        W 2950   8.911  11.308   2.651
36410W        W 2951   7.255  36.559   1.163
36411W        W 2952   7.917   7.804   3.375
36412W        W 2953  23.186  32.456   1.692
36413W        W 2954  13.457   2.067   0.788
36414W        W 2955  15.490  11.949   1.381
36415W        W 2956   8.385  33.159  11.545
36416W        W 2957  24.940  10.333   1.647
36417W        W 2958   0.386   3.893  10.596
36418W        W 2959  39.025  16.779  13.956
36419W        W 2960   1.770  13.322   1.176
36420W        W 2961  11.291  24.064   2.349
36421W        W 2962  37.493  15.790   1.287
36422W        W 2963  18.867  13.731  13.109
36423W        W 2964  33.492  38.652  14.397
36424W        W 2965  35.585  38.160  12.003
36425W        W 2966  29.602  19.547   0.208
36426W        W 2967  17.561   6.290  12.061
36427W        W 2968  18.314   0.008   3.114
36428W        W 2969   2.841  15.632  12.905
36429W        W 2970   0.218  35.366   2.896
36430W        W 2971   1.946  13.313  14.364
36431W        W 2972   2.429  23.499  13.450
36432W        W 2973  20.664  13.193   2.823
36433W        W 2974  15.159  16.648   0.236
36434W        W 2975  30.009  12.128  12.372
36435W        W 2976  40.118  15.485   1.617
36436W        W 2977   7.219  43.873   4.593
36437W        W 2978  30.732  14.067   2.452
36438W        W 2979  40.620  12.538   4.413
36439W        W 2980  31.844  25.654   1.713
36440W        W 2981  33.930  12.145  10.541
36441W        W 2982  34.762   4.724  14.383
36442W        W 2983  25.135  10.654  13.900
36443W        W 2984  29.920   0.623   4.279
36444W        W 2985  15.161  43.409  12.030
36445W        W 2986   2.540   6.663  11.886
36446W        W 2987  40.426  26.537   2.665
36447W        W 2988  28.421  37.849  14.076
36448W        W 2989   3.307  21.498   2.653
36449W        W 2990   4.519  39.098  12.694
36450W        W 2991  16.566  23.020   2.186
36451W        W 2992   2.574  28.130   1.348
36452W        W 2993   8.906  20.765  12.764
36453W        W 2994   3.574  32.440   3.933
36454W        W 2995  44.442  17.098   4.694
36455W        W 2996   1.265  40.958   0.377
36456W        W 2997  22.291  20.093  14.754
36457W        W 2998  29.486  29.203   0.916
36458W        W 2999  25.089   3.969  14.861
36459W        W 3000  23.577  23.978   3.651
36460W        W 3001  36.890   6.310   2.701
36461W        W 3002  19.798  23.926  14.042
36462W        W 3003  13.586  35.815   3.735
36463W        W 3004  18.935  37.137  14.339
36464W        W 3005  29.719  20.654  13.418
36465W        W 3006  33.487   7.756   1.309
36466W        W 3007  43.514  25.645   0.802
36467W        W 3008  35.073   8.817  14.968
36468W        W 3009   4.319  44.175  14.053
36469W        W 3010  40.009  33.014   1.351
36470W        W 3011   0.534  32.395  13.332
36471W        W 3012   5.224  12.877   4.308
36472W        W 3013  35.611  38.133   2.623
36473W        W 3014  28.273  34.274  13.509
36474W        W 3015  17.770  41.982  13.626
36475W        W 3016   6.476  26.229   4.445
36476W        W 3017  44.479  36.310   0.493
36477W        W 3018  15.109  10.150  13.873
36478W        W 3019  15.289  17.140   0.339
36479W        W 3020   1.315  36.604  10.984
36480W        W 3021  11.591  29.081  14.943
36481W        W 3022  27.270  43.017  12.983
36482W        W 3023   9.299  38.647   0.857
36483W        W 3024  30.435  36.442   0.673
36484W        W 3025  22.271  39.726  11.624
36485W        W 3026   3.513   6.169   3.728
36486W        W 3027   1.379  43.819   0.199
36487W        W 3028  24.803  36.587   4.105
36488W        W 3029  22.808  25.962  14.921
36489W        W 3030  26.871  37.417  12.566
36490W        W 3031  38.024  11.311   2.656
36491W        W 3032  37.369  42.475   4.191
36492W        W 3033   8.383  21.257   2.213
36493W        W 3034  29.635  23.185  11.179
36494W        W 3035  21.313  44.888  13.472
36495W        W 3036  26.991  27.099   4.569
36496W        W 3037   0.499  32.844  12.103
36497W        W 3038   1.037   3.516   4.786
36498W        W 3039   3.933  44.531  14.863
36499W        W 3040  27.680   8.319  12.170
36500W        W 3041  43.254  36.268  13.466
36501W        W 3042  25.024  39.418   4.731
36502W        W 3043  25.035  19.586   2.251
36503W        W 3044  18.084  32.947   2.623
36504W        W 3045   9.173  38.318   9.793
36505W        W 3046  27.557  32.993  11.679
36506W        W 3047  26.873  20.704   3.182
36507W        W 3048  14.608  18.221  10.682
36508W        W 3049  28.364   7.691  12.532
36509W        W 3050  32.885   5.981  11.560
36510W        W 3051  13.981  44.755   1.468
36511W        W 3052  42.583  24.130  13.923
36512W        W 3053  14.224  25.700  14.623
36513W        W 3054  33.335  35.945   3.973
36514W        W 3055   8.666   8.598  13.318
36515W        W 3056  21.677   7.406  11.174
36516W        W 3057  35.885  34.085   4.108
36517W        W 3058   1.769  42.415  11.938
36518W        W 3059  34.470  28.050   0.849
36519W        W 3060  15.890  32.446   4.905
36520W        W 3061  14.324  29.062   5.009
36521W        W 3062  40.832  32.646  10.635
36522W        W 3063   8.322  39.700  13.894
36523W        W 3064  20.313  16.057   0.210
36524W        W 3065  31.966  44.850   4.266
36525W        W 3066   1.403  13.372  12.592
36526W        W 3067   7.787  27.211  10.572
36527W        W 3068   6.264  34.158  13.998
36528W        W 3069  15.589  15.724   0.434
36529W        W 3070   4.355  13.746   1.086
36530W        W 3071  15.851  10.486   4.075
36531W        W 3072  19.183  15.403  12.030
36532W        W 3073   5.379  26.596  12.160
36533W        W 3074  12.245   9.595  14.649
36534W        W 3075  18.841  12.507   4.093
36535W        W 3076  10.123  40.236   1.859
36536W        W 3077  37.096  44.954  11.192
36537W        W 3078  20.004  30.418   0.758
36538W        W 3079  43.922  32.250   1.986
36539W        W 3080  29.430  14.678   3.336
36540W        W 3081  13.182  16.537   3.171
36541W        W 3082   4.034  35.097   3.387
36542W        W 3083   0.552  42.329  12.487
36543W        W 3084  41.890  18.521  13.889
36544W        W 3085  30.352  19.083   2.870
36545W        W 3086  31.009  34.143   2.437
36546W        W 3087  14.545  17.280  12.108
36547W        W 3088  30.476   9.771  14.844
36548W        W 3089  44.424  35.493  14.206
36549W        W 3090   0.466   5.339  13.901
36550W        W 3091  26.276  13.933   3.212
36551W        W 3092   3.138  26.813   3.554
36552W        W 3093  23.572   7.916   0.128
36553W        W 3094  10.381  24.998  12.575
36554W        W 3095  20.511  39.010   4.619
36555W        W 3096  25.169  36.447  10.591
36556W        W 3097  13.988  32.142  13.550
36557W        W 3098  29.030   4.887   2.322
36558W        W 3099  43.656  15.854   1.078
36559W        W 3100   6.393  32.014  14.931
36560W        W 3101  29.441  33.229  12.885
36561W        W 3102  20.012  15.263   3.174
36562W        W 3103  39.464   1.018   3.962
36563W        W 3104  30.780  43.232  14.703
36564W        W 3105  23.612   4.956   2.150
36565W        W 3106  17.764  14.326   0.365
36566W        W 3107   4.235   5.975   0.945
36567W        W 3108  17.495   2.198   0.041
36568W        W 3109   5.996  10.083  13.773
36569W        W 3110  26.165  16.378   3.244
36570W        W 3111  27.015  21.937  11.974
36571W        W 3112  25.236  41.798   4.458
36572W        W 3113   5.130  22.634   2.461
36573W        W 3114  19.689  24.118   4.430
36574W        W 3115  31.941  18.281  10.632
36575W        W 3116  13.744  38.494   2.774
36576W        W 3117  25.104  44.934   0.502
36577W        W 3118  33.071   2.223   2.641
36578W        W 3119  27.080  39.770   4.647
36579W        W 3120  42.632   7.908  11.596
36580W        W 3121  27.833  12.769   4.707
36581W        W 3122  20.332   3.938   1.107
36582W        W 3123  26.440  30.112   1.840
36583W        W 3124   1.341  31.775  12.314
36584W        W 3125  39.437   8.919   4.640
36585W        W 3126  17.073  10.468  10.150
36586W        W 3127   7.546  29.332   3.564
36587W        W 3128  27.457   9.990  10.637
36588W        W 3129  41.741  44.948   2.982
36589W        W 3130  30.169   5.969   1.284
36590W        W 3131   6.744  19.067  10.697
36591W        W 3132  32.511  34.338  11.091
36592W        W 3133  14.646   7.674  10.767
36593W        W 3134  33.865  32.386  13.918
36594W        W 3135   5.682   2.855  11.802
36595W        W 3136   6.928   8.632   4.028
36596W        W 3137  30.963  17.006   4.198
36597W        W 3138   1.217  38.185  11.072
36598W        W 3139  36.520  15.099  10.979
36599W        W 3140  29.478  26.797  13.869
36600W        W 3141  21.086  25.837   4.959
36601W        W 3142  40.519   5.098   1.317
36602W        W 3143  43.756  41.898  12.993
36603W        W 3144  15.942  27.389  10.665
36604W        W 3145   0.362  21.469   0.823
36605W        W 3146   5.458  22.277  12.906
36606W        W 3147   2.958   6.914  11.607
36607W        W 3148  33.959  28.171  11.517
36608W        W 3149   8.057  30.171   2.729
36609W        W 3150  36.042   5.353   3.777
36610W        W 3151   7.186  34.752   1.855
36611W        W 3152  29.072  36.378  11.980
36612W        W 3153  43.450  16.411  10.784
36613W        W 3154  25.962  39.854   0.459
36614W        W 3155  41.595  16.251  11.614
36615W        W 3156  25.592  38.733  14.549
36616W        W 3157  20.166  10.926  10.685
36617W        W 3158  22.334   1.166  11.271
36618W        W 3159  17.465  35.025  14.771
36619W        W 3160  36.978  29.732   2.661
36620W        W 3161   3.901  15.310   4.861
36621W        W 3162   3.829  16.878  12.945
36622W        W 3163  43.753  30.980   2.107
36623W        W 3164   9.451  34.541  10.977
36624W        W 3165   3.406   8.072   0.352
36625W        W 3166  34.987  12.403   2.174
36626W        W 3167  22.211  25.015  11.434
36627W        W 3168  39.523  21.130   2.119
36628W        W 3169  41.408  38.512   2.180
36629W        W 3170  27.032  18.354  10.507
36630W        W 3171  43.966  38.018  11.477
36631W        W 3172   4.893  22.226  10.262
36632W        W 3173  13.324  34.240   1.538
36633W        W 3174   1.560  22.756  13.962
36634W        W 3175  21.858   2.190  10.410
36635W        W 3176  29.792  43.748  11.173
36636W        W 3177  14.915  18.043  11.056
36637W        W 3178  24.021  23.752   3.529
36638W        W 3179  28.511  19.338  13.062
36639W        W 3180  18.257  13.847  13.948
36640W        W 3181   5.733  27.916   0.372
36641W        W 3182  43.398  14.414  13.402
36642W        W 3183  35.556  35.484  13.150
36643W        W 3184  11.524   9.127   3.171
36644W        W 3185  41.037  28.702   4.080
36645W        W 3186  24.667  18.976  14.802
36646W        W 3187  20.625  10.719   1.634
36647W        W 3188  38.914  31.199   0.951
36648W        W 3189  32.937  17.396  11.941
36649W        W 3190  42.276  20.281   0.765
36650W        W 3191   2.276  44.858  13.867
36651W        W 3192  41.973  12.822   0.869
36652W        W 3193   4.824   9.965   1.911
36653W        W 3194  33.021   5.517  11.373
36654W        W 3195  15.976   4.697   2.328
36655W        W 3196  19.689   5.776   4.096
36656W        W 3197  26.114  23.058  13.146
36657W        W 3198  18.392  10.414   2.821
36658W        W 3199  32.390  40.430   1.757
36659W        W 3200   7.631   7.551   0.559
36660W        W 3201   6.384  32.126  11.029
36661W        W 3202  37.010  30.558  11.007
36662W        W 3203  26.716  11.895  13.507
36663W        W 3204   9.819  12.891  14.713
36664W        W 3205  41.483  28.060   1.087
36665W        W 3206  27.653  42.978  12.181
36666W        W 3207   9.425   7.709  12.615
36667W        W 3208  14.533  32.472   0.280
36668W        W 3209  39.588  41.495   4.617
36669W        W 3210  17.825  39.549  11.826
36670W        W 3211   2.926  12.061   1.477
36671W        W 3212   3.414   1.948   0.237
36672W        W 3213   9.921  41.609  13.679
36673W        W 3214   0.782  19.281  13.029
36674W        W 3215   0.465  41.268   4.803
36675W        W 3216  40.442  15.804   4.543
36676W        W 3217  26.189   9.228   2.349
36677W        W 3218  19.177  41.301   1.826
36678W        W 3219  11.057  15.674  11.557
36679W        W 3220  14.287   2.903  14.388
36680W        W 3221  37.211  19.328   1.548
36681W        W 3222  14.555  33.045   2.365
36682W        W 3223   0.172  40.370   0.033
36683W        W 3224  14.221  33.626  14.775
36684W        W 3225  42.498  38.312  12.412
36685W        W 3226  34.756  12.066  12.126
36686W        W 3227  22.441  22.655  11.672
36687W        W 3228   1.003  20.611  12.697
36688W        W 3229  23.189  25.981  10.764
36689W        W 3230  19.699  15.132   3.756
36690W        W 3231  41.303  36.346  10.920
36691W        W 3232  26.693   9.936   3.713
36692W        W 3233  24.425  12.854  10.981
36693W        W 3234  42.409  28.634   4.180
36694W        W 3235  16.160  19.550   4.982
36695W        W 3236   9.396  29.539  14.684
36696W        W 3237  39.230  26.709  11.462
36697W        W 3238  24.760   1.491  14.799
36698W        W 3239  31.897   0.879   2.447
36699W        W 3240  35.962  21.978   0.478
36700W        W 3241  11.650  22.154   2.501
36701W        W 3242   8.227  26.227   0.490
36702W        W 3243  37.227  23.296  10.973
36703W        W 3244   4.213  29.330  14.885
36704W        W 3245  14.402  39.853   4.838
36705W        W 3246   9.996  34.491   4.635
36706W        W 3247  34.442  30.076   2.064
36707W        W 3248  16.157  13.657   3.846
36708W        W 3249  41.137   3.522   1.738
36709W        W 3250  16.205  26.892  10.606
36710W        W 3251  29.218  44.033  10.343
36711W        W 3252   0.724  36.411  13.038
36712W        W 3253  36.489  34.276  12.632
36713W        W 3254  27.271   4.371   4.156
36714W        W 3255  11.525   1.228   4.669
36715W        W 3256  44.310  35.926   2.451
36716W        W 3257  13.968   5.627   2.904
36717W        W 3258  13.707  37.627   3.212
36718W        W 3259  33.884  37.361   0.517
36719W        W 3260   4.130  24.569  14.259
36720W        W 3261  20.779   8.691  12.930
36721W        W 3262  32.923  38.581   0.927
36722W        W 3263  31.963  22.225   2.905
36723W        W 3264   9.631  34.576   0.821
36724W        W 3265  24.873  15.135  12.431
36725W        W 3266  20.209  19.002  14.370
36726W        W 3267  14.252  16.323   3.175
36727W        W 3268  18.933  43.462   2.015
36728W        W 3269  26.865  12.012   4.152
36729W        W 3270   5.561   5.002   4.587
36730W        W 3271  33.087  22.085   3.207
36731W        W 3272   1.274  35.186   4.539
36732W        W 3273  44.219  19.077   3.231
36733W        W 3274  36.161  33.075  13.580
36734W        W 3275   2.986  39.242  14.805
36735W        W 3276  26.053  39.866   4.478
36736W        W 3277  35.852  19.330  10.826
36737W        W 3278  36.361  14.041  11.984
36738W        W 3279  36.033  15.330  12.398
36739W        W 3280  24.098  13.775  14.784
36740W        W 3281  21.647  27.077  13.719
36741W        W 3282  25.366  11.877  12.583
36742W        W 3283  10.409   7.326   0.281
36743W        W 3284  42.394   3.175   0.526
36744W        W 3285  37.452  41.408  14.587
36745W        W 3286  44.418  27.718  12.833
36746W        W 3287  30.029  29.018   4.713
36747W        W 3288  12.777  40.532  14.176
36748W        W 3289   2.488  15.195   2.854
36749W        W 3290  36.352  23.686   3.104
36750W        W 3291  12.546   4.890   1.748
36751W        W 3292  29.065  24.717   3.150
36752W        W 3293  41.036  37.827  12.549
36753W        W 3294  31.836  44.304   3.218
36754W        W 3295  18.945   7.865  10.995
36755W        W 3296  19.976   0.411   0.019
36756W        W 3297  15.295   0.808  13.606
36757W        W 3298  10.633   1.974   2.128
36758W        W 3299  37.619  20.316   0.323
36759W        W 3300  43.511  10.291  13.685
36760W        W 3301  20.677  12.803   2.004
36761W        W 3302  31.505  23.468  12.106
36762W        W 3303   9.605   6.119  10.263
36763W        W 3304   7.860  14.804   4.341
36764W        W 3305  35.231  11.339   0.757
36765W        W 3306  30.983  30.608   1.415
36766W        W 3307   5.403  10.594   3.646
36767W        W 3308   5.011  33.122  12.065
36768W        W 3309  26.608  17.698   4.484
36769W        W 3310  34.439   0.285   0.564
36770W        W 3311   1.205  15.465  14.401
36771W        W 3312  39.808   7.591   2.333
36772W        W 3313  39.451  21.517  12.201
36773W        W 3314   0.751  37.488  11.470
36774W        W 3315  28.466  40.592  14.865
36775W        W 3316  32.525  27.654   5.044
36776W        W 3317  26.440  38.787  13.861
36777W        W 3318   0.033  19.975  10.829
36778W        W 3319   8.159   1.916  12.166
36779W        W 3320  25.544  38.859   2.395
36780W        W 3321  12.609  32.654   3.676
36781W        W 3322  41.238  28.971   4.799
36782W        W 3323  35.031  11.881   0.429
36783W        W 3324   2.752  43.298  14.731
36784W        W 3325  11.834  36.056   4.104
36785W        W 3326  20.999  43.304  14.488
36786W        W 3327  10.230  17.466   5.130
36787W        W 3328  22.162  26.020   0.830
36788W        W 3329   7.191  30.447  11.217
36789W        W 3330   0.408  41.950   3.588
36790W        W 3331  26.542  44.596   1.891
36791W        W 3332  18.356  36.510   1.203
36792W        W 3333  21.339  31.477   4.593
36793W        W 3334  27.528  26.669  12.371
36794W        W 3335  20.138   8.275   1.897
36795W        W 3336  44.171   4.441   0.036
36796W        W 3337  41.550   6.235   2.726
36797W        W 3338  25.144   5.806  11.564
36798W        W 3339  35.876  34.043  13.428
36799W        W 3340  19.832  12.540   0.287
36800W        W 3341  18.009  13.703   0.947
36801W        W 3342   5.356  21.691  12.231
36802W        W 3343  27.658  25.270  13.441
36803W        W 3344  17.222  36.075   1.320
36804W        W 3345  10.774   2.023   1.081
36805W        W 3346   4.905   7.270   0.057
36806W        W 3347  20.400  25.108  11.516
36807W        W 3348  10.403   0.716   0.301
36808W        W 3349  17.681  38.853  13.630
36809W        W 3350  20.529  32.389  12.141
36810W        W 3351  32.909  33.544   2.158
36811W        W 3352  34.500  24.669   3.396
36812W        W 3353  28.404  20.768   3.212
36813W        W 3354   6.920  27.786   3.146
36814W        W 3355  10.156   7.243   2.803
36815W        W 3356  34.965  43.077  12.180
36816W        W 3357  41.456  39.000   3.899
36817W        W 3358   0.207  17.994   3.770
36818W        W 3359  24.006  17.271   0.816
36819W        W 3360   0.482  19.130  14.979
36820W        W 3361  22.539  25.377  11.614
36821W        W 3362  13.565  44.577  13.494
36822W        W 3363  41.890  26.177  11.524
36823W        W 3364  32.924   0.018  14.882
36824W        W 3365  26.106  37.813  10.726
36825W        W 3366  24.157  24.137  12.447
36826W        W 3367  24.283  10.137   3.683
36827W        W 3368   1.422  41.976  11.602
36828W        W 3369   5.888  26.609   0.766
36829W        W 3370  21.243  18.602  12.550
36830W        W 3371  39.943  23.725   3.419
36831W        W 3372   3.987  11.200  14.280
36832W        W 3373  32.920  22.794   2.807
36833W        W 3374  29.102  27.457   0.266
36834W        W 3375  30.547  21.585  14.978
36835W        W 3376  12.658   8.660   3.793
36836W        W 3377  37.477  29.799   4.635
36837W        W 3378   2.844  10.683  11.342
36838W        W 3379   9.816  29.855  12.080
36839W        W 3380   0.830  43.142  11.310
36840W        W 3381  33.194   1.124  12.198
36841W        W 3382   6.940  44.361   3.656
36842W        W 3383  35.405  29.537  11.932
36843W        W 3384  44.900  19.272  12.282
36844W        W 3385  26.600  31.743   1.366
36845W        W 3386  32.183  14.052  12.830
36846W        W 3387  23.681  25.634  12.593
36847W        W 3388  23.584   1.425  11.798
36848W        W 3389  28.728   9.715  12.055
36849W        W 3390  24.988  13.138  11.644
36850W        W 3391  33.610  32.585   3.272
36851W        W 3392   8.119   9.587   4.667
36852W        W 3393  42.425  12.849   4.144
36853W        W 3394  40.207   6.811   3.576
36854W        W 3395  41.900  12.715  12.239
36855W        W 3396  11.669  35.269   5.362
36856W        W 3397  19.588  26.912  13.553
36857W        W 3398  23.038   6.720   2.824
36858W        W 3399  21.598  31.439  13.801
36859W        W 3400  35.963  29.858  14.816
36860W        W 3401  35.188  44.501   4.460
36861W        W 3402   4.447  21.548  11.405
36862W        W 3403  14.069  36.781   4.559
36863W        W 3404  21.079  17.162  11.263
36864W        W 3405  34.017  29.308  10.770
36865W        W 3406  44.925  26.265  10.775
36866W        W 3407  35.075   8.537   2.431
36867W        W 3408  26.078  21.720   2.897
36868W        W 3409  31.638  18.230   2.034
36869W        W 3410  18.242  14.380  13.894
36870W        W 3411  32.798  22.548   4.174
36871W        W 3412  21.156  28.870  12.592
36872W        W 3413  16.797  11.418   2.188
36873W        W 3414  34.131  27.389  13.609
36874W        W 3415  15.605  42.207   1.810
36875W        W 3416  19.098  21.630  12.472
36876W        W 3417   1.322  13.802   0.067
36877W        W 3418  44.907  27.128  11.771
36878W        W 3419  21.968  19.215   1.440
36879W        W 3420   9.107  33.768  13.279
36880W        W 3421  38.351  34.057   1.785
36881W        W 3422  27.111  40.929   0.336
36882W        W 3423  37.173  37.234   3.414
36883W        W 3424  43.302  34.984  14.535
36884W        W 3425  16.299  33.384  14.417
36885W        W 3426   8.418  40.211   5.085
36886W        W 3427   2.984   4.308  14.441
36887W        W 3428  11.232  32.507  12.457
36888W        W 3429  18.942  42.762  11.324
36889W        W 3430  29.353  19.122   2.855
36890W        W 3431  36.735   8.334   1.259
36891W        W 3432  34.314  32.672   4.900
36892W        W 3433   6.850   4.038   4.588
36893W        W 3434  40.320  28.541  12.951
36894W        W 3435  21.896  23.501  13.815
36895W        W 3436  31.573   1.516   4.596
36896W        W 3437  36.592  21.702   4.061
36897W        W 3438  41.073  38.512  14.280
36898W        W 3439   5.849   0.161   4.580
36899W        W 3440   3.533  17.178  12.611
36900W        W 3441   8.850  27.970  12.647
36901W        W 3442  27.854  44.822  14.894
36902W        W 3443  32.530  28.612  12.960
36903W        W 3444   9.310  25.745  11.123
36904W        W 3445  24.250  32.581  13.079
36905W        W 3446  43.537  40.946   4.124
36906W        W 3447  40.105  11.878   9.861
36907W        W 3448   6.324  17.787  11.066
36908W        W 3449  44.768  44.586  12.904
36909W        W 3450  29.204  41.335   4.475
36910W        W 3451  30.276   5.871  14.734
36911W        W 3452  13.253   2.580  13.135
36912W        W 3453  23.028  26.137   2.126
36913W        W 3454  39.890   8.001   3.184
36914W        W 3455  37.490  21.487  12.261
36915W        W 3456  13.528  28.087  11.950
36916W        W 3457   5.220  20.652   2.179
36917W        W 3458   3.282  27.577  11.199
36918W        W 3459  37.827   5.237   0.258
36919W        W 3460  20.184  35.868  10.737
36920W        W 3461  42.746  11.808   3.295
36921W        W 3462  13.027   0.880  11.939
36922W        W 3463  35.322   5.683   4.989
36923W        W 3464  28.677  42.384   2.192
36924W        W 3465  19.019  42.925  13.856
36925W        W 3466  17.567  17.550   2.754
36926W        W 3467  39.960  43.863  10.867
36927W        W 3468  10.400  14.289   1.405
36928W        W 3469   4.982  35.350   1.451
36929W        W 3470  30.098  27.955   2.316
36930W        W 3471  43.145  23.344  11.546
36931W        W 3472  41.031  21.096  11.361
36932W        W 3473  11.612  23.528   3.597
36933W        W 3474  40.526  12.085  13.484
36934W        W 3475  38.986  32.188   2.253
36935W        W 3476  42.437   9.899  10.354
36936W        W 3477   0.977   9.819   0.386
36937W        W 3478   5.238   0.813   1.944
36938W        W 3479  38.170  16.140   3.791
36939W        W 3480  15.888  44.557   0.413
36940W        W 3481  12.799  23.575  14.813
36941W        W 3482  38.255  26.757  13.165
36942W        W 3483  17.321  29.747  12.560
36943W        W 3484  36.428  11.053   1.337
36944W        W 3485  44.234  41.334   0.453
36945W        W 3486  25.013  24.012  13.388
36946W        W 3487  20.283  38.266  12.253
36947W        W 3488  13.277  20.523   1.742
36948W        W 3489  21.685  38.448   4.952
36949W        W 3490   4.902   0.462  12.416
36950W        W 3491  11.135   5.260  12.518
36951W        W 3492  20.520  11.392  13.836
36952W        W 3493  32.541  42.116   4.672
36953W        W 3494  43.521   7.731   0.252
36954W        W 3495  32.407   5.007  13.498
36955W        W 3496  22.244  32.421   0.701
36956W        W 3497  43.917   2.415  11.305
36957W        W 3498   2.938  10.813  14.538
36958W        W 3499  44.838  34.982   0.450
36959W        W 3500  34.733  40.970  13.023
36960W        W 3501  23.666  18.007  14.910
36961W        W 3502  14.982  19.088   0.927
36962W        W 3503  37.108  21.404  11.176
36963W        W 3504  18.651  34.732   2.299
36964W        W 3505  11.674  22.198  14.235
36965W        W 3506  42.618  16.655  13.073
36966W        W 3507   1.402  15.592  11.701
36967W        W 3508  39.982  43.317   4.552
36968W        W 3509  27.678  10.942   0.452
36969W        W 3510  29.591   6.747   2.184
36970W        W 3511   3.652  36.599  14.256
36971W        W 3512  39.321   3.385   1.758
36972W        W 3513  23.935  34.063   3.954
36973W        W 3514  21.065   3.821  13.809
36974W        W 3515  14.191  16.044   2.722
36975W        W 3516  22.850  39.167  13.972
36976W        W 3517  38.706  44.325  14.556
36977W        W 3518  22.749   9.851  12.567
36978W        W 3519   4.546  28.447  14.949
36979W        W 3520  12.643  13.087  12.011
36980W        W 3521  28.140  33.986   2.210
36981W        W 3522  39.330  34.952  12.883
36982W        W 3523   3.002  31.157  13.990
36983W        W 3524  27.892  12.652  10.114
36984W        W 3525  15.456  18.502  12.443
36985W        W 3526  12.265   0.232   1.938
36986W        W 3527  14.824  32.212  12.021
36987W        W 3528   0.137  38.929  13.387
36988W        W 3529  14.186  43.573  10.633
36989W        W 3530  42.892   4.476   4.155
36990W        W 3531   8.930  15.671  11.095
36991W        W 3532  15.919  44.444  14.344
36992W        W 3533  17.172  33.863   0.304
36993W        W 3534   7.804  20.758  14.683
36994W        W 3535  15.762  41.210   4.018
36995W        W 3536  35.971   6.736   1.272
36996W        W 3537   1.732   6.449  14.221
36997W        W 3538  23.006   5.664  12.172
36998W        W 3539  24.625  37.540   1.989
36999W        W 3540  27.881  30.983  13.804
37000W        W 3541  31.041  27.154  13.071
37001W        W 3542  40.116  34.935  13.388
37002W        W 3543  34.154  10.170  13.962
37003W        W 3544  11.449   0.037   2.662
37004W        W 3545  12.834  40.313  10.910
37005W        W 3546   9.304  43.255  10.727
37006W        W 3547  18.964   4.377  12.225
37007W        W 3548   6.714  26.231  12.519
37008W        W 3549  17.383   0.792   0.276
37009W        W 3550  21.481  19.216   3.124
37010W        W 3551  26.502  21.749   0.296
37011W        W 3552   6.986  37.698  12.493
37012W        W 3553  21.534  11.540   2.309
37013W        W 3554  21.468   0.527  14.668
37014W        W 3555  17.753  26.040  10.475
37015W        W 3556  12.723  15.076  10.946
37016W        W 3557  33.423  14.806   1.290
37017W        W 3558  24.523  37.554   3.922
37018W        W 3559  15.646  40.105   2.072
37019W        W 3560  31.559   5.739  10.910
37020W        W 3561  33.146  18.523   0.443
37021W        W 3562  43.374  15.260  12.226
37022W        W 3563  21.636  31.967  13.610
37023W        W 3564  30.074  28.164   4.060
37024W        W 3565  36.524  34.431   3.942
37025W        W 3566   0.274  44.965   4.099
37026W        W 3567   9.091  14.615  14.350
37027W        W 3568  13.361  12.354  11.395
37028W        W 3569  11.240  16.150  11.674
37029W        W 3570  16.641  14.618  13.495
37030W        W 3571   2.671  40.889   0.366
37031W        W 3572  37.429  14.728   1.253
37032W        W 3573  15.680   5.797   3.712
37033W        W 3574  31.376  22.629   4.573
37034W        W 3575  22.073  28.685  11.591
37035W        W 3576   9.639  41.436   3.839
37036W        W 3577  14.841  36.299   4.095
37037W        W 3578  19.664  31.910  12.053
37038W        W 3579   1.978  24.467   0.418
37039W        W 3580  15.021  32.185   4.100
37040W        W 3581   6.853  18.329  12.084
37041W        W 3582  43.988  29.814  11.438
37042W        W 3583  24.007   5.114   1.389
37043W        W 3584  36.850  41.987   1.500
37044W        W 3585  40.912   5.290  10.591
37045W        W 3586   8.744  41.978  13.988
37046W        W 3587  26.594  40.306   0.970
37047W        W 3588  16.832   0.704   3.162
37048W        W 3589  19.741  10.394  12.469
37049W        W 3590   2.143  29.249  13.104
37050W        W 3591  22.284   2.719  14.302
37051W        W 3592  31.896  32.011   3.114
37052W        W 3593  33.958  17.667   3.069
37053W        W 3594  23.421  35.079  14.035
37054W        W 3595  34.069  30.017  14.902
37055W        W 3596  38.620  26.925   1.275
37056W        W 3597  27.450  35.848  11.645
37057W        W 3598  38.487  29.090  10.763
37058W        W 3599  38.311  22.914  11.222
37059W        W 3600  13.093  31.732  11.978
37060W        W 3601  31.848  44.299  14.803
37061W        W 3602  43.521  25.725  13.828
37062W        W 3603  40.887  28.504  10.666
37063W        W 3604  19.651  34.882   1.026
37064W        W 3605  39.779  26.315   1.694
37065W        W 3606  10.353   7.808   0.937
37066W        W 3607   7.886   4.160  14.767
37067W        W 3608  17.478   9.746   4.135
37068W        W 3609  19.189  43.021   3.410
37069W        W 3610  42.090   5.452  11.454
37070W        W 3611  40.969   3.773   2.162
37071W        W 3612  22.990   0.845   2.714
37072W        W 3613  38.926  42.501   0.668
37073W        W 3614  11.831  10.665  12.875
37074W        W 3615   1.696  20.760   0.947
37075W        W 3616  17.277  16.021  10.534
37076W        W 3617  33.891  44.245  10.517
37077W        W 3618   4.746  41.289  12.245
37078W        W 3619   8.430  13.183  12.895
37079W        W 3620  29.592  16.489   4.800
37080W        W 3621  23.942  39.914  13.756
37081W        W 3622  44.057   5.923   0.468
37082W        W 3623  44.518   5.825   4.659
37083W        W 3624   3.853  16.468  12.048
37084W        W 3625  14.857  18.269   0.832
37085W        W 3626  33.351  13.906  10.122
37086W        W 3627   5.342  10.836   3.185
37087W        W 3628  39.241  13.114  11.614
37088W        W 3629  22.159  44.317  14.846
37089W        W 3630  12.802  40.241  14.596
37090W        W 3631  27.852   4.379   2.458
37091W        W 3632  24.285  40.334   4.914
37092W        W 3633  42.877   4.180  14.448
37093W        W 3634   2.620  32.087  10.653
37094W        W 3635  21.673  37.111   4.109
37095W        W 3636  17.800  38.498  11.053
37096W        W 3637  35.200  17.713   4.367
37097W        W 3638  14.570  16.959   1.422
37098W        W 3639  13.535   2.483  13.548
37099W        W 3640  11.022  35.459   1.379
37100W        W 3641  15.886   8.408  12.002
37101W        W 3642  16.565   7.908   3.995
37102W        W 3643   3.718   9.969   1.689
37103W        W 3644  13.807  17.500  10.678
37104W        W 3645  41.498  42.014   1.920
37105W        W 3646  29.234   1.487   0.225
37106W        W 3647  18.939  21.593  14.293
37107W        W 3648  10.651   2.043  10.367
37108W        W 3649   0.262  14.494   2.748
37109W        W 3650   9.697  41.574   2.950
37110W        W 3651   6.785  42.779  14.362
37111W        W 3652   7.394  34.174  13.523
37112W        W 3653   3.952  42.748   0.312
37113W        W 3654   5.672  25.860  10.854
37114W        W 3655  35.077  33.479   4.273
37115W        W 3656   1.693  27.957   2.909
37116W        W 3657   8.017  16.652   3.119
37117W        W 3658   5.143  27.342   5.588
37118W        W 3659  30.389  16.239  13.349
37119W        W 3660  11.659  31.359   1.332
37120W        W 3661  21.592  12.030   4.021
37121W        W 3662  41.053  12.699   0.369
37122W        W 3663  39.447  42.292   4.135
37123W        W 3664  27.031   4.668   1.942
37124W        W 3665  26.124  10.748  14.239
37125W        W 3666  23.773  15.367   0.210
37126W        W 3667  18.162  28.528   1.449
37127W        W 3668  25.362  33.540   0.709
37128W        W 3669  22.022  25.302  12.832
37129W        W 3670   2.413  24.565   4.230
37130W        W 3671  13.503   0.708  13.396
37131W        W 3672  26.887  33.545   3.169
37132W        W 3673  21.389  28.558  14.587
37133W        W 3674   5.934  36.863  14.402
37134W        W 3675   2.232   7.257  12.642
37135W        W 3676   5.115  23.206  14.812
37136W        W 3677  36.521  12.076   3.188
37137W        W 3678   3.572  28.561  11.203
37138W        W 3679  21.557  36.834   1.913
37139W        W 3680  22.457  37.560   0.952
37140W        W 3681  25.534  41.221  12.059
37141W        W 3682  27.501  19.128   4.195
37142W        W 3683  18.339  20.924  14.305
37143W        W 3684  21.236   9.042   1.340
37144W        W 3685  40.814  14.084  12.424
37145W        W 3686  11.336  34.670  11.315
37146W        W 3687  43.988   4.622   4.844
37147W        W 3688  32.729  24.139   3.009
37148W        W 3689  36.086  40.286   2.734
37149W        W 3690  29.664  20.047   2.339
37150W        W 3691   2.146  30.125  10.176
37151W        W 3692  34.937  37.994  12.822
37152W        W 3693  22.052  11.206   1.676
37153W        W 3694  21.145  19.014   2.762
37154W        W 3695  12.304   8.275   3.806
37155W        W 3696  29.419  10.339  13.478
37156W        W 3697  23.441  36.094  12.608
37157W        W 3698  11.847  44.404  10.782
37158W        W 3699  38.634  14.747  13.029
37159W        W 3700   0.510  39.439   4.302
37160W        W 3701  43.423  10.170  13.208
37161W        W 3702  44.333  38.661  13.339
37162W        W 3703  26.083  42.283   1.806
37163W        W 3704  12.111  38.981   4.573
37164W        W 3705  17.772  39.392   3.210
37165W        W 3706   2.975  16.142   2.868
37166W        W 3707  23.083  36.122  11.276
37167W        W 3708   1.771   4.338   4.502
37168W        W 3709  14.432  17.116  14.336
37169W        W 3710   1.259  19.646  13.908
37170W        W 3711  34.736  15.563  10.292
37171W        W 3712  16.194   2.965  13.418
37172W        W 3713  21.179   9.527   1.169
37173W        W 3714  37.009  40.105  12.995
37174W        W 3715  38.297  16.139  11.553
37175W        W 3716  42.524  11.194  11.192
37176W        W 3717  18.121  33.319  14.933
37177W        W 3718  24.153  18.024   1.279
37178W        W 3719  41.346  39.003   2.338
37179W        W 3720  37.910  26.787  12.790
37180W        W 3721  39.589  11.732   0.684
37181W        W 3722   5.925   3.275   2.890
37182W        W 3723  40.535  39.874   1.472
37183W        W 3724   8.922  43.032   0.737
37184W        W 3725  18.984  18.538   2.860
37185W        W 3726  26.452   0.522  10.800
37186W        W 3727  16.783  44.740   3.133
37187W        W 3728  10.684   8.826   3.447
37188W        W 3729  12.638  43.234   3.423
37189W        W 3730  41.566  33.071  10.749
37190W        W 3731  17.379  10.063  10.044
37191W        W 3732  16.781  23.820   1.862
37192W        W 3733  28.396  43.978  12.984
37193W        W 3734  20.217  29.971   0.920
37194W        W 3735   7.253  25.940   4.704
37195W        W 3736  22.626  43.836   4.503
37196W        W 3737  21.261  21.664   1.189
37197W        W 3738  39.810  37.810   1.459
37198W        W 3739   2.497  32.248  14.415
37199W        W 3740  18.617  38.888  13.297
37200W        W 3741   2.805  21.207  14.283
37201W        W 3742  24.494  24.961   1.802
37202W        W 3743  32.434  43.580   0.943
37203W        W 3744  35.835  23.242   1.304
37204W        W 3745   5.637  21.304  13.145
37205W        W 3746  11.574  13.114  14.352
37206W        W 3747  32.126  21.518   3.693
37207W        W 3748  32.888  11.750  14.409
37208W        W 3749  43.295  11.330  12.084
37209W        W 3750  35.322  11.761  13.267
37210W        W 3751  36.757  28.349  14.518
37211W        W 3752  33.685  24.035  13.467
37212W        W 3753   8.578  30.724   0.210
37213W        W 3754  43.902  31.258  12.130
37214W        W 3755  14.265  42.872   3.493
37215W        W 3756  13.121  25.312   3.920
37216W        W 3757  25.256  26.045   1.345
37217W        W 3758   0.055  34.954   3.202
37218W        W 3759  18.974  19.308  13.140
37219W        W 3760  14.703  42.686   4.238
37220W        W 3761  18.146  44.965  14.053
37221W        W 3762  22.748  23.457   2.003
37222W        W 3763  37.140  43.698  11.623
37223W        W 3764   2.390  37.914   4.869
37224W        W 3765  43.337  42.438  11.429
37225W        W 3766  21.702  38.907   4.457
37226W        W 3767  36.242  30.966   1.253
37227W        W 3768  33.035  16.889   3.677
37228W        W 3769  37.009  19.670  11.646
37229W        W 3770   6.488  21.375   5.023
37230W        W 3771  14.811   5.906  12.147
37231W        W 3772  30.122   4.440   1.718
37232W        W 3773  24.788  16.163   4.215
37233W        W 3774  18.043   0.261  14.470
37234W        W 3775  12.303   2.896   3.619
37235W        W 3776   6.394  31.148  12.848
37236W        W 3777  13.602  25.134  13.766
37237W        W 3778   3.341   3.460   0.391
37238W        W 3779  32.392   2.925   0.653
37239W        W 3780  41.869  10.632  12.972
37240W        W 3781  41.901   7.890   4.175
37241W        W 3782   2.175   7.013  11.085
37242W        W 3783   2.294  43.051  12.318
37243W        W 3784   0.488  42.403   2.733
37244W        W 3785   7.117  19.749   4.486
37245W        W 3786  27.652  10.257   4.599
37246W        W 3787   7.338  42.515  11.981
37247W        W 3788   8.254   5.002  12.556
37248W        W 3789  16.589  14.216   2.816
37249W        W 3790  20.176  36.851   0.425
37250W        W 3791  17.698  28.964  14.850
37251W        W 3792  21.177  34.500  11.489
37252W        W 3793  19.124   8.300   0.027
37253W        W 3794   2.790  11.330  12.120
37254W        W 3795   4.708  34.526  14.391
37255W        W 3796   4.612   1.481  14.379
37256W        W 3797  26.552  28.458   4.767
37257W        W 3798  14.307   2.832   3.189
37258W        W 3799  30.044   1.949  13.839
37259W        W 3800  35.647  33.988  11.173
37260W        W 3801  10.162  17.328  14.236
37261W        W 3802  32.054  16.415   1.401
37262W        W 3803  32.694  35.031  11.815
37263W        W 3804   7.255  30.370  14.158
37264W        W 3805  32.128  43.020  11.184
37265W        W 3806  31.881  27.881  13.147
37266W        W 3807  29.026  36.159  14.108
37267W        W 3808  26.397  10.931  14.970
37268W        W 3809  41.216   4.541  12.078
37269W        W 3810  19.525  20.371  13.538
37270W        W 3811  34.886   5.439   0.387
37271W        W 3812   5.733  26.660  11.365
37272W        W 3813  33.679  10.366  14.272
37273W        W 3814   8.725   0.714   0.961
37274W        W 3815   0.047  42.956   3.459
37275W        W 3816  22.730  11.203   0.454
37276W        W 3817   4.408  24.801  13.892
37277W        W 3818  26.404  37.555   2.750
37278W        W 3819  20.038  43.162   1.421
37279W        W 3820  34.212  22.333  11.726
37280W        W 3821  18.726  28.110  10.733
37281W        W 3822  30.883  12.808  13.371
37282W        W 3823  34.078   5.613  13.409
37283W        W 3824  21.277  17.108   4.594
37284W        W 3825  11.956   4.134   4.040
37285W        W 3826  35.681  23.413   4.075
37286W        W 3827  20.155  28.725   3.714
37287W        W 3828  26.181   6.191   4.137
37288W        W 3829  19.554  26.391  13.595
37289W        W 3830  21.008  17.576   3.725
37290W        W 3831  22.250  11.779   0.426
37291W        W 3832  22.175  43.084  12.169
37292W        W 3833  33.007  17.303  10.656
37293W        W 3834   1.481  34.822  10.793
37294W        W 3835  31.150   6.723  14.468
37295W        W 3836  21.696   6.345  12.163
37296W        W 3837  14.115  19.193  12.572
37297W        W 3838  15.054  23.278  10.977
37298W        W 3839  12.796  20.634  10.674
37299W        W 3840   7.496  15.240   4.310
37300W        W 3841  40.504   8.773  11.140
37301W        W 3842  21.189  22.209   4.948
37302W        W 3843  11.875   2.350  10.693
37303W        W 3844  44.405  24.436   1.654
37304W        W 3845  17.821  43.200   2.163
37305W        W 3846  34.656  20.893  11.572
37306W        W 3847   8.906  42.127   0.861
37307W        W 3848   1.761  29.004   0.205
37308W        W 3849   9.504  37.984  11.938
37309W        W 3850  13.330   7.814  10.411
37310W        W 3851  34.101  12.751   3.203
37311W        W 3852  11.375  40.705  11.090
37312W        W 3853  28.991   1.062  14.330
37313W        W 3854  24.048  33.713   1.366
37314W        W 3855   4.114  17.267   0.652
37315W        W 3856   3.444   0.445   4.755
37316W        W 3857   7.817  35.900  12.908
37317W        W 3858  40.472  27.964  10.401
37318W        W 3859   7.324  28.528   0.048
37319W        W 3860  33.773   6.895  12.252
37320W        W 3861   4.895  26.654   4.465
37321W        W 3862  15.250  16.728  12.298
37322W        W 3863  20.492  30.087  13.151
37323W        W 3864  13.673   5.891  14.077
37324W        W 3865  24.583  23.286  14.312
37325W        W 3866   8.690  17.885   0.425
37326W        W 3867  41.315  36.551   3.614
37327W        W 3868   0.515   0.997   2.227
37328W        W 3869  39.052  33.655  11.108
37329W        W 3870  37.144  37.355  10.670
37330W        W 3871  41.636  44.256   2.165
37331W        W 3872   4.851  37.654  11.629
37332W        W 3873  36.416  23.991  10.662
37333W        W 3874  44.220  32.675   2.174
37334W        W 3875  40.746  41.423  12.717
37335W        W 3876  24.702  35.489  12.908
37336W        W 3877  25.006  35.021   2.326
37337W        W 3878   6.003  39.012   5.146
37338W        W 3879   3.835  28.563  14.285
37339W        W 3880   1.669  38.847  12.256
37340W        W 3881  25.111  18.702   0.841
37341W        W 3882   0.797  28.134   0.599
37342W        W 3883  30.699  36.393   3.657
37343W        W 3884  12.656  41.838  13.962
37344W        W 3885   3.930   0.252   1.349
37345W        W 3886  34.029  22.812  11.775
37346W        W 3887   0.899  27.017   3.839
37347W        W 3888  40.014   8.569  14.780
37348W        W 3889  14.618  34.884  11.137
37349W        W 3890  26.578  44.592   0.924
37350W        W 3891  42.462  41.589  13.778
37351W        W 3892  19.484  19.457  10.930
37352W        W 3893  12.181  31.436  14.735
37353W        W 3894   2.260  29.592  11.993
37354W        W 3895  41.427   7.694   1.556
37355W        W 3896  16.150  39.390  14.395
37356W        W 3897  16.717  24.533  12.122
37357W        W 3898  11.302  28.099  11.142
37358W        W 3899  10.398  36.196  12.456
37359W        W 3900  20.634  14.607  12.562
37360W        W 3901   0.670  12.613   3.299
37361W        W 3902   1.815  24.260   1.992
37362W        W 3903  20.206  22.071   0.204
37363W        W 3904  16.730  43.369  14.415
37364W        W 3905  15.202  12.990   0.854
37365W        W 3906  30.343  20.706   0.811
37366W        W 3907   0.205  26.659   1.253
37367W        W 3908   0.795  26.146  12.471
37368W        W 3909  33.437  12.266   1.216
37369W        W 3910  25.578   5.692   0.709
37370W        W 3911  15.862  26.983   4.165
37371W        W 3912  10.805  29.486   2.535
37372W        W 3913  13.314  33.532  12.137
37373W        W 3914   7.728  13.178  12.462
37374W        W 3915  22.143  44.591  14.407
37375W        W 3916   1.741   9.411  12.008
37376W        W 3917  16.192  31.630   0.380
37377W        W 3918  27.596  16.743  13.679
37378W        W 3919  38.012  23.281  14.916
37379W        W 3920  11.851  24.532  13.309
37380W        W 3921   4.724  24.019  14.059
37381W        W 3922  40.060  27.006   3.328
37382W        W 3923  26.970  13.633  11.805
37383W        W 3924  23.931  16.279  12.870
37384W        W 3925  11.741  19.986   2.312
37385W        W 3926  10.659  39.093   3.579
37386W        W 3927  10.781  32.537   2.811
37387W        W 3928  32.253  25.750  11.976
37388W        W 3929  13.128  15.325   1.010
37389W        W 3930   3.445   0.071   0.319
37390W        W 3931   0.730  14.578  11.773
37391W        W 3932  15.655  41.288   2.958
37392W        W 3933  39.106  29.651  13.582
37393W        W 3934  40.437  29.699  14.763
37394W        W 3935  24.122  35.280  12.904
37395W        W 3936   7.842  36.722  14.930
37396W        W 3937  31.517  39.844   1.815
37397W        W 3938  44.493  25.574   3.874
37398W        W 3939  23.795  22.664   0.834
37399W        W 3940   4.181  32.009   1.198
37400W        W 3941   2.908  15.889  10.985
37401W        W 3942   1.976  26.552  13.850
37402W        W 3943   2.153  18.599  12.549
37403W        W 3944   4.128  16.791  11.214
37404W        W 3945   6.517  43.991   4.924
37405W        W 3946  24.078   1.387  11.946
37406W        W 3947  26.476  11.715  13.917
37407W        W 3948  29.661   4.990  12.468
37408W        W 3949  38.494  21.946   1.801
37409W        W 3950  20.092  15.273  11.782
37410W        W 3951   0.381   0.299  10.928
37411W        W 3952  21.957   6.745  12.370
37412W        W 3953   0.968  10.155   3.198
37413W        W 3954  10.380  26.636  14.006
37414W        W 3955  39.288  15.290   4.064
37415W        W 3956  24.687  29.397  12.105
37416W        W 3957   9.661  28.039  13.223
37417W        W 3958  15.727  40.005  13.604
37418W        W 3959  37.049  34.841   1.526
37419W        W 3960  21.842  41.029   3.083
37420W        W 3961  25.953   7.706  11.536
37421W        W 3962   7.165  16.678  13.282
37422W        W 3963  44.824  35.547  12.051
37423W        W 3964   1.533  16.251  11.159
37424W        W 3965  16.957  13.799   4.466
37425W        W 3966   9.884   7.883   0.752
37426W        W 3967  39.012  25.323   0.044
37427W        W 3968  27.755  40.060   5.119
37428W        W 3969   4.733  14.102  12.131
37429W        W 3970  41.432  13.608   3.113
37430W        W 3971  33.241  36.891   4.926
37431W        W 3972   1.605  33.659  11.646
37432W        W 3973  19.546  17.676   3.874
37433W        W 3974   4.900  36.440  11.681
37434W        W 3975  16.027  42.555   3.727
37435W        W 3976  41.014  10.100   4.580
37436W        W 3977  25.327   2.482   2.638
37437W        W 3978  30.123  33.870  13.395
37438W        W 3979  33.395  36.698  12.400
37439W        W 3980  16.242  29.498  13.335
37440W        W 3981  39.968  25.182   2.365
37441W        W 3982  37.370  11.716  12.806
37442W        W 3983  44.544  44.957   2.734
37443W        W 3984  19.119   5.833   1.724
37444W        W 3985  39.708   8.797  11.605
37445W        W 3986  16.800   6.275   3.805
37446W        W 3987  36.987  25.521  14.951
37447W        W 3988   6.561  14.050   1.377
37448W        W 3989  41.104  11.203  14.843
37449W        W 3990  22.238  36.074   1.986
37450W        W 3991  32.068  37.581   4.007
37451W        W 3992  37.820  40.427   2.497
37452W        W 3993   6.861  32.417  14.415
37453W        W 3994  41.923  24.681   1.166
37454W        W 3995   7.913  13.910  12.936
37455W        W 3996  36.943  32.019   4.420
37456W        W 3997   5.970  32.434  13.884
37457W        W 3998   7.417   1.468   4.979
37458W        W 3999   9.462   1.220  11.922
37459W        W 4000   0.459  11.517   1.381
37460W        W 4001  42.800   2.279   2.320
37461W        W 4002  33.486  42.186   2.933
37462W        W 4003  13.678  37.261  12.978
37463W        W 4004  23.582  33.163   0.800
37464W        W 4005  24.023  22.969  13.632
37465W        W 4006   1.224   6.566  13.150
37466W        W 4007  22.929  17.249  13.941
37467W        W 4008  23.450   8.835  14.837
37468W        W 4009  18.647  21.485   0.789
37469W        W 4010   3.750  26.885   2.277
37470W        W 4011   5.327  10.798  13.991
37471W        W 4012  22.708  14.211  13.946
37472W        W 4013  11.864   1.073   1.803
37473W        W 4014  10.859  35.303  11.537
37474W        W 4015   9.678  33.897  13.503
37475W        W 4016  14.679  33.579  14.547
37476W        W 4017  44.340   3.833  12.101
37477W        W 4018  17.067  14.563  13.807
37478W        W 4019  33.942  30.660   1.549
37479W        W 4020  18.635   8.910   0.559
37480W        W 4021   8.799   7.474   2.628
37481W        W 4022  22.949  42.456   1.848
37482W        W 4023   5.250  42.495   4.536
37483W        W 4024   2.933  31.671  13.973
37484W        W 4025  16.159   3.464  12.574
37485W        W 4026  17.141  27.241  13.943
37486W        W 4027  23.065  30.078  12.159
37487W        W 4028  26.690  18.193  14.040
37488W        W 4029  15.929   6.888  10.732
37489W        W 4030  12.272  15.276   0.454
37490W        W 4031  16.624  43.811  12.997
37491W        W 4032  29.580  40.394   3.337
37492W        W 4033  43.442  32.963  14.943
37493W        W 4034  43.991  36.111   9.948
37494W        W 4035  18.182  36.485   3.193
37495W        W 4036  37.750  25.614   1.424
37496W        W 4037   9.620  38.551  11.084
37497W        W 4038   6.291  15.626  12.559
37498W        W 4039  14.221  35.167  12.273
37499W        W 4040  41.966  15.655   0.228
37500W        W 4041   7.792   5.489  13.483
37501W        W 4042  32.660  14.088   2.889
37502W        W 4043  18.152   1.676  10.805
37503W        W 4044  16.181   4.670   4.213
37504W        W 4045   4.029  42.756  11.572
37505W        W 4046   5.468  18.732  11.636
37506W        W 4047  30.419  32.682  11.119
37507W        W 4048  25.255  27.207  11.026
37508W        W 4049  21.061  33.624  12.475
37509W        W 4050  22.026  35.359   0.823
37510W        W 4051  43.872  23.806   2.299
37511W        W 4052  18.442  10.661  11.127
37512W        W 4053  30.936  39.455  12.053
37513W        W 4054  28.620  17.307  14.922
37514W        W 4055  15.157  20.310  11.556
37515W        W 4056  42.321   6.196   1.899
37516W        W 4057  18.271  14.840  12.943
37517W        W 4058  20.473  30.566   2.907
37518W        W 4059   9.323  25.062   1.003
37519W        W 4060   1.761   9.552   3.542
37520W        W 4061  42.011  12.683   2.596
37521W        W 4062  10.185  24.791  12.127
37522W        W 4063  16.994  16.941  13.935
37523W        W 4064  12.783  34.892  12.555
37524W        W 4065  32.840  24.179  11.579
37525W        W 4066  14.217  30.276   0.446
37526W        W 4067  22.468   4.784  12.914
37527W        W 4068   0.766  21.886  12.645
37528W        W 4069  33.041  29.371   3.222
37529W        W 4070  30.639  12.817  12.912
37530W        W 4071  40.396  16.551  11.068
37531W        W 4072  16.081  39.014   3.612
37532W        W 4073  40.807  13.311  12.904
37533W        W 4074  31.051  34.395  12.179
37534W        W 4075  42.884  21.072  12.130
37535W        W 4076  35.372  32.681  12.094
37536W        W 4077   9.071  21.103  13.116
37537W        W 4078  17.184   1.904  13.911
37538W        W 4079  28.885  22.074   1.418
37539W        W 4080  15.128  11.479   4.536
37540W        W 4081  35.388  16.058   2.728
37541W        W 4082  14.680  11.698  10.512
37542W        W 4083  30.945   1.307  11.556
37543W        W 4084  20.319  12.863  13.029
37544W        W 4085  24.688  12.684   1.338
37545W        W 4086  38.898  11.515   2.311
37546W        W 4087  35.169  19.276   0.409
37547W        W 4088   7.248   7.247  14.305
37548W        W 4089  25.534   0.331   0.511
37549W        W 4090  21.284  14.194   2.315
37550W        W 4091  12.689  20.889  12.871
37551W        W 4092   7.769   4.382   3.444
37552W        W 4093   8.217  18.540   3.210
37553W        W 4094  18.710  19.054  14.216
37554W        W 4095  31.874  44.548   3.823
37555W        W 4096   1.241  43.912  10.764
37556W        W 4097   3.956  13.323  13.469
37557W        W 4098  19.283  24.203   3.630
37558W        W 4099   4.222   7.889   2.361
37559W        W 4100   5.347  38.109  11.677
37560W        W 4101  11.329   2.090  13.888
37561W        W 4102  40.278  27.046  12.995
37562W        W 4103  20.052   5.173   3.144
37563W        W 4104  38.879   6.112  11.595
37564W        W 4105  35.619  32.294   4.137
37565W        W 4106  21.555  41.425   4.014
37566W        W 4107  16.833  37.398  10.674
37567W        W 4108  21.798  14.003   2.281
37568W        W 4109  25.974  39.834  13.917
37569W        W 4110  16.290  37.947   0.463
37570W        W 4111  12.602  43.809  12.012
37571W        W 4112  20.633  26.717  14.368
37572W        W 4113  35.402   9.155  10.753
37573W        W 4114  39.204  44.306   1.762
37574W        W 4115  40.545  17.191   3.278
37575W        W 4116   0.515  25.611  10.701
37576W        W 4117  38.625  31.146   3.625
37577W        W 4118  25.667  42.136   4.452
37578W        W 4119  33.620  23.566  10.719
37579W        W 4120  26.351  17.071  14.762
37580W        W 4121  22.524  17.021   3.630
37581W        W 4122  32.901  29.439  11.485
37582W        W 4123   0.183  15.041   0.904
37583W        W 4124  25.520  16.491   1.684
37584W        W 4125  37.546  19.093  11.243
37585W        W 4126  36.901  32.133  11.593
37586W        W 4127  36.429  36.880   4.675
37587W        W 4128  31.001  34.027  13.995
37588W        W 4129  36.523  28.162   4.064
37589W        W 4130  23.078  40.338   0.709
37590W        W 4131  13.519  22.187  11.110
37591W        W 4132  28.606  37.801  14.911
37592W        W 4133   0.314  15.232  11.013
37593W        W 4134   5.344  22.709  10.704
37594W        W 4135  22.142  25.431  14.475
37595W        W 4136  34.962   1.361   1.119
37596W        W 4137  18.128  41.038  10.418
37597W        W 4138  38.286   2.983  11.121
37598W        W 4139   2.960  11.466  13.460
37599W        W 4140   4.399  16.661  13.409
37600W        W 4141  28.535  20.871   4.531
37601W        W 4142  41.139  18.364  13.135
37602W        W 4143  29.067   8.427  13.928
37603W        W 4144  12.861  17.704   2.387
37604W        W 4145  31.515   8.706  10.629
37605W        W 4146  36.857   5.773  10.816
37606W        W 4147   4.436  28.106   0.752
37607W        W 4148  12.096   5.726  10.662
37608W        W 4149  39.959  13.216   3.566
37609W        W 4150  32.721  29.002   2.779
37610W        W 4151  20.426  27.588   1.428
37611W        W 4152   1.945  41.075   4.560
37612W        W 4153  13.850  40.315  10.792
37613W        W 4154   1.605  17.371  11.582
37614W        W 4155  11.184   5.515   2.902
37615W        W 4156   9.618  24.987   1.938
37616W        W 4157  29.523  22.494  10.500
37617W        W 4158  31.568  36.513   1.347
37618W        W 4159   3.991  13.170  14.427
37619W        W 4160  25.606  28.945   3.880
37620W        W 4161  35.041  38.402   3.381
37621W        W 4162   1.322  39.507  12.551
37622W        W 4163   2.494  28.652   1.341
37623W        W 4164   6.825   7.886  14.282
37624W        W 4165   8.777  22.254  10.750
37625W        W 4166  33.324   1.934  12.419
37626W        W 4167  38.983   1.443  10.715
37627W        W 4168  21.301  34.230  12.282
37628W        W 4169  23.287   6.335  13.388
37629W        W 4170  17.364   9.221   4.646
37630W        W 4171   2.925  38.879  10.670
37631W        W 4172  21.807   1.960   5.035
37632W        W 4173  27.237   2.806   0.764
37633W        W 4174  13.727  25.562  14.009
37634W        W 4175  21.678  13.892  13.373
37635W        W 4176   9.687  14.709  13.136
37636W        W 4177   2.909  27.062  14.050
37637W        W 4178  42.448  16.029  11.685
37638W        W 4179   2.546  14.067  13.908
37639W        W 4180  17.681   6.838  14.270
37640W        W 4181  31.299  13.794   0.298
37641W        W 4182   1.464  20.014  11.079
37642W        W 4183  17.554  32.929   2.205
37643W        W 4184   6.924  22.990   4.486
37644W        W 4185  23.222   2.308  11.937
37645W        W 4186  21.513  37.415  13.080
37646W        W 4187  21.578  20.668   0.898
37647W        W 4188  13.002  43.107   1.948
37648W        W 4189  26.561   1.010  10.917
37649W        W 4190   0.967  18.072   1.897
37650W        W 4191  18.556  15.261   0.530
37651W        W 4192  13.369  39.608  13.477
37652W        W 4193  18.493  23.999  12.422
37653W        W 4194  30.660  26.967  13.411
37654W        W 4195  38.968  12.317   1.271
37655W        W 4196  40.724  38.558   4.986
37656W        W 4197  18.251  22.077   0.068
37657W        W 4198   1.812  39.570   3.791
37658W        W 4199  30.431   0.833  12.951
37659W        W 4200  39.459  31.559  10.945
37660W        W 4201  37.487  19.807   0.409
37661W        W 4202  26.357  24.658  11.952
37662W        W 4203  31.160  11.024   2.199
37663W        W 4204  24.911  11.452  13.508
37664W        W 4205  40.406  10.011   0.689
37665W        W 4206   0.352   1.416   0.995
37666W        W 4207   1.827  35.898   3.313
37667W        W 4208  37.015  19.678   2.459
37668W        W 4209  29.601   1.922  11.567
37669W        W 4210  25.102  22.132   4.379
37670W        W 4211  23.763  32.865  11.756
37671W        W 4212  11.542  23.244  14.985
37672W        W 4213  10.960   2.922  13.132
37673W        W 4214   4.282  30.206  14.383
37674W        W 4215  14.705  12.660  12.504
37675W        W 4216   4.165  16.127  11.687
37676W        W 4217  31.917  17.122  12.659
37677W        W 4218  40.294  14.720   3.368
37678W        W 4219  31.407  17.081  12.898
37679W        W 4220  36.381  23.669   2.210
37680W        W 4221  29.378  14.734   2.030
37681W        W 4222   3.469  35.480  12.101
37682W        W 4223  16.011  25.531   0.713
37683W        W 4224  35.118  32.950   1.939
37684W        W 4225  22.690   7.283   5.575
37685W        W 4226  31.713  35.177   1.082
37686W        W 4227  20.103  44.921   1.824
37687W        W 4228  44.332  23.943  12.093
37688W        W 4229  14.422  36.324  11.448
37689W        W 4230  39.399  20.306  12.852
37690W        W 4231  21.018  38.860  12.089
37691W        W 4232  30.379  38.428  11.132
37692W        W 4233  32.327   8.675  10.942
37693W        W 4234  40.948  31.131  10.672
37694W        W 4235  33.166  40.736   4.518
37695W        W 4236   6.116  20.184  11.120
37696W        W 4237  28.162  13.260   0.886
37697W        W 4238   7.131  18.818   2.271
37698W        W 4239  35.177  41.355  14.852
37699W        W 4240  19.635   6.232   4.302
37700W        W 4241  39.461   7.427  11.747
37701W        W 4242  11.824  25.444  13.854
37702W        W 4243  18.855   0.898   3.704
37703W        W 4244  10.024   6.956  12.164
37704W        W 4245  23.440   0.986   4.142
37705W        W 4246  21.082   3.388  13.222
37706W        W 4247  39.952  20.447  10.837
37707W        W 4248  31.578   6.773   4.666
37708W        W 4249  34.295  22.304  12.472
37709W        W 4250   7.483  25.079   0.953
37710W        W 4251  43.826  24.653   1.435
37711W        W 4252  32.085   8.141   0.165
37712W        W 4253  30.183  29.068   4.187
37713W        W 4254  32.306   4.226  14.496
37714W        W 4255  29.436  23.722   4.101
37715W        W 4256  16.223  31.111   3.862
37716W        W 4257   8.570  24.916   5.192
37717W        W 4258   6.830  34.835  11.102
37718W        W 4259  36.057  35.855  12.988
37719W        W 4260  35.974  26.198  14.711
37720W        W 4261  16.829  26.147   2.646
37721W        W 4262  36.447  32.096   0.820
37722W        W 4263  33.375  39.415   1.747
37723W        W 4264  28.427   2.874   4.526
37724W        W 4265  32.737  42.656  12.060
37725W        W 4266  30.513  40.921   1.921
37726W        W 4267  42.422  14.905  12.515
37727W        W 4268  24.415  11.203  14.002
37728W        W 4269   5.791   4.296  12.414
37729W        W 4270  35.756   8.413  13.939
37730W        W 4271  33.922  15.329   0.240
37731W        W 4272  43.329  25.972  13.407
37732W        W 4273  24.698   0.444  13.127
37733W        W 4274  24.608  11.030  13.532
37734W        W 4275   9.679  13.920   2.869
37735W        W 4276  18.746  12.657   3.558
37736W        W 4277   6.078  31.883  11.527
37737W        W 4278   6.785  31.085   2.891
37738W        W 4279   2.505  35.844  12.483
37739W        W 4280  14.135  38.342  12.558
37740W        W 4281  10.941  16.323  14.899
37741W        W 4282  39.064  40.863   3.233
37742W        W 4283  35.878  40.997  14.613
37743W        W 4284   8.124   8.219  13.531
37744W        W 4285  35.919   6.919   4.809
37745W        W 4286  42.011  15.165   1.941
37746W        W 4287  36.986  13.139   0.758
37747W        W 4288  29.209  39.505  14.465
37748W        W 4289  30.270  33.318   0.727
37749W        W 4290  14.179  30.504   1.990
37750W        W 4291  27.921   1.244  11.005
37751W        W 4292  44.242  15.888  13.353
37752W        W 4293  33.678  30.971   2.527
37753W        W 4294  43.678  38.563   4.598
37754W        W 4295   5.233  13.611  11.620
37755W        W 4296  37.247  21.277  10.708
37756W        W 4297  31.555   9.742  11.962
37757W        W 4298  25.205  21.246   4.184
37758W        W 4299  31.800  28.548  12.266
37759W        W 4300  42.397  23.604   2.887
37760W        W 4301  17.767  24.703  14.892
37761W        W 4302  27.019  21.601   0.307
37762W        W 4303  41.789  35.743   1.448
37763W        W 4304   7.191  27.507  10.631
37764W        W 4305  27.686  24.668   1.258
37765W        W 4306  14.807  10.762  11.451
37766W        W 4307  36.752  38.062   3.807
37767W        W 4308  12.740  19.250   0.936
37768W        W 4309  28.427  35.652  11.041
37769W        W 4310  30.550  13.915  11.479
37770W        W 4311  17.709  23.650   1.913
37771W        W 4312   0.441  41.275   3.280
37772W        W 4313  10.663  23.758  11.486
37773W        W 4314   0.747  10.403   0.709
37774W        W 4315  19.267  41.380  12.168
37775W        W 4316  21.702  16.557   2.174
37776W        W 4317   5.195  36.879  11.575
37777W        W 4318  16.359  32.333   4.097
37778W        W 4319  26.665   1.623   1.064
37779W        W 4320  44.494  15.186   3.012
37780W        W 4321  38.704  12.670   4.161
37781W        W 4322  15.676  14.873   0.780
37782W        W 4323  19.762  31.609  11.608
37783W        W 4324   9.160  42.770  14.301
37784W        W 4325  33.838   5.980  11.910
37785W        W 4326  36.563   7.992  12.431
37786W        W 4327  37.326  29.780  12.975
37787W        W 4328  26.824   5.521  11.132
37788W        W 4329   2.356   0.540  12.697
37789W        W 4330  18.716  23.580   3.208
37790W        W 4331  34.226   1.319   2.302
37791W        W 4332   6.400  44.015   3.079
37792W        W 4333  43.175  40.922   1.325
37793W        W 4334  12.186   6.904  13.346
37794W        W 4335  19.449  19.260   1.156
37795W        W 4336  31.720  44.931  13.767
37796W        W 4337  10.590  31.082   2.799
37797W        W 4338  15.827   7.627  12.901
37798W        W 4339   5.510  12.667  13.624
37799W        W 4340  37.508  25.686   2.714
37800W        W 4341  21.043  11.932  13.381
37801W        W 4342  26.565   7.930   3.886
37802W        W 4343  33.164  30.286   1.892
37803W        W 4344  40.736  24.628   0.037
37804W        W 4345  39.571  40.525   3.848
37805W        W 4346   9.421  18.657  13.821
37806W        W 4347  21.954  17.909   4.589
37807W        W 4348   6.147  16.394  12.418
37808W        W 4349  30.031  28.606   4.366
37809W        W 4350  14.333  33.368   1.637
37810W        W 4351   1.744  41.454  12.091
37811W        W 4352  21.946  44.918   3.274
37812W        W 4353  42.537   1.604   4.341
37813W        W 4354  30.700  41.620   3.249
37814W        W 4355   6.517  32.539   3.655
37815W        W 4356  43.171  32.164  12.072
37816W        W 4357  16.275  35.447   4.181
37817W        W 4358  10.727   5.175   0.245
37818W        W 4359   5.439  30.284  13.834
37819W        W 4360   7.612  30.601  11.955
37820W        W 4361  39.013  11.406   2.813
37821W        W 4362  28.496  41.369  13.785
37822W        W 4363  24.454  27.477   1.838
37823W        W 4364  14.377  13.649  14.513
37824W        W 4365  37.685   2.905   3.914
37825W        W 4366  44.570  14.989  10.738
37826W        W 4367  23.473   5.953  12.996
37827W        W 4368   5.937   5.698   0.858
37828W        W 4369  11.713  25.238  11.114
37829W        W 4370  27.475   7.993   1.364
37830W        W 4371   5.395  32.181  14.537
37831W        W 4372  40.232   4.155  12.679
37832W        W 4373  35.363  18.572   0.039
37833W        W 4374  22.514  21.799  12.280
37834W        W 4375  31.131  18.598   0.403
37835W        W 4376   8.392  21.189   1.697
37836W        W 4377  22.155  13.681  14.580
37837W        W 4378   8.111  12.404  13.272
37838W        W 4379  37.517  28.462  12.909
37839W        W 4380  24.767  37.350  14.414
37840W        W 4381  35.000  39.254   2.722
37841W        W 4382  32.891  44.818  12.363
37842W        W 4383  19.486  23.204  14.497
37843W        W 4384   6.755   5.637  12.386
37844W        W 4385  29.326   2.287  14.048
37845W        W 4386  43.901  42.949  13.914
37846W        W 4387  23.665  22.754  11.054
37847W        W 4388   6.405  21.711  13.368
37848W        W 4389  13.728   5.758   4.301
37849W        W 4390  25.016  11.151   2.812
37850W        W 4391   9.392   9.710   1.875
37851W        W 4392  28.509  11.382   0.355
37852W        W 4393  27.733  25.192  12.008
37853W        W 4394  28.300  13.505   4.857
37854W        W 4395  37.557   1.416   2.295
37855W        W 4396  31.996  38.568   0.921
37856W        W 4397  37.375  40.839   4.590
37857W        W 4398  28.905   6.398   0.818
37858W        W 4399  17.593  30.901  11.981
37859W        W 4400  34.591  15.963  13.239
37860W        W 4401   3.013  21.131   3.413
37861W        W 4402   9.418  26.432   2.112
37862W        W 4403  11.073  16.610   3.360
37863W        W 4404   4.443  26.313   4.440
37864W        W 4405  40.948  16.456  11.058
37865W        W 4406  42.544   0.912  11.100
37866W        W 4407   2.616  14.328  13.018
37867W        W 4408  36.827   5.731  12.667
37868W        W 4409  31.355  29.143   1.788
37869W        W 4410  31.072   1.009  11.162
37870W        W 4411  22.359  31.487   4.125
37871W        W 4412  10.635   7.134  13.545
37872W        W 4413  22.964  17.817  13.045
37873W        W 4414  43.802  36.065  13.870
37874W        W 4415   8.617  23.907  13.603
37875W        W 4416   7.988  16.263  13.000
37876W        W 4417   7.645  13.506  14.770
37877W        W 4418  20.409  42.632   9.971
37878W        W 4419   8.501   6.368   0.346
37879W        W 4420  26.107  28.192   3.778
37880W        W 4421  39.307  42.803  13.945
37881W        W 4422   1.233   2.556   4.595
37882W        W 4423  32.599  21.222  11.868
37883W        W 4424  20.564  35.663   0.044
37884W        W 4425  28.032  37.748   3.388
37885W        W 4426  22.103   2.466  13.885
37886W        W 4427   5.688  12.874   4.566
37887W        W 4428  44.786  18.048  14.254
37888W        W 4429   6.001  42.797  10.724
37889W        W 4430  17.781  39.955  12.117
37890W        W 4431  39.951  34.936   4.565
37891W        W 4432  33.799  38.503  11.123
37892W        W 4433  13.400  27.038  10.523
37893W        W 4434  11.965  17.877   1.296
37894W        W 4435  38.603  24.953  12.516
37895W        W 4436  30.615  20.675  12.517
37896W        W 4437  24.499  35.896   4.707
37897W        W 4438  29.260  19.121  13.905
37898W        W 4439  37.664  20.441   5.046
37899W        W 4440  29.027   1.799   3.624
37900W        W 4441  27.163  31.580   1.986
37901W        W 4442  29.899  17.595  11.980
37902W        W 4443  10.832   0.304   3.322
37903W        W 4444  11.811  22.654   4.585
37904W        W 4445   4.882  32.766  11.703
37905W        W 4446   7.820   1.941  12.936
37906W        W 4447  19.156  27.449  12.058
37907W        W 4448   3.815  29.116   2.750
37908W        W 4449   1.409  16.387  12.060
37909W        W 4450   0.864   5.218   2.339
37910W        W 4451   6.600   5.914   2.818
37911W        W 4452  24.797  26.728   4.663
37912W        W 4453   7.875  29.942  11.460
37913W        W 4454   1.328  38.296   1.644
37914W        W 4455  23.970  26.317  11.667
37915W        W 4456  30.605  38.255  12.721
37916W        W 4457  42.487  35.553  12.352
37917W        W 4458  31.486  13.529  11.313
37918W        W 4459   8.155  36.825   1.637
37919W        W 4460  19.260  11.847   4.704
37920W        W 4461  19.464  44.463  11.898
37921W        W 4462  27.699   0.477   4.706
37922W        W 4463  15.747  40.516  13.580
37923W        W 4464  12.221  38.899  14.339
37924W        W 4465  11.031   2.724   4.510
37925W        W 4466  21.017  17.048  12.774
37926W        W 4467  15.878  20.858   1.996
37927W        W 4468   0.512  12.319  12.821
37928W        W 4469  14.373   2.411  14.559
37929W        W 4470   1.720  10.823   3.326
37930W        W 4471  12.710  34.828   0.710
37931W        W 4472  31.950  14.316  13.756
37932W        W 4473  25.963   6.427  12.009
37933W        W 4474  26.964  29.136  12.012
37934W        W 4475  43.444  22.831   1.312
37935W        W 4476   8.780   4.426  14.267
37936W        W 4477  34.903   6.946   0.082
37937W        W 4478   5.951  24.043  11.749
37938W        W 4479  42.917   6.966  12.775
37939W        W 4480  19.312  28.652  12.589
37940W        W 4481   3.824  41.844  12.024
37941W        W 4482   4.661   5.316   4.586
37942W        W 4483  41.466  15.758   4.886
37943W        W 4484   4.717  43.237  14.270
37944W        W 4485  22.843  23.604  10.652
37945W        W 4486  33.317   1.173  11.212
37946W        W 4487  41.583  17.463  10.599
37947W        W 4488  38.066  23.224   0.781
37948W        W 4489  28.673  12.059  10.987
37949W        W 4490  44.790  40.379   0.426
37950W        W 4491  34.895  28.672   3.137
37951W        W 4492  20.709  16.007   4.341
37952W        W 4493  33.879  21.323   2.888
37953W        W 4494  26.281   0.208   1.794
37954W        W 4495  35.426  17.656   2.751
37955W        W 4496  44.216  17.693   0.227
37956W        W 4497  36.500  10.544  12.270
37957W        W 4498  29.217  30.600   2.903
37958W        W 4499  25.232   2.453   1.288
37959W        W 4500  20.471   0.313   1.896
37960W        W 4501  40.454  16.561  14.319
37961W        W 4502  36.916  38.487   2.156
37962W        W 4503  34.559  22.983   2.873
37963W        W 4504  14.662  37.097   0.020
37964W        W 4505  20.115  11.146   2.177
37965W        W 4506  15.183  16.656   3.380
37966W        W 4507  30.967  41.291   4.302
37967W        W 4508  15.494  22.668   4.940
37968W        W 4509   3.483  34.997   4.163
37969W        W 4510  33.985  38.611  14.292
37970W        W 4511  32.360  18.148   4.107
37971W        W 4512   0.935  44.017   1.350
37972W        W 4513  17.313   4.458  14.400
37973W        W 4514   1.386   5.188   1.816
37974W        W 4515  16.025   1.010  10.532
37975W        W 4516  21.866  21.487   2.393
37976W        W 4517   9.603  34.076   0.874
37977W        W 4518  25.188  33.717  11.090
37978W        W 4519  44.412  19.989   0.801
37979W        W 4520  30.427  41.738   3.685
37980W        W 4521  25.638  40.320  13.599
37981W        W 4522  14.821  22.952  14.071
37982W        W 4523  35.715  36.453   3.431
37983W        W 4524  16.865   5.604   3.254
37984W        W 4525   5.377  44.154   0.291
37985W        W 4526   8.767   1.060  14.452
37986W        W 4527   7.222  35.624   5.127
37987W        W 4528  40.071  20.576   1.719
37988W        W 4529  21.551  11.279   3.150
37989W        W 4530  15.498  28.192   4.868
37990W        W 4531  21.345   6.790   0.708
37991W        W 4532  25.171  15.748  13.949
37992W        W 4533   9.552  14.889   3.745
37993W        W 4534  32.028  31.888   1.288
37994W        W 4535  26.458  38.650  10.657
37995W        W 4536  29.621  37.551  13.016
37996W        W 4537  23.517  14.111   4.124
37997W        W 4538   6.698  38.090   3.323
37998W        W 4539  24.078   3.212  11.500
37999W        W 4540  23.559  12.641  13.547
38000W        W 4541  41.446   2.057  14.997
38001W        W 4542  32.167  12.361   1.156
38002W        W 4543  10.474  32.101  10.620
38003W        W 4544  27.589  39.946   1.655
38004W        W 4545  14.732  34.485   3.571
38005W        W 4546   0.458  32.914   2.681
38006W        W 4547  22.483  31.912   0.659
38007W        W 4548  11.770  29.591   2.907
38008W        W 4549  37.307  29.682   3.067
38009W        W 4550  31.937  40.010  13.050
38010W        W 4551  22.927   9.765   3.545
38011W        W 4552  27.398  10.307  11.862
38012W        W 4553  25.242  24.525  11.197
38013W        W 4554  10.783   1.314  11.571
38014W        W 4555  31.094  39.858   4.196
38015W        W 4556   0.698   7.696  13.446
38016W        W 4557  14.795  16.491   1.402
38017W        W 4558  21.190   5.932   2.424
38018W        W 4559  24.126  25.302   1.577
38019W        W 4560  28.522   4.271   0.355
38020W        W 4561   5.883  36.850   1.427
38021W        W 4562  42.865   3.889   2.204
38022W        W 4563  33.796  22.191  13.364
38023W        W 4564   0.450  43.956  13.856
38024W        W 4565   1.689  38.386   4.633
38025W        W 4566  28.962  30.440   4.195
38026W        W 4567  21.763  16.205  11.982
38027W        W 4568   3.346   5.937   5.096
38028W        W 4569  32.680  42.619   2.861
38029W        W 4570   2.564   3.763  12.796
38030W        W 4571  20.493  10.868  13.854
38031W        W 4572  40.801   4.004  11.123
38032W        W 4573  12.403  22.977   0.924
38033W        W 4574  11.439  44.430  14.015
38034W        W 4575  25.957  35.995  13.917
38035W        W 4576  15.819  18.886  12.645
38036W        W 4577   9.428   1.921  13.129
38037W        W 4578  26.622  22.614   2.692
38038W        W 4579  34.904   7.316   3.680
38039W        W 4580  15.780  20.518  14.689
38040W        W 4581   3.178  10.287   1.072
38041W        W 4582  33.402   4.946   1.370
38042W        W 4583  25.369  26.432  13.424
38043W        W 4584  30.582  32.787   4.048
38044W        W 4585  36.659   2.168  11.214
38045W        W 4586  13.863  44.797  13.137
38046W        W 4587   5.683  41.420   2.893
38047W        W 4588  21.234  44.637   2.157
38048W        W 4589  39.187   1.439  10.234
38049W        W 4590  18.167   1.850  13.961
38050W        W 4591  40.204  37.469  13.436
38051W        W 4592  21.056  25.561  14.712
38052W        W 4593  10.936  12.429  13.517
38053W        W 4594  41.342  35.984  13.987
38054W        W 4595  17.769  14.199   3.156
38055W        W 4596  42.161  44.473  14.288
38056W        W 4597  11.745  18.053   1.767
38057W        W 4598  42.050  32.870   1.449
38058W        W 4599  35.441  16.531   4.130
38059W        W 4600  34.199  39.172   2.873
38060W        W 4601  36.420  20.936   1.970
38061W        W 4602  21.257   4.678  11.238
38062W        W 4603  33.822  27.427   3.643
38063W        W 4604  11.375   7.933   2.777
38064W        W 4605  29.436  31.864   3.246
38065W        W 4606  12.579  11.226  10.480
38066W        W 4607  23.479   2.524  11.547
38067W        W 4608  23.105  34.930   3.055
38068W        W 4609  20.099   8.265   2.864
38069W        W 4610  41.719   1.068  14.958
38070W        W 4611  38.292  42.581  11.947
38071W        W 4612  22.953  28.696   4.619
38072W        W 4613   4.242   0.139   4.581
38073W        W 4614  14.381  19.791  10.639
38074W        W 4615   6.587  35.658   4.663
38075W        W 4616  18.901   8.246   2.350
38076W        W 4617  13.290  26.219  14.379
38077W        W 4618  34.430   1.580  10.321
38078W        W 4619  27.541  25.597  14.465
38079W        W 4620  19.744   8.857   2.814
38080W        W 4621  39.833  28.466   0.906
38081W        W 4622  25.498   3.322  11.106
38082W        W 4623  33.509  11.287   1.571
38083W        W 4624  15.829  30.491   3.360
38084W        W 4625   3.084   4.840  10.584
38085W        W 4626  39.767   8.831   1.840
38086W        W 4627   3.323  19.383   4.595
38087W        W 4628  27.893   3.296  14.034
38088W        W 4629  33.994  44.805  12.134
38089W        W 4630   6.156   0.566  11.155
38090W        W 4631  42.785  10.898  10.681
38091W        W 4632  16.752   2.552  12.628
38092W        W 4633  30.663  40.250  14.876
38093W        W 4634  35.915  16.709  14.981
38094W        W 4635  17.808  12.286   3.015
38095W        W 4636  14.176  31.752   1.380
38096W        W 4637  28.880  35.551  12.963
38097W        W 4638   9.975  34.939   0.781
38098W        W 4639  25.240  44.365   3.695
38099W        W 4640   8.307   4.057  11.038
38100W        W 4641  37.430  23.349   4.554
38101W        W 4642  41.363  15.707   2.315
38102W        W 4643  27.655  35.573  13.504
38103W        W 4644  14.209   9.782   3.224
38104W        W 4645  29.620  33.193   1.830
38105W        W 4646   2.805  41.567   3.275
38106W        W 4647  17.600  17.521  13.526
38107W        W 4648  13.292  27.478   0.301
38108W        W 4649   5.294   4.888  13.511
38109W        W 4650  43.381  14.917   9.740
38110W        W 4651  35.681  30.480  14.487
38111W        W 4652   0.403  36.325  11.227
38112W        W 4653  32.321  18.408  10.981
38113W        W 4654  10.560   5.885   3.874
38114W        W 4655  40.028  44.263  13.306
38115W        W 4656  18.980  11.298  11.946
38116W        W 4657   7.422   5.834   1.050
38117W        W 4658  25.225  44.286   4.561
38118W        W 4659  18.720  10.752  14.970
38119W        W 4660  25.955  28.620   4.108
38120W        W 4661  23.750  17.064   1.376
38121W        W 4662  27.033  43.784   2.834
38122W        W 4663   4.314   6.587  11.315
38123W        W 4664  35.796  14.370   4.097
38124W        W 4665   6.339   6.348  13.268
38125W        W 4666  34.597  37.032   1.381
38126W        W 4667  36.908  29.181   1.485
38127W        W 4668  33.664  16.272   4.130
38128W        W 4669  12.672  31.141   2.808
38129W        W 4670  20.140   3.905   2.716
38130W        W 4671  17.692  17.612   0.837
38131W        W 4672   9.890  23.237   1.767
38132W        W 4673  16.103  19.322  12.578
38133W        W 4674   0.247  33.604   3.025
38134W        W 4675  31.651  24.647  10.503
38135W        W 4676  10.959   6.106   0.287
38136W        W 4677  20.427   4.779   0.653
38137W        W 4678  32.223  16.637   4.716
38138W        W 4679  10.719  43.569  13.696
38139W        W 4680  33.124  32.687  11.357
38140W        W 4681  13.137  20.141   2.898
38141W        W 4682   0.613  35.818  10.649
38142W        W 4683   5.522  36.148  12.002
38143W        W 4684  28.462  27.599  13.372
38144W        W 4685  19.245  42.941   0.913
38145W        W 4686  31.368  33.555  14.974
38146W        W 4687  13.274   4.708  11.620
38147W        W 4688  43.180   3.068   4.151
38148W        W 4689   2.918  40.807  13.089
38149W        W 4690   3.259  26.268   4.800
38150W        W 4691  44.895  13.958   1.293
38151W        W 4692   5.822  43.177  11.902
38152W        W 4693  43.518  36.734  11.530
38153W        W 4694  12.738  19.808   2.773
38154W        W 4695  33.331  39.061  14.130
38155W        W 4696  26.905  20.278   1.813
38156W        W 4697  35.512  25.828  14.795
38157W        W 4698  10.861  30.679  11.144
38158W        W 4699  31.454  32.329   2.662
38159W        W 4700  28.035  21.120  13.884
38160W        W 4701  10.250  24.743   3.625
38161W        W 4702  41.744   4.304   0.222
38162W        W 4703  43.382   0.987  12.600
38163W        W 4704   7.588  11.245   4.972
38164W        W 4705  35.405   9.483   1.003
38165W        W 4706  12.162   7.681   0.350
38166W        W 4707   3.770  26.671   2.832
38167W        W 4708  26.508   3.858  12.962
38168W        W 4709  32.030   2.643   1.910
38169W        W 4710  31.235  14.906   2.362
38170W        W 4711  34.081   8.314  12.754
38171W        W 4712  18.776  12.670  13.944
38172W        W 4713  28.578  22.759  11.091
38173W        W 4714  39.790  10.774   3.635
38174W        W 4715  24.562  12.802   3.137
38175W        W 4716  21.465  22.151   4.087
38176W        W 4717  19.657  22.421  11.555
38177W        W 4718   1.307  40.557  14.050
38178W        W 4719  41.477  25.473  12.766
38179W        W 4720  36.851   2.769   3.767
38180W        W 4721  22.912  44.246  10.414
38181W        W 4722  42.481  23.498   3.770
38182W        W 4723  19.215  19.757  14.854
38183W        W 4724  21.753   2.390  14.249
38184W        W 4725  15.962  33.920  13.032
38185W        W 4726  35.805  26.110   0.191
38186W        W 4727  25.168   5.656  14.465
38187W        W 4728  10.269  30.468   0.388
38188W        W 4729  19.560  32.124  11.067
38189W        W 4730  20.926  15.978   2.866
38190W        W 4731  23.111   7.750  13.880
38191W        W 4732  14.194  34.964   2.226
38192W        W 4733   9.353   2.098   4.296
38193W        W 4734   5.277  29.064   3.383
38194W        W 4735  26.368  36.908  14.981
38195W        W 4736  13.738  20.152   2.243
38196W        W 4737  14.251  30.685  12.636
38197W        W 4738  34.688  39.915  11.619
38198W        W 4739  29.075  14.403  11.172
38199W        W 4740  19.249  18.119  13.897
38200W        W 4741  43.813  19.562   4.613
38201W        W 4742  41.977  34.836   4.520
38202W        W 4743  33.824  28.445   1.442
38203W        W 4744  34.025   2.725   3.521
38204W        W 4745  20.292   3.029   0.708
38205W        W 4746  42.684  43.023  11.162
38206W        W 4747  33.919   5.953  13.041
38207W        W 4748  27.928   7.717  11.583
38208W        W 4749  17.488  39.625   4.563
38209W        W 4750  39.208  39.511  11.571
38210W        W 4751  31.674  42.739   0.954
38211W        W 4752  32.946  35.645   3.807
38212W        W 4753  38.645   4.430  11.187
38213W        W 4754  35.124  10.825   0.781
38214W        W 4755  30.016  43.085   3.412
38215W        W 4756  37.093   1.485  14.922
38216W        W 4757  27.195  36.112  14.329
38217W        W 4758  44.661   2.831   4.124
38218W        W 4759   2.214  37.607  12.486
38219W        W 4760  40.351   0.808  10.871
38220W        W 4761  10.404  40.539  12.557
38221W        W 4762  44.907  18.220  12.781
38222W        W 4763   8.694  14.456   4.002
38223W        W 4764  33.704  21.553  13.827
38224W        W 4765  29.049  21.939   4.046
38225W        W 4766  42.530   8.976  12.629
38226W        W 4767  22.098   3.920   0.168
38227W        W 4768  32.385   6.339  12.582
38228W        W 4769  37.557  21.121   0.925
38229W        W 4770  36.550  44.270  11.859
38230W        W 4771  41.781  26.857   2.921
38231W        W 4772   7.647   4.449   4.372
38232W        W 4773  24.591  31.701   3.348
38233W        W 4774  12.291   2.484  14.582
38234W        W 4775   9.288   5.889   2.813
38235W        W 4776   3.674   3.619  14.323
38236W        W 4777  23.775  38.165  12.165
38237W        W 4778  12.400  37.023   1.682
38238W        W 4779  14.811   2.591  11.849
38239W        W 4780  28.384   2.209   4.100
38240W        W 4781  38.878  41.409   1.474
38241W        W 4782   2.274  44.854   0.912
38242W        W 4783  17.342  18.991  12.584
38243W        W 4784  30.189  31.972   2.324
38244W        W 4785   9.253  18.304   4.247
38245W        W 4786  41.429  21.219   1.520
38246W        W 4787  38.931  14.891   4.659
38247W        W 4788  25.173  44.623  11.048
38248W        W 4789  28.313   6.580   0.189
38249W        W 4790  21.212  16.939  14.439
38250W        W 4791  44.430  19.221   2.261
38251W        W 4792  42.933   7.661  11.225
38252W        W 4793   6.679  29.078  12.991
38253W        W 4794  38.809  14.447  11.042
38254W        W 4795   3.024   1.792   2.635
38255W        W 4796   3.294  22.692  10.850
38256W        W 4797  41.336  18.165  11.354
38257W        W 4798  21.095  34.800   4.112
38258W        W 4799  22.126   9.143   1.189
38259W        W 4800   7.352   1.883   3.331
38260W        W 4801  18.931  41.375   1.367
38261W        W 4802  41.909  37.735   0.298
38262W        W 4803  25.805   9.267  14.123
38263W        W 4804  39.836   8.093  14.822
38264W        W 4805  41.620   9.280   1.760
38265W        W 4806  24.573  39.787   0.257
38266W        W 4807  30.327  22.106  14.786
38267W        W 4808   5.191  43.238   3.634
38268W        W 4809  15.266  19.770  13.866
38269W        W 4810  44.060  18.138   2.160
38270W        W 4811  32.479   9.304   3.341
38271W        W 4812   7.715   8.169   4.789
38272W        W 4813   9.098  27.655   4.758
38273W        W 4814   0.564  42.773  14.940
38274W        W 4815  40.575   4.847   0.225
38275W        W 4816   9.560  11.023   3.701
38276W        W 4817  38.752  10.680   0.867
38277W        W 4818  31.166  37.087  14.596
38278W        W 4819  26.411   8.272   1.747
38279W        W 4820  20.301  15.654  12.094
38280W        W 4821   5.845  19.656   3.184
38281W        W 4822   0.491  16.094  11.713
38282W        W 4823  29.872  15.239  11.385
38283W        W 4824   8.197  16.312   0.727
38284W        W 4825  26.190  43.612   2.158
38285W        W 4826  15.297  33.973   3.209
38286W        W 4827  41.354  25.849   4.975
38287W        W 4828  38.340   7.207   0.046
38288W        W 4829   3.259  10.754  11.638
38289W        W 4830  35.636  15.336  10.954
38290W        W 4831   2.270   3.948   2.701
38291W        W 4832  14.814   2.666   3.430
38292W        W 4833   9.962  18.134   3.953
38293W        W 4834  26.174  10.667   4.357
38294W        W 4835  18.684  30.709  12.578
38295W        W 4836  14.989   9.334   4.551
38296W        W 4837  28.545  15.894   3.162
38297W        W 4838   5.911  22.291  14.860
38298W        W 4839   6.215  32.125  12.668
38299W        W 4840  44.826  25.174   3.173
38300W        W 4841  39.416  15.497  11.505
38301W        W 4842   1.885  28.933  10.074
38302W        W 4843  16.752  33.593   4.220
38303W        W 4844  11.765   6.824   4.543
38304W        W 4845  36.361  34.932  11.641
38305W        W 4846   9.961   5.672  11.979
38306W        W 4847  13.785  29.345   2.324
38307W        W 4848  33.592  17.746   0.365
38308W        W 4849  32.336  14.277  12.395
38309W        W 4850  26.519   1.778  14.821
38310W        W 4851  16.095  44.826  13.619
38311W        W 4852  17.548  20.925  13.269
38312W        W 4853  34.553   6.380   2.550
38313W        W 4854   4.350  10.427  14.056
38314W        W 4855   6.463  15.409   2.236
38315W        W 4856  39.430   1.188  10.629
38316W        W 4857  30.343  39.536   1.856
38317W        W 4858  20.085  21.677  14.820
38318W        W 4859  41.761   5.036   2.738
38319W        W 4860  11.124  13.885   4.539
38320W        W 4861  20.656   6.762  14.785
38321W        W 4862  10.419  16.496   2.703
38322W        W 4863   0.232  38.854   0.787
38323W        W 4864  39.300   1.879  12.605
38324W        W 4865  16.588   9.310  12.578
38325W        W 4866  21.971  26.164  12.466
38326W        W 4867  40.002  41.508  14.358
38327W        W 4868   6.336   6.384   0.116
38328W        W 4869  34.491  39.085   1.873
38329W        W 4870  35.437  11.548  11.896
38330W        W 4871  18.370  20.047   4.055
38331W        W 4872  33.576   1.007  11.902
38332W        W 4873  22.564   3.984   1.789
38333W        W 4874   2.899  38.380  14.793
38334W        W 4875  22.107  14.875  13.577
38335W        W 4876   8.326  24.536  14.451
38336W        W 4877  38.480  40.880  10.977
38337W        W 4878   2.723  22.713  12.086
38338W        W 4879  26.975  18.732   1.149
38339W        W 4880  15.466  35.473   2.254
38340W        W 4881  11.590  20.730  12.062
38341W        W 4882  38.227   2.004   0.756
38342W        W 4883  22.709  13.251  14.004
38343W        W 4884  19.856  11.678   0.297
38344W        W 4885   4.906  39.771   3.338
38345W        W 4886   9.381  31.584  13.889
38346W        W 4887  20.080  37.868   3.685
38347W        W 4888  12.513  42.337  13.852
38348W        W 4889   9.142  16.126   2.110
38349W        W 4890   2.485  44.195   4.113
38350W        W 4891  29.926   9.099   1.796
38351W        W 4892  21.419   2.033  13.479
38352W        W 4893   3.006  31.963   0.287
38353W        W 4894  43.891  23.703  11.586
38354W        W 4895  40.301   2.681  11.645
38355W        W 4896   7.909  23.730  14.334
38356W        W 4897  34.270  31.767  10.972
38357W        W 4898  38.855  40.587   1.987
38358W        W 4899  38.625  16.701  14.283
38359W        W 4900   0.790  41.316  14.490
38360W        W 4901  29.086   5.836   4.853
38361W        W 4902  36.817  20.127  11.735
38362W        W 4903  30.877  42.837   0.417
38363W        W 4904  30.211   7.856   1.655
38364W        W 4905  39.936   1.416  10.611
38365W        W 4906   3.186   4.267  14.956
38366W        W 4907  32.537  37.594   1.379
38367W        W 4908  21.506  28.502   4.611
38368W        W 4909  38.084  38.879   2.672
38369W        W 4910  37.450  21.994   2.584
38370W        W 4911  15.874  19.069   4.096
38371W        W 4912   0.253  11.264   3.603
38372W        W 4913  40.879  18.670  11.508
38373W        W 4914   3.388  39.190  12.536
38374W        W 4915  31.160  20.216   3.180
38375W        W 4916  10.210   4.468   0.532
38376W        W 4917  33.984  10.824   3.779
38377W        W 4918  10.086   8.255   2.815
38378W        W 4919  23.528  22.076   0.257
38379W        W 4920  29.878   9.446  14.874
38380W        W 4921  25.789  40.518  11.708
38381W        W 4922  16.234  17.241   0.105
38382W        W 4923  44.459  12.279  13.479
38383W        W 4924  29.029  24.714   0.069
38384W        W 4925   3.645   9.239   3.657
38385W        W 4926  38.836  41.755  11.729
38386W        W 4927  15.227  38.675  13.257
38387W        W 4928  19.097  43.578  12.474
38388W        W 4929  25.050   7.469   4.601
38389W        W 4930  33.475  10.804   3.728
38390W        W 4931   1.166  31.932  13.857
38391W        W 4932  25.720   2.872   4.251
38392W        W 4933  32.084   0.389  12.663
38393W        W 4934  26.409  33.578  12.459
38394W        W 4935  38.085  41.729   4.202
38395W        W 4936   7.999  39.023  13.796
38396W        W 4937   7.156  32.095  10.784
38397W        W 4938  16.990  33.560   4.674
38398W        W 4939  43.810  21.160   0.238
38399W        W 4940  27.453  34.947  14.980
38400W        W 4941   7.867   4.436  11.504
38401W        W 4942  23.642  34.659   4.670
38402W        W 4943  44.003  17.348   3.613
38403W        W 4944  39.479  20.235  10.992
38404W        W 4945  36.050  18.925  11.086
38405W        W 4946  24.210  22.341  12.355
38406W        W 4947  23.585  10.395   2.355
38407W        W 4948  28.611  25.880   0.457
38408W        W 4949   4.263  44.561   3.875
38409W        W 4950   8.125   8.184   4.496
38410W        W 4951  15.199   4.809  10.697
38411W        W 4952  38.839  20.624   1.342
38412W        W 4953  30.433  42.069   4.089
38413W        W 4954  19.538  44.533   2.693
38414W        W 4955  25.691  36.495   2.234
38415W        W 4956   1.686  17.592   4.136
38416W        W 4957  24.211  30.914   0.091
38417W        W 4958  31.434  24.089  11.219
38418W        W 4959  37.279  30.576   2.451
38419W        W 4960  35.962  12.976   2.132
38420W        W 4961  16.360  25.817   4.074
38421W        W 4962   1.775  13.318   2.682
38422W        W 4963  10.565  24.171   1.582
38423W        W 4964  25.654  31.589  11.527
38424W        W 4965  35.358  33.261  11.473
38425W        W 4966  20.609  39.328  11.914
38426W        W 4967   3.897  21.885   5.015
38427W        W 4968  18.608   2.329   4.361
38428W        W 4969  14.322  28.511   0.685
38429W        W 4970  17.341  20.223  12.956
38430W        W 4971  35.495  17.621  11.471
38431W        W 4972  21.509  39.414  14.219
38432W        W 4973  18.340   0.522   4.179
38433W        W 4974   0.493  37.507   1.098
38434W        W 4975   0.299  33.076   3.145
38435W        W 4976  29.872   5.295   0.749
38436W        W 4977  12.227  11.819   2.319
38437W        W 4978  29.208   1.643  13.384
38438W        W 4979  38.386  35.825   3.680
38439W        W 4980  40.350  41.137   3.641
38440W        W 4981   6.231  27.159  12.987
38441W        W 4982  18.168  16.376   4.548
38442W        W 4983  27.734   3.953  14.490
38443W        W 4984  38.605   1.852  14.825
38444W        W 4985  20.921  44.917  12.448
38445W        W 4986  13.259  34.243   4.232
38446W        W 4987  34.344  22.818  12.617
38447W        W 4988  15.212   8.667   5.305
38448W        W 4989  41.267   5.175   1.894
38449W        W 4990   5.406  26.926  14.964
38450W        W 4991   9.551  35.783   4.183
38451W        W 4992  36.544  25.640  14.673
38452W        W 4993  22.261   5.945   1.131
38453W        W 4994   1.263  11.866   3.155
38454W        W 4995  34.422  26.491   4.025
38455W        W 4996  39.843   7.584  14.935
38456W        W 4997  37.785   8.315  12.248
38457W        W 4998  26.104  38.928   2.338
38458W        W 4999  29.504  13.216   0.367
38459W        W 5000   1.587  30.045  12.897
38460W        W 5001  12.659  10.223   2.807
38461W        W 5002  35.271  43.750  13.888
38462W        W 5003  17.323  44.680  13.459
38463W        W 5004  20.420  21.249  11.472
38464W        W 5005  44.211  39.115  13.536
38465W        W 5006  16.646  41.258  12.418
38466W        W 5007   4.220  30.644  13.367
38467W        W 5008  32.916  24.613  12.494
38468W        W 5009  15.093  33.724  13.855
38469W        W 5010  23.236  10.733  11.577
38470W        W 5011  32.682  10.697   0.273
38471W        W 5012   7.269   6.338  13.780
38472W        W 5013   9.798  20.693   0.384
38473W        W 5014  37.841   4.501  12.665
38474W        W 5015  28.118  42.990   5.109
38475W        W 5016  33.656  37.993   1.905
38476W        W 5017   6.972  27.638  13.793
38477W        W 5018   6.551  44.726   3.675
38478W        W 5019  20.663   8.376   4.142
38479W        W 5020  19.736  42.914   3.307
38480W        W 5021  25.121  16.041  14.375
38481W        W 5022  33.093  25.176  13.463
38482W        W 5023  29.656  32.072  14.334
38483W        W 5024  28.392   8.204   0.968
38484W        W 5025  20.795  27.295   3.882
38485W        W 5026  33.560   2.054  14.225
38486W        W 5027  41.798  32.392   0.711
38487W        W 5028  14.827  10.746   4.087
38488W        W 5029  14.896  19.200   3.180
38489W        W 5030  15.642  24.390   1.792
38490W        W 5031  41.402  20.146   2.804
38491W        W 5032  35.517  16.306   0.393
38492W        W 5033  10.618  25.471   1.914
38493W        W 5034   8.453  27.121  11.200
38494W        W 5035  27.736  34.635   4.198
38495W        W 5036  43.773  35.142  11.993
38496W        W 5037   5.288  38.885  11.043
38497W        W 5038  16.752  25.972   3.805
38498W        W 5039  15.057  31.469  13.817
38499W        W 5040  20.053   5.503   2.696
38500W        W 5041  37.230  30.250   4.574
38501W        W 5042  10.854  29.540  11.481
38502W        W 5043  16.127  23.936   3.229
38503W        W 5044  44.295  35.028  12.064
38504W        W 5045   4.805  38.985  13.095
38505W        W 5046  24.597   4.829   3.148
38506W        W 5047   3.882  17.059   2.889
38507W        W 5048  11.401  24.434  11.062
38508W        W 5049  13.104  21.526   1.638
38509W        W 5050  10.664   0.793  12.993
38510W        W 5051  30.422   9.061  12.070
38511W        W 5052   7.642  43.571   3.215
38512W        W 5053   9.836  26.553  13.109
38513W        W 5054  16.235  40.448   3.828
38514W        W 5055  43.091  21.540  13.789
38515W        W 5056  38.892  32.559   1.379
38516W        W 5057   5.879  23.804   0.371
38517W        W 5058  22.159   0.746   1.659
38518W        W 5059   9.738  18.156  14.935
38519W        W 5060  41.796   7.800  13.927
38520W        W 5061  11.882  30.909  13.241
38521W        W 5062  32.494  40.896   0.457
38522W        W 5063   7.212  35.890  14.923
38523W        W 5064   8.958  32.540   0.863
38524W        W 5065   8.412  42.418   2.203
38525W        W 5066  15.155  16.049   4.610
38526W        W 5067  41.452   7.696  13.523
38527W        W 5068  42.874  17.570   1.409
38528W        W 5069  18.339   5.480   4.587
38529W        W 5070   4.280  31.542  14.433
38530W        W 5071  17.667  41.086  13.390
38531W        W 5072  41.964  28.940  14.000
38532W        W 5073  17.010  41.285   3.606
38533W        W 5074  22.116   9.303  12.773
38534W        W 5075  11.718  22.202  13.727
38535W        W 5076  24.001  41.109  12.078
38536W        W 5077  15.119  11.714  13.246
38537W        W 5078  34.867  39.825  13.504
38538W        W 5079   6.641  10.113   0.233
38539W        W 5080  13.341  13.571  14.440
38540W        W 5081  19.802  40.731  12.540
38541W        W 5082  28.112  10.344   0.013
38542W        W 5083  36.815  17.570   0.331
38543W        W 5084  15.166  24.694   0.311
38544W        W 5085  10.123  34.930  14.898
38545W        W 5086  25.459  23.329  14.287
38546W        W 5087  25.224  21.518  10.466
38547W        W 5088  35.570  25.585  10.486
38548W        W 5089  12.186  26.590   0.738
38549W        W 5090  10.155  23.673   1.869
38550W        W 5091  37.340  39.063  12.976
38551W        W 5092  23.688  44.504   0.412
38552W        W 5093  12.881   8.044  13.900
38553W        W 5094  24.585  29.954   2.659
38554W        W 5095  19.581  13.263   1.390
38555W        W 5096  21.921  32.481   2.889
38556W        W 5097  41.333   5.195   4.231
38557W        W 5098  24.220  15.784   2.808
38558W        W 5099   7.787  35.819  13.827
38559W        W 5100  18.453   2.156  12.532
38560W        W 5101  38.253  18.894  11.586
38561W        W 5102   7.705  28.841   0.817
38562W        W 5103  44.868  32.106  13.326
38563W        W 5104  17.849  38.447   2.618
38564W        W 5105  43.057  35.662   2.388
38565W        W 5106  21.740  35.907   2.815
38566W        W 5107  10.382  17.735  11.001
38567W        W 5108  38.846  17.398   2.599
38568W        W 5109  16.135  19.754  11.448
38569W        W 5110   2.385   0.395  11.049
38570W        W 5111  24.647   7.107   0.944
38571W        W 5112  14.048  38.741  11.630
38572W        W 5113  30.010  21.241  12.086
38573W        W 5114  16.405   3.857  11.559
38574W        W 5115  18.107  34.079  12.095
38575W        W 5116  29.625   6.218   0.340
38576W        W 5117  15.748  38.969  11.253
38577W        W 5118  26.859  21.700   3.357
38578W        W 5119  31.987  28.189   4.050
38579W        W 5120  41.537  24.860   1.476
38580W        W 5121   5.033  12.952  14.508
38581W        W 5122   4.422  12.001  13.407
38582W        W 5123  37.118  37.998   1.741
38583W        W 5124  43.471  40.360  12.397
38584W        W 5125  16.038  38.935   2.282
38585W        W 5126  11.417  29.749   4.045
38586W        W 5127  21.075  42.382   2.976
38587W        W 5128  26.034  17.743   0.247
38588W        W 5129   1.550   0.753  13.028
38589W        W 5130  33.345  30.556  14.856
38590W        W 5131  30.958  36.871   2.289
38591W        W 5132  36.906  31.035  10.746
38592W        W 5133  15.673   8.942  11.102
38593W        W 5134  31.501  40.872  11.671
38594W        W 5135  18.393  16.707  13.967
38595W        W 5136  35.291  37.692   1.303
38596W        W 5137  16.518  13.604   1.245
38597W        W 5138  27.810  28.909  12.949
38598W        W 5139  34.211  14.100   1.420
38599W        W 5140   6.219   1.730  14.830
38600W        W 5141   5.905   5.122  11.109
38601W        W 5142  10.656  42.522   1.162
38602W        W 5143  37.605  14.221  10.469
38603W        W 5144  18.243  40.792  12.926
38604W        W 5145  12.284   9.674   4.056
38605W        W 5146   7.649  10.949  11.676
38606W        W 5147  19.832  34.444  13.753
38607W        W 5148   8.372   6.807   2.878
38608W        W 5149  39.958  18.319   0.889
38609W        W 5150  37.661   2.851   4.419
38610W        W 5151   9.165  34.073  14.413
38611W        W 5152  10.667  10.235  12.199
38612W        W 5153   0.509   4.015  12.515
38613W        W 5154   8.091  15.815   4.659
38614W        W 5155  29.843   9.173   4.409
38615W        W 5156  40.410  24.980   2.128
38616W        W 5157   8.457  14.292   1.789
38617W        W 5158  31.219  32.407   3.571
38618W        W 5159  24.472  38.530   4.681
38619W        W 5160  10.567  39.077  10.265
38620W        W 5161  12.600  29.166  14.034
38621W        W 5162  39.418   4.952   1.859
38622W        W 5163  41.837  31.002   3.699
38623W        W 5164  37.858  20.582  12.016
38624W        W 5165   5.404   9.338   2.223
38625W        W 5166  18.909   7.403  13.944
38626W        W 5167   7.203  30.927   1.404
38627W        W 5168   8.908  23.431  14.502
38628W        W 5169  41.810  19.413  11.673
38629W        W 5170  42.754  36.371   4.044
38630W        W 5171  38.528  20.797  12.997
38631W        W 5172  10.443   2.522  10.439
38632W        W 5173  30.043  13.742  12.205
38633W        W 5174  43.444   7.182   2.906
38634W        W 5175   9.417  37.800   1.296
38635W        W 5176  21.689  15.567  14.955
38636W        W 5177  17.167  29.982   2.259
38637W        W 5178  35.501   1.907   9.913
38638W        W 5179  35.488   1.326  12.251
38639W        W 5180   4.188  22.991   2.310
38640W        W 5181  35.527  43.228   4.526
38641W        W 5182  15.295  16.042   3.708
38642W        W 5183  33.554  38.145  13.072
38643W        W 5184  11.189  34.973   1.315
38644W        W 5185   0.743  22.512   3.227
38645W        W 5186   7.707  43.429  14.439
38646W        W 5187   6.389  32.453  14.670
38647W        W 5188   9.883  25.241   3.268
38648W        W 5189  18.773   0.523   1.705
38649W        W 5190   2.217  14.711   3.704
38650W        W 5191  44.705   7.715   4.094
38651W        W 5192  11.606  26.670   3.170
38652W        W 5193  42.075  13.306  13.477
38653W        W 5194   8.133  41.536  12.404
38654W        W 5195  20.358  28.760  11.166
38655W        W 5196  41.464   9.519   3.642
38656W        W 5197  16.087  27.817  14.355
38657W        W 5198   9.794  37.008   2.351
38658W        W 5199  34.984  23.563  12.193
38659W        W 5200   5.840  16.717  12.986
38660W        W 5201  19.480   6.484   2.370
38661W        W 5202  20.092  27.817   3.674
38662W        W 5203  13.185  39.166  10.293
38663W        W 5204  26.230  17.289   3.156
38664W        W 5205  12.950   3.683   4.211
38665W        W 5206  30.383  21.654  10.776
38666W        W 5207   9.849  18.663  14.131
38667W        W 5208  23.081  30.617  10.396
38668W        W 5209  29.656  19.162   1.817
38669W        W 5210  12.847  30.648   2.848
38670W        W 5211  26.748   6.480  12.510
38671W        W 5212  30.589   4.777  14.873
38672W        W 5213  23.660   7.360   2.909
38673W        W 5214  15.646  16.532  14.031
38674W        W 5215  26.481   8.312   4.746
38675W        W 5216  31.622  35.820   1.973
38676W        W 5217   2.062  24.734  13.797
38677W        W 5218  21.489   6.795   3.900
38678W        W 5219   5.338  39.354  11.268
38679W        W 5220   1.247  26.489  14.423
38680W        W 5221   1.695   5.178   0.125
38681W        W 5222  26.672   6.613  11.113
38682W        W 5223  35.564  17.259   2.058
38683W        W 5224   0.317  24.077   3.528
38684W        W 5225  23.079  39.999  12.529
38685W        W 5226  24.247  39.322   1.820
38686W        W 5227  16.351  37.076   0.655
38687W        W 5228  14.763  13.523   4.196
38688W        W 5229  40.301   3.816  13.584
38689W        W 5230  10.109  10.490  13.506
38690W        W 5231  20.975  40.980  13.500
38691W        W 5232   8.594  44.522   3.261
38692W        W 5233  17.232  23.044   3.555
38693W        W 5234  10.656  13.732  13.886
38694W        W 5235  42.971  38.580   1.441
38695W        W 5236  35.036   3.923   3.112
38696W        W 5237  36.289  36.863  14.855
38697W        W 5238  20.619  42.465  12.157
38698W        W 5239  37.177  28.443   3.104
38699W        W 5240  23.893  15.639   1.410
38700W        W 5241   6.833  18.025  14.064
38701W        W 5242  25.310  19.374  11.125
38702W        W 5243  20.820  18.638  12.831
38703W        W 5244  12.317  33.789   4.098
38704W        W 5245  41.952  10.092   4.156
38705W        W 5246  12.562  33.323   0.241
38706W        W 5247  16.926  29.168   3.698
38707W        W 5248  28.047  25.509   2.343
38708W        W 5249  34.132  15.149  10.587
38709W        W 5250  39.440  27.747  11.580
38710W        W 5251  27.906  31.665  12.657
38711W        W 5252  25.935  16.875   3.278
38712W        W 5253  22.085  33.030  14.420
38713W        W 5254   9.560  18.216  14.076
38714W        W 5255   1.961  32.690   4.412
38715W        W 5256  22.701   9.740   1.703
38716W        W 5257  36.804   2.546   3.216
38717W        W 5258  27.750  14.829  13.947
38718W        W 5259   0.637  36.543   4.726
38719W        W 5260  31.491   5.975   1.227
38720W        W 5261  27.155  31.673   3.747
38721W        W 5262  30.979  11.761  12.487
38722W        W 5263  23.244  27.161  13.619
38723W        W 5264   2.781  43.240   2.342
38724W        W 5265  34.665  34.009  12.625
38725W        W 5266  23.869  16.812  12.974
38726W        W 5267  37.528   7.671  10.782
38727W        W 5268  43.512  25.924   1.256
38728W        W 5269   7.473   3.343  14.921
38729W        W 5270  29.095   3.154  13.302
38730W        W 5271  25.507  37.591   1.717
38731W        W 5272  36.086  27.715   3.417
38732W        W 5273  21.013  44.285   0.506
38733W        W 5274  14.536  23.147   4.124
38734W        W 5275  43.516  26.074  11.143
38735W        W 5276  15.149  33.514  10.583
38736W        W 5277  12.885  17.062  14.648
38737W        W 5278  40.331  44.510  11.483
38738W        W 5279   1.708   5.488   4.566
38739W        W 5280   0.636   6.460   3.613
38740W        W 5281  42.323  26.086  11.775
38741W        W 5282  36.609  15.658  12.941
38742W        W 5283   8.614  29.003   2.201
38743W        W 5284   4.291   7.320  12.403
38744W        W 5285  11.608   5.915  12.618
38745W        W 5286  37.123   2.897  14.850
38746W        W 5287  17.537  25.696  12.000
38747W        W 5288  25.441  20.737   4.227
38748W        W 5289   2.503   0.230  13.502
38749W        W 5290   4.128  41.555  14.772
38750W        W 5291  40.444  33.965   0.234
38751W        W 5292  18.567  33.549   1.681
38752W        W 5293  36.363  41.502   2.297
38753W        W 5294   1.554  10.639   2.885
38754W        W 5295  40.533  20.322   2.196
38755W        W 5296  26.840  33.959   5.200
38756W        W 5297  10.368  44.810   4.587
38757W        W 5298  27.936   8.164   1.197
38758W        W 5299  10.380  41.837   0.037
38759W        W 5300  20.721  21.669   2.990
38760W        W 5301  40.444  34.425   4.150
38761W        W 5302  28.919  23.449  11.629
38762W        W 5303  18.965  41.942   3.679
38763W        W 5304  36.439  12.334  13.520
38764W        W 5305  32.433   4.154   0.091
38765W        W 5306  33.862  12.339   3.409
38766W        W 5307  20.234  37.078   1.816
38767W        W 5308   4.389  30.493  14.933
38768W        W 5309  15.396  41.432  10.626
38769W        W 5310  10.265  10.271   1.150
38770W        W 5311  18.156  11.318   4.043
38771W        W 5312  27.474   3.800   0.427
38772W        W 5313   4.072   8.706  13.352
38773W        W 5314   7.681   2.838  14.405
38774W        W 5315  28.925  28.168   1.952
38775W        W 5316  24.397  21.207   1.290
38776W        W 5317  28.934  42.936  13.418
38777W        W 5318   8.165   3.937   1.823
38778W        W 5319  21.936  26.539   3.109
38779W        W 5320  40.885  41.905   4.653
38780W        W 5321   8.310  33.135  12.922
38781W        W 5322   8.117  42.244   3.232
38782W        W 5323  13.157  21.332  14.207
38783W        W 5324   5.774  26.704  10.839
38784W        W 5325  22.625  29.029   0.581
38785W        W 5326   5.656  28.737   3.600
38786W        W 5327  12.340  24.942  12.427
38787W        W 5328  20.518  16.200  13.015
38788W        W 5329  33.340  38.002  12.632
38789W        W 5330  35.525  44.663  13.939
38790W        W 5331   5.917  19.781  11.427
38791W        W 5332  25.913  31.154  11.913
38792W        W 5333  20.118   5.714  13.829
38793W        W 5334  36.053   1.662   1.772
38794W        W 5335  13.825  30.471   0.741
38795W        W 5336  40.599  16.336  12.626
38796W        W 5337   9.375  34.089   2.719
38797W        W 5338   0.762  34.826  10.991
38798W        W 5339   5.878  13.242  12.003
38799W        W 5340  38.093  18.132  13.299
38800W        W 5341   9.815   3.925   2.299
38801W        W 5342   6.784  31.760   4.252
38802W        W 5343  44.768  34.359   4.103
38803W        W 5344   9.679  26.669   4.249
38804W        W 5345  24.522   7.596  11.772
38805W        W 5346   9.458  31.235  12.172
38806W        W 5347  18.490  32.581  13.972
38807W        W 5348  35.753  34.546  13.460
38808W        W 5349  31.959  39.958  10.677
38809W        W 5350  26.851  32.720   1.557
38810W        W 5351  28.163  30.605  10.685
38811W        W 5352  34.989  43.246  10.738
38812W        W 5353  32.547  28.585  13.468
38813W        W 5354  17.112  30.683  13.559
38814W        W 5355  22.215  33.875   3.262
38815W        W 5356  43.249   5.803   2.789
38816W        W 5357   0.529   9.909  11.656
38817W        W 5358  19.481  41.234   2.257
38818W        W 5359   0.896  35.576  11.227
38819W        W 5360  11.144  34.027   3.242
38820W        W 5361  29.716  27.067   2.378
38821W        W 5362  16.401  18.068  14.082
38822W        W 5363   4.584  11.316   3.541
38823W        W 5364   9.674   3.204  13.559
38824W        W 5365  36.709  37.215  12.485
38825W        W 5366  37.924  43.302   0.944
38826W        W 5367   9.055  44.358  12.451
38827W        W 5368  39.855  16.447  14.959
38828W        W 5369   6.901  23.761  10.750
38829W        W 5370  16.809  38.183  12.985
38830W        W 5371  24.940   8.666  12.999
38831W        W 5372  27.592  42.007   0.849
38832W        W 5373   1.748  40.812  12.949
38833W        W 5374  36.921  27.180  14.843
38834W        W 5375  11.352  16.302  11.200
38835W        W 5376  38.546  22.205  10.880
38836W        W 5377  25.605  30.175   2.371
38837W        W 5378   5.972  27.058   1.828
38838W        W 5379  37.479  16.292   1.265
38839W        W 5380  39.550  25.687   0.832
38840W        W 5381  19.211  29.999  14.229
38841W        W 5382  14.821  12.648   3.654
38842W        W 5383  22.710  30.538  13.822
38843W        W 5384  23.771  40.371  14.041
38844W        W 5385  31.820  30.020   1.445
38845W        W 5386   5.843  26.659   2.332
38846W        W 5387  19.093  25.184  14.075
38847W        W 5388  33.478   5.693  12.133
38848W        W 5389  39.142  26.953   1.245
38849W        W 5390  18.595  21.945   2.791
38850W        W 5391  28.799  24.193  13.576
38851W        W 5392  37.300   7.935   0.832
38852W        W 5393  17.320  37.810  12.589
38853W        W 5394   2.605   4.333  14.064
38854W        W 5395  23.887  12.855   0.926
38855W        W 5396  43.636  37.397   4.243
38856W        W 5397  22.315  22.510   4.508
38857W        W 5398  32.448   6.788   4.367
38858W        W 5399  15.556  16.527   1.749
38859W        W 5400  29.332  26.006  11.046
38860W        W 5401   6.156  15.619   2.939
38861W        W 5402  27.914  29.421   3.698
38862W        W 5403  32.063   1.820  13.457
38863W        W 5404  39.445  39.377  12.429
38864W        W 5405  10.092   0.372  14.209
38865W        W 5406  26.688   7.495   4.140
38866W        W 5407  34.451  42.557  13.007
38867W        W 5408  15.724   2.280   2.400
38868W        W 5409   1.349  15.303   3.209
38869W        W 5410  38.896  39.481   3.605
38870W        W 5411  19.108  24.244  11.619
38871W        W 5412  28.127  12.617  10.570
38872W        W 5413   8.794  24.025   1.053
38873W        W 5414  19.887  26.735   4.397
38874W        W 5415   5.446  21.040   2.405
38875W        W 5416   6.420  29.664   2.758
38876W        W 5417  13.264   4.444   4.118
38877W        W 5418  31.113  12.184  11.435
38878W        W 5419  13.911   3.841  12.312
38879W        W 5420   3.932  38.431  14.562
38880W        W 5421  32.315  10.456  11.189
38881W        W 5422  17.061  22.812   2.218
38882W        W 5423   5.609  18.696  12.634
38883W        W 5424   0.461   8.882   3.135
38884W        W 5425  39.073  11.070   0.745
38885W        W 5426  28.761  27.560  12.940
38886W        W 5427   6.202  10.090  14.266
38887W        W 5428  17.628  14.717   3.211
38888W        W 5429   3.524  41.281  11.595
38889W        W 5430  33.022   5.578  12.368
38890W        W 5431  17.318  38.775   2.679
38891W        W 5432  41.898   5.559  14.683
38892W        W 5433  31.973  38.316   1.404
38893W        W 5434  28.693  20.579   2.816
38894W        W 5435  22.845  23.349  10.185
38895W        W 5436  40.094   6.639  14.293
38896W        W 5437  18.283   9.719  14.228
38897W        W 5438   4.794  27.940  10.432
38898W        W 5439  44.484  37.590   3.179
38899W        W 5440  19.340  41.641   3.927
38900W        W 5441  23.749  16.592   0.366
38901W        W 5442  24.678  15.619   3.549
38902W        W 5443  14.989  36.396  10.677
38903W        W 5444   9.895   9.096   2.537
38904W        W 5445  11.642  21.759  11.903
38905W        W 5446  37.988   7.397   4.167
38906W        W 5447  42.541   3.869   4.934
38907W        W 5448  39.852  31.878   3.626
38908W        W 5449  20.607   8.244  12.642
38909W        W 5450  39.272  27.884   3.883
38910W        W 5451  14.092   6.385  14.777
38911W        W 5452   7.842  25.932   0.665
38912W        W 5453  36.380  37.429  13.387
38913W        W 5454  30.094  26.497  14.365
38914W        W 5455  11.237   1.777   0.939
38915W        W 5456   9.007  30.235  12.159
38916W        W 5457   2.834   9.934   4.237
38917W        W 5458   1.864  13.884   0.499
38918W        W 5459   1.325  34.066   5.578
38919W        W 5460   0.347  41.388   4.286
38920W        W 5461   0.361  35.954   3.559
38921W        W 5462  42.883  11.412  12.700
38922W        W 5463  43.427  25.739  12.385
38923W        W 5464  32.661  26.485   2.148
38924W        W 5465  42.426  33.191   0.176
38925W        W 5466  31.130   7.926  14.807
38926W        W 5467  33.863  33.318  10.675
38927W        W 5468  25.094  32.823  13.843
38928W        W 5469  36.302   1.495  11.589
38929W        W 5470  33.584   8.988   1.819
38930W        W 5471   4.963  35.496  10.773
38931W        W 5472  12.182  22.234  11.900
38932W        W 5473  10.853  38.025  11.000
38933W        W 5474  23.648   5.752  12.559
38934W        W 5475   0.061   7.217  11.381
38935W        W 5476   7.683  36.147  13.365
38936W        W 5477  12.280  29.534   2.958
38937W        W 5478  41.598  39.441  14.230
38938W        W 5479  22.059   2.711  11.141
38939W        W 5480  38.854   0.719   2.782
38940W        W 5481   3.638  43.944  11.015
38941W        W 5482   9.102   6.917  11.876
38942W        W 5483  21.044  32.553  10.429
38943W        W 5484  19.205  35.152   2.299
38944W        W 5485   1.184   9.836  12.643
38945W        W 5486  21.499  33.950   3.833
38946W        W 5487   4.321  24.708  12.019
38947W        W 5488   1.199  18.057  13.979
38948W        W 5489   8.289  35.451   4.279
38949W        W 5490   3.578  10.689  12.020
38950W        W 5491  32.277  25.267  14.450
38951W        W 5492  22.284   5.260  13.966
38952W        W 5493  22.028  43.315   3.600
38953W        W 5494  16.741  21.158   3.729
38954W        W 5495  44.218   6.706   1.144
38955W        W 5496  43.574   9.094   1.449
38956W        W 5497  40.345  11.341  13.948
38957W        W 5498  36.623  42.112  11.492
38958W        W 5499   9.396   1.228   2.820
38959W        W 5500  34.510  14.074   1.909
38960W        W 5501  40.125  38.733   0.983
38961W        W 5502  18.738  20.240   4.395
38962W        W 5503  23.203  14.179   2.297
38963W        W 5504   5.221   0.850  11.191
38964W        W 5505  20.240   7.752  11.674
38965W        W 5506   0.413  10.413  12.962
38966W        W 5507  18.342   1.546  13.427
38967W        W 5508  37.660   0.961   4.199
38968W        W 5509  44.331  30.111  10.788
38969W        W 5510   5.314  25.788   0.911
38970W        W 5511   3.850  44.360   3.152
38971W        W 5512  19.271  32.780   0.676
38972W        W 5513   1.800  41.790  12.929
38973W        W 5514  32.768  26.991  12.486
38974W        W 5515  12.581  24.625   2.376
38975W        W 5516  14.856  11.940  14.997
38976W        W 5517  24.980  20.716  14.015
38977W        W 5518  36.069  43.952   2.294
38978W        W 5519  30.856   5.089   0.691
38979W        W 5520  38.825  35.027   4.504
38980W        W 5521   3.388  22.201  10.554
38981W        W 5522  28.255  41.019   2.314
38982W        W 5523  11.912  33.934  13.033
38983W        W 5524  39.721  11.771   3.178
38984W        W 5525  23.761  13.884  13.460
38985W        W 5526  29.088  23.022   3.612
38986W        W 5527  14.248   3.634   3.764
38987W        W 5528  25.596  40.762  11.297
38988W        W 5529  14.231  14.997  12.658
38989W        W 5530  42.561  15.691   2.904
38990W        W 5531  19.240  31.589  11.654
38991W        W 5532   1.921  14.663   3.286
38992W        W 5533  16.491   9.924  14.041
38993W        W 5534  21.448   2.956  11.553
38994W        W 5535  13.231  24.514   0.320
38995W        W 5536  24.225  40.598   1.317
38996W        W 5537  42.497   1.353   0.220
38997W        W 5538  27.151  38.099   1.304
38998W        W 5539  34.078  34.366   0.891
38999W        W 5540  40.776  19.076   1.941
39000W        W 5541  29.060  27.577  14.348
39001W        W 5542  27.017  31.232   3.496
39002W        W 5543  29.973  11.623  12.558
39003W        W 5544   0.701  35.653   0.132
39004W        W 5545  40.028  21.166  14.734
39005W        W 5546  30.114  14.880   4.171
39006W        W 5547  13.655   1.713  14.872
39007W        W 5548  28.604  38.658  11.968
39008W        W 5549  30.570  10.183   2.785
39009W        W 5550  27.854  21.225   4.081
39010W        W 5551   8.764  38.903   1.819
39011W        W 5552   5.765  19.074  13.930
39012W        W 5553   4.764  10.161  14.319
39013W        W 5554  25.308  14.326  14.935
39014W        W 5555   7.541  17.758   3.931
39015W        W 5556   0.484   7.273  12.616
39016W        W 5557   8.214  36.728   0.292
39017W        W 5558   5.418  14.074  13.112
39018W        W 5559   7.199   4.289   1.718
39019W        W 5560  10.415  16.061  10.750
39020W        W 5561  42.258   5.753  14.039
39021W        W 5562   7.173  41.538  11.457
39022W        W 5563  38.644  37.418  10.759
39023W        W 5564  38.791   5.666   3.681
39024W        W 5565  11.464  11.304   3.797
39025W        W 5566   0.556  42.201   1.236
39026W        W 5567  37.894  10.195   4.458
39027W        W 5568  36.314   0.244   0.919
39028W        W 5569  22.905  35.122  12.445
39029W        W 5570  28.511  20.287  14.810
39030W        W 5571  24.241  21.480  13.895
39031W        W 5572  33.587   8.215  12.189
39032W        W 5573  19.829  22.678   3.207
39033W        W 5574   5.233  38.408  12.561
39034W        W 5575  22.540  40.527  11.358
39035W        W 5576   7.926  31.711  10.577
39036W        W 5577  21.094  15.450   3.728
39037W        W 5578  10.100  22.250   0.357
39038W        W 5579  28.615  38.844  14.628
39039W        W 5580  36.204   3.978   4.078
39040W        W 5581  32.400  33.990   2.822
39041W        W 5582   1.869   7.857  12.599
39042W        W 5583   8.971  44.292   4.167
39043W        W 5584  36.761  19.693   2.911
39044W        W 5585  37.258  16.847  10.640
39045W        W 5586   8.331  11.442   4.289
39046W        W 5587  35.008  34.924  12.120
39047W        W 5588  36.323   3.777   3.201
39048W        W 5589  19.291  33.105   3.331
39049W        W 5590  32.170  22.780   0.607
39050W        W 5591   1.887  16.278   0.657
39051W        W 5592  17.278  18.650  14.900
39052W        W 5593  10.533  24.239  11.350
39053W        W 5594  32.421  23.462  13.994
39054W        W 5595  37.466  38.573   1.836
39055W        W 5596  10.689  44.176  14.520
39056W        W 5597   1.770  24.619  14.781
39057W        W 5598  24.069  40.604  12.144
39058W        W 5599  33.061   4.044  14.229
39059W        W 5600  29.814  43.949  12.011
39060W        W 5601  43.513   1.376  14.504
39061W        W 5602  20.138  33.692  14.078
39062W        W 5603  16.358  42.138  13.154
39063W        W 5604  26.210   7.281  11.725
39064W        W 5605  41.929  31.609  14.442
39065W        W 5606  13.067  26.480   0.428
39066W        W 5607  43.347  34.537   4.427
39067W        W 5608   0.454  24.796  13.046
39068W        W 5609  12.106  31.635   1.415
39069W        W 5610   5.874  33.350   4.129
39070W        W 5611  35.106  42.733  14.018
39071W        W 5612  27.659   1.706   3.606
39072W        W 5613  22.986  25.753   3.369
39073W        W 5614   6.327  22.980   0.388
39074W        W 5615  28.053  25.313  11.628
39075W        W 5616  44.457   4.891  14.462
39076W        W 5617   4.741  31.190  12.615
39077W        W 5618  29.715   8.174   3.205
39078W        W 5619  31.591  35.328  11.143
39079W        W 5620  44.462  30.827  13.297
39080W        W 5621  11.697  24.236   0.001
39081W        W 5622   9.695   6.387  10.722
39082W        W 5623   7.986  24.479   2.709
39083W        W 5624  13.930  10.772  11.467
39084W        W 5625  44.281  19.726  11.362
39085W        W 5626  13.242   4.989   3.359
39086W        W 5627  11.715   3.693   2.618
39087W        W 5628   3.813  41.430   0.971
39088W        W 5629   3.150  23.554  13.995
39089W        W 5630  18.247  22.207  12.382
39090W        W 5631  21.200  25.160  12.226
39091W        W 5632  41.589  37.919  14.887
39092W        W 5633  34.724  30.250   0.449
39093W        W 5634  10.059   1.390   5.241
39094W        W 5635  12.420  20.054  11.178
39095W        W 5636   3.384  44.469   4.607
39096W        W 5637  40.055  28.841   4.093
39097W        W 5638  43.905   8.862   1.832
39098W        W 5639  15.099  11.650  11.446
39099W        W 5640  29.431  20.148  12.614
39100W        W 5641  40.999  41.485   2.880
39101W        W 5642  12.803  18.232   0.853
39102W        W 5643  44.159  23.433   3.202
39103W        W 5644  20.742  36.884   3.600
39104W        W 5645  22.520  38.095   4.658
39105W        W 5646   1.780  12.687   0.898
39106W        W 5647  16.962  11.321   4.284
39107W        W 5648  34.077  21.954  12.049
39108W        W 5649  20.669  34.324   3.576
39109W        W 5650  42.373  27.716   1.805
39110W        W 5651  26.229  25.694   0.901
39111W        W 5652   4.172  22.667   0.501
39112W        W 5653  25.845   6.492   1.031
39113W        W 5654  10.323  44.734  11.994
39114W        W 5655   7.674  12.859  11.170
39115W        W 5656  27.723  18.017   1.347
39116W        W 5657  24.502  19.477  14.728
39117W        W 5658  32.830  17.097  11.119
39118W        W 5659   2.687  38.431  10.730
39119W        W 5660   5.032  22.940  13.912
39120W        W 5661  21.514  19.860   4.763
39121W        W 5662  18.784  36.634  11.705
39122W        W 5663  40.303  12.029   2.277
39123W        W 5664   1.937   6.944   1.610
39124W        W 5665  16.125  22.228   0.828
39125W        W 5666  13.798   0.885  13.882
39126W        W 5667  34.103  20.151  13.963
39127W        W 5668  42.495  12.897   2.656
39128W        W 5669  12.799  28.854  14.429
39129W        W 5670   7.607   1.335   3.333
39130W        W 5671  33.677   5.486  10.693
39131W        W 5672   3.135   5.280   0.154
39132W        W 5673   6.836  33.562   3.950
39133W        W 5674  18.819  44.887   3.654
39134W        W 5675   7.826  44.473   0.403
39135W        W 5676   6.303  24.274   0.950
39136W        W 5677  22.780  37.137  13.348
39137W        W 5678  22.496  36.282   4.082
39138W        W 5679  15.336  30.156  10.664
39139W        W 5680  11.842  32.677  13.444
39140W        W 5681  34.642   4.265   1.446
39141W        W 5682   1.418   6.107   2.778
39142W        W 5683  14.016  24.118  13.280
39143W        W 5684   8.343   1.020  11.048
39144W        W 5685  32.395  19.753  11.156
39145W        W 5686  35.599  38.324   3.268
39146W        W 5687  28.661  34.896   2.211
39147W        W 5688   5.421  42.990   1.961
39148W        W 5689  44.195   7.238   0.041
39149W        W 5690  26.133  37.443   2.272
39150W        W 5691  16.639  40.323   4.746
39151W        W 5692   5.483  43.204   0.679
39152W        W 5693  41.982  30.095   4.038
39153W        W 5694  41.622  38.910  11.701
39154W        W 5695  17.291  26.505  12.873
39155W        W 5696  14.447  40.279  12.881
39156W        W 5697  44.943  13.812   3.191
39157W        W 5698  37.968  28.319  14.017
39158W        W 5699   7.819  29.554   0.896
39159W        W 5700  19.186   7.126   2.326
39160W        W 5701   8.255  29.956  14.164
39161W        W 5702   9.081  43.957   4.611
39162W        W 5703  24.092  13.465  12.516
39163W        W 5704  29.004   8.218  12.206
39164W        W 5705  32.761  42.820   3.342
39165W        W 5706   5.451  33.955   1.413
39166W        W 5707  38.435  41.604  11.234
39167W        W 5708   3.768  32.134  13.955
39168W        W 5709  36.368  10.258   1.709
39169W        W 5710  44.605   0.003  12.098
39170W        W 5711  29.167  15.618  11.574
39171W        W 5712  11.201  15.883  12.609
39172W        W 5713  15.590  17.709   1.668
39173W        W 5714  39.046  36.150  14.317
39174W        W 5715   2.375  15.028  11.701
39175W        W 5716  41.314   2.701   0.814
39176W        W 5717  33.150  34.043   2.333
39177W        W 5718  15.470  36.092   4.867
39178W        W 5719  15.142  30.701  13.158
39179W        W 5720  32.862  44.489   2.421
39180W        W 5721  24.719  22.249  10.605
39181W        W 5722  17.677   9.821  10.390
39182W        W 5723  33.626  25.266   3.229
39183W        W 5724  34.571   6.811   0.465
39184W        W 5725  24.629  19.949  12.975
39185W        W 5726  14.850  26.911  13.300
39186W        W 5727  10.642  31.836  12.685
39187W        W 5728  15.743  26.182  13.335
39188W        W 5729   6.916   6.826  10.744
39189W        W 5730  36.538  13.654   1.258
39190W        W 5731  34.854   7.645  12.073
39191W        W 5732   6.782   6.472  11.625
39192W        W 5733  25.268   8.828   2.855
39193W        W 5734   3.397  17.660  12.495
39194W        W 5735   8.542  10.096  13.039
39195W        W 5736  28.151   0.282  12.935
39196W        W 5737   7.677  11.853   5.145
39197W        W 5738  21.301  10.340  12.623
39198W        W 5739  32.024   4.447   0.799
39199W        W 5740  36.118   6.364  14.926
39200W        W 5741  11.648  26.249   4.350
39201W        W 5742  10.124  35.901  10.691
39202W        W 5743   5.034  22.097  14.424
39203W        W 5744  21.700  10.922  10.588
39204W        W 5745  27.590  41.340  12.866
39205W        W 5746  24.593  27.173  11.481
39206W        W 5747  32.540  23.664  13.410
39207W        W 5748  31.236  15.332  13.743
39208W        W 5749  31.051   6.966   0.329
39209W        W 5750  16.800  18.798  13.961
39210W        W 5751  32.576  44.827   4.223
39211W        W 5752  32.254  33.158   1.677
39212W        W 5753  44.195  23.358  13.531
39213W        W 5754  35.011  34.521   4.560
39214W        W 5755   7.229  27.933  13.073
39215W        W 5756   6.925  43.357  12.305
39216W        W 5757   7.785   7.804   4.395
39217W        W 5758  37.246  12.600   4.070
39218W        W 5759  31.643   0.096  13.261
39219W        W 5760  19.156  28.219   3.612
39220W        W 5761  22.011  16.830  10.263
39221W        W 5762  12.217  30.795   3.696
39222W        W 5763   8.251  13.278   4.905
39223W        W 5764   9.856  32.152   0.782
39224W        W 5765  25.484  29.447   4.547
39225W        W 5766  32.118  24.593  10.695
39226W        W 5767  35.012  13.194  11.486
39227W        W 5768  41.081  42.881   4.539
39228W        W 5769   5.948  34.463   1.825
39229W        W 5770  21.052   4.647  13.012
39230W        W 5771  20.275  15.098  10.025
39231W        W 5772  35.437  14.702   3.888
39232W        W 5773  32.695  14.740  10.765
39233W        W 5774  16.715  30.445   3.427
39234W        W 5775  14.955  13.210  13.811
39235W        W 5776  24.438   3.606   0.976
39236W        W 5777  26.192  33.630   3.602
39237W        W 5778  28.631  26.078   1.816
39238W        W 5779   2.488  13.822   1.331
39239W        W 5780  19.378   5.344  11.105
39240W        W 5781   0.273  10.631   2.770
39241W        W 5782  43.009  31.019   1.381
39242W        W 5783   1.357  24.703  11.553
39243W        W 5784  22.542  35.613  14.582
39244W        W 5785  18.673  23.717  13.347
39245W        W 5786  28.218  30.987   0.851
39246W        W 5787  21.071  10.847   4.585
39247W        W 5788  10.596  38.881   1.744
39248W        W 5789  12.273   6.220   2.911
39249W        W 5790  42.039  24.570  13.382
39250W        W 5791  22.503   4.336   4.073
39251W        W 5792  28.337  36.942  14.761
39252W        W 5793   8.758  17.539   1.809
39253W        W 5794  13.557   7.611  11.262
39254W        W 5795  22.189  25.327   3.681
39255W        W 5796   6.114   7.469  11.237
39256W        W 5797  18.136  31.396  10.728
39257W        W 5798  17.736  20.660   1.784
39258W        W 5799  11.714  36.293   3.676
39259W        W 5800   8.799  43.359   4.047
39260W        W 5801  18.999  25.081   1.993
39261W        W 5802  21.266  17.877  14.325
39262W        W 5803  18.749   6.269   4.097
39263W        W 5804   0.463   1.029  12.514
39264W        W 5805  35.654  38.548  12.363
39265W        W 5806  31.730  34.592  11.507
39266W        W 5807  27.406   4.677   2.355
39267W        W 5808  28.150  19.368  10.511
39268W        W 5809   5.266  34.191   0.438
39269W        W 5810  18.576  25.145  14.247
39270W        W 5811   6.903  23.779  13.523
39271W        W 5812  42.773  32.465   3.789
39272W        W 5813  41.995  33.892   1.232
39273W        W 5814   8.546   8.402   0.004
39274W        W 5815  32.434  28.194  11.995
39275W        W 5816  35.054  25.249  13.006
39276W        W 5817  16.934  28.124  14.449
39277W        W 5818   4.535   3.684   0.405
39278W        W 5819   1.427  13.216  11.175
39279W        W 5820  30.286   3.178  13.488
39280W        W 5821  19.760  22.542  12.998
39281W        W 5822  13.104  13.531   2.833
39282W        W 5823  27.277  21.084   4.144
39283W        W 5824  32.551  35.985   4.010
39284W        W 5825   4.446  38.338  14.399
39285W        W 5826  33.920  33.386  13.884
39286W        W 5827  44.945   3.305  12.145
39287W        W 5828  15.896   8.723  11.552
39288W        W 5829  24.178  41.083   3.131
39289W        W 5830  10.144   5.762   4.143
39290W        W 5831   5.391  33.149   4.058
39291W        W 5832   5.352  29.110   1.282
39292W        W 5833   6.666  26.751  12.397
39293W        W 5834  44.593  40.321   4.484
39294W        W 5835  29.017   3.008  12.069
39295W        W 5836  25.929  11.672  11.118
39296W        W 5837  28.261  44.144   5.010
39297W        W 5838   2.435  34.672  11.072
39298W        W 5839  38.376  29.521   4.634
39299W        W 5840   5.418  32.514  14.935
39300W        W 5841   5.264  32.827  12.879
39301W        W 5842  24.481   2.779   0.659
39302W        W 5843   3.451  11.829  12.892
39303W        W 5844  42.567  14.429  12.395
39304W        W 5845  22.185  25.974  13.349
39305W        W 5846   7.263  37.171   3.371
39306W        W 5847  11.594   1.381  12.186
39307W        W 5848  12.412  28.622  11.844
39308W        W 5849  21.099  33.344   1.642
39309W        W 5850   4.086  13.082  12.551
39310W        W 5851   2.318  22.777  12.864
39311W        W 5852  28.727  34.326  11.074
39312W        W 5853   6.615  15.989   0.579
39313W        W 5854   2.888  29.078  10.908
39314W        W 5855   3.076  28.623  11.063
39315W        W 5856  29.538  16.132  13.023
39316W        W 5857  18.210  17.277   3.074
39317W        W 5858  19.200  23.109  14.933
39318W        W 5859  12.736  39.041  13.803
39319W        W 5860   4.693  19.134   2.255
39320W        W 5861  33.281  42.449   0.308
39321W        W 5862  44.074   0.893  13.068
39322W        W 5863  19.379  38.518  12.202
39323W        W 5864  41.558  37.774  12.543
39324W        W 5865  44.293  38.388   3.727
39325W        W 5866   7.261  22.199  11.998
39326W        W 5867   4.897  25.971   1.657
39327W        W 5868  10.108  32.634  14.263
39328W        W 5869  35.271  40.869   4.220
39329W        W 5870  42.474  16.366   2.578
39330W        W 5871  22.131  24.642  12.236
39331W        W 5872  12.808   3.187   1.479
39332W        W 5873  42.502   9.166   4.170
39333W        W 5874  10.300   0.901   0.867
39334W        W 5875  36.737   3.304  10.595
39335W        W 5876   8.778  29.834   0.043
39336W        W 5877  11.684  31.547   4.832
39337W        W 5878  26.897  27.101  14.854
39338W        W 5879  35.427  14.028  14.657
39339W        W 5880  35.838  17.594   0.384
39340W        W 5881   2.909  16.525  10.760
39341W        W 5882  39.336  38.588   1.872
39342W        W 5883  21.691  16.932  11.920
39343W        W 5884   3.342  19.891   4.603
39344W        W 5885  43.890   6.792   0.750
39345W        W 5886  24.124   5.950  14.007
39346W        W 5887  24.745  23.988  14.044
39347W        W 5888  16.023   0.880   2.970
39348W        W 5889  18.140  10.798  11.590
39349W        W 5890  36.098  44.985   3.677
39350W        W 5891  16.349  10.348  14.899
39351W        W 5892  18.071   7.502   3.240
39352W        W 5893  11.691   3.512   3.100
39353W        W 5894  28.970   3.551  12.914
39354W        W 5895  32.584  24.469   4.064
39355W        W 5896  20.651  38.780   4.156
39356W        W 5897  35.349  18.759   4.514
39357W        W 5898  29.852  27.812   3.621
39358W        W 5899  36.375  27.662  13.101
39359W        W 5900  40.940  18.184  14.131
39360W        W 5901  21.638   8.425  11.062
39361W        W 5902  17.621  31.608  11.402
39362W        W 5903  11.840  42.738  14.338
39363W        W 5904  38.924  29.087   2.824
39364W        W 5905  24.724  19.475  13.731
39365W        W 5906  32.659  13.262  13.324
39366W        W 5907   5.957   3.893   1.353
39367W        W 5908   0.920  32.109  12.970
39368W        W 5909  23.193  38.112   2.452
39369W        W 5910   2.231  18.482   3.430
39370W        W 5911  11.208   8.184  12.454
39371W        W 5912  12.308  44.029   3.814
39372W        W 5913   7.486   5.390   3.696
39373W        W 5914  37.449  43.283   4.580
39374W        W 5915  32.926  25.298  12.339
39375W        W 5916  30.800  39.365  13.643
39376W        W 5917   4.263   6.305   4.981
39377W        W 5918  43.253  36.400  14.354
39378W        W 5919  43.790   7.704   3.963
39379W        W 5920  23.072  22.280  14.433
39380W        W 5921  37.796  27.405  14.104
39381W        W 5922  14.782   1.199  10.738
39382W        W 5923  14.341  10.319   3.507
39383W        W 5924  35.288  34.378   1.665
39384W        W 5925   0.687  42.396  13.412
39385W        W 5926   7.773   6.524   2.195
39386W        W 5927  34.335  20.138   4.146
39387W        W 5928  27.590   3.132   3.768
39388W        W 5929  17.738   9.616   0.375
39389W        W 5930  24.039   2.437   3.245
39390W        W 5931  36.300  29.860  11.654
39391W        W 5932  12.281  43.211   0.743
39392W        W 5933   5.658  29.041  12.067
39393W        W 5934  29.998  31.897   1.130
39394W        W 5935  16.753  43.467   0.345
39395W        W 5936  38.097  44.883  10.362
39396W        W 5937  29.431  37.497   2.773
39397W        W 5938  20.798   6.285  13.274
39398W        W 5939  25.552  19.786   0.387
39399W        W 5940  16.723  29.849   1.156
39400W        W 5941  24.778   0.998   1.424
39401W        W 5942   5.978  14.816   2.754
39402W        W 5943   1.927  11.245  13.459
39403W        W 5944   4.176  29.118   4.667
39404W        W 5945  30.579  37.574   4.709
39405W        W 5946   9.879  33.436  14.771
39406W        W 5947   7.334   0.220   0.278
39407W        W 5948  36.110  12.144   1.812
39408W        W 5949  36.255   6.283   3.454
39409W        W 5950  19.781   0.861   4.344
39410W        W 5951  35.689   2.929   2.289
39411W        W 5952  22.091   5.846  12.813
39412W        W 5953  21.793  40.972  14.011
39413W        W 5954   2.016  28.461   1.352
39414W        W 5955   1.812  23.117   1.273
39415W        W 5956  36.985  36.527  10.759
39416W        W 5957  13.598  27.496  13.336
39417W        W 5958  16.282  24.514  10.279
39418W        W 5959  15.678  22.602   2.535
39419W        W 5960  24.120  32.919  12.259
39420W        W 5961  24.582   0.406   3.690
39421W        W 5962   3.754  21.100   4.509
39422W        W 5963  20.370  44.955   3.579
39423W        W 5964  39.449  10.431   5.207
39424W        W 5965  35.072  40.860   3.742
39425W        W 5966  22.819  10.057   2.849
39426W        W 5967  33.689   6.731   1.531
39427W        W 5968   5.539  13.173   0.140
39428W        W 5969  19.387  40.752   3.773
39429W        W 5970   0.188   7.683  13.485
39430W        W 5971  15.422  12.695  10.813
39431W        W 5972  30.551  43.241   0.716
39432W        W 5973  20.719  14.725  13.053
39433W        W 5974  35.930  26.610   0.045
39434W        W 5975  32.544  37.465   2.249
39435W        W 5976  30.020  24.216   0.835
39436W        W 5977  38.649   3.647   2.239
39437W        W 5978  29.019   0.998  13.800
39438W        W 5979  25.631   4.671   0.086
39439W        W 5980  44.054  14.312  14.787
39440W        W 5981  16.786  16.913   3.123
39441W        W 5982  25.907  34.134   1.789
39442W        W 5983  10.893  14.146  12.087
39443W        W 5984  42.492  25.655  11.538
39444W        W 5985  10.696  27.873   9.999
39445W        W 5986  40.148  10.200  12.509
39446W        W 5987   1.485  16.528   3.749
39447W        W 5988   8.798  44.643   3.731
39448W        W 5989  28.593  11.230   4.580
39449W        W 5990  27.523  20.802  12.156
39450W        W 5991  35.826  24.078  13.052
39451W        W 5992  44.988  24.640   4.992
39452W        W 5993   8.542   6.381   4.942
39453W        W 5994  26.540  14.250   4.482
39454W        W 5995   0.961  17.324   5.125
39455W        W 5996  31.348   5.307  11.150
39456W        W 5997  14.250  30.679  13.593
39457W        W 5998   0.269  28.419   2.821
39458W        W 5999   4.113   1.533   4.845
39459W        W 6000  37.541  29.572  13.802
39460W        W 6001  39.084  38.272  13.044
39461W        W 6002  44.667   5.309   0.889
39462W        W 6003  15.841  16.559  12.945
39463W        W 6004  15.773   6.985   4.022
39464W        W 6005  19.860  38.907   5.072
39465W        W 6006   1.943   2.650   1.481
39466W        W 6007  23.239   2.687   3.660
39467W        W 6008  21.114   0.040  13.017
39468W        W 6009  31.560   3.933  12.554
39469W        W 6010   2.659  14.658   2.803
39470W        W 6011  36.108  27.617  11.152
39471W        W 6012  37.339  23.217   1.317
39472W        W 6013  28.041  30.117  10.550
39473W        W 6014  15.882  40.784   2.865
39474W        W 6015   6.230  13.229  10.955
39475W        W 6016  43.277  29.674  13.796
39476W        W 6017  38.103  24.060   2.121
39477W        W 6018  21.752  21.118   2.747
39478W        W 6019  13.647  21.874   2.280
39479W        W 6020  26.587   1.701  11.996
39480W        W 6021  10.835   8.228   0.339
39481W        W 6022  30.629   6.943   4.349
39482W        W 6023  41.828  42.472   4.321
39483W        W 6024  24.354  38.536   2.912
39484W        W 6025  38.754   9.711  10.734
39485W        W 6026  33.502  25.515  11.576
39486W        W 6027  30.423   7.673   0.285
39487W        W 6028  13.703  32.687  10.648
39488W        W 6029  37.807  35.772  12.974
39489W        W 6030  27.079  39.485   1.475
39490W        W 6031  27.702  18.270  12.141
39491W        W 6032  42.860  42.116   3.609
39492W        W 6033  18.591  39.875   4.544
39493W        W 6034  26.174  20.558  11.676
39494W        W 6035  40.947  32.556  11.128
39495W        W 6036  41.807  15.635  12.265
39496W        W 6037   4.221  31.158   1.248
39497W        W 6038  28.733  41.806  13.954
39498W        W 6039  30.628  42.338  14.701
39499W        W 6040  37.457  26.730   4.167
39500W        W 6041  40.896  24.598  12.557
39501W        W 6042  36.764  36.507  14.319
39502W        W 6043  36.095   6.330   3.943
39503W        W 6044  30.444  42.341   1.644
39504W        W 6045   0.352  25.842   3.206
39505W        W 6046  14.274  28.893   9.906
39506W        W 6047  32.254  19.951  14.704
39507W        W 6048  44.681   3.594   5.002
39508W        W 6049  26.159   3.876   3.182
39509W        W 6050   5.591   5.260  11.487
39510W        W 6051   4.382   5.832   0.074
39511W        W 6052  25.416  15.704  12.913
39512W        W 6053  36.052  26.810  14.048
39513W        W 6054  27.163  15.141  13.172
39514W        W 6055  20.118   7.398   1.758
39515W        W 6056  29.182   8.224  12.684
39516W        W 6057  23.975  44.948  11.492
39517W        W 6058  36.946  14.152  14.056
39518W        W 6059  28.458   8.319   3.490
39519W        W 6060  14.821   9.743   4.240
39520W        W 6061   2.698  21.726  13.029
39521W        W 6062  35.801  37.577  12.746
39522W        W 6063  17.421  17.143  11.160
39523W        W 6064  30.538   2.409   4.979
39524W        W 6065  22.285  13.292  12.539
39525W        W 6066  21.155  41.806  12.088
39526W        W 6067   1.868  40.490  11.544
39527W        W 6068  38.128  37.559   2.489
39528W        W 6069   4.666  11.177  13.403
39529W        W 6070  19.495  38.949  10.794
39530W        W 6071  33.385   0.953   4.880
39531W        W 6072  15.110  37.934  11.926
39532W        W 6073  31.746  39.020   5.020
39533W        W 6074  13.328  22.659   0.920
39534W        W 6075   7.790   9.034   0.267
39535W        W 6076   3.859  22.391   5.023
39536W        W 6077  13.170  25.250  13.507
39537W        W 6078  22.787   4.344   0.747
39538W        W 6079  41.107  40.585  11.476
39539W        W 6080  36.586  13.789  11.495
39540W        W 6081   3.301  16.368   1.669
39541W        W 6082  29.363   5.788  12.386
39542W        W 6083   2.522  39.360  10.971
39543W        W 6084  19.246  16.233   1.869
39544W        W 6085  23.986  14.321   0.825
39545W        W 6086  30.289  30.402  12.783
39546W        W 6087  15.513  12.616   9.973
39547W        W 6088  35.957  31.007   3.682
39548W        W 6089   7.228  26.985  14.696
39549W        W 6090  18.382   4.458  13.555
39550W        W 6091  23.154  40.600  10.206
39551W        W 6092  33.585  12.078  14.873
39552W        W 6093  12.033  36.168   5.092
39553W        W 6094  42.418  40.553  10.997
39554W        W 6095   2.852  10.040  13.565
39555W        W 6096  21.048  26.567   3.599
39556W        W 6097  37.911   4.910  13.986
39557W        W 6098  32.477  20.530  12.379
39558W        W 6099  23.867  37.926  14.871
39559W        W 6100   5.843  44.492   1.728
39560W        W 6101  42.116  16.526   0.770
39561W        W 6102  25.580  19.292  11.989
39562W        W 6103   8.094   5.949  12.437
39563W        W 6104  32.025  31.667   2.741
39564W        W 6105   6.122   6.503  10.961
39565W        W 6106  18.215  37.557  14.206
39566W        W 6107  41.241   7.395  11.681
39567W        W 6108  28.076  20.295   2.302
39568W        W 6109  27.161  20.588   4.033
39569W        W 6110  34.438  40.838  14.893
39570W        W 6111  14.081  18.149   3.089
39571W        W 6112  15.547  25.675   4.204
39572W        W 6113  40.843  18.339  11.108
39573W        W 6114  33.881  32.271   2.404
39574W        W 6115  11.844  11.474  11.595
39575W        W 6116  35.889  24.244  12.565
39576W        W 6117  15.415  24.801  11.252
39577W        W 6118   8.435   2.478  13.477
39578W        W 6119  27.552  30.664  11.517
39579W        W 6120   8.726  24.576   0.909
39580W        W 6121  31.027  33.784  11.573
39581W        W 6122   8.720  32.635  12.002
39582W        W 6123   1.680  16.419   5.020
39583W        W 6124   8.011  25.230  12.492
39584W        W 6125   4.814  31.480  14.366
39585W        W 6126  11.601  14.342  13.269
39586W        W 6127  43.065   5.778   4.042
39587W        W 6128  14.768  44.503  10.084
39588W        W 6129   2.998  30.721  14.882
39589W        W 6130   6.110  27.240   0.100
39590W        W 6131  41.436   2.466   4.164
39591W        W 6132  18.257  35.847  13.838
39592W        W 6133   6.329  32.939  14.820
39593W        W 6134  25.007   8.027  13.574
39594W        W 6135  24.195   4.595  10.872
39595W        W 6136  43.029  14.562  12.180
39596W        W 6137  42.970  44.333  11.436
39597W        W 6138   3.946  34.547  14.834
39598W        W 6139  40.170  36.007   0.309
39599W        W 6140  13.109   0.391   3.553
39600W        W 6141   5.679  30.094  12.860
39601W        W 6142  27.569  27.672   4.942
39602W        W 6143  27.004  28.542  10.148
39603W        W 6144  31.453  30.764   0.694
39604W        W 6145  26.403  13.891  14.528
39605W        W 6146   4.200  29.798  13.485
39606W        W 6147   5.680  22.760  13.063
39607W        W 6148  33.894  32.433   3.712
39608W        W 6149   1.860  31.382   4.424
39609W        W 6150  14.319   1.976   3.286
39610W        W 6151  22.040  30.871  13.021
39611W        W 6152  21.712   7.674   0.803
39612W        W 6153   3.245   3.222   3.219
39613W        W 6154  26.112  42.014   0.290
39614W        W 6155  21.573  44.815   4.366
39615W        W 6156  30.921   3.123  12.048
39616W        W 6157  10.523  30.416  10.695
39617W        W 6158  12.581  24.682  13.980
39618W        W 6159   0.852   1.535  10.460
39619W        W 6160  19.760  33.182   2.433
39620W        W 6161  34.394  26.056   2.116
39621W        W 6162  13.757  25.613   0.435
39622W        W 6163  13.283  24.429   3.132
39623W        W 6164  36.185  15.979   5.005
39624W        W 6165  25.158  18.566   1.832
39625W        W 6166  28.182  13.909  11.160
39626W        W 6167  31.635  22.296  12.462
39627W        W 6168  28.890   0.562   2.221
39628W        W 6169   9.137  10.118  13.517
39629W        W 6170  24.013  30.086  12.087
39630W        W 6171  27.266  24.358   4.914
39631W        W 6172  12.281  43.729   0.849
39632W        W 6173   8.195  14.200  11.977
39633W        W 6174  33.106  25.428  10.973
39634W        W 6175  18.788   8.425  13.331
39635W        W 6176  38.961  18.250  13.171
39636W        W 6177  29.198   4.423  13.437
39637W        W 6178  37.187  19.298   2.772
39638W        W 6179  43.859  33.489   3.511
39639W        W 6180  41.752  24.593  14.785
39640W        W 6181  12.503  10.314   0.894
39641W        W 6182  25.153  20.119   5.086
39642W        W 6183  28.386  23.626  12.945
39643W        W 6184  27.750  29.413   2.412
39644W        W 6185  11.573  14.035   2.369
39645W        W 6186  12.085  13.205   1.694
39646W        W 6187   0.042  26.631   4.251
39647W        W 6188  18.143   3.342   2.842
39648W        W 6189  18.996  43.668  11.457
39649W        W 6190  14.898  36.434  11.679
39650W        W 6191  39.109   3.736   0.844
39651W        W 6192  33.886  32.562   2.840
39652W        W 6193  37.815  27.720   4.140
39653W        W 6194  41.913  31.446   0.794
39654W        W 6195  24.073  23.465   1.229
39655W        W 6196   1.403  21.295  10.974
39656W        W 6197  36.312  11.098   3.656
39657W        W 6198   1.634   1.815   4.478
39658W        W 6199  21.105  14.716  12.294
39659W        W 6200  20.678   9.721   4.586
39660W        W 6201   7.386  21.294  14.736
39661W        W 6202   1.676  41.076   1.729
39662W        W 6203   9.108  11.838  14.474
39663W        W 6204  24.694  33.581  14.278
39664W        W 6205  38.391   5.064   4.207
39665W        W 6206  36.942   5.372  14.030
39666W        W 6207  29.552  43.799   2.743
39667W        W 6208   7.700  42.918   5.139
39668W        W 6209  26.688  15.300  12.717
39669W        W 6210  27.016   3.689   1.711
39670W        W 6211  37.390  19.647  14.542
39671W        W 6212  34.399  16.612   0.486
39672W        W 6213   5.874  35.931  13.073
39673W        W 6214  39.880  38.322  10.704
39674W        W 6215   8.276   5.693  11.993
39675W        W 6216  25.182  29.455   2.311
39676W        W 6217   8.714  37.792  14.250
39677W        W 6218   8.945  10.191  14.222
39678W        W 6219  35.601  29.885   0.302
39679W        W 6220  11.979   5.107   4.062
39680W        W 6221   4.696  21.032   4.353
39681W        W 6222  32.131  23.653  13.092
39682W        W 6223  27.885  34.635   3.640
39683W        W 6224   8.828  22.120   1.073
39684W        W 6225  41.989   1.660   3.103
39685W        W 6226  41.757  15.201   1.001
39686W        W 6227  22.745  21.213   3.854
39687W        W 6228  18.024   4.392  13.010
39688W        W 6229  42.344  30.606   4.309
39689W        W 6230  38.323  17.354  12.391
39690W        W 6231  11.727  27.719  14.779
39691W        W 6232  37.340  41.103   4.151
39692W        W 6233   0.791  21.503  13.680
39693W        W 6234  26.730  35.575  13.108
39694W        W 6235  20.356  21.644  13.014
39695W        W 6236  11.114  35.117  11.106
39696W        W 6237   4.398  31.372  14.951
39697W        W 6238   3.088  44.512   3.831
39698W        W 6239   4.204  36.076   3.779
39699W        W 6240  37.608  37.491   2.754
39700W        W 6241  21.446  32.200  12.094
39701W        W 6242  30.069  43.711   4.718
39702W        W 6243  36.530   5.937   2.732
39703W        W 6244  16.748  25.048   4.219
39704W        W 6245   6.834   2.977   1.843
39705W        W 6246  33.823  33.786  10.431
39706W        W 6247   0.472  32.902   0.521
39707W        W 6248   5.278  36.713  13.959
39708W        W 6249  15.161  20.177  13.513
39709W        W 6250  24.432  32.949   1.379
39710W        W 6251  17.486  25.885   2.658
39711W        W 6252  40.591  11.792  13.033
39712W        W 6253  43.507  10.661   0.457
39713W        W 6254   2.439  41.871   0.384
39714W        W 6255  43.478   2.558  12.867
39715W        W 6256  44.635  24.357  12.637
39716W        W 6257  14.975  40.644  11.450
39717W        W 6258  35.389  19.291  13.834
39718W        W 6259  18.004  17.326  14.949
39719W        W 6260   7.937  34.968  14.275
39720W        W 6261  35.800  26.909  10.710
39721W        W 6262  20.840  19.056  13.154
39722W        W 6263  41.371  32.960   0.810
39723W        W 6264   2.734   5.019  14.373
39724W        W 6265   9.077  28.720  11.159
39725W        W 6266   7.822  30.167  10.560
39726W        W 6267   2.823  35.570  14.775
39727W        W 6268  25.289   5.821   9.859
39728W        W 6269  11.352  33.132  10.732
39729W        W 6270  43.889  16.361  12.584
39730W        W 6271  41.093  32.418   1.496
39731W        W 6272   9.979  21.640   1.095
39732W        W 6273   9.766   4.130   1.766
39733W        W 6274   8.415   6.861   0.493
39734W        W 6275  31.260  16.802   0.420
39735W        W 6276   4.801  43.138  12.087
39736W        W 6277   7.441  29.634  11.597
39737W        W 6278  10.329  14.691  13.818
39738W        W 6279  44.079  21.243  13.772
39739W        W 6280   4.503  24.695   2.815
39740W        W 6281   0.963  39.953  10.222
39741W        W 6282  20.828  29.240   1.147
39742W        W 6283  10.505  36.575   3.253
39743W        W 6284  43.819   9.862  13.018
39744W        W 6285  42.812  10.124  12.987
39745W        W 6286  12.174  21.452  13.528
39746W        W 6287  22.157   8.639  13.912
39747W        W 6288  15.009  36.461   0.289
39748W        W 6289   8.213  19.133  12.948
39749W        W 6290  38.205  38.284   2.486
39750W        W 6291  18.469  30.504   0.923
39751W        W 6292  18.747  38.336   3.183
39752W        W 6293   0.310  26.775  14.387
39753W        W 6294   4.682  32.003   1.962
39754W        W 6295  34.530  18.311   2.112
39755W        W 6296   5.291  18.381   3.662
39756W        W 6297  36.338  35.207   2.719
39757W        W 6298  39.117  30.471   3.107
39758W        W 6299  16.416   8.765  11.532
39759W        W 6300  34.303  29.926   3.722
39760W        W 6301   1.325  14.260   2.882
39761W        W 6302   1.485  31.628   2.294
39762W        W 6303  41.622  12.601  12.737
39763W        W 6304   4.617  23.580  14.320
39764W        W 6305  29.427   9.249   0.010
39765W        W 6306  18.318  20.650  11.978
39766W        W 6307   3.247  29.474   1.814
39767W        W 6308  40.494  17.339  12.890
39768W        W 6309  39.011   4.662   1.707
39769W        W 6310  19.138  20.759  14.736
39770W        W 6311  31.350   4.465  14.542
39771W        W 6312  28.315  14.715   0.703
39772W        W 6313  42.766   7.318   4.202
39773W        W 6314  25.676  32.097  14.570
39774W        W 6315  13.241  26.775  12.572
39775W        W 6316  38.470   0.991   1.422
39776W        W 6317   0.988   3.285  11.399
39777W        W 6318  33.188  24.351  12.029
39778W        W 6319  44.965  37.492   3.060
39779W        W 6320  34.932   0.453  12.101
39780W        W 6321  33.528  37.146  13.901
39781W        W 6322  28.841   8.366  13.043
39782W        W 6323  36.313  26.586  14.684
39783W        W 6324   9.008  42.534   4.568
39784W        W 6325  42.459   2.711  12.995
39785W        W 6326  18.960  33.535  12.212
39786W        W 6327   5.109   6.175  14.281
39787W        W 6328  18.732  19.490  14.852
39788W        W 6329   8.139  34.850  11.976
39789W        W 6330  44.398  16.348  12.513
39790W        W 6331  28.722   1.890   4.359
39791W        W 6332  33.366  12.969   0.836
39792W        W 6333   0.410  29.824   0.371
39793W        W 6334  25.154  23.963   2.653
39794W        W 6335  21.633   1.310   2.766
39795W        W 6336  11.138  29.233  13.845
39796W        W 6337   2.905  19.552  13.854
39797W        W 6338  16.547  39.435  14.079
39798W        W 6339  33.513  20.165  11.654
39799W        W 6340   6.238   0.779   0.351
39800W        W 6341  23.158   8.881   0.854
39801W        W 6342  33.372  15.299   3.711
39802W        W 6343  22.972   5.921  14.066
39803W        W 6344  13.204  43.369  13.844
39804W        W 6345  44.263   1.469   4.793
39805W        W 6346   4.911  38.853   0.511
39806W        W 6347  39.145  22.812  14.819
39807W        W 6348  21.786  27.383   1.272
39808W        W 6349   2.817  11.115   0.768
39809W        W 6350  35.126  15.685  11.987
39810W        W 6351  42.831  15.252   2.817
39811W        W 6352  17.248  14.293   3.229
39812W        W 6353  32.291  27.888  12.822
39813W        W 6354  41.453  27.686  13.797
39814W        W 6355   9.721  10.804  14.784
39815W        W 6356  25.178  30.802  11.483
39816W        W 6357  37.375  18.737   0.717
39817W        W 6358  14.505  22.149  14.895
39818W        W 6359  24.663  39.462   0.664
39819W        W 6360  41.706  27.564   1.072
39820W        W 6361   8.125  28.165  14.217
39821W        W 6362   2.744  11.724   2.232
39822W        W 6363  25.613   6.270   3.837
39823W        W 6364  34.507  12.506   3.404
39824W        W 6365  40.034  36.361  12.147
39825W        W 6366  28.860   1.542  11.155
39826W        W 6367  32.027  20.659   2.755
39827W        W 6368  13.886  36.285   4.580
39828W        W 6369  10.187   9.023   1.825
39829W        W 6370  32.075  37.795   0.531
39830W        W 6371  21.733  20.587   2.819
39831W        W 6372  19.177  21.621  10.381
39832W        W 6373   6.548  41.876  12.134
39833W        W 6374  30.749  21.780  12.091
39834W        W 6375  30.666  27.230   2.434
39835W        W 6376  27.913  16.996  11.924
39836W        W 6377  44.016  26.004   0.280
39837W        W 6378  39.964  19.296  13.514
39838W        W 6379  37.420  23.754  10.809
39839W        W 6380  33.407  10.766  12.357
39840W        W 6381  20.164  38.050  14.709
39841W        W 6382   5.261  23.386   4.248
39842W        W 6383  44.930   9.126  12.659
39843W        W 6384  42.164  24.478   0.724
39844W        W 6385   4.780  18.670  11.191
39845W        W 6386  43.698  42.316   1.259
39846W        W 6387  29.906  20.815   0.399
39847W        W 6388  44.841  16.707   1.135
39848W        W 6389  34.498   4.521   5.594
39849W        W 6390  24.146  26.292  14.812
39850W        W 6391  15.852   7.416   2.337
39851W        W 6392  18.411  22.562   0.079
39852W        W 6393  36.632  21.382   1.829
39853W        W 6394  22.920  14.288  13.411
39854W        W 6395  20.164  16.210   2.309
39855W        W 6396  36.028  36.052   3.547
39856W        W 6397  21.271  25.474  11.424
39857W        W 6398  35.246  40.551   1.463
39858W        W 6399  32.818   3.800   3.611
39859W        W 6400  37.520   8.290  12.764
39860W        W 6401   9.806  38.358  10.238
39861W        W 6402  36.331  24.706  12.598
39862W        W 6403  28.654   5.532   4.710
39863W        W 6404  41.813   1.689  10.353
39864W        W 6405   3.505  14.228  14.822
39865W        W 6406   1.252  25.061   1.928
39866W        W 6407  12.038  15.539  13.144
39867W        W 6408  41.017  26.381  11.616
39868W        W 6409  18.142   8.242   0.634
39869W        W 6410   5.277   9.757   1.704
39870W        W 6411  25.954  44.160  11.128
39871W        W 6412   4.203  12.621  11.508
39872W        W 6413  26.211  21.695  11.592
39873W        W 6414   6.433  36.138   1.747
39874W        W 6415  11.561  44.748  11.673
39875W        W 6416  36.616   8.073   4.473
39876W        W 6417  44.773  44.194  14.893
39877W        W 6418  43.225   3.813  14.547
39878W        W 6419  13.696   1.160  13.122
39879W        W 6420  23.472  29.396  10.602
39880W        W 6421  35.657  27.637   1.033
39881W        W 6422  18.090  41.376   1.720
39882W        W 6423   7.159  12.904  11.181
39883W        W 6424   7.466   2.503  12.025
39884W        W 6425  31.027   3.214  14.298
39885W        W 6426  34.017   1.019  13.955
39886W        W 6427  12.765  17.135   0.147
39887W        W 6428  30.620  35.519   4.859
39888W        W 6429   7.125  37.013  11.707
39889W        W 6430  41.720  21.563  10.427
39890W        W 6431  12.352  22.072   2.617
39891W        W 6432  21.456  15.812  12.851
39892W        W 6433  43.118   2.925  13.982
39893W        W 6434  15.640  22.953  12.497
39894W        W 6435   1.327  42.511  12.867
39895W        W 6436  22.979  42.835  14.574
39896W        W 6437   2.936   2.879  13.027
39897W        W 6438  41.422  39.409   4.239
39898W        W 6439   4.580  39.901   4.919
39899W        W 6440  36.873  37.776  10.768
39900W        W 6441   6.626  24.538   0.472
39901W        W 6442  15.070  43.503  12.961
39902W        W 6443   1.896  35.431  11.962
39903W        W 6444  20.762  24.964  12.804
39904W        W 6445  36.078  18.422   0.843
39905W        W 6446   1.135  19.176   0.773
39906W        W 6447   0.296  23.579   4.294
39907W        W 6448  27.700   3.416   4.166
39908W        W 6449  37.629  39.932   3.393
39909W        W 6450  14.897  43.495  11.165
39910W        W 6451  40.708   8.075  14.421
39911W        W 6452   5.651  19.584   1.752
39912W        W 6453   2.215  30.566   4.210
39913W        W 6454  22.089   0.794  13.775
39914W        W 6455  10.822  44.880  11.962
39915W        W 6456  18.157  16.463   0.325
39916W        W 6457  36.966  41.089  13.362
39917W        W 6458  14.602  27.524   4.136
39918W        W 6459   6.851  35.554  10.569
39919W        W 6460  23.809   9.154   2.810
39920W        W 6461   7.483  42.268   0.335
39921W        W 6462  40.287  34.710  11.699
39922W        W 6463  18.066  29.477  13.532
39923W        W 6464  38.896  43.888   1.801
39924W        W 6465  40.031  23.220  11.097
39925W        W 6466  19.138  18.827   1.024
39926W        W 6467  34.875  12.146  13.367
39927W        W 6468   4.355  16.851  12.936
39928W        W 6469  28.004  19.558  14.970
39929W        W 6470   9.566  30.026   3.542
39930W        W 6471  21.171  27.712  14.735
39931W        W 6472  36.961  12.657   1.781
39932W        W 6473  11.209  14.568  14.096
39933W        W 6474   6.627  25.966  12.056
39934W        W 6475  23.092  28.413  12.363
39935W        W 6476  16.101  16.751   0.150
39936W        W 6477  19.514   2.513  10.714
39937W        W 6478   5.181   8.403  12.052
39938W        W 6479   5.188  27.519  13.556
39939W        W 6480  13.884  23.334   0.788
39940W        W 6481  37.911  30.761  14.388
39941W        W 6482  37.634  12.928   4.860
39942W        W 6483  41.923  43.836  10.532
39943W        W 6484  14.299   0.336  12.111
39944W        W 6485   7.173  24.089   2.734
39945W        W 6486  12.436  30.146   4.924
39946W        W 6487  21.006  18.043   0.783
39947W        W 6488  17.790  27.599   0.861
39948W        W 6489   5.758  35.475  11.942
39949W        W 6490  22.766  18.210   0.880
39950W        W 6491  15.438   1.251   0.399
39951W        W 6492   6.378  31.300   2.599
39952W        W 6493   4.856  44.423  12.402
39953W        W 6494   0.048   6.804   1.460
39954W        W 6495  16.977  21.756  14.669
39955W        W 6496  28.910  12.780  13.325
39956W        W 6497  36.482   7.401  10.748
39957W        W 6498  30.980  30.277  14.543
39958W        W 6499  27.390  38.482  14.333
39959W        W 6500  27.947  14.804  13.469
39960W        W 6501  43.920  15.162  14.472
39961W        W 6502  36.417  35.962   1.297
39962W        W 6503   6.026  43.930  14.797
39963W        W 6504  10.305  22.671  13.088
39964W        W 6505  28.106   3.179   5.103
39965W        W 6506   0.367  19.332   1.251
39966W        W 6507   1.100  27.176   0.376
39967W        W 6508   2.755  27.437  14.832
39968W        W 6509   7.366  29.008   4.278
39969W        W 6510  41.118  35.009  13.547
39970W        W 6511  35.735  26.984  12.054
39971W        W 6512   6.159   2.299   3.132
39972W        W 6513  19.648  12.542  12.117
39973W        W 6514  26.901  43.574  12.462
39974W        W 6515  27.123  11.763  13.197
39975W        W 6516  16.678   4.660   4.625
39976W        W 6517  38.130  20.162  11.170
39977W        W 6518   5.115  17.894   3.681
39978W        W 6519  34.238   9.842   3.629
39979W        W 6520  25.263  18.786   3.351
39980W        W 6521   9.183  30.399  10.675
39981W        W 6522  29.425  28.156  14.875
39982W        W 6523  30.314  38.837  13.858
39983W        W 6524   1.801  18.643   0.356
39984W        W 6525  35.969  10.940  11.167
39985W        W 6526  40.002  20.680  12.061
39986W        W 6527  36.870  17.562   4.959
39987W        W 6528  23.678  23.936   2.270
39988W        W 6529  15.827  26.375   3.703
39989W        W 6530   1.792  39.799  12.665
39990W        W 6531  35.071   5.891  10.720
39991W        W 6532   6.388  16.494   3.372
39992W        W 6533  35.724  27.733   2.689
39993W        W 6534  43.488   1.940  12.155
39994W        W 6535  10.094  10.475   3.006
39995W        W 6536  32.344  42.419  11.831
39996W        W 6537  20.995   8.778   0.939
39997W        W 6538   5.630  11.850   3.108
39998W        W 6539   2.199  23.369   3.033
39999W        W 6540  25.147  22.506   2.641
40000W        W 6541  23.468  19.802  11.431
40001W        W 6542  22.100  14.771   1.161
40002W        W 6543  38.990  14.824  11.934
40003W        W 6544  37.350  18.623  11.212
40004W        W 6545   4.025   0.582   1.729
40005W        W 6546  20.560   2.190  12.912
40006W        W 6547   0.253  41.071   2.689
40007W        W 6548  44.567  44.356   1.827
40008W        W 6549  17.160  43.376   3.143
40009W        W 6550  32.535  33.475   3.580
40010W        W 6551   5.253  30.828  13.942
40011W        W 6552  15.688  42.547  11.189
40012W        W 6553  26.590  40.683  13.775
40013W        W 6554  37.516   1.711  12.692
40014W        W 6555  42.045  38.809  13.462
40015W        W 6556  28.210  11.068   1.669
40016W        W 6557  32.225   1.784   5.127
40017W        W 6558  17.208  30.716   5.042
40018W        W 6559  38.439   4.269  10.720
40019W        W 6560  25.695  32.586   4.589
40020W        W 6561   1.464  41.211   3.665
40021W        W 6562  35.892  16.297  13.979
40022W        W 6563  21.664   2.871   2.524
40023W        W 6564  10.133  23.049   4.540
40024W        W 6565  30.701  22.009  10.499
40025W        W 6566   0.281  28.112   1.940
40026W        W 6567  17.280  35.594  11.161
40027W        W 6568  29.582  40.990   2.941
40028W        W 6569  15.663  38.528  14.474
40029W        W 6570  34.334  31.257  12.030
40030W        W 6571  39.997  37.978  12.630
40031W        W 6572  40.149  42.247  12.502
40032W        W 6573  12.077   3.190  12.440
40033W        W 6574  37.915  32.864   2.326
40034W        W 6575  28.123  20.907   0.524
40035W        W 6576   3.201  41.134  12.037
40036W        W 6577  36.904  21.109   2.738
40037W        W 6578   7.178  10.168  12.038
40038W        W 6579  40.459   2.224  11.905
40039W        W 6580   9.320  42.945   0.369
40040W        W 6581  27.729   8.278   3.400
40041W        W 6582  42.842  19.448  12.384
40042W        W 6583  36.108   2.650  12.891
40043W        W 6584  31.537  14.558   4.025
40044W        W 6585   1.882  26.498  12.896
40045W        W 6586  19.152  15.558   2.123
40046W        W 6587  35.653  26.953   2.335
40047W        W 6588  34.115  38.014   4.204
40048W        W 6589   2.407  36.620   0.726
40049W        W 6590  32.613   9.236   3.850
40050W        W 6591   5.567   7.367  12.150
40051W        W 6592  31.613  22.004  11.110
40052W        W 6593   1.523   3.389  11.091
40053W        W 6594  44.272  20.350   1.653
40054W        W 6595   0.542  23.112  11.640
40055W        W 6596  40.860  18.776  12.978
40056W        W 6597  35.973  18.926   0.794
40057W        W 6598  23.800   4.769  11.661
40058W        W 6599   0.023  30.554   3.228
40059W        W 6600   8.897  38.515   2.926
40060W        W 6601  13.690  42.083   4.551
40061W        W 6602  27.645  15.132  12.912
40062W        W 6603  30.043  18.666   2.835
40063W        W 6604  16.190   1.570  13.839
40064W        W 6605   1.480  37.176  12.958
40065W        W 6606  24.477  30.542   0.967
40066W        W 6607  44.266  28.415  10.672
40067W        W 6608  15.886  23.060  12.016
40068W        W 6609  35.929   6.456   0.813
40069W        W 6610   1.554  11.701   3.866
40070W        W 6611  44.398  16.401   1.498
40071W        W 6612  20.140  20.295  11.679
40072W        W 6613  34.854  11.596  13.398
40073W        W 6614  23.678  17.207  14.287
40074W        W 6615  33.274  41.320  10.298
40075W        W 6616  17.198  32.830   2.602
40076W        W 6617  32.139  29.863  13.999
40077W        W 6618  42.903  36.424   2.783
40078W        W 6619  39.469  38.150   4.247
40079W        W 6620  42.697   5.932  13.788
40080W        W 6621   5.359  29.565   3.121
40081W        W 6622  39.276  36.746   1.749
40082W        W 6623   8.323  25.271   1.533
40083W        W 6624  12.240  44.855   2.861
40084W        W 6625  34.369  42.781   1.334
40085W        W 6626  38.496  44.725   4.452
40086W        W 6627  42.266  31.621  10.765
40087W        W 6628  13.618  32.961   1.366
40088W        W 6629  34.971  16.857   2.285
40089W        W 6630  27.880  22.465  12.413
40090W        W 6631  37.617  36.122   1.336
40091W        W 6632  12.531  18.514   3.405
40092W        W 6633  10.549   6.576   3.399
40093W        W 6634  18.441  19.580   9.795
40094W        W 6635  11.084  23.554  11.260
40095W        W 6636  19.135  13.013   3.128
40096W        W 6637  42.503  10.060   0.411
40097W        W 6638  34.963  14.907  14.410
40098W        W 6639  24.700  26.520   3.667
40099W        W 6640  31.111  21.212  11.474
40100W        W 6641  30.692  42.242   0.776
40101W        W 6642  41.073  15.684   0.025
40102W        W 6643  40.612  42.070   3.421
40103W        W 6644  16.730  38.961  10.445
40104W        W 6645  40.853  39.592  14.671
40105W        W 6646  20.464   7.374   2.737
40106W        W 6647  23.165  36.469  12.805
40107W        W 6648   6.825  44.203  12.400
40108W        W 6649  25.489  28.158   2.311
40109W        W 6650  10.764  39.526   1.417
40110W        W 6651  16.505   0.525  12.410
40111W        W 6652  13.395  38.029   3.745
40112W        W 6653   2.693  42.423  12.825
40113W        W 6654   8.191  13.587   3.245
40114W        W 6655  43.341  34.199  11.149
40115W        W 6656  26.595  11.591   4.199
40116W        W 6657  13.253   5.805   4.498
40117W        W 6658  36.540  10.346  13.605
40118W        W 6659   0.871  34.932  12.843
40119W        W 6660   2.223  44.482   2.244
40120W        W 6661   4.909  20.202  12.497
40121W        W 6662   4.385   3.437  12.045
40122W        W 6663  43.304  33.206  14.461
40123W        W 6664  35.488   2.992  12.489
40124W        W 6665   0.943  29.091   4.053
40125W        W 6666   9.791  24.264  13.404
40126W        W 6667  34.955  34.308  13.773
40127W        W 6668   1.567  14.210  14.753
40128W        W 6669  42.330  17.061  13.246
40129W        W 6670  33.641   3.790   0.465
40130W        W 6671   2.229  25.524   1.366
40131W        W 6672  44.024  16.546  14.829
40132W        W 6673   4.426  14.636   4.232
40133W        W 6674  41.976  18.304  13.421
40134W        W 6675   0.231  29.374  11.095
40135W        W 6676  13.520  30.377  11.543
40136W        W 6677  19.188  29.071  13.165
40137W        W 6678  18.031  30.524  14.056
40138W        W 6679  15.315  40.812  11.102
40139W        W 6680  19.060  34.426   0.683
40140W        W 6681  27.170  25.481   2.740
40141W        W 6682   8.660  12.460   2.850
40142W        W 6683   2.774  30.476   0.312
40143W        W 6684  24.225  38.505  10.829
40144W        W 6685   9.099  26.011  12.969
40145W        W 6686  26.243   3.419  11.598
40146W        W 6687   6.946  43.111   0.863
40147W        W 6688   9.654  20.009   4.212
40148W        W 6689  31.664  10.907   2.209
40149W        W 6690   1.436  44.279  13.282
40150W        W 6691  38.600  36.196  11.172
40151W        W 6692  39.474  25.082  12.607
40152W        W 6693   7.801   3.523   9.923
40153W        W 6694  35.979  33.021   0.926
40154W        W 6695  14.177  35.863  10.739
40155W        W 6696   1.143  11.395  14.867
40156W        W 6697  43.388  32.921  13.149
40157W        W 6698   7.761  33.216   0.399
40158W        W 6699  29.588  39.096  14.536
40159W        W 6700  30.150  40.209  14.958
40160W        W 6701   8.562  38.794   3.231
40161W        W 6702  20.825  27.039   3.422
40162W        W 6703  44.721  43.374   3.591
40163W        W 6704  25.068  11.686   2.750
40164W        W 6705  27.112  16.620  13.769
40165W        W 6706   8.263  32.511  14.942
40166W        W 6707   3.915  30.034   3.782
40167W        W 6708  44.910   8.599  12.487
40168W        W 6709  32.283  25.351   5.010
40169W        W 6710  15.996  34.490  12.521
40170W        W 6711  19.592  38.887   2.256
40171W        W 6712  30.158  30.238  12.122
40172W        W 6713  42.428  10.587  14.783
40173W        W 6714  44.117   7.753  11.955
40174W        W 6715   1.378  32.479  13.900
40175W        W 6716  32.957  16.720  12.581
40176W        W 6717   7.328  17.661   4.429
40177W        W 6718  38.915  38.277   2.665
40178W        W 6719   4.707  39.323   2.364
40179W        W 6720  13.193   3.132  11.095
40180W        W 6721  34.677  19.742   1.706
40181W        W 6722  27.528  37.869   4.563
40182W        W 6723   2.879  17.324  11.106
40183W        W 6724  13.351  35.949  11.214
40184W        W 6725  30.058  16.306   2.355
40185W        W 6726  28.908  27.030   2.539
40186W        W 6727   2.274   2.180  11.548
40187W        W 6728  21.952  33.671  12.788
40188W        W 6729   3.908  12.441   4.104
40189W        W 6730   2.830  20.056   3.447
40190W        W 6731  24.256   5.826   3.180
40191W        W 6732  28.188  23.637   4.171
40192W        W 6733  27.444  44.926  13.870
40193W        W 6734   7.853   0.575  12.406
40194W        W 6735   3.825  21.591   2.566
40195W        W 6736  37.313   0.765  13.423
40196W        W 6737  37.932  32.430   4.389
40197W        W 6738  42.357  38.059   3.930
40198W        W 6739  35.884   8.985  12.515
40199W        W 6740   0.305  42.304  14.895
40200W        W 6741   6.339  13.007  12.516
40201W        W 6742  40.947   8.329  14.024
40202W        W 6743  10.079  17.360   4.598
40203W        W 6744   9.957  13.031  12.501
40204W        W 6745  19.731  21.914  11.490
40205W        W 6746  25.458  38.620  10.359
40206W        W 6747  20.034  33.789   3.902
40207W        W 6748  31.572  20.544  11.561
40208W        W 6749  33.036  11.647  13.138
40209W        W 6750  33.013  33.226  10.678
40210W        W 6751   3.775  21.389   5.064
40211W        W 6752  35.122  11.254   1.710
40212W        W 6753  21.161  34.353   3.865
40213W        W 6754  20.177  14.842   2.855
40214W        W 6755  24.728  39.991  13.158
40215W        W 6756   8.266  26.887   3.854
40216W        W 6757  28.677  40.420   4.094
40217W        W 6758  14.635  34.656  10.282
40218W        W 6759   3.409  14.412   3.330
40219W        W 6760  16.872  41.434   2.269
40220W        W 6761  22.169  16.386  14.823
40221W        W 6762  20.557  36.690   1.710
40222W        W 6763  32.032  31.678   4.466
40223W        W 6764  42.453   2.174   4.467
40224W        W 6765  10.738  28.636   2.722
40225W        W 6766  36.465  20.615  13.691
40226W        W 6767  33.521  28.837   0.181
40227W        W 6768  39.487  43.023  10.592
40228W        W 6769  35.494  25.462  14.359
40229W        W 6770  37.579   5.280  11.027
40230W        W 6771  39.568  20.080  14.727
40231W        W 6772   4.926  29.971   3.545
40232W        W 6773  28.558  40.006   3.757
40233W        W 6774   3.909  17.781   1.433
40234W        W 6775   5.043   1.996  12.560
40235W        W 6776  26.689  26.253   0.498
40236W        W 6777  37.505  17.001  12.036
40237W        W 6778   2.303  27.101   0.751
40238W        W 6779  20.646   0.467  13.804
40239W        W 6780  37.909   5.008   0.776
40240W        W 6781  34.992  26.645  12.612
40241W        W 6782   0.166  20.088  14.592
40242W        W 6783  31.725   9.173  11.175
40243W        W 6784  34.992  16.141  13.560
40244W        W 6785  28.444  16.698   2.833
40245W        W 6786   4.300  37.344   4.269
40246W        W 6787  22.148  28.531  14.523
40247W        W 6788  30.399  35.065  14.805
40248W        W 6789  23.032  23.187  12.172
40249W        W 6790  29.017  11.573   4.968
40250W        W 6791  39.887  36.869   4.632
40251W        W 6792  43.695   9.300   3.734
40252W        W 6793   1.282  22.109   1.724
40253W        W 6794  39.493  22.276   3.707
40254W        W 6795  14.145   8.149  11.533
40255W        W 6796  26.257  31.793  12.472
40256W        W 6797  27.008  35.028   0.291
40257W        W 6798  44.515  11.829   1.789
40258W        W 6799   2.826  26.673   2.887
40259W        W 6800  18.570  43.144  13.582
40260W        W 6801   1.247   1.226  11.630
40261W        W 6802  28.737   6.669   4.218
40262W        W 6803   9.487  24.758  13.846
40263W        W 6804   9.115  17.796  10.663
40264W        W 6805  43.683  28.482   0.212
40265W        W 6806  18.366  19.171   4.979
40266W        W 6807  16.573  14.131  10.525
40267W        W 6808  25.398   0.049   4.194
40268W        W 6809   6.270  15.660  11.128
40269W        W 6810  15.840  41.388  13.392
40270W        W 6811  43.094  31.968  13.456
40271W        W 6812  31.682  27.109   4.891
40272W        W 6813  26.467  16.801   3.186
40273W        W 6814   7.457  35.646  12.642
40274W        W 6815  13.181  11.425   2.440
40275W        W 6816   2.416  28.748   1.828
40276W        W 6817  42.917   3.528   0.838
40277W        W 6818  44.372   0.824   4.180
40278W        W 6819   1.133  36.340   0.248
40279W        W 6820   5.968   2.290  12.034
40280W        W 6821  21.127  12.487  14.714
40281W        W 6822   7.842  40.586  12.798
40282W        W 6823  39.605  39.766   4.400
40283W        W 6824  34.348  25.266  14.654
40284W        W 6825  13.356   5.901   3.987
40285W        W 6826  42.970  13.250   4.670
40286W        W 6827  12.781  41.569  11.522
40287W        W 6828  36.665  38.886   4.097
40288W        W 6829  40.866  42.829  12.392
40289W        W 6830  14.854  13.552  10.686
40290W        W 6831  15.923   2.245   0.886
40291W        W 6832  21.471  24.269  13.446
40292W        W 6833  25.911   6.658  10.738
40293W        W 6834  29.654   0.121   1.580
40294W        W 6835  43.080  41.812   4.532
40295W        W 6836   0.314  28.577  10.717
40296W        W 6837  12.088  25.487   0.376
40297W        W 6838  31.098  28.958   2.690
40298W        W 6839  30.996  29.657   1.230
40299W        W 6840   4.459  17.722  12.798
40300W        W 6841  10.351  44.476   0.776
40301W        W 6842   1.929  17.696  13.306
40302W        W 6843   5.423  12.644   2.857
40303W        W 6844  23.069  44.107   1.224
40304W        W 6845  25.735   0.977  12.442
40305W        W 6846  11.659   5.058   4.852
40306W        W 6847  35.839  25.098   2.318
40307W        W 6848  21.971  26.679  12.475
40308W        W 6849  12.843   7.633  13.603
40309W        W 6850  11.705  40.536  13.803
40310W        W 6851  12.744  32.135  13.424
40311W        W 6852  33.335  31.694  13.894
40312W        W 6853   9.324  33.048   1.475
40313W        W 6854  39.032  18.442  14.291
40314W        W 6855  38.778  27.130  13.989
40315W        W 6856  38.276  20.199   0.900
40316W        W 6857  22.077  33.269  10.592
40317W        W 6858   8.972  42.086   4.301
40318W        W 6859  15.658  25.903   3.677
40319W        W 6860  13.790  30.443   3.284
40320W        W 6861  12.677  15.469   4.438
40321W        W 6862  13.590   4.909   2.258
40322W        W 6863  22.510  30.912  11.670
40323W        W 6864   5.512  16.305  14.376
40324W        W 6865  36.252  13.170   4.570
40325W        W 6866  17.360  40.229  12.248
40326W        W 6867   7.788  30.945   0.699
40327W        W 6868  39.430  31.618  11.971
40328W        W 6869  17.696  31.170   1.899
40329W        W 6870  41.395   1.675  13.547
40330W        W 6871   8.689  18.689  12.394
40331W        W 6872   7.191  36.183  13.519
40332W        W 6873  37.943  29.414  11.568
40333W        W 6874  32.437  24.888  11.141
40334W        W 6875  34.123  35.962   1.672
40335W        W 6876  44.429  32.797   3.627
40336W        W 6877  10.469  19.506  13.085
40337W        W 6878   6.593  27.681   4.756
40338W        W 6879  13.653  29.423  13.412
40339W        W 6880  42.362   6.728  13.778
40340W        W 6881  32.703  25.441   2.313
40341W        W 6882   5.795  17.260  12.982
40342W        W 6883  24.136  39.219   4.625
40343W        W 6884  23.700  30.650   3.097
40344W        W 6885  35.120  30.569   0.325
40345W        W 6886   8.571  42.768   4.782
40346W        W 6887  34.812   2.447  12.119
40347W        W 6888   4.814  16.800  11.634
40348W        W 6889  43.085   6.409  11.436
40349W        W 6890   7.075   2.337   4.069
40350W        W 6891  26.074  26.870   1.323
40351W        W 6892  20.524  29.195   3.729
40352W        W 6893  30.670  35.152   3.610
40353W        W 6894  23.964  22.529   3.749
40354W        W 6895   4.892  11.675   2.169
40355W        W 6896  39.856  22.163   0.238
40356W        W 6897   4.304  35.742  11.599
40357W        W 6898  21.778  29.959   1.893
40358W        W 6899  43.513  27.364   0.419
40359W        W 6900  29.850  20.243  14.535
40360W        W 6901   2.962  44.864   0.452
40361W        W 6902  33.109   9.951   2.208
40362W        W 6903  21.189  28.944   0.839
40363W        W 6904  13.564  14.430   0.512
40364W        W 6905  16.167  43.114   2.427
40365W        W 6906  44.267  18.174   2.733
40366W        W 6907  33.616  34.291   4.639
40367W        W 6908   8.901  16.395   0.436
40368W        W 6909  10.716  17.813   3.869
40369W        W 6910  25.690  24.333  14.447
40370W        W 6911  16.763  22.266  14.768
40371W        W 6912   0.047  38.649  13.980
40372W        W 6913  11.957  43.592  11.651
40373W        W 6914  13.614  26.604  10.721
40374W        W 6915  16.702  38.293  11.144
40375W        W 6916   8.107  31.610  13.547
40376W        W 6917   1.322  15.702   0.901
40377W        W 6918  40.362  28.861   1.760
40378W        W 6919   2.779   4.893  12.895
40379W        W 6920  27.995   8.476  14.688
40380W        W 6921   6.958  15.330   2.631
40381W        W 6922  11.395  14.229  14.610
40382W        W 6923  44.374  14.305   2.937
40383W        W 6924  30.155  35.842  14.301
40384W        W 6925  38.492   9.225  13.958
40385W        W 6926   3.149  19.082  14.012
40386W        W 6927  15.267  32.968   4.437
40387W        W 6928  44.689  37.005   4.893
40388W        W 6929  13.115   3.128   2.641
40389W        W 6930   2.845  16.074  10.508
40390W        W 6931  37.814  23.465   0.409
40391W        W 6932   2.340  22.231  14.296
40392W        W 6933  24.965  40.181   1.678
40393W        W 6934  32.000   5.804  11.202
40394W        W 6935   8.901  37.425  14.575
40395W        W 6936  15.903  25.992  12.488
40396W        W 6937  15.284  31.452   4.564
40397W        W 6938  39.600  28.987   2.221
40398W        W 6939  27.901  11.161  11.587
40399W        W 6940  19.752  27.881   0.776
40400W        W 6941  42.255  33.630  13.452
40401W        W 6942  37.974   2.046  11.574
40402W        W 6943  23.451  21.138  11.164
40403W        W 6944  14.049  36.462   0.904
40404W        W 6945  43.304  12.439  10.010
40405W        W 6946  25.744  12.616  11.352
40406W        W 6947  21.135   8.738  11.188
40407W        W 6948  15.181  10.361  10.893
40408W        W 6949  25.240  11.546  14.837
40409W        W 6950  44.629  26.012  13.088
40410W        W 6951  13.448  20.275   4.352
40411W        W 6952  18.242  22.017   0.952
40412W        W 6953   8.507  44.341   0.969
40413W        W 6954   0.648  32.747  10.425
40414W        W 6955  25.560  39.320  12.663
40415W        W 6956   9.275  15.437   4.494
40416W        W 6957  31.010  29.217  14.352
40417W        W 6958  16.062  12.665   2.388
40418W        W 6959  15.171  39.093   1.265
40419W        W 6960  40.499   7.928  10.579
40420W        W 6961  24.059  17.897   0.390
40421W        W 6962  32.017   2.407   0.364
40422W        W 6963   7.101  32.291   1.791
40423W        W 6964   3.537  19.810  10.557
40424W        W 6965  13.422  44.527  11.637
40425W        W 6966  11.825  27.479  10.640
40426W        W 6967  43.096  38.002  11.187
40427W        W 6968   1.632  30.332   4.954
40428W        W 6969   6.268   7.859   3.835
40429W        W 6970  44.761  18.284   2.780
40430W        W 6971  19.271  10.634   2.975
40431W        W 6972  16.028  30.253  12.923
40432W        W 6973  31.139  15.782  12.262
40433W        W 6974  26.173  33.426  10.710
40434W        W 6975  12.148   0.932   1.394
40435W        W 6976  37.257  17.000   1.740
40436W        W 6977  28.066   3.761  13.852
40437W        W 6978  25.274   7.748   4.986
40438W        W 6979  33.944  18.302  14.976
40439W        W 6980  35.110  39.898  13.956
40440W        W 6981   8.566   7.783   0.357
40441W        W 6982   1.844  44.017  13.490
40442W        W 6983  14.379  42.751   1.696
40443W        W 6984  34.794  42.934   3.739
40444W        W 6985  33.138   6.428   2.762
40445W        W 6986  14.557  41.802  14.978
40446W        W 6987  35.508  27.738  10.706
40447W        W 6988   5.264  21.006   1.384
40448W        W 6989  38.670  32.415  11.493
40449W        W 6990   8.545  44.256  12.511
40450W        W 6991  30.024   6.100  11.767
40451W        W 6992  22.239   3.698  14.355
40452W        W 6993  20.697   9.968  13.430
40453W        W 6994  12.602   4.002  11.220
40454W        W 6995   4.069  29.183  12.794
40455W        W 6996  23.464  42.530   3.634
40456W        W 6997  44.502  42.519   5.379
40457W        W 6998  16.767  11.384  13.342
40458W        W 6999  21.241  13.095   2.262
40459W        W 7000  37.530  23.007   0.856
40460W        W 7001  38.013   8.969  13.933
40461W        W 7002  21.268  38.634  11.660
40462W        W 7003  14.826  44.630  14.282
40463W        W 7004  26.852  12.401  12.068
40464W        W 7005  26.601   4.729  11.552
40465W        W 7006   8.294  37.936   3.587
40466W        W 7007  34.128   3.544   3.150
40467W        W 7008  41.392  18.801   1.214
40468W        W 7009  43.835  34.665   2.765
40469W        W 7010  38.320  32.551   2.406
40470W        W 7011  19.399  16.893  12.021
40471W        W 7012   5.949  21.516  14.886
40472W        W 7013  12.716  25.167   4.197
40473W        W 7014  21.613  27.054   1.648
40474W        W 7015  37.426  12.210  11.485
40475W        W 7016  10.265  44.343   3.684
40476W        W 7017  41.968  21.547   0.629
40477W        W 7018  29.852  38.359  11.986
40478W        W 7019  15.608  14.713  12.745
40479W        W 7020  13.229  31.563  14.726
40480W        W 7021  10.704  43.519  12.666
40481W        W 7022  16.423  17.322   3.691
40482W        W 7023   2.013  33.623   0.893
40483W        W 7024  34.010  42.328   1.298
40484W        W 7025  24.019  37.308   4.545
40485W        W 7026  15.928   1.171   3.428
40486W        W 7027  29.560  40.160   2.466
40487W        W 7028  11.453  32.588   0.892
40488W        W 7029   4.657  38.582   4.173
40489W        W 7030  19.771  21.811   0.223
40490W        W 7031   8.200   8.741  13.553
40491W        W 7032  23.959  29.994  13.124
40492W        W 7033  34.528  40.809   2.213
40493W        W 7034  33.002  26.742   2.495
40494W        W 7035  43.203  22.181   4.115
40495W        W 7036  42.294  31.407  12.615
40496W        W 7037  30.719   1.918   5.153
40497W        W 7038   1.355  28.245   3.181
40498W        W 7039  33.381  18.142   1.749
40499W        W 7040  22.952   1.448  13.856
40500W        W 7041  25.782  23.465  14.709
40501W        W 7042  14.033  38.258   0.722
40502W        W 7043  42.203   7.194   0.524
40503W        W 7044  29.257  43.810   3.721
40504W        W 7045   9.811   5.312  14.193
40505W        W 7046  10.815   0.703   2.697
40506W        W 7047  35.778  12.363   3.151
40507W        W 7048   7.323  14.106   2.894
40508W        W 7049  25.967  28.612   2.683
40509W        W 7050  18.126   7.686  10.599
40510W        W 7051  41.781  15.703   1.140
40511W        W 7052  27.895  36.453   3.589
40512W        W 7053  14.726  24.273  11.430
40513W        W 7054  38.123   1.093   4.007
40514W        W 7055  10.015  38.524   3.194
40515W        W 7056  38.568  28.474  14.020
40516W        W 7057   1.380   3.708   1.840
40517W        W 7058  25.524  18.336   4.133
40518W        W 7059  11.316  37.776   1.283
40519W        W 7060  21.291   9.695   1.638
40520W        W 7061  17.054   8.876   2.623
40521W        W 7062  13.816  11.624   3.539
40522W        W 7063  39.371  36.875  13.008
40523W        W 7064   1.828  34.498   3.520
40524W        W 7065  35.010   3.493   3.428
40525W        W 7066  12.608   8.854  12.003
40526W        W 7067  44.830   2.668   3.188
40527W        W 7068  26.197  35.971   2.866
40528W        W 7069  43.857  18.246   4.200
40529W        W 7070  42.753   9.035  12.016
40530W        W 7071  14.025   8.557   4.526
40531W        W 7072  38.598  26.751   3.353
40532W        W 7073  35.501   2.695   0.334
40533W        W 7074   6.520  27.299  13.896
40534W        W 7075   5.884  33.134   5.024
40535W        W 7076   7.832  44.050   3.363
40536W        W 7077  38.199   9.520   3.200
40537W        W 7078  40.014  36.071   3.746
40538W        W 7079  27.988   5.167   3.613
40539W        W 7080  14.626  20.000  12.928
40540W        W 7081  43.988  35.460  11.101
40541W        W 7082  40.037  13.574   3.156
40542W        W 7083  28.648  35.610   0.908
40543W        W 7084  28.270   6.788   2.722
40544W        W 7085  13.561   0.681  11.132
40545W        W 7086  30.333  38.932   3.079
40546W        W 7087   1.249  28.393  14.059
40547W        W 7088   7.576  19.029  12.098
40548W        W 7089  43.444  21.031   0.676
40549W        W 7090  21.644  37.613   3.953
40550W        W 7091  13.371  30.124   3.280
40551W        W 7092   0.274  34.725  14.942
40552W        W 7093  14.029  26.673  13.194
40553W        W 7094  28.690  25.191   3.663
40554W        W 7095   9.133   7.374   0.858
40555W        W 7096   2.549   5.884   4.488
40556W        W 7097  14.469   3.471   5.086
40557W        W 7098   0.944  41.484  13.999
40558W        W 7099  29.169  16.795  13.161
40559W        W 7100  23.033  34.814  13.798
40560W        W 7101  12.326   4.417   4.292
40561W        W 7102  33.889   3.879   2.779
40562W        W 7103  27.782  25.635   4.072
40563W        W 7104  26.441  43.828  11.566
40564W        W 7105  12.131  16.610  10.378
40565W        W 7106  20.318  30.152  10.931
40566W        W 7107  19.527  11.647  10.186
40567W        W 7108  37.991  27.429   0.879
40568W        W 7109   8.878  17.332   1.342
40569W        W 7110   0.453   8.320   4.745
40570W        W 7111  28.506  29.576  11.478
40571W        W 7112  23.715   3.904   2.740
40572W        W 7113  33.909  13.693   2.887
40573W        W 7114  41.055   8.704   2.284
40574W        W 7115  43.543  42.302   2.839
40575W        W 7116   1.456  36.962  13.437
40576W        W 7117  41.782  42.226  13.784
40577W        W 7118  20.011  14.830   0.072
40578W        W 7119   4.879  42.695  11.334
40579W        W 7120  10.745  39.319  11.980
40580W        W 7121   7.969  18.228  12.142
40581W        W 7122  26.936  10.653  13.339
40582W        W 7123  14.011  42.934  12.464
40583W        W 7124   3.398  11.331  10.741
40584W        W 7125  10.240   6.638  10.551
40585W        W 7126  32.983  15.628   0.316
40586W        W 7127  20.233  18.892  13.572
40587W        W 7128   2.502  23.231   0.794
40588W        W 7129  37.612  18.746  12.266
40589W        W 7130  20.999   1.000  12.798
40590W        W 7131   5.737   8.678   3.489
40591W        W 7132  27.723  32.317   0.634
40592W        W 7133  12.905  43.932   0.300
40593W        W 7134  32.713  25.574   0.898
40594W        W 7135   5.219  20.750   0.920
40595W        W 7136  38.156  38.585   0.194
40596W        W 7137   5.291   5.672  11.539
40597W        W 7138  37.347   9.472  14.287
40598W        W 7139  10.186   3.414  12.710
40599W        W 7140  13.509  33.051  12.143
40600W        W 7141  10.864  35.123  14.388
40601W        W 7142   5.968  31.555   2.163
40602W        W 7143  20.647  16.137   3.821
40603W        W 7144  22.229  39.081   1.961
40604W        W 7145   3.467  30.411  12.324
40605W        W 7146  42.939  32.639   2.497
40606W        W 7147  13.630  40.782  10.700
40607W        W 7148  15.082  15.127  11.347
40608W        W 7149  13.929  11.204  10.722
40609W        W 7150  36.738  35.568   2.636
40610W        W 7151  34.330   4.398   4.602
40611W        W 7152   9.801  40.569   3.099
40612W        W 7153  20.573   6.356   0.452
40613W        W 7154  28.101  15.273  13.233
40614W        W 7155  11.341  24.460  13.346
40615W        W 7156  39.857  38.035  12.055
40616W        W 7157   6.291  30.042  10.466
40617W        W 7158  43.380  18.169   4.419
40618W        W 7159  43.598  19.859   1.863
40619W        W 7160  27.127  37.842  12.685
40620W        W 7161  38.296   6.408   3.404
40621W        W 7162  24.730   5.420  12.832
40622W        W 7163  43.681   5.512  13.530
40623W        W 7164  43.329   8.189  12.069
40624W        W 7165   9.242   0.947  11.225
40625W        W 7166  24.334   8.939   2.301
40626W        W 7167   3.616  41.531  14.776
40627W        W 7168  39.041  44.950   3.147
40628W        W 7169   5.139   9.590   2.764
40629W        W 7170  28.928  19.178   3.708
40630W        W 7171  15.875  37.922   4.062
40631W        W 7172  19.010  33.139   2.748
40632W        W 7173   1.240  10.118  11.870
40633W        W 7174  25.205  20.247  14.826
40634W        W 7175  31.248   7.278   3.852
40635W        W 7176   9.707  38.027  10.639
40636W        W 7177  32.205  15.697   4.225
40637W        W 7178  30.279  25.759   2.713
40638W        W 7179   5.359  35.171  13.000
40639W        W 7180   4.542  32.043  10.568
40640W        W 7181  11.581  22.961   2.676
40641W        W 7182  20.564  24.619  11.321
40642W        W 7183  20.111  18.893   3.971
40643W        W 7184  16.820  16.219   3.691
40644W        W 7185  25.541  23.919  11.550
40645W        W 7186   4.093   8.766   3.264
40646W        W 7187  10.383   6.964  14.402
40647W        W 7188   4.285  27.651   1.503
40648W        W 7189   9.135  21.934   0.526
40649W        W 7190  22.130  27.383   3.598
40650W        W 7191  32.479   6.730  11.928
40651W        W 7192  38.645  27.132  12.486
40652W        W 7193   3.699   8.259  14.921
40653W        W 7194  20.984  12.680  11.722
40654W        W 7195  44.467  39.403  12.378
40655W        W 7196  31.717  28.172   0.496
40656W        W 7197  12.489   6.775   1.857
40657W        W 7198  16.298   1.331   3.053
40658W        W 7199  28.037  35.027  14.999
40659W        W 7200  10.471   1.855   4.949
40660W        W 7201  30.016   0.661   4.798
40661W        W 7202  34.501  23.708  13.427
40662W        W 7203  13.855   7.415   1.190
40663W        W 7204  12.862  12.387  11.492
40664W        W 7205   4.784  26.183   3.050
40665W        W 7206  18.365   8.740  13.356
40666W        W 7207   0.794  39.855  14.388
40667W        W 7208  10.958  16.605  11.436
40668W        W 7209  11.630  34.247   3.154
40669W        W 7210  13.274  25.615   4.757
40670W        W 7211   9.256   4.471  13.496
40671W        W 7212  42.119  33.041   4.858
40672W        W 7213  36.963  40.259   0.308
40673W        W 7214  17.279  10.683  13.180
40674W        W 7215   1.995   8.003  13.084
40675W        W 7216   7.781  33.559   3.573
40676W        W 7217   4.654  37.897  11.177
40677W        W 7218  27.595   1.533  12.904
40678W        W 7219  20.093  11.824  13.184
40679W        W 7220  25.517  44.810   1.308
40680W        W 7221  38.983   6.322   1.428
40681W        W 7222   0.558  37.999  10.529
40682W        W 7223  26.764   0.348  13.063
40683W        W 7224  25.036  23.046   0.045
40684W        W 7225  10.474   3.843   2.799
40685W        W 7226  22.236   9.390  14.950
40686W        W 7227  10.615   6.469   0.283
40687W        W 7228   4.716  43.430   3.698
40688W        W 7229  20.682   8.147   2.127
40689W        W 7230  44.356  44.290   3.295
40690W        W 7231   4.710  17.684  13.661
40691W        W 7232   8.735  20.045   3.947
40692W        W 7233  28.199  18.326  13.817
40693W        W 7234   4.438  15.626  13.423
40694W        W 7235  22.183   4.872   0.409
40695W        W 7236  26.619   9.168  11.840
40696W        W 7237   9.187  16.636  11.230
40697W        W 7238   6.396  12.062  13.931
40698W        W 7239  35.492  28.898   0.460
40699W        W 7240   3.714  35.445   3.624
40700W        W 7241  32.230  21.234   0.914
40701W        W 7242   2.439   5.757  14.921
40702W        W 7243  10.645  26.568   0.865
40703W        W 7244   2.320  35.376   2.825
40704W        W 7245   0.890  28.411  12.840
40705W        W 7246  42.972  28.239   2.233
40706W        W 7247  22.043  25.804  10.981
40707W        W 7248  18.290  34.903   4.611
40708W        W 7249  36.098  31.363  13.945
40709W        W 7250  35.052  19.985  13.933
40710W        W 7251  37.025  25.923   0.773
40711W        W 7252  40.788  26.150   2.731
40712W        W 7253  17.966  12.903  10.232
40713W        W 7254   2.402   9.619   4.234
40714W        W 7255  30.606  33.448  13.970
40715W        W 7256  30.858   8.819  11.589
40716W        W 7257  37.833  42.115   3.317
40717W        W 7258  25.417   8.736   0.343
40718W        W 7259  14.995  34.204  14.034
40719W        W 7260  33.178  35.098  14.619
40720W        W 7261  10.729   3.399   2.586
40721W        W 7262  36.670   0.599  11.528
40722W        W 7263  15.555  34.508  13.294
40723W        W 7264  43.519  10.903  11.199
40724W        W 7265  39.354  31.551  10.434
40725W        W 7266   4.896   4.313  12.802
40726W        W 7267   1.328  19.359  14.709
40727W        W 7268   7.397  15.086   1.940
40728W        W 7269  43.069  21.218   4.308
40729W        W 7270  28.592   0.974   4.219
40730W        W 7271  21.211  28.783  11.616
40731W        W 7272  29.437   7.817  10.775
40732W        W 7273  11.581   7.461  12.133
40733W        W 7274   6.767  10.922  13.578
40734W        W 7275  22.998  14.340   3.344
40735W        W 7276  41.864  39.565   4.897
40736W        W 7277   1.855  33.369  14.161
40737W        W 7278  10.414   2.287  14.347
40738W        W 7279  22.353   0.757  10.683
40739W        W 7280   9.150  37.429   4.769
40740W        W 7281   3.952  24.134   1.004
40741W        W 7282  41.651   0.329  10.908
40742W        W 7283  13.130  12.802   2.402
40743W        W 7284  36.670   7.173  11.901
40744W        W 7285  26.016  40.330  12.954
40745W        W 7286   1.432  38.754   1.417
40746W        W 7287  27.038   5.032  11.170
40747W        W 7288  18.744  32.573  14.439
40748W        W 7289  16.430   6.002  13.091
40749W        W 7290   8.904   4.375  11.580
40750W        W 7291   0.100   9.905   2.812
40751W        W 7292   1.495  35.576  13.804
40752W        W 7293  21.176   4.207   1.566
40753W        W 7294  29.020  21.674  13.165
40754W        W 7295  21.036  15.821   0.239
40755W        W 7296  42.723   0.854   3.224
40756W        W 7297  42.643   5.848   2.121
40757W        W 7298  14.999  42.345  14.439
40758W        W 7299  17.112  28.602   2.754
40759W        W 7300  16.223  38.369   2.756
40760W        W 7301  37.235  16.318   4.306
40761W        W 7302  28.568  44.877   1.824
40762W        W 7303  23.467  20.762   1.344
40763W        W 7304  35.555  41.536   2.691
40764W        W 7305  36.698  43.748  11.375
40765W        W 7306  34.844  25.518  13.423
40766W        W 7307  24.145  20.506   2.405
40767W        W 7308  44.096  38.879   3.845
40768W        W 7309  17.589  41.572  12.293
40769W        W 7310  40.897   5.254   2.629
40770W        W 7311   0.867   1.546   1.406
40771W        W 7312  40.981   4.505  13.718
40772W        W 7313  36.273   3.643   3.681
40773W        W 7314  30.936  10.759   0.544
40774W        W 7315  37.020  42.538  12.785
40775W        W 7316  22.826  41.974  11.032
40776W        W 7317  36.837  24.207  14.893
40777W        W 7318  20.589  30.896   1.688
40778W        W 7319  41.185  26.226  14.762
40779W        W 7320  18.732  19.351   1.605
40780W        W 7321  21.662  37.013   1.431
40781W        W 7322  20.084  41.271  11.150
40782W        W 7323  41.855  44.368   1.186
40783W        W 7324  13.648  23.442   2.894
40784W        W 7325  38.019   8.179  13.404
40785W        W 7326  26.683  22.695  13.936
40786W        W 7327  22.299  41.843  10.646
40787W        W 7328  21.448  18.038   5.412
40788W        W 7329   9.278  10.396   2.620
40789W        W 7330  44.335  30.188  13.959
40790W        W 7331  22.209  19.405  12.143
40791W        W 7332  23.070   3.229   1.764
40792W        W 7333  22.363  44.505  13.931
40793W        W 7334  31.673  31.457  11.800
40794W        W 7335  19.535  31.414  12.064
40795W        W 7336  11.837   6.982  11.161
40796W        W 7337  28.176  23.070  14.841
40797W        W 7338  19.209  40.256  11.116
40798W        W 7339   2.194  44.000   1.937
40799W        W 7340  34.553  24.288  14.502
40800W        W 7341   8.790  36.405  11.198
40801W        W 7342  38.265  17.207   0.952
40802W        W 7343  16.116  42.782   0.530
40803W        W 7344  12.603   0.223  14.018
40804W        W 7345  36.200   9.868   4.381
40805W        W 7346   2.713  16.763   0.402
40806W        W 7347  20.221  39.887  14.820
40807W        W 7348  35.603  17.662  14.205
40808W        W 7349  15.049  11.213   0.373
40809W        W 7350   6.926  26.934   1.467
40810W        W 7351  31.055  32.412   4.046
40811W        W 7352  32.922  34.110   2.813
40812W        W 7353  14.602  34.912   2.688
40813W        W 7354  28.963  40.337   3.668
40814W        W 7355  23.030   0.894   0.733
40815W        W 7356  33.000  41.947   3.800
40816W        W 7357  20.152   3.452   0.992
40817W        W 7358  22.751   6.676  12.815
40818W        W 7359  20.257  35.880   5.084
40819W        W 7360  28.880  16.583   1.230
40820W        W 7361  28.047  25.912   3.699
40821W        W 7362  11.886  37.651  12.133
40822W        W 7363   4.337  26.192  13.404
40823W        W 7364   2.338  14.098  13.435
40824W        W 7365  27.981  17.190   2.321
40825W        W 7366  22.292   7.776   2.816
40826W        W 7367  37.265  11.373   4.832
40827W        W 7368  44.312  15.149   4.382
40828W        W 7369  36.325  14.748   3.669
40829W        W 7370  42.094  39.431  14.301
40830W        W 7371   0.912  13.753  12.574
40831W        W 7372   9.463  12.274  11.391
40832W        W 7373  16.268  25.302   4.104
40833W        W 7374  20.683   0.835  11.537
40834W        W 7375   5.251  42.684   3.824
40835W        W 7376  44.727  15.929  10.467
40836W        W 7377  33.936  39.081   0.021
40837W        W 7378  16.608  22.452   0.238
40838W        W 7379   4.911  10.410   3.978
40839W        W 7380  18.791   1.798  14.761
40840W        W 7381   2.270   5.698  13.930
40841W        W 7382  30.123  32.367   4.769
40842W        W 7383  40.431  44.442   0.019
40843W        W 7384  11.096   6.207  13.421
40844W        W 7385  20.470   4.315  11.593
40845W        W 7386   9.895  42.451  13.451
40846W        W 7387   6.865  37.436   4.141
40847W        W 7388  41.466   2.214  11.615
40848W        W 7389  31.490  41.893  14.339
40849W        W 7390  23.356   8.248   1.808
40850W        W 7391   9.906  42.405   1.889
40851W        W 7392  29.356  24.751  12.098
40852W        W 7393  35.349  35.172  14.080
40853W        W 7394   2.254   9.925   3.353
40854W        W 7395   1.649  39.345  11.309
40855W        W 7396  38.416   9.902  12.904
40856W        W 7397  32.100  27.442  10.693
40857W        W 7398   2.384  30.313  11.321
40858W        W 7399   3.177  32.573  14.583
40859W        W 7400  15.230  35.959   0.310
40860W        W 7401   9.203  12.034  11.789
40861W        W 7402  29.612  34.436   0.387
40862W        W 7403  24.780  40.364   2.140
40863W        W 7404   8.116  25.534   3.755
40864W        W 7405  14.098   5.749  11.214
40865W        W 7406   9.118  18.343  14.925
40866W        W 7407  39.442  12.950  12.056
40867W        W 7408  25.170  41.748   4.952
40868W        W 7409  15.355  10.841  12.144
40869W        W 7410  42.437   0.030  11.613
40870W        W 7411  30.638  31.019   1.324
40871W        W 7412   4.816  27.155  13.952
40872W        W 7413  30.970  23.740   0.270
40873W        W 7414  43.706   0.267   4.653
40874W        W 7415  18.698  39.563   2.468
40875W        W 7416  14.491   2.975  12.591
40876W        W 7417  27.582  42.383  14.952
40877W        W 7418  33.097  19.267  12.072
40878W        W 7419   5.643  29.176  12.976
40879W        W 7420  44.328  12.377  12.557
40880W        W 7421  44.884  41.339   4.015
40881W        W 7422  12.131  39.870   2.284
40882W        W 7423  41.515  28.210  12.071
40883W        W 7424   6.666   5.662   4.087
40884W        W 7425  27.440  14.409  13.943
40885W        W 7426  23.179  31.165  13.589
40886W        W 7427  42.618  37.348  14.005
40887W        W 7428  11.377   3.462  13.914
40888W        W 7429  30.249  39.294   0.349
40889W        W 7430  37.717  13.678   9.761
40890W        W 7431   8.402  12.584  11.046
40891W        W 7432  25.961  14.167   2.861
40892W        W 7433  35.837  13.308   3.508
40893W        W 7434  11.278  15.388  12.419
40894W        W 7435  30.145  12.460   1.752
40895W        W 7436  26.209   5.052   3.676
40896W        W 7437  32.670  14.300   4.305
40897W        W 7438  41.393  39.352  11.598
40898W        W 7439  11.614   1.824  12.445
40899W        W 7440  41.228  10.310  14.304
40900W        W 7441  42.972  30.599  14.415
40901W        W 7442  17.006   4.900  12.860
40902W        W 7443  22.555  14.053  11.696
40903W        W 7444  41.096  43.423   0.464
40904W        W 7445  29.893  26.252   0.348
40905W        W 7446  34.577  23.936  10.738
40906W        W 7447  21.468  23.208   2.173
40907W        W 7448  36.877   7.051  13.052
40908W        W 7449   7.854  17.311  14.019
40909W        W 7450   3.941   3.328  10.220
40910W        W 7451  20.258  33.066   2.343
40911W        W 7452   6.304  17.288   4.113
40912W        W 7453  13.195   2.170   4.386
40913W        W 7454  26.696  18.507   3.728
40914W        W 7455  36.398  30.886   2.227
40915W        W 7456  37.470  15.157  14.969
40916W        W 7457  38.027  19.111  13.016
40917W        W 7458  44.838  37.454   3.551
40918W        W 7459  40.250  34.043  13.419
40919W        W 7460   6.183  41.410  11.059
40920W        W 7461  15.661   4.514  10.618
40921W        W 7462  33.296  20.965  12.563
40922W        W 7463   3.396   7.802  10.413
40923W        W 7464  22.496  12.983  10.307
40924W        W 7465  14.863  14.580  14.852
40925W        W 7466   0.829  43.586   3.185
40926W        W 7467  31.562   2.199   1.368
40927W        W 7468  28.548  22.872  12.810
40928W        W 7469  14.209  12.151   2.053
40929W        W 7470  42.934  36.754   3.203
40930W        W 7471  30.449  26.011   4.730
40931W        W 7472  27.600  37.310   1.258
40932W        W 7473  14.019  12.394   3.552
40933W        W 7474  17.009  24.350   1.691
40934W        W 7475   9.999   7.001   3.877
40935W        W 7476  32.886  40.791  10.664
40936W        W 7477  13.317  15.219  12.522
40937W        W 7478  29.940  44.323   4.759
40938W        W 7479  43.321  13.550  12.978
40939W        W 7480  34.405   7.735   1.314
40940W        W 7481  41.260  22.703   2.310
40941W        W 7482  32.607  17.663  13.977
40942W        W 7483  14.377  21.078  12.154
40943W        W 7484  34.887  30.927  14.125
40944W        W 7485  44.987  14.459   1.374
40945W        W 7486  40.276   6.464  12.881
40946W        W 7487  31.885  37.349   4.832
40947W        W 7488  40.039  11.523  10.241
40948W        W 7489  19.748  15.049  12.099
40949W        W 7490  14.665   6.809   3.269
40950W        W 7491  12.850  43.262  12.477
40951W        W 7492   0.237  28.507   2.261
40952W        W 7493  21.340  33.484   3.606
40953W        W 7494   2.045  31.557   3.114
40954W        W 7495  24.534  21.031  13.915
40955W        W 7496   0.442  12.897  10.881
40956W        W 7497  22.627  19.372   1.884
40957W        W 7498   3.707   2.940   0.607
40958W        W 7499   8.950  29.036   4.485
40959W        W 7500  42.551  34.349  13.010
40960W        W 7501  44.314   5.227  11.544
40961W        W 7502   5.418   8.187  14.429
40962W        W 7503  10.425  38.285   1.442
40963W        W 7504  16.001  12.804  10.024
40964W        W 7505  39.899   5.183  14.245
40965W        W 7506  24.120   6.359   0.879
40966W        W 7507   0.807  38.418   2.386
40967W        W 7508   3.277  40.309   1.172
40968W        W 7509  40.485  41.566   4.622
40969W        W 7510  27.231  23.814  12.048
40970W        W 7511  20.854  28.154  11.232
40971W        W 7512  14.351   8.348   2.328
40972W        W 7513  30.563  16.825   2.766
40973W        W 7514  42.537  43.696  14.107
40974W        W 7515  39.786  35.147  14.542
40975W        W 7516  36.331   1.022   1.791
40976W        W 7517  14.124  30.941   3.002
40977W        W 7518   4.696  17.849   2.690
40978W        W 7519  26.323  26.110   2.711
40979W        W 7520  37.992  13.363   0.004
40980W        W 7521   5.326  12.279   0.154
40981W        W 7522  23.575   1.854   4.497
40982W        W 7523  23.670  22.952  12.762
40983W        W 7524  30.309  33.785  12.021
40984W        W 7525  21.976  39.351   4.373
40985W        W 7526   3.297  29.162   2.815
40986W        W 7527  25.950  10.745  14.719
40987W        W 7528  36.378  26.952  13.325
40988W        W 7529  31.908  38.069   1.885
40989W        W 7530  24.256  11.807   3.637
40990W        W 7531  34.355   9.786   0.314
40991W        W 7532  42.375  33.179  12.615
40992W        W 7533  23.316  26.214   4.831
40993W        W 7534  20.110   3.314  14.449
40994W        W 7535  18.805  30.768   2.757
40995W        W 7536   9.397  28.222   2.710
40996W        W 7537  12.150   2.971  14.778
40997W        W 7538  40.053  19.060  13.029
40998W        W 7539  27.200  34.128  14.357
40999W        W 7540  42.533  13.796  14.238
41000W        W 7541  31.073  38.459   0.672
41001W        W 7542  35.639  33.593  11.942
41002W        W 7543  41.931  14.210   2.311
41003W        W 7544  22.120   6.935   1.000
41004W        W 7545  13.757  26.585   4.462
41005W        W 7546   9.944  14.279  10.427
41006W        W 7547  10.342   8.428  13.056
41007W        W 7548  18.754  17.349  11.700
41008W        W 7549   6.065  12.335  11.540
41009W        W 7550   3.294  43.351   1.394
41010W        W 7551  39.852   5.523  12.522
41011W        W 7552  26.848  21.520  13.586
41012W        W 7553  16.190   4.189   4.041
41013W        W 7554   5.340  39.328  10.752
41014W        W 7555  19.788  40.268  13.595
41015W        W 7556  18.975  27.675  10.578
41016W        W 7557  43.365   8.918   3.063
41017W        W 7558  19.404  16.343   2.498
41018W        W 7559  36.773  12.179  11.084
41019W        W 7560  24.690  19.956   3.849
41020W        W 7561   1.378   9.351   4.639
41021W        W 7562  11.767  37.512  14.094
41022W        W 7563  26.056  40.068  13.438
41023W        W 7564  36.326   0.401  12.651
41024W        W 7565   6.298   1.906  12.111
41025W        W 7566   1.683  34.987  12.167
41026W        W 7567  15.792  17.127  10.663
41027W        W 7568  44.679  40.952   3.211
41028W        W 7569  10.398   8.930   0.943
41029W        W 7570  15.582  26.536   5.437
41030W        W 7571  19.480  15.364   4.560
41031W        W 7572  26.518  25.959  13.570
41032W        W 7573  34.923  11.895  14.918
41033W        W 7574   6.772  15.486  13.224
41034W        W 7575  16.319  17.292  13.378
41035W        W 7576   6.405  38.367   4.927
41036W        W 7577  44.748  23.680  13.509
41037W        W 7578   0.911  24.436  11.877
41038W        W 7579  41.263  27.202   0.030
41039W        W 7580  12.883  16.227  13.979
41040W        W 7581   0.791   2.957   2.550
41041W        W 7582  33.672  31.179   1.606
41042W        W 7583  30.600  31.637  14.833
41043W        W 7584  34.922  34.069   2.714
41044W        W 7585  30.493  31.994   4.591
41045W        W 7586  26.982  22.069   2.707
41046W        W 7587  41.615  24.078   3.656
41047W        W 7588  39.779  10.173  11.678
41048W        W 7589  19.195   3.284   1.470
41049W        W 7590   3.908  33.317   2.751
41050W        W 7591   9.365  23.452   4.591
41051W        W 7592  17.073  17.690   2.909
41052W        W 7593  28.661   2.578   3.620
41053W        W 7594  29.436  41.306  13.305
41054W        W 7595  11.894  27.947   2.808
41055W        W 7596  25.629  21.255  14.177
41056W        W 7597  11.880  18.232  13.386
41057W        W 7598  17.021  10.407   2.385
41058W        W 7599   6.368  33.665   3.357
41059W        W 7600  13.598  29.058   1.927
41060W        W 7601  38.271  40.811   4.604
41061W        W 7602  29.042  28.873  13.279
41062W        W 7603  14.093  36.017   1.943
41063W        W 7604  22.263  21.045   3.675
41064W        W 7605  37.335  34.516  12.848
41065W        W 7606  30.515   1.781   0.840
41066W        W 7607  35.112   5.924   1.864
41067W        W 7608  34.604  38.893  13.578
41068W        W 7609  28.693  44.794   3.198
41069W        W 7610  28.055  33.878   4.690
41070W        W 7611   1.772   8.863  12.919
41071W        W 7612  13.812  42.921   0.368
41072W        W 7613  37.936  10.896   1.464
41073W        W 7614  41.380  42.421  12.901
41074W        W 7615  29.395   0.538   4.299
41075W        W 7616  28.480  32.201  13.913
41076W        W 7617  43.333  12.903   2.737
41077W        W 7618  25.074  19.972   0.251
41078W        W 7619  27.046  11.647   4.482
41079W        W 7620  38.786  12.353  10.608
41080W        W 7621  30.065  23.975   0.365
41081W        W 7622  38.779  41.012  12.345
41082W        W 7623  34.509  28.710  13.839
41083W        W 7624  32.118  18.599   4.108
41084W        W 7625  35.091  43.340   3.630
41085W        W 7626  34.969   7.303   0.490
41086W        W 7627  17.821  26.578  12.886
41087W        W 7628  30.148  34.935  13.993
41088W        W 7629   8.910  18.866   2.567
41089W        W 7630   6.516  19.256  11.125
41090W        W 7631  11.338  29.102   1.788
41091W        W 7632   7.843  43.332  13.870
41092W        W 7633  18.819  32.379   1.831
41093W        W 7634  36.257   7.110  11.112
41094W        W 7635   4.230  34.983   4.593
41095W        W 7636  33.519   4.155   1.825
41096W        W 7637  40.034  20.214   2.080
41097W        W 7638  35.437  27.461  13.977
41098W        W 7639   2.337  25.076   0.429
41099W        W 7640  34.596   8.166   3.641
41100W        W 7641   9.867  22.235   2.836
41101W        W 7642  43.757   9.655   4.573
41102W        W 7643   7.006  16.281   4.911
41103W        W 7644   9.641   2.570   3.310
41104W        W 7645  22.942   1.385   3.371
41105W        W 7646  16.974  24.533   4.951
41106W        W 7647  13.719  42.778  12.875
41107W        W 7648  20.298  25.183   4.478
41108W        W 7649  37.055  44.592  14.929
41109W        W 7650   2.799  27.645   1.280
41110W        W 7651   3.411  27.267   3.510
41111W        W 7652  22.386  17.157  11.633
41112W        W 7653  31.925  24.259  11.998
41113W        W 7654  26.659   0.359  11.245
41114W        W 7655  39.397  25.214   4.113
41115W        W 7656   6.670   4.319  13.803
41116W        W 7657  24.960  12.341  13.410
41117W        W 7658  36.802  14.627   3.474
41118W        W 7659  42.255  40.058  10.932
41119W        W 7660  43.439   3.683   0.571
41120W        W 7661  41.772   9.120   3.555
41121W        W 7662  25.744  16.022   1.809
41122W        W 7663   2.167   6.246   2.731
41123W        W 7664  31.317  26.097   2.224
41124W        W 7665  42.074  41.320  14.718
41125W        W 7666  23.428  33.196  12.639
41126W        W 7667   2.895  24.070  12.755
41127W        W 7668  34.698   1.207   4.166
41128W        W 7669  26.270  31.917   0.977
41129W        W 7670  28.588   6.726  14.781
41130W        W 7671   9.160  31.589   1.408
41131W        W 7672  13.869  37.840   1.032
41132W        W 7673  34.141  18.052   2.335
41133W        W 7674  27.088   7.387  11.678
41134W        W 7675  13.377   0.958  14.822
41135W        W 7676   4.669  39.935  14.537
41136W        W 7677  31.128  27.556  10.904
41137W        W 7678  18.289  36.002  12.949
41138W        W 7679  19.168  38.344   3.747
41139W        W 7680  15.277  32.783  11.485
41140W        W 7681  25.139   0.739   0.346
41141W        W 7682   8.644  43.764   1.226
41142W        W 7683  20.164  27.842   2.804
41143W        W 7684  41.404  33.626  12.977
41144W        W 7685  18.754  19.267  11.919
41145W        W 7686   8.809  12.070   3.184
41146W        W 7687   8.612  30.992   3.585
41147W        W 7688   8.665   0.905  14.957
41148W        W 7689  28.926  26.017   1.326
41149W        W 7690  17.853  19.030  10.674
41150W        W 7691  37.875  26.963   4.417
41151W        W 7692  23.211  41.315   4.154
41152W        W 7693  20.081   9.885  14.855
41153W        W 7694  28.049  20.600   3.523
41154W        W 7695  22.727  22.205  14.803
41155W        W 7696  11.345  33.938   3.923
41156W        W 7697   2.182  28.718  13.097
41157W        W 7698  43.467  14.315  14.304
41158W        W 7699  26.747   5.983  12.427
41159W        W 7700  12.280   2.081   2.583
41160W        W 7701  20.315  15.501  11.384
41161W        W 7702  12.854  26.453   2.744
41162W        W 7703  43.217   6.352  14.898
41163W        W 7704  34.906  28.204   4.534
41164W        W 7705   5.737   5.820  10.662
41165W        W 7706   7.751  39.480  13.873
41166W        W 7707  27.122  43.756  13.405
41167W        W 7708  12.149  33.318  12.060
41168W        W 7709  13.129  31.897   1.987
41169W        W 7710  16.333  28.005   3.348
41170W        W 7711  11.094  12.583   2.339
41171W        W 7712   7.204  41.882   3.582
41172W        W 7713  34.534   9.155   1.945
41173W        W 7714  30.997  22.079  13.830
41174W        W 7715  21.489  29.434  14.563
41175W        W 7716  36.640  37.458   2.368
41176W        W 7717  35.142  24.898   1.375
41177W        W 7718  17.427  26.032  12.629
41178W        W 7719  37.628  17.522  11.943
41179W        W 7720  28.610  15.355  10.020
41180W        W 7721   4.920   1.299   3.181
41181W        W 7722  25.514   4.740   3.157
41182W        W 7723  44.466   8.358   1.193
41183W        W 7724  31.892  38.439  14.870
41184W        W 7725  26.167  32.918   1.026
41185W        W 7726  36.059   1.183  12.422
41186W        W 7727   4.349  18.920  11.104
41187W        W 7728  14.646  38.214   4.556
41188W        W 7729  16.757  39.539  12.058
41189W        W 7730  29.651  36.418  11.209
41190W        W 7731  42.147  23.742  12.653
41191W        W 7732  27.923  36.089   4.133
41192W        W 7733  34.383  15.024   2.864
41193W        W 7734  24.178  37.370   3.537
41194W        W 7735  23.133  38.867   4.558
41195W        W 7736  25.628  38.237  13.553
41196W        W 7737  27.955  18.261   3.393
41197W        W 7738   4.612   9.540  11.221
41198W        W 7739  11.901  20.797   0.771
41199W        W 7740  44.558  38.833   0.098
41200W        W 7741  19.982  23.606  11.442
41201W        W 7742   3.199  42.485   2.453
41202W        W 7743  36.427  34.532  12.156
41203W        W 7744  16.568  35.884   0.748
41204W        W 7745   0.699  22.801   1.831
41205W        W 7746  16.879   6.321   1.907
41206W        W 7747  39.993  20.767   3.887
41207W        W 7748  38.246  26.951   2.355
41208W        W 7749  43.425  32.812   2.472
41209W        W 7750  23.679  14.852   0.405
41210W        W 7751  28.398  31.087  14.550
41211W        W 7752   2.524  29.163   3.268
41212W        W 7753   3.718  33.103   4.475
41213W        W 7754  27.635  20.985   1.357
41214W        W 7755  13.054  16.235  11.371
41215W        W 7756  11.999  28.271  12.930
41216W        W 7757  38.077  33.311  11.150
41217W        W 7758   5.296   8.652   1.806
41218W        W 7759   4.659  12.516  14.449
41219W        W 7760  35.403  29.647   0.771
41220W        W 7761  19.797  17.136   4.034
41221W        W 7762  44.333  14.295   2.419
41222W        W 7763  40.364  34.078  12.149
41223W        W 7764  34.815  31.079   1.434
41224W        W 7765  25.971  27.485  12.358
41225W        W 7766  26.044   5.464   0.790
41226W        W 7767   2.869  44.476  10.224
41227W        W 7768  20.810  24.374  12.128
41228W        W 7769  31.680  13.365   0.245
41229W        W 7770   7.254  26.445  14.703
41230W        W 7771  24.108   8.586   5.350
41231W        W 7772  37.865  10.642   4.752
41232W        W 7773  29.657   9.491  12.971
41233W        W 7774  18.025  43.934   0.826
41234W        W 7775   0.551  25.785  12.990
41235W        W 7776  30.193   2.864   0.751
41236W        W 7777  10.306  18.563   2.670
41237W        W 7778  21.190  34.708  12.983
41238W        W 7779   9.828  39.931  14.719
41239W        W 7780  42.403   1.249   0.722
41240W        W 7781  20.886   2.493   5.032
41241W        W 7782  42.561  21.169   4.293
41242W        W 7783   2.188  13.122   4.491
41243W        W 7784  11.799  27.567  12.945
41244W        W 7785   2.878  30.939   3.109
41245W        W 7786  20.652  26.389   2.837
41246W        W 7787  33.080  37.071  14.917
41247W        W 7788  31.041  24.277  11.486
41248W        W 7789  34.738  41.750  13.950
41249W        W 7790  24.774  36.909  13.501
41250W        W 7791  38.251  25.843  14.457
41251W        W 7792  18.166  36.365  14.735
41252W        W 7793  36.778   6.494   0.764
41253W        W 7794   5.404   8.249  12.490
41254W        W 7795  38.863  21.658   2.197
41255W        W 7796  39.045   6.263  13.040
41256W        W 7797   8.721  13.870   2.813
41257W        W 7798  38.577  40.010  14.294
41258W        W 7799  17.314  39.152  13.858
41259W        W 7800  21.569  22.300  12.151
41260W        W 7801   6.265  21.346  12.463
41261W        W 7802  28.913   0.697   1.291
41262W        W 7803   5.872   0.963   2.651
41263W        W 7804   2.193  36.967   1.185
41264W        W 7805  30.344  29.174   0.936
41265W        W 7806  28.022   9.827  13.814
41266W        W 7807  20.916  38.736   0.376
41267W        W 7808  40.388  12.429  10.320
41268W        W 7809   4.146  33.975  13.804
41269W        W 7810   6.283   8.636  11.953
41270W        W 7811  17.908  30.830   3.785
41271W        W 7812   9.649  17.585  12.356
41272W        W 7813  22.989  35.354  10.817
41273W        W 7814   3.399  42.114   0.488
41274W        W 7815  21.943  43.433   0.753
41275W        W 7816  38.925  20.463   3.773
41276W        W 7817  34.233  23.605   4.482
41277W        W 7818   2.215  16.219  12.279
41278W        W 7819  21.251  20.337   0.653
41279W        W 7820   3.322  20.761  13.480
41280W        W 7821  33.060  44.470   2.897
41281W        W 7822  10.356   5.554   2.239
41282W        W 7823  23.913  30.089  11.025
41283W        W 7824   6.788  31.474   4.679
41284W        W 7825   3.570  31.620   0.730
41285W        W 7826  20.785  40.496  13.364
41286W        W 7827  39.544  19.959  11.926
41287W        W 7828  14.594  39.310  11.536
41288W        W 7829   5.677  15.891   3.181
41289W        W 7830  23.834  29.216   3.166
41290W        W 7831   8.685  29.072  11.136
41291W        W 7832  39.675  11.146  11.625
41292W        W 7833  37.844   2.799  12.008
41293W        W 7834   5.388   6.211  13.267
41294W        W 7835   9.104  22.617  11.637
41295W        W 7836  12.894  21.643  10.715
41296W        W 7837  19.539   3.231   3.102
41297W        W 7838  35.383  35.117   3.680
41298W        W 7839   8.312   7.998   3.095
41299W        W 7840  25.390  30.232   0.696
41300W        W 7841  20.296   1.015   4.974
41301W        W 7842   5.994  38.463  11.968
41302W        W 7843   0.024  34.351  13.510
41303W        W 7844  16.095  27.658  11.078
41304W        W 7845  31.440   2.447   3.631
41305W        W 7846  13.740   9.922  14.799
41306W        W 7847   2.042  32.953  13.001
41307W        W 7848  15.310  20.420   0.785
41308W        W 7849  34.084   1.395   1.286
41309W        W 7850   9.576   0.371  14.723
41310W        W 7851   2.772  26.848  12.798
41311W        W 7852  13.078   6.190   0.800
41312W        W 7853  39.489  13.570   1.228
41313W        W 7854  27.013  17.836  11.689
41314W        W 7855  12.139  18.208   3.240
41315W        W 7856   9.161  32.890  11.190
41316W        W 7857  13.287  37.306  13.372
41317W        W 7858  22.255  16.893  14.717
41318W        W 7859  20.189  33.126  10.590
41319W        W 7860  39.434  11.044  10.706
41320W        W 7861  29.003  39.800   3.585
41321W        W 7862  18.571   2.716  10.913
41322W        W 7863   9.295  22.705  12.514
41323W        W 7864   8.733  21.695  14.347
41324W        W 7865   7.758  26.456  11.536
41325W        W 7866  22.498   4.483  12.440
41326W        W 7867  26.970  32.602   3.213
41327W        W 7868  25.125  41.428   1.651
41328W        W 7869  15.324   3.882   0.776
41329W        W 7870  27.528  11.497   2.159
41330W        W 7871  42.440  16.570  11.766
41331W        W 7872  35.814  34.335  14.696
41332W        W 7873   1.347  27.513  14.232
41333W        W 7874  24.925   8.284  10.686
41334W        W 7875  33.183  29.129  11.794
41335W        W 7876   6.885  20.701   2.401
41336W        W 7877  25.196  19.134   4.753
41337W        W 7878  36.607  11.166   3.201
41338W        W 7879   7.291  39.695   3.685
41339W        W 7880  17.868  32.328  14.549
41340W        W 7881   8.140   5.442   3.185
41341W        W 7882  32.460   0.398  13.563
41342W        W 7883   2.040  44.129   2.845
41343W        W 7884   9.350  22.603   4.457
41344W        W 7885  16.790   8.762  14.363
41345W        W 7886  44.891  34.365   3.258
41346W        W 7887  36.547  36.532   1.430
41347W        W 7888  41.199  43.848   4.376
41348W        W 7889  40.277  43.192  14.037
41349W        W 7890   5.697  41.227  13.845
41350W        W 7891  25.904  31.112  11.039
41351W        W 7892  15.817  36.957  12.925
41352W        W 7893   4.574  26.653   4.067
41353W        W 7894   6.173  27.185   4.693
41354W        W 7895  42.783  28.972   2.671
41355W        W 7896  26.135  29.112   2.683
41356W        W 7897   9.798  42.855   0.603
41357W        W 7898  34.346  33.979  12.087
41358W        W 7899  18.628  24.454   2.119
41359W        W 7900  28.034  35.066  12.782
41360W        W 7901   0.461  12.511  11.781
41361W        W 7902  13.893  15.301   1.222
41362W        W 7903  15.706  12.817  13.847
41363W        W 7904  18.396  35.517  13.355
41364W        W 7905  24.993  44.762   4.928
41365W        W 7906   6.994  21.725   0.564
41366W        W 7907   6.832   5.421   2.884
41367W        W 7908  23.987  36.383   4.491
41368W        W 7909  37.355  15.665   3.180
41369W        W 7910  36.155  13.799  13.907
41370W        W 7911  42.960  41.176  14.358
41371W        W 7912  38.025  31.115  12.436
41372W        W 7913  35.947   6.264  14.321
41373W        W 7914   5.828  27.720  11.121
41374W        W 7915  40.035  11.383   0.765
41375W        W 7916   6.392  11.388  10.747
41376W        W 7917   4.793   0.341  13.525
41377W        W 7918  12.131  34.484  14.375
41378W        W 7919  16.546   3.451   1.786
41379W        W 7920   8.142   8.815   2.783
41380W        W 7921  26.133   3.845   4.581
41381W        W 7922  35.627  33.833  12.404
41382W        W 7923  22.940  27.431  14.830
41383W        W 7924  42.275  38.524   0.134
41384W        W 7925  28.493  18.756  13.702
41385W        W 7926   8.375  42.084  13.624
41386W        W 7927  42.691  32.957   0.597
41387W        W 7928  20.065  23.831   0.240
41388W        W 7929  19.211  39.487   3.210
41389W        W 7930  31.973  12.733   3.130
41390W        W 7931  18.515  22.012  11.985
41391W        W 7932   8.431  30.660  11.120
41392W        W 7933  37.899  33.944  12.400
41393W        W 7934  31.120  25.281   4.826
41394W        W 7935  41.855  14.340   2.795
41395W        W 7936  39.967  37.571   4.556
41396W        W 7937  21.757  27.872   2.522
41397W        W 7938  26.916   1.949   0.756
41398W        W 7939  14.396  11.249   1.653
41399W        W 7940  12.270  11.606   4.219
41400W        W 7941  42.502   5.226  13.303
41401W        W 7942  24.140  10.764   3.093
41402W        W 7943  22.690  27.680   1.937
41403W        W 7944  37.075   8.545  13.441
41404W        W 7945  32.939   3.018   1.752
41405W        W 7946  31.127  10.765  13.531
41406W        W 7947  27.185   2.541  11.112
41407W        W 7948  18.498  35.921   0.854
41408W        W 7949   1.791  30.857   9.793
41409W        W 7950  41.290  32.855   1.786
41410W        W 7951   7.822   0.754   2.391
41411W        W 7952  12.701  38.257   1.247
41412W        W 7953  42.940   3.745   0.371
41413W        W 7954  17.766  15.734  14.238
41414W        W 7955  27.401  11.154   4.568
41415W        W 7956  19.184   4.067   4.214
41416W        W 7957  37.594  37.422  13.346
41417W        W 7958  25.752   2.385  12.247
41418W        W 7959   1.988  11.165  10.671
41419W        W 7960  18.460   8.320   2.102
41420W        W 7961   5.942  14.211   3.657
41421W        W 7962  16.369  34.141  13.331
41422W        W 7963  29.761  33.657   3.578
41423W        W 7964   2.685   2.721   2.688
41424W        W 7965  16.341  43.001  14.442
41425W        W 7966  31.477  22.450   3.714
41426W        W 7967   5.247   3.940   3.997
41427W        W 7968  11.881  20.332   1.032
41428W        W 7969  30.297  10.754  12.538
41429W        W 7970  11.737  39.805  13.324
41430W        W 7971  26.205  43.018   1.281
41431W        W 7972  17.477   3.648   3.571
41432W        W 7973  29.940  37.354   3.509
41433W        W 7974  41.386   1.284  10.494
41434W        W 7975  44.368  37.687  14.326
41435W        W 7976  31.943  39.531  12.829
41436W        W 7977  16.581  10.572   3.395
41437W        W 7978   4.699  27.069   1.840
41438W        W 7979  22.449   9.188   3.328
41439W        W 7980  39.068  38.492  10.753
41440W        W 7981  23.175  34.538   4.432
41441W        W 7982  22.589  22.168   0.805
41442W        W 7983  18.154  17.326   4.493
41443W        W 7984   8.471   4.662   4.249
41444W        W 7985  35.834  37.364  14.112
41445W        W 7986   5.768  19.412   5.006
41446W        W 7987  34.532   4.302  12.877
41447W        W 7988  44.740  24.102  11.269
41448W        W 7989  36.451  42.926  11.963
41449W        W 7990   6.341  33.664   5.043
41450W        W 7991  11.758   1.531   3.690
41451W        W 7992  31.208  17.833  14.780
41452W        W 7993  10.428  11.057   3.833
41453W        W 7994   1.586  27.216  12.615
41454W        W 7995   5.616  23.277  14.700
41455W        W 7996  11.832   9.946  11.546
41456W        W 7997  17.156   2.248  12.507
41457W        W 7998  31.533  14.678  14.319
41458W        W 7999  12.278  20.187   3.644
41459W        W 8000  39.077  26.636   2.683
41460W        W 8001  25.929   6.760   0.245
41461W        W 8002  15.487  35.374   3.653
41462W        W 8003  33.579  39.536  14.294
41463W        W 8004   1.699  29.042  12.577
41464W        W 8005   3.889  38.870   1.180
41465W        W 8006   9.043  34.489  10.119
41466W        W 8007  24.017   5.614   0.380
41467W        W 8008  40.042  39.314  11.847
41468W        W 8009   2.959  31.109  12.460
41469W        W 8010  44.740  26.557   0.336
41470W        W 8011  19.558  28.585   3.487
41471W        W 8012  19.373   0.946   3.662
41472W        W 8013  43.459  33.620  14.118
41473W        W 8014  19.160  43.172   1.360
41474W        W 8015  30.946  20.944   1.474
41475W        W 8016  37.448  27.680   0.362
41476W        W 8017  41.015  21.109  13.821
41477W        W 8018  17.273  11.234   1.420
41478W        W 8019  10.276   2.158   1.764
41479W        W 8020  11.852  28.419  10.482
41480W        W 8021  31.754   6.825   2.841
41481W        W 8022  22.471  24.083  14.459
41482W        W 8023   8.214  12.230   3.899
41483W        W 8024  24.145  35.343  14.138
41484W        W 8025  34.019  21.432  12.263
41485W        W 8026  19.283  26.483  14.462
41486W        W 8027  27.835  31.332  11.137
41487W        W 8028  44.041  20.169   3.568
41488W        W 8029  10.639  18.362  12.066
41489W        W 8030  25.984  40.820   2.025
41490W        W 8031  43.367  28.623  13.858
41491W        W 8032   4.657  18.329  12.544
41492W        W 8033   0.528   7.852   1.262
41493W        W 8034   6.665   8.175   0.340
41494W        W 8035  42.379  39.240  13.920
41495W        W 8036   0.937  32.378   1.311
41496W        W 8037   9.336   2.471   2.094
41497W        W 8038  34.823  33.571   1.211
41498W        W 8039  11.300  24.925  11.151
41499W        W 8040  34.496  13.295   3.787
41500W        W 8041  21.703  13.033   0.236
41501W        W 8042  43.512   4.730   0.385
41502W        W 8043   2.928  22.713   4.614
41503W        W 8044  30.576  29.967  10.656
41504W        W 8045  13.236  17.049   3.982
41505W        W 8046  35.993  43.624  12.550
41506W        W 8047   0.263  10.311   0.958
41507W        W 8048  19.264  10.653  12.475
41508W        W 8049  20.589  41.280  14.820
41509W        W 8050  13.186   9.564   2.805
41510W        W 8051  37.242  23.723   0.012
41511W        W 8052  38.457  42.179   1.424
41512W        W 8053   8.422   8.330  11.067
41513W        W 8054  39.816  11.205   4.559
41514W        W 8055  32.552   1.925  14.347
41515W        W 8056  13.882  35.990  14.966
41516W        W 8057  22.751  39.889   3.285
41517W        W 8058  35.078  22.171   2.952
41518W        W 8059  43.390  10.221   0.157
41519W        W 8060  31.666  36.998  14.448
41520W        W 8061  34.321  28.694   3.925
41521W        W 8062   3.529   4.432  14.104
41522W        W 8063  15.765   4.024   1.743
41523W        W 8064  40.995  18.652  10.662
41524W        W 8065  33.394  44.489   2.367
41525W        W 8066   2.368  28.707   0.503
41526W        W 8067  23.981  33.441   2.324
41527W        W 8068  12.324   1.908   2.114
41528W        W 8069  12.493  34.938   1.840
41529W        W 8070  21.475   9.789  12.173
41530W        W 8071   4.405  44.909   0.386
41531W        W 8072   8.207  11.726   3.297
41532W        W 8073  28.165  36.876   3.326
41533W        W 8074  34.630  15.054  10.477
41534W        W 8075  37.590  28.735   3.255
41535W        W 8076  40.364  21.471  14.427
41536W        W 8077  19.642  21.466   0.577
41537W        W 8078   8.904   9.266  11.250
41538W        W 8079   5.904  21.964  11.209
41539W        W 8080  22.966  27.413   3.105
41540W        W 8081  25.739  35.451  13.113
41541W        W 8082  29.164  29.594   4.559
41542W        W 8083  15.185  14.276   2.725
41543W        W 8084  18.644  16.297   2.065
41544W        W 8085  43.084  18.993  13.047
41545W        W 8086  30.302   2.984   4.372
41546W        W 8087  31.033  13.772  12.607
41547W        W 8088  18.707   7.288   2.169
41548W        W 8089  42.483  44.145   0.545
41549W        W 8090   2.596  28.542  13.894
41550W        W 8091  25.253  13.085   0.935
41551W        W 8092   1.334  12.417  12.682
41552W        W 8093  33.497  27.693   1.282
41553W        W 8094  28.638  37.031   3.444
41554W        W 8095  12.861  27.016  12.176
41555W        W 8096  20.841  15.312  14.857
41556W        W 8097  17.148  21.575   1.107
41557W        W 8098   7.838  14.901   0.891
41558W        W 8099  16.394   4.421  13.383
41559W        W 8100   1.628  22.302   2.854
41560W        W 8101   9.553  28.552  12.123
41561W        W 8102  25.274   3.824   2.306
41562W        W 8103   7.613  30.400  11.486
41563W        W 8104  27.536  31.603   1.326
41564W        W 8105  22.064  40.295   4.272
41565W        W 8106  30.529  22.995   3.578
41566W        W 8107   3.779  36.847  11.112
41567W        W 8108  30.066  19.000  11.051
41568W        W 8109   4.964   3.965   1.276
41569W        W 8110  21.707  30.178  14.019
41570W        W 8111  31.227   5.425  10.673
41571W        W 8112  41.827  38.084  14.460
41572W        W 8113  38.261  42.325  12.881
41573W        W 8114  28.987   9.848  14.820
41574W        W 8115  28.247  38.149   0.000
41575W        W 8116  30.678   1.066   5.046
41576W        W 8117  31.103  36.182  14.356
41577W        W 8118  31.974  26.133  12.588
41578W        W 8119   1.328  41.453   0.284
41579W        W 8120  13.295  42.483  11.271
41580W        W 8121   1.542  15.519   1.902
41581W        W 8122   2.248  35.764   3.656
41582W        W 8123  37.265   4.895   1.000
41583W        W 8124  12.692   5.655   3.296
41584W        W 8125  18.141  37.527  12.959
41585W        W 8126  32.507   3.782  12.569
41586W        W 8127  20.553  44.677  14.769
41587W        W 8128  19.255  13.624   1.910
41588W        W 8129   9.777  35.814   3.736
41589W        W 8130   8.818  22.354   0.592
41590W        W 8131  44.004   1.549   0.021
41591W        W 8132  44.109  14.706   1.231
41592W        W 8133  42.966  36.817   1.303
41593W        W 8134   4.462   0.523   3.162
41594W        W 8135   0.421  30.401  12.149
41595W        W 8136  36.542  37.143  10.012
41596W        W 8137  43.386  12.891   0.488
41597W        W 8138  19.141   3.092   0.993
41598W        W 8139  32.546   0.520  14.438
41599W        W 8140  16.846   6.128   3.326
41600W        W 8141   6.696  21.088   1.836
41601W        W 8142  14.760   2.765  14.499
41602W        W 8143  28.204  29.646   2.278
41603W        W 8144   7.260  32.439  12.104
41604W        W 8145  26.455  36.437  11.876
41605W        W 8146   2.146  12.274   0.752
41606W        W 8147  36.255  16.039  10.445
41607W        W 8148  27.978  14.663   1.108
41608W        W 8149   4.902  12.559  11.191
41609W        W 8150   0.225  29.342   4.299
41610W        W 8151  24.484  41.017  10.767
41611W        W 8152  17.673   4.992  10.274
41612W        W 8153   2.824  25.096  12.557
41613W        W 8154  26.705  16.328   3.192
41614W        W 8155  42.981   1.334   4.193
41615W        W 8156  36.978  29.638   0.589
41616W        W 8157  13.986   3.008  12.468
41617W        W 8158   5.690  32.728  13.150
41618W        W 8159  37.326  28.519   0.680
41619W        W 8160   8.864  42.502  11.443
41620W        W 8161  36.765  42.090   4.514
41621W        W 8162   9.882  10.155   0.370
41622W        W 8163  14.913  12.802  12.021
41623W        W 8164  30.844   1.112  12.821
41624W        W 8165  33.071  31.219  11.324
41625W        W 8166  34.328  35.823  10.761
41626W        W 8167   9.432  37.423  14.597
41627W        W 8168   4.188  12.824  14.814
41628W        W 8169  23.208  22.943   0.315
41629W        W 8170   8.186  37.853   1.749
41630W        W 8171   1.406  44.662  12.867
41631W        W 8172  22.542  19.622  13.516
41632W        W 8173  22.685  42.004   3.636
41633W        W 8174  12.677  16.356   1.808
41634W        W 8175   4.869  30.284   2.806
41635W        W 8176   8.238   3.192  12.503
41636W        W 8177  35.529  31.177   0.798
41637W        W 8178   3.782  18.578   3.201
41638W        W 8179  40.012  42.300   4.315
41639W        W 8180  13.398  39.924   1.753
41640W        W 8181  24.986  32.929  10.733
41641W        W 8182  34.976  23.767  14.739
41642W        W 8183  42.955   8.505  14.868
41643W        W 8184  23.276   9.691  12.608
41644W        W 8185   6.196  28.410  12.471
41645W        W 8186  44.982  41.308   4.972
41646W        W 8187   2.972  28.219   3.726
41647W        W 8188  34.677  21.289  13.889
41648W        W 8189  18.858  33.594   2.938
41649W        W 8190  18.328  37.879  11.530
41650W        W 8191  24.618   5.076   2.156
41651W        W 8192   9.248  15.917  13.837
41652W        W 8193  14.148  44.296   0.455
41653W        W 8194   8.858  20.225  14.893
41654W        W 8195  34.936  31.044   3.824
41655W        W 8196  22.766  38.120  12.108
41656W        W 8197  13.259   0.718   0.271
41657W        W 8198  24.669  36.016   3.344
41658W        W 8199  13.108  37.870  14.738
41659W        W 8200   5.763   2.910   2.532
41660W        W 8201  20.252  18.532  10.843
41661W        W 8202  37.985  14.768  11.871
41662W        W 8203  18.822  37.019   2.249
41663W        W 8204  30.399  32.033  10.559
41664W        W 8205  15.485  17.974   3.146
41665W        W 8206  42.912   6.431  12.829
41666W        W 8207   0.794  34.679  14.841
41667W        W 8208   9.125  22.260   3.593
41668W        W 8209  19.155  30.934  12.450
41669W        W 8210  10.805  11.908   0.324
41670W        W 8211  30.029   6.814   1.887
41671W        W 8212  10.747  37.051   1.328
41672W        W 8213  40.330   9.195  10.858
41673W        W 8214  16.489   2.475  14.259
41674W        W 8215  38.609   6.828   4.468
41675W        W 8216  24.177  38.353  14.844
41676W        W 8217  23.416   0.578  12.346
41677W        W 8218  29.195  29.728  11.209
41678W        W 8219  32.053   1.951   3.152
41679W        W 8220  44.904  30.996   9.810
41680W        W 8221  27.976   2.888  10.585
41681W        W 8222  28.142  21.556   4.946
41682W        W 8223  39.605  16.580  14.278
41683W        W 8224  31.688  11.724  13.087
41684W        W 8225  15.257  31.495   2.804
41685W        W 8226  21.141  41.048  12.563
41686W        W 8227  19.570  34.607   0.599
41687W        W 8228  42.315   6.867   2.766
41688W        W 8229  15.470   8.886   1.013
41689W        W 8230  31.011  23.607  10.784
41690W        W 8231  21.745  30.640  13.754
41691W        W 8232  29.491   2.869   1.420
41692W        W 8233  12.777  33.352   3.182
41693W        W 8234  10.448  16.579  11.604
41694W        W 8235  33.943  42.299  11.051
41695W        W 8236   2.450  38.158   2.217
41696W        W 8237  22.341  18.830   4.958
41697W        W 8238  13.531  27.453  11.184
41698W        W 8239  16.134   2.338   3.708
41699W        W 8240  24.075  32.130   3.901
41700W        W 8241  36.869  37.188  11.631
41701W        W 8242  38.342  34.979  14.962
41702W        W 8243  42.882  40.468   4.536
41703W        W 8244  20.029  16.237  14.813
41704W        W 8245   8.843  20.622  13.777
41705W        W 8246  27.905  34.446   2.183
41706W        W 8247  44.202  44.369   0.450
41707W        W 8248  20.674  17.481   2.380
41708W        W 8249  24.384   1.132  10.826
41709W        W 8250  42.958   3.332   2.213
41710W        W 8251   7.588  35.582   2.567
41711W        W 8252  33.825  40.924  10.845
41712W        W 8253  44.667  44.333   1.280
41713W        W 8254  30.207  22.125  10.639
41714W        W 8255  28.232  29.521  13.855
41715W        W 8256  24.339   6.604  10.148
41716W        W 8257  20.557  26.486   1.906
41717W        W 8258  38.368  15.289   1.799
41718W        W 8259  11.542   3.084   2.775
41719W        W 8260  34.036   7.338  10.957
41720W        W 8261   5.409   5.972  11.950
41721W        W 8262  41.812   4.219   1.245
41722W        W 8263  38.485  38.306  14.911
41723W        W 8264  12.859   9.250   2.368
41724W        W 8265  38.352  43.918   4.011
41725W        W 8266   1.260  20.116  12.941
41726W        W 8267   7.044  40.720  11.615
41727W        W 8268  18.845  33.073  12.684
41728W        W 8269  37.558   8.232   1.717
41729W        W 8270  36.724  12.624   4.064
41730W        W 8271   5.854  44.831   2.636
41731W        W 8272  31.876   8.024   3.142
41732W        W 8273   8.941  30.576   2.481
41733W        W 8274  24.628  18.225   1.282
41734W        W 8275  33.593  19.855  14.375
41735W        W 8276   6.230  41.097   4.580
41736W        W 8277  37.748   5.734   1.332
41737W        W 8278  29.658  23.110  12.165
41738W        W 8279  29.629  39.331  10.688
41739W        W 8280   9.837   6.438  12.341
41740W        W 8281  20.257  24.627  14.744
41741W        W 8282  12.856  37.759   1.336
41742W        W 8283  19.198  34.400  11.195
41743W        W 8284   9.687  17.309  11.417
41744W        W 8285  42.867   8.607  12.899
41745W        W 8286  39.352  22.205   1.607
41746W        W 8287  35.449  21.416  11.252
41747W        W 8288  19.336  26.624   1.217
41748W        W 8289  22.149  19.198   1.905
41749W        W 8290  25.222  13.378   3.715
41750W        W 8291  33.099  42.397   1.805
41751W        W 8292  10.679  17.322  11.038
41752W        W 8293   7.333  28.025  11.000
41753W        W 8294  26.868  27.771  11.883
41754W        W 8295  16.710   9.775   2.796
41755W        W 8296   4.321  33.105  14.687
41756W        W 8297  37.919  20.140   3.581
41757W        W 8298  42.857   8.767   4.805
41758W        W 8299  34.156  40.844   0.354
41759W        W 8300  12.645  44.514  13.500
41760W        W 8301  10.615  44.528  10.714
41761W        W 8302  12.536  40.183  13.084
41762W        W 8303   2.908   5.336  13.779
41763W        W 8304  34.436  31.232   4.552
41764W        W 8305  26.996  21.013  13.032
41765W        W 8306  15.243  38.416  14.121
41766W        W 8307  22.180   8.129  10.953
41767W        W 8308   3.502   7.450  13.785
41768W        W 8309   3.267  25.611   0.322
41769W        W 8310  17.727   6.953  14.788
41770W        W 8311   6.872  17.623   4.179
41771W        W 8312   8.382  21.505  12.584
41772W        W 8313  16.391   6.665   1.286
41773W        W 8314  32.397   0.122   4.593
41774W        W 8315  40.563   8.709   0.644
41775W        W 8316  11.430  34.041   1.856
41776W        W 8317  40.751  34.844  13.950
41777W        W 8318  29.037  20.259   4.140
41778W        W 8319  23.130  43.112  13.230
41779W        W 8320   2.289  38.430   0.628
41780W        W 8321  16.252   1.792  12.465
41781W        W 8322   1.171  41.108  13.665
41782W        W 8323  21.633  42.922   2.900
41783W        W 8324   6.947  20.696   2.920
41784W        W 8325  43.345  20.227  13.429
41785W        W 8326  34.535  33.112   4.706
41786W        W 8327  16.475   8.052   1.397
41787W        W 8328  28.744  15.967   5.094
41788W        W 8329   7.341  35.390   4.667
41789W        W 8330  40.959   1.390   3.183
41790W        W 8331   5.884   7.805  11.534
41791W        W 8332   6.788  35.890  13.765
41792W        W 8333  11.205  22.331   3.726
41793W        W 8334  10.850  23.984  13.841
41794W        W 8335  38.371  15.861   4.395
41795W        W 8336  10.890  28.675   0.365
41796W        W 8337  42.852  22.509  12.075
41797W        W 8338  26.445  40.902  14.704
41798W        W 8339   9.025  42.415   3.680
41799W        W 8340  31.690  23.047   4.539
41800W        W 8341  13.302  18.132   1.693
41801W        W 8342  22.637   9.176  13.113
41802W        W 8343  36.615   4.666  11.418
41803W        W 8344  13.961  44.512   4.230
41804W        W 8345  42.879  28.414  13.922
41805W        W 8346  21.641  18.052   4.173
41806W        W 8347  10.912  41.285   2.197
41807W        W 8348  33.376   6.029   3.047
41808W        W 8349   8.907  39.877  14.297
41809W        W 8350  37.332  16.651  12.889
41810W        W 8351   1.232  10.927   2.588
41811W        W 8352  38.186  32.424  11.668
41812W        W 8353  17.546  13.169  10.876
41813W        W 8354   4.436  17.113   0.231
41814W        W 8355  39.258   9.564   3.810
41815W        W 8356  23.143   5.315   0.419
41816W        W 8357  31.266  37.008  12.110
41817W        W 8358  14.268   4.541  10.478
41818W        W 8359  19.020  24.610   0.317
41819W        W 8360  16.263  35.141  13.564
41820W        W 8361  25.038  27.425  14.145
41821W        W 8362  19.474  38.202   1.416
41822W        W 8363  36.446   6.359  11.566
41823W        W 8364  17.377  27.103   2.129
41824W        W 8365  44.208  30.070  12.620
41825W        W 8366  22.533   0.244  12.656
41826W        W 8367  17.116  21.071  14.738
41827W        W 8368  39.758  41.834   1.343
41828W        W 8369  13.696  11.129  13.807
41829W        W 8370  12.819  43.515   2.442
41830W        W 8371  10.572   7.648   4.106
41831W        W 8372  37.551  31.652   0.359
41832W        W 8373  29.955  33.453   4.797
41833W        W 8374  16.851  34.607  10.717
41834W        W 8375  44.415   4.829   0.908
41835W        W 8376  10.505  29.430   0.976
41836W        W 8377   5.270   8.610   2.739
41837W        W 8378   3.721  38.481  12.571
41838W        W 8379  40.780  19.096  12.596
41839W        W 8380  18.314  40.207   1.521
41840W        W 8381  22.099   1.507  11.577
41841W        W 8382  32.125   0.949   1.235
41842W        W 8383  16.663  15.027   3.015
41843W        W 8384   9.931  14.918  14.069
41844W        W 8385   0.844  23.157  13.492
41845W        W 8386  43.722  24.191  11.550
41846W        W 8387  25.702  27.168   0.265
41847W        W 8388  24.123  43.781   4.414
41848W        W 8389   6.084  15.132  11.200
41849W        W 8390  13.418  18.045  12.410
41850W        W 8391  35.879  31.356  11.038
41851W        W 8392  26.227  19.343   0.928
41852W        W 8393   9.439  19.164   3.409
41853W        W 8394  31.506  38.319   1.651
41854W        W 8395  44.085  34.505  11.530
41855W        W 8396  14.461  21.422  13.686
41856W        W 8397  38.919   1.769   1.353
41857W        W 8398  27.928  17.022   4.461
41858W        W 8399  24.484  34.894  13.609
41859W        W 8400  43.367   9.184   0.559
41860W        W 8401  20.522   4.813   3.541
41861W        W 8402  43.396  26.114   4.556
41862W        W 8403  44.814  11.133  10.615
41863W        W 8404  38.092  15.255  12.006
41864W        W 8405   8.470   0.025  10.778
41865W        W 8406  10.722  20.747  12.476
41866W        W 8407   7.700  29.238   2.159
41867W        W 8408  25.403   4.492   4.913
41868W        W 8409  19.246  21.631   1.237
41869W        W 8410   5.699  10.905   2.809
41870W        W 8411  40.343  31.607   4.407
41871W        W 8412  10.817  16.971   2.443
41872W        W 8413  17.518   0.521  12.613
41873W        W 8414  44.658  35.681   5.049
41874W        W 8415  38.018  30.691  13.614
41875W        W 8416  12.478  33.493   0.743
41876W        W 8417  14.117  39.827  13.892
41877W        W 8418  15.996  23.763  13.025
41878W        W 8419  12.242  15.317   3.496
41879W        W 8420  19.185  23.242   0.951
41880W        W 8421  40.587   2.465   2.392
41881W        W 8422  20.394  33.051  12.647
41882W        W 8423   6.644  44.433  14.514
41883W        W 8424  26.546  27.465  13.955
41884W        W 8425  39.025  21.099  12.972
41885W        W 8426  32.076  36.401  13.768
41886W        W 8427  39.754  16.316  10.111
41887W        W 8428  28.019  43.090   1.437
41888W        W 8429  14.672   1.658  13.457
41889W        W 8430  32.380   2.966   3.356
41890W        W 8431  36.535  16.677   0.751
41891W        W 8432  36.048  29.669   1.223
41892W        W 8433  34.420  38.299  14.796
41893W        W 8434  24.872   4.191  11.123
41894W        W 8435  23.403  40.133   2.717
41895W        W 8436  37.119  29.222  13.991
41896W        W 8437  34.120  12.258   0.506
41897W        W 8438   8.433  20.328   0.798
41898W        W 8439  30.658  21.288  12.093
41899W        W 8440  44.043   7.703   0.329
41900W        W 8441  13.743  25.097  11.860
41901W        W 8442  27.462   7.860  12.077
41902W        W 8443  20.728  43.565  10.767
41903W        W 8444  15.290  27.400  11.917
41904W        W 8445  13.919  25.014   2.708
41905W        W 8446  20.771   0.492   2.327
41906W        W 8447   3.479  17.747  14.472
41907W        W 8448  29.392  37.681  11.672
41908W        W 8449  44.205   4.421  13.728
41909W        W 8450  24.027  15.222   4.576
41910W        W 8451   6.248  10.725  14.454
41911W        W 8452  17.429  40.987   0.707
41912W        W 8453   8.368   2.134  14.081
41913W        W 8454  15.623   6.573  12.205
41914W        W 8455  18.554  10.773  13.355
41915W        W 8456  38.774  11.108   4.574
41916W        W 8457  40.429  20.312   0.718
41917W        W 8458  16.600  36.988  10.967
41918W        W 8459  41.321  33.387   4.451
41919W        W 8460  21.721  14.874  10.655
41920W        W 8461  43.583  27.910   2.915
41921W        W 8462  15.120  15.774   0.208
41922W        W 8463  16.368  12.745   1.958
41923W        W 8464  36.029   4.194   2.708
41924W        W 8465  17.978  35.508  14.141
41925W        W 8466  31.923  41.595   2.308
41926W        W 8467   2.748  12.446  10.435
41927W        W 8468   0.921  16.190  14.472
41928W        W 8469   5.813  14.642  10.714
41929W        W 8470  15.396  10.603   2.688
41930W        W 8471  40.958  29.071  12.321
41931W        W 8472  22.199  21.509   2.821
41932W        W 8473  21.694  37.805  14.470
41933W        W 8474  21.127  17.797   3.237
41934W        W 8475  37.105  19.984   1.181
41935W        W 8476   3.305  42.695   3.347
41936W        W 8477  31.876  24.111  10.469
41937W        W 8478  16.461   5.270   3.266
41938W        W 8479   6.630  38.442   0.356
41939W        W 8480  36.712  11.357   0.738
41940W        W 8481   5.951  28.976  14.447
41941W        W 8482  30.362   0.321  13.102
41942W        W 8483   6.338  35.641   1.633
41943W        W 8484  44.333  28.239   1.426
41944W        W 8485  22.199  26.932   3.369
41945W        W 8486   2.651  20.673  10.784
41946W        W 8487  26.605  23.108   4.494
41947W        W 8488  37.320  18.472   1.220
41948W        W 8489  24.748  38.218  12.500
41949W        W 8490  32.679  34.964   2.375
41950W        W 8491   7.688  34.267   4.176
41951W        W 8492  27.436  28.028   3.229
41952W        W 8493  39.015  23.233   1.661
41953W        W 8494  18.500  23.680   4.501
41954W        W 8495   6.729   4.026  12.870
41955W        W 8496  34.447  19.276   1.714
41956W        W 8497  30.968  14.159   3.432
41957W        W 8498  19.915   9.398  10.794
41958W        W 8499  34.865   6.751  11.160
41959W        W 8500  25.458  24.145  12.001
41960W        W 8501  27.709  27.547  12.920
41961W        W 8502  28.125  26.190  11.928
41962W        W 8503  31.114  40.180  11.202
41963W        W 8504  12.588  12.621   0.014
41964W        W 8505  12.785  21.199  13.815
41965W        W 8506  29.938   4.255  10.701
41966W        W 8507  12.318   2.371   3.561
41967W        W 8508  36.548  25.370  13.421
41968W        W 8509  30.495  24.281  12.720
41969W        W 8510   8.840  10.950   0.268
41970W        W 8511  26.829   7.967   1.813
41971W        W 8512  35.801  30.155   2.517
41972W        W 8513   0.440  14.524   4.546
41973W        W 8514  44.352  11.177  11.981
41974W        W 8515  23.154  14.188  14.734
41975W        W 8516  36.238  31.469   3.850
41976W        W 8517  21.746  31.539   0.893
41977W        W 8518   8.879  44.160   3.595
41978W        W 8519  36.286  15.280   3.652
41979W        W 8520  14.355  20.483  14.031
41980W        W 8521  32.414  43.769   1.904
41981W        W 8522  27.554  15.625   0.666
41982W        W 8523   8.444  23.876   3.277
41983W        W 8524  23.058  19.189   0.071
41984W        W 8525  10.848  23.762   3.291
41985W        W 8526  11.271  27.093   3.875
41986W        W 8527  12.631  44.840  10.690
41987W        W 8528   5.389   7.186  10.693
41988W        W 8529  32.376  19.785   1.797
41989W        W 8530  25.714  30.930  12.330
41990W        W 8531  38.026  40.254  12.922
41991W        W 8532  26.364   1.976  12.402
41992W        W 8533  28.681   7.466  10.590
41993W        W 8534  11.381  42.838  14.599
41994W        W 8535   4.713  30.665  14.013
41995W        W 8536  36.391   4.857   4.076
41996W        W 8537   9.173  21.792   1.466
41997W        W 8538  15.130  19.738   2.289
41998W        W 8539  24.506  29.415   1.783
41999W        W 8540   8.192  16.335  11.711
42000W        W 8541   0.950  23.632  13.692
42001W        W 8542  44.481  32.147  11.228
42002W        W 8543  36.973  12.751  13.898
42003W        W 8544   6.348  35.045  14.110
42004W        W 8545  29.893   3.388   2.766
42005W        W 8546  14.301  40.615   3.301
42006W        W 8547  10.439  38.024  11.821
42007W        W 8548   9.788   9.351  13.522
42008W        W 8549   8.112   4.549  11.064
42009W        W 8550  13.446  39.866   0.827
42010W        W 8551  31.539  11.411  10.653
42011W        W 8552  23.600  38.905  13.750
42012W        W 8553  39.898  23.637   3.941
42013W        W 8554  25.034   7.761  10.686
42014W        W 8555  18.212  33.005   3.132
42015W        W 8556  16.035   4.684  13.127
42016W        W 8557  42.539  35.785  14.540
42017W        W 8558   7.378   5.364   2.776
42018W        W 8559  18.958  14.176  13.365
42019W        W 8560  34.936  20.506  11.797
42020W        W 8561  11.911  29.396  14.676
42021W        W 8562   1.894  44.526  13.329
42022W        W 8563  31.659  33.286  10.961
42023W        W 8564   0.831  22.080  12.163
42024W        W 8565  19.838  21.527  12.985
42025W        W 8566  19.667   6.728   4.131
42026W        W 8567  10.634  41.436   0.230
42027W        W 8568  12.206  21.472  14.418
42028W        W 8569  31.817   1.916   0.351
42029W        W 8570   0.462  20.596  12.687
42030W        W 8571  22.418  38.083  10.849
42031W        W 8572  40.548  41.154   4.971
42032W        W 8573  42.501  35.597   0.765
42033W        W 8574  39.323  10.834  11.219
42034W        W 8575  11.651  13.037  13.441
42035W        W 8576   5.981  44.441   0.327
42036W        W 8577  16.604  24.201   3.221
42037W        W 8578   5.206   8.769  12.545
42038W        W 8579  40.688  31.475  13.441
42039W        W 8580  32.391  21.239  12.327
42040W        W 8581  39.864   6.179  10.977
42041W        W 8582  32.160  28.222   1.778
42042W        W 8583  33.754  29.538  12.489
42043W        W 8584  28.521  14.837  12.435
42044W        W 8585  23.144  23.633  14.821
42045W        W 8586  32.195  35.839  13.548
42046W        W 8587   5.714  36.000  12.484
42047W        W 8588  13.058   0.801   1.326
42048W        W 8589  15.630  15.142   4.636
42049W        W 8590  34.513  12.384   0.868
42050W        W 8591  12.324  30.916   4.208
42051W        W 8592  23.647  40.121   1.772
42052W        W 8593  39.216  20.736  14.454
42053W        W 8594  36.544  36.306   2.353
42054W        W 8595  16.210   1.907  10.430
42055W        W 8596  29.154   6.768  14.412
42056W        W 8597  27.111   8.644   3.730
42057W        W 8598  16.809  25.255  11.559
42058W        W 8599  42.865  20.062   2.794
42059W        W 8600  44.582  31.051   0.036
42060W        W 8601   1.258   4.214  14.007
42061W        W 8602  28.970  40.773  11.563
42062W        W 8603   4.214   1.052  13.904
42063W        W 8604  41.533  38.979  14.892
42064W        W 8605  42.723  44.922  12.490
42065W        W 8606  19.579   1.714  12.119
42066W        W 8607  14.669  29.977   0.966
42067W        W 8608  36.469  26.429  11.888
42068W        W 8609  41.000  40.023  14.055
42069W        W 8610  38.028  27.479   1.768
42070W        W 8611  38.877  35.017  13.805
42071W        W 8612  25.728   3.400  11.564
42072W        W 8613  29.112  27.621   2.940
42073W        W 8614   8.563  16.698  13.648
42074W        W 8615  38.453  15.163  10.755
42075W        W 8616  11.545  23.286  11.495
42076W        W 8617  16.127  38.589   1.334
42077W        W 8618  44.348  42.276   4.783
42078W        W 8619  41.561  28.679   4.095
42079W        W 8620  18.097  16.356  14.224
42080W        W 8621   6.978  44.369   3.152
42081W        W 8622  26.598  41.210   4.128
42082W        W 8623  32.954  34.704  12.136
42083W        W 8624  20.914  28.642   3.185
42084W        W 8625  12.805  14.878  14.883
42085W        W 8626  26.225  27.139   0.307
42086W        W 8627  15.558  12.081   0.003
42087W        W 8628  29.144  14.290   3.128
42088W        W 8629  10.171  33.498   4.009
42089W        W 8630   3.873  10.038  11.279
42090W        W 8631  42.469   4.287  12.845
42091W        W 8632  15.499  27.904   1.266
42092W        W 8633   2.508   7.967  11.433
42093W        W 8634  28.429   3.015  11.572
42094W        W 8635  15.984  19.931   0.354
42095W        W 8636   7.521  23.213  12.121
42096W        W 8637  43.319  13.586  10.683
42097W        W 8638  16.122  25.849   0.257
42098W        W 8639  38.834  28.563   1.703
42099W        W 8640  18.279  42.288  13.834
42100W        W 8641  39.505   5.218  13.208
42101W        W 8642   2.016  42.715  14.873
42102W        W 8643  31.642  25.520   2.221
42103W        W 8644  11.624  30.968  10.405
42104W        W 8645   8.365  39.818  12.637
42105W        W 8646   9.696   0.681   2.118
42106W        W 8647  44.276  39.347  10.468
42107W        W 8648  43.254  22.862  11.639
42108W        W 8649  41.492  10.893  12.005
42109W        W 8650  22.389  42.998   3.795
42110W        W 8651  14.281  19.635   1.683
42111W        W 8652  21.033  18.823   2.063
42112W        W 8653   2.972  44.894   2.203
42113W        W 8654  32.545  30.515  13.331
42114W        W 8655  36.449  28.580  12.045
42115W        W 8656  15.787  37.994   2.139
42116W        W 8657  21.213   3.700  12.853
42117W        W 8658  40.330  42.486   2.318
42118W        W 8659   3.374  35.563  10.604
42119W        W 8660  33.395  32.341   2.861
42120W        W 8661  27.070  29.424  12.864
42121W        W 8662  18.321  27.699   0.715
42122W        W 8663   2.344   2.387   0.848
42123W        W 8664  33.158   3.694  10.099
42124W        W 8665  10.566  38.353   2.317
42125W        W 8666   1.031  43.026  12.711
42126W        W 8667   3.855   9.420   4.235
42127W        W 8668  38.626  40.873   0.223
42128W        W 8669  18.277   1.846   0.339
42129W        W 8670  10.167  30.075  10.846
42130W        W 8671  37.024   8.424  14.816
42131W        W 8672  36.323  11.981  13.901
42132W        W 8673  11.579  16.678   2.501
42133W        W 8674  39.395   9.626   1.946
42134W        W 8675   4.708  20.045  12.948
42135W        W 8676   4.409  32.827   4.652
42136W        W 8677  11.378  26.907   1.414
42137W        W 8678  32.503   5.407  10.168
42138W        W 8679   6.405  35.827  10.665
42139W        W 8680   2.394   1.735  13.023
42140W        W 8681  38.546  28.865   0.254
42141W        W 8682  32.039  32.179   2.624
42142W        W 8683  20.554  43.389   3.791
42143W        W 8684  21.506  11.265  11.978
42144W        W 8685  15.769  30.841   3.773
42145W        W 8686  41.085  33.047   0.401
42146W        W 8687  21.819   8.727   0.613
42147W        W 8688  41.415  35.913   0.004
42148W        W 8689  37.833  10.516  11.067
42149W        W 8690   3.805  11.453   0.702
42150W        W 8691  42.712  36.867   4.772
42151W        W 8692  19.902  42.934  12.468
42152W        W 8693  23.230  11.000  13.218
42153W        W 8694  22.236  36.548   0.443
42154W        W 8695  42.811  28.676  13.486
42155W        W 8696  19.068   1.020  11.145
42156W        W 8697  41.996  26.108   4.374
42157W        W 8698  10.443  20.306  12.782
42158W        W 8699  27.753  26.754  12.826
42159W        W 8700  32.359  39.879  13.341
42160W        W 8701  22.294  19.519   2.263
42161W        W 8702   9.578  32.382  12.023
42162W        W 8703  37.634  36.039  14.408
42163W        W 8704  17.607  13.918   1.873
42164W        W 8705  23.730  13.246  14.895
42165W        W 8706  32.622  37.530   4.710
42166W        W 8707  42.228  21.501   1.491
42167W        W 8708  33.306   8.396   5.022
42168W        W 8709   9.047   0.701   4.982
42169W        W 8710  37.207  22.253  12.067
42170W        W 8711  19.289  17.252   3.840
42171W        W 8712  44.499  15.629   2.685
42172W        W 8713   2.745  22.039   0.815
42173W        W 8714  29.052  11.595   0.702
42174W        W 8715  40.464  16.031  14.430
42175W        W 8716  41.152  11.882   4.906
42176W        W 8717  17.396  29.426   3.725
42177W        W 8718  38.070   0.192   1.399
42178W        W 8719  32.468  44.984   3.280
42179W        W 8720  41.264  32.969  11.146
42180W        W 8721  10.265  22.655  12.150
42181W        W 8722   7.810   8.758   1.851
42182W        W 8723  44.249  32.183  12.043
42183W        W 8724  24.532  10.407  12.858
42184W        W 8725  32.339  26.991  12.748
42185W        W 8726  26.165   5.142  12.954
42186W        W 8727  14.140   9.857  12.098
42187W        W 8728  42.201  16.027   0.754
42188W        W 8729  17.657   5.279   2.653
42189W        W 8730   5.187  27.266   0.311
42190W        W 8731  13.536  22.975   4.000
42191W        W 8732  14.296  26.130   3.920
42192W        W 8733  22.130  43.935   4.246
42193W        W 8734   2.930  12.243   0.024
42194W        W 8735  14.138   0.674  12.477
42195W        W 8736   7.341  15.339   0.238
42196W        W 8737   1.708  18.099  13.926
42197W        W 8738  42.444  29.802  11.879
42198W        W 8739  26.370  12.746  13.588
42199W        W 8740  12.562  38.245  13.924
42200W        W 8741  17.266   3.854  13.425
42201W        W 8742  25.983   5.087   2.313
42202W        W 8743  31.443  19.105   4.152
42203W        W 8744  37.313  33.156   4.521
42204W        W 8745  11.234  42.698   1.037
42205W        W 8746  38.926  42.232   5.040
42206W        W 8747  43.765  25.636  11.045
42207W        W 8748  15.979  20.054   4.933
42208W        W 8749   6.213  29.590  12.456
42209W        W 8750  38.012  35.352   2.939
42210W        W 8751   0.180  36.097  12.572
42211W        W 8752   3.255  21.701  13.340
42212W        W 8753   7.428  32.743  13.083
42213W        W 8754  29.486   0.420   3.306
42214W        W 8755  43.235  29.993   0.786
42215W        W 8756   8.658  37.422  11.150
42216W        W 8757  10.808   1.246  13.224
42217W        W 8758  19.889  14.129  14.380
42218W        W 8759  20.078  38.201   4.595
42219W        W 8760   2.913   5.750   0.304
42220W        W 8761   4.411  34.054  14.270
42221W        W 8762  16.166  14.227   9.600
42222W        W 8763  25.003  37.324   1.669
42223W        W 8764   1.423  17.573   4.600
42224W        W 8765  21.465  10.193  14.524
42225W        W 8766  31.606   3.629  14.755
42226W        W 8767  33.298  11.305   0.211
42227W        W 8768   6.493   8.172  13.158
42228W        W 8769  39.995  35.603   1.283
42229W        W 8770  42.805   9.123  13.074
42230W        W 8771   3.868  35.327  12.457
42231W        W 8772   4.840  24.766   0.330
42232W        W 8773  42.924  12.770   4.275
42233W        W 8774  17.603   9.214  14.395
42234W        W 8775  39.703   8.413   0.216
42235W        W 8776  35.836  39.328   3.818
42236W        W 8777  37.723  11.436  14.749
42237W        W 8778  30.572  32.870  11.579
42238W        W 8779  13.224  20.835  11.591
42239W        W 8780  16.974  42.231   3.719
42240W        W 8781  34.390  37.523   1.314
42241W        W 8782  17.034  32.926  11.329
42242W        W 8783  10.757  38.685   5.046
42243W        W 8784  43.944  42.680  14.352
42244W        W 8785  43.704  11.138   0.308
42245W        W 8786  29.643  37.979   1.907
42246W        W 8787   5.808  32.056  12.374
42247W        W 8788  23.059  29.901   4.165
42248W        W 8789  31.633   9.867  13.402
42249W        W 8790  42.222  36.333  11.227
42250W        W 8791  34.488  26.926  10.588
42251W        W 8792  32.864  27.463  13.981
42252W        W 8793  33.443  36.658  13.826
42253W        W 8794  28.021  14.356   0.319
42254W        W 8795   1.827  32.981  14.477
42255W        W 8796  25.983  21.680   3.416
42256W        W 8797  30.157  42.783   1.605
42257W        W 8798  37.544  26.767   3.413
42258W        W 8799  42.175  34.801  10.321
42259W        W 8800  33.032  39.656  13.673
42260W        W 8801   8.798  16.344   3.307
42261W        W 8802  42.489  35.068   4.538
42262W        W 8803  36.699  41.032  11.857
42263W        W 8804   1.819  17.877   2.767
42264W        W 8805  44.807   0.715   4.905
42265W        W 8806  28.233  11.134  13.400
42266W        W 8807  19.254  42.083  10.894
42267W        W 8808  21.771  30.233  12.470
42268W        W 8809  14.774  39.005   5.087
42269W        W 8810   9.445  34.538   4.663
42270W        W 8811  15.131   3.265  12.537
42271W        W 8812  29.879  30.109   1.645
42272W        W 8813   2.810  34.486  12.236
42273W        W 8814  11.113  21.589  13.336
42274W        W 8815  19.255  36.310   3.659
42275W        W 8816  15.108  41.868  11.384
42276W        W 8817  18.491  32.104   4.088
42277W        W 8818  18.217  21.686  14.118
42278W        W 8819  19.942   9.213  14.432
42279W        W 8820  15.646  34.434  10.184
42280W        W 8821  32.628  19.452  14.596
42281W        W 8822  35.315  42.382   1.206
42282W        W 8823  14.752  42.029   1.453
42283W        W 8824  11.667  11.562  14.502
42284W        W 8825  19.398  25.565  14.306
42285W        W 8826  20.059  14.783   3.887
42286W        W 8827  44.878  30.543  13.405
42287W        W 8828   0.433  22.223   2.740
42288W        W 8829  36.104  36.824   0.346
42289W        W 8830  33.964  39.547   2.640
42290W        W 8831  11.321  39.982  13.594
42291W        W 8832  13.293   7.439   3.184
42292W        W 8833   6.701  43.410  11.395
42293W        W 8834  33.492  40.788   1.474
42294W        W 8835  43.767  20.767  12.028
42295W        W 8836  23.773  16.245   4.125
42296W        W 8837  35.418   7.919   0.868
42297W        W 8838  42.433   5.796   3.002
42298W        W 8839  22.232  10.275  12.275
42299W        W 8840  32.486   1.915  13.021
42300W        W 8841   7.833  33.986  14.860
42301W        W 8842   1.283  43.405   2.396
42302W        W 8843  41.884  39.065  13.894
42303W        W 8844  30.587   8.879   0.698
42304W        W 8845  19.786  17.325   0.394
42305W        W 8846  20.081  23.640  10.925
42306W        W 8847   8.653  31.528   1.310
42307W        W 8848  39.769   5.330   1.888
42308W        W 8849  41.006  17.865  11.008
42309W        W 8850   0.604   3.202  12.880
42310W        W 8851   3.447  38.818  11.882
42311W        W 8852  26.938  36.076  10.749
42312W        W 8853   2.362  38.065  12.763
42313W        W 8854   3.749  38.073   4.214
42314W        W 8855   1.513   2.239   4.062
42315W        W 8856   1.027  40.647   3.283
42316W        W 8857   1.327  25.964   0.847
42317W        W 8858  27.642  25.574  11.485
42318W        W 8859  12.539  38.360  12.472
42319W        W 8860  22.146  34.782  13.713
42320W        W 8861   2.034  14.181  11.631
42321W        W 8862  17.318   9.807  12.634
42322W        W 8863  42.329  37.401   4.508
42323W        W 8864  24.310  34.678  12.137
42324W        W 8865  16.776   7.593   0.944
42325W        W 8866  10.382  34.510  11.374
42326W        W 8867  30.947  36.276   0.681
42327W        W 8868  28.100  26.469   3.607
42328W        W 8869  35.991  16.222  13.470
42329W        W 8870  27.599  36.071  12.095
42330W        W 8871  41.460   2.219   0.955
42331W        W 8872  26.683  17.785  13.078
42332W        W 8873  27.670   9.909  11.619
42333W        W 8874  39.758  16.921   2.239
42334W        W 8875  27.608   6.251   2.713
42335W        W 8876  32.531  38.789   3.569
42336W        W 8877  21.781   5.492  11.300
42337W        W 8878  13.707  44.372  11.239
42338W        W 8879  27.704  38.881  11.371
42339W        W 8880  14.022  17.271   5.039
42340W        W 8881   5.140   9.869  11.452
42341W        W 8882  18.499  41.953  14.581
42342W        W 8883  40.192  18.111  11.554
42343W        W 8884   4.672  42.961  13.099
42344W        W 8885  18.099  43.205   0.478
42345W        W 8886  40.279   8.320   1.601
42346W        W 8887  17.224  41.081  13.003
42347W        W 8888   0.016  23.142  12.850
42348W        W 8889   0.946  31.183   0.347
42349W        W 8890  29.691  37.175  14.942
42350W        W 8891  38.014  44.116  12.990
42351W        W 8892  19.352  11.717   0.183
42352W        W 8893  35.556   3.772   5.319
42353W        W 8894  15.586  25.624   1.878
42354W        W 8895  33.642  34.061  13.172
42355W        W 8896  25.366   9.317   2.665
42356W        W 8897   4.729  41.602   1.185
42357W        W 8898  29.182   6.009  14.002
42358W        W 8899  11.611  40.770  12.046
42359W        W 8900  27.290  18.622  11.734
42360W        W 8901  38.420  36.499   4.303
42361W        W 8902  10.668  29.075  11.562
42362W        W 8903  31.624  29.603   2.398
42363W        W 8904  21.447  36.170   0.601
42364W        W 8905  19.447  22.638  12.016
42365W        W 8906  30.083  39.676  10.751
42366W        W 8907  25.519  26.891  14.855
42367W        W 8908  36.588  16.004   0.040
42368W        W 8909  29.414  20.708   3.323
42369W        W 8910  44.742  22.719  11.618
42370W        W 8911  17.767   0.404   1.929
42371W        W 8912   9.287  44.473   3.826
42372W        W 8913  31.494  37.948   4.699
42373W        W 8914  32.342   0.868  11.931
42374W        W 8915  37.032  13.518   9.813
42375W        W 8916  32.423  16.367  12.468
42376W        W 8917  41.837  25.965   1.519
42377W        W 8918   4.707  35.799  10.421
42378W        W 8919  14.702   2.698   3.919
42379W        W 8920  20.062  13.881  13.945
42380W        W 8921  35.867  18.171  10.669
42381W        W 8922  37.962   6.304   4.800
42382W        W 8923  20.585   2.000  12.133
42383W        W 8924  44.403  32.906   1.745
42384W        W 8925   7.214   6.832   1.911
42385W        W 8926  13.125  34.155   3.334
42386W        W 8927  11.621  24.068   1.398
42387W        W 8928   1.896  21.943  14.354
42388W        W 8929   8.707  43.778   3.277
42389W        W 8930  41.686  42.414  12.348
42390W        W 8931  13.156  15.799  14.089
42391W        W 8932   0.762   3.855   2.216
42392W        W 8933   9.847   7.196  11.150
42393W        W 8934   2.774  23.247   1.272
42394W        W 8935  32.176  16.651   0.901
42395W        W 8936  21.306  26.003  14.793
42396W        W 8937  24.221  21.159  10.756
42397W        W 8938  16.657  15.381  14.034
42398W        W 8939   2.373   3.383  14.468
42399W        W 8940  34.801  39.502  12.011
42400W        W 8941  10.128  34.168  13.548
42401W        W 8942  11.485  29.579  11.074
42402W        W 8943  44.434  43.231  10.765
42403W        W 8944  16.348  30.002   3.753
42404W        W 8945  14.777  15.003   1.324
42405W        W 8946  31.443  30.109  13.486
42406W        W 8947  20.546  41.068   3.913
42407W        W 8948  13.666  30.422  13.378
42408W        W 8949   8.942  11.790   0.372
42409W        W 8950  22.713  38.817  10.928
42410W        W 8951  21.226  34.955  14.646
42411W        W 8952   8.447  25.667   3.224
42412W        W 8953  43.741  43.447   3.700
42413W        W 8954  40.809  38.297  12.456
42414W        W 8955  34.826   7.688  11.124
42415W        W 8956  39.918  23.649   1.330
42416W        W 8957  38.992  24.992   5.026
42417W        W 8958  36.211  41.349  14.838
42418W        W 8959   8.760   6.150   3.252
42419W        W 8960   0.331  19.524   0.285
42420W        W 8961   0.949  19.759  14.343
42421W        W 8962  15.272   4.249  13.666
42422W        W 8963  11.334  30.968  13.189
42423W        W 8964   1.922  32.565   0.869
42424W        W 8965  28.580   5.343   0.349
42425W        W 8966  13.378   1.353   2.397
42426W        W 8967  25.330   6.193   5.236
42427W        W 8968  36.532  10.942  13.931
42428W        W 8969   8.370  30.579   3.783
42429W        W 8970  39.367  42.319   3.253
42430W        W 8971  17.596  35.472   1.546
42431W        W 8972  41.606   0.156   3.445
42432W        W 8973  25.564  25.502   4.620
42433W        W 8974  37.388  40.015   4.172
42434W        W 8975   9.723   7.668   1.661
42435W        W 8976  34.298   0.547   4.886
42436W        W 8977  35.188  41.326   3.936
42437W        W 8978  18.538  29.525  13.362
42438W        W 8979  22.478  40.930   2.262
42439W        W 8980  41.401  10.258  11.282
42440W        W 8981  19.136  37.543  12.970
42441W        W 8982   7.167   2.036  14.619
42442W        W 8983   0.378  41.156   0.460
42443W        W 8984   9.559  42.802  13.026
42444W        W 8985  16.348  25.170   3.222
42445W        W 8986  37.157  38.025  12.873
42446W        W 8987  40.127  42.597   0.290
42447W        W 8988  20.218   6.948  11.991
42448W        W 8989  28.958  14.540  12.550
42449W        W 8990  35.804  38.433   1.455
42450W        W 8991   0.241  36.225   2.333
42451W        W 8992  22.410  15.908   4.966
42452W        W 8993  44.406  19.325  14.591
42453W        W 8994   7.365   0.253   3.763
42454W        W 8995  38.367  30.461   1.333
42455W        W 8996  33.442   3.156   1.801
42456W        W 8997  42.385  11.402   2.852
42457W        W 8998  25.428  30.006  11.927
42458W        W 8999  41.273   4.795   2.684
42459W        W 9000  15.305  10.643   0.714
42460W        W 9001  37.551  36.616   2.891
42461W        W 9002  38.025   1.292   3.558
42462W        W 9003  43.864   8.372  14.465
42463W        W 9004   7.946  23.271   3.581
42464W        W 9005  27.175   0.346   4.564
42465W        W 9006  31.835  12.789   0.268
42466W        W 9007  10.246   1.301  12.896
42467W        W 9008   1.928   6.678   4.686
42468W        W 9009  10.210  15.019   4.556
42469W        W 9010   0.734   2.402  11.512
42470W        W 9011  30.034  44.932   4.935
42471W        W 9012  11.569  28.621  13.666
42472W        W 9013  23.798  25.601   4.206
42473W        W 9014   7.308  13.570   0.876
42474W        W 9015   6.394  17.736  12.391
42475W        W 9016  23.730   9.250   3.664
42476W        W 9017  40.338  38.556  13.808
42477W        W 9018  14.847  18.991   1.437
42478W        W 9019   1.160   0.503  13.932
42479W        W 9020  43.206  40.321   1.809
42480W        W 9021  12.689  39.777   3.171
42481W        W 9022   4.734  28.880   3.094
42482W        W 9023  23.452  37.169   3.099
42483W        W 9024  26.285  24.868  13.775
42484W        W 9025  18.067  43.722  13.345
42485W        W 9026  22.785   3.812  13.569
42486W        W 9027  34.471  18.293  12.048
42487W        W 9028  35.546   6.162  13.814
42488W        W 9029  22.051   5.241  13.521
42489W        W 9030  43.431  16.833  13.904
42490W        W 9031   3.456  40.509   4.048
42491W        W 9032  23.895  14.586  13.570
42492W        W 9033  17.546   4.187  13.117
42493W        W 9034  21.054  28.561  13.590
42494W        W 9035  13.091  32.799   3.593
42495W        W 9036  36.447  31.444   1.265
42496W        W 9037  42.545  11.694  11.083
42497W        W 9038  16.779  13.901  12.816
42498W        W 9039  35.852  37.045  12.659
42499W        W 9040  25.487  24.982  13.402
42500W        W 9041   4.490  32.184   3.691
42501W        W 9042  19.709  37.087  12.156
42502W        W 9043  25.688  23.706   2.396
42503W        W 9044   2.505  20.239   4.601
42504W        W 9045  38.123   7.142  13.427
42505W        W 9046  30.156  24.196  10.843
42506W        W 9047  19.313  13.112   5.415
42507W        W 9048  35.358  34.997   5.034
42508W        W 9049  28.898  42.949   0.995
42509W        W 9050   5.323  23.226   1.789
42510W        W 9051  28.533  10.699   2.450
42511W        W 9052  33.826   2.559  14.817
42512W        W 9053  33.613  41.383  14.050
42513W        W 9054  37.405  11.548  11.938
42514W        W 9055  41.462  30.593  11.189
42515W        W 9056  18.082  24.496   1.842
42516W        W 9057  10.075   0.283  12.955
42517W        W 9058  16.254  39.471   4.922
42518W        W 9059  10.415  39.973   2.686
42519W        W 9060  27.262  20.663  10.490
42520W        W 9061   2.321   7.201   4.079
42521W        W 9062  25.219   1.212  12.698
42522W        W 9063  32.313  23.210  13.570
42523W        W 9064  19.514  27.051   2.806
42524W        W 9065   4.713  14.693   4.768
42525W        W 9066   9.416   6.847  13.327
42526W        W 9067   3.018  43.745   2.939
42527W        W 9068  31.924  26.524  10.714
42528W        W 9069  17.648  24.999   0.530
42529W        W 9070  36.973   4.489   0.801
42530W        W 9071  13.402  26.092   3.351
42531W        W 9072   5.612  30.472   0.392
42532W        W 9073  27.639  14.198   1.735
42533W        W 9074  20.724  11.082   4.154
42534W        W 9075  20.600  18.390  13.736
42535W        W 9076  12.578   7.257  10.580
42536W        W 9077  21.309   1.894  12.624
42537W        W 9078   4.427  30.457  12.388
42538W        W 9079  32.005  28.092   1.311
42539W        W 9080  28.727  27.518   3.291
42540W        W 9081  39.887   3.282  14.186
42541W        W 9082   2.533  40.734   1.180
42542W        W 9083  40.747   9.640   0.793
42543W        W 9084  44.768   9.153  13.659
42544W        W 9085  23.612  34.133   4.717
42545W        W 9086  37.944  21.585  12.036
42546W        W 9087  23.084   9.207  12.622
42547W        W 9088   4.651  22.323   1.346
42548W        W 9089  36.494  17.812  12.133
42549W        W 9090  26.785   3.860   2.171
42550W        W 9091  40.194  15.021  10.672
42551W        W 9092  41.862  23.104   4.254
42552W        W 9093  14.639   1.389  14.472
42553W        W 9094  19.375  44.814  10.869
42554W        W 9095   3.853   9.478   0.456
42555W        W 9096  14.567  24.769  10.730
42556W        W 9097  33.186  10.385   3.681
42557W        W 9098  38.384   2.280   2.774
42558W        W 9099  30.615  43.689   4.821
42559W        W 9100  22.670  13.985   4.194
42560W        W 9101  31.395   0.750  13.932
42561W        W 9102  40.258   3.177   1.570
42562W        W 9103  13.296  23.594  13.010
42563W        W 9104  11.655   9.892  13.975
42564W        W 9105  33.114  32.397   3.296
42565W        W 9106  20.680   1.750   0.822
42566W        W 9107  12.655   8.314   1.181
42567W        W 9108  20.086   2.563   0.830
42568W        W 9109   1.018   7.972   1.924
42569W        W 9110  33.952  12.361   2.884
42570W        W 9111  37.919  20.983  14.830
42571W        W 9112  26.886  18.353  11.610
42572W        W 9113  16.529  33.167   0.742
42573W        W 9114   5.961   1.849  12.498
42574W        W 9115  27.409  42.779   3.601
42575W        W 9116  11.394  39.120   5.040
42576W        W 9117   0.976  31.989  14.650
42577W        W 9118  29.139  15.265   0.321
42578W        W 9119  34.508  10.305   0.384
42579W        W 9120  29.022  25.540  14.436
42580W        W 9121  19.402  38.140  14.167
42581W        W 9122  14.129  33.677  11.416
42582W        W 9123  39.230  19.107  12.553
42583W        W 9124  24.312  42.927  14.837
42584W        W 9125   6.559  14.869  14.359
42585W        W 9126  24.128  28.882  12.522
42586W        W 9127  24.306  14.199  10.480
42587W        W 9128  22.431  37.059   0.962
42588W        W 9129   7.181  29.346  12.458
42589W        W 9130   7.173  24.666   0.664
42590W        W 9131  29.951  11.884   0.273
42591W        W 9132   3.747  29.971  13.289
42592W        W 9133  11.366  31.137  13.659
42593W        W 9134   4.600  19.523   4.600
42594W        W 9135  13.637  44.050  13.455
42595W        W 9136  18.589  37.273   3.274
42596W        W 9137   6.852  40.783   1.787
42597W        W 9138   1.966  36.461   0.932
42598W        W 9139  11.173  24.354  12.418
42599W        W 9140  44.530   4.005  14.059
42600W        W 9141  29.162  40.355  13.036
42601W        W 9142  30.574  19.267  12.601
42602W        W 9143  20.428  43.390  11.180
42603W        W 9144  12.063  19.232  12.437
42604W        W 9145  43.000  21.396  12.727
42605W        W 9146   6.863  16.518  12.432
42606W        W 9147  10.307  37.911   2.249
42607W        W 9148  20.191  24.821   2.241
42608W        W 9149  10.555  27.533   3.756
42609W        W 9150   1.542  28.648  12.081
42610W        W 9151   5.332  40.882   4.578
42611W        W 9152  10.365  15.194   3.686
42612W        W 9153   1.059  26.382   9.909
42613W        W 9154  44.916   4.677  12.463
42614W        W 9155   6.367  32.436   0.711
42615W        W 9156  27.661  33.419   2.730
42616W        W 9157  39.250  26.609  14.511
42617W        W 9158  34.055  19.856  12.498
42618W        W 9159   6.766  24.024  10.333
42619W        W 9160  40.875  12.395   0.815
42620W        W 9161   1.258  20.468   0.998
42621W        W 9162  32.182  16.318   3.172
42622W        W 9163  24.470   2.747   0.138
42623W        W 9164  42.632  25.322  11.909
42624W        W 9165  24.944  26.995   4.096
42625W        W 9166   9.318  33.122  13.936
42626W        W 9167  27.560   5.780  12.711
42627W        W 9168  35.085  23.468   0.338
42628W        W 9169   7.628   7.323  10.801
42629W        W 9170  40.931  20.438   4.117
42630W        W 9171  37.664  31.591  14.052
42631W        W 9172  37.358  38.596  12.754
42632W        W 9173   3.229   0.518   3.222
42633W        W 9174  14.220  27.161   1.033
42634W        W 9175  32.020  14.693   3.105
42635W        W 9176  22.238  23.455  12.384
42636W        W 9177   8.437  40.574   0.991
42637W        W 9178   5.778  10.089   0.499
42638W        W 9179  12.602  17.248  12.711
42639W        W 9180  31.910  44.286   2.203
42640W        W 9181  38.049  19.098  14.855
42641W        W 9182  28.131  14.804  11.840
42642W        W 9183  25.146  39.929   3.095
42643W        W 9184  29.463  39.301  14.051
42644W        W 9185  22.989  34.765   2.573
42645W        W 9186   2.934  37.028   1.840
42646W        W 9187   7.348  32.154   2.277
42647W        W 9188  39.190  24.074   5.060
42648W        W 9189  15.514  15.366   0.897
42649W        W 9190  31.610  40.838  14.488
42650W        W 9191  38.586  16.599  10.853
42651W        W 9192  25.456  28.508   2.669
42652W        W 9193  27.600  27.364  10.615
42653W        W 9194   6.810  19.993   4.088
42654W        W 9195  34.131  11.130   4.780
42655W        W 9196  13.185  14.011  14.739
42656W        W 9197  39.907   3.077   0.223
42657W        W 9198  33.170   1.477  14.914
42658W        W 9199   1.314  27.100  13.921
42659W        W 9200  42.199  28.927  11.262
42660W        W 9201  36.893  40.753   3.184
42661W        W 9202  25.753  14.717   1.858
42662W        W 9203   3.777  14.204   3.023
42663W        W 9204  14.585  28.115  10.320
42664W        W 9205  18.096  21.797  14.632
42665W        W 9206  15.305  27.254  13.084
42666W        W 9207  32.467  26.759   1.754
42667W        W 9208  43.505  18.842  14.868
42668W        W 9209  36.904  42.509  14.770
42669W        W 9210   6.251  35.934   2.562
42670W        W 9211   8.878  34.834  13.924
42671W        W 9212  22.385  15.636   1.283
42672W        W 9213   8.862   7.077   1.666
42673W        W 9214  35.802  39.698  11.173
42674W        W 9215  18.578  37.530   4.167
42675W        W 9216  35.857  42.430   0.321
42676W        W 9217   6.899  35.402   1.897
42677W        W 9218  17.155  30.631   0.623
42678W        W 9219  35.469  26.862  14.920
42679W        W 9220  17.558   4.681   4.518
42680W        W 9221  14.017  33.180   4.461
42681W        W 9222   4.978  37.521  14.684
42682W        W 9223   4.422   2.762  13.465
42683W        W 9224   3.822  27.290  12.337
42684W        W 9225  28.221  40.759  10.801
42685W        W 9226  40.724   4.484   1.683
42686W        W 9227  44.976   3.734  14.239
42687W        W 9228  14.790  28.897   9.859
42688W        W 9229  41.460  44.858  14.600
42689W        W 9230  23.843  13.169   3.154
42690W        W 9231   2.687  24.144   4.338
42691W        W 9232   8.813  29.723   3.598
42692W        W 9233   3.762   8.652   2.131
42693W        W 9234  40.397  18.250  12.464
42694W        W 9235  15.388  33.900  14.267
42695W        W 9236  19.956  41.217  13.346
42696W        W 9237  28.089  30.093   0.566
42697W        W 9238  11.353  13.891  13.277
42698W        W 9239  32.329  37.096   4.680
42699W        W 9240  20.379  18.324   3.765
42700W        W 9241  19.109  10.366  12.867
42701W        W 9242  16.693  29.214  13.358
42702W        W 9243  43.479  21.060   2.772
42703W        W 9244  30.704   9.765   3.082
42704W        W 9245  21.420  35.193   4.044
42705W        W 9246  16.265  36.018  10.719
42706W        W 9247   9.618  38.857   1.720
42707W        W 9248  19.632  22.923  11.642
42708W        W 9249   4.552  22.924   1.427
42709W        W 9250   5.452  14.207   1.415
42710W        W 9251  13.618   2.725  14.967
42711W        W 9252  13.853  29.134   2.812
42712W        W 9253  16.074  23.017  11.547
42713W        W 9254  22.760  17.481   3.652
42714W        W 9255  18.202   1.364   3.766
42715W        W 9256  29.597  34.080  12.497
42716W        W 9257  32.596  23.007   4.041
42717W        W 9258   2.238   6.255   4.646
42718W        W 9259  43.056  34.820   1.456
42719W        W 9260  14.368  32.517   2.599
42720W        W 9261  36.536   9.684   1.035
42721W        W 9262  42.095  14.369   1.824
42722W        W 9263  16.645   5.389  14.302
42723W        W 9264  35.031  17.104  13.780
42724W        W 9265  23.582  18.086   0.406
42725W        W 9266  18.128  31.138   4.273
42726W        W 9267  22.612  22.086   3.893
42727W        W 9268  21.019   7.008   3.485
42728W        W 9269  21.259   9.594  11.596
42729W        W 9270  19.596  34.572   4.806
42730W        W 9271  13.158   3.364   5.048
42731W        W 9272  42.314   9.626   4.385
42732W        W 9273  44.113   7.224   0.576
42733W        W 9274  21.310  43.493  14.863
42734W        W 9275  12.087  20.527  12.001
42735W        W 9276   3.839   6.743   2.167
42736W        W 9277  40.856  38.513   3.908
42737W        W 9278  27.964  19.307  11.464
42738W        W 9279  44.311   2.147   3.662
42739W        W 9280   4.427   8.340   3.988
42740W        W 9281  12.255  39.305  12.969
42741W        W 9282  21.523  11.765   0.662
42742W        W 9283  35.311  24.148   1.318
42743W        W 9284   1.378  22.977   2.797
42744W        W 9285  23.912  35.911   4.688
42745W        W 9286  37.883  40.136   4.922
42746W        W 9287  28.418  38.431  14.379
42747W        W 9288  40.489  31.897   3.215
42748W        W 9289  37.718   7.507  11.259
42749W        W 9290  15.472  10.336  11.997
42750W        W 9291  34.958  35.573  14.418
42751W        W 9292  26.998  40.092  12.905
42752W        W 9293  19.660   5.155   2.583
42753W        W 9294  26.603   8.357   1.267
42754W        W 9295   9.664   8.607  14.075
42755W        W 9296  18.508  21.188   3.243
42756W        W 9297  40.654  14.506   5.125
42757W        W 9298  40.310  36.449   2.752
42758W        W 9299  15.559   0.486   2.752
42759W        W 9300  27.119   1.370   2.412
42760W        W 9301  32.467  15.871  12.465
42761W        W 9302  34.435  24.855   2.210
42762W        W 9303  17.605  33.114   2.710
42763W        W 9304  38.538  23.223   2.864
42764W        W 9305  39.561  41.091   3.699
42765W        W 9306  19.548  13.355  13.504
42766W        W 9307  39.100  38.584   4.667
42767W        W 9308   8.055  24.938  11.036
42768W        W 9309  40.488   2.143   4.104
42769W        W 9310  27.074  18.204   0.963
42770W        W 9311  27.091  31.361   2.910
42771W        W 9312  10.924  10.263   4.664
42772W        W 9313  14.952   7.397   2.811
42773W        W 9314  20.250  12.655  12.149
42774W        W 9315  12.619  21.281  13.313
42775W        W 9316  22.619  12.068  10.627
42776W        W 9317  12.761  17.709   0.935
42777W        W 9318  43.950  18.583   1.908
42778W        W 9319  30.393  22.892   0.737
42779W        W 9320  22.255  10.468   4.956
42780W        W 9321   9.578  38.263  11.528
42781W        W 9322   4.288  28.423  10.314
42782W        W 9323  24.575  16.626   4.101
42783W        W 9324  31.553  39.705  14.844
42784W        W 9325  16.864   3.204   0.780
42785W        W 9326  43.716  44.174  13.478
42786W        W 9327  22.175  34.456  10.559
42787W        W 9328  39.980  10.723  13.434
42788W        W 9329  14.069   1.986  12.803
42789W        W 9330   8.953  16.456  14.439
42790W        W 9331   2.041  43.859  13.029
42791W        W 9332   3.988  11.273   3.219
42792W        W 9333  35.346  29.235  14.050
42793W        W 9334   4.819  20.653  10.702
42794W        W 9335  18.757  16.934  11.402
42795W        W 9336  28.095   5.159  14.216
42796W        W 9337  36.896  36.607   4.585
42797W        W 9338  34.890   6.757  12.174
42798W        W 9339   1.626  22.090   3.574
42799W        W 9340  40.548  40.646  11.347
42800W        W 9341  23.713  12.993  14.065
42801W        W 9342  31.791  14.679   1.737
42802W        W 9343   3.512  24.712   0.393
42803W        W 9344  13.780   3.218  12.043
42804W        W 9345  30.857  17.064   1.369
42805W        W 9346   6.706  33.962  10.792
42806W        W 9347   6.842  22.088   4.274
42807W        W 9348  17.912   7.927  11.236
42808W        W 9349   9.327  41.947   3.054
42809W        W 9350   1.566  41.386   0.831
42810W        W 9351  29.525  12.087   4.805
42811W        W 9352  32.211  42.865   4.550
42812W        W 9353  22.833  22.940  12.808
42813W        W 9354  22.792  19.619   0.503
42814W        W 9355  25.227   7.878  14.869
42815W        W 9356  37.314  30.437   3.668
42816W        W 9357   6.677  40.365  11.605
42817W        W 9358  28.113  15.093  14.228
42818W        W 9359  43.337  20.205  11.954
42819W        W 9360  19.944   0.029   4.495
42820W        W 9361  20.182  38.408  13.755
42821W        W 9362   8.233   5.956   3.191
42822W        W 9363  30.937  20.611  12.911
42823W        W 9364   5.631  42.886   2.633
42824W        W 9365  31.613  44.413   4.793
42825W        W 9366  10.389  42.384   4.439
42826W        W 9367  17.303  16.273   2.140
42827W        W 9368  35.894  25.759   5.124
42828W        W 9369  15.761  16.159  10.240
42829W        W 9370   8.380   5.201   0.804
42830W        W 9371  14.036  38.787   0.646
42831W        W 9372  17.829  17.986  12.873
42832W        W 9373   5.467   3.162  13.079
42833W        W 9374  12.542  24.755  10.539
42834W        W 9375   5.345  11.813   4.063
42835W        W 9376  18.076   9.793  11.150
42836W        W 9377  44.267  29.814  13.543
42837W        W 9378   9.954  41.440   3.420
42838W        W 9379  31.165  31.349  11.807
42839W        W 9380  42.803   2.503   0.881
42840W        W 9381  38.941  29.335  10.771
42841W        W 9382  35.134  25.614   2.652
42842W        W 9383  11.891  28.788  12.800
42843W        W 9384  34.092   7.646   4.414
42844W        W 9385  13.750  34.721   0.238
42845W        W 9386  12.294  18.360   0.891
42846W        W 9387  20.589  31.086  12.521
42847W        W 9388   6.275   3.076   1.718
42848W        W 9389  26.022   5.995  13.512
42849W        W 9390  22.463   1.129   1.861
42850W        W 9391  40.716  22.097   4.190
42851W        W 9392  36.872  40.929   2.670
42852W        W 9393  34.420  23.638  11.135
42853W        W 9394  42.763   4.403   1.201
42854W        W 9395  27.090  35.283  14.789
42855W        W 9396  14.758  14.210   2.429
42856W        W 9397  33.022   8.740  11.402
42857W        W 9398  15.629   8.278  10.632
42858W        W 9399  11.734  33.331  11.090
42859W        W 9400  43.239  13.410   1.368
42860W        W 9401   5.802   9.117   2.494
42861W        W 9402   6.547  13.359   4.903
42862W        W 9403  44.316  17.909  13.328
42863W        W 9404  28.032  26.066  14.985
42864W        W 9405  13.084  29.556   1.225
42865W        W 9406  12.197  43.251  13.731
42866W        W 9407  29.150  39.572  10.693
42867W        W 9408  24.430   2.554  11.930
42868W        W 9409  12.622  41.984   1.290
42869W        W 9410   7.331   8.871   2.240
42870W        W 9411  24.012  21.628  13.452
42871W        W 9412  35.096  44.911  10.967
42872W        W 9413  35.376  17.092   3.579
42873W        W 9414   6.107  15.124   3.153
42874W        W 9415  37.767   2.220   3.205
42875W        W 9416  37.405  21.851   4.182
42876W        W 9417   9.362   3.984   0.769
42877W        W 9418   5.771  35.816   4.407
42878W        W 9419  43.185  20.517  13.838
42879W        W 9420  11.183  21.974   4.523
42880W        W 9421  44.488   0.395   1.322
42881W        W 9422  14.598  27.553   2.718
42882W        W 9423  31.340  21.986   0.100
42883W        W 9424  35.670  44.784  13.048
42884W        W 9425  39.032  35.454  14.038
42885W        W 9426  42.776  13.889   4.239
42886W        W 9427   9.575  43.588   3.662
42887W        W 9428  41.326  28.767  13.485
42888W        W 9429  42.623  34.050  12.587
42889W        W 9430  34.090  31.261   2.422
42890W        W 9431  44.995  12.104  11.494
42891W        W 9432  15.011  29.155   3.282
42892W        W 9433  40.732  33.656   2.909
42893W        W 9434   4.439  44.036   2.864
42894W        W 9435  11.645   4.816   1.242
42895W        W 9436  25.740  28.396  10.341
42896W        W 9437  34.091  28.936  13.639
42897W        W 9438  16.225  21.275   0.018
42898W        W 9439   1.960  35.812   1.010
42899W        W 9440   4.997   2.258   3.538
42900W        W 9441  15.006  10.124   3.297
42901W        W 9442  27.711  39.404  10.492
42902W        W 9443  30.445  42.438  10.717
42903W        W 9444  23.046  12.721  10.564
42904W        W 9445  44.803   2.880  11.339
42905W        W 9446   4.865  41.550  10.060
42906W        W 9447   8.984  11.740  12.541
42907W        W 9448   3.434  31.146  10.328
42908W        W 9449  37.414  31.038   4.095
42909W        W 9450  42.286  29.383   0.290
42910W        W 9451  19.512   0.020   3.985
42911W        W 9452  21.022  21.352   4.063
42912W        W 9453  28.915   4.959   0.490
42913W        W 9454  20.268  31.951  11.913
42914W        W 9455  13.305  19.720  13.024
42915W        W 9456   8.218  14.618   2.887
42916W        W 9457   7.780  43.382  13.336
42917W        W 9458  26.800  39.061  11.963
42918W        W 9459  26.282   5.528  11.076
42919W        W 9460  32.026  11.907   4.864
42920W        W 9461  20.602  43.701  13.442
42921W        W 9462   6.277   8.214   0.795
42922W        W 9463  41.511  10.346  13.850
42923W        W 9464  18.673  16.233   2.577
42924W        W 9465  29.567  33.760  10.363
42925W        W 9466  13.790  15.240   3.856
42926W        W 9467  38.928  31.477  11.245
42927W        W 9468   3.985  10.855  11.036
42928W        W 9469  28.590  20.543   4.149
42929W        W 9470   1.286  33.000  13.201
42930W        W 9471   7.846   8.808   2.363
42931W        W 9472  23.671  25.256  11.488
42932W        W 9473  12.041  15.471   1.296
42933W        W 9474  24.537  24.684  12.823
42934W        W 9475  33.370  16.794  12.942
42935W        W 9476  24.724  34.989  12.180
42936W        W 9477  27.735  35.624   4.238
42937W        W 9478  41.104  13.233  13.326
42938W        W 9479   2.430  32.514  13.023
42939W        W 9480  18.037  33.854  14.866
42940W        W 9481   6.828  11.731   1.320
42941W        W 9482  30.153  38.447   2.289
42942W        W 9483  14.352  39.036  11.906
42943W        W 9484   9.337   5.046   0.328
42944W        W 9485  11.937  32.941   2.735
42945W        W 9486  18.773   2.991  10.524
42946W        W 9487  23.952  10.207   4.528
42947W        W 9488  13.835  23.427   0.214
42948W        W 9489  42.825  11.104   2.696
42949W        W 9490  36.359   2.889  14.149
42950W        W 9491  14.693  16.413   1.917
42951W        W 9492  16.788  33.136   0.235
42952W        W 9493  22.920  26.902  14.828
42953W        W 9494  32.842  17.229   1.179
42954W        W 9495  31.565  23.840   3.321
42955W        W 9496  38.456  28.861  13.373
42956W        W 9497  10.967  33.620   4.641
42957W        W 9498  19.437  22.003   1.537
42958W        W 9499  17.045  35.328   0.872
42959W        W 9500  33.540  16.142  11.365
42960W        W 9501   1.346   6.136   0.783
42961W        W 9502  40.040  22.103  11.611
42962W        W 9503  20.661  16.118  11.216
42963W        W 9504   2.753  41.973   1.110
42964W        W 9505  34.942  19.543  14.866
42965W        W 9506  39.935  11.021  11.126
42966W        W 9507  10.684  40.073   3.118
42967W        W 9508  12.164   4.347  12.697
42968W        W 9509  28.909  42.001   2.464
42969W        W 9510  10.664  43.993   0.799
42970W        W 9511   8.836  16.260  13.824
42971W        W 9512  44.241  37.688   5.047
42972W        W 9513  28.928   7.299  12.343
42973W        W 9514   2.901  43.752   0.280
42974W        W 9515   2.497  26.397  12.011
42975W        W 9516   3.309   6.198  13.001
42976W        W 9517  33.701  25.558   0.723
42977W        W 9518  42.006   5.785   4.210
42978W        W 9519  39.818  20.560  14.943
42979W        W 9520  40.912  16.242   5.101
42980W        W 9521  14.567  27.597   0.357
42981W        W 9522  23.724  22.967   0.423
42982W        W 9523   7.254  28.979   3.770
42983W        W 9524  44.249  16.848  12.466
42984W        W 9525  17.209   4.899  10.564
42985W        W 9526  11.349  39.700  12.591
42986W        W 9527   3.140   1.443   1.346
42987W        W 9528  13.564   6.200  14.627
42988W        W 9529  40.836  32.308  11.593
42989W        W 9530   7.827  39.816   2.651
42990W        W 9531  22.595  32.513  13.937
42991W        W 9532  15.483  35.529  10.711
42992W        W 9533  22.187  36.041  13.027
42993W        W 9534   1.464  25.451  14.830
42994W        W 9535  40.822  38.851  13.013
42995W        W 9536  20.113  27.519  14.823
42996W        W 9537  21.744   2.898  12.000
42997W        W 9538  34.455  37.300   4.454
42998W        W 9539   5.386  20.910  12.931
42999W        W 9540  35.395  26.592  13.468
43000W        W 9541  27.227  23.244   1.708
43001W        W 9542  43.410  36.523  11.998
43002W        W 9543  13.246  28.137  10.707
43003W        W 9544  31.802  23.317  10.969
43004W        W 9545   9.783  38.873   3.595
43005W        W 9546   7.228   7.651  10.654
43006W        W 9547  17.612  23.087   0.032
43007W        W 9548  11.724  36.976  14.525
43008W        W 9549  31.659  16.189   3.200
43009W        W 9550  26.911  23.154  10.599
43010W        W 9551  25.015  39.518   0.289
43011W        W 9552  23.930  27.051   0.855
43012W        W 9553   5.838   3.312   4.556
43013W        W 9554  16.627  29.157  12.438
43014W        W 9555  19.129  43.177  11.652
43015W        W 9556  11.686   0.964  13.912
43016W        W 9557   6.595   7.692  12.449
43017W        W 9558   5.124  16.760   0.134
43018W        W 9559  15.060   1.816   2.187
43019W        W 9560  10.365  37.348  14.137
43020W        W 9561  16.431  12.513  11.978
43021W        W 9562  42.232  20.095  14.422
43022W        W 9563  38.885   2.298  14.877
43023W        W 9564  17.631  36.970  13.132
43024W        W 9565  28.017   1.886   0.000
43025W        W 9566  18.230  32.013  10.397
43026W        W 9567  11.849  30.475  13.925
43027W        W 9568   1.893  12.627   5.019
43028W        W 9569   1.873  19.214  11.155
43029W        W 9570  16.936  37.612   2.880
43030W        W 9571  34.268   9.116  13.446
43031W        W 9572   3.800   2.586   2.857
43032W        W 9573  41.067   3.038   0.466
43033W        W 9574  14.510  17.516  13.995
43034W        W 9575   6.253  27.935  14.268
43035W        W 9576  17.301  44.760   0.322
43036W        W 9577   4.208  18.782   2.813
43037W        W 9578   7.356  37.446  11.573
43038W        W 9579  29.828  26.019   2.580
43039W        W 9580   4.593  19.532  13.401
43040W        W 9581  24.172  31.549  14.464
43041W        W 9582   9.708  39.125  12.574
43042W        W 9583  21.525  11.934  14.308
43043W        W 9584  25.510  25.630   2.595
43044W        W 9585   8.985  29.171   1.370
43045W        W 9586  39.901  44.834   4.681
43046W        W 9587  14.924  39.795   1.866
43047W        W 9588  43.522  37.161   2.069
43048W        W 9589  15.627  16.941  13.679
43049W        W 9590  33.744   4.270   0.291
43050W        W 9591   5.442  16.138   1.882
43051W        W 9592  21.249   2.526  13.377
43052W        W 9593  36.124  15.414  11.126
43053W        W 9594   1.024   0.029   1.348
43054W        W 9595  30.546   8.345   0.795
43055W        W 9596  26.537  43.934  12.460
43056W        W 9597  17.090   9.443   4.248
43057W        W 9598  31.615   3.484  11.617
43058W        W 9599  43.266  16.339   3.429
43059W        W 9600  28.671  17.723   0.773
43060W        W 9601   7.149  18.685  11.245
43061W        W 9602  39.557  31.703  13.909
43062W        W 9603  35.260  41.829   4.033
43063W        W 9604  31.714   0.302  12.313
43064W        W 9605  42.228  34.044   2.011
43065W        W 9606  44.684  34.105   3.661
43066W        W 9607  20.105  32.731  12.970
43067W        W 9608   3.436  40.803   1.135
43068W        W 9609  10.655  37.967   0.139
43069W        W 9610  32.977  26.234  12.157
43070W        W 9611  18.488  31.149   2.589
43071W        W 9612  38.553  17.470  11.921
43072W        W 9613  23.462  40.995   0.464
43073W        W 9614  26.149   4.227   2.201
43074W        W 9615   4.434  20.399  14.830
43075W        W 9616   7.462  24.652   1.678
43076W        W 9617   2.183  26.189  13.333
43077W        W 9618  13.858  13.812   3.867
43078W        W 9619  41.253   9.820   0.848
43079W        W 9620   4.950  29.808   2.527
43080W        W 9621   2.836  28.105  13.610
43081W        W 9622  16.350  15.299   0.326
43082W        W 9623  44.227   1.260   1.767
43083W        W 9624  19.636  25.600  10.935
43084W        W 9625  19.663  18.176   2.144
43085W        W 9626  34.562  11.925   4.358
43086W        W 9627  26.013  39.286  12.987
43087W        W 9628  34.091  39.525   4.328
43088W        W 9629  43.818   4.365  14.075
43089W        W 9630  44.320  20.117  12.351
43090W        W 9631  10.515  24.136   0.572
43091W        W 9632  22.676  25.997  14.074
43092W        W 9633   4.077  33.086  13.800
43093W        W 9634  22.584  40.490  14.355
43094W        W 9635  26.756  44.155   4.027
43095W        W 9636  32.473  25.690  13.243
43096W        W 9637   5.496  26.578  12.650
43097W        W 9638  26.229  11.977   4.228
43098W        W 9639  13.017  44.777  12.500
43099W        W 9640  26.965  24.074   2.973
43100W        W 9641  31.624  43.213  14.848
43101W        W 9642  24.308  13.220   2.883
43102W        W 9643  20.574  10.772  11.021
43103W        W 9644  12.294  19.064  11.979
43104W        W 9645  30.938  23.711   2.617
43105W        W 9646  19.744   4.346  10.912
43106W        W 9647  44.246  38.511  11.991
43107W        W 9648   9.730   2.775   1.934
43108W        W 9649   9.618  28.858  11.047
43109W        W 9650  15.851  37.111   2.457
43110W        W 9651  34.785  18.031   2.989
43111W        W 9652  21.845  30.892   1.237
43112W        W 9653  24.141  22.997  11.761
43113W        W 9654   7.923  39.042   4.156
43114W        W 9655  30.852  32.966  12.988
43115W        W 9656  17.808  18.209   2.711
43116W        W 9657  10.706  10.759   0.494
43117W        W 9658  43.779   4.330   1.292
43118W        W 9659  26.541   0.783   2.323
43119W        W 9660  16.739  28.061   3.668
43120W        W 9661  34.633  20.612  10.578
43121W        W 9662  30.464  29.695   1.878
43122W        W 9663   7.104   1.447   3.244
43123W        W 9664  38.051  11.780   0.901
43124W        W 9665   5.175  27.849  13.985
43125W        W 9666  34.005  19.859  14.864
43126W        W 9667  30.884  20.643   3.193
43127W        W 9668  23.138  14.122   1.378
43128W        W 9669  19.376  32.332   3.228
43129W        W 9670  19.729  15.661   3.726
43130W        W 9671  11.822  43.523   0.717
43131W        W 9672   4.453  11.574  13.105
43132W        W 9673  21.842  15.813   3.578
43133W        W 9674  43.431  20.753  13.440
43134W        W 9675  19.268  23.530  12.622
43135W        W 9676  27.650  25.179   1.243
43136W        W 9677   2.482   0.336   1.822
43137W        W 9678  24.465  30.058  12.328
43138W        W 9679  35.832  13.496   2.141
43139W        W 9680   4.814  17.024  11.178
43140W        W 9681   0.549  37.473   4.599
43141W        W 9682  44.359  39.033   4.280
43142W        W 9683  40.506  21.551   3.705
43143W        W 9684  42.556  40.445  11.876
43144W        W 9685  11.681  42.260   3.137
43145W        W 9686  18.281  19.343   3.336
43146W        W 9687  11.251  18.828   2.917
43147W        W 9688  35.890  14.282  11.132
43148W        W 9689  25.605  34.228  13.334
43149W        W 9690  28.408  32.391  13.034
43150W        W 9691  43.788  11.805   1.912
43151W        W 9692  29.963  27.786   0.957
43152W        W 9693   5.287  26.879  13.834
43153W        W 9694  16.098  33.398  13.052
43154W        W 9695  34.126  44.989  10.725
43155W        W 9696  39.579  22.203   0.698
43156W        W 9697  22.831  37.638  13.447
43157W        W 9698   4.428   0.441   0.206
43158W        W 9699  13.294   7.708  13.864
43159W        W 9700  43.893  16.677   4.234
43160W        W 9701   1.307  10.118   1.968
43161W        W 9702  44.400  30.211   2.726
43162W        W 9703  31.568  20.272   0.877
43163W        W 9704  35.786  42.840   3.897
43164W        W 9705  25.346  32.773  11.137
43165W        W 9706  33.758  11.014   0.755
43166W        W 9707   7.445  44.350   4.707
43167W        W 9708   3.065  21.216  13.345
43168W        W 9709  42.488  30.645   0.752
43169W        W 9710  30.937   6.685  12.153
43170W        W 9711  27.520  32.548  12.005
43171W        W 9712   3.051  24.130   3.522
43172W        W 9713  19.408  22.461   4.902
43173W        W 9714  22.915  11.824   4.057
43174W        W 9715  15.241  38.387  11.038
43175W        W 9716  13.152  44.984  12.963
43176W        W 9717  15.365  32.485  14.356
43177W        W 9718   4.510  40.499  11.065
43178W        W 9719  16.566  31.253   1.006
43179W        W 9720  30.966   4.283   3.419
43180W        W 9721  14.780  41.044   3.254
43181W        W 9722  16.318  25.515  11.109
43182W        W 9723  27.215  26.766   0.904
43183W        W 9724  37.753   4.996   1.813
43184W        W 9725  38.097  26.644  10.939
43185W        W 9726   0.436  30.859   0.956
43186W        W 9727  28.042  33.879   3.174
43187W        W 9728   6.240  18.835  13.575
43188W        W 9729  34.328  19.755   4.535
43189W        W 9730  25.713   0.914   2.992
43190W        W 9731  20.268  27.252  12.990
43191W        W 9732  16.128  29.666  14.412
43192W        W 9733  30.369  42.572   4.263
43193W        W 9734  27.409   3.202  13.081
43194W        W 9735   2.276  10.777  12.587
43195W        W 9736  13.070  17.717   1.912
43196W        W 9737  25.614  19.574  10.717
43197W        W 9738   5.690  39.915   0.436
43198W        W 9739  17.517  14.119  11.345
43199W        W 9740  17.179   5.328   2.456
43200W        W 9741   5.930  34.043   1.554
43201W        W 9742  13.109   2.686   1.733
43202W        W 9743   9.116   8.014  13.897
43203W        W 9744   4.355   2.065  13.849
43204W        W 9745   8.311  17.858  14.974
43205W        W 9746   8.718  20.137  13.916
43206W        W 9747  11.623  43.368   0.257
43207W        W 9748  44.869   9.603   4.046
43208W        W 9749  14.100  23.464   1.956
43209W        W 9750  24.920  27.939  13.441
43210W        W 9751  20.127  28.181   2.417
43211W        W 9752   8.400  15.859   0.548
43212W        W 9753  43.931  12.064  14.377
43213W        W 9754  16.262   7.159  12.048
43214W        W 9755  30.526   9.231  10.714
43215W        W 9756  40.767  12.190   4.762
43216W        W 9757  41.907  44.020   5.012
43217W        W 9758  42.537   9.426  11.636
43218W        W 9759  14.759   2.032   1.054
43219W        W 9760  38.912  35.928  13.865
43220W        W 9761  16.224  17.707   4.431
43221W        W 9762  31.948  32.499   4.076
43222W        W 9763  30.976  36.182  12.580
43223W        W 9764   4.107  31.031   2.218
43224W        W 9765  19.067  37.706  12.025
43225W        W 9766  13.930  31.079   1.733
43226W        W 9767  35.209  15.082   1.856
43227W        W 9768  40.907  35.512  12.203
43228W        W 9769  28.924  34.827  12.467
43229W        W 9770  18.300  12.422  11.086
43230W        W 9771   3.829  36.675   0.174
43231W        W 9772   9.452   8.577   2.197
43232W        W 9773   9.017  36.403   1.235
43233W        W 9774  14.884  28.480   4.078
43234W        W 9775   9.792  10.358  12.591
43235W        W 9776  33.108   9.925   0.394
43236W        W 9777  36.331  39.803  14.837
43237W        W 9778  17.207   3.386   4.541
43238W        W 9779   1.119  11.123  10.978
43239W        W 9780  27.114   6.268   1.408
43240W        W 9781  16.044  19.572   3.658
43241W        W 9782  38.846  10.449   0.279
43242W        W 9783  38.600  15.674  14.284
43243W        W 9784   3.466  13.726  13.940
43244W        W 9785   6.950  36.303  12.982
43245W        W 9786  30.487  42.536  12.173
43246W        W 9787  27.868  15.474   1.427
43247W        W 9788  17.118  30.199   4.151
43248W        W 9789  39.784   8.890  13.882
43249W        W 9790   0.884  44.527   1.430
43250W        W 9791  38.588  16.217   0.519
43251W        W 9792  40.892  31.361   1.367
43252W        W 9793  24.498   9.358   3.213
43253W        W 9794  18.306  29.038   1.348
43254W        W 9795   1.459  32.974  10.022
43255W        W 9796  22.811  41.590  10.032
43256W        W 9797  32.125  36.820   1.142
43257W        W 9798  14.844  35.405   5.088
43258W        W 9799  10.391   3.351  11.808
43259W        W 9800  39.630   0.778  10.364
43260W        W 9801  44.540  35.413   0.272
43261W        W 9802   9.440  28.989  12.418
43262W        W 9803  42.528  28.647  11.587
43263W        W 9804  40.933   7.296   3.208
43264W        W 9805  16.190  39.410  10.676
43265W        W 9806  37.009   8.292   3.532
43266W        W 9807  25.703  24.751  11.173
43267W        W 9808   5.348  37.341  10.223
43268W        W 9809  42.291   2.839   0.902
43269W        W 9810  34.517  42.227   0.929
43270W        W 9811  13.285  21.743   4.493
43271W        W 9812  18.999  38.910  10.519
43272W        W 9813   8.958  20.581   3.859
43273W        W 9814  32.263  24.157   2.746
43274W        W 9815   7.480  44.674  10.580
43275W        W 9816  43.849  40.108  14.523
43276W        W 9817  30.431  12.379   3.113
43277W        W 9818  14.617  27.718  12.446
43278W        W 9819  10.749  41.310  14.211
43279W        W 9820   8.905  43.462   0.422
43280W        W 9821  37.989  14.800   0.321
43281W        W 9822   9.166   5.535   3.158
43282W        W 9823  20.526  24.203  13.384
43283W        W 9824  36.285  24.298  13.450
43284W        W 9825   4.365   0.970   1.818
43285W        W 9826  34.872  33.002   4.323
43286W        W 9827  33.881   5.423  14.497
43287W        W 9828  21.351   0.369   5.094
43288W        W 9829   4.012  29.479  10.589
43289W        W 9830   2.212  11.667   2.079
43290W        W 9831  17.592   5.220  13.930
43291W        W 9832  23.231   4.173  14.836
43292W        W 9833  40.385  41.032   1.544
43293W        W 9834  35.508  23.486  12.916
43294W        W 9835  38.954  30.878  10.747
43295W        W 9836  23.038  35.812  14.512
43296W        W 9837  11.274  29.636   2.714
43297W        W 9838  40.960  19.318   3.286
43298W        W 9839  22.495  12.858   4.542
43299W        W 9840  43.045  33.797  13.838
43300W        W 9841  23.282  22.040  13.019
43301W        W 9842  35.932   0.266   4.086
43302W        W 9843  33.900  25.983   1.973
43303W        W 9844  11.684  35.017   2.289
43304W        W 9845  12.096   7.409  13.951
43305W        W 9846  15.151  13.053   3.014
43306W        W 9847  36.839  11.870  13.929
43307W        W 9848  30.056  34.530   1.146
43308W        W 9849  23.661  32.826   4.225
43309W        W 9850  36.965   2.618   1.302
43310W        W 9851  21.615  44.500  14.930
43311W        W 9852  19.577  30.639  14.367
43312W        W 9853  38.527  23.379  10.347
43313W        W 9854   1.364  34.880   4.144
43314W        W 9855  32.922  26.405   2.923
43315W        W 9856  10.334  29.100   9.922
43316W        W 9857  29.443  13.565   1.173
43317W        W 9858  12.700  33.911  12.583
43318W        W 9859   5.200  21.789   1.850
43319W        W 9860  42.105   8.219  14.865
43320W        W 9861  18.223   5.923  12.863
43321W        W 9862  15.731  37.602   2.449
43322W        W 9863  33.922  35.124   1.094
43323W        W 9864  24.507   2.911  11.563
43324W        W 9865  34.413  31.882   9.828
43325W        W 9866  14.031  44.742   0.732
43326W        W 9867  31.059  43.833   1.209
43327W        W 9868  13.279  38.319  11.949
43328W        W 9869   8.756  10.289   4.140
43329W        W 9870  36.126  29.416   0.770
43330W        W 9871  14.695  11.950  11.533
43331W        W 9872  24.250  38.179  11.967
43332W        W 9873  10.303  31.026   5.228
43333W        W 9874  16.666  10.174   4.628
43334W        W 9875  20.347  27.305  14.263
43335W        W 9876  35.568  14.021  12.908
43336W        W 9877   9.836  25.312   0.794
43337W        W 9878  15.673  32.049  12.010
43338W        W 9879   5.058  10.277   5.007
43339W        W 9880   2.510  34.332   1.921
43340W        W 9881   6.759   6.337   2.559
43341W        W 9882   6.235  26.511  11.584
43342W        W 9883  31.011   7.179   2.870
43343W        W 9884  32.384   5.203  13.972
43344W        W 9885  14.373  44.820   0.317
43345W        W 9886  44.320  12.659  14.031
43346W        W 9887  40.746  41.120   1.900
43347W        W 9888  43.973  23.645   2.778
43348W        W 9889  23.153  26.919   4.182
43349W        W 9890  10.180  23.909   4.058
43350W        W 9891  31.899   9.244   0.955
43351W        W 9892  38.497  16.073   2.858
43352W        W 9893  25.273  29.281   3.663
43353W        W 9894  21.112  17.296   3.281
43354W        W 9895  30.696  11.786   4.943
43355W        W 9896   1.883  12.601   3.878
43356W        W 9897   5.755  24.824   0.328
43357W        W 9898  12.556  18.994   3.185
43358W        W 9899   5.977  27.681   3.670
43359W        W 9900   6.984  17.229   3.564
43360W        W 9901   5.977  26.770   0.270
43361W        W 9902  40.114  11.380   4.956
43362W        W 9903  20.259   0.755   4.181
43363W        W 9904   4.653  42.187  14.043
43364W        W 9905   9.319  30.194  11.397
43365W        W 9906  38.551  22.260  14.967
43366W        W 9907  20.791  40.929   1.171
43367W        W 9908  16.646  37.653   2.472
43368W        W 9909   4.258  38.893   4.047
43369W        W 9910  18.195  27.652   0.209
43370W        W 9911  33.733   7.626  14.811
43371W        W 9912  44.122  27.435   1.179
43372W        W 9913  12.895   2.722   2.417
43373W        W 9914  35.139  16.393  14.497
43374W        W 9915   5.903  16.964   1.128
43375W        W 9916  22.291  44.325   1.199
43376W        W 9917  44.511  35.048   2.350
43377W        W 9918   3.302  33.917   0.280
43378W        W 9919  27.117   4.057  12.898
43379W        W 9920  23.676  29.839   3.603
43380W        W 9921  16.308  15.533  14.803
43381W        W 9922  19.267   3.951   3.174
43382W        W 9923   5.340  38.542  13.886
43383W        W 9924  43.335  15.450   4.564
43384W        W 9925  35.549   9.211   4.508
43385W        W 9926   1.380  28.076   2.160
43386W        W 9927  32.362  15.591  14.950
43387W        W 9928  41.133   9.693   0.336
43388W        W 9929  30.524  40.634  13.061
43389W        W 9930   7.848  27.412   1.873
43390W        W 9931  39.344  21.192   0.374
43391W        W 9932  12.696  40.980  11.473
43392W        W 9933  42.396  40.801   3.297
43393W        W 9934  27.885  44.329   0.057
43394W        W 9935  39.763  17.068  12.550
43395W        W 9936  19.623  28.852  13.924
43396W        W 9937  12.222  41.910  12.158
43397W        W 9938  42.522  20.721  10.665
43398W        W 9939   2.345  40.258   1.094
43399W        W 9940  12.185  28.685   2.696
43400W        W 9941  40.130   4.401  12.178
43401W        W 9942  27.034   6.898  13.553
43402W        W 9943   1.503   7.878  12.095
43403W        W 9944  16.203  24.538  11.841
43404W        W 9945   4.203  32.058  11.923
43405W        W 9946  19.624  29.895   4.883
43406W        W 9947  24.437  36.511   1.745
43407W        W 9948  41.045  10.910   4.027
43408W        W 9949   8.058  13.357   1.533
43409W        W 9950  10.362  21.279  13.104
43410W        W 9951  31.883  41.411   0.623
43411W        W 9952  24.970  19.447   3.878
43412W        W 9953  37.714  44.215  13.402
43413W        W 9954  17.575  41.247   1.760
43414W        W 9955  34.293   0.203   1.037
43415W        W 9956  43.632  29.824   1.453
43416W        W 9957  40.571  38.366  13.377
43417W        W 9958  14.688  19.511  13.061
43418W        W 9959   9.811  19.223  14.077
43419W        W 9960  39.290  15.271  14.268
43420W        W 9961  34.069  17.753  12.461
43421W        W 9962  18.215  22.535   1.536
43422W        W 9963  29.711  37.071   2.669
43423W        W 9964  21.790  42.127  12.061
43424W        W 9965   1.375   6.935   0.371
43425W        W 9966  28.433  42.920   1.729
43426W        W 9967  14.212  12.962   3.343
43427W        W 9968  32.009  38.384  10.714
43428W        W 9969  41.684  44.630   3.382
43429W        W 9970  24.843  37.710  12.566
43430W        W 9971  29.154  30.967   2.385
43431W        W 9972  27.515  20.042  11.236
43432W        W 9973   1.328  14.647  11.768
43433W        W 9974   0.372  19.558  14.724
43434W        W 9975   7.454   1.223   4.516
43435W        W 9976  21.844  41.535   3.191
43436W        W 9977   5.308  12.500   4.642
43437W        W 9978  40.281   1.244   0.312
43438W        W 9979  12.931  38.043   2.280
43439W        W 9980  43.457  22.236  13.092
43440W        W 9981   3.023  14.745  13.560
43441W        W 9982  38.517  15.553  12.069
43442W        W 9983  19.780  24.771  12.993
43443W        W 9984  37.042  35.349   4.203
43444W        W 9985  33.211  21.183   3.722
43445W        W 9986  30.758   7.174   3.872
43446W        W 9987   7.708  42.980  12.920
43447W        W 9988  30.907  26.211  13.510
43448W        W 9989  24.086  39.537   4.215
43449W        W 9990  14.231  18.733  12.805
43450W        W 9991   2.984  20.142   2.401
43451W        W 9992  36.978   9.143  14.010
43452W        W 9993   9.271   3.906  13.081
43453W        W 9994  23.998  16.621  14.911
43454W        W 9995  43.825  15.282   2.772
43455W        W 9996  28.079   7.973  13.888
43456W        W 9997   4.464  30.523   4.955
43457W        W 9998  12.195  18.794   1.135
43458W        W 9999  39.706  39.492  11.445
43459W        W10000  21.302  29.481   3.195
43460W        W10001  37.230   9.034  12.539
43461W        W10002  21.858  17.191  13.781
43462W        W10003  12.383  18.232  12.510
43463W        W10004  18.768   5.389  12.975
43464W        W10005  10.887  28.497  14.286
43465W        W10006  38.381  41.275   1.415
43466W        W10007   2.664  32.709  14.605
43467W        W10008  34.846   2.463  14.739
43468W        W10009  41.906  15.955  14.475
43469W        W10010  29.886  36.393   4.220
43470W        W10011  32.637  16.595  12.040
43471W        W10012  21.135  31.827  13.403
43472W        W10013  20.006  29.656   4.140
43473W        W10014  29.180  28.141  10.666
43474W        W10015  19.459   5.475  14.270
43475W        W10016  17.263  23.533   3.328
43476W        W10017  22.985  38.299   3.700
43477W        W10018  15.124  22.606   4.541
43478W        W10019  30.523  22.054   0.294
43479W        W10020   4.863  10.578  14.616
43480W        W10021  18.857   3.960   4.614
43481W        W10022  10.719  43.331  11.192
43482W        W10023  17.312  31.114  13.819
43483W        W10024  28.791  36.779   0.014
43484W        W10025  23.406  44.781   2.869
43485W        W10026  13.868  36.025   3.289
43486W        W10027  33.976   4.936  13.057
43487W        W10028  22.299  12.974  12.970
43488W        W10029  38.603  44.736   2.921
43489W        W10030   5.865   7.193   0.315
43490W        W10031  35.544  26.397  12.055
43491W        W10032  23.331   6.273  13.890
43492W        W10033  30.393  20.849  12.073
43493W        W10034  13.350   9.365  11.120
43494W        W10035   9.554  18.112   0.797
43495W        W10036  39.966  16.089   0.351
43496W        W10037  17.691   4.685   3.617
43497W        W10038   5.678  26.948  11.936
43498W        W10039  30.683   9.262   4.594
43499W        W10040  17.377  42.947   4.516
43500W        W10041  32.374  44.595   4.641
43501W        W10042   4.239   6.695   3.244
43502W        W10043  37.381  13.774  10.538
43503W        W10044  31.679  16.240  13.986
43504W        W10045  33.439  15.404   0.447
43505W        W10046  16.607  40.752  12.409
43506W        W10047  40.806  30.635   3.752
43507W        W10048  21.501  24.256  14.321
43508W        W10049  44.961  41.809   2.193
43509W        W10050   0.997  38.010  14.736
43510W        W10051   1.157  27.768   0.484
43511W        W10052   4.545  21.727  13.753
43512W        W10053   1.157  27.882   4.529
43513W        W10054  29.201  10.316   0.411
43514W        W10055   0.213  11.831   3.159
43515W        W10056  22.915  18.659  14.812
43516W        W10057   9.706  41.462   0.677
43517W        W10058  29.736  29.286   3.247
43518W        W10059  44.871   4.543   2.699
43519W        W10060   1.932  23.181  12.635
43520W        W10061   7.499  13.102   3.268
43521W        W10062  27.634  22.321  11.443
43522W        W10063  18.271  26.558  10.403
43523W        W10064  33.446  16.662   1.481
43524W        W10065  26.096  36.327   0.881
43525W        W10066  42.055  29.556   2.742
43526W        W10067  10.847   2.582  14.440
43527W        W10068  19.554  27.046   1.645
43528W        W10069  37.862   1.557  11.512
43529W        W10070  41.514  44.604  10.382
43530W        W10071   7.413  13.284  12.044
43531W        W10072  31.114  25.026   2.684
43532W        W10073  22.981   4.297   1.896
43533W        W10074  43.927  26.645   3.134
43534W        W10075   2.889  21.146   4.467
43535W        W10076  36.305   5.183   0.883
43536W        W10077  28.737  24.687  13.751
43537W        W10078  30.832  14.663   1.716
43538W        W10079  32.197  42.005  12.088
43539W        W10080  19.566  10.339   0.460
43540W        W10081  14.043  17.262  14.024
43541W        W10082  29.579   7.599  11.224
43542W        W10083  18.399  23.007   1.702
43543W        W10084   6.855  11.493   4.201
43544W        W10085  12.570   9.238   0.057
43545W        W10086  25.717  18.650  10.721
43546W        W10087  14.150   0.288  12.821
43547W        W10088  39.742  22.586   2.454
43548W        W10089   9.383   3.529  13.896
43549W        W10090  38.592   8.571   1.338
43550W        W10091  13.809  43.763  13.869
43551W        W10092  12.969  32.337  10.317
43552W        W10093   2.303  29.008   0.963
43553W        W10094  13.700  26.693   2.404
43554W        W10095  36.504   8.632   0.846
43555W        W10096  33.393  26.189  14.250
43556W        W10097  25.909  20.624   0.939
43557W        W10098  27.653  39.094  10.906
43558W        W10099  34.494   5.605  14.992
43559W        W10100  28.154  33.445   2.891
43560W        W10101  23.568  13.355   2.220
43561W        W10102  20.143  36.789  10.481
43562W        W10103  42.795  32.519   0.872
43563W        W10104  38.349  21.112  14.318
43564W        W10105   5.946  19.066  12.464
43565W        W10106  33.577  35.879  13.397
43566W        W10107  22.521   4.778   0.816
43567W        W10108  40.331   2.786  12.984
43568W        W10109  17.140  32.882  13.731
43569W        W10110   0.397  18.813   2.190
43570W        W10111  28.996  20.622   0.712
43571W        W10112  44.772   9.364   4.671
43572W        W10113  14.265  20.048   2.256
43573W        W10114   1.383   8.510  10.871
43574W        W10115  37.722  21.195   0.364
43575W        W10116  16.617  35.539   1.660
43576W        W10117  11.160  29.332   0.152
43577W        W10118  19.711  44.260   5.329
43578W        W10119  44.197  33.010  11.583
43579W        W10120  31.194  15.332   5.174
43580W        W10121  32.405  29.468  14.827
43581W        W10122   7.336   4.424  11.577
43582W        W10123  13.953  12.445   1.206
43583W        W10124   9.857  24.892  12.538
43584W        W10125  22.675  37.109   2.752
43585W        W10126  14.053  16.506  14.850
43586W        W10127   1.375  31.882  12.812
43587W        W10128   6.481  26.342  11.153
43588W        W10129  15.345  18.520   2.677
43589W        W10130  14.644  34.179  12.976
43590W        W10131   4.908  30.512  12.623
43591W        W10132  34.300   6.062  12.634
43592W        W10133  41.438  13.503   2.102
43593W        W10134  21.095   4.251   3.075
43594W        W10135   4.351  17.724   0.709
43595W        W10136  23.651   9.805  11.677
43596W        W10137  30.862  31.671  12.108
43597W        W10138   0.472  36.893  13.000
43598W        W10139  26.031  38.327  10.619
43599W        W10140  33.020  12.286   1.931
43600W        W10141  10.624  20.104   3.182
43601W        W10142  12.278  30.913   5.123
43602W        W10143  37.720  43.731   0.010
43603W        W10144  33.006  25.917   0.337
43604W        W10145   3.518  37.511   1.381
43605W        W10146  16.005   3.486   1.887
43606W        W10147  42.971   3.034   1.760
43607W        W10148  15.873   1.504   0.393
43608W        W10149  34.553   9.266   0.510
43609W        W10150  13.115   9.511  14.487
43610W        W10151  17.748  39.362  13.492
43611W        W10152   9.818  13.891   3.736
43612W        W10153  15.128   1.027   0.072
43613W        W10154  25.639  24.708  14.834
43614W        W10155  32.378  27.863  10.786
43615W        W10156  32.216  32.375   3.265
43616W        W10157  36.955  23.608  13.480
43617W        W10158   0.677  14.576  12.280
43618W        W10159  40.182  19.300   2.103
43619W        W10160  25.602  41.266  11.216
43620W        W10161  37.377  43.477  12.950
43621W        W10162  14.610   3.723   4.644
43622W        W10163  41.859  27.519  13.460
43623W        W10164   9.823  29.474  14.042
43624W        W10165   6.220  14.288   4.068
43625W        W10166  26.720  34.483   2.003
43626W        W10167  14.603  12.177  12.341
43627W        W10168  39.364  17.289   2.737
43628W        W10169  36.431  36.996  10.700
43629W        W10170   4.674  16.254  11.664
43630W        W10171   7.360  28.516  14.496
43631W        W10172  26.951  43.978  13.832
43632W        W10173  18.580  34.356   1.929
43633W        W10174  19.174  42.839   3.911
43634W        W10175  33.481   9.940   1.866
43635W        W10176  37.372  18.357   2.419
43636W        W10177  18.087   7.835   1.452
43637W        W10178  14.314   0.713   3.245
43638W        W10179  23.993  30.793  13.382
43639W        W10180   8.950   9.247   2.582
43640W        W10181  40.809  38.349  13.844
43641W        W10182  38.807   7.668  12.986
43642W        W10183  44.878  29.421   4.733
43643W        W10184  43.598   7.241  11.510
43644W        W10185   7.225  27.688   4.146
43645W        W10186  36.666  20.617  10.729
43646W        W10187  16.677   7.756   3.050
43647W        W10188  14.651  21.138  10.837
43648W        W10189  43.509  11.206  13.303
43649W        W10190  30.738  37.923  10.563
43650W        W10191  33.112  15.425   4.975
43651W        W10192  41.781  14.367  11.214
43652W        W10193  25.072  25.240  14.396
43653W        W10194  23.326   9.439   4.685
43654W        W10195  11.701  42.023  11.070
43655W        W10196  34.605  10.955  13.878
43656W        W10197  36.306  20.547   2.699
43657W        W10198   6.930  27.301   3.320
43658W        W10199  36.389  38.944   4.563
43659W        W10200   1.342  18.344   2.135
43660W        W10201  22.166   9.158   1.701
43661W        W10202  15.351  15.083   1.322
43662W        W10203  35.092   4.996   1.538
43663W        W10204  18.348  21.972  11.467
43664W        W10205  31.078  42.356   0.442
43665W        W10206   4.548  40.666  10.053
43666W        W10207  16.546  37.788  12.089
43667W        W10208  33.376  33.319   3.627
43668W        W10209  38.074   4.176  12.994
43669W        W10210  26.034  13.554  12.009
43670W        W10211  14.754  13.786   3.293
43671W        W10212  14.763   2.669   1.906
43672W        W10213  12.662  10.667   2.486
43673W        W10214  23.156  22.445   1.314
43674W        W10215  17.378  29.071   1.484
43675W        W10216   5.400  24.924  12.986
43676W        W10217  13.691  36.886   2.727
43677W        W10218   6.280  26.488  13.530
43678W        W10219  17.515   2.502  12.203
43679W        W10220  12.596  35.359  12.457
43680W        W10221  44.697  15.845  12.536
43681W        W10222  41.927  40.929  11.961
43682W        W10223  24.998  12.305  11.896
43683W        W10224  17.977  36.616   1.536
43684W        W10225  39.715  26.572   4.583
43685W        W10226  31.725  42.886   3.210
43686W        W10227  30.950  25.545   0.873
43687W        W10228  34.119  43.091   1.686
43688W        W10229  42.507  43.242  12.064
43689W        W10230  43.787  13.777  11.859
43690W        W10231   5.738  23.597   2.650
43691W        W10232  31.154  42.283  13.959
43692W        W10233  33.530   0.424  13.397
43693W        W10234  14.531  37.971   2.684
43694W        W10235  31.432  23.350  12.627
43695W        W10236  23.701  15.807  13.455
43696W        W10237  36.348  21.054  13.458
43697W        W10238  25.013  13.247   0.500
43698W        W10239   7.754  30.997   5.025
43699W        W10240  11.358  37.925  11.029
43700W        W10241  15.206  42.996   3.885
43701W        W10242  21.083  18.373  14.386
43702W        W10243  20.271  23.597   1.757
43703W        W10244  29.502  22.078  12.541
43704W        W10245  34.951  18.375  10.669
43705W        W10246  23.923  10.802  12.937
43706W        W10247  34.986  15.646  10.740
43707W        W10248   7.381  12.441  11.102
43708W        W10249  29.067   6.602  14.928
43709W        W10250  18.146  22.201  14.281
43710W        W10251   6.979  26.182   4.341
43711W        W10252  43.800  14.184   3.601
43712W        W10253  16.845  33.112  10.627
43713W        W10254  41.082  17.720  11.487
43714W        W10255  19.130  29.264  10.652
43715W        W10256  33.013  14.365  13.347
43716W        W10257  42.549   3.892  12.063
43717W        W10258  19.330  43.331  12.937
43718W        W10259  27.676  19.002  12.586
43719W        W10260  19.458  34.366   1.954
43720W        W10261  33.695  19.785  10.699
43721W        W10262  27.657  36.541   4.182
43722W        W10263  41.264  16.303   2.233
43723W        W10264  36.514  40.061  13.927
43724W        W10265   2.919   7.874  14.929
43725W        W10266   3.772  10.442   4.122
43726W        W10267   2.635  35.601   4.192
43727W        W10268  29.923  39.374  11.144
43728W        W10269  10.243  31.626   3.631
43729W        W10270  36.218   1.065   4.312
43730W        W10271   5.972  25.021  12.549
43731W        W10272  22.662  11.330  11.178
43732W        W10273  34.930   4.477  10.714
43733W        W10274  41.279  39.053  14.412
43734W        W10275  23.173  14.438  13.837
43735W        W10276  15.985  37.238   4.960
43736W        W10277  37.346  14.020   2.270
43737W        W10278  44.191  26.564   1.350
43738W        W10279  40.539  27.217   3.395
43739W        W10280  37.287  24.235   2.730
43740W        W10281  33.145   6.858  11.576
43741W        W10282  19.287  30.915   3.593
43742W        W10283   9.235  14.783  12.179
43743W        W10284  41.584  24.257  11.185
43744W        W10285  14.753  35.900  14.119
43745W        W10286  33.501  31.977   2.092
43746W        W10287  22.077  20.245  12.630
43747W        W10288  29.460   2.167  11.102
43748W        W10289  25.085   1.478  10.845
43749W        W10290  35.137   5.321   3.393
43750W        W10291  43.366  12.183  12.543
43751W        W10292  20.220  36.122  12.971
43752W        W10293  12.518  20.774  14.092
43753W        W10294  19.787   1.491  12.535
43754W        W10295  42.996  35.938  14.757
43755W        W10296  41.893   3.753   1.401
43756W        W10297  20.523  10.822   2.157
43757W        W10298  41.458  20.961   4.655
43758W        W10299  27.608   5.201  13.906
43759W        W10300  14.639   2.183   3.637
43760W        W10301  16.250  32.114   3.614
43761W        W10302  42.372  34.867   2.373
43762W        W10303  43.257   1.638  12.530
43763W        W10304  13.746  22.955  11.530
43764W        W10305  30.754  37.301   0.848
43765W        W10306   9.807  14.128  10.902
43766W        W10307  36.579  27.048  13.897
43767W        W10308  15.323  40.886   2.883
43768W        W10309  20.528  11.104   0.198
43769W        W10310  11.508  24.027   3.650
43770W        W10311  18.169  34.866   3.954
43771W        W10312   5.320  29.514  13.404
43772W        W10313   4.211  34.351   1.246
43773W        W10314  27.760  27.543   3.108
43774W        W10315  40.498  34.123   2.671
43775W        W10316  38.558  24.248  12.924
43776W        W10317  37.034   1.019   4.446
43777W        W10318  16.450  39.216  12.635
43778W        W10319  22.231  15.073   1.590
43779W        W10320  23.975   3.247  13.097
43780W        W10321  29.435  10.764   0.612
43781W        W10322   7.886  33.391   2.297
43782W        W10323  14.846  37.574   3.729
43783W        W10324  18.734  34.000   1.530
43784W        W10325  37.906  19.510   0.727
43785W        W10326  25.197   7.978   4.529
43786W        W10327  24.301  25.223   3.547
43787W        W10328  41.302  35.683   1.223
43788W        W10329  15.754  39.345  13.119
43789W        W10330   5.829  34.402  13.804
43790W        W10331  34.636  38.249   1.707
43791W        W10332  24.238  19.029   1.254
43792W        W10333  10.953  25.989   0.275
43793W        W10334  11.632  40.056   2.170
43794W        W10335   4.402  44.046   3.913
43795W        W10336  13.227   9.152   3.136
43796W        W10337  41.554  12.603   3.641
43797W        W10338  26.692   7.090   1.807
43798W        W10339  10.384  33.600  14.233
43799W        W10340  41.804  30.074   1.774
43800W        W10341  30.182  43.837  14.377
43801W        W10342  22.589  32.675   3.353
43802W        W10343  28.912  16.678   3.659
43803W        W10344  14.680  11.906  13.476
43804W        W10345  42.410  41.870   2.325
43805W        W10346  11.100  37.021   0.878
43806W        W10347  34.541   1.794  14.943
43807W        W10348  29.689  42.556  14.349
43808W        W10349  21.188   2.795   3.620
43809W        W10350  16.867  28.467   2.176
43810W        W10351   3.084  29.592   4.649
43811W        W10352  18.882  39.429   0.476
43812W        W10353   5.123  41.951   1.325
43813W        W10354  30.760  29.527  11.408
43814W        W10355  28.026   7.873   0.286
43815W        W10356   1.694  35.147  11.123
43816W        W10357  34.809  15.499  13.390
43817W        W10358  41.056  25.626  13.530
43818W        W10359  44.872  42.346  14.506
43819W        W10360  16.641  15.651  13.563
43820W        W10361  33.067  28.181   0.806
43821W        W10362  19.589  28.010  13.070
43822W        W10363  19.885  44.407  13.383
43823W        W10364  36.349  40.888  12.231
43824W        W10365   6.273   7.009   2.833
43825W        W10366  19.569  13.542   0.917
43826W        W10367  37.511  20.433  13.097
43827W        W10368  43.968   5.869   3.171
43828W        W10369  17.514   0.848  11.179
43829W        W10370  37.672   7.277   4.564
43830W        W10371  11.900  39.915   2.739
43831W        W10372   2.042  39.576  11.042
43832W        W10373   3.782   9.751  13.992
43833W        W10374  22.221  14.011   0.585
43834W        W10375  17.243  15.593  14.774
43835W        W10376   1.229  18.027   2.896
43836W        W10377   1.905  33.585  12.542
43837W        W10378  44.868  32.426  13.904
43838W        W10379  14.938  20.792   0.756
43839W        W10380   5.167  13.179   1.420
43840W        W10381  12.357  21.564  10.730
43841W        W10382  10.716  15.109  12.877
43842W        W10383   9.594   0.204   0.659
43843W        W10384  21.241  11.137  10.763
43844W        W10385  22.674   1.856   1.803
43845W        W10386  42.793  24.805   3.783
43846W        W10387  29.646  28.003   4.338
43847W        W10388  22.480   5.737   2.411
43848W        W10389  11.333  13.770  11.623
43849W        W10390  19.075  10.891  12.899
43850W        W10391  31.285  25.539  12.357
43851W        W10392  24.204   7.778  13.747
43852W        W10393  37.358  23.209   0.381
43853W        W10394  31.591  29.475   3.422
43854W        W10395  14.651  43.704  13.892
43855W        W10396  27.139  33.951   3.364
43856W        W10397  28.191  36.091  11.236
43857W        W10398  24.600  37.100   2.281
43858W        W10399  40.511  14.737   0.364
43859W        W10400  35.115   4.485   1.816
43860W        W10401  26.208  11.325  10.797
43861W        W10402  25.958  10.715   3.344
43862W        W10403  41.869  21.682   4.091
43863W        W10404  23.363  23.254   0.714
43864W        W10405  16.116  34.764   4.933
43865W        W10406  14.601  30.951  14.990
43866W        W10407  22.809  14.817   2.786
43867W        W10408   2.011   5.767   1.814
43868W        W10409  11.811  32.010  10.706
43869W        W10410  43.594  35.355  12.479
43870W        W10411  16.242  14.272  10.125
43871W        W10412  43.380   1.624   4.931
43872W        W10413  36.433  27.021  14.947
43873W        W10414  43.030  37.550  10.947
43874W        W10415   0.913  27.421   4.632
43875W        W10416  44.450   9.118  14.326
43876W        W10417  18.047  37.933  11.960
43877W        W10418   3.881  10.917   1.917
43878W        W10419  28.684  31.195   2.372
43879W        W10420  16.383  28.562   0.073
43880W        W10421  39.322   7.549   4.194
43881W        W10422  38.913  30.400  13.079
43882W        W10423  28.300   3.748  12.223
43883W        W10424  23.085   4.921  14.248
43884W        W10425  36.519  17.318  12.229
43885W        W10426  22.754  43.456  13.000
43886W        W10427  21.128  26.256   4.002
43887W        W10428   5.613  38.390   3.421
43888W        W10429  19.197  12.938  13.781
43889W        W10430  34.554   0.931  13.262
43890W        W10431   3.668  18.533  12.593
43891W        W10432  29.712  34.959   0.459
43892W        W10433  15.322  20.733  12.904
43893W        W10434  16.119  43.779   1.327
43894W        W10435   5.885   1.741   3.046
43895W        W10436  26.112  32.092   1.422
43896W        W10437   4.410   0.167  13.153
43897W        W10438  28.413   4.321   1.277
43898W        W10439   3.647  22.414   2.590
43899W        W10440   3.455  40.051  13.355
43900W        W10441  11.833  31.221   3.240
43901W        W10442  23.612  14.535   4.401
43902W        W10443  40.338  43.469  11.451
43903W        W10444  41.903  36.069  12.851
43904W        W10445   7.146  39.445  12.571
43905W        W10446  17.054  14.928  12.394
43906W        W10447   9.276  10.769   4.693
43907W        W10448   0.392  14.890   1.877
43908W        W10449   7.474  15.346   1.385
43909W        W10450  12.837  29.986   0.420
43910W        W10451   3.546  14.308   1.804
43911W        W10452  40.422   0.815   3.528
43912W        W10453  31.367  17.136  14.411
43913W        W10454  16.713  19.267   4.531
43914W        W10455  35.089   1.963   1.719
43915W        W10456  24.716  30.380  13.109
43916W        W10457  21.031  31.879   1.775
43917W        W10458  17.672  26.908  10.398
43918W        W10459  29.894  34.708   3.127
43919W        W10460   3.720   3.244  13.869
43920W        W10461  19.624   7.000  11.515
43921W        W10462  34.263  41.630  13.710
43922W        W10463  37.906  36.361   0.930
43923W        W10464  15.990  22.184   3.222
43924W        W10465  16.113  22.121   1.366
43925W        W10466  27.427  42.353  11.156
43926W        W10467  18.503  11.026  14.520
43927W        W10468  25.192  29.489  12.290
43928W        W10469  13.728  38.617  11.261
43929W        W10470   7.745  36.455   0.405
43930W        W10471   5.935   9.039   3.903
43931W        W10472   0.066  34.064   0.367
43932W        W10473  17.666  43.258   3.073
43933W        W10474  11.486  14.799   0.195
43934W        W10475   8.183  12.701   1.162
43935W        W10476  16.749   3.251  11.408
43936W        W10477   2.892  39.130  13.132
43937W        W10478   3.245  36.608   2.398
43938W        W10479  16.910  16.663   4.354
43939W        W10480   4.826  26.164   0.156
43940W        W10481  32.007  24.450   4.605
43941W        W10482  18.834   1.559   1.140
43942W        W10483  40.653   2.923   1.810
43943W        W10484  19.879   5.213   4.983
43944W        W10485  30.683   0.983  10.477
43945W        W10486  34.052  33.189  11.149
43946W        W10487   4.391  26.517   0.860
43947W        W10488  16.029  14.556  11.218
43948W        W10489  26.742  16.099  13.108
43949W        W10490  17.718  26.874   3.163
43950W        W10491  25.066  27.062   1.093
43951W        W10492  17.552  25.093  10.894
43952W        W10493  29.442   4.836   2.663
43953W        W10494  24.414  11.105   4.196
43954W        W10495  11.292   4.162   1.405
43955W        W10496  41.673  44.986   0.740
43956W        W10497   1.378  13.300   0.294
43957W        W10498  32.532  18.689  13.174
43958W        W10499  40.434  23.996  12.736
43959W        W10500  26.339  39.243   2.783
43960W        W10501  40.523  20.095  11.603
43961W        W10502   2.501  40.537   0.696
43962W        W10503  25.340  32.417   1.253
43963W        W10504  21.895  12.300  14.440
43964W        W10505  24.580  20.526   4.491
43965W        W10506  39.815   2.300  10.695
43966W        W10507   0.097   3.805   4.396
43967W        W10508  28.382   9.877   2.300
43968W        W10509  11.674   4.232  12.572
43969W        W10510  31.219  23.252   4.740
43970W        W10511  13.379   8.667  11.575
43971W        W10512  20.981  35.148   0.057
43972W        W10513  22.432   9.600   2.105
43973W        W10514  20.106  35.913   1.742
43974W        W10515  22.702   6.707   1.998
43975W        W10516  25.049  32.381  13.579
43976W        W10517   8.479   4.305   1.971
43977W        W10518   6.904   9.889   2.800
43978W        W10519  28.250   5.923  11.076
43979W        W10520  43.915  40.947  13.413
43980W        W10521  38.391  40.385  10.992
43981W        W10522  34.051  35.343  11.889
43982W        W10523   5.177  42.869   1.463
43983W        W10524  37.565  19.232  12.017
43984W        W10525  24.145  28.111   2.695
43985W        W10526  14.665   7.924  12.587
43986W        W10527  14.430   6.458   1.965
43987W        W10528  25.300  28.734  12.427
43988W        W10529  43.775  38.423  10.703
43989W        W10530  36.366  22.225  11.256
43990W        W10531  18.819  22.603  11.183
43991W        W10532   7.791  21.780  13.240
43992W        W10533  35.956  14.287   3.139
43993W        W10534   2.887  24.630   1.371
43994W        W10535   9.211  25.924   0.245
43995W        W10536  28.427  30.947   0.056
43996W        W10537   0.036  16.550   2.164
43997W        W10538   0.523  40.931  14.242
43998W        W10539   7.234  18.472   3.198
43999W        W10540  17.761  42.830   4.872
44000W        W10541  19.549  13.787   2.992
44001W        W10542  18.514  20.048  11.628
44002W        W10543  16.130   2.052   1.936
44003W        W10544  11.979  27.581   1.645
44004W        W10545  15.575  36.525  13.826
44005W        W10546  40.250  44.409   3.423
44006W        W10547   7.306  18.984   3.201
44007W        W10548   2.343   8.384  14.435
44008W        W10549   0.418  26.931  11.065
44009W        W10550  13.564  11.149   0.332
44010W        W10551  19.881  43.314  11.141
44011W        W10552  23.551  28.437   2.000
44012W        W10553  15.129  30.366   2.124
44013W        W10554  40.451  21.323  12.046
44014W        W10555  29.627  32.622   1.802
44015W        W10556   2.522  18.263   1.310
44016W        W10557  11.776  28.416  12.434
44017W        W10558  22.142  29.220   4.476
44018W        W10559  24.573   9.354  11.521
44019W        W10560  33.825  13.420   5.067
44020W        W10561  21.004  44.716  11.577
44021W        W10562  24.458  19.007  11.945
44022W        W10563  11.377  13.847   3.788
44023W        W10564  27.785   4.347  13.398
44024W        W10565  17.820   1.803  12.141
44025W        W10566  12.976   5.027   2.000
44026W        W10567   9.757  18.600   3.772
44027W        W10568  13.050  17.501  14.893
44028W        W10569  22.950  32.274  11.119
44029W        W10570  39.794  43.051   3.743
44030W        W10571  36.002  38.034   1.168
44031W        W10572   2.574  16.495  13.865
44032W        W10573  16.616  28.730  10.746
44033W        W10574  34.581  37.096  12.940
44034W        W10575   1.290  28.810   0.357
44035W        W10576  15.543  20.264   0.342
44036W        W10577  17.094   1.014   0.691
44037W        W10578  41.782  26.284  11.039
44038W        W10579  33.560  38.656  13.107
44039W        W10580  40.967  39.543   0.681
44040W        W10581  14.249  20.725  11.780
44041W        W10582  31.025   3.271   4.648
44042W        W10583   3.728  30.390  14.405
44043W        W10584  22.018  13.417  12.954
44044W        W10585   7.291  12.366  13.530
44045W        W10586  10.164  28.921  10.977
44046W        W10587  43.626  39.140  14.882
44047W        W10588  44.226  41.599   1.836
44048W        W10589   2.911   0.980   1.201
44049W        W10590  17.302   7.855  12.582
44050W        W10591  44.088  10.335   1.793
44051W        W10592  44.888  38.154   4.181
44052W        W10593  25.000   6.182  14.478
44053W        W10594  32.183  32.693   1.857
44054W        W10595  38.249  21.484   3.097
44055W        W10596  42.978   1.902  14.031
44056W        W10597  15.326   3.843   0.018
44057W        W10598  31.756  37.176  12.236
44058W        W10599  29.828   3.082   4.144
44059W        W10600  13.590   1.734   3.583
44060W        W10601  34.018  35.399   3.916
44061W        W10602  26.619  33.565  13.475
44062W        W10603  41.085  38.105   3.155
44063W        W10604   9.294  39.032   3.691
44064W        W10605  12.112   2.708   0.247
44065W        W10606  26.500  17.872   1.312
44066W        W10607   2.512  23.772   0.817
44067W        W10608  18.246   0.453   1.705
44068W        W10609  26.136   1.111   2.269
44069W        W10610  19.777  44.291   3.183
44070W        W10611  15.369  43.737   0.494
44071W        W10612  27.114  27.990   4.041
44072W        W10613  42.938   8.723   2.836
44073W        W10614  18.884  17.769   2.017
44074W        W10615  17.196  11.090   2.955
44075W        W10616  28.703  42.993  12.131
44076W        W10617  35.546  31.720  11.263
44077W        W10618  35.455   8.933   3.307
44078W        W10619   7.558  36.458  11.244
44079W        W10620  33.946  13.596   3.867
44080W        W10621  11.602   2.140  11.080
44081W        W10622  34.160  42.756  12.629
44082W        W10623  12.064  21.137  10.673
44083W        W10624  12.913  13.652   2.332
44084W        W10625  39.670  36.010  12.082
44085W        W10626   2.135  34.990  12.599
44086W        W10627  18.092  21.470   2.266
44087W        W10628  22.295  27.570  12.483
44088W        W10629   6.711  14.382  10.594
44089W        W10630  13.065  26.018   2.950
44090W        W10631  21.990  27.828  13.073
44091W        W10632   7.566  26.285  10.296
44092W        W10633  34.196  39.054  14.469
44093W        W10634  14.071  22.580   1.910
44094W        W10635  38.852  32.068   1.198
44095W        W10636  16.152   8.432   3.269
44096W        W10637  12.691  32.075   1.795
44097W        W10638  41.327  22.553  13.529
44098W        W10639  13.611  31.961  12.662
44099W        W10640  30.273   8.435   4.639
44100W        W10641  30.172  11.324   1.095
44101W        W10642  14.848  38.589  12.857
44102W        W10643  40.093   7.640  11.276
44103W        W10644  38.631   8.299   3.622
44104W        W10645  37.111  38.603  13.221
44105W        W10646   9.569  16.281   1.745
44106W        W10647  29.408  39.931   0.219
44107W        W10648   6.068  17.103   4.557
44108W        W10649   7.478   9.627   1.424
44109W        W10650  41.881  25.400  12.409
44110W        W10651  39.009  14.268  14.861
44111W        W10652   4.487  26.111   2.621
44112W        W10653  35.508   6.309   2.723
44113W        W10654  10.346  19.773  11.094
44114W        W10655   5.314  38.227   2.710
44115W        W10656  22.146  23.699   0.295
44116W        W10657  34.327  42.515  13.530
44117W        W10658   8.030  32.998  14.964
44118W        W10659  40.983   5.339   1.407
44119W        W10660   7.620  18.298  14.147
44120W        W10661   4.368  20.617  13.483
44121W        W10662  38.728  19.004  12.461
44122W        W10663  38.216   9.230  11.476
44123W        W10664  42.027  35.099  14.766
44124W        W10665  41.162  24.559  11.230
44125W        W10666  43.997   1.515  11.977
44126W        W10667  26.854  38.853   1.143
44127W        W10668  39.444  15.145   2.549
44128W        W10669  36.952  19.090   0.722
44129W        W10670  24.306  41.078   1.730
44130W        W10671  27.803  43.295   2.766
44131W        W10672  35.558  28.556   3.366
44132W        W10673   1.960   1.308  10.946
44133W        W10674  37.997   2.325  10.600
44134W        W10675  31.531  24.247  12.605
44135W        W10676  33.973  27.544   2.348
44136W        W10677   0.708   1.041  10.473
44137W        W10678  14.684  20.525   4.662
44138W        W10679  12.251   9.168   4.059
44139W        W10680  36.006  17.167  13.465
44140W        W10681  28.636   4.672   4.193
44141W        W10682  18.744  42.286   0.196
44142W        W10683   2.469   7.890  10.907
44143W        W10684  21.212   1.726   3.740
44144W        W10685  38.322  39.598  11.932
44145W        W10686  31.484  12.325  13.675
44146W        W10687   1.909  36.780   0.048
44147W        W10688  23.606   2.149   3.160
44148W        W10689   9.308   7.627   1.336
44149W        W10690   6.953  16.135   3.958
44150W        W10691   8.612  28.071   5.162
44151W        W10692  43.346  27.589   4.632
44152W        W10693  39.802   7.626   1.404
44153W        W10694  36.085  36.763   1.777
44154W        W10695  22.629  17.370   9.831
44155W        W10696  43.286  23.558  13.163
44156W        W10697  16.068   5.886  11.642
44157W        W10698  20.190  16.378   3.661
44158W        W10699  40.577   9.633  13.419
44159W        W10700   2.195   1.654  14.785
44160W        W10701  24.505   1.491   3.678
44161W        W10702  12.701  12.413   4.764
44162W        W10703  40.991  25.975   4.616
44163W        W10704  40.037  20.870  12.820
44164W        W10705  21.623  35.434  11.550
44165W        W10706  43.768   1.825  11.636
44166W        W10707  44.809  29.436  13.809
44167W        W10708  10.105  37.515   3.232
44168W        W10709  40.254   6.304  12.027
44169W        W10710   8.390  23.565  14.463
44170W        W10711  26.501  44.879  12.948
44171W        W10712  25.455  29.407   1.865
44172W        W10713  21.717   0.428  10.888
44173W        W10714  40.398  23.885  12.238
44174W        W10715   2.593  40.568  13.533
44175W        W10716  25.105  36.954   4.968
44176W        W10717   5.755  32.112   4.819
44177W        W10718  22.629  12.076   0.596
44178W        W10719  12.318  31.621  11.912
44179W        W10720   6.924  25.706   5.031
44180W        W10721  42.528  36.117   1.651
44181W        W10722  32.932  25.036   1.561
44182W        W10723  16.112  27.484  12.437
44183W        W10724  18.204  44.188   0.385
44184W        W10725  37.120   4.438   0.222
44185W        W10726   3.365   6.798   2.423
44186W        W10727  38.360  14.816  13.469
44187W        W10728  26.200  31.455  14.002
44188W        W10729  35.903   9.145   3.148
44189W        W10730  12.643  18.411  14.255
44190W        W10731  42.872  39.073  13.081
44191W        W10732   3.503  23.952  11.005
44192W        W10733  40.884  38.526   2.860
44193W        W10734  29.740  21.177  14.383
44194W        W10735  25.510  39.827  12.116
44195W        W10736   1.457  11.893   2.670
44196W        W10737  27.248  38.149   2.721
44197W        W10738  38.701  16.285   4.387
44198W        W10739  39.011  33.657   3.127
44199W        W10740  25.605  39.146  10.317
44200W        W10741  44.552  16.660   0.697
44201W        W10742   1.768  43.751  12.040
44202W        W10743  16.527  17.128   2.718
44203W        W10744  39.011  37.585  11.715
44204W        W10745   7.167  35.142  12.592
44205W        W10746  13.841  19.450   1.446
44206W        W10747  19.811  30.656   2.101
44207W        W10748   1.119  41.048   1.701
44208W        W10749  30.569  44.889   0.366
44209W        W10750  29.065   6.682  11.535
44210W        W10751  14.364  24.128   3.694
44211W        W10752  21.731  14.503   2.319
44212W        W10753  35.079   2.815  13.014
44213W        W10754  20.108   5.517  14.995
44214W        W10755  10.029  35.839  14.840
44215W        W10756  19.852  38.452   2.340
44216W        W10757   9.715   5.373  11.598
44217W        W10758  35.510  38.178  13.300
44218W        W10759   7.142  11.001  11.572
44219W        W10760  37.262  43.731  12.508
44220W        W10761  30.498   3.915  13.461
44221W        W10762  28.013  44.789  13.112
44222W        W10763   2.384  17.479  11.225
44223W        W10764  14.934  26.565   1.278
44224W        W10765   3.000  19.640   3.152
44225W        W10766  36.928  42.531   3.301
44226W        W10767  26.911  29.692  13.260
44227W        W10768  23.499  33.166   1.763
44228W        W10769   5.279   4.189  14.835
44229W        W10770   5.919  16.322   0.280
44230W        W10771  26.162   6.389  11.497
44231W        W10772  39.340  42.320  12.926
44232W        W10773   1.178  26.029  12.140
44233W        W10774  16.559  39.613   2.212
44234W        W10775  35.124  30.563   1.657
44235W        W10776   9.716  39.340   1.940
44236W        W10777  14.423  12.732  14.481
44237W        W10778  43.757  44.332  12.985
44238W        W10779  32.720  40.290  10.669
44239W        W10780  42.427   8.763  11.232
44240W        W10781  12.041   1.374   3.290
44241W        W10782  41.701   0.488   0.670
44242W        W10783  27.605  36.880  12.659
44243W        W10784  32.699   9.256  12.547
44244W        W10785  44.795  38.290   3.695
44245W        W10786  23.722   6.967   4.971
44246W        W10787  39.823   4.279   2.149
44247W        W10788  17.122   9.332  12.556
44248W        W10789  34.316  32.088   5.019
44249W        W10790  28.621  18.835  13.080
44250W        W10791  11.899  30.172   4.835
44251W        W10792  27.463  26.575   0.442
44252W        W10793   4.104   4.868  10.572
44253W        W10794  40.297  38.626  10.724
44254W        W10795  23.084  18.937  12.009
44255W        W10796  10.718   8.515  11.715
44256W        W10797  27.975  23.989  11.144
44257W        W10798  35.479  35.044  11.953
44258W        W10799   9.267  10.214   4.579
44259W        W10800  44.911  22.085   0.272
44260W        W10801  43.561  12.790  10.269
44261W        W10802  43.361   4.916   2.260
44262W        W10803  37.730  28.685  14.331
44263W        W10804   6.171  44.869   1.420
44264W        W10805  11.509  22.711   5.051
44265W        W10806  26.539  23.710   4.585
44266W        W10807  19.248  18.006  14.802
44267W        W10808  41.446  42.217  14.462
44268W        W10809  19.617   5.452  10.188
44269W        W10810  38.649  32.123  11.931
44270W        W10811   4.085  43.046   3.802
44271W        W10812  44.695   6.914   3.700
44272W        W10813  24.236   4.419  14.956
44273W        W10814  21.755  39.856  14.813
44274W        W10815  31.679  40.429   4.593
44275W        W10816  20.978  13.883  11.089
44276W        W10817  20.513  16.148   3.315
44277W        W10818  33.155  36.293   2.394
44278W        W10819  26.097  11.695  11.604
44279W        W10820  12.750   5.425  11.544
44280W        W10821  29.312  41.559  11.168
44281W        W10822   5.820  35.354   0.937
44282W        W10823  34.358  30.172   3.157
44283W        W10824  40.257  14.107   1.272
44284W        W10825  26.610  26.788   1.401
44285W        W10826  22.710  27.215  14.432
44286W        W10827  39.086  28.927   2.331
44287W        W10828  37.008   0.386   0.404
44288W        W10829  33.477  13.357  13.101
44289W        W10830   4.801  32.505   5.445
44290W        W10831  36.015  40.470  13.168
44291W        W10832   1.096  32.691  14.739
44292W        W10833  30.406  13.480   3.029
44293W        W10834  15.705  21.198   3.627
44294W        W10835  11.904   5.523  13.896
44295W        W10836   3.640  42.164  13.248
44296W        W10837  16.758  39.375   3.207
44297W        W10838  10.322   9.832   2.648
44298W        W10839  12.945  11.709  12.079
44299W        W10840  31.048  38.988   3.650
44300W        W10841  30.713  16.811  10.288
44301W        W10842  35.564  34.078  13.829
44302W        W10843  18.001  14.726   1.990
44303W        W10844  31.576  27.414  12.942
44304W        W10845  40.268  34.644  14.042
44305W        W10846   0.026   6.331   2.671
44306W        W10847  31.109   4.793   4.697
44307W        W10848  25.141   5.277  11.634
44308W        W10849  27.101  14.672   4.560
44309W        W10850  11.157  43.819  10.720
44310W        W10851  36.048  22.016   2.841
44311W        W10852  17.720   5.980  13.417
44312W        W10853  38.393  17.981  14.936
44313W        W10854   7.277  15.824  11.723
44314W        W10855  39.046  17.574   1.862
44315W        W10856  26.402  13.328   2.396
44316W        W10857  22.944  19.324   4.198
44317W        W10858  13.329  24.083   1.921
44318W        W10859   0.220  37.614  10.697
44319W        W10860  42.865  18.729   0.848
44320W        W10861  36.717  43.299  10.546
44321W        W10862  21.813  27.231  11.166
44322W        W10863  12.366  18.143   2.686
44323W        W10864  14.551  11.296  12.675
44324W        W10865  16.259  38.355   0.153
44325W        W10866   8.612  35.863   4.321
44326W        W10867  40.309   4.863   2.605
44327W        W10868   5.737  18.195  14.098
44328W        W10869  35.642   6.370  14.746
44329W        W10870  26.527  31.232   1.326
44330W        W10871   9.569   4.501  11.144
44331W        W10872   4.177  25.689  14.897
44332W        W10873   8.382  28.283   1.769
44333W        W10874  40.673  44.239  10.282
44334W        W10875  15.986   5.491   3.236
44335W        W10876  22.503  13.470   1.233
44336W        W10877  27.958   7.824  12.888
44337W        W10878   3.560  28.609  13.868
44338W        W10879   6.894  26.776   0.567
44339W        W10880   2.960  12.749   4.268
44340W        W10881   1.310  13.545  14.106
44341W        W10882  27.872  32.026  11.526
44342W        W10883   1.016  23.621   3.686
44343W        W10884   8.838  26.187  10.296
44344W        W10885  43.871  27.971   4.768
44345W        W10886  20.369  25.962   2.917
44346W        W10887   3.236   8.390   0.762
44347W        W10888  36.794  33.566   2.237
44348W        W10889   4.488  34.464  13.921
44349W        W10890  22.726  43.978  14.676
44350W        W10891  20.627  44.964   3.097
44351W        W10892   4.811   7.381  11.535
44352W        W10893   7.387  37.606  10.722
44353W        W10894  23.055  40.849   4.925
44354W        W10895  25.513  13.800   2.245
44355W        W10896  38.137  27.890  11.324
44356W        W10897   5.937   6.616   2.435
44357W        W10898  27.105  18.198  14.426
44358W        W10899  25.636  16.012  14.361
44359W        W10900  17.885   9.205   4.711
44360W        W10901  35.756  33.005   2.783
44361W        W10902  20.956  29.046   3.958
44362W        W10903   7.982   9.303  14.394
44363W        W10904  33.615  28.586  10.635
44364W        W10905  29.039   0.247  13.198
44365W        W10906  37.939   3.710   9.900
44366W        W10907  21.717  15.849   0.937
44367W        W10908  23.931  19.123  11.997
44368W        W10909  13.854  17.229  10.223
44369W        W10910  38.036   8.893   1.153
44370W        W10911  32.051  38.312   0.475
44371W        W10912  38.880  12.374  12.011
44372W        W10913   8.004  16.805  10.632
44373W        W10914  23.992  21.781  11.076
44374W        W10915  36.004  42.237  12.036
44375W        W10916  23.264   8.432   2.313
44376W        W10917  14.999  31.880  14.995
44377W        W10918  26.695   3.829  10.953
44378W        W10919  28.973  23.206  10.744
44379W        W10920  22.149   7.878  11.401
44380W        W10921  12.512  26.075   3.826
44381W        W10922   3.494  43.831   1.303
44382W        W10923   3.708  30.448  13.462
44383W        W10924  29.449   3.299  12.939
44384W        W10925  31.897   6.707   1.466
44385W        W10926  20.608  33.641  14.272
44386W        W10927  32.130   3.282  12.576
44387W        W10928  19.131  18.451   0.018
44388W        W10929   2.396   5.410   1.800
44389W        W10930  43.499  20.547  14.778
44390W        W10931  41.593   0.725   3.813
44391W        W10932   5.230  34.932  14.980
44392W        W10933  42.582  44.208  14.192
44393W        W10934  40.903  21.290   2.188
44394W        W10935  25.746  34.360  13.813
44395W        W10936  36.944  44.303   0.350
44396W        W10937  17.375  13.969   4.705
44397W        W10938  20.963  19.220  14.022
44398W        W10939   5.914  12.258  13.850
44399W        W10940   9.848   3.147  13.049
44400W        W10941   0.729  26.715   1.205
44401W        W10942   1.601   2.883   2.988
44402W        W10943  34.296  22.052  13.362
44403W        W10944  31.055  27.767   4.206
44404W        W10945  41.776  41.905   2.838
44405W        W10946  33.948  35.942  13.935
44406W        W10947   7.699  10.177   0.808
44407W        W10948  11.791  41.714   1.346
44408W        W10949  14.967  35.895   3.376
44409W        W10950   3.800   2.733   1.952
44410W        W10951  30.455  14.789   0.311
44411W        W10952  38.694   1.537   4.799
44412W        W10953   1.952  17.119   2.189
44413W        W10954  18.775  18.228  14.699
44414W        W10955  36.268  41.723  13.352
44415W        W10956  11.325   0.279  10.662
44416W        W10957   0.924  20.275   1.842
44417W        W10958  12.992   7.090  14.404
44418W        W10959  15.103  34.233  12.592
44419W        W10960  11.250  14.708   1.190
44420W        W10961  31.908  35.480  14.826
44421W        W10962  19.341   0.924   0.859
44422W        W10963  33.436  37.855   3.652
44423W        W10964   9.412  24.601   2.971
44424W        W10965  13.951  37.236  14.005
44425W        W10966   3.670  12.110   2.108
44426W        W10967  16.347  21.936  14.511
44427W        W10968  24.672  28.584   2.454
44428W        W10969  27.459  32.065   3.617
44429W        W10970   1.201  30.081   3.684
44430W        W10971   5.654   9.837   2.847
44431W        W10972  10.532  35.929   4.907
44432W        W10973   4.461  14.603  10.437
44433W        W10974  18.829  39.469  11.147
44434W        W10975  36.373  27.536  11.714
44435W        W10976  23.697  26.378   2.923
44436W        W10977  14.592  19.674   2.405
44437W        W10978   7.204  21.806  13.866
44438W        W10979   1.307  22.283  14.075
44439W        W10980  15.588  13.880   5.012
44440W        W10981  28.609  29.111  13.457
44441W        W10982  21.100  42.804  12.163
44442W        W10983  29.505  42.078   0.740
44443W        W10984  31.047  41.481   2.264
44444W        W10985  20.834  18.782  12.285
44445W        W10986  16.160   0.810  10.982
44446W        W10987  26.174  23.618   3.118
44447W        W10988   7.203  20.548  12.570
44448W        W10989   2.447  27.055   3.807
44449W        W10990  27.848   6.498   2.300
44450W        W10991  21.876  33.993  14.782
44451W        W10992  35.944  36.492   4.738
44452W        W10993   4.073  19.585  13.415
44453W        W10994   8.945  37.880   2.122
44454W        W10995   6.586  11.752   3.168
44455W        W10996   9.213   6.913  14.924
44456W        W10997   7.747  18.146  13.654
44457W        W10998   2.424   2.422  14.525
44458W        W10999  30.129  44.038  10.709
44459W        W11000  42.938  43.233   4.654
44460W        W11001  23.409   1.849   2.563
44461W        W11002  25.550  11.365   4.271
44462W        W11003   7.441  27.817  13.556
44463W        W11004  20.413  40.604   4.710
44464W        W11005  27.354  15.131  10.573
44465W        W11006  20.016  23.813   4.899
44466W        W11007   0.703   7.330   4.495
44467W        W11008  16.516   1.840  14.655
44468W        W11009   6.514  29.559  10.629
44469W        W11010  33.588  41.967   2.060
44470W        W11011  21.329  14.196   3.241
44471W        W11012  15.038  43.388   4.206
44472W        W11013  14.703  21.518  11.531
44473W        W11014  19.624   1.177  14.919
44474W        W11015  39.640   2.038  12.974
44475W        W11016   3.731  22.351  12.393
44476W        W11017  28.674   9.412  11.583
44477W        W11018  43.044  29.209   3.326
44478W        W11019   3.508  38.321  12.030
44479W        W11020  30.676  35.695   1.752
44480W        W11021  11.816  15.309   0.243
44481W        W11022  24.239   5.316  12.634
44482W        W11023  21.153  13.093  12.014
44483W        W11024  25.725  17.598   4.587
44484W        W11025   4.315  29.601  11.951
44485W        W11026  14.445  10.621   2.846
44486W        W11027  35.561   6.582  10.670
44487W        W11028   3.084  30.586   2.272
44488W        W11029  29.333  25.709  13.066
44489W        W11030  15.867  20.079  10.728
44490W        W11031  23.937  15.788   1.915
44491W        W11032  38.616   1.788  13.938
44492W        W11033  22.515   0.826  12.144
44493W        W11034  10.518  44.950  11.548
44494W        W11035  44.936  30.787   1.704
44495W        W11036  21.969  22.680  11.482
44496W        W11037   2.917  15.547  14.941
44497W        W11038  12.556  40.961  10.551
44498W        W11039   6.693   4.945   1.882
44499W        W11040   8.562  23.603  14.935
44500W        W11041  26.747   6.085  11.145
44501W        W11042  41.566  15.775  12.905
44502W        W11043  12.322   6.827   3.721
44503W        W11044  42.450   4.665   4.529
44504W        W11045  27.403  16.850   3.679
44505W        W11046  33.476  44.757   2.805
44506W        W11047  42.439   1.656  13.778
44507W        W11048  12.378  19.130  11.124
44508W        W11049  16.512  28.203  13.481
44509W        W11050  26.051  18.580  11.121
44510W        W11051  43.934  43.202  14.365
44511W        W11052  24.715  11.622  14.008
44512W        W11053  33.060  24.092  11.117
44513W        W11054  27.504  37.387   0.231
44514W        W11055  26.466  41.198   0.515
44515W        W11056  23.758   1.613   1.252
44516W        W11057  30.397  21.735   1.462
44517W        W11058  12.792  21.199   2.034
44518W        W11059  44.794  26.386   2.236
44519W        W11060  21.588  17.769   3.488
44520W        W11061  23.273  22.688  10.649
44521W        W11062  20.998  13.799   3.154
44522W        W11063  10.642  33.513   3.798
44523W        W11064   2.767   7.306  12.648
44524W        W11065  15.652  26.486   0.472
44525W        W11066  32.888  17.515   2.204
44526W        W11067  12.905  42.652   0.294
44527W        W11068  13.721  23.023   1.213
44528W        W11069  43.715  31.500  10.500
44529W        W11070  42.544  36.002   1.160
44530W        W11071   9.637  42.893   3.115
44531W        W11072  22.567   6.973   2.855
44532W        W11073  15.375  12.965  10.361
44533W        W11074  11.220   5.208   1.805
44534W        W11075   9.915   1.973   1.140
44535W        W11076  17.214  34.425   3.259
44536W        W11077  25.363   3.240  10.633
44537W        W11078  37.555   1.666   1.847
44538W        W11079  28.185  31.594   2.861
44539W        W11080   6.899  40.569   4.383
44540W        W11081   8.825   6.619  14.002
44541W        W11082   5.120  40.618   0.429
44542W        W11083   9.717   7.315   2.535
44543W        W11084  22.274   9.393   2.863
44544W        W11085   9.367  10.376  13.924
44545W        W11086  33.665   5.358   4.669
44546W        W11087  29.933  10.535   2.200
44547W        W11088  13.106   6.853  12.990
44548W        W11089  14.090  29.060   1.895
44549W        W11090  26.270   9.169   4.758
44550W        W11091  36.593  43.723  13.217
44551W        W11092   1.308  40.338   4.552
44552W        W11093  26.861  37.872  10.569
44553W        W11094  35.419  12.704   2.945
44554W        W11095  43.040  33.139   3.362
44555W        W11096  38.330  31.034   3.204
44556W        W11097  40.846  13.727   3.653
44557W        W11098  14.365  38.860   4.209
44558W        W11099  33.115  37.041  12.634
44559W        W11100  42.706   8.181   1.825
44560W        W11101  13.649  20.018  11.665
44561W        W11102  31.025  23.948  13.907
44562W        W11103  17.062  33.090  12.862
44563W        W11104  20.285   4.848  10.261
44564W        W11105  40.478  15.463   4.090
44565W        W11106  35.779  15.238   3.764
44566W        W11107   2.185  19.261   0.883
44567W        W11108  21.236  42.569  14.989
44568W        W11109  14.722  17.522   2.163
44569W        W11110  12.059  20.264  10.880
44570W        W11111  26.532  24.194  14.345
44571W        W11112  18.441  12.313   3.810
44572W        W11113  18.774  25.282  12.428
44573W        W11114  37.046   2.296   0.858
44574W        W11115  33.147   0.262  12.436
44575W        W11116  19.626   5.624  11.467
44576W        W11117  40.667  27.760   1.050
44577W        W11118  10.480  18.085  14.460
44578W        W11119  37.850  33.484  10.336
44579W        W11120  10.323  41.206   3.698
44580W        W11121  16.616  39.504  14.610
44581W        W11122  36.174   0.473  11.504
44582W        W11123  23.132   6.661   0.494
44583W        W11124   6.829  19.641  12.433
44584W        W11125  33.885  17.813  13.268
44585W        W11126   1.300   3.883   2.320
44586W        W11127  21.441   1.826   2.697
44587W        W11128  41.346  20.158   1.707
44588W        W11129  43.481  41.871   4.194
44589W        W11130  10.222  23.991  13.478
44590W        W11131   1.450  10.755  11.686
44591W        W11132  11.838  13.475   1.316
44592W        W11133   0.500  36.133   1.894
44593W        W11134  11.282   0.403   3.032
44594W        W11135  41.771  41.899  11.952
44595W        W11136  10.910  27.824  10.900
44596W        W11137  20.239  14.828   1.487
44597W        W11138  35.488  44.990  10.646
44598W        W11139   5.037  28.520  14.810
44599W        W11140  33.118   0.642  12.041
44600W        W11141   6.813  29.973  10.627
44601W        W11142   0.806  25.034   1.641
44602W        W11143   1.321  18.453  10.948
44603W        W11144  37.785  17.007   1.801
44604W        W11145  29.171  27.937   3.355
44605W        W11146  15.814  34.555   4.545
44606W        W11147   5.407   5.301   2.820
44607W        W11148  25.603  18.546   3.658
44608W        W11149  30.631  14.399  12.892
44609W        W11150  37.982  24.476   0.403
44610W        W11151  26.392  36.148   5.055
44611W        W11152  20.684  28.798   0.855
44612W        W11153  25.409  26.166   2.679
44613W        W11154  26.705  28.668  14.316
44614W        W11155   7.310  19.479   0.949
44615W        W11156  32.910   4.947  13.551
44616W        W11157  43.889  18.173   1.556
44617W        W11158   1.957  26.627   1.950
44618W        W11159  20.076  43.916  12.238
44619W        W11160  31.512  21.201  14.129
44620W        W11161  17.547  35.155   0.761
44621W        W11162  13.292  38.479   4.000
44622W        W11163   8.204  33.400  13.403
44623W        W11164  24.307  34.162   1.371
44624W        W11165   6.708  38.081  13.731
44625W        W11166  18.075  41.992   0.841
44626W        W11167  36.311  15.575   3.223
44627W        W11168  38.980  10.368  14.739
44628W        W11169  43.484   9.429   3.247
44629W        W11170   0.711  35.098   1.765
44630W        W11171  22.173  29.184   1.343
44631W        W11172  41.938  13.895   1.902
44632W        W11173  36.343   8.923   2.506
44633W        W11174   2.659   1.713  13.925
44634W        W11175   0.725  29.499  10.889
44635W        W11176  18.315  38.496   3.433
44636W        W11177  16.603  27.029   4.570
44637W        W11178  21.073   7.377   4.400
44638W        W11179  26.899   5.796  10.713
44639W        W11180  15.095  15.517   1.201
44640W        W11181  36.759  18.805   3.763
44641W        W11182  22.238  33.479  12.380
44642W        W11183  30.470   0.441   2.870
44643W        W11184  27.438  37.009  14.632
44644W        W11185   6.995  26.120  11.145
44645W        W11186   0.776  30.342   1.210
44646W        W11187  12.796   7.849   1.360
44647W        W11188   4.420  31.454   4.011
44648W        W11189  40.429   2.968   2.297
44649W        W11190  12.379   7.871  13.523
44650W        W11191  27.155  14.874   3.622
44651W        W11192  18.546  26.151   0.465
44652W        W11193  33.619   2.210   3.107
44653W        W11194  10.208  16.027  11.545
44654W        W11195  14.632  34.723  12.937
44655W        W11196  39.891  43.319   2.746
44656W        W11197  12.443  21.166   4.425
44657W        W11198  20.268  32.418  11.692
44658W        W11199  23.068   6.524   1.292
44659W        W11200   5.775  32.192  11.891
44660W        W11201  20.341  29.135   1.003
44661W        W11202  44.225  33.714   2.826
44662W        W11203  43.839  16.021  12.183
44663W        W11204  44.313  15.069  11.217
44664W        W11205  20.162  26.400   3.140
44665W        W11206  29.370  11.975  13.339
44666W        W11207  17.058  13.900  10.514
44667W        W11208   5.039  39.889   1.337
44668W        W11209  28.458   8.109   2.606
44669W        W11210  42.357  22.172  12.870
44670W        W11211  32.096  41.949  14.834
44671W        W11212  21.086  17.612  11.960
44672W        W11213  34.909  40.263   1.103
44673W        W11214  36.491   2.974  12.589
44674W        W11215  37.974  10.110  11.330
44675W        W11216  12.953  16.350  10.409
44676W        W11217   2.366  40.815   3.437
44677W        W11218   7.650  38.100   0.484
44678W        W11219  14.371  11.977  14.704
44679W        W11220   5.581  19.955  12.091
44680W        W11221  30.540  17.518   1.839
44681W        W11222  18.779  21.488   2.655
44682W        W11223   5.756   2.720  14.795
44683W        W11224  13.574  34.911  12.052
44684W        W11225  23.270   4.199   3.724
44685W        W11226   5.272  13.669  12.383
44686W        W11227  17.164   1.915   4.211
44687W        W11228  36.012  34.825  12.977
44688W        W11229   7.939  30.567   4.733
44689W        W11230   7.270  11.405   1.903
44690W        W11231   9.349  37.050   2.081
44691W        W11232  36.006   4.665  14.461
44692W        W11233  18.228  29.409   3.365
44693W        W11234  30.024  36.323  14.764
44694W        W11235   3.815  22.983   4.107
44695W        W11236  37.986  42.797  10.656
44696W        W11237  21.699  14.017   1.319
44697W        W11238  24.634  28.103  11.616
44698W        W11239   6.749  42.915  11.237
44699W        W11240  28.666   0.750   1.764
44700W        W11241  27.466  37.447   2.673
44701W        W11242  12.845  21.479   4.630
44702W        W11243  19.652  39.462   0.927
44703W        W11244   7.385  10.665   2.365
44704W        W11245  35.906  26.777   3.760
44705W        W11246  44.821   5.486   3.554
44706W        W11247  18.025  26.153   1.821
44707W        W11248  10.316  38.351   0.253
44708W        W11249  35.835   4.525  13.446
44709W        W11250   8.615  29.464  12.445
44710W        W11251  25.900  39.804   3.845
44711W        W11252  20.541  42.739  13.018
44712W        W11253  43.390  44.907  10.756
44713W        W11254  44.870  35.673  12.549
44714W        W11255  11.906   1.761   2.400
44715W        W11256  24.214   3.901   2.830
44716W        W11257  11.789  40.706   5.004
44717W        W11258  15.658  26.113   0.088
44718W        W11259  16.236  22.592  10.449
44719W        W11260  34.802  35.844   3.768
44720W        W11261  42.899  43.882   3.904
44721W        W11262  28.640  44.601   4.227
44722W        W11263  37.830  26.569  11.758
44723W        W11264  29.413  24.907  12.590
44724W        W11265   8.405  41.489   1.723
44725W        W11266  10.927   9.078  14.330
44726W        W11267  12.947  38.609  11.522
44727W        W11268   1.357   2.941   0.332
44728W        W11269  26.476  15.696   0.676
44729W        W11270  43.574  22.139   1.458
44730W        W11271  39.830  38.307   2.649
44731W        W11272  40.983  41.709   3.355
44732W        W11273  16.803  18.074   1.764
44733W        W11274  26.783  14.232   2.217
44734W        W11275   1.749  15.339  12.514
44735W        W11276   9.723   2.181   2.935
44736W        W11277   5.819  35.499   0.415
44737W        W11278  10.902  33.449  11.289
44738W        W11279  27.919  31.176   3.931
44739W        W11280  31.635  19.583   0.377
44740W        W11281  24.641  32.868   0.005
44741W        W11282  15.734  42.773  12.660
44742W        W11283  37.001  37.595   4.947
44743W        W11284  40.803  27.835  12.453
44744W        W11285  14.047   3.234  13.518
44745W        W11286  30.792   6.018   5.271
44746W        W11287  18.204  43.766   2.433
44747W        W11288  36.579  12.885   0.525
44748W        W11289   8.269  29.415  12.821
44749W        W11290  44.905   1.883  11.245
44750W        W11291  23.312  27.758   3.676
44751W        W11292  42.988  40.013   0.738
44752W        W11293   3.761  33.860   3.759
44753W        W11294   1.233  37.098  14.800
44754W        W11295  34.647  40.376  10.817
44755W        W11296  11.114  37.312   4.956
44756W        W11297  28.391  16.614   3.679
44757W        W11298  21.858  11.671   3.294
44758W        W11299  10.868  31.101  13.470
44759W        W11300  16.661   8.838  11.993
44760W        W11301  12.598  35.083   0.249
44761W        W11302  25.907  26.638   1.896
44762W        W11303  11.880  35.132  13.579
44763W        W11304  44.017  26.515  14.969
44764W        W11305   0.253  14.843  12.211
44765W        W11306  28.806  20.624  13.935
44766W        W11307   5.141  35.038   2.005
44767W        W11308  23.745  37.653  14.447
44768W        W11309   9.058  18.203  13.921
44769W        W11310  30.813   6.387  13.261
44770W        W11311  42.300  15.173   3.574
44771W        W11312  42.210  13.310  14.517
44772W        W11313  44.800  31.392  13.013
44773W        W11314  32.588  15.058  14.897
44774W        W11315  17.675  43.334  11.563
44775W        W11316  31.460   2.518   1.803
44776W        W11317  24.061  41.091   1.258
44777W        W11318  32.726  31.606   3.683
44778W        W11319  42.532  22.031  14.359
44779W        W11320  31.652  31.075  14.519
44780W        W11321  31.916  39.457   2.848
44781W        W11322  15.889  12.684  10.990
44782W        W11323  33.670   9.465  12.622
44783W        W11324   6.171   3.164  11.057
44784W        W11325  41.330   5.265   2.925
44785W        W11326  21.359  40.135   1.360
44786W        W11327  26.164  37.283  12.058
44787W        W11328  18.066  12.199  12.474
44788W        W11329  17.811   2.377   2.311
44789W        W11330  14.203  41.482  13.780
44790W        W11331   1.027  42.392  11.563
44791W        W11332  34.635  21.117   1.107
44792W        W11333  36.937   1.874   4.881
44793W        W11334  12.798  19.524   1.369
44794W        W11335  23.567  20.343  13.624
44795W        W11336  28.078  29.962   0.071
44796W        W11337  21.066  33.987  11.041
44797W        W11338  26.919  38.977  13.870
44798W        W11339  19.716  43.700  14.372
44799W        W11340  16.316  33.404  11.456
44800W        W11341  13.421   9.307  12.002
44801W        W11342  39.263  41.797   4.081
44802W        W11343  41.484  12.912  14.272
44803W        W11344  20.130  40.211  11.121
44804W        W11345   4.330  18.914   0.018
44805W        W11346  19.294  39.356  14.006
44806W        W11347  19.745  26.712  12.635
44807W        W11348  27.181   3.419  12.105
44808W        W11349  23.006  31.913   0.516
44809W        W11350  33.402  21.048   1.753
44810W        W11351  32.035   0.148   5.151
44811W        W11352  18.695  20.112  10.655
44812W        W11353   5.750  34.005  11.867
44813W        W11354  16.116   7.683  14.026
44814W        W11355  40.500  15.078   2.527
44815W        W11356  16.031  43.291  13.835
44816W        W11357   5.042   9.834  11.986
44817W        W11358  17.254   0.453   3.379
44818W        W11359  24.254  15.497   2.217
44819W        W11360  39.014   7.457   1.705
44820W        W11361  19.952  29.990   1.350
44821W        W11362  27.732  27.943   4.531
44822W        W11363  23.909  41.122  14.377
44823W        W11364  43.832  13.027  13.428
44824W        W11365  19.810  21.311  14.545
44825W        W11366  30.476  33.973  13.902
44826W        W11367  42.360   9.994  12.507
44827W        W11368  35.102  21.264   3.143
44828W        W11369   1.847  44.237   0.881
44829W        W11370  39.758  12.151   4.568
44830W        W11371  31.597  30.079   2.778
44831W        W11372  19.806  17.834   0.452
44832W        W11373  14.803   9.073  14.789
44833W        W11374  13.817  25.594  11.969
44834W        W11375   4.400  27.474   2.767
44835W        W11376  36.422  36.906  11.551
44836W        W11377  37.858  11.951  10.692
44837W        W11378  17.863  25.919  12.333
44838W        W11379  23.180   8.757  12.869
44839W        W11380  21.700  44.296   4.250
44840W        W11381  42.521  15.418  12.560
44841W        W11382  10.393  43.290   0.989
44842W        W11383  44.047   0.983  14.929
44843W        W11384  42.326  37.403  12.045
44844W        W11385  11.870   2.286   2.307
44845W        W11386  43.887  27.994   4.223
44846W        W11387  24.681  44.429  11.253
44847W        W11388  40.298  14.497  13.273
44848W        W11389  24.822  40.840  13.144
44849W        W11390  37.300   3.763  14.383
44850W        W11391  28.216  31.971   0.734
44851W        W11392  31.450   7.625   0.376
44852W        W11393  41.060   4.309   4.613
44853W        W11394   6.324  42.859   2.303
44854W        W11395   0.826  10.051   2.216
44855W        W11396  31.082  23.061   2.368
44856W        W11397  21.652  33.433   4.764
44857W        W11398  33.197  21.575   1.879
44858W        W11399  30.466   6.470  10.893
44859W        W11400  13.124  39.384   3.664
44860W        W11401  25.454   4.640   0.576
44861W        W11402  15.685   0.055  11.141
44862W        W11403  36.356  42.945  13.028
44863W        W11404  16.949   7.841   1.385
44864W        W11405   8.750  35.538   3.087
44865W        W11406  40.022  27.545  11.196
44866W        W11407  34.678  19.140   4.922
44867W        W11408  34.295  38.540   4.086
44868W        W11409   7.710  40.290   1.715
44869W        W11410  14.666   6.952   3.835
44870W        W11411  18.605  29.898  14.322
44871W        W11412  27.552  44.509  13.054
44872W        W11413  43.279  21.450   3.128
44873W        W11414  37.378  35.086  11.979
44874W        W11415  16.311  28.671   4.214
44875W        W11416  15.152  37.801  13.495
44876W        W11417   3.796  33.398   1.813
44877W        W11418  27.506   2.289  13.303
44878W        W11419  43.680  39.792   0.016
44879W        W11420  18.033  23.065   0.822
44880W        W11421  44.985  28.963  13.611
44881W        W11422  22.928  14.856   4.207
44882W        W11423   1.370  39.542  13.492
44883W        W11424   6.663  35.457   2.987
44884W        W11425  35.626  44.415   0.356
44885W        W11426  44.496  38.665  11.134
44886W        W11427   2.021   7.538  13.291
44887W        W11428   8.433  17.099   1.775
44888W        W11429  18.820  37.418   1.446
44889W        W11430  13.611   7.337  10.531
44890W        W11431  29.589  30.451  14.782
44891W        W11432  44.361  22.267  12.493
44892W        W11433   0.172   8.430  12.038
44893W        W11434   4.218  23.976   1.466
44894W        W11435  30.860  40.775   1.120
44895W        W11436  20.466  42.405  10.506
44896W        W11437  15.074   2.388   1.238
44897W        W11438  29.944  41.353   1.199
44898W        W11439  24.505   2.142  13.441
44899W        W11440  10.290  32.020   1.514
44900W        W11441   7.890  19.825   3.953
44901W        W11442  30.788  26.239   2.238
44902W        W11443  23.847  10.563   4.891
44903W        W11444  28.904  24.217   3.161
44904W        W11445   5.694  39.494  14.103
44905W        W11446  38.535   7.143   0.873
44906W        W11447  31.865   1.386   2.583
44907W        W11448  37.552  37.571   0.856
44908W        W11449   3.766  19.879  10.051
44909W        W11450  41.938  26.290  12.047
44910W        W11451  20.536  41.876  10.649
44911W        W11452  31.869  36.677  13.340
44912W        W11453  26.931  20.265  14.275
44913W        W11454  15.141  23.310  14.260
44914W        W11455  39.000  18.589   1.855
44915W        W11456  36.051  41.248   1.358
44916W        W11457   7.470  29.197  13.406
44917W        W11458  43.497  38.812   2.565
44918W        W11459   6.306  22.688  14.923
44919W        W11460  11.672  38.736   0.080
44920W        W11461  20.705  36.676  13.521
44921W        W11462   3.715  24.582  13.218
44922W        W11463  33.637   1.278  14.801
44923W        W11464   6.369  28.655  10.456
44924W        W11465  11.751   0.443  13.891
44925W        W11466  14.141  28.411   4.549
44926W        W11467  16.993  20.166   1.551
44927W        W11468  34.961  14.825   3.653
44928W        W11469  37.175   5.075   5.357
44929W        W11470  20.215  31.107   4.105
44930W        W11471  23.675  15.587   4.527
44931W        W11472  38.327  17.939   4.185
44932W        W11473  34.438  23.725   3.577
44933W        W11474  43.473  26.948   3.252
44934W        W11475   0.980  18.299  14.383
44935W        W11476  12.274  22.900  13.972
44936W        W11477   1.769  17.817   0.885
44937W        W11478  22.723  10.731  11.566
44938W        W11479  44.821  14.161   5.030
44939W        W11480   4.416  13.816  13.844
44940W        W11481   4.303  43.569  11.855
44941W        W11482  36.903  27.915   2.166
44942W        W11483   5.758  16.002  13.814
44943W        W11484  23.955  16.740   2.481
44944W        W11485  19.254  27.080  13.237
44945W        W11486  13.153  18.800  13.413
44946W        W11487  36.574  40.525   2.090
44947W        W11488   6.868  13.908   2.770
44948W        W11489  29.250   0.179  12.671
44949W        W11490  10.926   1.041  11.142
44950W        W11491   1.788   1.238  12.365
44951W        W11492  14.293   5.867  14.798
44952W        W11493  32.487  23.185   2.188
44953W        W11494  16.051  21.929   4.111
44954W        W11495  32.481   5.089   4.639
44955W        W11496  15.371  25.486   3.725
44956W        W11497  16.215  14.767  10.293
44957W        W11498  24.324  32.534   3.703
44958W        W11499   2.393  34.613   2.371
44959W        W11500   8.866  25.935   3.269
44960W        W11501  42.628  42.807   4.756
44961W        W11502  26.971   7.873  14.715
44962W        W11503  40.652  41.332  13.355
44963W        W11504  39.021  32.642  14.488
44964W        W11505  10.126  33.370   2.754
44965W        W11506  41.931   0.738   4.195
44966W        W11507   0.349  27.936   3.231
44967W        W11508  23.112  14.208   0.307
44968W        W11509   0.299   8.108  14.355
44969W        W11510   8.401  16.624   3.453
44970W        W11511  30.048  20.532   4.545
44971W        W11512   1.540  24.637   2.839
44972W        W11513   1.299  16.168  12.540
44973W        W11514  38.970  10.147   2.665
44974W        W11515   0.805  13.902   1.273
44975W        W11516  21.526  35.403   2.673
44976W        W11517  30.640  26.464  14.490
44977W        W11518   0.924  16.215  12.899
44978W        W11519  22.946  39.633   1.401
44979W        W11520  12.723   6.869   4.111
44980W        W11521   5.378  27.238   9.644
44981W        W11522   6.767  30.618   1.475
44982W        W11523   1.657  20.107  11.577
44983W        W11524  37.249   5.862   1.309
44984W        W11525  40.919  18.825   1.507
44985W        W11526   0.454   7.751   0.192
44986W        W11527  35.423  26.578  10.652
44987W        W11528  28.427  25.531   0.041
44988W        W11529  44.821  32.545   4.527
44989W        W11530   8.931  39.955   2.741
44990W        W11531  29.657  40.293   4.166
44991W        W11532  41.766  26.970   2.417
44992W        W11533  26.670  35.293   2.404
44993W        W11534   6.705  44.227   1.944
44994W        W11535  43.835  38.930  13.245
44995W        W11536  42.308  22.153   4.476
44996W        W11537  18.699  23.371   1.484
44997W        W11538  28.208  39.536   3.246
44998W        W11539  36.037  18.124  13.157
44999W        W11540  37.107  20.186   2.546
45000W        W11541  41.719  22.744   2.086
45001W        W11542  12.134   1.819   0.524
45002W        W11543   2.926  35.128  11.556
45003W        W11544  26.705  42.692  13.971
45004W        W11545  28.749  30.014  11.167
45005W        W11546   6.666  38.466   5.358
45006W        W11547  35.801  25.228  11.419
45007W        W11548   2.495   5.490  14.438
45008W        W11549   4.773  34.916   4.579
45009W        W11550  44.705  40.819   2.185
45010W        W11551  26.739  20.618   4.626
45011W        W11552  17.802  11.665   3.881
45012W        W11553  42.984  33.520  13.120
45013W        W11554   1.250   8.272   0.916
45014W        W11555   1.339  29.079   1.301
45015W        W11556   4.200  13.994  14.283
45016W        W11557  12.770  31.044   0.491
45017W        W11558  39.789  29.485   2.406
45018W        W11559  18.442  23.838  13.808
45019W        W11560  21.577  30.969   2.089
45020W        W11561  28.585  35.255  11.863
45021W        W11562  29.504  39.298   0.792
45022W        W11563  28.165  38.808  12.194
45023W        W11564  16.327  16.706  12.929
45024W        W11565  42.423  28.117  10.803
45025W        W11566  16.270  39.364   1.827
45026W        W11567  34.845  40.781   1.743
45027W        W11568  18.130  22.461  11.518
45028W        W11569  24.324   5.480  13.980
45029W        W11570  42.029  37.251   2.283
45030W        W11571  29.533   2.316   3.380
45031W        W11572  27.572  30.729   3.994
45032W        W11573  29.532   3.178   1.854
45033W        W11574  37.919  20.769  13.386
45034W        W11575   7.651   2.191  13.368
45035W        W11576  40.076  42.922  13.339
45036W        W11577  26.994   0.994   1.618
45037W        W11578  15.945  12.928  14.281
45038W        W11579  10.710  16.315   3.143
45039W        W11580  17.040  24.521   3.786
45040W        W11581  20.446  10.730   2.870
45041W        W11582  17.273  22.819   1.227
45042W        W11583  32.402  17.563   2.391
45043W        W11584   8.100  42.215  14.822
45044W        W11585  44.434  42.880   1.162
45045W        W11586  28.667  42.532   0.770
45046W        W11587  44.230   7.389  11.060
45047W        W11588  44.241  40.332   3.746
45048W        W11589  39.005  29.912  14.030
45049W        W11590   2.553  31.573   3.066
45050W        W11591  13.865  18.030   0.823
45051W        W11592  27.905  39.492  11.083
45052W        W11593  30.430   0.950   2.790
45053W        W11594   9.275   3.996   1.915
45054W        W11595  39.861  28.742  13.065
45055W        W11596  15.046  25.919   2.336
45056W        W11597  44.930  12.922   1.149
45057W        W11598  21.647  26.608   1.369
45058W        W11599  18.236  40.369   2.973
45059W        W11600  10.184   1.544   4.050
45060W        W11601   2.169  38.481  10.751
45061W        W11602   9.403  34.485   5.177
45062W        W11603  30.503  33.053   4.484
45063W        W11604  16.149  35.636   4.658
45064W        W11605  27.759  44.476   4.258
45065W        W11606  27.595   0.400  13.652
45066W        W11607  20.848   0.887  14.053
45067W        W11608  21.721   7.911  11.077
45068W        W11609  31.996  15.105   3.402
45069W        W11610   0.806  32.626   1.775
45070W        W11611   3.212  17.596   0.386
45071W        W11612   0.300   8.705  14.768
45072W        W11613  25.065  41.361  14.948
45073W        W11614  21.453  11.027  12.417
45074W        W11615  14.371  44.345   0.907
45075W        W11616  27.027  33.033   0.461
45076W        W11617  18.016  27.009  11.623
45077W        W11618  14.121  31.880   0.408
45078W        W11619  20.638  28.907  12.866
45079W        W11620  22.926  10.249  11.503
45080W        W11621   6.933  17.764   1.458
45081W        W11622  19.033  27.004  11.749
45082W        W11623  34.614  38.911   2.782
45083W        W11624  25.726   0.478  13.997
45084W        W11625  25.469   8.711  12.084
45085W        W11626  16.336  11.144  12.679
45086W        W11627  43.451  38.566  13.412
45087W        W11628  17.035  21.473  12.573
45088W        W11629  10.725  43.002   1.837
45089W        W11630  38.404   1.647  12.364
45090W        W11631  16.636  23.272   0.006
45091W        W11632  35.081  10.318  10.331
45092W        W11633  26.205  19.246  14.713
45093W        W11634   0.914  14.544   0.436
45094W        W11635  16.717   3.351   4.307
45095W        W11636  30.491   0.868   3.623
45096W        W11637  16.867  12.913   3.676
45097W        W11638  24.383  12.906  13.542
45098W        W11639  11.561  21.164  10.677
45099W        W11640  38.827  38.636  13.319
45100W        W11641   1.262   2.854   3.400
45101W        W11642  33.010   1.789   9.690
45102W        W11643  31.295  25.710  11.035
45103W        W11644   4.476  26.627  12.465
45104W        W11645  36.137  42.460  14.835
45105W        W11646  19.017  26.646   4.707
45106W        W11647   9.626  16.042   1.267
45107W        W11648  36.888  44.451   4.887
45108W        W11649   0.809  38.323   4.606
45109W        W11650  26.123  23.956  11.132
45110W        W11651  21.234  38.241   2.900
45111W        W11652   4.465  12.176  12.384
45112W        W11653  42.347   8.617   1.876
45113W        W11654  18.723  25.624  14.328
45114W        W11655   8.601  28.550   4.918
45115W        W11656  29.029  30.805  13.009
45116W        W11657   3.080  23.147  11.074
45117W        W11658  44.269  12.985   3.557
45118W        W11659   2.804   6.355   4.599
45119W        W11660  38.229  12.334  14.172
45120W        W11661  16.691   6.287   0.972
45121W        W11662   1.373  19.771  10.626
45122W        W11663  12.921  42.611   5.063
45123W        W11664  20.738  24.969   4.251
45124W        W11665  13.646  33.422   3.290
45125W        W11666  31.638  18.390  14.176
45126W        W11667   7.507   1.433   1.380
45127W        W11668  12.299  13.619  11.584
45128W        W11669  31.477  24.452   0.463
45129W        W11670  25.096  33.190  14.229
45130W        W11671   1.890  18.305  13.493
45131W        W11672  24.625  36.972  11.275
45132W        W11673   3.884  20.509   4.090
45133W        W11674  35.513   1.783  14.820
45134W        W11675  40.095   4.645   4.058
45135W        W11676   7.412   2.974  13.669
45136W        W11677  29.957  35.304  14.911
45137W        W11678  19.129  19.851  10.803
45138W        W11679   7.785   5.381   4.690
45139W        W11680  21.874  27.098   4.543
45140W        W11681  18.093  13.510  14.394
45141W        W11682  21.276  18.452  10.970
45142W        W11683  27.688  42.917  14.926
45143W        W11684   2.726  12.188  13.968
45144W        W11685   6.883  31.469  10.637
45145W        W11686  39.968   2.020   2.329
45146W        W11687  35.815  16.971   4.810
45147W        W11688  11.954  44.030  12.953
45148W        W11689   3.250  13.842   5.009
45149W        W11690  39.249  22.650   4.782
45150W        W11691  18.743  13.362   1.210
45151W        W11692  44.790   0.380  13.993
45152W        W11693   4.263   4.827  11.057
45153W        W11694  36.824  28.860  14.242
45154W        W11695  16.486  12.273  14.745
45155W        W11696  43.194  19.188   3.418
45156W        W11697   4.971   7.681  13.049
45157W        W11698   6.397  41.035   0.924
45158W        W11699  37.847   0.536   1.897
45159W        W11700  11.878   0.922   0.954
45160W        W11701  13.603   3.569   0.410
45161W        W11702   7.749  33.731   0.381
45162W        W11703  19.907   4.275   1.057
45163W        W11704  16.277  10.133   3.486
45164W        W11705  28.720  36.026  14.522
45165W        W11706   1.007  19.468  13.479
45166W        W11707  23.026   3.907   3.287
45167W        W11708   1.956   6.766   2.984
45168W        W11709  24.175  12.322  14.540
45169W        W11710  10.442  31.218   3.288
45170W        W11711  26.674   2.511  11.811
45171W        W11712  32.100   3.002  13.538
45172W        W11713   2.521  24.187  14.350
45173W        W11714   2.677  27.631   2.223
45174W        W11715  15.243  21.658   3.169
45175W        W11716  36.572  25.910   3.717
45176W        W11717  21.718   1.790  11.276
45177W        W11718  21.620   2.962  11.052
45178W        W11719   6.319  37.127  10.936
45179W        W11720   2.168  21.593   4.358
45180W        W11721  16.149  20.981   0.450
45181W        W11722  26.952  17.311  10.251
45182W        W11723  37.076   5.463  11.175
45183W        W11724   3.254  35.008   2.516
45184W        W11725  39.621  32.954   2.258
45185W        W11726  13.855   0.373  11.413
45186W        W11727  32.237  35.200   1.175
45187W        W11728  30.481  11.591   3.477
45188W        W11729   9.198  33.746   2.386
45189W        W11730   7.812  27.941  10.334
45190W        W11731  23.179   6.997   3.577
45191W        W11732  37.560  35.361   3.255
45192W        W11733  44.539  20.625   0.140
45193W        W11734  12.351   2.331  11.580
45194W        W11735  32.865   8.226  12.863
45195W        W11736   6.925  14.251  13.901
45196W        W11737  19.494  34.379  12.464
45197W        W11738  41.728   9.268   0.227
45198W        W11739   1.246   9.176   2.681
45199W        W11740  31.620   2.490  12.915
45200W        W11741  44.816   8.359   4.839
45201W        W11742   9.838   2.410   0.197
45202W        W11743  17.716  44.379  13.620
45203W        W11744  35.068  31.825   0.682
45204W        W11745  40.068  31.116  14.788
45205W        W11746  16.205  34.455  11.979
45206W        W11747  42.206  25.073  12.050
45207W        W11748  44.968  43.810   3.756
45208W        W11749  43.542  18.294  12.927
45209W        W11750  21.002  23.565   0.696
45210W        W11751  36.629  38.147   1.859
45211W        W11752   3.522  39.039  13.914
45212W        W11753  30.066  36.483   3.751
45213W        W11754  29.570   7.710  13.080
45214W        W11755   5.886  40.776  13.684
45215W        W11756  21.604  29.454   0.444
45216W        W11757  25.508  32.190   2.477
45217W        W11758  37.599   4.015   0.696
45218W        W11759   7.852   3.546  12.500
45219W        W11760  36.222  40.847  14.979
45220W        W11761   1.541  42.881  13.999
45221W        W11762  27.297  27.682  10.956
45222W        W11763   9.318  36.930   4.573
45223W        W11764  28.442  13.715  14.714
45224W        W11765  18.772  25.481   1.107
45225W        W11766  24.451   0.660  12.004
45226W        W11767  44.809  35.921   2.349
45227W        W11768  43.568  13.931   4.564
45228W        W11769  35.261   7.993   1.596
45229W        W11770  39.623  26.633   3.649
45230W        W11771  40.410  11.738   0.010
45231W        W11772  26.547  29.435   2.531
45232W        W11773   8.162   5.336  11.606
45233W        W11774  34.614  28.491  10.572
45234W        W11775  11.067  11.325  12.879
45235W        W11776  32.171  23.093   3.764
45236W        W11777   6.023  40.269  12.977
45237W        W11778  43.225   6.365   0.414
45238W        W11779  10.704  15.981  13.392
45239W        W11780  42.975  15.016  14.473
45240W        W11781  27.918  28.382  11.191
45241W        W11782  11.884  17.515  11.683
45242W        W11783  19.001  44.399  14.950
45243W        W11784  31.394   4.887   1.308
45244W        W11785  27.197  16.390   0.778
45245W        W11786  10.030  31.172  14.943
45246W        W11787  15.306  28.272  12.935
45247W        W11788  21.189  34.768  13.527
45248W        W11789   1.830  14.825   0.849
45249W        W11790  25.874  33.583   3.192
45250W        W11791  29.251   0.125   2.299
45251W        W11792   5.696  17.361   3.298
45252W        W11793  27.949  13.235  12.849
45253W        W11794   8.774  30.895  11.480
45254W        W11795  19.155  12.939   4.957
45255W        W11796  19.161  44.210  11.512
45256W        W11797   0.758  37.378   4.147
45257W        W11798   4.286  28.758  11.596
45258W        W11799  17.545  36.336  10.617
45259W        W11800   6.318  40.016  11.183
45260W        W11801  24.671  17.564   3.998
45261W        W11802   9.598  12.417   3.800
45262W        W11803  37.861  27.264   0.376
45263W        W11804  22.985  42.497  12.090
45264W        W11805  41.363  39.479  14.713
45265W        W11806  30.576  16.991  12.072
45266W        W11807  17.541  37.898  14.020
45267W        W11808  20.056  25.648  13.900
45268W        W11809  25.105  19.024  14.456
45269W        W11810  18.173  14.560  14.492
45270W        W11811  30.146   8.247   2.328
45271W        W11812  20.320  24.187   0.507
45272W        W11813  15.706  29.010  12.972
45273W        W11814  40.648   5.914   0.779
45274W        W11815  40.913  35.043   1.613
45275W        W11816  42.213   4.404  11.092
45276W        W11817  40.732  37.475   2.385
45277W        W11818  17.635  11.737   2.225
45278W        W11819  30.849  26.711   5.138
45279W        W11820   1.730  16.996   5.024
45280W        W11821  43.874  27.917  11.722
45281W        W11822  24.030  20.348  11.390
45282W        W11823   0.836   9.780  10.461
45283W        W11824  16.214  22.332   1.907
45284W        W11825  39.279  12.694   3.151
45285W        W11826  11.195  41.760   3.587
45286W        W11827  16.778  24.751  11.475
45287W        W11828  20.071  40.331  12.353
45288W        W11829   1.609  39.984  11.942
45289W        W11830  10.371   8.142  13.575
45290W        W11831   3.868  24.609  12.219
45291W        W11832  12.274  14.390  10.640
45292W        W11833  33.110  23.132   3.906
45293W        W11834  20.897  23.649   1.186
45294W        W11835  31.997  22.284  13.452
45295W        W11836  33.960   7.248  13.965
45296W        W11837  12.637  20.598  13.317
45297W        W11838  27.511  10.168  13.931
45298W        W11839  24.209   3.515  14.029
45299W        W11840  44.559  23.324  13.159
45300W        W11841   5.872   4.249   0.972
45301W        W11842  25.763   5.520  11.136
45302W        W11843   3.977  12.817  11.930
45303W        W11844   6.768  20.643  13.495
45304W        W11845  35.028  27.436   2.005
45305W        W11846  26.589  14.338   0.745
45306W        W11847  42.510  36.888   2.963
45307W        W11848  15.040  21.166   0.395
45308W        W11849  30.568  17.922  14.878
45309W        W11850  30.664  27.464  12.175
45310W        W11851  19.902  42.212  14.549
45311W        W11852  12.200  21.984  10.426
45312W        W11853  30.614  26.084   3.856
45313W        W11854   0.600  35.189  11.375
45314W        W11855  23.608  42.835   0.795
45315W        W11856   3.385  34.038  13.342
45316W        W11857  44.490  25.979  11.508
45317W        W11858  17.174  16.252   2.656
45318W        W11859  31.561  41.878   1.719
45319W        W11860  20.265  17.782  14.234
45320W        W11861   3.938  21.955   3.323
45321W        W11862  15.587  10.752   3.598
45322W        W11863  13.035  25.594  12.604
45323W        W11864  10.877   9.175   2.692
45324W        W11865  18.629  26.525   2.723
45325W        W11866  34.086  29.393   2.833
45326W        W11867   2.046  28.612  14.672
45327W        W11868  40.818  27.057  12.988
45328W        W11869  27.027   7.282   4.539
45329W        W11870  12.178   2.468   1.311
45330W        W11871  22.660  18.638   3.609
45331W        W11872  17.128   2.556  14.912
45332W        W11873  26.501  32.941   0.579
45333W        W11874   8.460  21.685   1.921
45334W        W11875  18.764  16.309  10.743
45335W        W11876  16.566  12.547   2.415
45336W        W11877  39.406  24.429  13.384
45337W        W11878   5.841   2.234  13.522
45338W        W11879  42.100  36.752  13.078
45339W        W11880  37.496   0.340   2.270
45340W        W11881  11.209  12.365   1.869
45341W        W11882  38.290  12.085   2.638
45342W        W11883   7.422  43.405   3.982
45343W        W11884   1.025  26.195   1.227
45344W        W11885  22.005  16.106   4.544
45345W        W11886  34.590  14.600  13.334
45346W        W11887  35.205  25.552  12.495
45347W        W11888  41.156   5.916   2.984
45348W        W11889   3.209   0.390   3.721
45349W        W11890   8.164  29.210   4.111
45350W        W11891   7.978  27.534   3.589
45351W        W11892   7.746  36.970   0.389
45352W        W11893  21.081  44.551   1.287
45353W        W11894  44.430  37.172  14.294
45354W        W11895  25.945  24.960  12.004
45355W        W11896  24.553  36.023  11.831
45356W        W11897  13.712  39.144  11.123
45357W        W11898  14.170  44.808  12.119
45358W        W11899   5.784  28.940   2.120
45359W        W11900  38.776  44.406   1.491
45360W        W11901  34.575  38.618   2.080
45361W        W11902  27.938  40.806   4.573
45362W        W11903  21.701  14.741  13.863
45363W        W11904  24.987   1.783  11.653
45364W        W11905  10.255  43.854  10.311
45365W        W11906  19.530  12.879  12.766
45366W        W11907   4.670  39.465  13.752
45367W        W11908  38.004  25.227   3.842
45368W        W11909   8.191   6.079   4.078
45369W        W11910  41.213  21.433  12.262
45370W        W11911  22.099  29.065   0.812
45371W        W11912  18.054  17.484  13.745
45372W        W11913  14.652  10.333  10.106
45373W        W11914   2.377  23.945   2.221
45374W        W11915   8.819  29.155   4.966
45375W        W11916   1.475  44.557  14.807
45376W        W11917  40.553  25.342  13.438
45377W        W11918   7.071  17.034   1.804
45378W        W11919  36.436  12.085  12.369
45379W        W11920  32.660  32.619   3.267
45380W        W11921   0.725   6.271   4.088
45381W        W11922  40.153  15.333   2.823
45382W        W11923  22.218  22.403   2.785
45383W        W11924   9.172  17.474   0.928
45384W        W11925  40.775  27.956   2.377
45385W        W11926  22.926  15.865   0.280
45386W        W11927  33.098  31.113  10.824
45387W        W11928  14.844   1.517  12.611
45388W        W11929  40.519  12.682  10.742
45389W        W11930  25.622  30.630  13.995
45390W        W11931   9.271  11.646  12.110
45391W        W11932  43.881  29.084   2.076
45392W        W11933  14.229   6.642  12.077
45393W        W11934  37.764  42.293   1.565
45394W        W11935  24.506  39.314  13.336
45395W        W11936  20.869  35.785  10.199
45396W        W11937   5.180  37.493   2.303
45397W        W11938  25.555  28.180   1.310
45398W        W11939  38.309  23.010  14.572
45399W        W11940  10.296  25.656   2.765
45400W        W11941  27.393  32.491   2.458
45401W        W11942   9.797   9.360   1.737
45402W        W11943   9.265  11.351   4.502
45403W        W11944  39.388  16.639  10.870
45404W        W11945  32.714  26.642  11.228
45405W        W11946  42.822  29.368   4.112
45406W        W11947  17.652  31.849   3.767
45407W        W11948   9.528  12.302  13.886
45408W        W11949   0.328  39.426  12.102
45409W        W11950   4.400  32.545  12.026
45410W        W11951  39.914  34.021  11.951
45411W        W11952  21.681  13.866  10.873
45412W        W11953  17.542  26.907  13.976
45413W        W11954  31.104  23.156  14.384
45414W        W11955   5.849  25.879   1.276
45415W        W11956  21.711   0.055  12.103
45416W        W11957  18.244  32.168  13.321
45417W        W11958  15.776  11.251   0.868
45418W        W11959  23.453  21.134  13.139
45419W        W11960   2.783  39.965  14.387
45420W        W11961  33.555  32.169  12.465
45421W        W11962  34.063  41.788   2.159
45422W        W11963  22.043   5.441  14.837
45423W        W11964  25.158  12.054  14.925
45424W        W11965  37.192   7.352   4.705
45425W        W11966  36.466  39.441  11.164
45426W        W11967  28.943  41.386   1.363
45427W        W11968  15.165  43.064  11.014
45428W        W11969  28.643  12.213  12.395
45429W        W11970  24.194  40.002   4.448
45430W        W11971  31.390   1.042  11.746
45431W        W11972  24.588   5.736  11.387
45432W        W11973  39.629  24.742   3.216
45433W        W11974  35.885   9.692  11.298
45434W        W11975   5.637  23.195   3.124
45435W        W11976  41.493  30.047  11.145
45436W        W11977  33.191  10.587  10.264
45437W        W11978  42.539  39.887  10.545
45438W        W11979  34.042   6.824   0.320
45439W        W11980  20.679  28.470   1.743
45440W        W11981  18.167  26.609   1.625
45441W        W11982  18.672  16.831   1.965
45442W        W11983  13.140  33.185   1.440
45443W        W11984  27.641  26.672   4.852
45444W        W11985  25.450  38.310   0.480
45445W        W11986  28.153  14.008   4.973
45446W        W11987  23.470   3.422  10.276
45447W        W11988  34.186  29.900  10.760
45448W        W11989  36.315   1.928   2.707
45449W        W11990   2.256  16.668  12.526
45450W        W11991   5.756  31.355   1.363
45451W        W11992  35.671  28.468  12.009
45452W        W11993  11.869  24.464   0.472
45453W        W11994   4.194  21.244  14.301
45454W        W11995  29.594  17.633  14.971
45455W        W11996  38.128  38.927  13.383
45456W        W11997  23.473  34.460   1.725
45457W        W11998  40.789   2.901  14.043
45458W        W11999  32.016  41.020   0.284
45459W        W12000   0.185  15.656  12.575
45460W        W12001   3.500   0.371   1.632
45461W        W12002  28.499   2.796   2.760
45462W        W12003  23.478   4.466   2.730
45463W        W12004  29.483  33.460   4.996
45464W        W12005  26.744  13.594   2.692
45465W        W12006  31.705   9.234   1.863
45466W        W12007  28.227  33.832   0.825
45467W        W12008  24.549  32.041   1.600
45468W        W12009  30.613  18.067   0.400
45469W        W12010  20.701  31.876   3.527
45470W        W12011   3.626  25.174   1.082
45471W        W12012  11.648   6.341  11.177
45472W        W12013  21.182  31.757  11.955
45473W        W12014   7.476  29.045   0.027
45474W        W12015  34.552  32.574  10.660
45475W        W12016  42.604   9.317  13.944
45476W        W12017  16.598   5.325   0.752
45477W        W12018  22.075  18.584  12.346
45478W        W12019  25.030  44.098  11.026
45479W        W12020  15.804  39.865  13.120
45480W        W12021  28.445  17.538   0.342
45481W        W12022  18.374  17.265   4.041
45482W        W12023  32.688  40.405   4.496
45483W        W12024  33.635  43.110  10.626
45484W        W12025  15.530  42.439   3.666
45485W        W12026  17.261  15.135  12.884
45486W        W12027  21.956  19.817  11.926
45487W        W12028  16.331  30.047   2.849
45488W        W12029  10.325  44.325   4.184
45489W        W12030  10.958  18.249   1.121
45490W        W12031  14.394   6.582   0.361
45491W        W12032  28.820   1.255   1.632
45492W        W12033  11.909  26.899   0.023
45493W        W12034   4.863  40.877  14.002
45494W        W12035  16.202  32.887  13.230
45495W        W12036  44.019  22.129   1.176
45496W        W12037  14.346  37.530  11.822
45497W        W12038  32.340  41.444  12.496
45498W        W12039  35.431  38.433  14.756
45499W        W12040  44.920  19.612  14.490
45500W        W12041  21.625  44.614   3.853
45501W        W12042  13.812   3.329  13.025
45502W        W12043   0.243   2.349   0.722
45503W        W12044  43.357  24.772   5.076
45504W        W12045   9.344   3.381  11.589
45505W        W12046   0.396  23.103   2.640
45506W        W12047  24.690   3.953   1.279
45507W        W12048  15.713  13.571   0.118
45508W        W12049  20.251  39.117   0.751
45509W        W12050  35.496  33.711  13.292
45510W        W12051   4.411   8.156  14.466
45511W        W12052  29.775  30.215  11.656
45512W        W12053   3.714  25.980  12.840
45513W        W12054  27.891  12.754   3.014
45514W        W12055  13.950  31.526  13.965
45515W        W12056  33.925   9.348   2.157
45516W        W12057   4.414  36.741  11.732
45517W        W12058  23.139  28.136  13.289
45518W        W12059   7.237   2.936  14.138
45519W        W12060   3.584  35.795   2.425
45520W        W12061  22.587   2.889   2.807
45521W        W12062  19.648   6.339   0.282
45522W        W12063  11.780  11.543   1.334
45523W        W12064  30.462  28.548  11.086
45524W        W12065  19.548  32.112   2.503
45525W        W12066  13.746  18.648   0.843
45526W        W12067  16.308  31.375  11.200
45527W        W12068   5.959  44.120  11.497
45528W        W12069   0.759  12.396  11.144
45529W        W12070   4.358   6.461  12.899
45530W        W12071  12.680  37.331  13.693
45531W        W12072   6.717  27.595   0.931
45532W        W12073  39.273  38.505  12.624
45533W        W12074  17.773  44.041  14.005
45534W        W12075  35.526  32.138  14.966
45535W        W12076  36.884  10.753  13.572
45536W        W12077   7.226  24.032   3.675
45537W        W12078  13.744  37.037   4.059
45538W        W12079   2.565  25.378   9.916
45539W        W12080  29.227   8.006  11.223
45540W        W12081  40.869  17.127  12.637
45541W        W12082  17.223  28.411  13.667
45542W        W12083   4.309   5.910   1.854
45543W        W12084   1.768  40.620  13.824
45544W        W12085  29.590  37.746  12.509
45545W        W12086   8.329  44.972   3.269
45546W        W12087   7.043  43.801   1.940
45547W        W12088  33.571  35.693   1.136
45548W        W12089  18.481  31.983   2.725
45549W        W12090  37.889  13.776  11.771
45550W        W12091   9.235  12.853   1.467
45551W        W12092  36.035   3.153  12.796
45552W        W12093  38.993  16.804  11.152
45553W        W12094  22.535  29.168   0.066
45554W        W12095   4.353  43.805   9.985
45555W        W12096  23.051  39.050   0.474
45556W        W12097   3.963   3.834   2.211
45557W        W12098  23.061  20.187  12.938
45558W        W12099   2.121  33.011  13.859
45559W        W12100   3.972   3.455  11.709
45560W        W12101   4.275  44.315  12.497
45561W        W12102  22.568  41.789   0.509
45562W        W12103  15.854  23.443   2.907
45563W        W12104  20.222  42.475  13.877
45564W        W12105   8.940   1.712  11.178
45565W        W12106  22.538  42.626   0.991
45566W        W12107   4.416  26.977  13.101
45567W        W12108  31.144  38.366   2.385
45568W        W12109  17.074  32.231   1.781
45569W        W12110  43.958  31.114   4.552
45570W        W12111  43.162   0.213  13.391
45571W        W12112   1.561  43.800  11.148
45572W        W12113  32.132  41.353  12.022
45573W        W12114  41.873  34.348   2.787
45574W        W12115  11.094  40.500  10.706
45575W        W12116  24.604  42.131  11.544
45576W        W12117   9.543  22.181  13.485
45577W        W12118  20.738  19.247   4.592
45578W        W12119   4.652  11.412   4.047
45579W        W12120  23.887  29.280   4.416
45580W        W12121  25.114  42.993   4.064
45581W        W12122  17.085  20.559  14.649
45582W        W12123  41.767  16.565   3.815
45583W        W12124  20.036   7.525   0.008
45584W        W12125  36.765  26.191   2.683
45585W        W12126  29.235  27.183   3.207
45586W        W12127  20.915  36.502   2.014
45587W        W12128  20.106  33.139   0.474
45588W        W12129   2.730   4.827  13.894
45589W        W12130  18.758  13.926   3.077
45590W        W12131  40.075  42.502  11.599
45591W        W12132  25.868  20.133   1.278
45592W        W12133  28.340  41.974  11.239
45593W        W12134   0.410  13.302   3.299
45594W        W12135  27.540   7.297  12.291
45595W        W12136  31.794  41.578  12.885
45596W        W12137   3.379  23.210   3.654
45597W        W12138  22.866   7.996   3.674
45598W        W12139  16.076  27.364  11.507
45599W        W12140  10.334  29.687  11.632
45600W        W12141   6.169  32.528  11.854
45601W        W12142  44.332  25.890  13.528
45602W        W12143   0.779  37.662   3.238
45603W        W12144   9.192  37.646   0.860
45604W        W12145  40.423   3.649  11.290
45605W        W12146  35.099   9.353  11.118
45606W        W12147  24.012  20.358  10.894
45607W        W12148  28.520  15.662   3.612
45608W        W12149  39.873  43.989   1.839
45609W        W12150  28.895   1.394   4.381
45610W        W12151  14.871  37.585  14.970
45611W        W12152   4.642  36.615  11.281
45612W        W12153  22.978  41.907   0.256
45613W        W12154  29.180  22.319   2.698
45614W        W12155  20.288  31.571   0.409
45615W        W12156  44.011  31.169   2.815
45616W        W12157  31.079  33.634   4.987
45617W        W12158   2.397  32.424   4.145
45618W        W12159   8.261  16.152   3.343
45619W        W12160  27.996  24.387  13.507
45620W        W12161  34.030  40.942   1.503
45621W        W12162  21.598  35.013  10.988
45622W        W12163  37.398  27.281  11.180
45623W        W12164  18.246   4.749  11.104
45624W        W12165  33.560  36.051  12.080
45625W        W12166   4.785   5.849  12.617
45626W        W12167  39.883  18.722   4.706
45627W        W12168  17.730  33.555  14.266
45628W        W12169  19.998  44.891  10.748
45629W        W12170  42.358  38.915  13.029
45630W        W12171  28.481  22.674   4.406
45631W        W12172  14.572  28.637  10.289
45632W        W12173   3.696  29.566  13.627
45633W        W12174  20.131  28.298   1.855
45634W        W12175   9.306  22.389  13.918
45635W        W12176  10.946  20.732  11.566
45636W        W12177  39.268  20.022   0.975
45637W        W12178  36.994  11.168   2.398
45638W        W12179  13.755  43.877   1.957
45639W        W12180   0.332  10.963   4.139
45640W        W12181   6.276  33.330  11.565
45641W        W12182   5.089  35.027   2.530
45642W        W12183  30.579  12.840   0.885
45643W        W12184  20.095   0.428   3.606
45644W        W12185  24.708   8.287   1.432
45645W        W12186  11.162  38.003  12.361
45646W        W12187  32.915   8.219  14.852
45647W        W12188  31.117  18.710  12.852
45648W        W12189   2.719  30.069   1.337
45649W        W12190  34.978  29.662  10.535
45650W        W12191  17.772  31.039   0.081
45651W        W12192  39.453  20.535  13.293
45652W        W12193   0.225  35.282   1.927
45653W        W12194   3.454   8.481  12.765
45654W        W12195  44.311  44.763  13.797
45655W        W12196  26.229   5.305   0.327
45656W        W12197  43.171   5.688  13.711
45657W        W12198   5.593   3.205  14.963
45658W        W12199  42.486  28.581   2.874
45659W        W12200  10.424   9.208  14.322
45660W        W12201   9.437  30.505   3.679
45661W        W12202  17.110  32.445  14.067
45662W        W12203  41.022   5.707   0.486
45663W        W12204   2.287  36.148   4.614
45664W        W12205  13.062  19.109  10.624
45665W        W12206  26.307  11.792   3.259
45666W        W12207  16.665   0.202  12.769
45667W        W12208   0.258   1.843   4.153
45668W        W12209   9.814   8.200   1.962
45669W        W12210  22.428  35.660   1.716
45670W        W12211  17.275  25.025  13.621
45671W        W12212   1.232   3.353  13.979
45672W        W12213  40.712  21.646  12.968
45673W        W12214  27.119  19.856  14.598
45674W        W12215  42.591  30.057   1.277
45675W        W12216   5.875  12.807  11.522
45676W        W12217  13.881  16.656   3.665
45677W        W12218  17.612   3.484  11.260
45678W        W12219  44.432  44.761  10.483
45679W        W12220  14.736  29.673  12.011
45680W        W12221   2.204  32.283  11.416
45681W        W12222  26.495  42.753  11.152
45682W        W12223   3.345  36.817  12.901
45683W        W12224  40.261   1.247   2.835
45684W        W12225   1.784  18.277  12.656
45685W        W12226  26.282  22.273   2.290
45686W        W12227  17.395  35.377   2.286
45687W        W12228  26.303   3.385   3.256
45688W        W12229  24.760  28.919   4.288
45689W        W12230  23.200  26.037  12.940
45690W        W12231  17.096  31.532  12.491
45691W        W12232  35.657   8.372  13.417
45692W        W12233  25.750  20.688   0.462
45693W        W12234  43.429  27.165  10.684
45694W        W12235   3.365   0.702  13.875
45695W        W12236  34.326   1.344   2.811
45696W        W12237  20.128  26.158  10.572
45697W        W12238  13.839   8.516   3.701
45698W        W12239  11.618   9.253   1.642
45699W        W12240   5.679  34.848   4.656
45700W        W12241  23.030  40.416  11.538
45701W        W12242  31.626  27.499  12.075
45702W        W12243   3.572  33.285  10.797
45703W        W12244  24.787  19.350  11.157
45704W        W12245   5.736  32.478  11.489
45705W        W12246  25.938  41.912  13.394
45706W        W12247  15.149  15.500  13.804
45707W        W12248  20.118  34.367  11.115
45708W        W12249  24.531  31.904   3.840
45709W        W12250  44.457  37.561   0.332
45710W        W12251  31.987  33.499  10.167
45711W        W12252   0.251  37.050  12.529
45712W        W12253  16.746  33.919  12.145
45713W        W12254   8.700  43.485  11.560
45714W        W12255   3.307  35.411  13.130
45715W        W12256  33.981  35.762  14.428
45716W        W12257  28.341  40.371  13.395
45717W        W12258  23.686   1.668   2.965
45718W        W12259  23.006  38.525  11.339
45719W        W12260  34.619  44.091  12.478
45720W        W12261  28.930  37.866   3.169
45721W        W12262   8.373   7.743  13.519
45722W        W12263   5.822  15.315   2.691
45723W        W12264   2.313  12.338  11.823
45724W        W12265   7.935  26.911   1.853
45725W        W12266  12.552  15.611  12.334
45726W        W12267  40.077  29.159   2.117
45727W        W12268  30.740   8.903   4.955
45728W        W12269  23.482   5.660   3.607
45729W        W12270  10.414  21.182   2.312
45730W        W12271  26.214  17.302  13.899
45731W        W12272  17.399  12.751  11.129
45732W        W12273   5.454  23.014   0.141
45733W        W12274  13.107  23.150  14.855
45734W        W12275  19.964  13.188   4.523
45735W        W12276  22.165  20.991   0.776
45736W        W12277  16.924  33.309  13.527
45737W        W12278  40.945  17.528   1.246
45738W        W12279   1.423   2.748  13.885
45739W        W12280  41.933   9.233   0.693
45740W        W12281  44.525  19.284  11.304
45741W        W12282  35.887   7.851   0.593
45742W        W12283   7.654  33.377   3.092
45743W        W12284  27.897  16.259  11.737
45744W        W12285  19.625  13.715   3.484
45745W        W12286  17.248  27.038  13.027
45746W        W12287  40.919  11.492  13.842
45747W        W12288  31.078  10.163   3.160
45748W        W12289   9.314  14.716   1.873
45749W        W12290  25.104   5.841   4.892
45750W        W12291  26.194  14.048  13.119
45751W        W12292   8.376  41.364   4.085
45752W        W12293  41.034  34.398   4.383
45753W        W12294  23.226  41.632  11.937
45754W        W12295   0.744  33.848  13.524
45755W        W12296  29.846  22.491   4.596
45756W        W12297   4.020   0.179  12.549
45757W        W12298  38.501  37.120   3.140
45758W        W12299  30.061  36.845  14.744
45759W        W12300  26.898  31.230  11.654
45760W        W12301  35.126  24.011   4.830
45761W        W12302  26.084  40.852  12.941
45762W        W12303   2.164  19.749   2.830
45763W        W12304  16.522  17.653   2.754
45764W        W12305  19.983  11.247   4.551
45765W        W12306  34.274  11.269  14.351
45766W        W12307  20.624  12.794   4.176
45767W        W12308  14.413   6.775  10.686
45768W        W12309  40.072  43.737  10.388
45769W        W12310  20.005   0.930  13.176
45770W        W12311  34.821  21.431   2.724
45771W        W12312  33.284  44.656  11.026
45772W        W12313  15.640  44.483  12.028
45773W        W12314   6.556  41.802   2.481
45774W        W12315  23.147  25.220   2.648
45775W        W12316  16.690  38.443  10.426
45776W        W12317  28.400  10.713   0.728
45777W        W12318  24.515   2.380   4.217
45778W        W12319  16.792   9.001  10.488
45779W        W12320  17.158  15.276   2.728
45780W        W12321  29.325   9.151   4.130
45781W        W12322  25.943  36.791   4.650
45782W        W12323   9.809  11.532   2.590
45783W        W12324   8.777   9.444  12.495
45784W        W12325  37.854  44.713   4.259
45785W        W12326   2.371   1.234   5.410
45786W        W12327  11.904  30.113  13.542
45787W        W12328  24.217  26.199   2.083
45788W        W12329  36.441   7.375   3.359
45789W        W12330  34.673  36.084   3.299
45790W        W12331  17.541  29.694   0.378
45791W        W12332  24.663   2.431  11.485
45792W        W12333   7.133   5.810  12.712
45793W        W12334  40.721  30.430   0.406
45794W        W12335   4.293  42.102   0.656
45795W        W12336  42.755  39.474  10.818
45796W        W12337  35.971  33.552  14.489
45797W        W12338  26.950  30.419  14.157
45798W        W12339  18.820  28.019  14.875
45799W        W12340  39.655  18.042   0.548
45800W        W12341  23.605  35.104   4.957
45801W        W12342  20.217  17.269  13.416
45802W        W12343  17.749  32.190  10.212
45803W        W12344  19.270  11.368   1.017
45804W        W12345  33.406  25.533  12.464
45805W        W12346  38.636  40.377   0.963
45806W        W12347  33.601  31.418  11.533
45807W        W12348  23.316  17.533   4.517
45808W        W12349   4.692  25.706  14.942
45809W        W12350  10.540  14.091   0.945
45810W        W12351  13.180  32.578  14.080
45811W        W12352   3.584  12.274  12.666
45812W        W12353  36.951  16.097   0.402
45813W        W12354  31.708  29.376   4.346
45814W        W12355   0.563  41.334   0.950
45815W        W12356  33.635  38.876   3.682
45816W        W12357  38.848  29.207  13.492
45817W        W12358  41.152   5.299  11.596
45818W        W12359  23.164  35.606   2.264
45819W        W12360  20.363  18.274   1.321
45820W        W12361  22.402  12.385  10.229
45821W        W12362  13.203  38.323   1.040
45822W        W12363  39.837  37.803   2.835
45823W        W12364  13.335  32.568   3.218
45824W        W12365  40.490  13.277  14.806
45825W        W12366   8.284  42.370  12.649
45826W        W12367  44.717  16.260   1.890
45827W        W12368  41.796  32.873  11.199
45828W        W12369  39.533  43.087  12.655
45829W        W12370  30.988  44.424  13.938
45830W        W12371  36.401  31.358  13.543
45831W        W12372  37.757  38.966   3.606
45832W        W12373  39.998  16.494   4.937
45833W        W12374  12.070  29.457   0.266
45834W        W12375  11.360  20.108   1.896
45835W        W12376  11.563  25.183   1.747
45836W        W12377   6.685   1.979   3.949
45837W        W12378  37.179  31.021   3.644
45838W        W12379  30.047  22.618  10.690
45839W        W12380  43.729  26.591   5.061
45840W        W12381   4.829  10.646  14.088
45841W        W12382  28.416  33.990  11.574
45842W        W12383  21.823   0.259   1.868
45843W        W12384  21.268   5.348   0.764
45844W        W12385  25.718   7.938   0.700
45845W        W12386  14.148  39.116   1.081
45846W        W12387  12.266  18.843   0.624
45847W        W12388  28.851  29.302  11.185
45848W        W12389  31.012  13.789   4.200
45849W        W12390  13.699   4.753   4.097
45850W        W12391  40.944  26.597   2.438
45851W        W12392  20.010   4.816  12.987
45852W        W12393   1.157   2.592   3.821
45853W        W12394  19.538   4.942   3.195
45854W        W12395  17.916  44.548  11.287
45855W        W12396   6.301   3.380   1.279
45856W        W12397   6.023  37.544  10.966
45857W        W12398  40.627  10.132  13.351
45858W        W12399  33.453  33.627   2.326
45859W        W12400  43.640  36.296   4.993
45860W        W12401  21.161  30.747  13.105
45861W        W12402  40.169   1.430  11.077
45862W        W12403   2.991   9.189  13.890
45863W        W12404  41.991  35.458  12.995
45864W        W12405   9.268  10.894   2.290
45865W        W12406  41.065  11.102   5.336
45866W        W12407   1.424  24.072   2.265
45867W        W12408  37.411  20.371   2.938
45868W        W12409  41.852  36.423  13.406
45869W        W12410  28.026  22.141  10.675
45870W        W12411  31.115  21.997   1.408
45871W        W12412  33.483  27.229  10.503
45872W        W12413  40.339  31.349   3.196
45873W        W12414  24.321  17.523   4.435
45874W        W12415  23.728  24.257  12.017
45875W        W12416  30.465  35.855  11.227
45876W        W12417  37.306  18.035   1.505
45877W        W12418  15.112  32.881   3.179
45878W        W12419  42.468   3.684   0.602
45879W        W12420   0.559  15.156  11.478
45880W        W12421  17.566  16.319   4.507
45881W        W12422  40.010  29.598  13.434
45882W        W12423  26.493  41.475   1.824
45883W        W12424  13.647   6.237  13.317
45884W        W12425  10.843  40.447   3.849
45885W        W12426  15.592  33.548   2.146
45886W        W12427   8.625  31.515  13.520
45887W        W12428  22.192  33.500   4.904
45888W        W12429  43.346  30.694  12.253
45889W        W12430  30.575  23.561  12.952
45890W        W12431   6.832  40.785   0.866
45891W        W12432  19.146  16.594  11.660
45892W        W12433  24.321  43.803  10.737
45893W        W12434   0.319  28.973   2.080
45894W        W12435  25.568  41.552   1.863
45895W        W12436  23.275   1.787  11.995
45896W        W12437  44.996  18.158   1.705
45897W        W12438  22.584  25.379   2.062
45898W        W12439  30.489   4.655   2.652
45899W        W12440   4.854   8.443   3.087
45900W        W12441  33.207  26.635  11.317
45901W        W12442   5.449  30.449  14.909
45902W        W12443   5.514  34.999  12.504
45903W        W12444  24.489  30.379   3.601
45904W        W12445  11.180  18.693   2.427
45905W        W12446   2.525   8.831  13.507
45906W        W12447   4.003  40.040  13.533
45907W        W12448   8.601   3.892   3.646
45908W        W12449  33.549  42.662   2.703
45909W        W12450  13.312   8.773  13.966
45910W        W12451  16.244  34.823  13.982
45911W        W12452  35.581  18.159  11.537
45912W        W12453  14.639  26.436  14.376
45913W        W12454  30.271  43.677   4.224
45914W        W12455   2.932   3.765  13.612
45915W        W12456  34.483  26.141  14.166
45916W        W12457  36.077   8.086   4.489
45917W        W12458  37.408  23.526  13.743
45918W        W12459  35.594   6.841  14.414
45919W        W12460  11.124  31.607   3.689
45920W        W12461  23.454   6.832  13.353
45921W        W12462  16.828   6.217   2.430
45922W        W12463  30.700  17.801  13.044
45923W        W12464  39.568  19.317   0.219
45924W        W12465  39.386  25.094  10.861
45925W        W12466  36.644  21.322   3.354
45926W        W12467  14.255   2.877   3.696
45927W        W12468  32.125  43.759   4.836
45928W        W12469   2.978  20.455   0.448
45929W        W12470   5.512  14.520   2.819
45930W        W12471  13.455  10.130   9.873
45931W        W12472   7.524   3.749   5.072
45932W        W12473  13.675  16.421  14.499
45933W        W12474  40.096   5.725   1.403
45934W        W12475  42.743  35.886   0.239
45935W        W12476   6.858  33.639  14.969
45936W        W12477  15.112  33.475  12.048
45937W        W12478  10.128  14.715   1.288
45938W        W12479  34.599   9.019  12.845
45939W        W12480   6.760   8.639  12.431
45940W        W12481  40.167  22.114  12.441
45941W        W12482  26.497  12.670   3.145
45942W        W12483  14.115  29.766   0.356
45943W        W12484   8.262  13.637  14.061
45944W        W12485  27.306  18.717  10.795
45945W        W12486  22.611  30.982   0.741
45946W        W12487   4.387  31.505   3.128
45947W        W12488   7.206  16.613  12.794
45948W        W12489  28.038  41.408   0.490
45949W        W12490   5.656   4.729   4.150
45950W        W12491  16.889  24.214  14.962
45951W        W12492   3.866  27.203   3.272
45952W        W12493  30.160  40.031   2.944
45953W        W12494   0.296  17.537   4.845
45954W        W12495   5.946  15.084   0.877
45955W        W12496   0.672  21.464   3.272
45956W        W12497  34.286  17.853  12.927
45957W        W12498   5.233  41.840  10.289
45958W        W12499   2.867  13.761   2.219
45959W        W12500   0.918  20.532  13.596
45960W        W12501   2.954  11.287   4.345
45961W        W12502  11.509  37.951   1.955
45962W        W12503  38.904   2.445  10.757
45963W        W12504   2.526  16.188   2.600
45964W        W12505   8.441  32.933  13.403
45965W        W12506  38.374  18.635  11.149
45966W        W12507  40.458  28.174  13.465
45967W        W12508  40.765  34.586  11.643
45968W        W12509  20.486   2.553   0.488
45969W        W12510  15.007  21.758  11.936
45970W        W12511  21.439  15.551   4.945
45971W        W12512  13.339  33.242   0.947
45972W        W12513   1.336  11.876   4.712
45973W        W12514  19.282   0.997  13.337
45974W        W12515   6.666  26.538   4.078
45975W        W12516  35.772  12.147  11.909
45976W        W12517  42.662   6.419   4.707
45977W        W12518  33.650  13.173  12.111
45978W        W12519   8.815  22.602   2.277
45979W        W12520  23.705   5.922  10.207
45980W        W12521  40.289   9.328   2.939
45981W        W12522   9.630   7.110  14.579
45982W        W12523  18.518  23.300   4.875
45983W        W12524  42.932   8.294  13.355
45984W        W12525  17.257   8.228  10.754
45985W        W12526   4.800  14.621  14.033
45986W        W12527  24.057  38.865  14.897
45987W        W12528  43.187  39.944  12.370
45988W        W12529   6.233  15.898   4.521
45989W        W12530  37.429  20.011   3.361
45990W        W12531  21.422  42.725   2.275
45991W        W12532   0.527  40.009  14.813
45992W        W12533  26.893  39.216   3.688
45993W        W12534  29.892  31.895   0.261
45994W        W12535   1.894  37.065   4.719
45995W        W12536  26.887  16.902   3.589
45996W        W12537  27.995  15.254  13.750
45997W        W12538   7.742  44.668  12.273
45998W        W12539   1.953  16.708  12.935
45999W        W12540   9.757  38.354   3.597
46000W        W12541  43.377  28.086  11.688
46001W        W12542  28.652  37.440  10.701
46002W        W12543  35.703  24.604  13.899
46003W        W12544  24.169   4.950   3.807
46004W        W12545  44.983   4.678   0.221
46005W        W12546  38.523   6.714   1.576
46006W        W12547  32.548  17.842  14.480
46007W        W12548  38.532  10.870  14.448
46008W        W12549  26.163  43.407  11.650
46009W        W12550  31.927  29.840   3.181
46010W        W12551   6.842  18.500   1.951
46011W        W12552   4.374  25.771  12.481
46012W        W12553  28.493   1.287   1.241
46013W        W12554  39.145  11.059   1.700
46014W        W12555  30.706  30.218  12.992
46015W        W12556  43.256   6.230  13.185
46016W        W12557  27.169  22.189  13.978
46017W        W12558  18.197  16.806  14.474
46018W        W12559  38.407  28.046  10.581
46019W        W12560  32.130   9.603   3.083
46020W        W12561   8.330   7.661   1.201
46021W        W12562  14.330   1.841  13.815
46022W        W12563  21.169  39.785   4.288
46023W        W12564  44.450  19.717  13.349
46024W        W12565  20.159   2.253   2.419
46025W        W12566  24.118   0.746   0.388
46026W        W12567  36.830  29.639  12.987
46027W        W12568   1.962  21.010   9.963
46028W        W12569  30.264   5.269   3.294
46029W        W12570  39.472  12.209   3.276
46030W        W12571  35.084  38.020  13.533
46031W        W12572  20.702  39.701   2.609
46032W        W12573  43.041  39.526   3.281
46033W        W12574  23.569  38.986  10.834
46034W        W12575  13.655  27.404  12.433
46035W        W12576  33.875  17.063  11.163
46036W        W12577   2.068  30.222  12.802
46037W        W12578   9.753  18.133   2.026
46038W        W12579  19.014   4.186  11.580
46039W        W12580  31.221   3.578  13.398
46040W        W12581   0.678  23.223   1.507
46041W        W12582  21.739  43.995  10.418
46042W        W12583  18.635  15.369  12.534
46043W        W12584  15.542   6.028   1.991
46044W        W12585   0.111  36.667  11.485
46045W        W12586  40.147  10.119   4.800
46046W        W12587  37.961  30.874   1.365
46047W        W12588   6.320  43.735  12.880
46048W        W12589  37.366  34.276   3.788
46049W        W12590  26.761  20.499  12.443
46050W        W12591  31.635  21.310  13.152
46051W        W12592  28.914  34.003   2.742
46052W        W12593  17.487  38.765  11.966
46053W        W12594  21.824  22.497  12.568
46054W        W12595  21.088  26.350  11.273
46055W        W12596  30.062   2.220  13.396
46056W        W12597  44.296  37.970  10.480
46057W        W12598  42.663  37.272  11.498
46058W        W12599  20.531   4.705  10.700
46059W        W12600   2.647  15.143  12.958
46060W        W12601  21.677  31.004   2.602
46061W        W12602  24.739   8.903   3.134
46062W        W12603  22.288  35.181   3.644
46063W        W12604   1.564  39.673  14.007
46064W        W12605  17.353  36.640   0.254
46065W        W12606  13.646   1.754  12.985
46066W        W12607  40.306  17.089   4.167
46067W        W12608   0.383   9.388   1.302
46068W        W12609  40.897  29.225   2.760
46069W        W12610  38.976   7.223  14.371
46070W        W12611  43.811  23.015   3.816
46071W        W12612  33.167  16.162  13.838
46072W        W12613  15.668  22.517   4.481
46073W        W12614  23.135  14.576   4.622
46074W        W12615  32.422  29.407   0.385
46075W        W12616  11.673  32.886  12.884
46076W        W12617  24.536  44.675   4.176
46077W        W12618  20.461  28.260  12.061
46078W        W12619  31.419  18.619   0.823
46079W        W12620  13.589  38.321  12.674
46080W        W12621   0.244  18.495  11.206
46081W        W12622   0.823  39.282  10.882
46082W        W12623   6.679  23.189  11.638
46083W        W12624  32.748   2.199   2.241
46084W        W12625  35.815   1.709  12.416
46085W        W12626  31.847  18.163   4.155
46086W        W12627  35.790  16.247  11.731
46087W        W12628   0.604  39.028  14.808
46088W        W12629  19.464  25.825   3.554
46089W        W12630  18.786  18.644  12.636
46090W        W12631  14.542  43.124   4.428
46091W        W12632  18.509  15.672  14.207
46092W        W12633  38.885   1.262   1.241
46093W        W12634  13.322  17.801   0.271
46094W        W12635  21.250  40.827   3.649
46095W        W12636  28.533  39.075   2.351
46096W        W12637  15.291  37.811   2.271
46097W        W12638  33.345  11.070  11.564
46098W        W12639   2.207  33.273  11.142
46099W        W12640  20.574  18.303   0.846
46100W        W12641   2.252  29.065  12.640
46101W        W12642  14.113  16.573   4.531
46102W        W12643  37.559  10.382  11.494
46103W        W12644  11.708  42.527   1.868
46104W        W12645  38.933  18.601  11.887
46105W        W12646  17.433   9.178  11.249
46106W        W12647  40.492  43.356  14.466
46107W        W12648  37.136   4.335  12.197
46108W        W12649  12.092  38.852   0.711
46109W        W12650  17.126   9.247   2.143
46110W        W12651   5.855   5.174   4.990
46111W        W12652  32.682  33.429   1.661
46112W        W12653  35.966  30.991   3.164
46113W        W12654  29.124  13.806  12.029
46114W        W12655  37.873   2.305  14.032
46115W        W12656  31.195  11.925   0.301
46116W        W12657  40.942  40.771   3.632
46117W        W12658  22.214   0.342   2.458
46118W        W12659  34.053  22.581   4.872
46119W        W12660  32.591   8.078  11.525
46120W        W12661   5.650  23.158  11.357
46121W        W12662  13.265  20.612   3.696
46122W        W12663  25.969  18.655   1.304
46123W        W12664  34.028  24.502   1.323
46124W        W12665  38.054  11.260  10.680
46125W        W12666  40.558  36.385   0.089
46126W        W12667  11.718  37.006   4.009
46127W        W12668  22.044   0.814   2.696
46128W        W12669  39.495  32.947  14.491
46129W        W12670  16.068  31.516  11.627
46130W        W12671  43.682  15.022  10.636
46131W        W12672  11.417  39.646  14.937
46132W        W12673  36.064  12.998  12.396
46133W        W12674  15.881  18.207   3.772
46134W        W12675  43.300  22.747  12.124
46135W        W12676  29.458  44.453  10.114
46136W        W12677  16.104  29.019   0.774
46137W        W12678  13.282  36.276  13.462
46138W        W12679  40.131  41.324  10.675
46139W        W12680   5.384  34.663  13.923
46140W        W12681  40.271  24.883   3.816
46141W        W12682  25.654  11.507   0.158
46142W        W12683  33.859  35.853   3.653
46143W        W12684  32.547  25.690   0.432
46144W        W12685  33.019  30.462   2.365
46145W        W12686  38.491  43.040   1.691
46146W        W12687   5.209   7.337   2.726
46147W        W12688  34.989  32.286  10.568
46148W        W12689  26.937  16.517  12.494
46149W        W12690  42.757  32.416  14.950
46150W        W12691   3.761   9.758   4.612
46151W        W12692  42.953  43.328   1.262
46152W        W12693  13.656  15.092  11.556
46153W        W12694   8.216   3.294   1.072
46154W        W12695   5.462  12.663  13.127
46155W        W12696  42.075  27.441   3.588
46156W        W12697  37.829  28.069   3.755
46157W        W12698  16.830  32.500   0.030
46158W        W12699  27.014  39.396  11.630
46159W        W12700  41.899  34.625   4.059
46160W        W12701   4.217   4.349  11.980
46161W        W12702  41.992  26.611  13.392
46162W        W12703   6.312  30.686  13.369
46163W        W12704  15.124  10.354  14.898
46164W        W12705   2.321  17.178   1.272
46165W        W12706   2.746  29.373  12.004
46166W        W12707  14.680   3.238   4.492
46167W        W12708   8.149  18.253  14.106
46168W        W12709  39.055  13.095   9.897
46169W        W12710  41.995   9.785  14.952
46170W        W12711  27.434  18.450   1.257
46171W        W12712  40.850  30.604  14.904
46172W        W12713  15.843  13.667  10.793
46173W        W12714  42.368  17.292   5.003
46174W        W12715  39.562  42.309  11.604
46175W        W12716  33.927   7.769   3.928
46176W        W12717  13.807  23.149  12.016
46177W        W12718   0.952  29.114   3.020
46178W        W12719  26.646  24.462   0.211
46179W        W12720  24.199  14.827   2.977
46180W        W12721  17.779   4.279   2.736
46181W        W12722  37.371   1.734  13.508
46182W        W12723  20.389  26.299  10.996
46183W        W12724   5.822  30.559   2.862
46184W        W12725  40.974   0.405   4.239
46185W        W12726  20.162   1.929  14.937
46186W        W12727  36.701  33.377   2.700
46187W        W12728  14.493  37.372  14.061
46188W        W12729  11.631  32.375   1.355
46189W        W12730  38.916  10.616   4.622
46190W        W12731   8.874  28.000  14.183
46191W        W12732   7.818  11.548   3.597
46192W        W12733   0.968  22.287  12.908
46193W        W12734   4.379  26.438   3.599
46194W        W12735  33.136  24.518  10.787
46195W        W12736  31.832   1.329  13.589
46196W        W12737  18.579  14.815   0.278
46197W        W12738  40.945  21.214  11.856
46198W        W12739  40.323   1.658   4.045
46199W        W12740  39.479  11.783   3.648
46200W        W12741  17.106  20.294   4.141
46201W        W12742  18.229  10.300   4.380
46202W        W12743   6.682  42.847  12.999
46203W        W12744  11.785   0.068   0.766
46204W        W12745   8.684  14.739  12.359
46205W        W12746   0.999  21.251   1.813
46206W        W12747  37.607  30.018  14.457
46207W        W12748  25.167  28.037  11.591
46208W        W12749   7.769   6.877   1.834
46209W        W12750  21.901  38.697   1.823
46210W        W12751  14.110  29.176  13.356
46211W        W12752   3.238   5.918  12.156
46212W        W12753  35.542  24.259   0.302
46213W        W12754   4.008  30.548   2.354
46214W        W12755  43.958   1.104  12.336
46215W        W12756   1.437  35.922   2.866
46216W        W12757  13.249  36.846   3.267
46217W        W12758  11.591  31.942  12.072
46218W        W12759  36.765  43.519  12.357
46219W        W12760  31.525   7.627  14.093
46220W        W12761  44.077  23.035  11.284
46221W        W12762  38.576   4.440   1.395
46222W        W12763  19.253   2.967  13.025
46223W        W12764  17.120  26.845  14.305
46224W        W12765  28.926  44.873  13.989
46225W        W12766  33.214  20.699  10.820
46226W        W12767  16.030  24.062   1.857
46227W        W12768  22.780  43.969  12.825
46228W        W12769  18.314  15.338  12.123
46229W        W12770  12.526   1.474  13.823
46230W        W12771  44.224  39.982  14.009
46231W        W12772  43.813  20.394  11.176
46232W        W12773   2.474  44.171  14.867
46233W        W12774  14.738  10.403  12.604
46234W        W12775  32.347  31.663  11.216
46235W        W12776  35.422  27.152   0.954
46236W        W12777  14.755   4.604  14.136
46237W        W12778  32.285   3.812  13.092
46238W        W12779  38.292  25.688  11.117
46239W        W12780  27.194   0.563   1.862
46240W        W12781  36.967  17.729  11.528
46241W        W12782   9.086  22.177  12.285
46242W        W12783  24.105   7.427   3.157
46243W        W12784  21.547  24.926   1.449
46244W        W12785  22.297   3.085  12.434
46245W        W12786   8.162  16.835   0.822
46246W        W12787  43.754  36.136  12.163
46247W        W12788  28.095  31.470   0.727
46248W        W12789   9.929  40.536   2.206
46249W        W12790  40.512  38.633  11.211
46250W        W12791  12.093   4.314   3.347
46251W        W12792   8.896   8.483   1.482
46252W        W12793  44.011  31.950  11.124
46253W        W12794  10.761  30.189  11.110
46254W        W12795  21.120   2.025   0.749
46255W        W12796  32.952   3.433   1.011
46256W        W12797  23.624  32.893   1.329
46257W        W12798   2.293  42.804  11.869
46258W        W12799  31.890  13.143   2.799
46259W        W12800  44.976   1.989   3.747
46260W        W12801   2.094  26.067   4.982
46261W        W12802  32.675  10.180   0.295
46262W        W12803   8.940  25.431   1.099
46263W        W12804  10.237  40.331  10.797
46264W        W12805  11.707  40.039  14.737
46265W        W12806  33.918   7.877  13.050
46266W        W12807  25.037  40.736   0.841
46267W        W12808  42.737  31.664   4.605
46268W        W12809  11.257  21.016   1.542
46269W        W12810   3.294  16.051  13.534
46270W        W12811  32.055  20.468   3.252
46271W        W12812  39.369  26.016  13.007
46272W        W12813   4.723  12.996   5.055
46273W        W12814  32.081   8.581  11.818
46274W        W12815  25.575  38.403  11.841
46275W        W12816  41.277  39.415   1.521
46276W        W12817   8.261   9.904   3.231
46277W        W12818  35.773  37.876   0.238
46278W        W12819   1.201  44.000   5.020
46279W        W12820  44.176   3.672   4.146
46280W        W12821  44.420  33.228   2.771
46281W        W12822  37.368  34.920  13.990
46282W        W12823   1.891   3.262  14.334
46283W        W12824   3.758  29.079  14.877
46284W        W12825   6.933  28.609  12.939
46285W        W12826   7.865  32.631   2.664
46286W        W12827  29.634  23.100  11.670
46287W        W12828  23.059  20.493  11.904
46288W        W12829  37.143  14.558  12.458
46289W        W12830  24.110  16.558  11.905
46290W        W12831  35.378  14.730   1.443
46291W        W12832  26.459  19.964   4.052
46292W        W12833   3.888  30.895   5.486
46293W        W12834  37.366  27.484  13.109
46294W        W12835  44.366  35.477   0.782
46295W        W12836  36.953   0.517   4.305
46296W        W12837   8.451  44.044  13.799
46297W        W12838  44.756   2.479   1.859
46298W        W12839  42.093   8.323   3.831
46299W        W12840  21.021  14.233   2.789
46300W        W12841  43.921  35.972  11.199
46301W        W12842  11.137   9.897  13.272
46302W        W12843  29.103   0.281  10.667
46303W        W12844  43.830   1.967   1.894
46304W        W12845  22.245   4.457   1.151
46305W        W12846  25.493  19.853   2.026
46306W        W12847  18.800  18.131  12.098
46307W        W12848  14.705  11.178  11.197
46308W        W12849   5.657  38.194   1.363
46309W        W12850  40.868  31.995   1.280
46310W        W12851  41.904  17.035  11.183
46311W        W12852   5.691  18.783  14.850
46312W        W12853  39.104  28.969  13.869
46313W        W12854   5.117   4.893  12.616
46314W        W12855  28.906   2.894   0.005
46315W        W12856  44.060   4.288  10.971
46316W        W12857   1.823  20.447   1.766
46317W        W12858  20.771  29.053  11.653
46318W        W12859  34.431   3.278   0.462
46319W        W12860   1.903  14.790   0.323
46320W        W12861  38.333  34.346  12.561
46321W        W12862  40.906   7.359   1.838
46322W        W12863   4.211  44.285  13.030
46323W        W12864  30.823  22.262  14.426
46324W        W12865   9.199  37.940  10.642
46325W        W12866   2.948  23.464   2.785
46326W        W12867  16.731  14.097  13.496
46327W        W12868  14.034  44.594   5.117
46328W        W12869   9.928  44.201   0.998
46329W        W12870  42.057  25.020  13.894
46330W        W12871  13.231   4.358   0.741
46331W        W12872  37.716  11.974  11.880
46332W        W12873  15.905   7.819  11.556
46333W        W12874  40.004   3.805   3.943
46334W        W12875  29.006  31.112   0.256
46335W        W12876   2.555  12.205   3.750
46336W        W12877  22.897  12.916  14.807
46337W        W12878  38.657  40.112   2.209
46338W        W12879  15.188  14.673   4.979
46339W        W12880  15.818   3.000  12.274
46340W        W12881  16.070   9.143   4.309
46341W        W12882  27.484  17.155   2.738
46342W        W12883  22.595  13.807   0.268
46343W        W12884  41.599  29.891   4.525
46344W        W12885  42.419  39.134  12.134
46345W        W12886   1.895  41.427   1.375
46346W        W12887  24.133  29.118  14.049
46347W        W12888  17.859  13.181   2.813
46348W        W12889   8.372  41.946   1.974
46349W        W12890  39.135  32.071  12.100
46350W        W12891  32.074  25.689  14.238
46351W        W12892  43.880  10.419   0.896
46352W        W12893   2.410   9.820   1.257
46353W        W12894  37.096  25.964   3.565
46354W        W12895  24.443  25.633   3.226
46355W        W12896  18.560  21.240   2.161
46356W        W12897  15.236  39.412   1.701
46357W        W12898  31.647   2.993   1.935
46358W        W12899  19.091   7.734  11.882
46359W        W12900  43.906  24.501   4.154
46360W        W12901   4.716  10.402   2.728
46361W        W12902  33.077  11.208   3.215
46362W        W12903  37.995  41.092  11.124
46363W        W12904   7.739  10.798  13.195
46364W        W12905  26.051  42.227   0.911
46365W        W12906  43.063  39.862  10.583
46366W        W12907   5.492  44.838  13.963
46367W        W12908  41.894  32.035  11.650
46368W        W12909  37.006  40.686   4.180
46369W        W12910   7.359  34.965   0.530
46370W        W12911  44.657  12.236  13.969
46371W        W12912  44.987   9.078   3.250
46372W        W12913   0.430  41.518  10.756
46373W        W12914  34.156   8.333   3.901
46374W        W12915  31.351  24.397  13.538
46375W        W12916  12.283  31.756  14.302
46376W        W12917   0.414  17.525   3.876
46377W        W12918  25.252   9.045  11.171
46378W        W12919  13.136  23.647  12.524
46379W        W12920  35.872  24.497  14.387
46380W        W12921  15.227   3.467   4.457
46381W        W12922  30.440  39.496   1.031
46382W        W12923  29.123  11.589   1.698
46383W        W12924   8.906  18.689  13.803
46384W        W12925   7.105  17.734   3.675
46385W        W12926  21.112  37.313  12.046
46386W        W12927  13.601  30.134   4.138
46387W        W12928   8.430   3.014   3.937
46388W        W12929  38.394  23.245  10.826
46389W        W12930  13.183  41.494  14.603
46390W        W12931   1.534  26.265   1.334
46391W        W12932   7.188  12.621  14.868
46392W        W12933  27.641   8.786   4.532
46393W        W12934  35.013  31.049   0.097
46394W        W12935  36.561   5.231   1.807
46395W        W12936  24.963   7.814  12.018
46396W        W12937  17.356  34.163  11.160
46397W        W12938   6.886  10.731   0.017
46398W        W12939  27.581   9.416   0.332
46399W        W12940   6.535  24.504  11.963
46400W        W12941  38.623  42.555  14.994
46401W        W12942  11.179   8.246  14.941
46402W        W12943   1.451  38.626  11.181
46403W        W12944  22.211  39.875   2.575
46404W        W12945  17.021  35.457  10.724
46405W        W12946  17.949  36.779  12.395
46406W        W12947   8.694  36.493   2.255
46407W        W12948   4.800   9.168   4.542
46408W        W12949  12.969  44.813  14.869
46409W        W12950  44.981  15.716   4.520
46410W        W12951  13.096  31.875  12.564
46411W        W12952  37.511   8.719  10.636
46412W        W12953  33.899   5.895   3.085
46413W        W12954   0.881  15.077   0.357
46414W        W12955  20.966  10.927   3.718
46415W        W12956  12.676  30.556   3.734
46416W        W12957  11.317  23.694  14.864
46417W        W12958  23.072   3.371  10.641
46418W        W12959   6.282  19.356  11.571
46419W        W12960  17.010  24.781  10.141
46420W        W12961   2.372  17.104  11.982
46421W        W12962   0.728  25.386   4.770
46422W        W12963  43.443  22.753   0.356
46423W        W12964  18.123   3.161   2.327
46424W        W12965  34.870  36.008  13.465
46425W        W12966  11.578  35.342   1.468
46426W        W12967  22.018   0.921   4.392
46427W        W12968  37.492  39.561  12.886
46428W        W12969   5.997   3.038   4.982
46429W        W12970   6.624  20.968   1.329
46430W        W12971  44.794  37.369  13.496
46431W        W12972  33.543  16.227   0.143
46432W        W12973   9.824  19.725  11.964
46433W        W12974  22.774   4.357   3.152
46434W        W12975  13.742  22.587   1.515
46435W        W12976   5.370  30.617  10.112
46436W        W12977  22.832  27.705   3.514
46437W        W12978  21.459  40.368   3.544
46438W        W12979   6.897  26.098   1.972
46439W        W12980   8.686  25.201  14.192
46440W        W12981  39.809  35.088   4.094
46441W        W12982   0.948  19.063   2.849
46442W        W12983  28.958  37.804  11.920
46443W        W12984   3.331  35.506  14.922
46444W        W12985   9.400  20.284   2.423
46445W        W12986   5.719  14.348  13.460
46446W        W12987  14.803  38.892   1.836
46447W        W12988  23.848  17.183  12.613
46448W        W12989  42.009  43.868   0.438
46449W        W12990  22.116   3.053   2.658
46450W        W12991  37.117  22.156  10.208
46451W        W12992   2.285  16.464   3.345
46452W        W12993  20.841  11.275  11.177
46453W        W12994  26.484   2.061  11.587
46454W        W12995  20.699  37.516  11.816
46455W        W12996  22.117  31.871   1.310
46456W        W12997   6.513   0.803  10.598
46457W        W12998   0.407  14.372   1.892
46458W        W12999  27.941  14.775   3.334
46459W        W13000  19.717  44.787   3.120
46460W        W13001   3.434  36.484  10.671
46461W        W13002   7.456  25.056   4.725
46462W        W13003  40.702  22.247   3.223
46463W        W13004  18.074   3.003  11.577
46464W        W13005   0.038  37.849   3.786
46465W        W13006  13.687  27.368   3.017
46466W        W13007  27.624  13.922  13.898
46467W        W13008  13.772  33.327  14.010
46468W        W13009   1.883  19.555   1.212
46469W        W13010  32.557  41.085  11.929
46470W        W13011  31.392   9.280  12.147
46471W        W13012  19.509  31.618  11.140
46472W        W13013  11.131  24.725  12.052
46473W        W13014  38.642  43.583   1.469
46474W        W13015  11.640   7.422  13.373
46475W        W13016  40.571   9.230   3.793
46476W        W13017  18.208  11.954   4.709
46477W        W13018  28.077  40.497   4.130
46478W        W13019  15.788   9.164   1.312
46479W        W13020  34.740   3.537  13.922
46480W        W13021  23.294  24.474  11.063
46481W        W13022  39.032  26.657  13.414
46482W        W13023   6.472   4.433  11.754
46483W        W13024  42.998  30.220  11.028
46484W        W13025  18.269  17.752  12.518
46485W        W13026   1.833  17.610   2.287
46486W        W13027  31.127  15.748  10.726
46487W        W13028  13.317  41.764   0.642
46488W        W13029  15.068  24.383   3.377
46489W        W13030  37.500  39.372   1.311
46490W        W13031  39.381   7.721   0.886
46491W        W13032  13.429  37.136  13.891
46492W        W13033  42.333  34.158  13.447
46493W        W13034  15.614  39.744  12.422
46494W        W13035  20.643   6.473   4.958
46495W        W13036  19.742  26.766  12.121
46496W        W13037  38.732   6.709  12.951
46497W        W13038  28.139  41.874   4.219
46498W        W13039  31.737  36.995   1.477
46499W        W13040  40.547   8.745   2.438
46500W        W13041  12.446  11.061   3.873
46501W        W13042  17.217  29.189   3.277
46502W        W13043  31.075  12.293  13.354
46503W        W13044   9.282  13.679  14.514
46504W        W13045  25.708   5.234  14.337
46505W        W13046  41.242  17.447   5.531
46506W        W13047   8.513   5.754   2.299
46507W        W13048  40.052  26.948  11.666
46508W        W13049  40.007  17.831  10.701
46509W        W13050   5.312  33.194   2.695
46510W        W13051  17.460  41.534   3.624
46511W        W13052  18.536   9.444   0.824
46512W        W13053  24.933   2.418  13.479
46513W        W13054  16.385   8.781  10.702
46514W        W13055  38.985  40.713  11.938
46515W        W13056  34.398  37.363   2.702
46516W        W13057  35.155  12.426  13.852
46517W        W13058  28.616  23.576   0.348
46518W        W13059  35.311   1.333  10.627
46519W        W13060  41.359  11.723  10.386
46520W        W13061  26.001   5.060  12.127
46521W        W13062  33.086  31.143  13.326
46522W        W13063  12.107  26.591  11.573
46523W        W13064  12.719  23.902   0.797
46524W        W13065  15.062  33.895  12.962
46525W        W13066  43.264   5.709  11.883
46526W        W13067  16.179  15.595  11.163
46527W        W13068  16.219   9.125   2.259
46528W        W13069   5.644   6.137  11.046
46529W        W13070  41.587  43.862   0.077
46530W        W13071  34.520  31.771   1.419
46531W        W13072  13.132  37.800  11.843
46532W        W13073  13.111  14.326   0.748
46533W        W13074  24.505   1.650  14.200
46534W        W13075  34.305   1.960   0.408
46535W        W13076  31.447  14.064   4.164
46536W        W13077   6.251  19.941  13.790
46537W        W13078  34.021  31.439   0.833
46538W        W13079  15.600  20.849   1.170
46539W        W13080  44.556  25.149   2.196
46540W        W13081  18.358   3.941   1.807
46541W        W13082  34.181  39.396   2.183
46542W        W13083  30.929  37.413  12.128
46543W        W13084  43.293   6.828   3.698
46544W        W13085  24.053  17.130  11.596
46545W        W13086  28.468  14.793  14.448
46546W        W13087  36.907  42.437   0.314
46547W        W13088  42.084  29.458  11.708
46548W        W13089  11.375  38.272  14.320
46549W        W13090   6.410  41.564   0.710
46550W        W13091  40.847   1.987   3.159
46551W        W13092   4.292  14.732   0.816
46552W        W13093  27.340   9.237   1.303
46553W        W13094   0.608  17.332  11.781
46554W        W13095  25.601   5.193   5.393
46555W        W13096  23.711  38.500  14.961
46556W        W13097  29.406   7.240  14.493
46557W        W13098  17.932  26.291  11.148
46558W        W13099  44.448  25.091   2.712
46559W        W13100  44.995  26.497   1.750
46560W        W13101  24.030  29.363   2.244
46561W        W13102  18.094  23.963  11.745
46562W        W13103   8.251  33.897   3.484
46563W        W13104  31.983  29.317   3.027
46564W        W13105  21.363  19.713   0.466
46565W        W13106  21.131  21.771   0.277
46566W        W13107   7.016  29.457   3.547
46567W        W13108  19.065  44.365  12.781
46568W        W13109  43.350   9.122  11.301
46569W        W13110  32.629  10.242   1.687
46570W        W13111  39.484  26.887  11.894
46571W        W13112  29.943  31.168  11.607
46572W        W13113  10.787  10.933   1.010
46573W        W13114   7.879  20.531   1.729
46574W        W13115  32.760  31.829   1.007
46575W        W13116  23.190   5.660   0.830
46576W        W13117  27.168  11.277  14.615
46577W        W13118  29.728   7.722  12.031
46578W        W13119  22.384  15.049   2.983
46579W        W13120  44.463  35.881  14.937
46580W        W13121  14.151  36.803   1.721
46581W        W13122   8.431  44.558  10.535
46582W        W13123  15.034  33.051  10.775
46583W        W13124  30.235   1.685   0.410
46584W        W13125   1.094  12.268   3.408
46585W        W13126  20.688  16.810  11.363
46586W        W13127  21.334   7.215   3.148
46587W        W13128  37.950   2.267  12.973
46588W        W13129   4.185   2.448  14.363
46589W        W13130  24.566   6.608   0.877
46590W        W13131  13.142  25.730  11.503
46591W        W13132  10.757   3.229   3.865
46592W        W13133  28.906   7.211   1.158
46593W        W13134   4.342   2.676   3.170
46594W        W13135  14.735  24.726   1.640
46595W        W13136   0.475  29.257  14.474
46596W        W13137  20.662  38.959  14.772
46597W        W13138  29.380  11.339  14.922
46598W        W13139  25.397  24.680  12.060
46599W        W13140   3.048   5.450  12.349
46600W        W13141   1.953  19.147   0.404
46601W        W13142  14.039  23.777   1.014
46602W        W13143  44.254  26.441  12.286
46603W        W13144  12.562  26.854   2.812
46604W        W13145  28.754   0.280   1.032
46605W        W13146  42.973  43.874  11.235
46606W        W13147  20.169  11.926   4.043
46607W        W13148  11.843  15.566  11.131
46608W        W13149  42.109  31.736  13.448
46609W        W13150  23.648  41.420  12.395
46610W        W13151   2.841  36.355   3.353
46611W        W13152  31.127  22.088  13.314
46612W        W13153   0.789  44.863   1.817
46613W        W13154   2.663  41.462   4.247
46614W        W13155  42.774  21.079  14.583
46615W        W13156   3.399  20.636  11.650
46616W        W13157  20.174  27.168   4.508
46617W        W13158  34.448  35.459   1.777
46618W        W13159   6.319  30.848  10.884
46619W        W13160   8.389  21.260   0.337
46620W        W13161  38.887  19.098   3.406
46621W        W13162   4.686  17.521  11.243
46622W        W13163  11.015   2.483   1.460
46623W        W13164  15.052  10.781   3.617
46624W        W13165  28.972   5.166  12.938
46625W        W13166  20.225  39.247  12.431
46626W        W13167  19.672  16.801  14.968
46627W        W13168  24.569  42.870   2.349
46628W        W13169  43.766   7.568  10.877
46629W        W13170  10.755  30.952   0.680
46630W        W13171  13.211  24.000   0.276
46631W        W13172   0.303  17.786   1.290
46632W        W13173  18.240  22.961   4.057
46633W        W13174   7.896  36.043  11.300
46634W        W13175   0.052  42.098   0.308
46635W        W13176   5.065  30.523  10.555
46636W        W13177  41.427  10.398   4.768
46637W        W13178  31.827  39.819  10.154
46638W        W13179  16.882  36.460   0.098
46639W        W13180  25.884   5.917  12.584
46640W        W13181  14.169  32.614  14.925
46641W        W13182  34.181  13.131   2.094
46642W        W13183  39.582  37.252  13.914
46643W        W13184  29.075  22.374   0.218
46644W        W13185  18.017  21.554   3.629
46645W        W13186  11.759  33.853  11.094
46646W        W13187  36.876  41.603  11.088
46647W        W13188  42.147  18.665   0.478
46648W        W13189  10.291  15.686  11.950
46649W        W13190   9.123  13.628  12.404
46650W        W13191  29.736  38.855  12.139
46651W        W13192  38.349  24.657   4.338
46652W        W13193   7.919  25.874  14.855
46653W        W13194   2.955  40.911  13.601
46654W        W13195  23.514  10.386  14.153
46655W        W13196  27.092  27.437   4.944
46656W        W13197   5.495  38.821  14.824
46657W        W13198  26.379  31.345  10.971
46658W        W13199  27.061  39.820   2.782
46659W        W13200  40.009  32.436   4.517
46660W        W13201  10.868  15.371   0.620
46661W        W13202  33.077  42.929   2.668
46662W        W13203  26.681  22.965  14.806
46663W        W13204  15.998  27.218   0.698
46664W        W13205   0.492  19.930  11.059
46665W        W13206  19.006  10.452   0.965
46666W        W13207   2.165   4.551   4.217
46667W        W13208  33.511  18.501   2.738
46668W        W13209  14.049   1.021   1.205
46669W        W13210  13.073  31.078  12.410
46670W        W13211   5.269  42.087  10.759
46671W        W13212  43.225  18.684  14.436
46672W        W13213  33.494  11.279   2.076
46673W        W13214  40.852   7.917  12.875
46674W        W13215   2.009   7.197   4.589
46675W        W13216  28.168  21.594  14.848
46676W        W13217  23.989  42.815   1.464
46677W        W13218  24.326  39.932   2.521
46678W        W13219  11.002  43.771  13.016
46679W        W13220  11.943  21.046   4.094
46680W        W13221   3.886  29.710  12.194
46681W        W13222  11.174  35.499  12.336
46682W        W13223  34.095  37.407   0.004
46683W        W13224  29.993  21.564  13.249
46684W        W13225  21.261  24.272   0.512
46685W        W13226  35.196   2.368  12.493
46686W        W13227  16.232   0.500  10.586
46687W        W13228  24.144  36.741  12.055
46688W        W13229  38.839  10.188  13.021
46689W        W13230   3.896  34.837   1.853
46690W        W13231  12.873  40.330   0.451
46691W        W13232  32.821  13.822   4.503
46692W        W13233  32.021  27.052  13.555
46693W        W13234  33.321  20.833   4.112
46694W        W13235  28.230   4.239  11.378
46695W        W13236  32.457  35.816  11.171
46696W        W13237  20.162   6.885   4.090
46697W        W13238   3.700  33.057  12.495
46698W        W13239   1.425   7.669   1.804
46699W        W13240  19.950  40.799   3.709
46700W        W13241  18.427  28.607  12.759
46701W        W13242   6.275   5.705  10.567
46702W        W13243   6.321  18.606  10.741
46703W        W13244  23.189   2.276   0.515
46704W        W13245  29.161  14.712  11.627
46705W        W13246   2.498  30.617  14.892
46706W        W13247   6.144  23.066   4.021
46707W        W13248  26.243   2.313   1.512
46708W        W13249  43.988  17.060  14.948
46709W        W13250  17.181  38.009   1.293
46710W        W13251  40.863  44.185   1.336
46711W        W13252  20.549  20.233   4.698
46712W        W13253  12.708  20.569   1.386
46713W        W13254  12.888  41.529  12.272
46714W        W13255   5.161   1.231   9.813
46715W        W13256  10.404  24.482  12.561
46716W        W13257  26.515   5.255   1.502
46717W        W13258  28.954  18.695  13.485
46718W        W13259  37.305  40.385  13.607
46719W        W13260  11.379  41.695  12.990
46720W        W13261  32.771  26.928  13.989
46721W        W13262  28.688  10.139  10.707
46722W        W13263  37.466  11.796   2.585
46723W        W13264  12.871   1.352  13.436
46724W        W13265  37.278  11.143   3.793
46725W        W13266  43.537  23.607  12.319
46726W        W13267  15.175   7.844   4.217
46727W        W13268  30.660  38.945   4.067
46728W        W13269  21.013  19.700   0.857
46729W        W13270  10.702  30.427   0.756
46730W        W13271  18.096   4.353  14.789
46731W        W13272  30.495  30.670  14.068
46732W        W13273  27.174   4.895   2.808
46733W        W13274  21.124  22.097   2.656
46734W        W13275  40.265  37.795  11.671
46735W        W13276  13.618  17.799  13.798
46736W        W13277  29.305  30.550   4.569
46737W        W13278  12.819  22.710  11.509
46738W        W13279  39.089   3.694  10.457
46739W        W13280  17.863  39.546   1.889
46740W        W13281  36.861  42.921   4.748
46741W        W13282  44.482  31.314  13.443
46742W        W13283  23.740   3.311  14.023
46743W        W13284   1.836   1.903   4.952
46744W        W13285  31.403  36.908  11.232
46745W        W13286  44.992   2.384   4.197
46746W        W13287   5.101  31.110   2.317
46747W        W13288  36.393   9.222  11.817
46748W        W13289  44.553   3.486  12.912
46749W        W13290  44.014  41.526   3.297
46750W        W13291  10.702  26.471  14.438
46751W        W13292  44.245  12.359   4.183
46752W        W13293  20.247  14.143   2.290
46753W        W13294   6.456  30.943  14.471
46754W        W13295  30.511  27.452  13.567
46755W        W13296  19.270   4.849  11.140
46756W        W13297   1.809  24.598   0.892
46757W        W13298  42.466  27.480  11.613
46758W        W13299  20.567   2.105  11.608
46759W        W13300  18.172   2.788  13.821
46760W        W13301  40.501  23.662   0.913
46761W        W13302  18.020  38.844  12.038
46762W        W13303  42.171  23.441   3.341
46763W        W13304  15.203  42.851   1.175
46764W        W13305  41.767  19.296   0.670
46765W        W13306  20.103  18.804  13.074
46766W        W13307  29.870  13.219  14.961
46767W        W13308  22.074  35.495   4.672
46768W        W13309  37.277  36.745  13.884
46769W        W13310   8.395  28.045  12.402
46770W        W13311   4.036  36.189  12.012
46771W        W13312   2.303  35.821   1.786
46772W        W13313  36.984  30.097  11.228
46773W        W13314   5.667  41.592  10.200
46774W        W13315  12.080  30.306   3.575
46775W        W13316  17.908   1.474   0.885
46776W        W13317  19.735  42.313  14.080
46777W        W13318   1.102  21.561   4.691
46778W        W13319  16.371  12.742   3.711
46779W        W13320   7.675  30.832  13.919
46780W        W13321  32.374  41.547   2.065
46781W        W13322  44.603  38.011   0.853
46782W        W13323  24.112  21.631  11.573
46783W        W13324  13.657  33.390   1.984
46784W        W13325  43.819  33.848   3.900
46785W        W13326  33.039  36.028  11.937
46786W        W13327  42.587  27.904   4.706
46787W        W13328  35.104  17.647   4.953
46788W        W13329   3.377  23.505  10.811
46789W        W13330  18.670  36.382  14.021
46790W        W13331  37.451  21.787   3.084
46791W        W13332  26.596  42.446  14.978
46792W        W13333  44.960  44.535  12.441
46793W        W13334   5.848  25.035   0.824
46794W        W13335  16.151  40.711  10.985
46795W        W13336  23.737  20.132   2.446
46796W        W13337  25.735  35.507  13.937
46797W        W13338  25.642  40.954  10.803
46798W        W13339  40.410  35.156  12.972
46799W        W13340  34.180  10.684  14.033
46800W        W13341  33.497  14.255   1.857
46801W        W13342   3.481  13.675  13.036
46802W        W13343   9.107   6.243   4.249
46803W        W13344  32.142  17.003  13.502
46804W        W13345  42.558  42.940   2.284
46805W        W13346  37.986   7.924  14.778
46806W        W13347  17.775  22.745  12.938
46807W        W13348   3.345  13.425   0.349
46808W        W13349  43.264  11.697  12.409
46809W        W13350  19.046  20.564   3.719
46810W        W13351  28.910  32.628  11.871
46811W        W13352  33.439  28.519   4.470
46812W        W13353  37.068   3.083   5.019
46813W        W13354   7.293  18.839  11.692
46814W        W13355  40.595  14.784  11.918
46815W        W13356  34.015  18.056  12.047
46816W        W13357  16.089  10.838  11.199
46817W        W13358  43.516   0.865  12.127
46818W        W13359  15.105   0.703   2.984
46819W        W13360   9.418   9.987  13.051
46820W        W13361  14.231  38.533  13.443
46821W        W13362  10.332  41.198  11.110
46822W        W13363  35.294  15.128   0.511
46823W        W13364  25.572  33.496   4.180
46824W        W13365  33.541  16.203   1.688
46825W        W13366   8.517  43.893  12.911
46826W        W13367  42.574   4.178   0.759
46827W        W13368  28.976  10.419   4.230
46828W        W13369   6.293  38.326   2.222
46829W        W13370  39.496  27.555  14.855
46830W        W13371  34.715  25.518  12.655
46831W        W13372   1.361  16.382   2.390
46832W        W13373  39.980  23.900  14.165
46833W        W13374   9.848  43.839  12.374
46834W        W13375  31.365  30.092  11.226
46835W        W13376  26.101  43.741  14.358
46836W        W13377  11.242  11.436  11.893
46837W        W13378   6.076  22.117  13.430
46838W        W13379  16.614  40.140   4.250
46839W        W13380  27.146  13.300  14.542
46840W        W13381  14.829   8.161   0.564
46841W        W13382  13.132  21.715   3.999
46842W        W13383  37.652  24.314   4.909
46843W        W13384   4.285  30.893  13.837
46844W        W13385  21.531   3.672   0.423
46845W        W13386  30.966  14.717   0.180
46846W        W13387  13.707  28.982   0.035
46847W        W13388  21.980  16.692  13.838
46848W        W13389  14.863   4.920  10.283
46849W        W13390  36.853   1.566   3.185
46850W        W13391  43.314  41.262   0.925
46851W        W13392  38.441  31.208   2.683
46852W        W13393  21.989  37.632  13.140
46853W        W13394  43.488  18.770  10.714
46854W        W13395  10.854   4.722  11.447
46855W        W13396  33.356  43.311  14.011
46856W        W13397  29.906   9.171  13.522
46857W        W13398   5.348  17.355   2.317
46858W        W13399   7.153   5.108   3.176
46859W        W13400  20.407  31.850   0.877
46860W        W13401   9.166  21.210   1.509
46861W        W13402  38.926  10.151   3.571
46862W        W13403  44.770  41.889  13.989
46863W        W13404  42.514  12.387   1.204
46864W        W13405  16.812  38.943  12.428
46865W        W13406   3.230  43.747   0.865
46866W        W13407  23.544   6.399  14.784
46867W        W13408  15.242  42.899  11.936
46868W        W13409  37.510  29.486   3.713
46869W        W13410  14.800   8.431   4.156
46870W        W13411  37.416  44.411  10.917
46871W        W13412  32.943  21.083  10.584
46872W        W13413  13.149  18.187  12.000
46873W        W13414  11.277  39.516   1.731
46874W        W13415  14.658  11.568   3.212
46875W        W13416   3.675  21.977   2.863
46876W        W13417  44.737  33.922  13.560
46877W        W13418   7.132  24.264  14.766
46878W        W13419  39.218  27.701  13.778
46879W        W13420   9.605  32.050   4.139
46880W        W13421  42.356  21.681   0.330
46881W        W13422  11.835  37.938  14.513
46882W        W13423  35.041  29.361  10.939
46883W        W13424  37.302  11.111  14.809
46884W        W13425   6.682  11.765   2.224
46885W        W13426  32.685  33.459  12.952
46886W        W13427  22.042  10.058   3.586
46887W        W13428  40.545  22.359   1.313
46888W        W13429  26.501  18.729   1.365
46889W        W13430  30.080   3.761  10.635
46890W        W13431  11.064  22.948   0.915
46891W        W13432  10.788  27.001   2.690
46892W        W13433   4.287  22.254   4.273
46893W        W13434  25.368  42.905   3.598
46894W        W13435  11.479  41.241  11.940
46895W        W13436   7.200  23.139  11.553
46896W        W13437  37.726  22.326   2.169
46897W        W13438  13.243  22.980  11.618
46898W        W13439  42.738  18.311  11.709
46899W        W13440  36.122  38.363  12.338
46900W        W13441   7.793  36.121  12.394
46901W        W13442  29.664  33.383  13.736
46902W        W13443   8.646   5.632   3.126
46903W        W13444  19.758  40.044  13.105
46904W        W13445   9.429  25.235  13.490
46905W        W13446  12.824   6.691   4.607
46906W        W13447  36.123  21.552  13.389
46907W        W13448   7.293   3.781  14.176
46908W        W13449  37.297  28.865   1.335
46909W        W13450  33.408  36.896   3.671
46910W        W13451  12.006  25.692   1.098
46911W        W13452  30.107  42.454  12.967
46912W        W13453  38.580   6.180  14.860
46913W        W13454  37.197  37.089  12.564
46914W        W13455   1.957   9.237  13.803
46915W        W13456  34.912  20.139   1.976
46916W        W13457  42.657   6.717  14.181
46917W        W13458   3.416  29.145   3.683
46918W        W13459  10.796   4.360  11.063
46919W        W13460  35.315  26.537   5.170
46920W        W13461  31.218   7.386   1.918
46921W        W13462  44.804  30.593   0.189
46922W        W13463   0.765  41.535  11.192
46923W        W13464  37.313  15.662  12.398
46924W        W13465  13.279  11.864   0.703
46925W        W13466  42.984  37.620   3.313
46926W        W13467  42.474   2.266  13.787
46927W        W13468  11.985   4.381  13.166
46928W        W13469  38.551   1.446  13.567
46929W        W13470   6.406   2.847   0.368
46930W        W13471  27.533   9.288   4.390
46931W        W13472  19.544  23.472  13.292
46932W        W13473  35.015   1.584   2.890
46933W        W13474  24.268  19.145   3.655
46934W        W13475  43.972  40.518  13.720
46935W        W13476  27.472  32.374  12.932
46936W        W13477   3.005   3.187   0.717
46937W        W13478  34.364  25.580   1.488
46938W        W13479   5.214   6.653   4.087
46939W        W13480   3.762  12.255  11.893
46940W        W13481  40.305  30.712  13.341
46941W        W13482  27.545   5.679   0.008
46942W        W13483  39.271  14.911   0.771
46943W        W13484  42.601  14.911   1.312
46944W        W13485  34.277  34.622   0.488
46945W        W13486   0.737  35.444  12.981
46946W        W13487  44.206  36.482   3.807
46947W        W13488  29.500  14.035  14.280
46948W        W13489  34.508   4.710  10.533
46949W        W13490  37.451  42.627   3.356
46950W        W13491   6.529  33.974  11.263
46951W        W13492  41.370   4.251   0.956
46952W        W13493  13.117  27.624   5.209
46953W        W13494  26.734  44.489  13.186
46954W        W13495  16.388   9.289   2.808
46955W        W13496  14.596  16.917   1.937
46956W        W13497  34.926  19.281   3.084
46957W        W13498  29.523  26.140   1.702
46958W        W13499  37.120  43.985   2.383
46959W        W13500  14.842  40.706  14.059
46960W        W13501  13.381   4.562   3.628
46961W        W13502   8.973  22.332  12.755
46962W        W13503  39.386  25.767   3.574
46963W        W13504   2.425  19.309  14.490
46964W        W13505  19.143  38.889  14.865
46965W        W13506   7.089   3.378  13.905
46966W        W13507  42.852  40.308   3.674
46967W        W13508  13.214  38.012   4.231
46968W        W13509   7.456  22.124   4.943
46969W        W13510  13.905   7.865   0.925
46970W        W13511  15.648  15.509  13.968
46971W        W13512   2.205  25.532  12.127
46972W        W13513  15.069   5.880  12.592
46973W        W13514   1.810  39.953  13.220
46974W        W13515  26.325  27.416  11.019
46975W        W13516  22.435  44.359   4.140
46976W        W13517  33.999  19.531  14.439
46977W        W13518   3.286  26.782   2.597
46978W        W13519  35.904  42.356   3.272
46979W        W13520   6.783  35.395  13.006
46980W        W13521  31.038   0.711  10.737
46981W        W13522  10.156   9.277   3.673
46982W        W13523  12.137   6.728  12.355
46983W        W13524  21.837  36.868   2.854
46984W        W13525   5.088   6.249   1.398
46985W        W13526   4.804  31.700   0.678
46986W        W13527  39.226  11.961  12.039
46987W        W13528  22.628  43.978   0.984
46988W        W13529  35.732  16.358   0.919
46989W        W13530  25.007  39.694   1.476
46990W        W13531  36.288  17.046  11.864
46991W        W13532   8.764  19.633   4.314
46992W        W13533  15.808  13.524   1.913
46993W        W13534  10.277  43.236   1.964
46994W        W13535  36.878  28.560   1.265
46995W        W13536   5.573  11.442   0.541
46996W        W13537  14.140  34.064   4.291
46997W        W13538   2.792  27.341  12.059
46998W        W13539  20.655  23.280   1.963
46999W        W13540  39.206   0.229   0.450
47000W        W13541  11.273  35.669   2.321
47001W        W13542  40.869  11.340   0.721
47002W        W13543   0.345  11.824  14.829
47003W        W13544   7.074  37.306   0.572
47004W        W13545  36.387  16.950  13.160
47005W        W13546   6.916  11.220   3.765
47006W        W13547  39.967  33.182  14.471
47007W        W13548  22.761  24.712  12.833
47008W        W13549  24.057  29.888   2.264
47009W        W13550  42.146   2.976   3.939
47010W        W13551   8.571  23.436  10.180
47011W        W13552  17.797  31.588   1.614
47012W        W13553   6.492   1.236   1.270
47013W        W13554  42.767  18.629   4.154
47014W        W13555  21.948   2.323   3.821
47015W        W13556  44.704  22.802  10.735
47016W        W13557  38.922  12.554  14.436
47017W        W13558  27.474  32.045  10.304
47018W        W13559  28.628   6.251  12.390
47019W        W13560  42.701   8.601   1.485
47020W        W13561  39.899   3.503  12.170
47021W        W13562  27.496  13.412  13.963
47022W        W13563  38.139  42.469   0.158
47023W        W13564  12.800   7.632   1.854
47024W        W13565  18.322  17.025   3.523
47025W        W13566  39.766  15.501   4.086
47026W        W13567  41.733   0.162   0.250
47027W        W13568  20.092  28.949  13.039
47028W        W13569   4.939  18.295  10.870
47029W        W13570  40.961  21.091   2.685
47030W        W13571   5.306  44.410   4.317
47031W        W13572  43.818   0.962  14.396
47032W        W13573   0.280  20.659   2.940
47033W        W13574  36.392  16.266  11.425
47034W        W13575  40.437  25.274  11.223
47035W        W13576  18.983   6.948   3.227
47036W        W13577  43.743  18.382  14.950
47037W        W13578  32.974  12.664   3.238
47038W        W13579   4.802  36.588  13.850
47039W        W13580  15.573  31.022   0.925
47040W        W13581  28.516   1.243  14.499
47041W        W13582  30.013  21.520   1.155
47042W        W13583  43.445  37.840   0.867
47043W        W13584   6.598  17.216   4.544
47044W        W13585  17.635  33.606   2.593
47045W        W13586   2.957   0.868  10.703
47046W        W13587   4.172  12.936   4.799
47047W        W13588  18.245  15.984   1.313
47048W        W13589  13.306  10.629   2.716
47049W        W13590   9.176  18.832  14.784
47050W        W13591  33.772  42.945   3.625
47051W        W13592  12.676  39.839  10.751
47052W        W13593  33.019  12.246  14.308
47053W        W13594  27.397  35.514  13.028
47054W        W13595  31.039   5.793   4.871
47055W        W13596  18.991  33.053   4.257
47056W        W13597   4.428  32.502   0.319
47057W        W13598  35.108  14.723  11.186
47058W        W13599  42.345  43.450  13.377
47059W        W13600  30.941  29.424  14.823
47060W        W13601  39.006  34.212  14.508
47061W        W13602   2.377   5.421  10.617
47062W        W13603  44.351  43.699  12.939
47063W        W13604  39.103  11.699   4.887
47064W        W13605  25.358  25.491   1.284
47065W        W13606  32.197   8.373  11.342
47066W        W13607   3.424   2.304   1.218
47067W        W13608  18.631   7.723   4.104
47068W        W13609  30.487   1.196  14.060
47069W        W13610  13.595  17.737   1.851
47070W        W13611  13.679  28.165   4.495
47071W        W13612   4.187  37.562   3.330
47072W        W13613  17.010  41.392   1.494
47073W        W13614  36.855   3.403  12.587
47074W        W13615  36.873  37.051   3.808
47075W        W13616  12.335  32.635  11.578
47076W        W13617  21.939  34.568   1.794
47077W        W13618  33.753   1.697   1.614
47078W        W13619  32.190  32.550  12.887
47079W        W13620  15.179  13.343   0.493
47080W        W13621   3.418  32.343   2.092
47081W        W13622  33.479  18.033  14.934
47082W        W13623  34.046  17.327  10.756
47083W        W13624  12.273   6.220   0.034
47084W        W13625  20.119  12.888  11.324
47085W        W13626  20.537  17.408  10.184
47086W        W13627  11.065  42.235   2.282
47087W        W13628  24.956  30.874   0.264
47088W        W13629  43.239  32.832  13.639
47089W        W13630  11.733  39.559   0.339
47090W        W13631  11.379   2.968   3.720
47091W        W13632  13.302  35.585   0.604
47092W        W13633  23.483   7.452  14.887
47093W        W13634  12.583  35.364   1.382
47094W        W13635  23.490  31.051  12.417
47095W        W13636   0.202  40.820   3.148
47096W        W13637   8.843   3.935   2.183
47097W        W13638  22.542   7.595   3.822
47098W        W13639  40.388  27.463  14.721
47099W        W13640  11.223   0.459   4.064
47100W        W13641   5.917  23.120   2.677
47101W        W13642  27.678   9.396  13.303
47102W        W13643  23.621   7.318  13.452
47103W        W13644  13.445   9.594  11.578
47104W        W13645  23.006  14.308  12.559
47105W        W13646  22.647   1.214   2.848
47106W        W13647  14.848  29.969   2.333
47107W        W13648  44.206  13.202  12.028
47108W        W13649   6.356  31.387   4.339
47109W        W13650   3.897  11.004   0.406
47110W        W13651  27.527  37.862  12.372
47111W        W13652  19.500  43.950  10.678
47112W        W13653  40.842  41.965  11.279
47113W        W13654  28.391  37.054  10.393
47114W        W13655  32.279  18.135   3.190
47115W        W13656  23.039  35.698  11.764
47116W        W13657  26.788  21.062   5.053
47117W        W13658  34.652  24.694  11.611
47118W        W13659  34.303   6.175   3.360
47119W        W13660  40.307  32.262   0.461
47120W        W13661  25.387  41.569  12.739
47121W        W13662   1.866   9.960   2.170
47122W        W13663   5.052  18.413  14.942
47123W        W13664  27.549  30.543   3.190
47124W        W13665   3.507  28.029   3.111
47125W        W13666  28.577  15.482   5.060
47126W        W13667  10.621  41.513  13.334
47127W        W13668  27.975  16.634   1.105
47128W        W13669  36.390  37.133   4.197
47129W        W13670   8.470  38.708  13.798
47130W        W13671  36.259  14.364   4.945
47131W        W13672  15.192  25.134   0.674
47132W        W13673  12.339  42.129  13.407
47133W        W13674  15.188  23.626  13.145
47134W        W13675  27.073  37.370  13.016
47135W        W13676  11.158   7.359   3.307
47136W        W13677  44.442  34.244  13.027
47137W        W13678  34.961  30.530  11.937
47138W        W13679  13.282   9.648   3.306
47139W        W13680  29.623  13.038  14.555
47140W        W13681   7.421  37.513  14.776
47141W        W13682  14.705  33.665   4.834
47142W        W13683  29.672  41.067  14.426
47143W        W13684  42.948  29.926   2.891
47144W        W13685  42.271  23.145   1.664
47145W        W13686   2.816  18.672  10.532
47146W        W13687  29.717  28.503  14.365
47147W        W13688  36.752   6.250  11.013
47148W        W13689  31.656  26.076  11.601
47149W        W13690  41.620  29.611  11.876
47150W        W13691  33.980  31.595   1.344
47151W        W13692  18.518  30.656   3.163
47152W        W13693  39.372  10.855   4.424
47153W        W13694  21.544  19.104   4.125
47154W        W13695   6.679  20.236   3.617
47155W        W13696   1.359  44.842  10.860
47156W        W13697  18.780  28.132   3.262
47157W        W13698  18.166   1.461   4.811
47158W        W13699   0.441  14.793  10.794
47159W        W13700  21.632  37.116   2.390
47160W        W13701  29.084  28.406   4.185
47161W        W13702  23.668  11.333   3.252
47162W        W13703  24.505  39.272   0.204
47163W        W13704   1.476   9.410   2.299
47164W        W13705  41.975   7.737  12.949
47165W        W13706  12.104  17.203   2.360
47166W        W13707  34.660  39.007  12.056
47167W        W13708  31.559   9.353   1.362
47168W        W13709   6.854  26.224   4.857
47169W        W13710  15.126  16.049   2.720
47170W        W13711  20.847  33.462  12.030
47171W        W13712  27.730  32.014   3.168
47172W        W13713  43.263  11.408   0.296
47173W        W13714  42.720  32.185  13.000
47174W        W13715  25.104  30.438   1.119
47175W        W13716  16.523  25.002   1.305
47176W        W13717  17.022  20.624   0.631
47177W        W13718  13.021  33.048  11.110
47178W        W13719  29.687  16.971  11.603
47179W        W13720   2.629   1.358  12.108
47180W        W13721  42.451  30.132   0.726
47181W        W13722  38.929  19.426  11.391
47182W        W13723  41.075   1.490   3.682
47183W        W13724  36.404  18.386   0.305
47184W        W13725  42.815  41.607   2.799
47185W        W13726  18.286  24.165   2.566
47186W        W13727  44.819  23.004   0.277
47187W        W13728  20.752  33.544  14.750
47188W        W13729  37.881   1.761   1.050
47189W        W13730  29.042  18.545   4.887
47190W        W13731  34.067   2.226   0.832
47191W        W13732   1.356  13.731  11.229
47192W        W13733   2.863  24.155   0.740
47193W        W13734  35.329  32.731  14.465
47194W        W13735  24.440  35.296  12.515
47195W        W13736  41.034  21.954   2.942
47196W        W13737  21.787  11.428  10.623
47197W        W13738  42.264  31.511  14.035
47198W        W13739  35.296  41.377   2.236
47199W        W13740  43.245  39.404   4.761
47200W        W13741  19.127  31.940  10.865
47201W        W13742   4.712  11.705   3.126
47202W        W13743  25.228  10.851  12.656
47203W        W13744  33.534  31.451   3.336
47204W        W13745   8.266  14.811  14.798
47205W        W13746   9.792   0.293   2.443
47206W        W13747  17.382  24.136   2.445
47207W        W13748  11.449  32.012  13.842
47208W        W13749  15.294  30.127   0.268
47209W        W13750   4.969  23.728   0.280
47210W        W13751  41.038  38.609  13.419
47211W        W13752  17.366  43.022   2.716
47212W        W13753  22.759  11.589  14.657
47213W        W13754  25.558  18.326   1.304
47214W        W13755  15.997  40.005   3.560
47215W        W13756  11.395   5.935  13.098
47216W        W13757  29.231   6.211  10.271
47217W        W13758  22.113  34.951  14.183
47218W        W13759   3.164  15.636   4.547
47219W        W13760  23.799  41.994   3.063
47220W        W13761  10.627   2.002  10.887
47221W        W13762  39.520  11.669   1.222
47222W        W13763   2.282  24.776  11.596
47223W        W13764   8.955  40.458   1.188
47224W        W13765  44.492  12.835  13.580
47225W        W13766  11.605   4.444   3.174
47226W        W13767   7.205  32.317  14.816
47227W        W13768  31.217  29.974  13.930
47228W        W13769  32.627  31.093  12.098
47229W        W13770   2.361  18.073   2.888
47230W        W13771   4.350  43.972   0.776
47231W        W13772  35.581   2.915   1.762
47232W        W13773  23.760  36.418   0.417
47233W        W13774  36.338   1.511  14.273
47234W        W13775  40.797  17.662   1.799
47235W        W13776  44.911  30.620   2.205
47236W        W13777   5.262  22.960  11.645
47237W        W13778   8.366  44.883   2.253
47238W        W13779  36.115   0.892  10.652
47239W        W13780  20.373  29.353  12.833
47240W        W13781  25.020  20.485  13.494
47241W        W13782  32.236  22.792  11.597
47242W        W13783  31.645  13.269   1.209
47243W        W13784  27.250  28.113  14.502
47244W        W13785  16.128   3.595   0.344
47245W        W13786   7.181  18.061   4.147
47246W        W13787  29.963  17.719   0.563
47247W        W13788   2.515   0.513   4.624
47248W        W13789  31.843  23.754  11.226
47249W        W13790   0.977   0.998  14.217
47250W        W13791  30.464  11.427   0.667
47251W        W13792  44.929   0.969  11.528
47252W        W13793   6.683   6.782   1.769
47253W        W13794   9.840   4.054   3.257
47254W        W13795  19.485   3.356  13.311
47255W        W13796  21.101  32.818   4.239
47256W        W13797  43.368   8.436  12.904
47257W        W13798   1.434  40.812  14.492
47258W        W13799  14.670  19.743  11.071
47259W        W13800  44.965  30.330  14.772
47260W        W13801  37.352  13.762   2.889
47261W        W13802  11.649  17.065  11.870
47262W        W13803  11.023   7.844   3.156
47263W        W13804   1.190  23.478  14.752
47264W        W13805  24.863  42.402  13.780
47265W        W13806  33.628  35.447  10.998
47266W        W13807  42.856  13.208  12.416
47267W        W13808  33.883  28.033  14.899
47268W        W13809  26.493  13.189   4.838
47269W        W13810  43.178  16.438   4.616
47270W        W13811  36.274  40.042   3.697
47271W        W13812  14.328  24.421   0.935
47272W        W13813  28.730  15.705  14.300
47273W        W13814  22.116  36.425   4.427
47274W        W13815  37.527  13.802   1.723
47275W        W13816   4.854   9.691  13.471
47276W        W13817   4.793  12.813   4.025
47277W        W13818  29.429  17.332  11.952
47278W        W13819  24.904  24.585   1.741
47279W        W13820   4.341  24.739  11.100
47280W        W13821  42.537  38.664  12.002
47281W        W13822  15.504  35.699  10.214
47282W        W13823  22.095  29.689  11.458
47283W        W13824  40.064  17.023   3.209
47284W        W13825   3.642   1.293   4.070
47285W        W13826  31.184   8.928   3.791
47286W        W13827   4.906  40.236  10.840
47287W        W13828  31.505   8.143   0.467
47288W        W13829  21.715   9.569  12.597
47289W        W13830  27.017  42.550  12.914
47290W        W13831  20.987  12.332   1.302
47291W        W13832   2.005  36.019  12.505
47292W        W13833  19.259  17.607  14.029
47293W        W13834  24.542  20.570   0.739
47294W        W13835   4.860  31.683   1.203
47295W        W13836  20.625  17.774   0.494
47296W        W13837  42.522   7.239  10.626
47297W        W13838   6.623  34.959  13.279
47298W        W13839   9.198  13.236   3.032
47299W        W13840  36.878  25.805  12.926
47300W        W13841  11.093  12.949   4.573
47301W        W13842  33.710  37.989   4.642
47302W        W13843   7.664  27.701  10.764
47303W        W13844   3.466   9.229   0.177
47304W        W13845  26.458  38.547  13.069
47305W        W13846  16.673  22.133   2.101
47306W        W13847  15.594  30.380  12.628
47307W        W13848  27.464  37.015  11.638
47308W        W13849  11.864  24.216  14.106
47309W        W13850  34.464   3.417  11.938
47310W        W13851  28.233   9.176   1.407
47311W        W13852  38.421  35.673  13.423
47312W        W13853  39.075   2.034  13.921
47313W        W13854  12.726   1.619  12.914
47314W        W13855  13.734  32.914   3.238
47315W        W13856  33.256  29.920   3.895
47316W        W13857  30.692  19.298  13.978
47317W        W13858  22.074  26.697   1.659
47318W        W13859  39.851  20.354   3.606
47319W        W13860  40.817  36.375   2.774
47320W        W13861   0.382  14.163  12.553
47321W        W13862  38.861  13.065  14.503
47322W        W13863  33.419  16.482  12.541
47323W        W13864  28.706  29.500  11.978
47324W        W13865  30.857  44.164   3.136
47325W        W13866  36.046  28.368   0.735
47326W        W13867  42.579  34.485  12.330
47327W        W13868  32.367  18.198  12.796
47328W        W13869  30.965  19.781   1.981
47329W        W13870  25.436  15.727   0.846
47330W        W13871  40.893  24.226  12.904
47331W        W13872  14.125  28.354  10.277
47332W        W13873   3.167  13.474  11.750
47333W        W13874  17.850  10.149   3.592
47334W        W13875  21.761  29.188   3.197
47335W        W13876  24.793  22.398   0.730
47336W        W13877   1.267   3.154   2.691
47337W        W13878  10.717  44.146   4.459
47338W        W13879  12.065  23.275  14.907
47339W        W13880  10.051  29.482  10.121
47340W        W13881  14.879  43.828   0.290
47341W        W13882  41.546   6.878   1.286
47342W        W13883  32.689  32.014  14.552
47343W        W13884  42.834   6.672  11.078
47344W        W13885  27.644  23.230   0.007
47345W        W13886  44.047  16.079   0.855
47346W        W13887  10.702  43.049  13.583
47347W        W13888   7.702   6.046   2.037
47348W        W13889  39.525  33.492  13.581
47349W        W13890  35.429   1.878   3.021
47350W        W13891   6.948  10.661  11.248
47351W        W13892  29.153  38.347   3.326
47352W        W13893  25.385   8.162   3.255
47353W        W13894   7.285  36.310   0.720
47354W        W13895  12.155  26.684   1.722
47355W        W13896  43.109  39.405   4.137
47356W        W13897  10.093  40.070   1.388
47357W        W13898  13.301  10.677   4.130
47358W        W13899  28.685  39.213   1.832
47359W        W13900   4.952   2.315  13.063
47360W        W13901  40.329  22.741  10.256
47361W        W13902  38.727  22.609   2.297
47362W        W13903   7.250  39.110  12.967
47363W        W13904  37.634  14.355   2.557
47364W        W13905  29.716  33.573  12.435
47365W        W13906  26.834  36.066  13.378
47366W        W13907  17.014  39.317  14.289
47367W        W13908  38.776  16.880  12.607
47368W        W13909  12.769  44.949  12.034
47369W        W13910  34.812  11.654   1.886
47370W        W13911  38.814  26.134  11.046
47371W        W13912  21.797  34.482  12.216
47372W        W13913  30.006   0.783  12.160
47373W        W13914  34.114  20.141   3.679
47374W        W13915  12.109   1.425  10.484
47375W        W13916  38.317  19.773  13.985
47376W        W13917   4.287   5.902  13.544
47377W        W13918  25.636  23.508  12.895
47378W        W13919  21.789  37.351  11.145
47379W        W13920  21.673  44.168  13.163
47380W        W13921   4.720  39.400  12.361
47381W        W13922  22.621  40.909  12.155
47382W        W13923  14.124  37.549  13.212
47383W        W13924  16.060  29.691  11.101
47384W        W13925  35.316   8.423   4.134
47385W        W13926  24.489   9.203  10.646
47386W        W13927  42.376  39.343  11.619
47387W        W13928  36.020  11.420   0.021
47388W        W13929  44.761  24.598  11.119
47389W        W13930  33.730  26.724   4.514
47390W        W13931  38.798  34.001  12.472
47391W        W13932  17.673  18.582   1.758
47392W        W13933  38.647   3.376  10.236
47393W        W13934  26.513  43.455  14.541
47394W        W13935   1.451  17.007   2.766
47395W        W13936  17.815  24.743  11.166
47396W        W13937  44.013  24.430   0.991
47397W        W13938  10.656  28.905  10.696
47398W        W13939  41.071  17.942   3.676
47399W        W13940  29.668  38.286  12.459
47400W        W13941  35.126  32.937  13.474
47401W        W13942  29.492  31.581   1.022
47402W        W13943  37.767  41.924   1.986
47403W        W13944  37.284  24.553  12.511
47404W        W13945   5.760  29.603   3.855
47405W        W13946  37.607  13.641  13.673
47406W        W13947  35.520  27.478   0.551
47407W        W13948  21.174  30.891  10.600
47408W        W13949  29.259   0.361   0.827
47409W        W13950  21.495  15.859  13.914
47410W        W13951  37.464   6.656  12.194
47411W        W13952  43.542  42.916   2.216
47412W        W13953  30.724   0.799   3.185
47413W        W13954  34.299  28.279   1.307
47414W        W13955   1.388  15.427  10.634
47415W        W13956   1.448  44.818  13.421
47416W        W13957  38.095   7.661  13.412
47417W        W13958   0.835  42.139  11.158
47418W        W13959  30.121  22.183   2.730
47419W        W13960  13.523  31.745  11.196
47420W        W13961  18.346   9.274   2.880
47421W        W13962  40.649  20.790  11.100
47422W        W13963  42.040  34.594  14.465
47423W        W13964   6.013   9.212   0.201
47424W        W13965  40.550  16.266   3.427
47425W        W13966  41.781   8.876   1.447
47426W        W13967  21.794  25.216  11.664
47427W        W13968  41.477  17.996   0.756
47428W        W13969  22.028  43.518   2.580
47429W        W13970  34.062  14.694  10.304
47430W        W13971  24.175  28.972   3.651
47431W        W13972  15.092   6.144   2.582
47432W        W13973   4.809  12.279  13.190
47433W        W13974  17.548  44.932  11.174
47434W        W13975   3.951  44.469   2.656
47435W        W13976   9.678   5.230  13.225
47436W        W13977  28.467  16.844  13.538
47437W        W13978  17.338  14.515  12.489
47438W        W13979  35.907  23.702  12.633
47439W        W13980  41.509   3.001  11.196
47440W        W13981  44.215  22.222   4.202
47441W        W13982  12.495  38.972   0.419
47442W        W13983  12.082  21.124   1.241
47443W        W13984  26.509   7.123  12.842
47444W        W13985  24.240  38.488  13.457
47445W        W13986  32.562  12.574  11.665
47446W        W13987  23.563   4.272   4.866
47447W        W13988  14.114   9.591  14.552
47448W        W13989  43.405  29.159   0.912
47449W        W13990  36.896  32.539   2.122
47450W        W13991  20.509  27.417  10.761
47451W        W13992  30.219  42.962  12.031
47452W        W13993  12.317   3.832   1.709
47453W        W13994  29.635  33.857   1.235
47454W        W13995  15.517  44.038  11.209
47455W        W13996  43.472  16.509   1.380
47456W        W13997  35.494  33.396   0.384
47457W        W13998  24.476  44.345  14.099
47458W        W13999   0.135  20.470  14.161
47459W        W14000  18.254  31.608  14.368
47460W        W14001   8.111   9.672  12.048
47461W        W14002   8.427  39.323  13.065
47462W        W14003  29.690   5.897   4.035
47463W        W14004   6.647   4.745   1.382
47464W        W14005  29.172  39.304  12.566
47465W        W14006  33.587  22.257   3.154
47466W        W14007  43.818  40.830   0.037
47467W        W14008   1.240  20.618  13.172
47468W        W14009  13.245  21.037   1.792
47469W        W14010   4.775  21.589  10.402
47470W        W14011  14.814  25.419   2.828
47471W        W14012  12.710  36.321   3.626
47472W        W14013   8.774   1.240   0.996
47473W        W14014  11.801  44.047  11.520
47474W        W14015  40.699  40.628  11.840
47475W        W14016   3.725  19.881  14.251
47476W        W14017  14.041  21.372   0.360
47477W        W14018  11.178   4.193  12.695
47478W        W14019  38.825  34.497   4.591
47479W        W14020  29.557  23.715   0.469
47480W        W14021  16.685  41.098   0.313
47481W        W14022   3.255   0.940  10.305
47482W        W14023  11.292  32.574   2.229
47483W        W14024   0.348   0.709  14.299
47484W        W14025  15.078   6.408  13.747
47485W        W14026  40.329  34.509  10.734
47486W        W14027  26.672  40.399  12.627
47487W        W14028  43.193  19.192  12.103
47488W        W14029  43.990  13.604   3.468
47489W        W14030   6.266  13.566  14.207
47490W        W14031  38.759  40.475   3.376
47491W        W14032  13.128  40.092   4.046
47492W        W14033  31.587   2.214  14.959
47493W        W14034  33.466   1.417   4.622
47494W        W14035  34.847   5.677   2.646
47495W        W14036  39.966  13.834   3.591
47496W        W14037  19.112  43.662   2.848
47497W        W14038   6.188  28.108  12.940
47498W        W14039   3.343  31.529   2.577
47499W        W14040  19.255  39.763   3.669
47500W        W14041  23.524  11.616  12.142
47501W        W14042   1.997   6.385   4.209
47502W        W14043  37.818   8.783  11.044
47503W        W14044   3.135  22.419  11.994
47504W        W14045  35.923  34.893   2.791
47505W        W14046  39.282  33.989  13.623
47506W        W14047  39.281  30.949   1.940
47507W        W14048  42.736   5.666   0.197
47508W        W14049  26.324  32.644   1.451
47509W        W14050  41.166  40.408  11.950
47510W        W14051  29.024   8.195   3.765
47511W        W14052  13.323  27.144  14.331
47512W        W14053  38.251  23.735  13.741
47513W        W14054  15.575   5.717  11.640
47514W        W14055  36.261  18.281  14.017
47515W        W14056  29.589  29.929  10.683
47516W        W14057  38.317  16.373  13.487
47517W        W14058  22.577  20.213  12.748
47518W        W14059  10.254  25.265  13.024
47519W        W14060  23.669  44.624  12.006
47520W        W14061  25.649  29.193   1.435
47521W        W14062   3.655  37.425  10.658
47522W        W14063  17.546   7.353  12.527
47523W        W14064  26.943  21.228   3.167
47524W        W14065  11.905  31.181   4.105
47525W        W14066   9.295  13.094  10.891
47526W        W14067  28.723  32.043  12.429
47527W        W14068  35.791   6.415   4.871
47528W        W14069  41.845  44.210  13.951
47529W        W14070  13.117  44.103  14.326
47530W        W14071  21.830   0.263   4.407
47531W        W14072  25.962  36.913  10.745
47532W        W14073  25.789   3.725  12.097
47533W        W14074  13.228  24.477  12.126
47534W        W14075  24.439  10.158   4.680
47535W        W14076   6.877  22.766   1.358
47536W        W14077  29.923  28.425  12.736
47537W        W14078  16.601  24.760   1.768
47538W        W14079  31.635  25.124   2.845
47539W        W14080  24.063  31.204   0.482
47540W        W14081  30.015  35.910  12.470
47541W        W14082  43.397  18.747   3.640
47542W        W14083  44.467  39.848  11.647
47543W        W14084  14.153  34.658   1.810
47544W        W14085   2.318  43.928  12.325
47545W        W14086  20.546   7.074  11.588
47546W        W14087  18.701  15.761   2.836
47547W        W14088  25.711  35.870   3.108
47548W        W14089  13.869  22.249   0.524
47549W        W14090  12.643   8.819   1.286
47550W        W14091  10.691  39.585   2.384
47551W        W14092  21.643  43.980  11.507
47552W        W14093  20.878  43.840  12.128
47553W        W14094  35.264  36.995   5.061
47554W        W14095  36.541   8.705  11.858
47555W        W14096  43.992   0.204   1.920
47556W        W14097   9.133  32.804   2.734
47557W        W14098   8.244  16.949  12.495
47558W        W14099  39.782  24.651   1.399
47559W        W14100  33.149   7.334  10.951
47560W        W14101  13.922  15.665  12.043
47561W        W14102   9.970   0.968   0.469
47562W        W14103  37.200  43.460  12.087
47563W        W14104   0.844  37.002   4.599
47564W        W14105   3.426  39.552  14.009
47565W        W14106   3.642  38.594  13.116
47566W        W14107  33.137  23.031   0.295
47567W        W14108  26.217  39.014  10.941
47568W        W14109  11.707  40.868  13.338
47569W        W14110  28.149   3.206  10.177
47570W        W14111  40.284  39.248   0.964
47571W        W14112  13.884  20.105  12.108
47572W        W14113  10.171  44.036   3.230
47573W        W14114  42.858  19.597  14.205
47574W        W14115   1.461  15.097  11.611
47575W        W14116  16.513  20.714   3.661
47576W        W14117  32.999  44.335  12.593
47577W        W14118  28.584  42.691  13.088
47578W        W14119  12.056  11.348   2.476
47579W        W14120   7.284  24.649   1.184
47580W        W14121   1.379  41.524  10.763
47581W        W14122  28.523  29.059   1.947
47582W        W14123  40.879  15.879  12.679
47583W        W14124  26.918  13.793  13.293
47584W        W14125  33.678  43.805  10.714
47585W        W14126  14.749  20.653  10.594
47586W        W14127   7.887  39.758  12.450
47587W        W14128   1.349   9.852   3.370
47588W        W14129  19.056  30.670  10.939
47589W        W14130  26.020  25.002   1.397
47590W        W14131  18.324  41.412  11.770
47591W        W14132  13.318  43.483   1.218
47592W        W14133   2.030   3.178  14.827
47593W        W14134  17.133  38.587  12.920
47594W        W14135  14.305   4.380  11.657
47595W        W14136  15.728  35.882   2.526
47596W        W14137  33.605  41.681   3.091
47597W        W14138  42.337   9.732  13.837
47598W        W14139  29.212  36.371   1.362
47599W        W14140   1.053  40.050  14.825
47600W        W14141  15.602  27.583  11.539
47601W        W14142  23.704   2.808  13.887
47602W        W14143  32.985  35.492  11.745
47603W        W14144  35.224  20.391  13.129
47604W        W14145  38.480   0.627  11.503
47605W        W14146  33.115  44.793   0.793
47606W        W14147  14.209  10.737   2.389
47607W        W14148  27.718  30.695   1.652
47608W        W14149   1.435  29.664  10.299
47609W        W14150  37.507  44.575  13.963
47610W        W14151  44.233  18.341  13.573
47611W        W14152  17.419  13.101   4.556
47612W        W14153   6.254  39.388   1.494
47613W        W14154   7.179  39.319   0.263
47614W        W14155   3.350  28.524   0.308
47615W        W14156  33.097  19.661  14.388
47616W        W14157   3.186   3.804  11.237
47617W        W14158   1.996  38.866   0.725
47618W        W14159   6.913   7.283   3.236
47619W        W14160  39.761   7.944  14.047
47620W        W14161  11.625   2.540   1.864
47621W        W14162   2.934  42.002  14.119
47622W        W14163  44.226  19.065   2.709
47623W        W14164  31.709  17.574  12.868
47624W        W14165  15.191  14.513  11.987
47625W        W14166  19.590  36.585   2.845
47626W        W14167  33.931   4.930   2.221
47627W        W14168  43.521  36.197   3.608
47628W        W14169  37.555  35.591  11.905
47629W        W14170  12.544  20.228   4.090
47630W        W14171   8.471  22.511   4.093
47631W        W14172  15.057  13.555  13.409
47632W        W14173  35.389  33.763  11.529
47633W        W14174  10.699   9.172  13.450
47634W        W14175  41.646   8.868   4.379
47635W        W14176  19.652  12.689  13.811
47636W        W14177  44.886  31.612   1.862
47637W        W14178  37.389   5.450   3.582
47638W        W14179  35.655  21.456   4.239
47639W        W14180  13.711  40.810   1.184
47640W        W14181  44.872  16.352   0.324
47641W        W14182  13.325  28.558  11.965
47642W        W14183  16.708  31.022  12.002
47643W        W14184   2.498  29.602  12.471
47644W        W14185  21.855   3.900  13.403
47645W        W14186  10.281  35.440   4.601
47646W        W14187  32.114  15.934  11.194
47647W        W14188  31.410  17.296   1.973
47648W        W14189  34.336  31.637  13.455
47649W        W14190  35.039  16.902  12.588
47650W        W14191   9.782   5.077   2.740
47651W        W14192  28.610  25.028   4.616
47652W        W14193  29.443  39.534   2.696
47653W        W14194   5.111  37.940   4.620
47654W        W14195   7.419  29.123  11.605
47655W        W14196  34.446   3.837  14.774
47656W        W14197  26.965  14.766   0.810
47657W        W14198  41.759  22.007   0.398
47658W        W14199  39.721  15.948  13.485
47659W        W14200  19.772   2.374  14.326
47660W        W14201  19.625  40.832   3.305
47661W        W14202  16.347   0.806  10.177
47662W        W14203  41.324  26.627  10.408
47663W        W14204   2.206  10.651   4.208
47664W        W14205  32.493  12.326  11.137
47665W        W14206  37.058  36.633   3.591
47666W        W14207  24.568  24.546   4.543
47667W        W14208  22.668  36.858  11.721
47668W        W14209  24.728  44.780  10.862
47669W        W14210  20.041  15.835   1.508
47670W        W14211  19.174   3.893  10.334
47671W        W14212  36.376  16.490  14.082
47672W        W14213  30.045  43.369   3.857
47673W        W14214  42.410   8.977   4.676
47674W        W14215  35.579  17.997  13.342
47675W        W14216  25.720  39.372  12.182
47676W        W14217  40.399  13.241  11.704
47677W        W14218   5.304  28.639  12.005
47678W        W14219  24.395  30.445   1.851
47679W        W14220  14.814   1.360   1.855
47680W        W14221  32.814  12.163  12.442
47681W        W14222   6.886  34.095  11.628
47682W        W14223  24.968  31.382   0.035
47683W        W14224  15.313   7.935   4.720
47684W        W14225  43.293  17.580  11.406
47685W        W14226   1.893  20.961  11.672
47686W        W14227  12.589  33.282  10.885
47687W        W14228  44.234  40.968  14.321
47688W        W14229  12.324  40.882   0.417
47689W        W14230  10.314  13.753  11.673
47690W        W14231  19.714  14.757   2.591
47691W        W14232  43.900  13.160  10.217
47692W        W14233  20.475   9.327  13.801
47693W        W14234  33.145  10.532   4.979
47694W        W14235   3.250   4.448   1.905
47695W        W14236  26.678  23.234   3.547
47696W        W14237  42.059   3.011   1.794
47697W        W14238  17.708  42.720  14.765
47698W        W14239  15.105  30.550   1.259
47699W        W14240  44.602  32.650  11.153
47700W        W14241  26.652  16.026  14.437
47701W        W14242   5.918  20.999   0.683
47702W        W14243  34.899  14.326  11.969
47703W        W14244  30.184  16.203  13.830
47704W        W14245  11.597  19.576   4.745
47705W        W14246   1.441  29.512   0.873
47706W        W14247   9.846  29.644   1.470
47707W        W14248   7.742  33.880   2.354
47708W        W14249  13.739  20.308  12.546
47709W        W14250  39.999  40.501   0.935
47710W        W14251  26.227  21.751   0.756
47711W        W14252  34.807  25.460  13.964
47712W        W14253  11.267  28.666  11.150
47713W        W14254  36.335  35.595  12.176
47714W        W14255  19.187   7.177   9.512
47715W        W14256   5.422  21.561  13.534
47716W        W14257  38.333  26.092   2.792
47717W        W14258  19.289  29.925  12.148
47718W        W14259  36.563  28.141  12.344
47719W        W14260  25.694  41.241   1.362
47720W        W14261   2.798  23.974  13.899
47721W        W14262  28.443  44.431  13.408
47722W        W14263  30.086   3.453  10.197
47723W        W14264  32.068   6.426   2.855
47724W        W14265  33.611  23.023   2.819
47725W        W14266  21.000  30.916  13.974
47726W        W14267  10.455   0.778  12.028
47727W        W14268  15.744   9.809   0.444
47728W        W14269  27.679   6.738  13.668
47729W        W14270  13.719   5.195  14.413
47730W        W14271  40.982  19.244  14.112
47731W        W14272  32.855  43.271   2.354
47732W        W14273   6.275   9.593  14.394
47733W        W14274  28.059  31.633   1.770
47734W        W14275  15.279  12.644   2.731
47735W        W14276   9.305  37.964  12.411
47736W        W14277   1.714  13.249  13.011
47737W        W14278  31.500   8.629   4.632
47738W        W14279   9.163   3.107  13.502
47739W        W14280  17.908  13.434  10.243
47740W        W14281  19.133  22.790   2.823
47741W        W14282  15.378  33.143  13.383
47742W        W14283  27.012  10.202  10.553
47743W        W14284  39.997   3.773  10.993
47744W        W14285  44.858  33.328   3.232
47745W        W14286  12.112   9.400   0.952
47746W        W14287   0.776   3.291   3.414
47747W        W14288  30.130   3.281  14.577
47748W        W14289  13.718  21.771   0.416
47749W        W14290   0.509  12.086  11.446
47750W        W14291   4.849  27.918   1.063
47751W        W14292  26.644   1.833  13.339
47752W        W14293  41.965   1.747   0.346
47753W        W14294  18.624  39.238  14.499
47754W        W14295  16.275   1.398   4.636
47755W        W14296   6.787  20.009  10.531
47756W        W14297  38.685  11.276  11.500
47757W        W14298  38.946  40.459   2.486
47758W        W14299   6.464  25.739  10.525
47759W        W14300  20.889  19.627  11.536
47760W        W14301  37.398  13.852  11.903
47761W        W14302  40.398   9.829   1.185
47762W        W14303  12.804  27.450   0.476
47763W        W14304   8.493   5.808  11.529
47764W        W14305  30.376  41.107  10.583
47765W        W14306   3.240  13.076   1.363
47766W        W14307  23.957  30.363  11.452
47767W        W14308  21.521  18.110   2.171
47768W        W14309  22.721  20.205  12.240
47769W        W14310  32.533  18.411  13.603
47770W        W14311   1.448  10.497   0.793
47771W        W14312  29.826  28.882  13.198
47772W        W14313  10.826   6.687  14.458
47773W        W14314  25.387  15.601   1.724
47774W        W14315  43.291  40.346   3.328
47775W        W14316   7.737  44.452  14.368
47776W        W14317  18.274  37.843  14.902
47777W        W14318  36.603  28.902  11.649
47778W        W14319  34.417   7.022  12.314
47779W        W14320   0.740   2.527   0.326
47780W        W14321  10.692  40.351  11.034
47781W        W14322  27.951  42.895   1.935
47782W        W14323   0.282  33.417   1.881
47783W        W14324  25.229  33.432   2.103
47784W        W14325  15.669   9.340   0.808
47785W        W14326  23.504  40.102   0.902
47786W        W14327  10.972  10.068   3.115
47787W        W14328  18.801   4.522  12.685
47788W        W14329  25.547  32.523   3.658
47789W        W14330  38.455   1.968  11.095
47790W        W14331   4.715  43.006   4.531
47791W        W14332  10.614  28.935  14.360
47792W        W14333  33.949  25.408  13.185
47793W        W14334   2.289  10.423   0.734
47794W        W14335  18.734   2.529   1.434
47795W        W14336  30.751  18.670  11.826
47796W        W14337  40.443  16.675   3.070
47797W        W14338  16.097  32.919  11.737
47798W        W14339   4.998  37.925   0.846
47799W        W14340  13.839   7.395   0.622
47800W        W14341  33.556  31.068  10.203
47801W        W14342  28.357  28.621   0.329
47802W        W14343  28.396   0.300  13.830
47803W        W14344  20.340   2.681  12.372
47804W        W14345   6.247  16.798   2.960
47805W        W14346  41.626  28.903   0.704
47806W        W14347   1.955  30.515   3.148
47807W        W14348  22.023  41.799   4.173
47808W        W14349  12.188  30.681  12.870
47809W        W14350  25.500  31.936   3.461
47810W        W14351  19.925  32.207   3.341
47811W        W14352  17.204  25.509  13.897
47812W        W14353  19.321  42.442   0.894
47813W        W14354  16.575  34.954  14.715
47814W        W14355  44.704  33.421   4.418
47815W        W14356   6.246  36.095  11.087
47816W        W14357  13.834   3.849  12.835
47817W        W14358  42.984  33.888   3.815
47818W        W14359   6.114  42.328  12.406
47819W        W14360   8.157  41.062   0.878
47820W        W14361  35.971   0.669  12.364
47821W        W14362  44.816  21.155   0.769
47822W        W14363  23.951  10.343  13.865
47823W        W14364  38.953  31.599  12.216
47824W        W14365  15.904   3.333   3.317
47825W        W14366  21.014  41.985  11.598
47826W        W14367  15.238  16.038   2.166
47827W        W14368  23.465  28.894  10.676
47828W        W14369  26.979  40.458  14.036
47829W        W14370  24.677   7.788   1.625
47830W        W14371  31.467  20.727   4.924
47831W        W14372  13.671  42.764  13.920
47832W        W14373   5.220  31.365   1.875
47833W        W14374  41.023  27.026   3.263
47834W        W14375  24.109  41.308   2.644
47835W        W14376  14.426  43.739  12.107
47836W        W14377  32.863  12.762  14.189
47837W        W14378   8.400  42.342   1.661
47838W        W14379  17.557  13.396   0.272
47839W        W14380  18.744  35.055  12.583
47840W        W14381  25.570  23.134  13.261
47841W        W14382  43.935  36.735  10.634
47842W        W14383  39.967  27.505  14.296
47843W        W14384  39.577  17.126   0.472
47844W        W14385  16.329  13.207   0.968
47845W        W14386   9.840   8.759   3.696
47846W        W14387  11.427  21.791   2.209
47847W        W14388  18.736  27.593   3.257
47848W        W14389   5.005   5.899  13.472
47849W        W14390  10.119  36.424  10.712
47850W        W14391  44.088  11.108  14.753
47851W        W14392   6.526   2.416   0.979
47852W        W14393   5.698  13.652  14.936
47853W        W14394  15.570   9.681  14.975
47854W        W14395  18.289  41.279   3.577
47855W        W14396  41.369  34.977   1.843
47856W        W14397  43.451  10.199   1.198
47857W        W14398   3.935   9.708   3.677
47858W        W14399  41.330  44.333   3.166
47859W        W14400  38.725  30.664   0.240
47860W        W14401  41.097  28.478   1.335
47861W        W14402  36.172  37.853  14.911
47862W        W14403  39.507   6.172  14.796
47863W        W14404  35.735  36.544  10.464
47864W        W14405   6.577   7.279  12.104
47865W        W14406   3.686   7.759  12.942
47866W        W14407  42.442  22.074   1.354
47867W        W14408  23.692  27.458  13.046
47868W        W14409   3.212  31.773  11.251
47869W        W14410  31.709  37.987   2.361
47870W        W14411  38.484   2.115  11.613
47871W        W14412   0.791  39.379   1.350
47872W        W14413   7.645  27.558  14.520
47873W        W14414  19.322  23.033   1.833
47874W        W14415  23.468  35.105   0.970
47875W        W14416  36.930  38.215  13.947
47876W        W14417  38.544  25.703   1.790
47877W        W14418   7.971   1.569   2.510
47878W        W14419  40.829  15.159   0.952
47879W        W14420  30.158   7.499   1.265
47880W        W14421  31.530  18.347   4.938
47881W        W14422  36.989  24.209  12.223
47882W        W14423  25.396  11.742   1.101
47883W        W14424  26.554  44.591   0.018
47884W        W14425  14.240  15.604   3.652
47885W        W14426  28.514  44.900   2.708
47886W        W14427  30.154   8.169   0.472
47887W        W14428  23.561   3.162   3.155
47888W        W14429  28.727  33.692  14.185
47889W        W14430   4.917   8.967  10.322
47890W        W14431  36.105  18.619  10.678
47891W        W14432  34.593  34.466  10.585
47892W        W14433  27.183  10.852   3.232
47893W        W14434  37.485   9.734   1.878
47894W        W14435  30.257  22.152   4.567
47895W        W14436  34.807  42.500   2.921
47896W        W14437   5.431  19.167  12.498
47897W        W14438   1.268  17.680  12.476
47898W        W14439   5.460   2.291   1.883
47899W        W14440  38.685  30.108  14.522
47900W        W14441   8.400  30.227   0.007
47901W        W14442  31.693  44.261   1.735
47902W        W14443  10.762  22.540  14.881
47903W        W14444  33.124   2.265   0.484
47904W        W14445  30.213   0.183   4.435
47905W        W14446  27.802  17.978  11.130
47906W        W14447  34.244   3.457  12.943
47907W        W14448  19.251  22.133   1.039
47908W        W14449  23.249  43.161   0.966
47909W        W14450  37.459  44.072   3.688
47910W        W14451  13.452  42.315  13.848
47911W        W14452  21.785  24.679  13.462
47912W        W14453  16.786  10.356  14.065
47913W        W14454   7.816   8.621   3.731
47914W        W14455  22.726  15.303   1.524
47915W        W14456  22.626  44.890   4.888
47916W        W14457   1.369   2.329   1.003
47917W        W14458  41.471  25.271  13.582
47918W        W14459   3.394  34.030  14.751
47919W        W14460  37.279   8.700  12.931
47920W        W14461  34.199  27.764   1.924
47921W        W14462  17.162   1.465   3.055
47922W        W14463  28.561  17.101   3.654
47923W        W14464   4.703  27.980  11.478
47924W        W14465  31.943  18.064  11.575
47925W        W14466  24.995  26.033   4.535
47926W        W14467  37.267  16.141  11.694
47927W        W14468  42.284  20.340   4.623
47928W        W14469  13.263   0.645   1.770
47929W        W14470  44.847  33.460   1.547
47930W        W14471  29.699  13.598  12.868
47931W        W14472  30.952  40.301   1.395
47932W        W14473  30.549   0.226   0.753
47933W        W14474  25.101  39.060  12.524
47934W        W14475  11.734  43.056  13.873
47935W        W14476   3.230   9.119  13.397
47936W        W14477  22.963  20.774   4.061
47937W        W14478  24.202  16.701   1.535
47938W        W14479  39.320  40.473  13.686
47939W        W14480  10.730  30.020  11.601
47940W        W14481   5.244  43.566  11.612
47941W        W14482   0.778  30.348   2.184
47942W        W14483  37.222  14.329   0.248
47943W        W14484  24.982  19.067  13.090
47944W        W14485  15.244  39.790  11.259
47945W        W14486  13.648  30.974   3.141
47946W        W14487  36.424  31.951  11.649
47947W        W14488   6.803  24.962  12.123
47948W        W14489  40.566  22.023  11.575
47949W        W14490  21.080  13.389  12.645
47950W        W14491   2.913   2.893   1.166
47951W        W14492   8.495  31.251   0.857
47952W        W14493   2.708  32.475   0.382
47953W        W14494  42.325  30.476   1.412
47954W        W14495  29.878  23.899   4.358
47955W        W14496  15.270  17.078   3.700
47956W        W14497  14.339  36.102   2.387
47957W        W14498  12.184   8.582   1.238
47958W        W14499  18.395  19.177   4.427
47959W        W14500  12.906  28.711  11.025
47960W        W14501  18.824  40.288   4.978
47961W        W14502  28.430   7.056   0.403
47962W        W14503   5.287  39.890  10.683
47963W        W14504  11.640  21.441  14.905
47964W        W14505  44.760   8.157   3.831
47965W        W14506   8.985  33.594  11.155
47966W        W14507  44.805  37.982   3.267
47967W        W14508  18.067   3.490   1.864
47968W        W14509   7.511  42.943  14.062
47969W        W14510  21.162  28.186  11.703
47970W        W14511  15.529   8.907   0.487
47971W        W14512  29.119  16.296   0.427
47972W        W14513  28.603  22.495  14.058
47973W        W14514  10.395  38.209  10.839
47974W        W14515  35.000   0.986   4.538
47975W        W14516  20.503  26.432  14.814
47976W        W14517  23.756  34.104   2.534
47977W        W14518  24.408  32.489   0.793
47978W        W14519  39.269   2.516   1.508
47979W        W14520   3.887  21.485  12.535
47980W        W14521  38.410  17.243  13.543
47981W        W14522  13.517  17.169   4.843
47982W        W14523  37.374  22.773   4.584
47983W        W14524  24.226  27.477   0.891
47984W        W14525  37.522  44.478   1.174
47985W        W14526  17.252  15.352  13.376
47986W        W14527  14.092  20.610   1.970
47987W        W14528  35.585  39.517  13.928
47988W        W14529  38.465   3.411   4.143
47989W        W14530  25.903   2.346   1.931
47990W        W14531  10.121  37.371   3.727
47991W        W14532  32.060  12.657   2.127
47992W        W14533   5.266   3.132  14.003
47993W        W14534  24.073  10.348  14.816
47994W        W14535   3.167   8.833   2.950
47995W        W14536  38.658  37.293  11.508
47996W        W14537  40.490  38.772   4.194
47997W        W14538  25.054  28.921  13.631
47998W        W14539  25.111  37.520   0.208
47999W        W14540  14.816   0.448  11.093
48000W        W14541   2.813  31.368  13.550
48001W        W14542  29.937  43.388   0.007
48002W        W14543  18.348   2.074  14.847
48003W        W14544  17.655  20.959   4.045
48004W        W14545  23.600  11.520   1.023
48005W        W14546   3.096  41.567  14.762
48006W        W14547  14.134  32.964  13.968
48007W        W14548  39.828  40.277  14.892
48008W        W14549  30.460  41.068   4.049
48009W        W14550  17.741  38.601  12.368
48010W        W14551  13.540   9.227  13.808
48011W        W14552  35.765  28.014  11.096
48012W        W14553  18.183  34.349  11.283
48013W        W14554  10.787  34.564   3.619
48014W        W14555   4.723  20.111   3.404
48015W        W14556   3.854  23.576  11.136
48016W        W14557  40.809  30.095   3.983
48017W        W14558  16.268  39.138  14.845
48018W        W14559  29.158   2.654  13.452
48019W        W14560  36.000  17.723  14.900
48020W        W14561  33.054  12.368   9.827
48021W        W14562   1.816  31.053   1.768
48022W        W14563  33.524  35.626  13.886
48023W        W14564  21.027  39.094   1.225
48024W        W14565   8.734  13.731  12.786
48025W        W14566  42.497  30.346  12.015
48026W        W14567   0.210  23.980  13.391
48027W        W14568  38.039  31.017  11.565
48028W        W14569  39.987  10.457  12.949
48029W        W14570  37.826   4.814  11.074
48030W        W14571  41.017  28.064   0.273
48031W        W14572  10.797  17.765   0.523
48032W        W14573  30.817  17.271  12.422
48033W        W14574   5.762  11.174  11.298
48034W        W14575  11.624  12.818   4.479
48035W        W14576  44.452  23.169   3.846
48036W        W14577  12.038  34.533  12.461
48037W        W14578   1.438   5.852  13.696
48038W        W14579  22.431   1.282  12.930
48039W        W14580   2.873  37.595  13.588
48040W        W14581   8.396  21.767  11.555
48041W        W14582  24.007  21.527   3.843
48042W        W14583  22.102  22.037   4.586
48043W        W14584  15.277  18.723   4.631
48044W        W14585  25.409   6.145  12.476
48045W        W14586  37.589  20.960  12.981
48046W        W14587  28.168   9.601   3.167
48047W        W14588  19.695  32.192  14.440
48048W        W14589  29.010  30.561  13.890
48049W        W14590  33.885  37.318  11.719
48050W        W14591   9.905  43.349  10.649
48051W        W14592  19.138  31.333   4.247
48052W        W14593  41.623   8.407  13.103
48053W        W14594  29.412  26.722   2.103
48054W        W14595  42.000  31.721   1.768
48055W        W14596  26.557  12.970   0.488
48056W        W14597   9.747  10.932   0.770
48057W        W14598  30.644   4.653   0.851
48058W        W14599  43.048  25.033  11.953
48059W        W14600  40.333  42.237  13.805
48060W        W14601  32.850   5.191   2.303
48061W        W14602  27.593  10.759   4.309
48062W        W14603  21.499   1.295   1.088
48063W        W14604  13.298  19.173  14.360
48064W        W14605  11.999  37.296  14.958
48065W        W14606  44.454  35.662  13.717
48066W        W14607  20.645  19.593   4.206
48067W        W14608   7.726  26.202   0.243
48068W        W14609   8.787  41.704   2.209
48069W        W14610  28.030  25.488   4.951
48070W        W14611   8.656  38.924   0.723
48071W        W14612   9.872  33.027   0.189
48072W        W14613  39.835  15.815  10.774
48073W        W14614  33.428  22.444   0.925
48074W        W14615  39.827  37.401   2.448
48075W        W14616   0.723   0.424  11.301
48076W        W14617   3.686  11.987   0.327
48077W        W14618   0.356  26.565   3.671
48078W        W14619  19.664  29.967   4.395
48079W        W14620  14.837   6.582  12.942
48080W        W14621   6.912  32.108   2.859
48081W        W14622  20.175   1.932  13.812
48082W        W14623  40.413  33.533   0.557
48083W        W14624  31.084   0.895   2.224
48084W        W14625  12.844  38.172  14.362
48085W        W14626  33.990   0.254  10.285
48086W        W14627  40.623   8.304  12.594
48087W        W14628   4.311   5.697   4.179
48088W        W14629  44.458  34.616   0.974
48089W        W14630  10.998  37.553   0.920
48090W        W14631   9.809  30.275  11.152
48091W        W14632  15.902  44.189   4.297
48092W        W14633  31.598   6.350   2.607
48093W        W14634  20.687   5.922  12.326
48094W        W14635  17.757  22.604  14.344
48095W        W14636  11.301  42.002  11.755
48096W        W14637  33.569  38.198   3.054
48097W        W14638  28.206   3.857   1.427
48098W        W14639   1.931  23.693  11.202
48099W        W14640  22.709  27.125   4.027
48100W        W14641   8.149  43.269  12.919
48101W        W14642  11.768  26.027  12.045
48102W        W14643   8.158  41.591   2.275
48103W        W14644  40.386  44.827   2.625
48104W        W14645  35.375   3.501   4.918
48105W        W14646  32.089  28.888  10.854
48106W        W14647  24.102  23.472  13.732
48107W        W14648  12.155  20.527   2.840
48108W        W14649  28.940  35.436  12.172
48109W        W14650  36.619   6.132  13.463
48110W        W14651   5.930   4.184   3.260
48111W        W14652  34.915   0.210  14.419
48112W        W14653  23.902  20.492   3.868
48113W        W14654  12.226  19.338   0.826
48114W        W14655  19.218  23.638   1.293
48115W        W14656  37.354  37.437  11.631
48116W        W14657  31.136  34.843  13.141
48117W        W14658  26.749  37.787  11.757
48118W        W14659  23.626  19.648  11.889
48119W        W14660  23.659  21.577  12.946
48120W        W14661  44.778   9.652  13.803
48121W        W14662  21.454  22.513   1.480
48122W        W14663  23.950   9.565   1.347
48123W        W14664  33.876  12.930  13.964
48124W        W14665  27.262  12.149   2.809
48125W        W14666  30.806  16.765   3.215
48126W        W14667  17.074  25.938  14.286
48127W        W14668  43.061  32.376  13.847
48128W        W14669  36.843   5.368  14.966
48129W        W14670  26.606   6.843   0.922
48130W        W14671  22.040   2.454  11.581
48131W        W14672  26.010  22.573  13.009
48132W        W14673  43.070  28.002  12.096
48133W        W14674  25.454  21.253  11.998
48134W        W14675  34.159  20.337  12.354
48135W        W14676   3.229   9.329   1.173
48136W        W14677  24.105  15.625  11.651
48137W        W14678   7.739  12.513   3.862
48138W        W14679  39.868   2.875   3.819
48139W        W14680  43.992  31.983  13.566
48140W        W14681  30.430  41.973  10.435
48141W        W14682  36.747  27.148   3.686
48142W        W14683   2.403  23.225   1.637
48143W        W14684  12.965  40.609   3.297
48144W        W14685  12.864  34.329   4.578
48145W        W14686  23.922   7.185  11.791
48146W        W14687   5.750  21.996   2.286
48147W        W14688  28.106   8.576   3.210
48148W        W14689  18.308  31.607   4.156
48149W        W14690  40.939  16.659   4.335
48150W        W14691  42.756  34.387   0.742
48151W        W14692  30.456  41.368  14.315
48152W        W14693  24.783   2.047  12.996
48153W        W14694  30.044   5.463   1.211
48154W        W14695   0.480   3.831   5.658
48155W        W14696   3.466  32.194  14.380
48156W        W14697  14.336  14.783  14.001
48157W        W14698  42.960  27.032  14.443
48158W        W14699  22.731  20.723   3.074
48159W        W14700  23.253  41.762  10.262
48160W        W14701  26.258  26.386  14.790
48161W        W14702  19.704  40.696  10.761
48162W        W14703   0.370  30.487  14.029
48163W        W14704  15.402  44.235   1.694
48164W        W14705  35.912  24.612   2.438
48165W        W14706  27.434  39.911  14.428
48166W        W14707  15.422   5.239  10.882
48167W        W14708  10.244   2.759   0.046
48168W        W14709  29.542  30.898  12.888
48169W        W14710   0.266   3.212  14.226
48170W        W14711   9.398  34.232  13.217
48171W        W14712  42.976  38.121   0.747
48172W        W14713  39.336   8.086  14.991
48173W        W14714  32.851  31.850  11.261
48174W        W14715  38.570  17.766   1.768
48175W        W14716  43.995   5.393   2.388
48176W        W14717  31.260  40.454  14.451
48177W        W14718  36.681  16.757  14.408
48178W        W14719  19.523   6.251   2.841
48179W        W14720  17.248  15.668  12.904
48180W        W14721  17.222  35.892   2.376
48181W        W14722   2.158  31.083   0.141
48182W        W14723  27.048  32.045  12.958
48183W        W14724  10.437   9.199   4.109
48184W        W14725  17.137  11.768   2.351
48185W        W14726  23.259  18.956   1.576
48186W        W14727  23.236  26.647  13.498
48187W        W14728  34.526  30.270  11.917
48188W        W14729  44.013  35.343   5.053
48189W        W14730  14.294   4.340   0.302
48190W        W14731   6.982   3.695  12.594
48191W        W14732  21.262  24.800  12.879
48192W        W14733  17.482  12.150   2.545
48193W        W14734  11.889  13.154   3.503
48194W        W14735  44.451  17.449   1.175
48195W        W14736  44.294   2.832   1.479
48196W        W14737  34.697  41.811  11.163
48197W        W14738  42.816  23.053   3.899
48198W        W14739   1.841  14.185  12.550
48199W        W14740  34.436  10.801  14.478
48200W        W14741  16.134  25.328   1.181
48201W        W14742  25.411  40.204   3.812
48202W        W14743  35.811  23.718   4.477
48203W        W14744  21.088  39.056   5.073
48204W        W14745  37.474  10.746   1.773
48205W        W14746  34.394  26.631  13.428
48206W        W14747   7.644  11.755   4.511
48207W        W14748  38.604  17.793  12.325
48208W        W14749  24.442  42.541   4.851
48209W        W14750  19.043  26.067   1.925
48210W        W14751  32.637   9.769  11.741
48211W        W14752  36.461  11.471  13.810
48212W        W14753  36.572  22.454   3.642
48213W        W14754  17.691  32.558   2.523
48214W        W14755  12.033   4.218   1.896
48215W        W14756  18.487  34.081  13.560
48216W        W14757   4.471  34.900  13.462
48217W        W14758  38.032   8.371   1.009
48218W        W14759  22.160  12.554  12.135
48219W        W14760   4.508  25.308  13.834
48220W        W14761  13.669  11.891  12.603
48221W        W14762  23.740   8.349  14.017
48222W        W14763  32.894   7.314  11.898
48223W        W14764  35.666  11.825  11.494
48224W        W14765  10.677  22.703  11.346
48225W        W14766  15.711  32.964   0.254
48226W        W14767  20.161  26.535  12.370
48227W        W14768   3.367  32.593  14.067
48228W        W14769  38.349  12.426  11.208
48229W        W14770   0.267  25.113   0.036
48230W        W14771   5.165  41.605  12.997
48231W        W14772  26.849  32.733   4.648
48232W        W14773  34.879  15.402  11.373
48233W        W14774   8.403  43.787   1.665
48234W        W14775  19.682   7.576  13.365
48235W        W14776  27.281  25.022   0.354
48236W        W14777   0.193  24.547   3.753
48237W        W14778  33.678  16.924  13.438
48238W        W14779  24.791   4.032  14.424
48239W        W14780   5.689  33.834  10.854
48240W        W14781  35.918  35.312  12.067
48241W        W14782   1.418   1.291   0.501
48242W        W14783  34.951  39.994  12.091
48243W        W14784   7.757  39.748  13.378
48244W        W14785   8.162   3.780   0.898
48245W        W14786   8.086  38.593   3.256
48246W        W14787  21.755  20.615  11.355
48247W        W14788   3.251  28.133   5.084
48248W        W14789  22.928  12.180   3.678
48249W        W14790  20.830  33.753  13.325
48250W        W14791  30.001  12.642   3.204
48251W        W14792   5.795   0.189   0.814
48252W        W14793  37.997  10.705  13.529
48253W        W14794  12.254  42.843  12.062
48254W        W14795  29.380   3.849  11.996
48255W        W14796  16.307   2.726  10.441
48256W        W14797  28.888  30.201   2.702
48257W        W14798  38.659  11.754  13.554
48258W        W14799  40.450  37.796   3.421
48259W        W14800   1.642   5.102   4.905
48260W        W14801   8.929  19.211   2.178
48261W        W14802  33.613  44.432   5.029
48262W        W14803  25.529   7.331   3.242
48263W        W14804  34.814  40.276   1.619
48264W        W14805  38.532   1.688  10.677
48265W        W14806  36.457   2.354   5.432
48266W        W14807   1.686  30.565   0.809
48267W        W14808  12.803  34.545   1.699
48268W        W14809  26.199  32.895   4.302
48269W        W14810  38.990  27.567  14.236
48270W        W14811  37.419  42.731  12.492
48271W        W14812   2.872  33.081   5.421
48272W        W14813   2.792  38.378   1.826
48273W        W14814  37.875  34.524  14.575
48274W        W14815  31.559   0.233  14.990
48275W        W14816  24.995  42.914   0.345
48276W        W14817  27.591   3.363   0.956
48277W        W14818  42.479  12.373   2.635
48278W        W14819  30.133  35.291  10.474
48279W        W14820  38.869  17.211  11.559
48280W        W14821  15.788  18.972  11.657
48281W        W14822  17.286  31.931   0.809
48282W        W14823  16.298   5.769  10.791
48283W        W14824  20.889  30.187  11.691
48284W        W14825  18.957  40.598   4.575
48285W        W14826  36.115   5.572   4.650
48286W        W14827  37.839  43.170  12.990
48287W        W14828  20.096  36.438   1.714
48288W        W14829   2.240  19.497  14.045
48289W        W14830   0.791  31.488   3.664
48290W        W14831   6.294  40.571  14.994
48291W        W14832  21.309  28.152   2.460
48292W        W14833  14.243  18.590   3.334
48293W        W14834  21.930  23.103  11.175
48294W        W14835  22.483  19.536   4.109
48295W        W14836  32.078   9.478   1.364
48296W        W14837   1.297  33.392   1.756
48297W        W14838  14.631   4.774   0.481
48298W        W14839  10.411  33.037  10.242
48299W        W14840  15.628   3.195   2.128
48300W        W14841  17.238  13.724  11.033
48301W        W14842   3.768   6.885   3.128
48302W        W14843   5.513  36.469   0.267
48303W        W14844  40.188  27.541  12.909
48304W        W14845  17.089  35.914  14.514
48305W        W14846  20.270  24.882   4.030
48306W        W14847  26.567  30.274  10.287
48307W        W14848  34.092   6.352  14.927
48308W        W14849   9.028  41.428   4.596
48309W        W14850   7.259  27.905   1.814
48310W        W14851  15.312  38.904   1.736
48311W        W14852   0.820   6.794   1.021
48312W        W14853   1.688   2.892  11.670
48313W        W14854  20.589  23.346  14.524
48314W        W14855  27.576  16.288  13.414
48315W        W14856  25.764  12.730   3.788
48316W        W14857  40.047  43.788   0.316
48317W        W14858  11.827  10.465   9.972
48318W        W14859  13.460  37.919   1.846
48319W        W14860   9.276  11.129  13.409
48320W        W14861  16.026  20.453   0.439
48321W        W14862  26.523   0.457  14.524
48322W        W14863  13.060  14.844   1.772
48323W        W14864  11.640  16.044   3.642
48324W        W14865  13.696  42.250  12.931
48325W        W14866  10.505  34.563   4.489
48326W        W14867   6.369  22.187  14.332
48327W        W14868   4.719  13.576   2.273
48328W        W14869  37.005  41.143  12.840
48329W        W14870  43.839  28.041  12.589
48330W        W14871  16.115  24.456   3.349
48331W        W14872  33.667   9.414  13.997
48332W        W14873  43.988  40.149   0.893
48333W        W14874  13.306   9.872  10.712
48334W        W14875  39.896  20.236   4.123
48335W        W14876  16.665  28.216  10.798
48336W        W14877   4.867  43.883  10.050
48337W        W14878   8.258  33.711  14.783
48338W        W14879  14.394  43.632  14.939
48339W        W14880  39.118   3.758   2.075
48340W        W14881  10.301  21.712  10.982
48341W        W14882  42.846  23.054  11.929
48342W        W14883   7.814  24.684  13.816
48343W        W14884  20.285   3.882   1.649
48344W        W14885  21.240  13.352   3.762
48345W        W14886  18.613  24.770  13.474
48346W        W14887   0.439  40.151  12.872
48347W        W14888   7.419  11.171   0.752
48348W        W14889  23.796  13.195   1.326
48349W        W14890  10.389  16.405  13.858
48350W        W14891  24.020   2.801   0.463
48351W        W14892  31.178   7.707   0.801
48352W        W14893  20.623  26.724  12.501
48353W        W14894  14.700  42.918   3.781
48354W        W14895  28.475  36.006   2.868
48355W        W14896  14.698   2.720   4.426
48356W        W14897  41.959  31.072  12.847
48357W        W14898  11.621  44.407   3.913
48358W        W14899  14.518  22.260   4.129
48359W        W14900  23.677   5.648  14.524
48360W        W14901  23.638  16.129   1.079
48361W        W14902  29.985  24.456   3.155
48362W        W14903  22.652   5.336  11.906
48363W        W14904  33.704   0.166   5.488
48364W        W14905  34.652   8.154  13.337
48365W        W14906  39.098  42.341   0.223
48366W        W14907  16.352   3.904  13.491
48367W        W14908  30.045  14.580   4.599
48368W        W14909  10.297  18.297   3.147
48369W        W14910  20.480   5.487   0.874
48370W        W14911  19.615  12.734   5.207
48371W        W14912   9.937  33.034   3.231
48372W        W14913  25.711  31.911  12.449
48373W        W14914  14.323   6.629   3.611
48374W        W14915  10.965  20.224  11.623
48375W        W14916  10.296  23.181  13.059
48376W        W14917   6.447   4.790   0.748
48377W        W14918  25.758  18.968   3.399
48378W        W14919  31.095   0.131   3.543
48379W        W14920  44.047  24.182   4.769
48380W        W14921   0.311  40.036  14.324
48381W        W14922  38.785  40.013  12.594
48382W        W14923  44.328  40.331  11.873
48383W        W14924  41.950  28.432  13.912
48384W        W14925  12.154  18.577   2.896
48385W        W14926  32.535   2.281   2.713
48386W        W14927  42.445  17.302   1.452
48387W        W14928  15.884  39.765   0.765
48388W        W14929  20.785   0.069  11.916
48389W        W14930  13.232  11.822  14.287
48390W        W14931  40.530  44.986  13.408
48391W        W14932   1.962  34.742  14.233
48392W        W14933  23.551  32.279  14.849
48393W        W14934   0.370  24.855  11.656
48394W        W14935  14.188  33.377   3.170
48395W        W14936  16.470  19.935   4.133
48396W        W14937  42.531   3.375  13.165
48397W        W14938  32.318   9.917   1.337
48398W        W14939  23.962  24.341   2.147
48399W        W14940  31.688   9.857   1.335
48400W        W14941  19.261  24.671  10.759
48401W        W14942  44.359   6.137  11.827
48402W        W14943  15.815  38.379  12.928
48403W        W14944  27.434  16.755   4.490
48404W        W14945   2.358   6.774   4.421
48405W        W14946  12.392   9.905  13.419
48406W        W14947  31.221  33.066   3.306
48407W        W14948  12.147  37.501  14.436
48408W        W14949  24.795   8.673   2.304
48409W        W14950  34.979  43.117   1.261
48410W        W14951  31.298  34.057  14.995
48411W        W14952  33.849  15.443  10.922
48412W        W14953  35.875  37.022   3.603
48413W        W14954  30.097   7.366   3.175
48414W        W14955  37.564   5.958  11.653
48415W        W14956   9.887   7.198   0.281
48416W        W14957  29.532   8.412   3.672
48417W        W14958  38.705  43.911  13.505
48418W        W14959  19.757  14.619  12.930
48419W        W14960  40.781  13.743  14.778
48420W        W14961  19.222  15.934   5.003
48421W        W14962  28.924  25.369  13.018
48422W        W14963  42.317   5.495   0.443
48423W        W14964  40.072  44.132   3.023
48424W        W14965  10.752   6.882   0.630
48425W        W14966   0.735  30.179  13.785
48426W        W14967   0.302  11.026  14.401
48427W        W14968  20.240  18.310   9.685
48428W        W14969   4.446  17.787   2.227
48429W        W14970  22.725  20.786   1.685
48430W        W14971   0.880  13.575  11.382
48431W        W14972  18.721   1.267   2.140
48432W        W14973   0.837   0.362   0.485
48433W        W14974  44.871  11.976   3.534
48434W        W14975  24.994  13.794   2.271
48435W        W14976  30.488   9.393   0.696
48436W        W14977  15.281   3.160   1.274
48437W        W14978  14.105  23.625   4.279
48438W        W14979  30.958  41.771  12.573
48439W        W14980  15.105  15.274  10.366
48440W        W14981   3.053  16.687  13.777
48441W        W14982  16.178  30.619  13.813
48442W        W14983   2.249  21.777  11.336
48443W        W14984   6.857  13.094  14.707
48444W        W14985  15.353  11.785  10.983
48445W        W14986  44.120  22.401   2.463
48446W        W14987  19.155   4.814  11.999
48447W        W14988  32.938   3.891   0.145
48448W        W14989  28.543   4.897  13.093
48449W        W14990  41.121  43.568  12.093
48450W        W14991   8.445  17.000   1.246
48451W        W14992  39.593  13.973  13.055
48452W        W14993  26.085  33.829   2.141
48453W        W14994  13.876  15.465  14.297
48454W        W14995  38.453  34.664  12.978
48455W        W14996  12.406  29.099  12.053
48456W        W14997  10.693  10.448   0.930
48457W        W14998  11.122  32.212  11.158
48458W        W14999   8.220  17.341   0.899
48459W        W15000  32.752  41.460   2.861
48460W        W15001  41.883   2.224   4.240
48461W        W15002  41.280  44.952   4.269
48462W        W15003  19.564  10.397  13.828
48463W        W15004  16.267  17.295  10.529
48464W        W15005  25.922  41.666  11.594
48465W        W15006  29.653  16.381   4.239
48466W        W15007  27.560   9.870  13.508
48467W        W15008  15.121   8.338  10.431
48468W        W15009  43.950   9.082   0.013
48469W        W15010  29.891  21.766   4.649
48470W        W15011  17.188   2.912  10.985
48471W        W15012  25.692  32.391  11.100
48472W        W15013   5.630  29.961   0.289
48473W        W15014   0.513  16.608   2.351
48474W        W15015  12.720  10.265   3.890
48475W        W15016  21.039  26.682  10.513
48476W        W15017  25.337  22.544   1.583
48477W        W15018  14.902  37.350  12.121
48478W        W15019  33.255   7.235   0.928
48479W        W15020   1.440  10.893  13.650
48480W        W15021  41.451  11.759  10.898
48481W        W15022  32.021  35.053  10.982
48482W        W15023  33.903  13.305   1.675
48483W        W15024  21.282  33.012  11.221
48484W        W15025  25.480  32.803   0.386
48485W        W15026  14.067   0.696  14.279
48486W        W15027  26.412  32.999  14.660
48487W        W15028  33.066  28.187   4.951
48488W        W15029  16.577  17.334  13.868
48489W        W15030  35.715   8.865  13.349
48490W        W15031  33.037  13.756   3.150
48491W        W15032  31.411   6.164   0.673
48492W        W15033  11.881  41.846   0.441
48493W        W15034  38.340  40.056   4.078
48494W        W15035  37.659  15.865   2.709
48495W        W15036  18.978  11.038   1.703
48496W        W15037  44.505  33.745  13.120
48497W        W15038   1.699  41.067   0.081
48498W        W15039  41.812  11.027   3.233
48499W        W15040  26.494   8.337   2.705
48500W        W15041  18.057  25.236  11.162
48501W        W15042  14.149   7.126   4.661
48502W        W15043  34.678  35.092   2.308
48503W        W15044  16.675  38.877   3.128
48504W        W15045  27.664   7.696   0.976
48505W        W15046  27.884   6.389   0.972
48506W        W15047  10.358  23.163   1.519
48507W        W15048  19.235  20.349  10.737
48508W        W15049   6.003  13.372   0.266
48509W        W15050  19.022  28.575   4.699
48510W        W15051  40.029  44.221  12.286
48511W        W15052   9.757  25.575   2.882
48512W        W15053  37.106  36.468  12.066
48513W        W15054   0.716   9.067  13.577
48514W        W15055  29.523  40.429   0.112
48515W        W15056  31.596   1.965   9.741
48516W        W15057  23.491  39.560   0.917
48517W        W15058  34.528  28.111  13.432
48518W        W15059  14.339  37.821   0.755
48519W        W15060  43.901   5.703  10.716
48520W        W15061   2.832  26.734  13.659
48521W        W15062   9.303  23.473  10.709
48522W        W15063  38.406  30.227  13.287
48523W        W15064  19.757  19.888  10.840
48524W        W15065  33.339  27.119   2.651
48525W        W15066  15.271  17.796  13.888
48526W        W15067  17.068  21.075   1.760
48527W        W15068  27.917  34.305  14.578
48528W        W15069   4.865  27.977   0.504
48529W        W15070   1.866  12.150  14.812
48530W        W15071   0.582  17.657  14.868
48531W        W15072  39.019   3.256  14.319
48532W        W15073  19.260  16.111  11.568
48533W        W15074  35.785  15.796   4.131
48534W        W15075  34.472  26.132  14.679
48535W        W15076  11.279  36.435   1.874
48536W        W15077  13.302  25.533  11.966
48537W        W15078   7.919  37.986   2.253
48538W        W15079  34.929  29.610   2.651
48539W        W15080  38.452  17.444   4.195
48540W        W15081  38.039   0.040  11.353
48541W        W15082   2.968   0.300  11.506
48542W        W15083   8.310  36.214  13.088
48543W        W15084  14.315  36.063  14.310
48544W        W15085  19.028   7.715  14.750
48545W        W15086  28.067   3.715  11.132
48546W        W15087  15.556   3.785   3.553
48547W        W15088  11.948  33.636  12.402
48548W        W15089  27.724   0.431  14.999
48549W        W15090  26.480   6.640   1.876
48550W        W15091  39.284  35.597   1.851
48551W        W15092  28.544   0.697  12.565
48552W        W15093  15.670  39.822   3.927
48553W        W15094  16.247  44.985   2.328
48554W        W15095  40.951   2.328  11.129
48555W        W15096   1.783  39.305  12.476
48556W        W15097  37.037  14.025   1.841
48557W        W15098   4.857  32.605   4.508
48558W        W15099  41.819   3.182  14.426
48559W        W15100  43.071  10.958   3.649
48560W        W15101  23.584  37.625  12.106
48561W        W15102   4.978  32.373   1.760
48562W        W15103  13.128  25.664   3.511
48563W        W15104  11.627   2.803   2.312
48564W        W15105   9.927   0.212   1.935
48565W        W15106  31.993  28.680   3.905
48566W        W15107  44.024  35.341   0.410
48567W        W15108  42.898  21.786   0.828
48568W        W15109   9.725  22.331   3.967
48569W        W15110  10.196  24.588  14.916
48570W        W15111  39.905   0.885  14.034
48571W        W15112  43.032  44.828   1.188
48572W        W15113  31.017   7.405  12.410
48573W        W15114  27.589   0.010  12.896
48574W        W15115  32.717  13.772  11.740
48575W        W15116  13.332  17.248  10.632
48576W        W15117  20.935  29.536   4.127
48577W        W15118  36.423  32.521  12.378
48578W        W15119  22.444  17.606  10.722
48579W        W15120  23.652  37.050   3.869
48580W        W15121  14.309   1.286   2.581
48581W        W15122  31.089  17.971   1.334
48582W        W15123  37.087  23.196   1.894
48583W        W15124  33.592   8.426   4.119
48584W        W15125  36.047  28.353   3.962
48585W        W15126   4.807  42.061  10.510
48586W        W15127  15.967  16.163   5.446
48587W        W15128  42.498  11.707  11.974
48588W        W15129  29.130  17.161   4.643
48589W        W15130  43.235  23.976   3.062
48590W        W15131  14.099  28.647   0.223
48591W        W15132  18.801   9.372  11.564
48592W        W15133  28.851  44.394   0.748
48593W        W15134   3.832  28.183   2.741
48594W        W15135  25.699  14.827  13.851
48595W        W15136  36.418  28.340   1.364
48596W        W15137  30.960  32.188   2.782
48597W        W15138  40.495  18.158  13.875
48598W        W15139  33.921  25.989  11.241
48599W        W15140  27.376   7.288   0.840
48600W        W15141  33.830  24.931   4.144
48601W        W15142  18.588  18.993  13.316
48602W        W15143  13.696  25.610   2.245
48603W        W15144   1.492  16.460  12.923
48604W        W15145  10.832  17.536   2.447
48605W        W15146  16.711  42.724  13.316
48606W        W15147  18.689   7.376  13.452
48607W        W15148   0.428  32.963  14.030
48608W        W15149  28.760  44.893  10.492
48609W        W15150  24.206  12.433   4.650
48610W        W15151   8.794   6.685   3.148
48611W        W15152  35.887  42.009   0.807
48612W        W15153  15.810  15.043  14.069
48613W        W15154   0.836  12.644  14.901
48614W        W15155  44.404  19.524   1.845
48615W        W15156   8.147  18.329   4.064
48616W        W15157  30.184  38.734   1.566
48617W        W15158  26.108  36.374  13.068
48618W        W15159  31.422  19.274   3.593
48619W        W15160  41.951   6.497   3.061
48620W        W15161   7.681  39.159   0.380
48621W        W15162   0.006   0.371  14.511
48622W        W15163   2.710  37.456   0.919
48623W        W15164  17.834  31.110  13.536
48624W        W15165  25.471  27.727   4.109
48625W        W15166   9.639  25.665  13.339
48626W        W15167  10.411   3.838  13.885
48627W        W15168  35.217  15.137  13.338
48628W        W15169  19.102  20.486  12.343
48629W        W15170  21.706  43.074   1.898
48630W        W15171  41.954   1.469   0.813
48631W        W15172  38.155  30.125  12.815
48632W        W15173  10.642   0.312   1.278
48633W        W15174  19.660  30.077  14.482
48634W        W15175  40.808  43.442  11.187
48635W        W15176   6.727  16.640   2.211
48636W        W15177   3.011   5.468  14.286
48637W        W15178  17.516  36.331   2.354
48638W        W15179  32.845  20.739  12.005
48639W        W15180  13.846  27.021   4.220
48640W        W15181   8.643  27.665   4.461
48641W        W15182  22.596  18.656   4.526
48642W        W15183  19.647  23.025  13.062
48643W        W15184  35.592  44.260   0.877
48644W        W15185   6.717  25.107  13.516
48645W        W15186  19.726  22.531   2.183
48646W        W15187  13.404  28.335   3.935
48647W        W15188  26.956  38.516   1.538
48648W        W15189  42.806  10.252  11.285
48649W        W15190  43.271  11.327   2.456
48650W        W15191  29.731  35.472  10.722
48651W        W15192  30.949  18.686   3.563
48652W        W15193  34.215   5.043   3.130
48653W        W15194   2.856  18.297  10.864
48654W        W15195  20.994  35.883  11.066
48655W        W15196  10.755   9.961  14.836
48656W        W15197  22.634  29.895  11.546
48657W        W15198  31.369  31.772  12.078
48658W        W15199  36.701  30.201  11.640
48659W        W15200   0.519  31.412  14.334
48660W        W15201   4.924   0.461   0.007
48661W        W15202  26.576   2.224  12.797
48662W        W15203  33.329   9.290  12.007
48663W        W15204  10.707  19.767   2.716
48664W        W15205  27.365  33.113  13.547
48665W        W15206   9.851  31.055   1.477
48666W        W15207  16.994  21.328  13.923
48667W        W15208  16.570   0.172   3.868
48668W        W15209  20.620  16.634   3.556
48669W        W15210  22.032  17.141   3.745
48670W        W15211   3.130  30.108  12.014
48671W        W15212  10.817   5.378   2.095
48672W        W15213  32.999  20.495  12.429
48673W        W15214  40.997  40.991   4.635
48674W        W15215  29.282   8.609  14.399
48675W        W15216  36.489  17.954  11.619
48676W        W15217  12.502  16.720  14.769
48677W        W15218  18.283  20.062   2.190
48678W        W15219  26.483  23.425  10.744
48679W        W15220  24.939  30.107  11.110
48680W        W15221  40.964  15.412  13.920
48681W        W15222  22.850  19.122  12.923
48682W        W15223  17.517  21.981  11.016
48683W        W15224  26.640  35.663  10.630
48684W        W15225  34.819  35.996  10.668
48685W        W15226  10.257  28.027   1.255
48686W        W15227   7.937  21.063   1.449
48687W        W15228  44.008  39.388  12.163
48688W        W15229  29.002  36.456  13.306
48689W        W15230  25.020  11.704   1.458
48690W        W15231  40.397  29.905  13.763
48691W        W15232  44.288  17.042   4.196
48692W        W15233  11.320   0.958   3.887
48693W        W15234   4.174  41.465   1.862
48694W        W15235  15.061  29.115   1.018
48695W        W15236  33.285  26.962  14.015
48696W        W15237  16.769  17.159  10.518
48697W        W15238  25.438   4.767  14.334
48698W        W15239  37.901   8.255  11.749
48699W        W15240  39.532  44.835   0.360
48700W        W15241  23.185  38.479  10.853
48701W        W15242  36.118  23.228   3.055
48702W        W15243  29.189  18.700  14.457
48703W        W15244   1.369  32.565   3.231
48704W        W15245  41.768  40.086   4.078
48705W        W15246   6.515   9.199   0.360
48706W        W15247   6.967   0.714  11.221
48707W        W15248  27.090   1.561   3.907
48708W        W15249   0.578   6.732  11.977
48709W        W15250  26.091  19.334  12.053
48710W        W15251  14.357  38.033  14.370
48711W        W15252  19.671   6.856   1.213
48712W        W15253  20.634  30.957   3.217
48713W        W15254  21.449  14.645  13.284
48714W        W15255  20.953  28.266   1.368
48715W        W15256  36.105  37.515   2.284
48716W        W15257  17.300   3.381   5.065
48717W        W15258  13.496  40.350  10.377
48718W        W15259  27.609  30.627   4.499
48719W        W15260  30.874  12.681   3.147
48720W        W15261  36.064   4.284  14.825
48721W        W15262   6.260   3.550  12.399
48722W        W15263   4.125   0.025  14.946
48723W        W15264  30.073  39.691   4.333
48724W        W15265  28.660  19.623   2.787
48725W        W15266  38.723  24.529   0.463
48726W        W15267   3.712  15.794   0.509
48727W        W15268  30.332  25.592  11.172
48728W        W15269   0.440  25.253   3.017
48729W        W15270  22.300  29.684  11.940
48730W        W15271   0.237  13.575   1.166
48731W        W15272  40.871  27.553  14.522
48732W        W15273  27.318  11.589  12.221
48733W        W15274  15.287  31.574  13.040
48734W        W15275  34.423  26.114   3.642
48735W        W15276  12.633  25.116  10.896
48736W        W15277  17.642  44.728  14.907
48737W        W15278  43.172   9.856  14.358
48738W        W15279  21.937  14.841  11.966
48739W        W15280   2.205  40.132   4.553
48740W        W15281   3.859  30.982   2.678
48741W        W15282   0.760  34.394   2.269
48742W        W15283  21.516  16.208  14.694
48743W        W15284  39.180   3.349  12.474
48744W        W15285  15.819  35.079  13.908
48745W        W15286  25.259  30.009  10.714
48746W        W15287  14.854  12.259   1.865
48747W        W15288  23.973   9.310  10.599
48748W        W15289  28.350  34.851  11.645
48749W        W15290  40.804  34.076  12.432
48750W        W15291  30.389  41.056  12.377
48751W        W15292   1.011  10.565   2.891
48752W        W15293  22.158   2.408   0.485
48753W        W15294  24.396  40.408   3.174
48754W        W15295  25.528  38.127   1.811
48755W        W15296  28.495  32.580   4.136
48756W        W15297  20.081   1.119   3.249
48757W        W15298  17.084  14.107   2.756
48758W        W15299   5.861   9.166  13.830
48759W        W15300  20.487   8.946   0.931
48760W        W15301   5.699  16.899  11.072
48761W        W15302   4.203  33.101   0.716
48762W        W15303  16.214  21.155   3.627
48763W        W15304  30.095  40.842  13.870
48764W        W15305   1.814   4.997  14.139
48765W        W15306  21.924  28.731   3.346
48766W        W15307  33.494  42.116   1.276
48767W        W15308  21.072   1.273  11.601
48768W        W15309  17.119  42.841  11.165
48769W        W15310  29.543  11.580   0.361
48770W        W15311  10.267  26.618  11.480
48771W        W15312  27.714   0.971  14.291
48772W        W15313  33.912  36.973   2.110
48773W        W15314  28.832   1.669   1.160
48774W        W15315   2.325   9.861  12.345
48775W        W15316   5.938  27.967  12.486
48776W        W15317  36.145  11.646   4.897
48777W        W15318  18.289  10.319  13.361
48778W        W15319   0.124  15.137   3.780
48779W        W15320  44.680   8.390  11.080
48780W        W15321   1.516   9.270  10.776
48781W        W15322  35.414  21.674  12.170
48782W        W15323  15.608   7.950  12.000
48783W        W15324  25.247  30.247   2.747
48784W        W15325  21.029  20.982   1.470
48785W        W15326  30.710  12.562  11.576
48786W        W15327   9.265  15.298   1.759
48787W        W15328  41.910  17.315  11.631
48788W        W15329   5.473   6.903   0.472
48789W        W15330   0.243  12.023   0.287
48790W        W15331  14.752  33.625  10.267
48791W        W15332  15.782  18.273   2.782
48792W        W15333   7.379  32.566  14.309
48793W        W15334  16.764   2.142   4.009
48794W        W15335  34.988  28.924  13.836
48795W        W15336  35.047  15.210  11.812
48796W        W15337  42.453  25.505   3.316
48797W        W15338   8.815   8.373   2.950
48798W        W15339   5.963  17.415  12.510
48799W        W15340  28.091  37.453  14.448
48800W        W15341  32.555   5.821  14.329
48801W        W15342   1.614  13.135  13.978
48802W        W15343   8.480   3.395   4.288
48803W        W15344   7.894  44.132   4.561
48804W        W15345  19.403  42.769  12.516
48805W        W15346   2.791  40.343  12.385
48806W        W15347   6.412  22.539   1.331
48807W        W15348  18.202   1.768   2.795
48808W        W15349  43.957  19.799   0.567
48809W        W15350  40.283  24.589   0.321
48810W        W15351  19.177  13.565   4.186
48811W        W15352  35.513  12.210   2.138
48812W        W15353  12.851  23.645  14.283
48813W        W15354  29.643   8.564  12.893
48814W        W15355   9.572  29.071  14.279
48815W        W15356  10.252  16.558   0.399
48816W        W15357  29.714   1.320  12.238
48817W        W15358  23.493  30.085  14.322
48818W        W15359  14.474  22.068   3.136
48819W        W15360   9.733   7.710  11.103
48820W        W15361   2.671  10.124   0.910
48821W        W15362  19.988  32.143   4.044
48822W        W15363  24.527  41.991   1.198
48823W        W15364   1.167   9.312  13.273
48824W        W15365  25.056  36.440   5.058
48825W        W15366   4.502  31.069  14.311
48826W        W15367   8.558  32.896  14.783
48827W        W15368  30.018  43.285   1.502
48828W        W15369  23.471  31.426   2.669
48829W        W15370  16.871  25.109   3.236
48830W        W15371  28.394  37.374  12.597
48831W        W15372  30.529  40.396  13.923
48832W        W15373   1.511  39.637   4.196
48833W        W15374   8.212   0.864  13.166
48834W        W15375  37.010   3.740  10.513
48835W        W15376   2.294  29.093   4.265
48836W        W15377  44.908  10.056  14.136
48837W        W15378  16.841  26.678   0.972
48838W        W15379  14.563  36.103  12.956
48839W        W15380   4.692  25.076  12.525
48840W        W15381  22.130  15.821  13.517
48841W        W15382  25.011  35.877  12.020
48842W        W15383  39.046  25.600  14.247
48843W        W15384  34.470  20.267  11.744
48844W        W15385   0.727  21.612   0.469
48845W        W15386  22.599   7.102  10.751
48846W        W15387  18.511  40.542   0.319
48847W        W15388  19.277   1.474  12.587
48848W        W15389  39.126  24.357   0.774
48849W        W15390  34.998  28.958  12.801
48850W        W15391  13.738   1.949  10.657
48851W        W15392  14.867  43.003   2.413
48852W        W15393  27.609  10.397  10.357
48853W        W15394  32.551  21.066  10.930
48854W        W15395  40.706  43.869   4.226
48855W        W15396   7.400  14.316   2.427
48856W        W15397  43.771  17.287   0.927
48857W        W15398   8.423  19.372  13.459
48858W        W15399  30.305  43.706  11.067
48859W        W15400  37.930  17.749   0.003
48860W        W15401   2.796  17.556  13.229
48861W        W15402  37.514  43.054  14.265
48862W        W15403  23.187  18.633  14.327
48863W        W15404  14.392  37.907   1.652
48864W        W15405  10.312  20.259   0.962
48865W        W15406  33.064   8.755  10.439
48866W        W15407   7.634   4.909   4.565
48867W        W15408  23.099   6.659  14.976
48868W        W15409  21.533   3.470   1.393
48869W        W15410  26.775   0.068   1.960
48870W        W15411  31.195  27.148  10.582
48871W        W15412  39.964  38.009  14.216
48872W        W15413   2.976  27.006  11.663
48873W        W15414  28.529   5.719   3.309
48874W        W15415  38.928  22.543   0.227
48875W        W15416   7.189  21.271  13.900
48876W        W15417  39.882   8.260   4.612
48877W        W15418  35.979  10.241   4.676
48878W        W15419  35.194  38.919   4.278
48879W        W15420  41.768   2.000  13.403
48880W        W15421  35.847  41.826  14.004
48881W        W15422  37.666  32.583   3.290
48882W        W15423  37.937  30.439   1.650
48883W        W15424  41.614   4.376   1.871
48884W        W15425   1.571  38.788  13.176
48885W        W15426  30.534   3.043  11.189
48886W        W15427  30.056  41.776   1.469
48887W        W15428  38.422   1.377   0.523
48888W        W15429  36.307  37.129  13.903
48889W        W15430  29.388   9.883  13.206
48890W        W15431  43.427  29.406  13.372
48891W        W15432  31.041  12.296  12.423
48892W        W15433  14.018   4.545   2.427
48893W        W15434  26.063  12.504   4.156
48894W        W15435   8.843  26.180  12.402
48895W        W15436  17.016  39.052  11.103
48896W        W15437   3.309  24.149  11.433
48897W        W15438   8.144  22.020  14.872
48898W        W15439  33.039  24.579   1.342
48899W        W15440  38.542  35.335   3.659
48900W        W15441  36.906  23.462   0.337
48901W        W15442  25.669  36.446   4.374
48902W        W15443  21.306  14.294   4.455
48903W        W15444   0.640  17.713   1.684
48904W        W15445  43.068  41.583  14.895
48905W        W15446  25.444   9.621   1.403
48906W        W15447  18.842  41.582   4.032
48907W        W15448  39.353   0.483  11.956
48908W        W15449   3.259  29.431   3.259
48909W        W15450  17.270  40.131   1.021
48910W        W15451   3.874  11.831  11.082
48911W        W15452  39.962   6.977  12.551
48912W        W15453  34.379  15.906  14.816
48913W        W15454  32.852  22.512  14.628
48914W        W15455  38.113  34.947  13.278
48915W        W15456  34.400   0.411  10.905
48916W        W15457   9.212   1.248  10.796
48917W        W15458   1.515  26.025  14.434
48918W        W15459  23.778  24.295  11.198
48919W        W15460  25.031  42.052   3.654
48920W        W15461  32.883  15.311   3.826
48921W        W15462   3.800   4.354  11.678
48922W        W15463  37.301  30.456  14.257
48923W        W15464  18.334  38.007  14.424
48924W        W15465   1.377  37.876  12.475
48925W        W15466   2.848  19.686  12.868
48926W        W15467  41.747   0.784  11.633
48927W        W15468   3.402  14.529   2.354
48928W        W15469  40.671  17.621  11.786
48929W        W15470   4.287  42.837   2.479
48930W        W15471  35.419   6.453   4.534
48931W        W15472  22.172  26.500  13.411
48932W        W15473  13.461  16.854  10.302
48933W        W15474  10.174  26.475  10.096
48934W        W15475  37.619  25.749   3.211
48935W        W15476  40.959   1.280   4.155
48936W        W15477   8.922  16.780  14.009
48937W        W15478  23.462  21.981   3.224
48938W        W15479  40.368  29.936   2.845
48939W        W15480  21.764  32.866  13.971
48940W        W15481   6.350   6.768  12.985
48941W        W15482  15.038   3.190   2.605
48942W        W15483  31.343  38.976  11.109
48943W        W15484   5.742  44.507  10.669
48944W        W15485  20.924  13.673   5.417
48945W        W15486   3.845  21.367   1.754
48946W        W15487   6.415   4.906   3.606
48947W        W15488  11.053  19.293   2.727
48948W        W15489   9.250  38.290   2.251
48949W        W15490  34.624   4.962   0.253
48950W        W15491  34.956  17.013  13.250
48951W        W15492   6.745  37.093  14.145
48952W        W15493   4.470  42.453  13.149
48953W        W15494  13.272  35.561  10.539
48954W        W15495   7.037  43.730  11.168
48955W        W15496  21.158  30.705   4.210
48956W        W15497  30.032   4.767  14.320
48957W        W15498  15.746  21.726   3.167
48958W        W15499  35.080  27.126   2.946
48959W        W15500  43.799   5.341  11.540
48960W        W15501   6.560  30.147   1.207
48961W        W15502  25.658  20.591   1.403
48962W        W15503  17.644  40.638  13.627
48963W        W15504  29.918  10.799   3.445
48964W        W15505  22.580  11.012   3.016
48965W        W15506  43.462   1.503   2.163
48966W        W15507   8.626  40.634  13.920
48967W        W15508   9.582  20.404   3.286
48968W        W15509  37.993  25.655   4.801
48969W        W15510  23.086  12.050   0.363
48970W        W15511   3.819  37.549  14.077
48971W        W15512  24.882  41.343   4.751
48972W        W15513  35.749  14.801  14.085
48973W        W15514  20.751  36.006  12.978
48974W        W15515  26.621  19.143   3.226
48975W        W15516  36.555  42.706  13.442
48976W        W15517   7.410   9.889  14.082
48977W        W15518  40.520  12.353  13.925
48978W        W15519  31.035  28.698  14.399
48979W        W15520  40.378  31.086   4.520
48980W        W15521  10.017  41.541   4.754
48981W        W15522  40.787  23.049   1.283
48982W        W15523   9.131  38.361   3.361
48983W        W15524  36.155   9.834  12.505
48984W        W15525  37.029  13.866   0.380
48985W        W15526  20.720  37.975  10.298
48986W        W15527   2.858  13.537   1.730
48987W        W15528  37.539  11.728   4.543
48988W        W15529  39.645  40.033  14.427
48989W        W15530  34.543  43.869   2.371
48990W        W15531  32.056   5.770   0.076
48991W        W15532  34.268   4.060   2.269
48992W        W15533  17.178  30.215   3.319
48993W        W15534  36.689  41.131  14.947
48994W        W15535   1.279   5.679  12.151
48995W        W15536  43.455  21.663   1.670
48996W        W15537  35.752  25.744  11.357
48997W        W15538  27.398  25.641  12.139
48998W        W15539  44.347  37.604  10.829
48999W        W15540   1.759   8.832  10.542
49000W        W15541  34.708  24.275   0.291
49001W        W15542   6.252  26.131   1.502
49002W        W15543  11.183  15.061   1.963
49003W        W15544  40.988  24.456   0.880
49004W        W15545  18.422  30.923   3.911
49005W        W15546  40.206  37.831   0.037
49006W        W15547   0.278   5.970   2.957
49007W        W15548   0.577  33.307  14.797
49008W        W15549  39.089   8.284  13.374
49009W        W15550  43.101   1.688   1.292
49010W        W15551   2.714  19.641  10.642
49011W        W15552  34.502  13.079  12.046
49012W        W15553  44.490  10.404  12.456
49013W        W15554  25.405  34.187   1.857
49014W        W15555  17.065  35.575   1.339
49015W        W15556  25.946  38.776  13.870
49016W        W15557  39.886   9.672  11.589
49017W        W15558  38.898  20.136   1.537
49018W        W15559  36.987   0.072   4.752
49019W        W15560  43.336  35.039   4.136
49020W        W15561  11.572  15.494  14.831
49021W        W15562  41.323  30.984  14.144
49022W        W15563   9.388  39.305  12.165
49023W        W15564  38.930  44.325   0.005
49024W        W15565  21.677  15.602   4.484
49025W        W15566  30.403   3.339   0.881
49026W        W15567   7.770  29.458  11.256
49027W        W15568  14.288   5.111   3.682
49028W        W15569  36.854  37.516   1.890
49029W        W15570  26.452  18.904  12.053
49030W        W15571  15.642  16.004   1.787
49031W        W15572  33.949  27.246   4.379
49032W        W15573  40.844  12.905   0.804
49033W        W15574  14.474  20.980  11.329
49034W        W15575  44.338  44.261  11.737
49035W        W15576  18.454  44.595  11.251
49036W        W15577  23.487  30.399  14.756
49037W        W15578  39.074  31.600   1.298
49038W        W15579  24.623   6.224   2.384
49039W        W15580  37.859  31.335   1.888
49040W        W15581   0.840  13.580   3.640
49041W        W15582  22.127   9.633  11.691
49042W        W15583  21.902   6.878  13.150
49043W        W15584  16.938   2.418   0.921
49044W        W15585   6.221  11.897  10.750
49045W        W15586  22.351   0.921   3.153
49046W        W15587   1.009  24.928  11.902
49047W        W15588   3.016  31.256  14.891
49048W        W15589   4.872  12.905   0.765
49049W        W15590  36.691  10.749   4.524
49050W        W15591  42.334  44.827  13.914
49051W        W15592  23.212  11.284  10.573
49052W        W15593  35.589  40.241   0.583
49053W        W15594   4.265  24.943   0.198
49054W        W15595  37.531  24.528  12.960
49055W        W15596  27.633   4.406  14.293
49056W        W15597  31.418  44.094   2.143
49057W        W15598  40.047  29.222  13.092
49058W        W15599   8.825  13.052  12.136
49059W        W15600  31.498  40.064  13.859
49060W        W15601  15.638  31.064  14.936
49061W        W15602  10.836  12.171  12.626
49062W        W15603  41.064  27.126  10.785
49063W        W15604  26.185  35.600  11.395
49064W        W15605  44.706   0.424   2.303
49065W        W15606  22.069  28.392  12.387
49066W        W15607  33.434  23.290  12.972
49067W        W15608  40.440  40.854   0.963
49068W        W15609  27.580  27.214  12.526
49069W        W15610  14.844  18.379  14.871
49070W        W15611  15.282  35.036  11.628
49071W        W15612  13.238  14.536  14.867
49072W        W15613  16.651  39.634   4.186
49073W        W15614  34.852  41.530  14.422
49074W        W15615  19.182  29.174  14.669
49075W        W15616   1.403  34.255   1.071
49076W        W15617  21.222  35.753   0.792
49077W        W15618  20.803  21.472   4.907
49078W        W15619  33.894  21.122  14.034
49079W        W15620   9.746  24.729   3.365
49080W        W15621  26.493   5.729   0.140
49081W        W15622  30.464  15.673   1.037
49082W        W15623   5.089  23.839  14.407
49083W        W15624   3.165   0.187  10.670
49084W        W15625  34.600  26.504  12.947
49085W        W15626  29.979   3.277   0.512
49086W        W15627  17.131  24.738   2.303
49087W        W15628  23.162  38.950  11.625
49088W        W15629   9.176  40.774  13.002
49089W        W15630  44.489   1.715  14.836
49090W        W15631  13.264  12.198  12.459
49091W        W15632  39.599  19.534   3.313
49092W        W15633  34.529  16.472  10.560
49093W        W15634  16.784  14.091   1.258
49094W        W15635   8.872  23.742  10.842
49095W        W15636  25.164   9.092  14.351
49096W        W15637   6.277  42.328  14.277
49097W        W15638  41.954  34.883  13.330
49098W        W15639  34.581  34.605   2.232
49099W        W15640  38.785  17.400  12.628
49100W        W15641   3.439  37.922  10.626
49101W        W15642   0.170  42.840   4.739
49102W        W15643   9.353  21.665   4.364
49103W        W15644  15.859  17.323   3.753
49104W        W15645   9.732  14.796   0.377
49105W        W15646  12.316  23.165   0.350
49106W        W15647  38.602  35.339  12.453
49107W        W15648  10.322  10.092   0.096
49108W        W15649  17.560  27.842  12.581
49109W        W15650  12.829  41.728   0.477
49110W        W15651   4.171  25.422   0.336
49111W        W15652   6.303   2.682   3.494
49112W        W15653  20.004  29.136  12.038
49113W        W15654  14.186  42.592   0.093
49114W        W15655  40.392  15.321   1.206
49115W        W15656   2.830  30.926  14.415
49116W        W15657  15.765  28.351  12.602
49117W        W15658  40.593  30.076   4.606
49118W        W15659  26.381   7.771   1.919
49119W        W15660   5.740  20.565   2.151
49120W        W15661  26.223  21.123  13.373
49121W        W15662  12.493  20.328  13.773
49122W        W15663  16.164  22.652   4.357
49123W        W15664  34.734  33.423  13.497
49124W        W15665  19.335  38.446   2.312
49125W        W15666  28.837  16.008   4.289
49126W        W15667  16.886  12.706  14.542
49127W        W15668  34.371  33.650   3.553
49128W        W15669  16.580  13.170  11.309
49129W        W15670   7.804  10.588   4.017
49130W        W15671  36.762  28.172   1.708
49131W        W15672  21.752   3.171   4.187
49132W        W15673  40.968   3.463   3.419
49133W        W15674  35.937  35.861   3.081
49134W        W15675  33.351  17.114  13.831
49135W        W15676  37.780  35.501  14.427
49136W        W15677  13.853  14.274   2.805
49137W        W15678  24.260  22.544   3.132
49138W        W15679   4.864  44.355   4.621
49139W        W15680   7.231  16.047   4.500
49140W        W15681  40.162  32.977  12.108
49141W        W15682  13.703   6.305   1.986
49142W        W15683  37.770   6.888   4.227
49143W        W15684  20.055  19.326   3.308
49144W        W15685  10.283  30.789   0.780
49145W        W15686  39.816  24.347  10.711
49146W        W15687   8.343  29.700   4.136
49147W        W15688  18.139   0.474   4.647
49148W        W15689  33.481   5.440  12.572
49149W        W15690   5.523  34.608   0.256
49150W        W15691  14.601  19.452  12.538
49151W        W15692  36.839  26.969  14.342
49152W        W15693  16.342  44.986   3.276
49153W        W15694  24.456  26.436   2.701
49154W        W15695  44.261   1.160   3.334
49155W        W15696  13.062  34.226   5.058
49156W        W15697  44.252  15.195   2.511
49157W        W15698  34.142  24.041   2.239
49158W        W15699  33.695  18.167   0.839
49159W        W15700   6.082   2.537   5.113
49160W        W15701  20.286  25.959  14.758
49161W        W15702  34.554  18.817   2.906
49162W        W15703   6.453   6.275  11.283
49163W        W15704  26.912  28.275   4.437
49164W        W15705  24.478  34.889  11.675
49165W        W15706  25.509   8.945  12.533
49166W        W15707  16.852  12.395   3.412
49167W        W15708  41.050  29.127  13.958
49168W        W15709  21.154  43.922  13.605
49169W        W15710  32.069  16.423   0.438
49170W        W15711  42.783   2.823   2.205
49171W        W15712   9.904  38.643   0.363
49172W        W15713  33.899  41.493  11.445
49173W        W15714  14.682  29.720   4.614
49174W        W15715   0.248   0.900   0.967
49175W        W15716  33.580  10.338   3.086
49176W        W15717   3.508  26.908  12.517
49177W        W15718  33.598   5.424  13.431
49178W        W15719  39.167  28.162   1.751
49179W        W15720   7.281   5.417   1.452
49180W        W15721   1.481   9.680  11.635
49181W        W15722   6.670  22.008   1.927
49182W        W15723  12.866  43.792  12.538
49183W        W15724   5.865  25.481  12.761
49184W        W15725  41.898  26.533   4.066
49185W        W15726  22.188   4.741   3.569
49186W        W15727  20.280   3.868   3.659
49187W        W15728  41.578  35.865   2.851
49188W        W15729  39.412  16.590  11.859
49189W        W15730   0.883  30.854   2.173
49190W        W15731  17.765  21.994   3.723
49191W        W15732  28.046  11.811  13.442
49192W        W15733  18.126  21.201  13.917
49193W        W15734  40.589  38.159   3.097
49194W        W15735  19.251  10.899  14.860
49195W        W15736  14.315  10.196  11.429
49196W        W15737   3.249  38.406  11.597
49197W        W15738  12.880  29.643  11.483
49198W        W15739  29.079   3.669  13.393
49199W        W15740   4.403   1.345  13.468
49200W        W15741   3.884  22.192   4.568
49201W        W15742  21.784   4.557  10.048
49202W        W15743   4.932  16.132  11.192
49203W        W15744  38.486  39.762   3.112
49204W        W15745  30.537   5.010  12.562
49205W        W15746  37.598  23.160   3.170
49206W        W15747  12.688  28.542   4.393
49207W        W15748   9.796  36.064   3.275
49208W        W15749   8.258  26.569   0.889
49209W        W15750  39.256  17.595   2.335
49210W        W15751   5.179  16.518  10.245
49211W        W15752  10.617  34.504   1.852
49212W        W15753   4.411  37.807   1.939
49213W        W15754  11.253  15.788  12.067
49214W        W15755  37.542  41.161  11.373
49215W        W15756  35.817  26.617  11.305
49216W        W15757  32.078  21.407  11.569
49217W        W15758  14.170  38.851   3.131
49218W        W15759   2.291  36.115  12.072
49219W        W15760  43.831  41.692  14.599
49220W        W15761  23.120  33.325  11.707
49221W        W15762  33.938  12.051  14.519
49222W        W15763  13.662   2.803   4.547
49223W        W15764  41.393  32.952  14.862
49224W        W15765  12.983  13.090  14.277
49225W        W15766  12.077  10.853  13.297
49226W        W15767  33.418   2.213  13.168
49227W        W15768  41.324   1.721  11.652
49228W        W15769  38.998  40.960   1.226
49229W        W15770   1.543  27.750  12.361
49230W        W15771  19.999  17.782  13.315
49231W        W15772  41.976  33.609  13.899
49232W        W15773   6.385  32.512   0.198
49233W        W15774  44.793  18.281   0.685
49234W        W15775  16.760  13.021   2.695
49235W        W15776  15.954   1.297  14.857
49236W        W15777   7.872  22.402   3.252
49237W        W15778  26.807  36.916  12.926
49238W        W15779  31.200  10.110   3.742
49239W        W15780   1.595  29.107  11.348
49240W        W15781  39.804  24.224  11.210
49241W        W15782  28.431  21.657   2.204
49242W        W15783  28.895  23.886   4.076
49243W        W15784  35.000  18.308   1.386
49244W        W15785  30.627  10.678  11.526
49245W        W15786  38.168  44.477  13.326
49246W        W15787  11.054  31.112  14.546
49247W        W15788  21.612  31.743   1.342
49248W        W15789   2.466   1.383  10.854
49249W        W15790  10.879  40.504   1.333
49250W        W15791  14.614   1.332  13.895
49251W        W15792  22.960  28.177  12.791
49252W        W15793  34.371  24.132  14.052
49253W        W15794   2.164  10.293  14.298
49254W        W15795  23.658  40.007  11.768
49255W        W15796  18.076  29.560  12.093
49256W        W15797  40.438  32.986  10.654
49257W        W15798   1.877  15.699   3.862
49258W        W15799  24.054  35.995   0.424
49259W        W15800  11.353  29.450   2.241
49260W        W15801  20.139  13.965   1.774
49261W        W15802  41.214  13.316   0.822
49262W        W15803   3.990  13.053  13.920
49263W        W15804   1.872  14.994  11.242
49264W        W15805  17.539  29.838   1.364
49265W        W15806  27.254  26.568   3.851
49266W        W15807  41.939  26.858   1.446
49267W        W15808   7.618   1.916  10.542
49268W        W15809  33.818  16.836  11.606
49269W        W15810   7.869  34.415   4.759
49270W        W15811  22.555  12.602  10.680
49271W        W15812   6.239  17.087  14.438
49272W        W15813  33.908  33.874   3.729
49273W        W15814  17.266   6.872  12.511
49274W        W15815  11.546   2.238   0.039
49275W        W15816  25.326  38.923  14.973
49276W        W15817  40.106  15.414   4.464
49277W        W15818  14.704  27.779   3.682
49278W        W15819  29.237  25.220  11.851
49279W        W15820  20.176  39.047   3.246
49280W        W15821  13.091  28.380   2.709
49281W        W15822  28.000  31.962  10.168
49282W        W15823  42.601   5.417   3.926
49283W        W15824  22.746  28.173  11.989
49284W        W15825   6.634  21.798  10.653
49285W        W15826  23.629  35.591   3.722
49286W        W15827  20.545  41.341  10.681
49287W        W15828   9.190  43.852   0.626
49288W        W15829  31.942  10.282   2.579
49289W        W15830  10.371  37.294  13.518
49290W        W15831  10.333  37.500   0.144
49291W        W15832  43.323  40.386  14.585
49292W        W15833  38.084  17.187  12.820
49293W        W15834  41.700  23.797  14.338
49294W        W15835  13.406  43.758  12.501
49295W        W15836  26.099  30.309   4.036
49296W        W15837   9.178   0.907   0.097
49297W        W15838  22.789  15.882  11.003
49298W        W15839  43.350  19.674   4.159
49299W        W15840  20.512  36.000   3.405
49300W        W15841   8.190  12.574  13.816
49301W        W15842  30.345  28.638  12.533
49302W        W15843  19.487   0.937   2.802
49303W        W15844  26.496  27.519  11.552
49304W        W15845  11.270  38.501   1.700
49305W        W15846  19.311  37.177   0.210
49306W        W15847  44.758  13.684  14.835
49307W        W15848  32.738  35.426  10.985
49308W        W15849  20.790  29.246  12.509
49309W        W15850  35.546   3.692  12.054
49310W        W15851   9.932  37.796   2.695
49311W        W15852  43.036  27.009   4.574
49312W        W15853  31.060  26.739  14.762
49313W        W15854  43.305   7.429   4.245
49314W        W15855  17.534   0.829  10.648
49315W        W15856  11.389  31.202  14.160
49316W        W15857  20.818  34.056  12.369
49317W        W15858  40.881  21.296  14.347
49318W        W15859   9.573  24.115  13.893
49319W        W15860  12.820  20.019  11.527
49320W        W15861   2.711  36.971  11.882
49321W        W15862  38.302   7.685  12.938
49322W        W15863  22.991  10.726   0.706
49323W        W15864  43.675  15.498   1.479
49324W        W15865  32.675  44.432   0.802
49325W        W15866  20.209  11.968  10.815
49326W        W15867  31.957  42.910  12.444
49327W        W15868   9.287  32.678  12.941
49328W        W15869  28.405  16.297   1.799
49329W        W15870  29.417  32.359  13.037
49330W        W15871  40.936  21.738   4.513
49331W        W15872  41.385  22.501  12.999
49332W        W15873   1.150   8.799   0.978
49333W        W15874  18.759   4.796  11.096
49334W        W15875   8.529  16.171  14.576
49335W        W15876  41.971  27.461   0.088
49336W        W15877  20.929   1.253  12.096
49337W        W15878   0.709   6.683  13.762
49338W        W15879  20.535  10.510   4.994
49339W        W15880  37.572  34.413   4.227
49340W        W15881   7.522  10.178   3.986
49341W        W15882  38.157  23.032  12.146
49342W        W15883  39.005  35.456   4.175
49343W        W15884  13.797  25.750  14.909
49344W        W15885  27.648  28.067   0.527
49345W        W15886   0.949  29.669  11.310
49346W        W15887   4.305  40.013  11.110
49347W        W15888  35.396  20.596   4.143
49348W        W15889   8.480  32.090   0.187
49349W        W15890   8.734  41.051  13.134
49350W        W15891  16.336  23.173   3.511
49351W        W15892  39.471   2.294  11.587
49352W        W15893  21.087  24.273   4.040
49353W        W15894   2.438   2.979   1.804
49354W        W15895  16.552  14.577   0.818
49355W        W15896   5.718  14.776  11.193
49356W        W15897  22.295   9.779  14.305
49357W        W15898   5.908  20.119  14.954
49358W        W15899  23.102  32.068  14.693
49359W        W15900  28.971  42.081   0.655
49360W        W15901  31.430  32.181   3.166
49361W        W15902  37.499  35.874   0.422
49362W        W15903  23.127  23.736   4.950
49363W        W15904  19.248  35.813  11.574
49364W        W15905  25.244  25.130  13.875
49365W        W15906  12.331  24.106   3.119
49366W        W15907  22.604  22.441  13.020
49367W        W15908   4.125   4.687   1.520
49368W        W15909  22.204  10.768  11.575
49369W        W15910   8.153  26.602  13.376
49370W        W15911  42.476   4.317  13.368
49371W        W15912  33.689  32.647  12.585
49372W        W15913  39.240  21.083   9.909
49373W        W15914  23.533  17.695   3.385
49374W        W15915  37.936  14.587   2.141
49375W        W15916   9.050  16.920  10.647
49376W        W15917  21.176  33.600  10.698
49377W        W15918  38.804   0.194   2.739
49378W        W15919  44.573  10.663  12.893
49379W        W15920  42.569  24.772  11.828
49380W        W15921  13.428  26.945  14.868
49381W        W15922  18.663   1.360   3.511
49382W        W15923   7.470  24.235   2.313
49383W        W15924  18.758   7.348  14.472
49384W        W15925  27.101  17.119   2.235
49385W        W15926  19.167  15.948   3.717
49386W        W15927  12.346  44.747   3.378
49387W        W15928  15.898  26.058   3.230
49388W        W15929  38.800  22.311  12.310
49389W        W15930  44.351   7.524  10.172
49390W        W15931  23.514   3.374  14.477
49391W        W15932  40.262   7.322  14.742
49392W        W15933  26.592  13.195   0.960
49393W        W15934  31.555  34.362   4.581
49394W        W15935  42.292  33.663  14.306
49395W        W15936   7.436  32.302   4.606
49396W        W15937  15.564   5.790  12.613
49397W        W15938   2.331  35.511  14.588
49398W        W15939  28.531  37.505   3.234
49399W        W15940  14.184   2.247   2.361
49400W        W15941  38.808  43.523   2.790
49401W        W15942  40.636  44.858  11.910
49402W        W15943  40.029  19.100  11.300
49403W        W15944   5.358  41.463   3.870
49404W        W15945  31.627   3.429   1.508
49405W        W15946  34.340  21.259   4.801
49406W        W15947  23.040  30.454   0.011
49407W        W15948  12.932  10.775  12.692
49408W        W15949  12.128  19.529  12.021
49409W        W15950  16.707  10.706  14.854
49410W        W15951   3.313  19.343  13.583
49411W        W15952  33.490   4.744  12.496
49412W        W15953  14.973  19.627   4.946
49413W        W15954  41.928  41.501   0.891
49414W        W15955  15.862  31.516  12.092
49415W        W15956   6.883  39.848  13.899
49416W        W15957  32.855   1.223  12.593
49417W        W15958  41.673  33.109   4.057
49418W        W15959  34.125  29.682   3.309
49419W        W15960  26.959  21.035  11.736
49420W        W15961  19.254  32.171  11.887
49421W        W15962  12.611   0.004  14.504
49422W        W15963  33.442  43.352   3.590
49423W        W15964  10.674  41.350  10.706
49424W        W15965  27.943  37.518  13.384
49425W        W15966  12.295  27.718  11.812
49426W        W15967   1.472  23.611   1.832
49427W        W15968  27.268  44.119  11.146
49428W        W15969  26.894  32.921   3.697
49429W        W15970  13.393  44.788  11.182
49430W        W15971  43.316  21.724  11.049
49431W        W15972  40.504  11.830  13.951
49432W        W15973  18.661  24.015   0.788
49433W        W15974  35.632  19.712   0.572
49434W        W15975  36.051  34.569  12.532
49435W        W15976  17.928  21.654   0.103
49436W        W15977  14.170  17.591   3.654
49437W        W15978  23.024   4.272  10.754
49438W        W15979  41.553  25.790  13.521
49439W        W15980  38.212  42.805  13.132
49440W        W15981  34.489   9.783  14.712
49441W        W15982  31.081   8.974   0.563
49442W        W15983  22.798  32.967  11.515
49443W        W15984  23.004  31.383   3.266
49444W        W15985  15.611  17.424   1.250
49445W        W15986   8.717  40.551   4.015
49446W        W15987   8.218  40.391   0.003
49447W        W15988  21.527  15.125   4.660
49448W        W15989   5.910  15.969  11.333
49449W        W15990  25.803   3.399   1.171
49450W        W15991   9.376  42.088  11.616
49451W        W15992  26.520  22.901   3.127
49452W        W15993  10.764   2.069  13.271
49453W        W15994   4.085  25.987   1.213
49454W        W15995  12.987   6.757   1.857
49455W        W15996   6.375  31.516  11.990
49456W        W15997  44.907  12.137  14.473
49457W        W15998  40.586  12.711   1.735
49458W        W15999  40.871   9.662  13.833
49459W        W16000  25.355   7.573  10.232
49460W        W16001  17.260  37.470  10.973
49461W        W16002   2.031  20.594  12.616
49462W        W16003  14.168  27.627   1.276
49463W        W16004  17.440  43.790  12.089
49464W        W16005   6.624  36.557  12.649
49465W        W16006  17.763  21.678   3.219
49466W        W16007  37.472   2.074  13.091
49467W        W16008  29.636  21.821  12.995
49468W        W16009  18.651  14.599  12.094
49469W        W16010  17.308  38.463   1.017
49470W        W16011  10.404  19.615   3.739
49471W        W16012  35.195  12.617  13.359
49472W        W16013  26.593  14.787   1.523
49473W        W16014  31.541  12.606   3.699
49474W        W16015   9.147  13.207  14.283
49475W        W16016  22.221  19.306   4.766
49476W        W16017  34.908  28.673  11.409
49477W        W16018  22.773  34.542   4.116
49478W        W16019  24.536   1.393   4.603
49479W        W16020  22.746  35.537  12.173
49480W        W16021  17.702  32.849   3.824
49481W        W16022   6.373  23.468   3.772
49482W        W16023   9.558  34.841  13.015
49483W        W16024  22.062  15.272  12.768
49484W        W16025  12.666  13.439  13.431
49485W        W16026  34.333  17.141  14.060
49486W        W16027   6.353  10.601   3.100
49487W        W16028  19.620  40.020   1.973
49488W        W16029  25.992   0.485  10.562
49489W        W16030  23.839   0.688   2.820
49490W        W16031  16.365  19.277  12.117
49491W        W16032  36.918  44.684  11.595
49492W        W16033  40.890  41.205   3.883
49493W        W16034  16.625  33.080  12.551
49494W        W16035  33.472   6.227  13.105
49495W        W16036  10.500   2.402   1.366
49496W        W16037   2.439  34.987  13.026
49497W        W16038  39.761  13.789  14.355
49498W        W16039  38.570  12.817   0.419
49499W        W16040  18.227  10.282  14.918
49500W        W16041  21.667  43.025  10.777
49501W        W16042   5.662   7.843   4.216
49502W        W16043  36.307  26.437   1.134
49503W        W16044  29.683   5.950  14.901
49504W        W16045  31.900  17.784   0.294
49505W        W16046  16.253  41.053  11.557
49506W        W16047  23.594  37.342   1.297
49507W        W16048  30.551  19.504   2.184
49508W        W16049   9.154  31.378  10.973
49509W        W16050  11.846  30.391  12.556
49510W        W16051  30.952  43.363   2.471
49511W        W16052   4.725  44.217   3.254
49512W        W16053  23.974   9.685   3.650
49513W        W16054  16.099  34.124   2.762
49514W        W16055  25.026  44.997  13.918
49515W        W16056  39.262  22.564  13.428
49516W        W16057   2.773  21.161  13.749
49517W        W16058  15.636   4.675   4.452
49518W        W16059  41.269  37.058   3.196
49519W        W16060  30.801  12.638  10.686
49520W        W16061  10.623  37.200   0.803
49521W        W16062  25.180  20.557  12.507
49522W        W16063  13.262  36.568   0.300
49523W        W16064  38.537  19.078  14.735
49524W        W16065  28.156  43.909   2.297
49525W        W16066   2.338  17.567  14.568
49526W        W16067  35.655  12.571  13.083
49527W        W16068   8.195  42.503   0.700
49528W        W16069  18.856   3.523   1.152
49529W        W16070  17.007  43.548  12.223
49530W        W16071  32.713  38.809  12.932
49531W        W16072  31.913  19.012  12.158
49532W        W16073  42.673   6.963   1.286
49533W        W16074   1.922  31.321   2.197
49534W        W16075  43.254   9.886  12.836
49535W        W16076  14.407   1.456  10.464
49536W        W16077  41.019  18.509   2.847
49537W        W16078   2.995  18.126   1.138
49538W        W16079  15.645  15.825   3.321
49539W        W16080  18.972   7.277   2.790
49540W        W16081  37.897  44.563   2.901
49541W        W16082  37.095  11.898  14.386
49542W        W16083   7.508  21.803   0.668
49543W        W16084  31.860   8.213   4.585
49544W        W16085  36.866  20.516  14.389
49545W        W16086  11.377  22.348  12.971
49546W        W16087  26.624   2.812   2.586
49547W        W16088   9.292   8.388  11.504
49548W        W16089  23.071  29.280   0.479
49549W        W16090   8.663  30.886  12.510
49550W        W16091  44.825   2.843  11.853
49551W        W16092  18.355  30.064  13.846
49552W        W16093  15.824  34.892  12.817
49553W        W16094   8.907  27.021  13.032
49554W        W16095  41.115  28.203   2.820
49555W        W16096  40.912  24.807  14.599
49556W        W16097   4.768  24.246   4.476
49557W        W16098  20.758   4.612  10.256
49558W        W16099   7.627  42.980  12.389
49559W        W16100  37.524  18.513   3.322
49560W        W16101   8.867  13.261  11.129
49561W        W16102  33.353  28.651   1.429
49562W        W16103  19.543  42.056   4.174
49563W        W16104  37.622  15.824  10.995
49564W        W16105  36.543  32.559  14.978
49565W        W16106  40.036  11.659   1.339
49566W        W16107  37.262  39.307   2.877
49567W        W16108   1.162   6.658  14.046
49568W        W16109  30.548  25.624  12.921
49569W        W16110  27.511  17.959   2.210
49570W        W16111  28.195  14.337  13.388
49571W        W16112   4.453  12.815  13.954
49572W        W16113  38.496   4.855   2.438
49573W        W16114   0.488  30.770  13.604
49574W        W16115   4.051  21.614  13.851
49575W        W16116   3.246  13.446   3.038
49576W        W16117  40.630  37.050  13.988
49577W        W16118  44.389  17.067  10.781
49578W        W16119  21.479  18.072   4.655
49579W        W16120  12.318  11.397   4.693
49580W        W16121  17.779  31.169  11.094
49581W        W16122  34.573  26.492   1.907
49582W        W16123   8.138  16.909  14.780
49583W        W16124  37.321  10.743  13.004
49584W        W16125  14.236  25.032  11.169
49585W        W16126  39.699  44.022  14.732
49586W        W16127  41.563  43.964  10.918
49587W        W16128  19.411  31.340   4.681
49588W        W16129  25.258  27.157   1.565
49589W        W16130   9.219  33.562   2.873
49590W        W16131  31.205  22.544   2.321
49591W        W16132  40.746  28.006  11.396
49592W        W16133  21.194  10.185   4.155
49593W        W16134  20.478   6.150  10.997
49594W        W16135  41.967   5.526   0.830
49595W        W16136  25.733   2.192   2.768
49596W        W16137   2.256  34.492  12.860
49597W        W16138  24.281  16.187   4.126
49598W        W16139  19.564  37.610  11.284
49599W        W16140  41.231  13.351  14.427
49600W        W16141  38.429  20.312   1.396
49601W        W16142  40.454   0.766   1.631
49602W        W16143   4.544   2.526  12.123
49603W        W16144  27.542   4.257   0.151
49604W        W16145  26.502   4.197  11.278
49605W        W16146  31.673  41.368  13.661
49606W        W16147  18.557  16.800   3.940
49607W        W16148  18.373  13.281   3.634
49608W        W16149  19.717  41.511   0.933
49609W        W16150   8.450  32.655  11.115
49610W        W16151  10.343   8.799   3.812
49611W        W16152  16.745  10.107  13.268
49612W        W16153  11.937  44.545  14.162
49613W        W16154   5.177  37.452  10.697
49614W        W16155  26.168  21.080   2.196
49615W        W16156  10.530  36.822  11.579
49616W        W16157  13.783  25.749   4.590
49617W        W16158  31.589  37.759  11.023
49618W        W16159   7.163  30.582   1.810
49619W        W16160  23.536   8.862   4.709
49620W        W16161  28.084  32.610   1.930
49621W        W16162   0.623  12.838  11.351
49622W        W16163  35.057  19.747  10.693
49623W        W16164  14.343  17.956  12.313
49624W        W16165  42.358   8.205  12.071
49625W        W16166  16.592  39.854  13.757
49626W        W16167   5.457   1.680  12.702
49627W        W16168  25.641  15.808   4.563
49628W        W16169  36.718  30.906   4.038
49629W        W16170  30.906  22.924  10.738
49630W        W16171   0.341  22.292   1.266
49631W        W16172  39.477  43.719  11.768
49632W        W16173  40.373  29.216  14.316
49633W        W16174   3.494  25.024  13.892
49634W        W16175  44.254  24.066  11.528
49635W        W16176  18.717  10.102  11.232
49636W        W16177  10.355  14.032   2.712
49637W        W16178   2.511  28.808  11.178
49638W        W16179  11.950  19.591  14.431
49639W        W16180  27.486  23.559  12.535
49640W        W16181  10.098  28.883  14.393
49641W        W16182   1.201  37.845   1.389
49642W        W16183  37.337   5.619  14.869
49643W        W16184  36.758  14.315   0.449
49644W        W16185  24.066  44.014  14.098
49645W        W16186  24.471   9.737  11.174
49646W        W16187  10.440   3.255  14.920
49647W        W16188  44.917  25.908   2.414
49648W        W16189  15.831  26.584  10.428
49649W        W16190   8.476  16.185   0.150
49650W        W16191  15.325   3.324  12.072
49651W        W16192   0.098  27.972  12.031
49652W        W16193  15.889  21.274  13.418
49653W        W16194  28.549  26.964   0.705
49654W        W16195   6.404  22.441  12.054
49655W        W16196   2.470  38.898  11.619
49656W        W16197  36.284  33.560  11.743
49657W        W16198  14.576   3.020  11.713
49658W        W16199  29.241  10.360   3.796
49659W        W16200  39.922  34.177  10.688
49660W        W16201  17.311  11.827   4.838
49661W        W16202  20.802  33.433   3.635
49662W        W16203   3.394  24.238   0.848
49663W        W16204   0.865  36.283   5.111
49664W        W16205  20.218  40.032  13.914
49665W        W16206  33.626  30.503  14.407
49666W        W16207  22.029  27.144  11.612
49667W        W16208  15.563   9.827  12.001
49668W        W16209  33.577  16.580  14.743
49669W        W16210   2.224  12.664  13.382
49670W        W16211   6.781  33.536   2.515
49671W        W16212  14.656  25.827   3.644
49672W        W16213  17.653  27.967   1.854
49673W        W16214   3.520  33.155   4.957
49674W        W16215  41.265  14.828   2.913
49675W        W16216  44.443  13.872  14.345
49676W        W16217  26.327  25.064  14.244
49677W        W16218  31.016  10.800  10.134
49678W        W16219  13.072  30.100   3.697
49679W        W16220  18.608   3.471   4.545
49680W        W16221  21.559  13.364  13.204
49681W        W16222   2.300  25.640   3.540
49682W        W16223  16.616  27.843  12.186
49683W        W16224  36.373   3.774  14.300
49684W        W16225   7.665   7.339  13.402
49685W        W16226  15.115  29.384  10.271
49686W        W16227   8.966  24.979  10.375
49687W        W16228  17.597  31.560  13.797
49688W        W16229   8.190  31.121  12.821
49689W        W16230  30.711   5.163   0.212
49690W        W16231  26.407  36.642  12.747
49691W        W16232  41.493  34.526  10.792
49692W        W16233  27.427  27.468   4.416
49693W        W16234   2.203  20.356   2.143
49694W        W16235  12.896  26.013  14.662
49695W        W16236   1.368  37.584  12.055
49696W        W16237   7.077  33.851  11.227
49697W        W16238  33.953  15.682  13.912
49698W        W16239  22.277  32.358   1.210
49699W        W16240  25.355  20.190   1.202
49700W        W16241   5.247  30.707   4.303
49701W        W16242  35.470  15.829  10.742
49702W        W16243  16.395  20.148  12.261
49703W        W16244   4.172  25.524   3.291
49704W        W16245   1.765  30.050   0.216
49705W        W16246  23.635  26.156   2.449
49706W        W16247  30.840  25.902   1.844
49707W        W16248  24.958  44.059   0.946
49708W        W16249  37.628  13.313   2.879
49709W        W16250  14.183  20.871   3.916
49710W        W16251   9.393   6.289  12.605
49711W        W16252  31.319  20.820  11.198
49712W        W16253  40.699   5.464  14.004
49713W        W16254  39.957  31.565  14.549
49714W        W16255   5.649   1.202   2.217
49715W        W16256  36.883  16.598  13.939
49716W        W16257  22.767  40.529   2.395
49717W        W16258  42.267  11.368   4.112
49718W        W16259  40.557   2.969   0.323
49719W        W16260  38.545  34.822  12.488
49720W        W16261  31.114  43.887  13.485
49721W        W16262  42.153  19.818   4.584
49722W        W16263   8.245  23.439   3.048
49723W        W16264  39.970   6.844   4.017
49724W        W16265  37.985   8.279   0.360
49725W        W16266   0.464  14.993  14.494
49726W        W16267  36.839  19.093   1.263
49727W        W16268  23.297  14.198  12.145
49728W        W16269  10.600   5.231   1.142
49729W        W16270  20.310  26.800   0.143
49730W        W16271  40.778   3.259   4.268
49731W        W16272   3.276  24.762   0.884
49732W        W16273  27.466  40.239   1.224
49733W        W16274  40.107   1.943  13.893
49734W        W16275   5.948  31.324  13.258
49735W        W16276  29.606  33.057  12.427
49736W        W16277  19.131  42.665   1.399
49737W        W16278  10.629  40.047   1.332
49738W        W16279  11.317  20.718  10.591
49739W        W16280  17.062  11.815   0.919
49740W        W16281   3.240   1.284   2.609
49741W        W16282  38.553  26.635  10.718
49742W        W16283  36.374  33.286   0.290
49743W        W16284  36.152  29.099   1.813
49744W        W16285  23.852  27.638  11.692
49745W        W16286  37.970  10.469   2.503
49746W        W16287  14.194   2.238  11.208
49747W        W16288  29.329  19.065  11.329
49748W        W16289  30.901  41.868   1.273
49749W        W16290   3.828  35.057   0.520
49750W        W16291  10.317   3.755  10.638
49751W        W16292  29.655  38.388   2.596
49752W        W16293  17.027  20.032   0.304
49753W        W16294  16.256   1.400   0.730
49754W        W16295  29.903  37.458   3.008
49755W        W16296  16.197  40.179  11.131
49756W        W16297  39.362  25.789  10.372
49757W        W16298  43.442  26.555   0.784
49758W        W16299  25.630  24.249   4.289
49759W        W16300   4.825  39.512  11.894
49760W        W16301  12.283  44.786  11.980
49761W        W16302  23.946   9.052   1.368
49762W        W16303  34.079   1.037  14.933
49763W        W16304  28.446   9.369   4.354
49764W        W16305  40.591  35.603   2.149
49765W        W16306  19.570  28.148  12.532
49766W        W16307  26.621  36.995   4.640
49767W        W16308  22.532  14.484   4.113
49768W        W16309   5.929  41.916   3.183
49769W        W16310  22.203  14.125   1.399
49770W        W16311  15.291   7.316   0.713
49771W        W16312  26.147  40.369   1.219
49772W        W16313  13.304  35.498   2.856
49773W        W16314  29.513  42.483  12.927
49774W        W16315   8.075   2.661   1.746
49775W        W16316   9.825  23.138   2.861
49776W        W16317  10.957  30.995  13.981
49777W        W16318  43.861  41.072   2.904
49778W        W16319   7.337  19.856   1.374
49779W        W16320  31.728  33.455   5.136
49780W        W16321  28.641  19.700  13.496
49781W        W16322  36.596  21.441  13.164
49782W        W16323  24.623  32.929  12.110
49783W        W16324  15.197   3.812   1.764
49784W        W16325  30.224  10.126   3.693
49785W        W16326  26.050   5.141   1.189
49786W        W16327   8.134  38.696  11.163
49787W        W16328  36.573  25.619   4.575
49788W        W16329  37.313  20.994  10.270
49789W        W16330   5.308  16.308   4.654
49790W        W16331  34.851  23.749  10.335
49791W        W16332  42.160  26.270   0.872
49792W        W16333  14.756  30.237   4.611
49793W        W16334  20.854  38.257   2.390
49794W        W16335  18.431  41.198  12.220
49795W        W16336   8.925   3.710   2.661
49796W        W16337   2.433  21.290   4.764
49797W        W16338  20.200  29.317  13.395
49798W        W16339  12.645  24.847  12.827
49799W        W16340  17.322  16.270   1.618
49800W        W16341   3.756  41.092   3.281
49801W        W16342  26.502  32.135  10.489
49802W        W16343  16.756  28.665  12.503
49803W        W16344  26.503  17.076   2.750
49804W        W16345   1.275  25.174   3.735
49805W        W16346   4.377  15.236   0.679
49806W        W16347   0.749  14.767  13.159
49807W        W16348  28.515  33.805  12.036
49808W        W16349  43.293  20.017  11.487
49809W        W16350   4.231  10.389   2.468
49810W        W16351  21.135  19.591   4.495
49811W        W16352  32.984  13.633  13.059
49812W        W16353  24.072  40.894  14.815
49813W        W16354   1.529  16.567  13.893
49814W        W16355  43.712  33.260   0.748
49815W        W16356  21.227   0.458   0.811
49816W        W16357  19.098   8.006   1.922
49817W        W16358  14.448   1.801  11.220
49818W        W16359  41.995  31.979  14.926
49819W        W16360   0.780  28.959   1.120
49820W        W16361  14.219  34.121   1.041
49821W        W16362  25.085  24.470   4.578
49822W        W16363   3.225  33.061  13.579
49823W        W16364  12.324  36.969  13.500
49824W        W16365  30.127   5.816   1.799
49825W        W16366   0.833  33.512  12.033
49826W        W16367   9.313  20.396   4.193
49827W        W16368   6.286  34.526   3.390
49828W        W16369  31.824  27.581   1.276
49829W        W16370  30.626   1.727  10.813
49830W        W16371  34.311  15.521  12.449
49831W        W16372  14.725  20.558  11.658
49832W        W16373   4.300  11.850  11.976
49833W        W16374   6.173  40.774   3.253
49834W        W16375  18.631   8.729  14.065
49835W        W16376  40.334  28.429   0.185
49836W        W16377  37.012  22.958   4.884
49837W        W16378   7.255   3.663   0.969
49838W        W16379  26.246  28.064  13.928
49839W        W16380  27.816  18.778   0.792
49840W        W16381  21.455  19.577  13.497
49841W        W16382  32.352  39.747   4.591
49842W        W16383  38.572  29.207   4.268
49843W        W16384  13.773  10.862  12.937
49844W        W16385   1.173  35.167  11.060
49845W        W16386  29.037  25.202  10.936
49846W        W16387   2.779  23.381  10.696
49847W        W16388  27.491  29.112   3.650
49848W        W16389  39.347  26.115   4.374
49849W        W16390  14.190  23.476   2.823
49850W        W16391  38.033  29.082  14.385
49851W        W16392  18.140  27.914   2.060
49852W        W16393  43.586  19.670  14.725
49853W        W16394  41.708  12.387   0.915
49854W        W16395   5.789  17.046  14.814
49855W        W16396  23.593  21.972   4.685
49856W        W16397   9.476  32.503   0.763
49857W        W16398  39.603  31.554   2.186
49858W        W16399  29.064  33.598  10.386
49859W        W16400   1.289  28.742  14.471
49860W        W16401   4.654   5.990   1.307
49861W        W16402  41.918  19.281  12.577
49862W        W16403  27.025  42.396   3.843
49863W        W16404   0.006   1.108   3.400
49864W        W16405  14.878   6.729  11.586
49865W        W16406   9.419  18.761  11.677
49866W        W16407  12.213  44.696  13.752
49867W        W16408  16.151  13.930  13.023
49868W        W16409  24.924  18.556  14.558
49869W        W16410   8.882  19.173   0.493
49870W        W16411  36.166   2.521  13.402
49871W        W16412  42.843  21.758   3.201
49872W        W16413  40.104  38.957   4.508
49873W        W16414  10.050  14.659  10.761
49874W        W16415  26.021  12.243   0.470
49875W        W16416  30.513  13.836  14.040
49876W        W16417  23.960  19.325   0.909
49877W        W16418  20.653  15.444   9.861
49878W        W16419  43.876  28.013   1.814
49879W        W16420   3.156  29.626   3.723
49880W        W16421   6.869  31.407  13.416
49881W        W16422  44.795  17.724   1.465
49882W        W16423  16.079  23.181   2.035
49883W        W16424  33.802  34.217  10.730
49884W        W16425  18.721  33.308  11.822
49885W        W16426  44.871  15.847   4.028
49886W        W16427   3.365  15.119   0.899
49887W        W16428  31.359  34.512  14.733
49888W        W16429  30.082   1.483   2.432
49889W        W16430   8.242  18.955  12.468
49890W        W16431   3.487  28.138  14.099
49891W        W16432   6.615  43.728  12.448
49892W        W16433  22.220  27.891   2.234
49893W        W16434   6.493  37.575  12.540
49894W        W16435  43.740   1.457   1.731
49895W        W16436  21.419  25.986   1.768
49896W        W16437  41.181  41.580  12.479
49897W        W16438  19.843  16.562   4.055
49898W        W16439   7.566  33.143   2.617
49899W        W16440  25.245  25.930   0.308
49900W        W16441  34.903  12.588   1.131
49901W        W16442  38.458  21.761  10.639
49902W        W16443  14.801  39.333  12.042
49903W        W16444  42.685   7.160  10.142
49904W        W16445  37.626   3.262  11.611
49905W        W16446  11.627   1.352  14.808
49906W        W16447  24.692  39.538  12.904
49907W        W16448  10.519  32.617   0.826
49908W        W16449  35.390  27.145  13.008
49909W        W16450  42.238   2.875  14.494
49910W        W16451  30.092  35.841   4.134
49911W        W16452   6.766   1.544   3.658
49912W        W16453  42.952  14.670  12.668
49913W        W16454  19.504  29.620  12.531
49914W        W16455   0.955  14.263  10.155
49915W        W16456  23.428  16.034   4.490
49916W        W16457  31.950  22.524   0.981
49917W        W16458   6.363  11.458  14.823
49918W        W16459  43.804  25.029  13.082
49919W        W16460   2.677  10.919   1.737
49920W        W16461   6.304  18.019  12.845
49921W        W16462  31.472   3.696  11.116
49922W        W16463  24.197   6.692  11.634
49923W        W16464  29.632  25.792   0.323
49924W        W16465  11.749  39.378   4.342
49925W        W16466  36.044  35.002   4.449
49926W        W16467  35.051   9.747  10.698
49927W        W16468  29.552  29.021  14.918
49928W        W16469  23.780  13.556   1.748
49929W        W16470  43.965  26.488  11.865
49930W        W16471  10.728   3.642  10.309
49931W        W16472  33.379   4.267  12.312
49932W        W16473  21.504   3.759   2.469
49933W        W16474  23.113  33.371   3.096
49934W        W16475   3.882  28.240   4.238
49935W        W16476  12.850  29.453   2.861
49936W        W16477  42.028   4.806   2.372
49937W        W16478  28.635  23.613   4.430
49938W        W16479  30.732  39.459   0.461
49939W        W16480  32.009  29.079   0.490
49940W        W16481   7.695  15.748   2.749
49941W        W16482  38.768  34.676  14.630
49942W        W16483   3.452   4.653  10.151
49943W        W16484   7.274  25.439   3.190
49944W        W16485   8.454  27.134  14.522
49945W        W16486  43.599  43.286  11.024
49946W        W16487  38.635  24.260   2.739
49947W        W16488  31.998  35.339  12.830
49948W        W16489  14.010  39.937  12.004
49949W        W16490  12.852  17.617   3.307
49950W        W16491  26.794  23.697  10.391
49951W        W16492  43.464  32.110  12.528
49952W        W16493  20.611  43.058  10.802
49953W        W16494  23.039  11.770  10.484
49954W        W16495  32.868   6.208   2.278
49955W        W16496  30.612  20.249  13.888
49956W        W16497  26.126  16.023   0.445
49957W        W16498  18.544  43.557   4.122
49958W        W16499  44.273   6.601  11.646
49959W        W16500   1.084   3.454  10.133
49960W        W16501   2.010  37.925   2.405
49961W        W16502  31.625  37.458   1.244
49962W        W16503  37.849   3.337  13.622
49963W        W16504   5.641  24.499   2.046
49964W        W16505  24.429  26.947   0.873
49965W        W16506  23.210  40.515   1.194
49966W        W16507  25.658  25.232   1.709
49967W        W16508  32.560  32.630  13.310
49968W        W16509  12.251  39.943  13.485
49969W        W16510   0.327  17.587  10.700
49970W        W16511  23.514  41.512   1.840
49971W        W16512  26.541  28.677  11.446
49972W        W16513  28.413  26.214   3.915
49973W        W16514  34.897  25.880   3.646
49974W        W16515  32.853  21.543  10.830
49975W        W16516   8.411  30.187  13.542
49976W        W16517  37.469  22.326   1.654
49977W        W16518   4.938  31.507   4.110
49978W        W16519   8.972  17.843   2.245
49979W        W16520  20.996  17.044   2.775
49980W        W16521   9.441   1.478  11.208
49981W        W16522  26.403   7.847   4.981
49982W        W16523  12.101  40.270  11.524
49983W        W16524  13.088  11.163   1.043
49984W        W16525  20.433   9.437   0.729
49985W        W16526   1.001  21.701  14.573
49986W        W16527   8.559  21.302  11.652
49987W        W16528  21.993  16.743   0.761
49988W        W16529  20.270   4.791  11.652
49989W        W16530  42.185  26.377   3.663
49990W        W16531  33.439  31.028   3.011
49991W        W16532  26.223  26.622   3.782
49992W        W16533  15.004  14.167  12.571
49993W        W16534  28.459   3.813  10.700
49994W        W16535  35.035  14.525   2.705
49995W        W16536  42.206   9.282  12.966
49996W        W16537   6.316   3.379   3.708
49997W        W16538   6.981  17.984   1.935
49998W        W16539  41.019  30.693  13.863
49999W        W16540  10.362   0.969  14.816
50000W        W16541  35.345  38.622  11.978
50001W        W16542  11.391  23.768  11.634
50002W        W16543  24.006  35.532  10.781
50003W        W16544   5.319  37.262   2.739
50004W        W16545   3.141  41.916  13.178
50005W        W16546  38.020  33.228   2.671
50006W        W16547  28.062  37.330   3.092
50007W        W16548  33.171  34.529  11.250
50008W        W16549  12.237  41.530   2.421
50009W        W16550  40.784  35.337  13.769
50010W        W16551  11.404  19.716   2.624
50011W        W16552  43.299  35.457  11.649
50012W        W16553  39.018  37.202   0.971
50013W        W16554  13.617  41.633   2.948
50014W        W16555  33.316  36.811   2.653
50015W        W16556  23.537   0.637  14.899
50016W        W16557  28.164  19.591   2.602
50017W        W16558  10.382   2.371  12.595
50018W        W16559  43.457  10.379  11.219
50019W        W16560  37.002  38.876  11.599
50020W        W16561  23.126  24.027  10.745
50021W        W16562  29.313  16.903  14.314
50022W        W16563   7.838  38.744   3.717
50023W        W16564  12.540  31.024  12.496
50024W        W16565  41.520   5.622  14.307
50025W        W16566  22.833   9.004   0.458
50026W        W16567  26.764   3.186   3.330
50027W        W16568  42.120  11.971   2.181
50028W        W16569  24.556  16.326   1.309
50029W        W16570  43.821  27.448   2.730
50030W        W16571  10.679  27.296  14.822
50031W        W16572  36.557  26.101   0.479
50032W        W16573  28.568  20.985  11.294
50033W        W16574  23.372   7.929   3.712
50034W        W16575   1.195  28.302   0.311
50035W        W16576  18.462  40.699   0.894
50036W        W16577   4.996  24.995  11.577
50037W        W16578   2.884  44.777  11.497
50038W        W16579  22.215  22.535   0.887
50039W        W16580  10.588  44.764   1.645
50040W        W16581   6.792  44.864  14.222
50041W        W16582  44.340   2.642   3.780
50042W        W16583  41.407  14.872   3.431
50043W        W16584  30.626  15.883   2.920
50044W        W16585  20.146  39.339   3.717
50045W        W16586   5.848  32.242  13.030
50046W        W16587  37.825  21.084  14.315
50047W        W16588  20.380  32.719  13.935
50048W        W16589  14.791  22.832  11.097
50049W        W16590  26.821   0.787  10.498
50050W        W16591  15.266  22.040   0.326
50051W        W16592   0.527  25.065  14.575
50052W        W16593  16.382  31.748  12.994
50053W        W16594  11.757   4.478  14.872
50054W        W16595   9.367   0.004   3.178
50055W        W16596  22.428  31.236  14.825
50056W        W16597   4.177   4.371   4.689
50057W        W16598  15.691  12.816  12.468
50058W        W16599  23.750   9.209   0.908
50059W        W16600  35.329  15.443   1.198
50060W        W16601   1.429  39.837   1.017
50061W        W16602  16.189   8.279  12.422
50062W        W16603  10.479   4.880  12.989
50063W        W16604  33.475  35.353   2.643
50064W        W16605  40.623  17.916  11.354
50065W        W16606   0.742  14.049  12.168
50066W        W16607  10.231  17.040   1.849
50067W        W16608  10.964  26.131  13.483
50068W        W16609  20.680  35.045   1.781
50069W        W16610  31.998  11.166  10.668
50070W        W16611   1.743  37.038  11.504
50071W        W16612  10.220  43.235  13.584
50072W        W16613   9.625  38.679   2.223
50073W        W16614  28.299  30.573   2.783
50074W        W16615  42.260   3.260  10.284
50075W        W16616  37.160  33.892   1.356
50076W        W16617   9.934   7.811  10.491
50077W        W16618  24.112  43.518  14.777
50078W        W16619   9.162  20.977  14.876
50079W        W16620  31.045  17.731   3.086
50080W        W16621  10.976  16.399   0.811
50081W        W16622  34.837   6.143   3.377
50082W        W16623   1.253   4.262   0.052
50083W        W16624   6.348  40.969   1.841
50084W        W16625  32.839  30.608  14.810
50085W        W16626  13.329  28.555  12.955
50086W        W16627  30.663  23.012  14.888
50087W        W16628  31.062  20.839   4.635
50088W        W16629  30.725  32.060  14.493
50089W        W16630   5.851   9.093   4.826
50090W        W16631  19.045  18.994  13.559
50091W        W16632  32.602   8.155   2.746
50092W        W16633   8.080  10.445  13.010
50093W        W16634  23.664  26.579   1.074
50094W        W16635   6.093  43.716   1.670
50095W        W16636  38.655  35.715  14.296
50096W        W16637  11.315  44.992  12.049
50097W        W16638  12.693   7.860  12.185
50098W        W16639  28.346  22.144   2.334
50099W        W16640  15.643  30.238   2.096
50100W        W16641  35.176   4.305   1.354
50101W        W16642  31.541  42.468   0.173
50102W        W16643   5.351  36.943  10.579
50103W        W16644  25.997  10.879  13.029
50104W        W16645  39.998  33.542  12.798
50105W        W16646  24.571  20.189  14.508
50106W        W16647  21.230  33.331   4.101
50107W        W16648   4.952  42.574  13.310
50108W        W16649   9.715   6.124  11.966
50109W        W16650   3.170  35.522   9.503
50110W        W16651  35.019  31.570   1.396
50111W        W16652  13.359  30.463   4.553
50112W        W16653  31.314  33.960  11.986
50113W        W16654  20.498  12.618   2.866
50114W        W16655  24.982   1.770   3.773
50115W        W16656  26.621  14.074  10.339
50116W        W16657   9.249  43.137   3.360
50117W        W16658  26.856  20.635  13.908
50118W        W16659  11.235  39.942  11.737
50119W        W16660  11.340  26.219   3.043
50120W        W16661  12.223  11.107  11.190
50121W        W16662   8.284  20.286   5.219
50122W        W16663   6.863  27.751  10.953
50123W        W16664  23.273  40.500   2.371
50124W        W16665  13.155  19.103   1.924
50125W        W16666  18.049  34.422   4.730
50126W        W16667  19.120  24.822   4.499
50127W        W16668  28.826  27.527  14.837
50128W        W16669  27.437  24.387   2.973
50129W        W16670  27.545  28.997  11.688
50130W        W16671  37.816  28.209   2.387
50131W        W16672  27.466  44.467   3.302
50132W        W16673  41.099  38.923   3.143
50133W        W16674   0.458   8.381  12.934
50134W        W16675  31.003  22.299   3.670
50135W        W16676  29.468  32.525  11.134
50136W        W16677  33.658  13.208  12.639
50137W        W16678  30.399  40.265   2.379
50138W        W16679  42.311   9.800   1.759
50139W        W16680   4.263   4.750   2.712
50140W        W16681  21.503  39.496  11.700
50141W        W16682  13.499   6.944  13.361
50142W        W16683  37.856  37.461   3.839
50143W        W16684  43.775  21.633   3.874
50144W        W16685  39.598  17.247   5.314
50145W        W16686  18.057  33.885   2.755
50146W        W16687  38.614  29.146   2.411
50147W        W16688  39.986  36.075   2.822
50148W        W16689  32.067   9.130   0.094
50149W        W16690  34.806   6.273   3.860
50150W        W16691  22.637  37.993   1.123
50151W        W16692  26.402  37.909   2.361
50152W        W16693   7.737  40.089   2.194
50153W        W16694  10.297  24.849   9.838
50154W        W16695  20.059  40.016   3.279
50155W        W16696   9.297  27.911  11.908
50156W        W16697  17.536  44.348  13.125
50157W        W16698  42.878  34.405  11.202
50158W        W16699  22.532  29.125  14.043
50159W        W16700   2.659   3.832  11.723
50160W        W16701  11.649  22.143   4.691
50161W        W16702  33.971  17.661   4.082
50162W        W16703  33.668  37.037  12.111
50163W        W16704  32.491   4.275   0.596
50164W        W16705  26.899  29.670   2.829
50165W        W16706  15.447  26.504   1.321
50166W        W16707  21.970  36.757  12.268
50167W        W16708  19.256   5.133   2.210
50168W        W16709  22.586   7.225   4.595
50169W        W16710  43.447   4.426  13.441
50170W        W16711  23.542  20.020   0.408
50171W        W16712  14.851  28.948   4.923
50172W        W16713  34.603  13.065   2.836
50173W        W16714  21.284  22.115  13.881
50174W        W16715  26.914   1.789  11.595
50175W        W16716  30.896  17.663   0.185
50176W        W16717   2.839   9.510   4.543
50177W        W16718  17.721   1.508   4.099
50178W        W16719  21.016  12.704  13.927
50179W        W16720   7.410  35.168   2.354
50180W        W16721  28.554  17.327  12.122
50181W        W16722  34.562   4.012   4.821
50182W        W16723  24.102   2.041   4.175
50183W        W16724  12.157   8.389  13.382
50184W        W16725  41.052  34.804   3.628
50185W        W16726  22.414   5.348   2.744
50186W        W16727  37.251   7.357  11.123
50187W        W16728  17.344  27.996   2.306
50188W        W16729  18.762  12.621   4.975
50189W        W16730   7.886   2.956   2.229
50190W        W16731  17.247  26.082  12.143
50191W        W16732  15.590  30.954   3.303
50192W        W16733   1.894  36.699   1.924
50193W        W16734   7.480  36.644  11.731
50194W        W16735   4.917   3.216   3.590
50195W        W16736   7.758   7.533   4.836
50196W        W16737  42.204  19.218  10.577
50197W        W16738   3.703  14.092  10.150
50198W        W16739   8.346  25.066   3.839
50199W        W16740   8.248   9.735  12.810
50200W        W16741  25.563  19.599   3.568
50201W        W16742  39.889   9.200   4.377
50202W        W16743  18.528   6.324   2.733
50203W        W16744  22.808  17.027   0.388
50204W        W16745   1.427  36.478   4.138
50205W        W16746  17.629  31.977  12.656
50206W        W16747   0.986  38.005   2.673
50207W        W16748   3.609  38.733   3.239
50208W        W16749  34.977   6.170   2.834
50209W        W16750  20.078  43.804  13.529
50210W        W16751  28.156   6.254   5.035
50211W        W16752  31.391  30.951   2.629
50212W        W16753   8.999  18.245   4.690
50213W        W16754  13.215  43.607  11.404
50214W        W16755  33.016  26.597   3.401
50215W        W16756  32.674  33.559   4.571
50216W        W16757   6.188   9.998   3.852
50217W        W16758  32.275  34.678   1.026
50218W        W16759  22.150  18.444   1.446
50219W        W16760  15.842  36.679   1.188
50220W        W16761   6.280  26.443   2.404
50221W        W16762  44.536  21.223   1.255
50222W        W16763  20.202  41.672  13.441
50223W        W16764  15.599  17.940   1.199
50224W        W16765   5.472  43.973  10.378
50225W        W16766   7.288  42.742  11.223
50226W        W16767  44.293   9.641   1.651
50227W        W16768  36.822   7.770   4.080
50228W        W16769  16.925   9.931  13.707
50229W        W16770   3.212   4.342   2.405
50230W        W16771  32.374   5.746  13.839
50231W        W16772  33.896   4.493  14.533
50232W        W16773   7.628  20.030   0.159
50233W        W16774  13.515  15.576  11.575
50234W        W16775   7.158  30.351  10.721
50235W        W16776  42.466   5.761   1.653
50236W        W16777  43.086  26.184  13.004
50237W        W16778  39.228  10.041   4.009
50238W        W16779   0.548  24.661   0.326
50239W        W16780  11.268   4.811   2.120
50240W        W16781  23.745  12.719   3.562
50241W        W16782   9.739  42.607  11.066
50242W        W16783  30.604   4.510   3.137
50243W        W16784   8.282   0.754  11.475
50244W        W16785  27.611  15.228  13.407
50245W        W16786   0.479  29.954   0.922
50246W        W16787  37.311  24.620   1.129
50247W        W16788  19.740   0.474  11.327
50248W        W16789  44.049   1.694  10.680
50249W        W16790  30.682  27.002   2.995
50250W        W16791  41.487   1.257  11.508
50251W        W16792  19.129  31.722  13.010
50252W        W16793  22.789  10.062  10.859
50253W        W16794  17.677   4.334  11.689
50254W        W16795  32.094  19.118  13.088
50255W        W16796  24.448  23.482   3.630
50256W        W16797  21.991  35.045   2.111
50257W        W16798   3.716  42.537  12.908
50258W        W16799   8.206  13.167   3.808
50259W        W16800  11.180  10.607   1.132
50260W        W16801  22.771  34.550  13.333
50261W        W16802   0.789  14.134  10.631
50262W        W16803  44.908  43.598  12.586
50263W        W16804   7.002  26.314   2.859
50264W        W16805  21.584  35.631   4.747
50265W        W16806  15.669  43.860   3.173
50266W        W16807  10.825  11.663  12.494
50267W        W16808  12.841  26.989   3.327
50268W        W16809  44.280   1.757   4.018
50269W        W16810  19.042  36.029  12.497
50270W        W16811   6.653   2.435   3.172
50271W        W16812  35.835  20.256  10.709
50272W        W16813  33.468   8.443   1.797
50273W        W16814  17.377  44.970  10.693
50274W        W16815  16.996  15.361   3.206
50275W        W16816  22.660   1.790  14.446
50276W        W16817  16.848  41.357   0.982
50277W        W16818  37.846  21.683   3.900
50278W        W16819  14.310  11.690   1.338
50279W        W16820  15.654  28.354  10.820
50280W        W16821  28.028  10.681  10.626
50281W        W16822  20.063   5.377  13.437
50282W        W16823   6.009  38.501   3.738
50283W        W16824  24.495  36.471   3.142
50284W        W16825   6.345  30.493   3.707
50285W        W16826  23.502  30.098  13.423
50286W        W16827   6.902  38.577   3.261
50287W        W16828  22.538   5.322  14.954
50288W        W16829  27.559  33.266   0.386
50289W        W16830  22.308  43.056  13.928
50290W        W16831   4.159  21.223   2.761
50291W        W16832   7.794  13.221   4.649
50292W        W16833  11.800  17.209  13.217
50293W        W16834  14.077  37.105   1.298
50294W        W16835  27.213   0.368   3.715
50295W        W16836  16.679  38.954  13.917
50296W        W16837  11.123  21.219   0.533
50297W        W16838  27.597  37.414  12.092
50298W        W16839   6.270   7.901   2.301
50299W        W16840  29.277  18.403  12.422
50300W        W16841   4.677  13.066   1.209
50301W        W16842  39.861  23.169   0.439
50302W        W16843  24.530  41.144  13.476
50303W        W16844  42.179  23.635  14.522
50304W        W16845  37.188  16.819  14.296
50305W        W16846  14.679  41.892   3.608
50306W        W16847  31.414  44.349   3.793
50307W        W16848  31.426   2.986  11.503
50308W        W16849  14.891  26.142   0.967
50309W        W16850  12.852  12.482  12.552
50310W        W16851  42.338  21.671   3.910
50311W        W16852  27.982  27.116  13.107
50312W        W16853  22.585   9.357   1.370
50313W        W16854   5.981  44.769  10.262
50314W        W16855  42.060   6.895   5.133
50315W        W16856  17.750  19.622   2.421
50316W        W16857  30.590  34.089   1.269
50317W        W16858  13.675  33.468  11.319
50318W        W16859   8.162  14.050   2.143
50319W        W16860  13.562   5.696  11.182
50320W        W16861  22.022  13.228   1.214
50321W        W16862  36.490  35.872  13.497
50322W        W16863  27.773   2.414  11.460
50323W        W16864  43.276  17.816   3.248
50324W        W16865   8.334  12.739   4.643
50325W        W16866   1.040  21.448  12.608
50326W        W16867  18.517   2.939  14.212
50327W        W16868  26.666  17.174   0.190
50328W        W16869  24.547  11.444   0.391
50329W        W16870  33.922  41.523   4.010
50330W        W16871  30.466  18.350   0.811
50331W        W16872   6.756  23.771   3.629
50332W        W16873  26.435  39.239  11.644
50333W        W16874  38.498  13.349  14.760
50334W        W16875  38.361   3.212  13.689
50335W        W16876  29.719   6.155   3.053
50336W        W16877  12.092  20.677   1.544
50337W        W16878  30.531  19.919   2.492
50338W        W16879  27.755  43.089  10.101
50339W        W16880  11.825   9.895   4.206
50340W        W16881  41.851  34.379  13.437
50341W        W16882   8.183  32.128  11.648
50342W        W16883  35.334  25.892  12.125
50343W        W16884   0.222  12.584   4.666
50344W        W16885  39.935  26.754  12.124
50345W        W16886  38.777   5.859   1.231
50346W        W16887  12.616  11.648  10.793
50347W        W16888   2.779  20.606  14.957
50348W        W16889  26.259  40.498  12.007
50349W        W16890   5.929   9.520   1.063
50350W        W16891  44.361  43.242  11.667
50351W        W16892  40.731  18.026  14.578
50352W        W16893  18.117  34.570   2.157
50353W        W16894   5.128  19.691  14.382
50354W        W16895   1.411  18.385   3.361
50355W        W16896   3.724  23.490   3.183
50356W        W16897   6.259   0.463  12.090
50357W        W16898  43.441  36.542   1.372
50358W        W16899  27.604   0.194   2.734
50359W        W16900  13.288  34.006   0.523
50360W        W16901  20.795  11.573   4.330
50361W        W16902   6.223   6.822   3.748
50362W        W16903  15.681  13.192  14.735
50363W        W16904  42.472   6.634   1.651
50364W        W16905  35.405  24.438  12.416
50365W        W16906  43.322   1.230  13.452
50366W        W16907  14.201  11.728   2.336
50367W        W16908  24.124  30.558  10.555
50368W        W16909   8.299  12.402  11.528
50369W        W16910  26.725  14.150   3.101
50370W        W16911  40.508  44.855   1.670
50371W        W16912  34.998  19.266  14.436
50372W        W16913   4.385  14.384  13.821
50373W        W16914   2.154   8.935   2.810
50374W        W16915  39.473   9.754   1.044
50375W        W16916  40.451  27.931   2.781
50376W        W16917  21.274  19.354  14.574
50377W        W16918  17.948   4.852  11.622
50378W        W16919  20.103  21.253   1.260
50379W        W16920  25.748  39.492   1.646
50380W        W16921  24.973  20.607  11.857
50381W        W16922  43.489  32.693  14.507
50382W        W16923  22.207  14.331  13.005
50383W        W16924  44.255   5.338   0.099
50384W        W16925  28.887   4.235  14.792
50385W        W16926  14.048  28.212   1.432
50386W        W16927  19.082   6.743   4.707
50387W        W16928   4.687   2.447  14.478
50388W        W16929   7.738   8.622  12.321
50389W        W16930  17.795  21.457   2.736
50390W        W16931  24.775  34.531  11.390
50391W        W16932  36.156  35.341  10.874
50392W        W16933  29.543   8.394   2.754
50393W        W16934  28.573   4.370   4.600
50394W        W16935   2.412   8.779   3.716
50395W        W16936  23.405  19.063   4.254
50396W        W16937  30.875   9.205  14.334
50397W        W16938  20.809  21.497  12.066
50398W        W16939  42.429  17.580  10.866
50399W        W16940   4.780   4.764  13.540
50400W        W16941  16.942  17.348  10.977
50401W        W16942  42.265  24.319   2.906
50402W        W16943  12.306  11.258  13.666
50403W        W16944  12.904   4.283   1.410
50404W        W16945  16.345  13.020  12.078
50405W        W16946  11.977  39.450  10.034
50406W        W16947   2.393  28.124   5.611
50407W        W16948  26.934  33.214   1.374
50408W        W16949  43.956  25.011   2.871
50409W        W16950  44.650  39.054  13.213
50410W        W16951  19.409  32.455  13.856
50411W        W16952  44.602  14.209  14.713
50412W        W16953  21.532  44.108   3.778
50413W        W16954  25.232  28.277  14.559
50414W        W16955  28.353  38.699   3.720
50415W        W16956  41.623  17.026   4.636
50416W        W16957  38.984  32.897  10.610
50417W        W16958  43.487  24.584  12.999
50418W        W16959   7.867  30.086   3.626
50419W        W16960  14.232  37.516   0.315
50420W        W16961  21.723  29.592   3.510
50421W        W16962   5.310  15.393  12.120
50422W        W16963  41.070  12.952   1.780
50423W        W16964  40.316  29.600   3.822
50424W        W16965  13.971  26.398  11.614
50425W        W16966  13.818  36.764  14.303
50426W        W16967   1.619  20.293  12.049
50427W        W16968   2.402  11.444   0.924
50428W        W16969  39.881  26.412  10.738
50429W        W16970  18.433  14.212  14.795
50430W        W16971   0.471   3.950   0.842
50431W        W16972  23.212  40.583  11.093
50432W        W16973  18.002  34.804   2.612
50433W        W16974  33.551  15.870   3.374
50434W        W16975  40.374  26.499   0.069
50435W        W16976  23.536  35.546   4.622
50436W        W16977  12.769  32.509   4.607
50437W        W16978  15.569  24.607   1.303
50438W        W16979  38.959  11.298   0.138
50439W        W16980  27.486  20.555  11.709
50440W        W16981  22.787  25.802  10.433
50441W        W16982  27.549  18.240   3.730
50442W        W16983   8.403  29.155   1.399
50443W        W16984   6.279  43.315  11.122
50444W        W16985  14.597  30.178   2.729
50445W        W16986  19.786   4.015  11.662
50446W        W16987  26.935  32.223  11.659
50447W        W16988  31.442   0.430  11.054
50448W        W16989   3.665  24.330  14.213
50449W        W16990  37.397  14.480  13.425
50450W        W16991  17.492  39.899  11.633
50451W        W16992  41.017  40.861  12.179
50452W        W16993  21.513  36.370   2.803
50453W        W16994  37.172  37.779   0.174
50454W        W16995  11.847  17.585  13.998
50455W        W16996  31.563  22.160  11.600
50456W        W16997  39.138  13.617   3.302
50457W        W16998   5.034   3.835  12.092
50458W        W16999  30.820  20.713  13.865
50459W        W17000  14.384  19.181   2.310
50460W        W17001  36.289   0.893  14.996
50461W        W17002   9.273   7.327   2.794
50462W        W17003  26.284   5.525   2.801
50463W        W17004  15.026  26.523  10.719
50464W        W17005  40.731  18.571   2.052
50465W        W17006  30.035  39.841  13.120
50466W        W17007  23.568  24.412   0.456
50467W        W17008   0.323  12.026  11.923
50468W        W17009  24.363  16.281  14.008
50469W        W17010  39.553  42.558   3.702
50470W        W17011  13.641  40.234   3.987
50471W        W17012  32.862  39.929   4.616
50472W        W17013   8.007   9.760  13.264
50473W        W17014   3.729   0.629  11.143
50474W        W17015  39.476  23.187  12.827
50475W        W17016  33.629  29.005   4.249
50476W        W17017  14.191  37.289   4.547
50477W        W17018  21.252  24.429  10.764
50478W        W17019  44.901   4.913  12.012
50479W        W17020  24.641  34.422  10.925
50480W        W17021   8.153  24.004  13.759
50481W        W17022  14.374   6.780  13.041
50482W        W17023   1.679  30.280   3.563
50483W        W17024  18.521  26.856   3.784
50484W        W17025  42.063  24.428  11.150
50485W        W17026   0.940  22.518  12.429
50486W        W17027  43.017  20.773  14.250
50487W        W17028  33.249  31.651   3.712
50488W        W17029   2.383  27.297   4.830
50489W        W17030  17.872   9.916  14.975
50490W        W17031  42.315   4.927   1.872
50491W        W17032  35.021  14.204  13.827
50492W        W17033   9.909  31.557  11.174
50493W        W17034  40.980   3.931   0.014
50494W        W17035   9.834  29.793  12.623
50495W        W17036  43.830  22.524   3.635
50496W        W17037  18.071   6.149   1.528
50497W        W17038  30.177   8.730   4.224
50498W        W17039  37.128   5.106   4.637
50499W        W17040  21.039  35.601  14.764
50500W        W17041  32.385  12.137   4.465
50501W        W17042  29.206  16.725  14.766
50502W        W17043  35.339   4.717  13.351
50503W        W17044  41.643   4.797   4.099
50504W        W17045  10.259  23.101  10.579
50505W        W17046  14.189   3.289   3.397
50506W        W17047  17.370   3.335   0.910
50507W        W17048  28.483  42.930  12.615
50508W        W17049  11.311  13.403   4.533
50509W        W17050  35.428   3.863   1.455
50510W        W17051  13.249  36.944   1.775
50511W        W17052   2.984  13.713  12.203
50512W        W17053  10.687   3.449  10.807
50513W        W17054  44.406  42.217  12.375
50514W        W17055  38.187  31.506  14.010
50515W        W17056  34.654   4.298   1.996
50516W        W17057  11.097  38.086  11.473
50517W        W17058  16.758  28.915   3.249
50518W        W17059   9.111   5.526   0.301
50519W        W17060  44.224  21.482   0.317
50520W        W17061   1.589  19.296   3.625
50521W        W17062  13.753  40.715   0.682
50522W        W17063   9.412  18.937   2.463
50523W        W17064  21.289  23.159  12.002
50524W        W17065  19.306  22.253   3.674
50525W        W17066  37.585  34.018   2.834
50526W        W17067  39.761  39.732  10.768
50527W        W17068   7.503  25.192  12.634
50528W        W17069  27.190  25.409  11.214
50529W        W17070  12.648  41.238   4.083
50530W        W17071  28.579  40.783   0.396
50531W        W17072  22.057   6.328  13.110
50532W        W17073  40.058  28.754  14.894
50533W        W17074  28.729  27.947   2.544
50534W        W17075  37.358  10.829   0.241
50535W        W17076  21.747  43.527   2.140
50536W        W17077  29.940  43.320   4.384
50537W        W17078   2.508   7.275   4.551
50538W        W17079   9.440  28.950   4.347
50539W        W17080  44.702  33.619  14.995
50540W        W17081   8.537  13.058   2.393
50541W        W17082   2.997  24.726  11.087
50542W        W17083  24.981  40.073  14.054
50543W        W17084  12.599   8.849   2.151
50544W        W17085  40.518  34.076   2.108
50545W        W17086  16.306  21.859   2.329
50546W        W17087  29.904  20.694  11.999
50547W        W17088  36.213  22.827  13.150
50548W        W17089   0.225  30.385   0.977
50549W        W17090   3.144  28.709   3.757
50550W        W17091  31.950  31.016   3.880
50551W        W17092   0.687  28.587   2.015
50552W        W17093  38.815  29.538  12.660
50553W        W17094  24.325  27.143   2.972
50554W        W17095  14.225   4.777   4.059
50555W        W17096  24.040  33.401  12.466
50556W        W17097   3.380  20.494   2.357
50557W        W17098   4.781  22.196  14.891
50558W        W17099  26.654  18.466   0.148
50559W        W17100  24.186  28.142   4.083
50560W        W17101  34.486  19.752   0.043
50561W        W17102  22.577   8.814  11.501
50562W        W17103  34.532   7.662   3.635
50563W        W17104  11.144  12.477   3.239
50564W        W17105  17.683  36.573   4.333
50565W        W17106  20.087  28.604  11.985
50566W        W17107  19.102  31.224  12.956
50567W        W17108  26.549  43.569   1.780
50568W        W17109  29.203  32.567   0.264
50569W        W17110  14.923  30.057   1.442
50570W        W17111  36.675  34.415  14.652
50571W        W17112  39.003  36.667   1.228
50572W        W17113  12.053  33.454   2.724
50573W        W17114  19.211   6.698  11.586
50574W        W17115  31.727  38.946  12.125
50575W        W17116  16.995  26.640  13.267
50576W        W17117  18.532  16.697  11.008
50577W        W17118  36.975  11.990  11.587
50578W        W17119  13.244  39.389   0.967
50579W        W17120  36.127   9.395  14.832
50580W        W17121  30.246  15.189  12.595
50581W        W17122  35.324   3.735  14.014
50582W        W17123  25.894  20.456   1.868
50583W        W17124  14.825  10.784   0.486
50584W        W17125  35.914  10.259   0.755
50585W        W17126   5.680  42.284  13.897
50586W        W17127  19.105  35.380  14.848
50587W        W17128   1.000  19.757   3.454
50588W        W17129   0.911  15.745   2.737
50589W        W17130  35.390   5.783   1.452
50590W        W17131   5.754  37.888   1.865
50591W        W17132   8.241  16.811   2.206
50592W        W17133  42.717   3.215  14.086
50593W        W17134  41.283  34.239  12.163
50594W        W17135  43.680  13.129  10.674
50595W        W17136  26.711  27.121   4.132
50596W        W17137  17.495  21.532   3.662
50597W        W17138  23.134  11.186   3.730
50598W        W17139  15.045  31.643   3.643
50599W        W17140  44.195  26.626  11.053
50600W        W17141   6.749  13.378  14.256
50601W        W17142  11.782  39.499   3.288
50602W        W17143  33.386  13.389  13.970
50603W        W17144   5.774  39.689   4.583
50604W        W17145  44.066  28.585  12.345
50605W        W17146  30.776  40.413  11.577
50606W        W17147  17.070  21.461   0.595
50607W        W17148  21.943  14.124  11.234
50608W        W17149  34.025  27.463   1.285
50609W        W17150  21.608   3.840  13.858
50610W        W17151  10.156  13.329  11.418
50611W        W17152  31.365  37.676   2.593
50612W        W17153  15.336  20.643  13.791
50613W        W17154  14.195  13.490   2.126
50614W        W17155  16.778   3.296  11.923
50615W        W17156  41.479  13.456   1.252
50616W        W17157   4.877  34.564   3.316
50617W        W17158   0.016  44.880  11.815
50618W        W17159  37.458   3.933  13.325
50619W        W17160  36.011   8.849  14.859
50620W        W17161  12.910  35.021  14.704
50621W        W17162  32.550  33.150  13.398
50622W        W17163  13.134  12.369  10.931
50623W        W17164  21.594  10.996   1.210
50624W        W17165  40.475  19.334  12.951
50625W        W17166  19.197  26.690   3.749
50626W        W17167  32.958  10.150   0.830
50627W        W17168  28.150  36.599  11.126
50628W        W17169   3.418   9.161   1.714
50629W        W17170  23.458  11.257  14.121
50630W        W17171   7.859  39.332   0.853
50631W        W17172  35.410  23.697   3.740
50632W        W17173  34.924   0.742   4.080
50633W        W17174  30.986   9.379  11.467
50634W        W17175   7.811   3.439  11.597
50635W        W17176  21.257  27.145   0.443
50636W        W17177  35.529   7.592   3.754
50637W        W17178  44.000   6.844  12.012
50638W        W17179  38.642  33.043   2.610
50639W        W17180  37.842   1.307  12.859
50640W        W17181  24.967  21.768  13.338
50641W        W17182  12.681  17.196   3.063
50642W        W17183  30.499  34.548  10.796
50643W        W17184  38.950  19.486  12.319
50644W        W17185  37.592   0.914  13.846
50645W        W17186   6.817  22.153  14.618
50646W        W17187   5.826  18.738  10.691
50647W        W17188  36.610   6.747   2.662
50648W        W17189  41.684  31.266   1.214
50649W        W17190  19.390  14.646  10.223
50650W        W17191  29.238  36.150   4.676
50651W        W17192  21.033  39.485   0.849
50652W        W17193  14.238  42.434   2.212
50653W        W17194  24.119   4.204  14.498
50654W        W17195  18.389   0.005  11.581
50655W        W17196  39.522   1.803   0.357
50656W        W17197   1.576  26.242   0.333
50657W        W17198  32.029  43.464   2.687
50658W        W17199  43.378  23.474  10.356
50659W        W17200   1.010  25.263  14.672
50660W        W17201  19.768  33.729  14.478
50661W        W17202  21.967  39.965  10.817
50662W        W17203  18.230  24.757   0.858
50663W        W17204  15.017   7.170   2.348
50664W        W17205  24.226  23.090  14.619
50665W        W17206  18.053  30.558  14.562
50666W        W17207   4.262  39.757  11.585
50667W        W17208  15.881   7.506  12.014
50668W        W17209  16.325  29.174   2.662
50669W        W17210  11.364  26.889  14.957
50670W        W17211  38.270  16.998   2.268
50671W        W17212  41.027  33.830  13.924
50672W        W17213  42.842  16.779  12.607
50673W        W17214  28.058   7.965   4.049
50674W        W17215  22.572  19.757  11.993
50675W        W17216  25.926   3.233  12.008
50676W        W17217  32.810  38.348   4.542
50677W        W17218  31.441  44.703   1.255
50678W        W17219  14.999  29.605   5.002
50679W        W17220  21.313  21.477  11.056
50680W        W17221  23.859  29.660  11.836
50681W        W17222  26.306  24.609  13.323
50682W        W17223   8.103  35.755  14.974
50683W        W17224  14.605  29.087  13.391
50684W        W17225  38.404  22.264   2.751
50685W        W17226  39.392  26.217   3.339
50686W        W17227  26.720  21.547   4.369
50687W        W17228  41.516  12.261   1.405
50688W        W17229   2.556  33.349  11.518
50689W        W17230  34.574  24.268   0.789
50690W        W17231  42.792  38.084   3.198
50691W        W17232   8.728  21.503   1.455
50692W        W17233  18.955  17.236  10.053
50693W        W17234  33.609  34.363   2.867
50694W        W17235   3.710  34.984  14.119
50695W        W17236  25.494   2.313  14.372
50696W        W17237   1.843  32.188   3.935
50697W        W17238  27.419  29.647   0.040
50698W        W17239  21.188   6.915  14.944
50699W        W17240  16.858   1.970  12.174
50700W        W17241   6.655  35.435  13.501
50701W        W17242  38.465  30.885  12.508
50702W        W17243  27.149  38.984   2.421
50703W        W17244  13.158  21.414   2.584
50704W        W17245   9.679  20.522   1.791
50705W        W17246   9.966  16.701   2.806
50706W        W17247  19.919  35.093  12.090
50707W        W17248  35.972  36.799   2.714
50708W        W17249  38.967  19.595   2.715
50709W        W17250  13.177   0.750   2.704
50710W        W17251  44.464  41.171  10.569
50711W        W17252  20.245  13.843  13.473
50712W        W17253  10.617  12.402   1.199
50713W        W17254  31.753  21.777   4.216
50714W        W17255   6.884  29.304   1.832
50715W        W17256  35.494  36.150   2.160
50716W        W17257   5.809   6.009  13.889
50717W        W17258  10.862  28.609   2.210
50718W        W17259  12.276   2.939  10.705
50719W        W17260  26.224  44.360  11.508
50720W        W17261  39.541  33.464  13.040
50721W        W17262  25.469   7.789  12.141
50722W        W17263  14.792   5.685   4.174
50723W        W17264  13.167   5.863  14.423
50724W        W17265  13.512  28.950   3.259
50725W        W17266  27.602  10.963  10.740
50726W        W17267  40.351  22.500  11.485
50727W        W17268   6.752   4.691  14.587
50728W        W17269  13.298  13.194  11.593
50729W        W17270  17.500   0.020  12.497
50730W        W17271   7.709  33.270  11.124
50731W        W17272  23.097  40.838  10.668
50732W        W17273  10.293  44.587  13.796
50733W        W17274  38.865  14.651  13.479
50734W        W17275  41.354  39.916  11.893
50735W        W17276  18.632  42.395   2.741
50736W        W17277  30.451   8.848   3.472
50737W        W17278  19.165  18.103   0.401
50738W        W17279  34.171  13.868  13.900
50739W        W17280  38.084  40.866   1.456
50740W        W17281   8.481  12.940   0.797
50741W        W17282  33.528   4.013   3.757
50742W        W17283  18.485  34.930   2.743
50743W        W17284  36.418  34.046   4.310
50744W        W17285  44.335  22.138  11.165
50745W        W17286  16.011  10.457  10.847
50746W        W17287   6.412  11.799   3.981
50747W        W17288  21.312   7.328   0.905
50748W        W17289  28.173  37.327   2.095
50749W        W17290  10.439   3.350  14.076
50750W        W17291  32.874   5.700   2.315
50751W        W17292  23.637  39.224  13.342
50752W        W17293  24.135   9.433   1.896
50753W        W17294   8.701  37.942   1.663
50754W        W17295  23.782  18.611   3.228
50755W        W17296  43.982  25.099  12.598
50756W        W17297  21.676  43.297   0.316
50757W        W17298   9.725  41.905   1.890
50758W        W17299  13.252   3.104   3.654
50759W        W17300  18.540  27.927  11.672
50760W        W17301  17.642   2.726  13.858
50761W        W17302   5.299  32.548  10.480
50762W        W17303  44.964  37.092   1.756
50763W        W17304  25.381  31.695   2.641
50764W        W17305  37.742  20.946   9.948
50765W        W17306   7.343  20.691   3.833
50766W        W17307  14.476  40.133   3.137
50767W        W17308  29.760  24.970   4.502
50768W        W17309  19.429  22.146  13.698
50769W        W17310  36.060  22.924  12.290
50770W        W17311   4.669   9.832  11.639
50771W        W17312  31.069  21.557  14.904
50772W        W17313  41.312  20.786  14.887
50773W        W17314   6.794   0.345   1.942
50774W        W17315   2.447  31.697  13.757
50775W        W17316  35.664  42.782   3.380
50776W        W17317  32.230  19.637  14.304
50777W        W17318  40.869  33.510  11.187
50778W        W17319   9.448  13.333   3.686
50779W        W17320  30.025  25.200  10.533
50780W        W17321  32.163  10.689  11.624
50781W        W17322  43.005  11.998   3.770
50782W        W17323  21.495  28.869   1.425
50783W        W17324   6.158  14.239   1.766
50784W        W17325  22.002  42.920  11.718
50785W        W17326  27.264  22.903  14.802
50786W        W17327  20.582   8.401   3.069
50787W        W17328  36.538  26.157  13.926
50788W        W17329  33.977  27.524  10.552
50789W        W17330  42.157  10.269  10.606
50790W        W17331   8.724  23.787   0.382
50791W        W17332   7.666   5.300   2.332
50792W        W17333  18.242  29.043   4.270
50793W        W17334   3.649  15.100  11.616
50794W        W17335  36.985  23.766  11.930
50795W        W17336   3.129   4.938  11.614
50796W        W17337  34.005  31.319  10.964
50797W        W17338  44.454  12.026  11.137
50798W        W17339  24.113   9.601   2.789
50799W        W17340  13.190   3.854   3.684
50800W        W17341  34.437  18.113  13.844
50801W        W17342  23.407  37.156  12.032
50802W        W17343  34.952   9.044  11.524
50803W        W17344  40.834   8.117  11.510
50804W        W17345  29.104  12.148   2.682
50805W        W17346  19.661  32.909   0.270
50806W        W17347  30.069  15.344   0.402
50807W        W17348  27.483   8.648   2.646
50808W        W17349  43.529   8.593   1.550
50809W        W17350  25.741  23.023  12.790
50810W        W17351   6.913  34.607  14.703
50811W        W17352   4.987  16.046   2.170
50812W        W17353  17.854   6.777  11.543
50813W        W17354  43.868   7.717   1.350
50814W        W17355  31.944  19.770  10.892
50815W        W17356  33.482  18.013   2.531
50816W        W17357   1.378  14.406  12.562
50817W        W17358  21.007  22.805   0.302
50818W        W17359   3.765   9.707   2.185
50819W        W17360  16.115  34.686   3.614
50820W        W17361  17.684  25.413   3.490
50821W        W17362   9.851   4.435   2.247
50822W        W17363  12.845  25.442   2.757
50823W        W17364   0.948  19.988  13.471
50824W        W17365  17.137  40.786   4.112
50825W        W17366  32.438  15.518   0.827
50826W        W17367  33.156  10.587  11.542
50827W        W17368  27.154  44.486   3.724
50828W        W17369   9.858   5.422   2.349
50829W        W17370  28.033   3.446   1.702
50830W        W17371  41.220  32.646  11.550
50831W        W17372   7.827  31.326   0.316
50832W        W17373  34.408   9.354   0.014
50833W        W17374  12.687  41.348   2.187
50834W        W17375   2.163  33.472  14.543
50835W        W17376   6.191  21.851  12.656
50836W        W17377   3.416  38.981   1.958
50837W        W17378  38.324  34.794   4.600
50838W        W17379  21.575  23.103   4.496
50839W        W17380  13.120   9.670  12.856
50840W        W17381   4.015  14.242  14.707
50841W        W17382  11.727  29.503   3.420
50842W        W17383  18.245  40.253   3.791
50843W        W17384  35.816  31.566   1.826
50844W        W17385  34.551  26.424  11.474
50845W        W17386  31.709  26.500   0.540
50846W        W17387  14.853  43.868  14.766
50847W        W17388  17.203  43.363  11.220
50848W        W17389  12.153  14.609  12.574
50849W        W17390  30.673  42.807   4.619
50850W        W17391   1.357  10.194   4.321
50851W        W17392  12.680  36.332  14.072
50852W        W17393  32.743  42.841  13.340
50853W        W17394  37.942  41.332   3.917
50854W        W17395  20.262   4.902  13.422
50855W        W17396   7.435  26.058  11.437
50856W        W17397  42.580  28.230   1.852
50857W        W17398  11.601  31.628   4.307
50858W        W17399  32.909  17.122   3.217
50859W        W17400  34.760  40.303  14.050
50860W        W17401  43.909  13.160  12.485
50861W        W17402  42.061  33.726   0.753
50862W        W17403  23.585  13.601   3.238
50863W        W17404  21.864   2.249   0.075
50864W        W17405   9.900   3.413  10.535
50865W        W17406  19.779  27.671  12.590
50866W        W17407  21.529  43.605  13.388
50867W        W17408  18.876  15.736  12.810
50868W        W17409  15.484  41.830  14.842
50869W        W17410   4.344  20.019   0.898
50870W        W17411   8.306  35.087   2.084
50871W        W17412  20.283  18.232   3.255
50872W        W17413  20.044  12.981  13.989
50873W        W17414  32.802   0.821   4.130
50874W        W17415  14.840  29.265   5.345
50875W        W17416  28.771  20.082   2.244
50876W        W17417  16.006   5.649  11.202
50877W        W17418  15.445  10.143   4.863
50878W        W17419  29.685  17.733   4.245
50879W        W17420  27.236   8.667  11.590
50880W        W17421  25.184  42.843  11.665
50881W        W17422  19.722  18.138  11.108
50882W        W17423  11.397   4.872  10.605
50883W        W17424  40.223  40.207   1.755
50884W        W17425   0.273   9.425  12.942
50885W        W17426  24.557  10.345  11.844
50886W        W17427  24.301  41.535   1.342
50887W        W17428   5.147  11.679  12.107
50888W        W17429  44.505  30.604  10.675
50889W        W17430   6.932  25.564  10.355
50890W        W17431   2.614  29.484   0.430
50891W        W17432  14.113  39.297  13.889
50892W        W17433  22.826   0.093   0.272
50893W        W17434  28.552  14.377  14.160
50894W        W17435  34.716  27.672   2.842
50895W        W17436   8.961   8.809   2.318
50896W        W17437   2.232  35.009   1.452
50897W        W17438  31.892  22.791   1.820
50898W        W17439  39.415  23.038   3.381
50899W        W17440  35.114  41.582   1.238
50900W        W17441   6.261  43.229  10.605
50901W        W17442  23.768   8.162   1.464
50902W        W17443  29.982   9.856   5.078
50903W        W17444  32.370  14.731   4.332
50904W        W17445  23.194  16.974  11.076
50905W        W17446  19.282   5.238   4.615
50906W        W17447  29.561  25.502   1.702
50907W        W17448   6.456  20.480   1.365
50908W        W17449  20.096  23.454   2.643
50909W        W17450  41.504  14.186  13.893
50910W        W17451   4.706  35.442   1.868
50911W        W17452   2.195   0.389   0.267
50912W        W17453  24.424  15.833  13.760
50913W        W17454   3.374  39.898  10.758
50914W        W17455  16.133  12.268   3.711
50915W        W17456  28.161  27.554   1.738
50916W        W17457  22.060  22.946   4.637
50917W        W17458  16.731   6.785   0.230
50918W        W17459  19.152  30.977  10.557
50919W        W17460  15.296  22.322   2.297
50920W        W17461  19.556  28.703   2.973
50921W        W17462  25.716  44.264   3.489
50922W        W17463  13.554  42.791  12.273
50923W        W17464  25.224  15.520   4.628
50924W        W17465  32.579  43.934   3.679
50925W        W17466  42.865  14.166   1.402
50926W        W17467  30.916  32.116  10.675
50927W        W17468   2.844  14.171   0.263
50928W        W17469  10.376  41.731   0.970
50929W        W17470  22.118  18.812  13.492
50930W        W17471  31.951  22.831  10.561
50931W        W17472  32.317   4.989  11.919
50932W        W17473  22.889  12.392  14.103
50933W        W17474   5.004  20.130   2.862
50934W        W17475   7.924  24.123   0.512
50935W        W17476  25.509  24.491   3.683
50936W        W17477  15.751  40.865   4.906
50937W        W17478  31.325  37.456   3.045
50938W        W17479  10.736   2.207  12.241
50939W        W17480  34.140  25.040  12.867
50940W        W17481  16.983   5.895  11.465
50941W        W17482  14.671   2.185  10.917
50942W        W17483  24.869  32.655   2.831
50943W        W17484  40.579  10.718   3.148
50944W        W17485  44.797  30.544   4.758
50945W        W17486  10.558   4.584  13.869
50946W        W17487  15.617  35.113   2.995
50947W        W17488  41.278  20.010   4.491
50948W        W17489  14.328  10.330   1.599
50949W        W17490  15.820  33.756   4.141
50950W        W17491  43.382  20.291   1.675
50951W        W17492  30.481  43.758   0.952
50952W        W17493   6.190  21.055  11.137
50953W        W17494  22.779  44.039   0.498
50954W        W17495  21.263  40.306  13.799
50955W        W17496  24.101   3.884  13.665
50956W        W17497  21.686  17.708  10.347
50957W        W17498  43.318  17.316   3.236
50958W        W17499  20.535  19.782   0.996
50959W        W17500  34.263  29.616  12.461
50960W        W17501   9.641  30.137  12.985
50961W        W17502  16.969  34.789  12.071
50962W        W17503  27.706  22.892   3.708
50963W        W17504  20.011  28.363  10.345
50964W        W17505  10.722  32.404   3.747
50965W        W17506  20.760  16.504   4.162
50966W        W17507  24.229  12.297   2.821
50967W        W17508   6.613  20.711   3.301
50968W        W17509   8.256   7.958   0.760
50969W        W17510  17.368  28.134  12.202
50970W        W17511  11.784  13.920  14.791
50971W        W17512  11.070   7.500  11.001
50972W        W17513   9.708  14.973   0.880
50973W        W17514  39.054  11.667  11.243
50974W        W17515  15.719   5.745   0.987
50975W        W17516  36.404  37.946   2.312
50976W        W17517  38.299  35.141  12.847
50977W        W17518  38.586   0.198   3.196
50978W        W17519  28.399  14.649  12.890
50979W        W17520  18.052  29.728   3.001
50980W        W17521   4.515   0.375   4.939
50981W        W17522  26.002   7.439  13.845
50982W        W17523  14.650  42.222   4.428
50983W        W17524  27.114  28.387   3.543
50984W        W17525  30.688  36.041   3.289
50985W        W17526  15.775  11.035  14.949
50986W        W17527   1.382  12.262  13.647
50987W        W17528   9.388   4.085  10.729
50988W        W17529  25.354  19.930  13.532
50989W        W17530  30.944   2.398   1.790
50990W        W17531  13.118  12.868   1.882
50991W        W17532   0.004  27.200   3.341
50992W        W17533  29.037  34.734  14.627
50993W        W17534  26.402   1.956   0.715
50994W        W17535  15.141  41.517  12.560
50995W        W17536  27.915  19.139   2.606
50996W        W17537  34.534  39.928   1.334
50997W        W17538  27.557  19.052  14.482
50998W        W17539  31.992  43.982  13.843
50999W        W17540  30.201  42.435  14.411
51000W        W17541   9.789  44.582  11.892
51001W        W17542   0.863   7.128   2.294
51002W        W17543  10.400  24.505   3.212
51003W        W17544  10.454   6.609  14.798
51004W        W17545  15.124  36.311   3.626
51005W        W17546   6.766  14.387  14.430
51006W        W17547  17.333  13.607   3.576
51007W        W17548  22.238  35.412   4.177
51008W        W17549   6.111  42.761  12.106
51009W        W17550  19.201  28.375   4.209
51010W        W17551   4.748  19.079   0.941
51011W        W17552  29.994  28.146  13.155
51012W        W17553  41.952  20.715   0.042
51013W        W17554  43.477  12.051   2.255
51014W        W17555  32.861  11.699   3.269
51015W        W17556   8.364  42.685   3.160
51016W        W17557  17.793  14.667  12.715
51017W        W17558  26.585  41.054   2.713
51018W        W17559  11.580  35.520  13.342
51019W        W17560  28.568  32.711  14.052
51020W        W17561  14.235  41.244   0.521
51021W        W17562  26.098  40.587  13.414
51022W        W17563  18.289  37.781   5.080
51023W        W17564  34.962   3.728  14.926
51024W        W17565   3.911   9.367   3.228
51025W        W17566  22.420  10.647   1.737
51026W        W17567   5.648  44.699   4.762
51027W        W17568  22.056  20.727  11.839
51028W        W17569  12.046   0.900   2.246
51029W        W17570   2.389  35.146   0.527
51030W        W17571  25.908  13.692  10.792
51031W        W17572  36.800  40.737   3.700
51032W        W17573  11.295  23.673  12.980
51033W        W17574  21.596  34.362   2.677
51034W        W17575  19.330   5.121   1.187
51035W        W17576  10.305  12.096  12.614
51036W        W17577  15.134  22.655   1.204
51037W        W17578  18.779  19.282   3.596
51038W        W17579   1.860  10.573   1.490
51039W        W17580   1.139  17.022  14.650
51040W        W17581   3.122  38.579   3.353
51041W        W17582  42.398   3.574   1.462
51042W        W17583  12.454  39.962   3.604
51043W        W17584  42.296   8.217   0.383
51044W        W17585   1.715  41.679  11.271
51045W        W17586  17.115  11.097   1.922
51046W        W17587   2.441  17.512   1.697
51047W        W17588  24.610  20.767  13.488
51048W        W17589  25.436  19.100   0.761
51049W        W17590  14.665  43.519   3.205
51050W        W17591  29.631   1.950  13.459
51051W        W17592  37.050  35.625   0.254
51052W        W17593  39.353  17.561   1.259
51053W        W17594  18.466  41.395   3.107
51054W        W17595  18.742  14.333   0.250
51055W        W17596  40.956  44.011  12.413
51056W        W17597  24.016  34.128  11.669
51057W        W17598   8.756  15.197   1.807
51058W        W17599  25.468  38.745   4.746
51059W        W17600  35.891   1.203   1.978
51060W        W17601  38.483  21.541  12.082
51061W        W17602  23.306  36.842   2.736
51062W        W17603  44.796  43.882   1.871
51063W        W17604  41.041  33.123  10.697
51064W        W17605  36.025  29.166  14.437
51065W        W17606  44.062  31.113  14.952
51066W        W17607  40.322  28.560   0.690
51067W        W17608  40.085   1.770  13.035
51068W        W17609  32.817  33.056  11.602
51069W        W17610  27.153  37.045   1.453
51070W        W17611  39.138  17.218   3.313
51071W        W17612  35.057   8.106  11.426
51072W        W17613   5.416   4.495  12.683
51073W        W17614  32.383  30.376   3.780
51074W        W17615  43.777  42.525   3.261
51075W        W17616  40.604   8.874  13.399
51076W        W17617  28.408   0.787   1.313
51077W        W17618  33.419  11.796   0.303
51078W        W17619  32.410   8.273   0.729
51079W        W17620  33.155  19.308  11.121
51080W        W17621  31.927  19.909   1.561
51081W        W17622   5.809  13.698   2.441
51082W        W17623   8.237  39.367   4.497
51083W        W17624  41.618  19.598  14.852
51084W        W17625   0.521   0.304   1.749
51085W        W17626  12.079   7.299   0.788
51086W        W17627  21.126  36.450   4.983
51087W        W17628  20.781   7.659  14.676
51088W        W17629  35.147  44.718  11.422
51089W        W17630  23.714  26.442   3.794
51090W        W17631  25.675  17.088   5.052
51091W        W17632   7.389  41.991  11.656
51092W        W17633  11.100  21.234   4.161
51093W        W17634  34.553  42.993   0.326
51094W        W17635   9.773  43.284  12.948
51095W        W17636  39.985  12.912   4.892
51096W        W17637  16.002  25.792   2.652
51097W        W17638   0.784   7.595   4.995
51098W        W17639  23.402   2.883   2.750
51099W        W17640  10.236  42.719  11.040
51100W        W17641   1.571  12.867   1.365
51101W        W17642  35.614  33.148   1.877
51102W        W17643  24.271   3.007   3.747
51103W        W17644   9.961  28.347  12.400
51104W        W17645  42.632   6.234   0.875
51105W        W17646  14.246   7.178   1.673
51106W        W17647  25.094  25.721  11.629
51107W        W17648  11.768   4.697  12.808
51108W        W17649  10.803  31.902   0.920
51109W        W17650  25.915   1.738  12.532
51110W        W17651  33.685  23.203   1.512
51111W        W17652  35.895  23.572   3.608
51112W        W17653  27.665  10.615   5.277
51113W        W17654  35.436  19.236  11.978
51114W        W17655  26.275  10.825  10.928
51115W        W17656   1.519   6.343   2.150
51116W        W17657  22.530  36.639  13.388
51117W        W17658  41.199  11.198  12.319
51118W        W17659  23.609   9.621   2.667
51119W        W17660  21.262  29.517   3.721
51120W        W17661  28.400  25.118  13.827
51121W        W17662  22.709  27.641  12.025
51122W        W17663  41.295  20.521   0.924
51123W        W17664  29.013  21.657  11.815
51124W        W17665  20.710  13.128   4.585
51125W        W17666  24.634   8.596   0.887
51126W        W17667  22.224  30.585   1.514
51127W        W17668  39.947  21.111   4.650
51128W        W17669  30.396  35.076  10.873
51129W        W17670  19.874  13.143   2.327
51130W        W17671   2.774  30.418  14.470
51131W        W17672  38.384  39.706   2.377
51132W        W17673  19.243  23.574   3.211
51133W        W17674   9.411   4.938   1.790
51134W        W17675  10.675  34.311  11.773
51135W        W17676  17.030  26.975  12.556
51136W        W17677  30.671  16.679  14.622
51137W        W17678  37.891  39.575  11.185
51138W        W17679   0.093  39.546   0.986
51139W        W17680  26.934  12.201   3.686
51140W        W17681  21.627  35.688   0.469
51141W        W17682  20.644  27.442  14.869
51142W        W17683  44.891  27.173   0.600
51143W        W17684   9.111  33.238  10.805
51144W        W17685  43.823   8.238   2.733
51145W        W17686  37.536  18.982   3.091
51146W        W17687  20.785  12.825   2.504
51147W        W17688  22.259  44.487   5.013
51148W        W17689  37.424   9.646  11.131
51149W        W17690  26.632  20.119  13.881
51150W        W17691  14.811   4.405  11.580
51151W        W17692   5.254  30.050  10.700
51152W        W17693  20.500   6.657   2.289
51153W        W17694  33.591  18.289   0.364
51154W        W17695  13.244  39.361  11.083
51155W        W17696  35.654  13.209   2.840
51156W        W17697   7.802  12.542   1.861
51157W        W17698   9.778  33.121   2.396
51158W        W17699  16.850  28.866  12.015
51159W        W17700   9.605   0.574  14.247
51160W        W17701  41.519  35.949  10.682
51161W        W17702  38.371  39.073   4.276
51162W        W17703   1.467  21.089  11.944
51163W        W17704   1.434  19.704   1.439
51164W        W17705   7.411   3.425   2.764
51165W        W17706  21.581  18.769  12.187
51166W        W17707  27.402  34.550   4.589
51167W        W17708  35.892  24.902   0.991
51168W        W17709  40.240  11.090  12.429
51169W        W17710  17.636  31.507  13.286
51170W        W17711  41.440  29.273  13.351
51171W        W17712  41.472  39.847   4.696
51172W        W17713  39.367  15.840   0.766
51173W        W17714  23.691  18.138  10.449
51174W        W17715  24.428  16.206  11.529
51175W        W17716  32.538  20.636   3.080
51176W        W17717  41.180  27.411  12.093
51177W        W17718   2.060   6.585  13.843
51178W        W17719  18.536   6.501  14.148
51179W        W17720  43.773  31.044  14.482
51180W        W17721  40.345  19.804   2.078
51181W        W17722  20.126  19.317   0.041
51182W        W17723  44.574  31.578   4.133
51183W        W17724  42.505  23.665  14.116
51184W        W17725  30.174   0.750   3.204
51185W        W17726  41.034  27.985  14.278
51186W        W17727  30.184  17.973  14.244
51187W        W17728  34.624  11.912  11.661
51188W        W17729  20.818   1.784   4.497
51189W        W17730   8.707  24.985   4.227
51190W        W17731   9.914  13.963  14.305
51191W        W17732  18.277  25.084   0.450
51192W        W17733   4.877  33.499   0.358
51193W        W17734  32.892  18.983   3.269
51194W        W17735  36.408  29.923   0.609
51195W        W17736   8.324  10.292  12.591
51196W        W17737  33.414   3.232  12.458
51197W        W17738  33.629  13.135  13.560
51198W        W17739  32.078  24.742  12.076
51199W        W17740  25.491  36.593   4.840
51200W        W17741  38.440   9.273  10.637
51201W        W17742  18.970  42.222   1.192
51202W        W17743  11.341  18.741  14.602
51203W        W17744   9.418  29.037  13.329
51204W        W17745   8.653  12.809   3.791
51205W        W17746  28.846  19.762   1.075
51206W        W17747  38.687   0.849  12.873
51207W        W17748  43.388  15.763  14.802
51208W        W17749  34.609  33.949  13.558
51209W        W17750  26.620  20.835   2.262
51210W        W17751  10.410  12.147  10.616
51211W        W17752   2.283  42.895   0.777
51212W        W17753  18.739   3.464  12.669
51213W        W17754   8.796  10.862   1.312
51214W        W17755   8.079   1.839   4.467
51215W        W17756   8.935  39.268  13.076
51216W        W17757  24.521  21.283   2.233
51217W        W17758  41.268  37.461   3.565
51218W        W17759  24.339  37.855  12.440
51219W        W17760  17.351  33.143  13.293
51220W        W17761  21.051  40.494   2.849
51221W        W17762  20.474  11.233  14.306
51222W        W17763  29.367  19.101  12.595
51223W        W17764   7.739  21.637   3.756
51224W        W17765  27.031  32.466   1.123
51225W        W17766  27.795  29.377  11.966
51226W        W17767   3.040   0.017   3.112
51227W        W17768  29.096  39.031   3.087
51228W        W17769  14.146   7.226   2.178
51229W        W17770   0.827  42.858  14.486
51230W        W17771  33.206  41.332   3.125
51231W        W17772  32.100  44.687  14.557
51232W        W17773  40.532   2.975  13.459
51233W        W17774   2.921   8.904  10.986
51234W        W17775  18.568  28.019  14.415
51235W        W17776  38.866  33.687   0.792
51236W        W17777  17.582   2.091  13.117
51237W        W17778   8.764  11.479   4.547
51238W        W17779  30.434  20.880  12.968
51239W        W17780  25.533  34.209  10.711
51240W        W17781  34.271  32.048  13.767
51241W        W17782  28.510  36.604  13.399
51242W        W17783  40.762   4.323   2.178
51243W        W17784  16.113  24.266   0.451
51244W        W17785  33.705  32.913   3.661
51245W        W17786  34.449  42.448   4.916
51246W        W17787  12.853  12.033   4.429
51247W        W17788  27.361   6.627   2.248
51248W        W17789  30.173  35.851  13.396
51249W        W17790   2.001  38.405   3.282
51250W        W17791   4.629  23.364  10.977
51251W        W17792  41.818   2.285   0.329
51252W        W17793  42.482  21.621   1.913
51253W        W17794  36.661  41.531   3.326
51254W        W17795   1.865   2.840   0.420
51255W        W17796  24.685   9.144  12.039
51256W        W17797  40.155   0.717   0.496
51257W        W17798  35.190  17.704   2.212
51258W        W17799  23.535  12.932  10.455
51259W        W17800  30.045  44.830  13.112
51260W        W17801  27.564  11.542  13.427
51261W        W17802   2.354  31.100   1.236
51262W        W17803   0.821   6.014  11.722
51263W        W17804  40.915  13.112   2.615
51264W        W17805  17.319  10.848  14.451
51265W        W17806  36.600  22.193  13.952
51266W        W17807  41.902   1.737   2.160
51267W        W17808  20.642  10.266   2.956
51268W        W17809  34.446   2.815   4.500
51269W        W17810  29.960   7.612   3.663
51270W        W17811  37.008  21.562  13.475
51271W        W17812  40.896  31.716  13.841
51272W        W17813  25.203   3.758   1.357
51273W        W17814  11.313  31.878  14.901
51274W        W17815  20.410  28.493   3.256
51275W        W17816  38.380  18.547  14.811
51276W        W17817  11.540  17.956   2.280
51277W        W17818  16.863  27.462  11.771
51278W        W17819   7.448  18.238   0.077
51279W        W17820  38.996  15.978   2.745
51280W        W17821  30.701  13.904   4.652
51281W        W17822  17.506  19.088  14.409
51282W        W17823  44.237  33.401  12.861
51283W        W17824  44.029  12.821   4.214
51284W        W17825  18.618   5.815   2.808
51285W        W17826  10.524  33.419  13.411
51286W        W17827   9.405  17.123   0.611
51287W        W17828  18.097  10.914   1.716
51288W        W17829  13.799  37.157   1.801
51289W        W17830  31.897  22.392  10.885
51290W        W17831   1.789  19.689  13.845
51291W        W17832  38.004  35.340   4.434
51292W        W17833  43.790  35.586  11.563
51293W        W17834  40.807  29.614   3.643
51294W        W17835  32.983  15.493  11.753
51295W        W17836  16.126  15.313   4.521
51296W        W17837  16.723  34.074   3.655
51297W        W17838  12.711  29.696  14.109
51298W        W17839  23.387   0.318  13.354
51299W        W17840  19.393  15.405  12.823
51300W        W17841  35.907   5.757   4.220
51301W        W17842  37.505  20.221  13.965
51302W        W17843   0.812  38.823   4.792
51303W        W17844  38.576  17.072   3.285
51304W        W17845  29.461  37.294   4.156
51305W        W17846  12.911  35.222   1.801
51306W        W17847  30.858   1.173  13.326
51307W        W17848  19.994  14.125  12.431
51308W        W17849  36.918  18.659   0.968
51309W        W17850   6.346  32.918  12.465
51310W        W17851   6.963  14.624  13.362
51311W        W17852  37.073  19.243  13.850
51312W        W17853  12.213  26.631  14.703
51313W        W17854  17.558  30.557  13.827
51314W        W17855   7.223  24.231   1.873
51315W        W17856  13.878  29.704   4.307
51316W        W17857  25.294  32.992  11.618
51317W        W17858  37.841  39.955   1.172
51318W        W17859   8.376   9.136  11.526
51319W        W17860  38.336  28.637  12.387
51320W        W17861  17.793  20.391  14.532
51321W        W17862  44.336  41.851   3.543
51322W        W17863  18.680  17.804   4.829
51323W        W17864  44.939  18.136   1.174
51324W        W17865  24.049   3.043  13.580
51325W        W17866   3.912  25.181   2.045
51326W        W17867  28.370   3.331  13.838
51327W        W17868  43.604   4.408  11.178
51328W        W17869  42.878  14.108  12.014
51329W        W17870  28.461  32.785  12.064
51330W        W17871  28.254  16.594   4.479
51331W        W17872  11.222  12.877   0.965
51332W        W17873   9.359   2.803   1.160
51333W        W17874  15.309  41.803   1.708
51334W        W17875  39.062   1.895  12.148
51335W        W17876  24.275   0.222   3.252
51336W        W17877  20.243  39.711  11.188
51337W        W17878  30.547   2.967  12.400
51338W        W17879  43.564  20.184  10.770
51339W        W17880  43.512  21.271  12.876
51340W        W17881  41.576  41.360  14.897
51341W        W17882  21.177  20.645  12.371
51342W        W17883  19.586  12.883   4.699
51343W        W17884  33.023  34.628   3.618
51344W        W17885  10.105  35.342   1.246
51345W        W17886  23.408   3.162  13.654
51346W        W17887  31.148   0.113   1.066
51347W        W17888   8.751  12.412   4.768
51348W        W17889   5.732   8.428  12.868
51349W        W17890  35.549  25.202   0.508
51350W        W17891  43.927   4.459   3.669
51351W        W17892  18.800   7.035  14.881
51352W        W17893  12.694  15.379  14.762
51353W        W17894  23.306  34.586  11.179
51354W        W17895   9.920  37.854   3.603
51355W        W17896  27.531  22.298  14.813
51356W        W17897  23.140  19.319   1.953
51357W        W17898  20.710  29.857  13.973
51358W        W17899  41.849  33.420  14.403
51359W        W17900  18.759   1.916   1.650
51360W        W17901  30.997  17.760   2.061
51361W        W17902  42.198   7.616  10.745
51362W        W17903  37.194  11.485   0.781
51363W        W17904  32.476  31.554   3.218
51364W        W17905  13.773  41.527   2.454
51365W        W17906  40.567  27.752  13.763
51366W        W17907  38.873   8.325   2.647
51367W        W17908  12.407  27.197  10.865
51368W        W17909   7.796   6.501  13.799
51369W        W17910  21.732  38.908  11.580
51370W        W17911  36.354  10.621  11.604
51371W        W17912   4.338  12.162   4.148
51372W        W17913  19.571  28.464  14.307
51373W        W17914  24.677  42.632  11.629
51374W        W17915  21.220  31.409  14.201
51375W        W17916   9.793  34.807   5.024
51376W        W17917  20.801  30.468   1.931
51377W        W17918  27.497  38.860   0.257
51378W        W17919  24.493  30.967  11.059
51379W        W17920  29.970  11.448   4.161
51380W        W17921  38.613  23.512   3.775
51381W        W17922  10.398   8.017  10.728
51382W        W17923  36.091  33.006  12.590
51383W        W17924  25.112  38.529  14.321
51384W        W17925  36.790   9.354   3.316
51385W        W17926   6.711  20.705  12.484
51386W        W17927  16.679  37.022  11.473
51387W        W17928  31.691  35.012  13.849
51388W        W17929  15.748  42.267  14.816
51389W        W17930  40.773   3.265   1.410
51390W        W17931  18.516   1.746   5.065
51391W        W17932  41.980  15.949  11.889
51392W        W17933  19.383   7.060   4.416
51393W        W17934  40.373   4.499  14.399
51394W        W17935  33.418  42.003  14.260
51395W        W17936   7.781  42.847  13.428
51396W        W17937  38.559  36.890   1.395
51397W        W17938  28.008  29.727  11.477
51398W        W17939  36.458  34.543  13.071
51399W        W17940  13.720  14.841  12.007
51400W        W17941   3.279  14.712  11.250
51401W        W17942  29.379  22.413   4.818
51402W        W17943  27.033  28.558   0.209
51403W        W17944   8.659   3.664   0.867
51404W        W17945  22.975  34.895  14.311
51405W        W17946   2.949  41.192  12.494
51406W        W17947   2.470   5.500   4.151
51407W        W17948  38.134   1.070   2.302
51408W        W17949  32.599  10.366  13.456
51409W        W17950  29.757  37.533  11.362
51410W        W17951  42.354  16.946  12.735
51411W        W17952   2.349  22.959   2.117
51412W        W17953  20.177  24.223   4.628
51413W        W17954  40.816  36.865  10.661
51414W        W17955  34.003  39.255   0.522
51415W        W17956  10.127   9.366   0.835
51416W        W17957  14.280  36.583  11.857
51417W        W17958  14.882  42.327  11.485
51418W        W17959  21.758  24.219   3.258
51419W        W17960  13.445   8.759  13.079
51420W        W17961  16.161  15.615   3.116
51421W        W17962  30.329  42.558   1.184
51422W        W17963  42.840  34.464   4.425
51423W        W17964  41.082  33.969   3.152
51424W        W17965   5.344   3.435   1.740
51425W        W17966  14.838  30.482   5.086
51426W        W17967  31.699  21.778   2.009
51427W        W17968  36.750   8.633   4.561
51428W        W17969  29.660  12.355   0.061
51429W        W17970   3.413  30.590   4.170
51430W        W17971   3.206  36.602  13.359
51431W        W17972   3.607  15.024  11.004
51432W        W17973   3.769  40.888  10.427
51433W        W17974   8.724  21.236  10.800
51434W        W17975  32.481  42.762   1.279
51435W        W17976  18.254  19.119   2.865
51436W        W17977  18.094  40.866   4.597
51437W        W17978  37.041  23.620   1.583
51438W        W17979  18.318  37.046   0.297
51439W        W17980   6.244   1.462  11.822
51440W        W17981  20.636  14.895  12.139
51441W        W17982   0.210   0.315   3.580
51442W        W17983  19.792  42.327  13.551
51443W        W17984   1.695   9.257  13.313
51444W        W17985  31.429  33.060  14.871
51445W        W17986  21.051  27.034   2.256
51446W        W17987  17.457  38.118  14.722
51447W        W17988  33.844  33.755  10.945
51448W        W17989  27.284  32.095   0.853
51449W        W17990  39.462  34.594  11.289
51450W        W17991  36.314  42.474  11.684
51451W        W17992  44.241  19.693   4.338
51452W        W17993  25.244  27.765  14.561
51453W        W17994  41.862  20.237   0.258
51454W        W17995  23.668  37.966  11.690
51455W        W17996  34.417  34.497   3.105
51456W        W17997  10.689  44.315   3.419
51457W        W17998  41.366   7.456  10.800
51458W        W17999  10.990   3.395   1.586
51459W        W18000  38.532  40.832  13.816
51460W        W18001  20.520  27.643   4.888
51461W        W18002  13.095  36.810   1.300
51462W        W18003  19.791  17.783  12.329
51463W        W18004  36.032   3.945   4.566
51464W        W18005  38.919  19.081   3.934
51465W        W18006  29.726   9.479   2.320
51466W        W18007  16.110  32.899  13.850
51467W        W18008  42.767   6.630  14.915
51468W        W18009  44.232  19.707   4.902
51469W        W18010   8.282  27.619   3.184
51470W        W18011  21.104  22.650  11.485
51471W        W18012  41.207  24.205  11.605
51472W        W18013  16.357   9.068  11.130
51473W        W18014  35.875   0.250  12.908
51474W        W18015  38.547   7.560  14.305
51475W        W18016  23.149  24.678  12.506
51476W        W18017  23.188  33.391  14.107
51477W        W18018   3.733  26.104  14.181
51478W        W18019  19.448  17.287  14.977
51479W        W18020  28.995   0.790  12.329
51480W        W18021  35.173  14.379  12.945
51481W        W18022  29.445  15.813  12.650
51482W        W18023  12.616  23.030  13.589
51483W        W18024  13.188  18.522  11.070
51484W        W18025  21.682  27.438   0.431
51485W        W18026  35.894  43.265  11.831
51486W        W18027   9.776  12.732  12.869
51487W        W18028  10.761  18.791   2.812
51488W        W18029   4.683  19.133  11.493
51489W        W18030   5.999  44.514   3.687
51490W        W18031  33.477   6.458  12.639
51491W        W18032  35.378   2.378   2.849
51492W        W18033  15.398   3.407  11.558
51493W        W18034  35.934  26.102   4.436
51494W        W18035  12.633  19.187  14.953
51495W        W18036  20.933   6.836   4.633
51496W        W18037  10.240   3.142   0.392
51497W        W18038   8.283  23.908  12.793
51498W        W18039   6.438  25.482  13.732
51499W        W18040  22.623  12.907  13.409
51500W        W18041  17.200  29.829   0.926
51501W        W18042  27.786  14.640   4.192
51502W        W18043  28.631  34.170   0.973
51503W        W18044  20.327  21.150  11.965
51504W        W18045  26.958  20.120   3.929
51505W        W18046  38.890  35.919   0.889
51506W        W18047  30.917  27.743   1.413
51507W        W18048  27.924  19.289   1.372
51508W        W18049  42.551   6.641  13.321
51509W        W18050  24.562  24.123  10.648
51510W        W18051  38.064  16.328  12.529
51511W        W18052   5.023  36.182  12.101
51512W        W18053   8.208  21.745   2.394
51513W        W18054  44.230   5.343  14.562
51514W        W18055   4.836  21.746  12.293
51515W        W18056  27.986   9.170  10.587
51516W        W18057  28.518  23.612  12.388
51517W        W18058  13.016  18.729   3.245
51518W        W18059  17.671  41.958  11.724
51519W        W18060  23.083  35.586  11.288
51520W        W18061  22.700  25.600   2.983
51521W        W18062  17.636   4.897  13.502
51522W        W18063  40.645   7.194   9.909
51523W        W18064   3.773  18.378  11.689
51524W        W18065   8.021  23.622   0.781
51525W        W18066  40.343  44.797  11.060
51526W        W18067  43.436  35.197  14.999
51527W        W18068   6.459   2.901   9.827
51528W        W18069  44.714  29.000   1.131
51529W        W18070   6.846  10.488   3.235
51530W        W18071  35.987   3.519   4.086
51531W        W18072  20.335  36.613  13.899
51532W        W18073  34.354  36.145   3.697
51533W        W18074  19.263  30.090  13.713
51534W        W18075  23.353  22.654   1.783
51535W        W18076  44.811  12.492   3.498
51536W        W18077  26.568   7.378   3.097
51537W        W18078  34.842  30.697  11.470
51538W        W18079   9.924   7.827  12.623
51539W        W18080   2.521  42.332   1.937
51540W        W18081  44.838  42.814  14.279
51541W        W18082  40.611  27.274   1.365
51542W        W18083  37.484   3.497   9.803
51543W        W18084  12.184  41.035  12.389
51544W        W18085  17.207  42.027  11.555
51545W        W18086  34.560   9.695  14.206
51546W        W18087  12.831   8.416  11.142
51547W        W18088  37.572  36.139   4.663
51548W        W18089  37.077  13.865   4.099
51549W        W18090  21.027   2.423  12.906
51550W        W18091  30.965  44.854  10.262
51551W        W18092  16.833   2.351   3.128
51552W        W18093  28.936  18.430   0.880
51553W        W18094  31.656  33.368  13.939
51554W        W18095  14.840  32.118   1.819
51555W        W18096  18.134   8.191  10.833
51556W        W18097  15.715  22.383   1.171
51557W        W18098  15.679   4.425  13.399
51558W        W18099  42.937  30.957  10.565
51559W        W18100  36.505  41.909   2.650
51560W        W18101  38.010   7.663  12.501
51561W        W18102  40.563   5.262   2.223
51562W        W18103  20.709  15.591   4.044
51563W        W18104  29.171   2.439  14.880
51564W        W18105  43.877   2.506   3.609
51565W        W18106   4.823  10.645   1.864
51566W        W18107  19.190  36.137   2.230
51567W        W18108  17.860  27.022   2.266
51568W        W18109  27.693  33.670  12.441
51569W        W18110  10.867   6.106  12.973
51570W        W18111   2.083  27.064   1.271
51571W        W18112  25.471  27.657  12.407
51572W        W18113  31.214  13.247   0.947
51573W        W18114  20.832  20.968  11.625
51574W        W18115  22.232  23.661   3.817
51575W        W18116   5.950   3.208  10.593
51576W        W18117   7.292  34.685  10.866
51577W        W18118  18.228  19.684  14.856
51578W        W18119  17.062  20.922  14.236
51579W        W18120  29.060  12.222  11.280
51580W        W18121  43.673  21.250  10.129
51581W        W18122   0.956   0.419   4.107
51582W        W18123  15.729   4.173  14.865
51583W        W18124   2.466  40.873   2.908
51584W        W18125  10.708  22.699  13.584
51585W        W18126  21.713  40.357  11.522
51586W        W18127   3.888  38.364  13.514
51587W        W18128  40.262  36.517   3.679
51588W        W18129  39.431  35.046   0.916
51589W        W18130   2.723  15.565   4.842
51590W        W18131   5.921  26.959   3.253
51591W        W18132  36.812   5.398   2.740
51592W        W18133   3.326   2.936   1.847
51593W        W18134  22.524   6.084   0.657
51594W        W18135  15.720  14.716   4.920
51595W        W18136  19.707  35.186   2.188
51596W        W18137  41.671  12.668   4.859
51597W        W18138  18.592  31.142  10.619
51598W        W18139  18.487  14.563   3.837
51599W        W18140   6.875  16.203   2.433
51600W        W18141  38.363  29.702  11.481
51601W        W18142  33.357  41.741   1.625
51602W        W18143  31.762   7.235   2.488
51603W        W18144  24.986  20.441   0.465
51604W        W18145  36.926  44.536  12.674
51605W        W18146  28.665   0.728  14.541
51606W        W18147   4.186  31.964   1.786
51607W        W18148  44.301  21.759   2.112
51608W        W18149   5.487  16.500   3.333
51609W        W18150  10.669  28.169   3.257
51610W        W18151   4.165  42.374  13.998
51611W        W18152  18.975  17.255   1.815
51612W        W18153  34.157  34.581  10.833
51613W        W18154  32.847  20.454   0.591
51614W        W18155  26.549   4.671  14.758
51615W        W18156  39.084  15.776  14.393
51616W        W18157  20.209  10.963   4.957
51617W        W18158  34.557   0.516  13.579
51618W        W18159  16.490  21.613   3.651
51619W        W18160   7.311   9.894   0.525
51620W        W18161  42.984  18.216   0.852
51621W        W18162  38.940  23.144   3.612
51622W        W18163  30.641   5.397  11.768
51623W        W18164  44.766  44.451   4.451
51624W        W18165  22.090  37.838   4.511
51625W        W18166  15.806  41.316  11.589
51626W        W18167   5.195  37.406   4.094
51627W        W18168  40.892  13.591   2.825
51628W        W18169  39.150  25.576  11.868
51629W        W18170  36.578   1.697  12.003
51630W        W18171  28.018  10.497   2.870
51631W        W18172  42.291  44.704  10.712
51632W        W18173  12.100  41.217  13.384
51633W        W18174  28.404  28.682  10.810
51634W        W18175  32.198   7.845  13.638
51635W        W18176   9.169   6.057   1.333
51636W        W18177   0.335  17.047   4.059
51637W        W18178  28.279  14.050  10.285
51638W        W18179   2.648  17.206   0.003
51639W        W18180   5.259  16.722   2.680
51640W        W18181   7.442  34.364  12.277
51641W        W18182   6.745  44.864   2.719
51642W        W18183   9.937   3.198   4.304
51643W        W18184   1.751  42.677   0.735
51644W        W18185  14.694  40.022  11.200
51645W        W18186   2.776  15.538   3.433
51646W        W18187  12.321  31.070   3.264
51647W        W18188  31.101   8.280  12.053
51648W        W18189  34.971  19.028  11.964
51649W        W18190  35.475  34.313  14.280
51650W        W18191  43.042  34.466  12.575
51651W        W18192  15.876  29.147  14.448
51652W        W18193   3.761   1.097   2.685
51653W        W18194  18.181  17.776   4.768
51654W        W18195  21.085  36.356   0.260
51655W        W18196  28.627  11.209  10.964
51656W        W18197  25.362  19.147   3.708
51657W        W18198   2.981  11.858   3.537
51658W        W18199   2.616  22.042   3.597
51659W        W18200  29.414  38.538  13.562
51660W        W18201  23.508  29.493   0.244
51661W        W18202  32.187  37.586  11.120
51662W        W18203  29.012  31.488   3.292
51663W        W18204  17.264  33.474   4.233
51664W        W18205   7.220  29.874  14.313
51665W        W18206  40.987  24.822  11.733
51666W        W18207   2.448   5.725   0.997
51667W        W18208  40.787  39.404  10.778
51668W        W18209   3.319  31.695  14.388
51669W        W18210  17.426  15.862   4.749
51670W        W18211  18.352  23.995   4.110
51671W        W18212  31.642  12.602   2.766
51672W        W18213   1.719  23.906   3.495
51673W        W18214   1.646  12.532  11.197
51674W        W18215  22.252  20.568   1.617
51675W        W18216   6.770  18.200   0.752
51676W        W18217  38.376   3.059   0.695
51677W        W18218  22.224   4.021   2.794
51678W        W18219  29.238  13.260  12.149
51679W        W18220   5.165   0.274  11.127
51680W        W18221   5.098  24.135  14.903
51681W        W18222  12.071  34.590   4.009
51682W        W18223   0.321  16.889  13.386
51683W        W18224   2.696   0.266   3.901
51684W        W18225  26.157  18.073   2.934
51685W        W18226  33.840  32.990  14.462
51686W        W18227  15.550  44.967   2.875
51687W        W18228   0.838  25.575   3.131
51688W        W18229   7.303  44.258  12.624
51689W        W18230  27.193   5.660   3.089
51690W        W18231  15.360  27.025   4.072
51691W        W18232  33.388  27.738  10.577
51692W        W18233   9.286   6.103  11.676
51693W        W18234  31.513  13.862  12.857
51694W        W18235  22.111  33.463  14.046
51695W        W18236  26.005  42.549  12.880
51696W        W18237  29.654  27.664   2.219
51697W        W18238  44.257  34.965   2.811
51698W        W18239  36.098  27.095  11.645
51699W        W18240  10.691  29.438  10.612
51700W        W18241   8.596  18.211   0.834
51701W        W18242   0.438   2.096   9.790
51702W        W18243  23.695  32.111  10.109
51703W        W18244  11.416  28.420   3.773
51704W        W18245   9.148  35.633   4.873
51705W        W18246  19.280  26.464   2.219
51706W        W18247  20.446  14.062  11.658
51707W        W18248  22.598   0.575   0.811
51708W        W18249  36.003  19.085  14.369
51709W        W18250  11.492  18.164   1.217
51710W        W18251  34.380  30.257   2.583
51711W        W18252  31.538  39.986  10.986
51712W        W18253  37.112  27.880  12.017
51713W        W18254   0.336  10.396   2.319
51714W        W18255  17.330  24.191  12.941
51715W        W18256  10.449  33.962   4.042
51716W        W18257   8.666   5.827   0.381
51717W        W18258  29.099  22.161  11.630
51718W        W18259  42.467  17.453  12.738
51719W        W18260  18.580   1.218   3.028
51720W        W18261  29.088  39.011  14.353
51721W        W18262  29.964  22.941   4.054
51722W        W18263  24.942   3.638   0.882
51723W        W18264  25.747   7.247  10.038
51724W        W18265  31.703  11.485   4.979
51725W        W18266  32.367  14.525  13.000
51726W        W18267  25.488  44.234  13.913
51727W        W18268  27.186  21.559  10.724
51728W        W18269  43.822  28.520  12.792
51729W        W18270  38.950  23.625  13.009
51730W        W18271  43.171  15.579   1.528
51731W        W18272  42.072  12.589  11.633
51732W        W18273  27.009  41.479  11.031
51733W        W18274   0.668   7.187  10.115
51734W        W18275  39.583  10.782   1.689
51735W        W18276  44.962  32.764   0.448
51736W        W18277   4.746   3.845   0.837
51737W        W18278  43.421  39.995   0.415
51738W        W18279  40.085  44.350  12.787
51739W        W18280  19.474   8.267  11.140
51740W        W18281  37.618  30.659  13.927
51741W        W18282  38.634  36.976   4.390
51742W        W18283  29.171  26.172   4.452
51743W        W18284  25.629  44.721   3.246
51744W        W18285  24.029   8.701   2.715
51745W        W18286  10.552  41.396   4.118
51746W        W18287   9.215   7.189  10.553
51747W        W18288  26.007  18.816  13.862
51748W        W18289  27.805  32.533  13.734
51749W        W18290  26.097   1.021   3.333
51750W        W18291  40.313   4.884  12.082
51751W        W18292  25.221  17.124   0.467
51752W        W18293  31.342  10.602   3.016
51753W        W18294  29.598  16.056   2.375
51754W        W18295  14.126  32.699   4.594
51755W        W18296   1.832   5.308   0.615
51756W        W18297  35.573   0.113   1.176
51757W        W18298  20.033   6.659   9.998
51758W        W18299   5.650  24.949   1.287
51759W        W18300  32.037  43.363   3.200
51760W        W18301  23.189  28.710   3.519
51761W        W18302  33.865  41.600   3.517
51762W        W18303  21.561   4.464   1.329
51763W        W18304  20.484  36.052   2.845
51764W        W18305  27.590  10.456  10.876
51765W        W18306  25.184  40.495  13.330
51766W        W18307  35.038   6.306  12.435
51767W        W18308  17.291  42.776  12.075
51768W        W18309  38.345  13.390  11.230
51769W        W18310   6.318  14.758  10.660
51770W        W18311  21.259   2.022   1.742
51771W        W18312  32.972   4.793  11.120
51772W        W18313  10.390  41.440  13.832
51773W        W18314  37.530   8.355  13.299
51774W        W18315   0.295  30.791   4.797
51775W        W18316  33.818  38.333   0.247
51776W        W18317  15.767  35.112   1.977
51777W        W18318  37.280   7.596  12.098
51778W        W18319  21.294  24.642  14.723
51779W        W18320   4.197   0.529  13.875
51780W        W18321  21.981  43.986   2.369
51781W        W18322  35.822  21.560   2.758
51782W        W18323  44.810  40.458  12.656
51783W        W18324  30.335  16.302   2.800
51784W        W18325  15.712  31.843   3.587
51785W        W18326  42.511  42.853   4.250
51786W        W18327  31.839  43.429  14.060
51787W        W18328   6.744  12.541  11.161
51788W        W18329   5.706   2.107  11.636
51789W        W18330  41.479  11.245  11.002
51790W        W18331  11.232  14.343   3.755
51791W        W18332  26.728  30.029  14.422
51792W        W18333  41.421  24.034   4.142
51793W        W18334   4.678   9.287   0.140
51794W        W18335  22.502  35.122   0.939
51795W        W18336  10.176  28.423  11.222
51796W        W18337   2.602  33.641  10.305
51797W        W18338  18.627  40.545  13.146
51798W        W18339  16.198  44.827  14.596
51799W        W18340   4.713  26.705  10.074
51800W        W18341  31.083  37.378   2.241
51801W        W18342  40.764  38.422  10.765
51802W        W18343  28.008   7.213   2.797
51803W        W18344  27.520  12.538   5.393
51804W        W18345  34.934  23.573  11.220
51805W        W18346  29.214  44.362  11.635
51806W        W18347  12.630  40.883  13.843
51807W        W18348  39.353  12.608   0.802
51808W        W18349   7.105  35.575   1.229
51809W        W18350  41.001  15.335   4.265
51810W        W18351  36.499  41.709  10.719
51811W        W18352   3.198  30.167   2.622
51812W        W18353  31.094  26.688  13.308
51813W        W18354  25.821  17.706   2.675
51814W        W18355  44.640  30.269  14.380
51815W        W18356   8.003   7.228  11.608
51816W        W18357  44.784  31.468  11.622
51817W        W18358  27.118   0.315   2.842
51818W        W18359  16.626  40.088   0.354
51819W        W18360  20.567  41.084  11.183
51820W        W18361  41.956  22.360  11.647
51821W        W18362  31.445   1.474  11.474
51822W        W18363  43.702  24.069   0.771
51823W        W18364  12.149   3.280  14.346
51824W        W18365   2.131  37.983   1.404
51825W        W18366  38.582  31.253  12.182
51826W        W18367  12.566  14.384  11.546
51827W        W18368  13.240  26.679   1.713
51828W        W18369   1.517   9.181   0.206
51829W        W18370  17.338   6.362  13.046
51830W        W18371  22.116  20.229   2.936
51831W        W18372  24.613  42.991  12.979
51832W        W18373  36.640  33.116   1.677
51833W        W18374  36.111  13.965   1.355
51834W        W18375  23.980   5.840  11.617
51835W        W18376  42.022  25.010   4.419
51836W        W18377  44.388  33.065   4.133
51837W        W18378  15.701   3.881  12.137
51838W        W18379   0.861  37.012  12.385
51839W        W18380  35.652  40.479  10.709
51840W        W18381   5.880  38.015  11.715
51841W        W18382   9.385   1.352   4.936
51842W        W18383  44.956  27.305  10.792
51843W        W18384  10.347  27.047  11.978
51844W        W18385  20.669   1.395  13.369
51845W        W18386   0.371  35.382   4.525
51846W        W18387   2.439  11.925   4.156
51847W        W18388  38.970  33.198   4.173
51848W        W18389  19.405   2.681   4.076
51849W        W18390   3.985  37.428   0.445
51850W        W18391   5.334   8.901  12.053
51851W        W18392  19.555  19.612   0.781
51852W        W18393   0.228   0.839   0.446
51853W        W18394   5.872  42.466  14.562
51854W        W18395  25.656  34.093   0.456
51855W        W18396  43.722   3.494  13.887
51856W        W18397   7.759  15.249   2.629
51857W        W18398  24.551   4.265  10.732
51858W        W18399   1.597  33.430  10.240
51859W        W18400  35.750   7.199  11.148
51860W        W18401  31.127  20.324  14.033
51861W        W18402  19.003  13.206   4.518
51862W        W18403  39.819  13.271  14.543
51863W        W18404  12.344  32.605   1.371
51864W        W18405  24.687  20.787   1.207
51865W        W18406  38.934  40.210  11.746
51866W        W18407  13.435   6.640   0.975
51867W        W18408  37.265  25.219  13.431
51868W        W18409  28.718  16.144   0.741
51869W        W18410  38.858   6.714  14.428
51870W        W18411  26.083  20.433   4.195
51871W        W18412  41.946  17.284  13.522
51872W        W18413  44.033  34.482   1.853
51873W        W18414   0.944  44.929   2.312
51874W        W18415  13.813  23.497  12.923
51875W        W18416  39.698  19.167   4.552
51876W        W18417  21.584   0.500  11.870
51877W        W18418   9.373  29.911  13.361
51878W        W18419   0.550  34.378   1.682
51879W        W18420  30.927  37.870   2.385
51880W        W18421   0.938  37.620   0.832
51881W        W18422  10.816   2.928   1.741
51882W        W18423  18.518  30.399   2.403
51883W        W18424  26.762  14.711   2.019
51884W        W18425  10.385   0.597   3.225
51885W        W18426  28.012  19.873   4.075
51886W        W18427   2.869   1.522  13.035
51887W        W18428   7.632   5.216  14.364
51888W        W18429  42.588  11.160   3.727
51889W        W18430  10.383  42.974   2.386
51890W        W18431  26.524  17.705  13.951
51891W        W18432  31.940  34.724   4.617
51892W        W18433  36.074  20.183   3.240
51893W        W18434  29.598  16.812  13.499
51894W        W18435  14.782   5.057  12.702
51895W        W18436  11.613  19.128   4.148
51896W        W18437   0.702  12.159   0.034
51897W        W18438  39.479  10.458  14.365
51898W        W18439  24.041  13.082  11.250
51899W        W18440   0.680  24.010  11.159
51900W        W18441  36.005  31.864  13.897
51901W        W18442  37.041  37.449  11.189
51902W        W18443  11.346  14.692  13.588
51903W        W18444  24.580  21.964  13.068
51904W        W18445  43.179  24.472   3.761
51905W        W18446  33.152   4.814   2.736
51906W        W18447   9.704  12.683   1.765
51907W        W18448  12.060  25.408  12.464
51908W        W18449  18.698  27.448   4.824
51909W        W18450  34.857  43.363   0.069
51910W        W18451  39.914  44.573  11.798
51911W        W18452  34.650  20.025   3.721
51912W        W18453  21.768  23.587   1.832
51913W        W18454  39.706   1.974   0.833
51914W        W18455   3.719   0.347  13.971
51915W        W18456   4.464  35.313   1.326
51916W        W18457  40.264  31.147  14.304
51917W        W18458  32.934  18.690   0.891
51918W        W18459  38.136  22.613  10.276
51919W        W18460  28.212  40.951  13.885
51920W        W18461  32.371   1.283   2.678
51921W        W18462  31.120  30.578   0.327
51922W        W18463  27.802  26.945  10.364
51923W        W18464  22.129  21.789  11.451
51924W        W18465   7.818  33.865   3.188
51925W        W18466  11.265  28.628   2.667
51926W        W18467  39.497  43.790  13.027
51927W        W18468  23.190  11.704   3.646
51928W        W18469  18.752  23.232   3.789
51929W        W18470   9.964   9.420  14.419
51930W        W18471   5.707  38.518   2.880
51931W        W18472  35.190  43.576   4.105
51932W        W18473  24.474  39.507   2.792
51933W        W18474  14.357  17.103   0.292
51934W        W18475  11.700  22.537  10.653
51935W        W18476   1.465  21.195  13.343
51936W        W18477  22.478  27.500   0.037
51937W        W18478   3.669  43.430   3.853
51938W        W18479  39.988   0.944   3.192
51939W        W18480  44.843  20.099  13.206
51940W        W18481  23.244  39.443  11.383
51941W        W18482  41.025   4.547   3.709
51942W        W18483  31.363  20.289   2.365
51943W        W18484  38.864   4.438  12.430
51944W        W18485  36.466  28.867   1.417
51945W        W18486  12.004  18.057  10.170
51946W        W18487  25.679  21.218  12.966
51947W        W18488  34.948  35.721  11.067
51948W        W18489  40.110  30.330   2.149
51949W        W18490  21.834   0.084   3.903
51950W        W18491  22.866   0.901   3.211
51951W        W18492   1.813  34.035   4.205
51952W        W18493   6.440  24.250   2.290
51953W        W18494  17.938   0.875   1.604
51954W        W18495  34.707  39.932   0.401
51955W        W18496  44.593  18.765   2.509
51956W        W18497  33.544  14.234  13.345
51957W        W18498  27.212  37.173  13.728
51958W        W18499  18.016  26.194   3.888
51959W        W18500  18.200  38.999  13.605
51960W        W18501  12.497   2.032   1.224
51961W        W18502   5.668  27.018  12.447
51962W        W18503   6.659  34.053   4.038
51963W        W18504   3.151  21.962   2.811
51964W        W18505  10.613  28.720  14.892
51965W        W18506  34.196   1.508  13.913
51966W        W18507   6.913  43.477   4.126
51967W        W18508  26.454  24.149   2.249
51968W        W18509  32.117  31.161   2.910
51969W        W18510  20.157  31.034   2.177
51970W        W18511  15.297   5.784   0.021
51971W        W18512  21.551   5.236  13.482
51972W        W18513   6.384  19.325  12.426
51973W        W18514   8.839  15.026   1.307
51974W        W18515   3.998  35.083   4.115
51975W        W18516  39.049  34.958   1.944
51976W        W18517  27.191  24.927  12.615
51977W        W18518   6.298   9.347   4.686
51978W        W18519  26.068   7.661  10.741
51979W        W18520   9.119  24.095   1.446
51980W        W18521  11.690   3.186  13.510
51981W        W18522  22.209  38.286   1.917
51982W        W18523  24.421  30.054  13.371
51983W        W18524  39.011   9.637   4.302
51984W        W18525  22.788  11.309  10.269
51985W        W18526  30.684  18.608   1.220
51986W        W18527   2.725  30.358   2.746
51987W        W18528  19.003  19.580  13.567
51988W        W18529  41.818  34.962   2.113
51989W        W18530  36.514  39.045   2.656
51990W        W18531  42.985  17.515   0.570
51991W        W18532  33.390   9.883  14.972
51992W        W18533   1.572  37.347  13.805
51993W        W18534  39.084  34.561   2.670
51994W        W18535  36.528  11.918   4.656
51995W        W18536   2.856  44.525  11.053
51996W        W18537  14.253  13.041  12.320
51997W        W18538  42.032   4.548   1.557
51998W        W18539  42.869  39.395  13.925
51999W        W18540  37.959   6.362   4.268
52000W        W18541   7.709  17.674  11.022
52001W        W18542  23.373  10.972  14.903
52002W        W18543  13.622  32.717  13.334
52003W        W18544  33.391   6.141   4.791
52004W        W18545   5.982  35.952  12.040
52005W        W18546  29.013  26.050   2.157
52006W        W18547  31.437  32.368  10.955
52007W        W18548  23.056   6.214   2.748
52008W        W18549  35.534  22.809  11.603
52009W        W18550  36.512  34.813  12.602
52010W        W18551  32.630  27.868  11.617
52011W        W18552  10.234  39.928   4.994
52012W        W18553  43.676  15.623  14.276
52013W        W18554  22.925  11.865   3.230
52014W        W18555  39.866  19.262  10.779
52015W        W18556  28.387  23.272  14.414
52016W        W18557   5.600  37.426  12.435
52017W        W18558  15.592   7.879   1.950
52018W        W18559  14.758   7.853   4.814
52019W        W18560  29.850  23.053   4.539
52020W        W18561   8.952   5.410  10.251
52021W        W18562  42.837  10.255  14.424
52022W        W18563  43.016  26.703   3.354
52023W        W18564   8.037  30.496   3.376
52024W        W18565  22.631  31.574   3.597
52025W        W18566  41.170   6.867   4.068
52026W        W18567  32.542  37.810  12.027
52027W        W18568  24.530  15.735  14.776
52028W        W18569  33.031  21.133  11.087
52029W        W18570   6.840  43.486  14.805
52030W        W18571  42.438  44.856   1.816
52031W        W18572   8.883  18.107   3.929
52032W        W18573   3.569  29.014  14.401
52033W        W18574   1.341  42.867  14.484
52034W        W18575   4.138  33.931   4.289
52035W        W18576  22.522   5.249   2.240
52036W        W18577  40.239   7.742  13.988
52037W        W18578   2.946  14.352   1.084
52038W        W18579  27.363  34.474  12.537
52039W        W18580   7.722  12.366  13.821
52040W        W18581  26.917  28.395  13.732
52041W        W18582   7.103  41.402  12.504
52042W        W18583  33.494  11.244  12.033
52043W        W18584  35.386  24.417   3.273
52044W        W18585  44.420  22.051  12.975
52045W        W18586  25.331  22.128  14.984
52046W        W18587  28.710  43.985  13.416
52047W        W18588  23.056  12.330   1.803
52048W        W18589   1.012  17.613   3.175
52049W        W18590  38.257  23.826  12.964
52050W        W18591  25.622  35.846  10.574
52051W        W18592  43.280   5.236   3.143
52052W        W18593  31.539  26.446  12.010
52053W        W18594  36.637  12.544   9.731
52054W        W18595   7.610  39.023  12.084
52055W        W18596  35.806   7.646   2.368
52056W        W18597   6.818  39.075   2.356
52057W        W18598  23.542  15.057   4.495
52058W        W18599  15.995   7.445   4.060
52059W        W18600  33.601  22.306   4.971
52060W        W18601  13.323  18.814   5.023
52061W        W18602  15.261  30.837   1.810
52062W        W18603  12.895  26.676   1.297
52063W        W18604  22.157   2.463   2.274
52064W        W18605  14.920   4.425   3.608
52065W        W18606  37.393   9.416  11.707
52066W        W18607   5.917  11.516   0.901
52067W        W18608  42.327  11.224   2.376
52068W        W18609  20.703  44.477  10.974
52069W        W18610  15.656  37.805  13.661
52070W        W18611  12.076  29.004  11.685
52071W        W18612  33.202  40.193  10.499
52072W        W18613  42.310  36.142  13.654
52073W        W18614  36.022   4.073   1.519
52074W        W18615   5.364  12.253  13.917
52075W        W18616  25.621   9.854   2.745
52076W        W18617  31.490  42.824  11.541
52077W        W18618  15.687  24.952   2.666
52078W        W18619  20.246  23.991  12.090
52079W        W18620  19.967  19.260  11.550
52080W        W18621  30.580  10.204   1.790
52081W        W18622  36.330  37.519  14.269
52082W        W18623  39.327  10.374  11.467
52083W        W18624  32.989  35.984  14.439
52084W        W18625   3.369  29.437   4.149
52085W        W18626  40.376  17.797   2.075
52086W        W18627  24.399  28.388   1.691
52087W        W18628  39.425   4.999   2.388
52088W        W18629  19.223   9.352   3.700
52089W        W18630  43.065  10.871   2.286
52090W        W18631  44.383   4.202  12.458
52091W        W18632  22.334  25.392   4.667
52092W        W18633  15.406  38.853  10.861
52093W        W18634  13.265   7.984  14.315
52094W        W18635  23.103   2.425   4.074
52095W        W18636   4.255   9.751   4.144
52096W        W18637  29.712   8.097  11.437
52097W        W18638  22.605  44.871  11.001
52098W        W18639  39.453  26.787  12.401
52099W        W18640  13.816  23.952   4.566
52100W        W18641  32.653   1.291   3.967
52101W        W18642   1.964   9.359   4.241
52102W        W18643  11.273  12.641   0.486
52103W        W18644  12.261  16.463   4.045
52104W        W18645  26.979  35.773   2.208
52105W        W18646  28.075  40.282   0.809
52106W        W18647  22.182  27.626   2.698
52107W        W18648  44.504  29.626  12.636
52108W        W18649  10.368  40.509   1.305
52109W        W18650  18.308  42.447   0.976
52110W        W18651   7.739  26.696   3.198
52111W        W18652  11.242  19.152  10.969
52112W        W18653  31.960  17.307   0.142
52113W        W18654   6.022  26.314   3.621
52114W        W18655  23.006  44.471  14.827
52115W        W18656  42.035  12.127  12.888
52116W        W18657   6.202  38.077   4.574
52117W        W18658  33.676   0.425   3.705
52118W        W18659  22.184  16.222  13.920
52119W        W18660  33.055  35.473   4.749
52120W        W18661  29.967   4.455  12.919
52121W        W18662  18.216  25.561  13.574
52122W        W18663  26.273  31.226  12.789
52123W        W18664  28.829  36.541   3.305
52124W        W18665  19.029  15.093  11.630
52125W        W18666  29.105  21.084   4.622
52126W        W18667   2.657  15.227   4.465
52127W        W18668  32.122  26.995  11.571
52128W        W18669   3.879  25.497   3.704
52129W        W18670  12.862   8.691  12.428
52130W        W18671  34.932  33.152   0.289
52131W        W18672   1.117  29.978   2.319
52132W        W18673   3.438  14.298   4.848
52133W        W18674  20.239  25.652   0.643
52134W        W18675  25.699   6.604   2.818
52135W        W18676  20.216  31.329  14.250
52136W        W18677  27.778  21.367  11.392
52137W        W18678  14.665  26.697   0.252
52138W        W18679   8.906   6.974   2.653
52139W        W18680  42.455   0.846   0.408
52140W        W18681   2.754  12.129  11.456
52141W        W18682  35.715  13.718   1.639
52142W        W18683  15.004   5.872  14.597
52143W        W18684  43.351   5.154  11.748
52144W        W18685   7.947  19.067   4.529
52145W        W18686   0.173   3.489   4.966
52146W        W18687  35.470  22.261   1.699
52147W        W18688   9.216  38.602  11.420
52148W        W18689   2.114  20.037   1.204
52149W        W18690  14.652   6.178  13.910
52150W        W18691  10.379   3.274  10.418
52151W        W18692  44.929   4.390   4.558
52152W        W18693  22.990  28.618  10.715
52153W        W18694   6.236   4.097   4.093
52154W        W18695  38.919  41.803  13.968
52155W        W18696  15.520  31.541  14.727
52156W        W18697   2.784  39.397  14.342
52157W        W18698  32.530   2.705  13.472
52158W        W18699  13.331  37.926  12.408
52159W        W18700   9.715  15.833  14.569
52160W        W18701   7.252   5.246   4.642
52161W        W18702  30.019  41.455  12.369
52162W        W18703  21.741  16.683  14.755
52163W        W18704  31.089  15.073   1.466
52164W        W18705  23.082   0.375   0.640
52165W        W18706  41.769  28.658  14.409
52166W        W18707   8.067  41.213  14.395
52167W        W18708  30.722  40.203  10.837
52168W        W18709  40.157   0.520  13.761
52169W        W18710  20.653  28.028   4.571
52170W        W18711  23.897  33.959  14.359
52171W        W18712  39.502  26.423  13.323
52172W        W18713  29.977  40.618   0.248
52173W        W18714  27.139  27.541  13.819
52174W        W18715  18.222  11.743  11.614
52175W        W18716  19.980   6.531   2.325
52176W        W18717   2.349  36.628  12.044
52177W        W18718  23.275  16.275   0.292
52178W        W18719   0.237  43.682  11.638
52179W        W18720   4.795  41.846  14.406
52180W        W18721  38.654  12.870  13.286
52181W        W18722  25.212  39.076  14.473
52182W        W18723  43.086  13.779   4.706
52183W        W18724  33.835  33.353   0.992
52184W        W18725   8.694   2.261   3.134
52185W        W18726  27.174  21.916   3.726
52186W        W18727   7.614  41.434  12.458
52187W        W18728  19.735  32.675  12.479
52188W        W18729   6.850   9.145  14.974
52189W        W18730  21.154  38.571   3.320
52190W        W18731  20.161  42.792   1.090
52191W        W18732   1.226   9.206   4.080
52192W        W18733   7.847  32.593   4.769
52193W        W18734  35.127  31.357  12.544
52194W        W18735   9.238   6.128  10.668
52195W        W18736  29.161  16.411   4.410
52196W        W18737  37.023  13.364   4.238
52197W        W18738  35.966   4.424   3.574
52198W        W18739  17.101   9.212   3.369
52199W        W18740  28.592  31.355  11.927
52200W        W18741   3.204  39.655  12.303
52201W        W18742  41.549  39.966   1.296
52202W        W18743  21.651  12.466  10.733
52203W        W18744  29.203  10.009   3.404
52204W        W18745   8.239  15.711   1.874
52205W        W18746  16.904  19.834  14.788
52206W        W18747  35.970  14.558   4.551
52207W        W18748   3.309  19.431  12.169
52208W        W18749  22.455  10.344   0.319
52209W        W18750  31.668  10.190  13.967
52210W        W18751  26.048   2.466   4.171
52211W        W18752  24.805  34.395   4.945
52212W        W18753  40.700   9.272  13.098
52213W        W18754  27.185   7.790   0.859
52214W        W18755   9.842  15.610   4.164
52215W        W18756  23.592   4.258  14.479
52216W        W18757  10.215  38.116   0.956
52217W        W18758  29.480   5.430  14.795
52218W        W18759  42.780   1.672  11.127
52219W        W18760  19.772   2.182   3.242
52220W        W18761  19.009  33.951  13.566
52221W        W18762  16.579  41.538  11.140
52222W        W18763   0.173   1.453  13.819
52223W        W18764  25.206  38.013   1.431
52224W        W18765  20.336   2.859  14.680
52225W        W18766   2.328   6.733   1.980
52226W        W18767  31.569  33.269  10.438
52227W        W18768  32.410   1.292  11.123
52228W        W18769  23.914  18.567  11.159
52229W        W18770  16.013  12.799  14.766
52230W        W18771  40.438  10.301   3.997
52231W        W18772  14.595  43.642   4.551
52232W        W18773  34.636  23.210   3.327
52233W        W18774  42.167  42.998  11.149
52234W        W18775   6.299   3.967  14.028
52235W        W18776  31.329   4.922  12.873
52236W        W18777  12.704   6.942  12.657
52237W        W18778  27.321  10.568   3.651
52238W        W18779   4.286  23.768  14.729
52239W        W18780  34.685   5.444   0.875
52240W        W18781  12.858   2.426  12.405
52241W        W18782  20.558  20.278   1.179
52242W        W18783  37.476  31.144   0.460
52243W        W18784   5.722   0.324  14.002
52244W        W18785  44.614  22.607   2.609
52245W        W18786  16.522  25.649   4.535
52246W        W18787  15.987  36.451  10.643
52247W        W18788   8.373  33.086   1.401
52248W        W18789  41.066  42.478  13.322
52249W        W18790  27.375  32.072  11.450
52250W        W18791   5.224  33.067   3.579
52251W        W18792  20.314  17.981   4.149
52252W        W18793   5.786   1.816   0.750
52253W        W18794  21.817  33.540   3.837
52254W        W18795  15.018  26.416  13.444
52255W        W18796  12.873  10.393   0.453
52256W        W18797   0.161  19.511   0.794
52257W        W18798  43.456  35.918   0.701
52258W        W18799   2.707  25.941  12.654
52259W        W18800   1.382  38.118  12.009
52260W        W18801   9.049  26.452  13.525
52261W        W18802  12.290  32.428  12.138
52262W        W18803  23.197  39.396  10.867
52263W        W18804  40.362   4.425   2.901
52264W        W18805  29.873   1.587  11.851
52265W        W18806  11.249   0.700  13.748
52266W        W18807  13.036  31.988   2.919
52267W        W18808  13.367  44.970  13.881
52268W        W18809  38.652  41.585  10.498
52269W        W18810  21.451  41.973  12.470
52270W        W18811  22.099  30.833  14.989
52271W        W18812  12.232  44.772   1.720
52272W        W18813   0.412   9.656   3.671
52273W        W18814  27.917   7.813  10.710
52274W        W18815  40.549  41.198  11.481
52275W        W18816  10.310  43.804   4.126
52276W        W18817  19.236   2.053  12.015
52277W        W18818  16.408  27.483  14.096
52278W        W18819  28.748  36.605   4.052
52279W        W18820   1.575  24.333   9.759
52280W        W18821  37.470  17.567   2.523
52281W        W18822   1.859  30.619  10.249
52282W        W18823   3.455  16.846  14.072
52283W        W18824  18.443  11.374  13.385
52284W        W18825  17.799  44.924   3.073
52285W        W18826  40.508  40.087  13.860
52286W        W18827  18.983   4.684   2.255
52287W        W18828  30.378  17.219  12.994
52288W        W18829  21.173  35.847   0.241
52289W        W18830   8.537   4.363   4.669
52290W        W18831  38.087   9.955   0.065
52291W        W18832  29.729  32.797  12.878
52292W        W18833  10.426  42.911   1.422
52293W        W18834   1.377  27.942   0.003
52294W        W18835   8.850  21.330   1.932
52295W        W18836   8.771  11.918  12.119
52296W        W18837   9.239   8.449   2.661
52297W        W18838  41.494   0.386  11.420
52298W        W18839  26.565  22.201   4.510
52299W        W18840   5.704  22.095  12.487
52300W        W18841  39.309  19.736   0.400
52301W        W18842  26.782  44.454  13.688
52302W        W18843  27.508  11.956   2.388
52303W        W18844  19.243  31.814   4.504
52304W        W18845  18.733  13.435   3.980
52305W        W18846  37.141  11.161  11.475
52306W        W18847  42.255  22.644   0.893
52307W        W18848  42.594  16.995   3.706
52308W        W18849  18.038  13.039  12.604
52309W        W18850   8.942  22.540   3.162
52310W        W18851   9.294  26.733  11.296
52311W        W18852  35.965  19.328  12.711
52312W        W18853  31.520  17.148  11.673
52313W        W18854   5.700  44.526  11.667
52314W        W18855  21.468  44.098  11.987
52315W        W18856  42.481  36.975  10.645
52316W        W18857   6.455  15.350  11.503
52317W        W18858   1.340  23.932   1.278
52318W        W18859  21.370  36.140   3.239
52319W        W18860   5.418  30.819   2.638
52320W        W18861  30.433  23.154  13.804
52321W        W18862  37.973  32.774   2.918
52322W        W18863  19.603  23.714   0.487
52323W        W18864  19.077  43.455  13.805
52324W        W18865   2.477   7.581   2.723
52325W        W18866   8.096  15.793   3.701
52326W        W18867   8.152   9.970   0.801
52327W        W18868  24.215   9.699   4.540
52328W        W18869  36.608  18.301   0.761
52329W        W18870  17.636  37.333   1.766
52330W        W18871   2.213  26.685  11.671
52331W        W18872  26.067  35.784   0.792
52332W        W18873   5.996  35.999   5.103
52333W        W18874  39.168  11.823  13.395
52334W        W18875  12.380  41.219  12.961
52335W        W18876  16.345  24.939  14.940
52336W        W18877  14.733  44.205  13.986
52337W        W18878  10.735  23.386  14.373
52338W        W18879  39.011   6.282   5.222
52339W        W18880  34.307  18.544  12.470
52340W        W18881  20.883  27.739  11.838
52341W        W18882  26.984   5.007   1.555
52342W        W18883   6.128  38.904   1.707
52343W        W18884   6.203  12.308   0.759
52344W        W18885   9.152  28.670   1.443
52345W        W18886  33.925   6.286  14.453
52346W        W18887  41.285  23.554   3.316
52347W        W18888  37.243  21.281   0.544
52348W        W18889  18.412  36.770   1.922
52349W        W18890   8.267  24.967   2.510
52350W        W18891  19.573  25.256  12.908
52351W        W18892  30.357  33.942   0.373
52352W        W18893  16.352  41.066  10.669
52353W        W18894  35.842  30.108   4.174
52354W        W18895  43.006  28.895  11.543
52355W        W18896   6.618   4.935  13.121
52356W        W18897  33.975  14.976  11.050
52357W        W18898   9.894   9.876   1.789
52358W        W18899  26.013  16.015  11.939
52359W        W18900  39.987  34.180   2.860
52360W        W18901  43.224  14.303   4.539
52361W        W18902  26.054  21.444   0.354
52362W        W18903   1.883   5.135  11.635
52363W        W18904   2.228  21.114  14.783
52364W        W18905  15.457  42.609  14.514
52365W        W18906  22.532   7.376  11.212
52366W        W18907   7.853  13.877   4.083
52367W        W18908  22.491  24.583   1.195
52368W        W18909  13.085  10.264   0.914
52369W        W18910  20.687  17.157   3.708
52370W        W18911  39.462  21.733   1.421
52371W        W18912  41.663  21.705  10.932
52372W        W18913  27.295   8.839  14.451
52373W        W18914  15.325  31.942  10.194
52374W        W18915  33.731  13.922   4.240
52375W        W18916  30.298  12.921  11.580
52376W        W18917  24.028  13.860   4.009
52377W        W18918   2.769   8.195   3.346
52378W        W18919  38.110  12.605   0.507
52379W        W18920  23.675  24.663  10.779
52380W        W18921  34.654  26.575   2.805
52381W        W18922  38.455  34.319  13.820
52382W        W18923  19.665  16.405   4.533
52383W        W18924   4.224  23.789   3.260
52384W        W18925  27.001   9.850  14.917
52385W        W18926  42.550  41.957   4.366
52386W        W18927  14.830   5.750   2.311
52387W        W18928  32.975  21.209   2.827
52388W        W18929  17.133   8.282   0.365
52389W        W18930   0.674  20.966   3.135
52390W        W18931  19.279  10.706   4.198
52391W        W18932  31.119  39.802   1.495
52392W        W18933   2.357  26.467  10.953
52393W        W18934  37.960  32.775  12.013
52394W        W18935  41.912  32.021   4.931
52395W        W18936  41.109  37.110   1.477
52396W        W18937  35.361  17.291   4.673
52397W        W18938  37.817   8.888   2.282
52398W        W18939  40.957  44.425  13.693
52399W        W18940   2.772  24.642   0.885
52400W        W18941  17.994  39.955  11.548
52401W        W18942  35.541  39.765  13.059
52402W        W18943  41.902  12.584   3.084
52403W        W18944  11.906   1.396   0.293
52404W        W18945   8.856  42.909  12.375
52405W        W18946  12.596  42.762  11.006
52406W        W18947  22.935  43.829  12.099
52407W        W18948  19.230  11.576  13.505
52408W        W18949  14.804  36.564   2.667
52409W        W18950  20.376  26.667   4.564
52410W        W18951  44.833  11.810  14.923
52411W        W18952  19.245  41.810   1.352
52412W        W18953  44.824   2.496   3.726
52413W        W18954  44.803   2.911   2.151
52414W        W18955  31.514  29.824   3.788
52415W        W18956  42.451  33.469   2.188
52416W        W18957   5.235  33.325  12.553
52417W        W18958  28.011  12.591   4.263
52418W        W18959  17.482  17.645  13.041
52419W        W18960   3.259   3.422  12.237
52420W        W18961   0.019  39.398  13.110
52421W        W18962   5.143  23.184  13.438
52422W        W18963  14.981  24.405  14.913
52423W        W18964  27.825   9.645  10.742
52424W        W18965  41.545  44.933  11.687
52425W        W18966  11.832   2.462   3.697
52426W        W18967  44.700  33.583   3.664
52427W        W18968  34.399  39.314  14.884
52428W        W18969  28.232   3.204   3.148
52429W        W18970  26.313  29.875  11.596
52430W        W18971  25.990  18.595   2.231
52431W        W18972  32.927  20.050  11.627
52432W        W18973  39.679   1.347  11.053
52433W        W18974   1.029  24.532   3.292
52434W        W18975  13.343  14.996   3.971
52435W        W18976  31.516  41.971   2.827
52436W        W18977  27.176  20.184   0.840
52437W        W18978   5.299  39.917   4.592
52438W        W18979   0.372  23.739   0.387
52439W        W18980  24.232  32.056   3.421
52440W        W18981  21.463   9.639  13.049
52441W        W18982   2.212  30.562  12.152
52442W        W18983   5.415  20.490   2.741
52443W        W18984  20.154  26.601   2.673
52444W        W18985  34.767   4.135  11.087
52445W        W18986  28.358  20.109  13.378
52446W        W18987  24.732  39.475   1.847
52447W        W18988  30.052   5.577  11.695
52448W        W18989  34.204   0.528  13.958
52449W        W18990  21.160  15.327  13.520
52450W        W18991  34.531   8.983   3.184
52451W        W18992  42.911  36.690  13.521
52452W        W18993  28.614   8.203  12.601
52453W        W18994  27.518  17.138   4.134
52454W        W18995  31.089  16.674  10.647
52455W        W18996   7.700   4.436   0.713
52456W        W18997  41.068  29.757  11.167
52457W        W18998  25.236  29.304  14.365
52458W        W18999  12.294  36.517  12.518
52459W        W19000  22.055  25.379   0.820
52460W        W19001  19.669  35.887  13.011
52461W        W19002  34.888  41.854  12.539
52462W        W19003  35.131  39.516   4.589
52463W        W19004  38.549   5.719   0.765
52464W        W19005   8.770   6.736  11.455
52465W        W19006  37.954   4.145   2.142
52466W        W19007  17.637  30.045  13.930
52467W        W19008  12.695  23.024   3.744
52468W        W19009   4.391  26.056   1.671
52469W        W19010  26.593  21.107   3.565
52470W        W19011  30.237  15.745  10.299
52471W        W19012  20.559  21.171   3.137
52472W        W19013  24.904  33.306  11.880
52473W        W19014  14.373  27.508  13.756
52474W        W19015  13.004   7.422   0.388
52475W        W19016   4.877  36.153   4.139
52476W        W19017  14.019   6.042  14.403
52477W        W19018  36.482  17.412   2.288
52478W        W19019  35.139   7.259  12.283
52479W        W19020   8.974  18.402   1.159
52480W        W19021  21.227  32.113  10.641
52481W        W19022  15.733  32.667  13.418
52482W        W19023  31.516  38.820   1.803
52483W        W19024  24.062  37.709  11.966
52484W        W19025  25.420  16.712   3.122
52485W        W19026  33.710  17.898   2.093
52486W        W19027  35.863  18.514  11.985
52487W        W19028   6.184  36.975   2.755
52488W        W19029  27.663  41.901   4.514
52489W        W19030   8.753  16.798  12.475
52490W        W19031  34.456  23.055   2.369
52491W        W19032  36.863  42.942  13.082
52492W        W19033   0.226  43.909  13.387
52493W        W19034   7.328   8.322   0.808
52494W        W19035  28.131  37.372  10.698
52495W        W19036  12.643  32.929   2.324
52496W        W19037  25.120  25.625  14.031
52497W        W19038  43.953  33.259  11.048
52498W        W19039  15.775  20.283  11.182
52499W        W19040  26.792   6.696  14.853
52500W        W19041  18.584  31.630  10.398
52501W        W19042   8.773  28.479  14.457
52502W        W19043  16.073  27.411  13.352
52503W        W19044  39.859  38.505   4.395
52504W        W19045  44.326   1.462  13.932
52505W        W19046  18.635  24.938  11.838
52506W        W19047  39.037   5.624  11.558
52507W        W19048  42.554  10.778   2.248
52508W        W19049  33.945  25.391  13.697
52509W        W19050  41.880  25.737   0.236
52510W        W19051   3.023   5.349   2.494
52511W        W19052  12.356   5.027  13.556
52512W        W19053  22.670  13.070  11.566
52513W        W19054  40.833  22.807   4.715
52514W        W19055  13.173  24.129  14.364
52515W        W19056  21.668  41.903   1.902
52516W        W19057  24.278  28.927   4.575
52517W        W19058   8.588  33.538   4.533
52518W        W19059  26.624   9.038   2.593
52519W        W19060  36.085  18.288  11.540
52520W        W19061  19.802  43.267   2.330
52521W        W19062  33.474  12.556   3.071
52522W        W19063  22.110  39.472   2.919
52523W        W19064  43.258  33.976   1.777
52524W        W19065   5.706  14.227   3.195
52525W        W19066  26.218  16.682  12.047
52526W        W19067  13.841  29.948  14.462
52527W        W19068  29.702   1.217   2.216
52528W        W19069  27.603  17.329   3.627
52529W        W19070  22.850  32.881   2.946
52530W        W19071  34.476  13.526   3.318
52531W        W19072  30.464  24.935  13.406
52532W        W19073  38.361  19.507   4.594
52533W        W19074   7.795  25.322  10.531
52534W        W19075   4.382  22.437  10.203
52535W        W19076  20.676  10.479   9.969
52536W        W19077  31.904   2.704   3.575
52537W        W19078  32.695  35.545  14.408
52538W        W19079  39.383  38.294  14.838
52539W        W19080  41.118   4.715   4.228
52540W        W19081  35.091  43.247   1.780
52541W        W19082  24.985  16.005   3.767
52542W        W19083   0.714   2.766   3.539
52543W        W19084  14.248  14.819  12.156
52544W        W19085  10.275  43.401   1.488
52545W        W19086  10.265  36.912  13.883
52546W        W19087   2.535  41.179   3.785
52547W        W19088   6.218  33.967   0.019
52548W        W19089   0.282   6.130   1.829
52549W        W19090  28.937  24.654   3.696
52550W        W19091  36.104  19.203  11.513
52551W        W19092  17.596  44.561   3.420
52552W        W19093  13.208  13.889  11.966
52553W        W19094  42.893  25.211   3.411
52554W        W19095  19.687  41.048  12.910
52555W        W19096  27.049  42.474   4.883
52556W        W19097  36.663   5.250  12.579
52557W        W19098  36.496  26.599  14.211
52558W        W19099  36.278  19.665  12.421
52559W        W19100   3.972   2.828  14.042
52560W        W19101  34.111  16.216  13.981
52561W        W19102   3.511  43.108   3.165
52562W        W19103   3.724  32.934  13.421
52563W        W19104   3.301  14.853  10.629
52564W        W19105   0.031  17.716  13.943
52565W        W19106  17.138  29.174  14.900
52566W        W19107  26.389  41.730   4.081
52567W        W19108  42.918   0.739   4.729
52568W        W19109   6.242   1.564   0.920
52569W        W19110  39.761  33.098  14.940
52570W        W19111   8.480  36.786  13.409
52571W        W19112  20.249   6.470   2.752
52572W        W19113  42.260   5.361  11.948
52573W        W19114   6.200  24.945   3.651
52574W        W19115  27.071   9.671   1.431
52575W        W19116  15.288  33.238  11.190
52576W        W19117  30.234   0.382   3.935
52577W        W19118  34.209  16.818   2.727
52578W        W19119  43.904   7.162  14.236
52579W        W19120  38.742  41.096  13.387
52580W        W19121  33.028  26.123   1.918
52581W        W19122   9.697  21.949  11.011
52582W        W19123  27.265  27.129   0.520
52583W        W19124  11.536   5.948   3.588
52584W        W19125  36.230  19.383   2.840
52585W        W19126  39.127  40.791   3.753
52586W        W19127  41.484  37.906   3.411
52587W        W19128  13.355  40.567  12.183
52588W        W19129   5.216  40.129   3.105
52589W        W19130  31.849   2.434  10.273
52590W        W19131  24.709  38.310  13.380
52591W        W19132  32.676   1.285  13.992
52592W        W19133  29.897   7.180   2.250
52593W        W19134  23.433   6.895   1.266
52594W        W19135   7.015   9.553  14.102
52595W        W19136  44.840  14.607  14.468
52596W        W19137  44.523   6.871  12.014
52597W        W19138   0.728  29.596   2.888
52598W        W19139   8.007   5.262   3.677
52599W        W19140  22.191  32.585  12.322
52600W        W19141  10.693  15.230   4.535
52601W        W19142  25.706  12.446  14.015
52602W        W19143  13.783   6.319  13.809
52603W        W19144  30.607  41.429  14.896
52604W        W19145   4.949  41.389   3.572
52605W        W19146  14.355   5.215   1.086
52606W        W19147  37.388  44.465   4.052
52607W        W19148   0.300   7.473   4.825
52608W        W19149  22.008  41.888  13.324
52609W        W19150  21.685  19.263  10.501
52610W        W19151  39.709   8.721   4.234
52611W        W19152  23.585   7.726  11.636
52612W        W19153   2.922   4.758  13.416
52613W        W19154  12.578  24.996   2.864
52614W        W19155  23.069  12.172  11.386
52615W        W19156  34.810  11.470   0.198
52616W        W19157  17.792  31.531   4.155
52617W        W19158   2.711   5.077  12.385
52618W        W19159  15.204  13.402   2.094
52619W        W19160  36.962  42.546  12.277
52620W        W19161  11.979  15.087   2.271
52621W        W19162  34.996  39.624   2.372
52622W        W19163  23.951  29.419   4.899
52623W        W19164   2.416  16.966   0.793
52624W        W19165  36.667  37.990  13.053
52625W        W19166  41.965   6.993   3.188
52626W        W19167   6.696  22.225   2.417
52627W        W19168  32.423  24.635  14.987
52628W        W19169  40.201   5.391  13.909
52629W        W19170   1.422  34.482  11.189
52630W        W19171  26.179  26.039   2.134
52631W        W19172  17.264   6.109   0.782
52632W        W19173  18.727   6.223   0.430
52633W        W19174  31.224  28.678   2.258
52634W        W19175   4.361  23.766   4.097
52635W        W19176   2.168  29.217   0.477
52636W        W19177  43.289  44.530   0.414
52637W        W19178  22.149  41.022   0.737
52638W        W19179  33.741   0.292  13.963
52639W        W19180  40.871   6.499   4.348
52640W        W19181  12.870  32.362   3.280
52641W        W19182  17.297  23.430  14.769
52642W        W19183  27.450  34.229   1.397
52643W        W19184  25.085  24.696   0.676
52644W        W19185   5.419  40.712  11.901
52645W        W19186  43.524  15.140  13.140
52646W        W19187  25.231  11.577  12.143
52647W        W19188  31.430  31.661   3.224
52648W        W19189  43.485   9.812   2.780
52649W        W19190  11.371  24.973  13.440
52650W        W19191  16.531  16.510   4.043
52651W        W19192  11.702  34.863   1.338
52652W        W19193  39.404  27.216  11.522
52653W        W19194   9.182   8.131   2.245
52654W        W19195  14.239  19.701   4.667
52655W        W19196   0.556  28.449  14.818
52656W        W19197  42.048  38.340   4.200
52657W        W19198  25.977   1.786  14.696
52658W        W19199   0.932  38.103  12.272
52659W        W19200   6.431  27.999  13.406
52660W        W19201  30.555   3.026  14.447
52661W        W19202  20.525  44.595   2.731
52662W        W19203   2.183  24.767   0.053
52663W        W19204  10.706   9.449   1.458
52664W        W19205  15.366  41.063  14.042
52665W        W19206  33.956  40.037  14.912
52666W        W19207  16.050  21.824  12.456
52667W        W19208  25.545  10.075   3.206
52668W        W19209  21.207  44.384  12.338
52669W        W19210  11.892  26.251  11.082
52670W        W19211  44.988  43.395  13.453
52671W        W19212  25.440  21.671  11.291
52672W        W19213  43.883   1.528   3.176
52673W        W19214  23.122  42.771   0.607
52674W        W19215  16.349  30.999  14.116
52675W        W19216  38.719   4.970  12.492
52676W        W19217  41.979   7.380  14.227
52677W        W19218  25.209   1.882  11.151
52678W        W19219  24.550  38.475   0.929
52679W        W19220  11.292  38.990  11.538
52680W        W19221  25.152  41.543  11.199
52681W        W19222  27.294  14.145   2.148
52682W        W19223  18.266  36.754   2.759
52683W        W19224  20.150  25.376   4.023
52684W        W19225   7.022  13.609  13.883
52685W        W19226  12.648  22.065   1.334
52686W        W19227  26.006  38.444  11.568
52687W        W19228  26.676   2.833   4.615
52688W        W19229  13.342   5.918   2.185
52689W        W19230   0.736  27.511   2.437
52690W        W19231  13.293  38.850  11.233
52691W        W19232  32.975  22.219   4.572
52692W        W19233  28.300  19.848   2.184
52693W        W19234  11.913  39.995   4.486
52694W        W19235  39.498  24.716  12.963
52695W        W19236  35.152  21.536  14.010
52696W        W19237  15.715  41.502   0.300
52697W        W19238  18.998  18.298  11.648
52698W        W19239  12.363   6.496   4.139
52699W        W19240  35.168  18.164  11.091
52700W        W19241  38.048  43.171  13.478
52701W        W19242  37.903   6.138   2.119
52702W        W19243   2.306  18.324  14.751
52703W        W19244  19.614   9.427  12.052
52704W        W19245   1.727  42.517   3.871
52705W        W19246  38.852   4.372  10.316
52706W        W19247  22.143  38.087  11.468
52707W        W19248  42.802  22.588  10.930
52708W        W19249   9.887   4.160  12.061
52709W        W19250   0.256   8.412   0.784
52710W        W19251  41.289  43.241   4.868
52711W        W19252   3.071  34.044   5.174
52712W        W19253  29.991  29.877   1.183
52713W        W19254  39.477  23.418   2.865
52714W        W19255  26.207  28.001   0.436
52715W        W19256  15.349   0.290   3.217
52716W        W19257  20.172  20.697   4.601
52717W        W19258  31.542  29.588   2.929
52718W        W19259  29.057  34.162   1.936
52719W        W19260  19.503  40.344   4.503
52720W        W19261  10.946  43.030   3.681
52721W        W19262   3.482  27.599   0.275
52722W        W19263  19.842   1.046  14.065
52723W        W19264  42.918  10.632   1.841
52724W        W19265  41.879  14.828   4.571
52725W        W19266  41.544   9.942  13.501
52726W        W19267   8.842  26.494  12.856
52727W        W19268  20.464  28.636   4.590
52728W        W19269  10.140  44.729   1.919
52729W        W19270   9.785  31.226  13.886
52730W        W19271   1.753   2.144  11.402
52731W        W19272  29.999  18.214   2.262
52732W        W19273  42.892  44.039  13.835
52733W        W19274  27.078  11.906  11.863
52734W        W19275  22.077  25.150  12.344
52735W        W19276  36.388  23.106  11.933
52736W        W19277  27.717  20.203   0.892
52737W        W19278   0.990  32.856   2.218
52738W        W19279  40.470  12.076  14.424
52739W        W19280   1.180  21.829   0.470
52740W        W19281  32.415  32.507   2.819
52741W        W19282   2.062   8.316   1.631
52742W        W19283  14.208  20.229  13.107
52743W        W19284   8.183   5.958   0.244
52744W        W19285  31.084  11.097   5.429
52745W        W19286  16.212  35.351  12.163
52746W        W19287  18.672  25.428  14.907
52747W        W19288  14.500  42.457  14.299
52748W        W19289  24.656  17.054   3.733
52749W        W19290  33.225  18.676   2.336
52750W        W19291  28.999   9.108   3.711
52751W        W19292  39.079   5.229  12.170
52752W        W19293   7.357  16.288   2.647
52753W        W19294  29.560  43.828   2.211
52754W        W19295  21.895  35.529  14.054
52755W        W19296   8.954  14.191   1.840
52756W        W19297  44.323  39.038   0.875
52757W        W19298   4.336   8.263  13.287
52758W        W19299  44.696  28.741  11.698
52759W        W19300  32.238  11.869   0.956
52760W        W19301   9.256  28.469   4.118
52761W        W19302  25.612  29.473  14.015
52762W        W19303   1.882  42.012   0.556
52763W        W19304   4.107  26.255  13.858
52764W        W19305  17.700  28.213  11.827
52765W        W19306  11.228  20.049  14.235
52766W        W19307  14.608  43.827   3.621
52767W        W19308  42.959   8.701   3.373
52768W        W19309   9.327  14.540   5.084
52769W        W19310  38.979  39.755  12.994
52770W        W19311  28.815  15.298   2.412
52771W        W19312  15.600  11.724   0.938
52772W        W19313  34.152   0.191   3.606
52773W        W19314   2.538  21.647   2.126
52774W        W19315  22.529  24.128  13.470
52775W        W19316  30.970  30.212   3.200
52776W        W19317  44.108  17.313   2.727
52777W        W19318  38.876  19.124  13.519
52778W        W19319  20.709  26.966  12.965
52779W        W19320  27.918  42.790   4.601
52780W        W19321  25.208  44.470   0.713
52781W        W19322   3.741   5.511   1.254
52782W        W19323   2.973  38.960   0.591
52783W        W19324   7.097   9.325   2.301
52784W        W19325  19.061  37.089   3.229
52785W        W19326  26.103  12.229   0.978
52786W        W19327  32.441   5.897  12.886
52787W        W19328  27.440  16.613  12.625
52788W        W19329   3.093   8.522  11.522
52789W        W19330  19.740   1.748   0.804
52790W        W19331  10.439  44.350  10.256
52791W        W19332  19.931  27.681   2.329
52792W        W19333  10.990  28.667  11.585
52793W        W19334  42.949  23.967  11.108
52794W        W19335   6.381  35.305  10.679
52795W        W19336  15.404  35.954   3.077
52796W        W19337  26.469  31.053  10.519
52797W        W19338  11.726  44.799   3.579
52798W        W19339  32.661  19.322  11.194
52799W        W19340  10.778  19.720  12.301
52800W        W19341  38.988   1.377  11.588
52801W        W19342  13.317  39.767   2.747
52802W        W19343  13.604  20.425   1.260
52803W        W19344  17.518  20.605   3.668
52804W        W19345  11.322  27.083   3.364
52805W        W19346  24.624  17.051  10.698
52806W        W19347  24.590   3.232   2.528
52807W        W19348  12.318  21.292  11.654
52808W        W19349  26.424  40.975  14.195
52809W        W19350  26.697  44.751   2.360
52810W        W19351   4.286  43.091  14.527
52811W        W19352  30.939  29.566   4.086
52812W        W19353  16.693   9.429   2.394
52813W        W19354  44.224  22.768   2.915
52814W        W19355  43.400  30.617  14.681
52815W        W19356  44.713   7.206  12.363
52816W        W19357   2.641   1.842  12.228
52817W        W19358  39.476  12.873  13.295
52818W        W19359  43.229  15.217  14.074
52819W        W19360  25.753  14.854  11.104
52820W        W19361  34.019  10.458  13.558
52821W        W19362  26.668  10.647  11.207
52822W        W19363  40.010   6.302  14.707
52823W        W19364  39.419  41.967   0.381
52824W        W19365  32.103  15.515  12.535
52825W        W19366  23.733  26.234  10.470
52826W        W19367  27.657  38.920   4.923
52827W        W19368  36.086  21.260   2.286
52828W        W19369  12.169  13.217   3.944
52829W        W19370  26.975  42.758  14.438
52830W        W19371  18.111  30.071   2.218
52831W        W19372  36.410  11.361  10.016
52832W        W19373  31.164  26.892   3.692
52833W        W19374  36.638  20.733   1.270
52834W        W19375  39.165  16.216   4.111
52835W        W19376  17.140  35.359   1.804
52836W        W19377  16.831   7.197   0.600
52837W        W19378  38.286  24.327   3.939
52838W        W19379   3.187  15.194   1.380
52839W        W19380  17.782  32.726   2.987
52840W        W19381  32.222  30.655   2.970
52841W        W19382  21.062   6.747  13.436
52842W        W19383   9.636  40.953   0.745
52843W        W19384  33.047  11.461   0.746
52844W        W19385   8.278  39.926  10.747
52845W        W19386  37.063  39.834  10.731
52846W        W19387  36.706  19.969  12.540
52847W        W19388  31.622  27.588  11.201
52848W        W19389  32.018  26.459   3.558
52849W        W19390  34.177  41.837  11.149
52850W        W19391  41.696  19.112   1.542
52851W        W19392  16.952  19.699   2.755
52852W        W19393  40.940  31.138  12.584
52853W        W19394   5.717  10.515   0.810
52854W        W19395  27.973  22.090  14.917
52855W        W19396  38.620  26.616   0.815
52856W        W19397  16.208  25.155   1.734
52857W        W19398  11.382  40.371   1.280
52858W        W19399  18.298   0.718   2.232
52859W        W19400  18.078   5.407  10.923
52860W        W19401  34.155  11.176   3.388
52861W        W19402   4.182   7.406  11.000
52862W        W19403  15.831  17.639   4.776
52863W        W19404  10.581  23.113   0.821
52864W        W19405   6.916  34.958  11.939
52865W        W19406  17.237  11.847   0.004
52866W        W19407  29.547  38.006   1.355
52867W        W19408  17.601  16.721  10.913
52868W        W19409  16.358  34.074  11.080
52869W        W19410  10.130   5.442  13.294
52870W        W19411  33.039  12.835  11.689
52871W        W19412  25.636  13.933  14.852
52872W        W19413  14.656  29.435  11.554
52873W        W19414  20.267  26.092   0.254
52874W        W19415  13.742  18.541   3.456
52875W        W19416  43.179  24.187   0.760
52876W        W19417  34.404  24.912  10.759
52877W        W19418  31.118  19.833  11.324
52878W        W19419   1.264  39.362  11.655
52879W        W19420  40.241   8.574   4.387
52880W        W19421  41.402   7.347   4.524
52881W        W19422  17.339  33.407  10.595
52882W        W19423  11.530  15.251  14.383
52883W        W19424  39.968  40.764   3.585
52884W        W19425   2.269  14.200  10.316
52885W        W19426  30.699  33.625   3.647
52886W        W19427  26.111  43.314   1.706
52887W        W19428   5.179  39.505  10.304
52888W        W19429  36.587  39.952   2.726
52889W        W19430  39.149   0.424  14.008
52890W        W19431   1.742  42.944  11.613
52891W        W19432  28.722  30.518  14.742
52892W        W19433  13.239  10.144   4.032
52893W        W19434   5.686   8.692  12.409
52894W        W19435   7.659  31.945   4.022
52895W        W19436  36.935  12.394  14.458
52896W        W19437   5.642  40.881   4.123
52897W        W19438  23.671   6.450  13.023
52898W        W19439  29.517  13.411   3.383
52899W        W19440  43.234  18.661  12.671
52900W        W19441  33.819  37.072   4.243
52901W        W19442   1.796  44.065  11.571
52902W        W19443  30.607   6.006  11.087
52903W        W19444  18.112   3.235   4.377
52904W        W19445  14.052  26.711  13.711
52905W        W19446   5.406  21.564  12.737
52906W        W19447  21.283  36.839   1.135
52907W        W19448  18.665  32.022  13.021
52908W        W19449   7.999  13.147  14.878
52909W        W19450  14.798  20.992   1.444
52910W        W19451   8.888  29.412   3.214
52911W        W19452  22.919   5.122   3.978
52912W        W19453  14.318  17.291   3.202
52913W        W19454  10.125  20.841   4.930
52914W        W19455  42.879  36.876  14.025
52915W        W19456  16.597  22.668  13.843
52916W        W19457  17.631  18.366   0.356
52917W        W19458  34.864  40.454  12.907
52918W        W19459  19.622  15.712   1.811
52919W        W19460  16.997  23.679   4.193
52920W        W19461  38.840   7.957  14.045
52921W        W19462  27.495  14.147   3.882
52922W        W19463  31.125  27.640  12.271
52923W        W19464  24.029  28.459   3.675
52924W        W19465  28.642  43.241   2.087
52925W        W19466  18.550  16.209  14.046
52926W        W19467  17.193  30.609   1.125
52927W        W19468   5.460  27.169   1.906
52928W        W19469  37.036   0.927  14.735
52929W        W19470  13.733  26.855  11.644
52930W        W19471  15.182  33.436   4.917
52931W        W19472  36.169   1.438   5.038
52932W        W19473  31.245  16.071   4.173
52933W        W19474  13.932  19.238  13.504
52934W        W19475  39.767   0.382   1.814
52935W        W19476  16.719  18.720   4.569
52936W        W19477  13.807  33.434   1.503
52937W        W19478  38.907  13.607  12.540
52938W        W19479  34.594   9.178   3.657
52939W        W19480  37.367   2.228  14.350
52940W        W19481  21.978  38.045  12.431
52941W        W19482  16.845  21.192  11.074
52942W        W19483   5.300  44.507   3.384
52943W        W19484   0.822  34.021  11.577
52944W        W19485  14.338  28.867  12.981
52945W        W19486   9.477  15.229  13.347
52946W        W19487  16.401   3.378   3.460
52947W        W19488   7.976  29.265  10.723
52948W        W19489  13.734  25.932  14.380
52949W        W19490  37.078  39.817   2.668
52950W        W19491  42.201  32.117  12.070
52951W        W19492  34.438  23.746   4.950
52952W        W19493   7.070  11.890  14.398
52953W        W19494  23.318  37.926  13.466
52954W        W19495  25.894  41.014  14.224
52955W        W19496  31.153  31.022   4.526
52956W        W19497  15.804  36.080   3.890
52957W        W19498  20.726  44.431   3.183
52958W        W19499  22.806  41.826  10.527
52959W        W19500   4.033  17.088  13.378
52960W        W19501  30.146  40.836   4.716
52961W        W19502  37.407  39.111   1.757
52962W        W19503  23.481  11.930  12.539
52963W        W19504  22.696  34.340   4.587
52964W        W19505  43.965  16.118  14.551
52965W        W19506  32.681  16.586  11.142
52966W        W19507  15.803  17.353  13.328
52967W        W19508  26.050  20.454  11.078
52968W        W19509  24.668   4.459   1.354
52969W        W19510   9.770  32.393   1.246
52970W        W19511  31.500  21.804  12.557
52971W        W19512   6.750  25.012  11.254
52972W        W19513   8.210   8.703   4.577
52973W        W19514   1.029  41.919   0.254
52974W        W19515  15.429  32.208  13.390
52975W        W19516  44.467  24.171   2.336
52976W        W19517  41.914  44.382   4.632
52977W        W19518  13.515  42.487  10.455
52978W        W19519  10.654  23.024  13.999
52979W        W19520  33.660  23.060   0.305
52980W        W19521  25.207  17.503  13.836
52981W        W19522  32.133  28.194   3.070
52982W        W19523  14.018  32.989  11.999
52983W        W19524  13.337   7.485  14.408
52984W        W19525  17.214  25.535  10.819
52985W        W19526  22.431  33.836   2.800
52986W        W19527  20.481  31.472   3.766
52987W        W19528   1.910  38.583  12.613
52988W        W19529  20.255  38.212  10.408
52989W        W19530  23.035  30.519  12.424
52990W        W19531   7.651  18.770   2.255
52991W        W19532   9.202  36.367  10.621
52992W        W19533   0.659   2.996   5.212
52993W        W19534  13.385  20.626   3.150
52994W        W19535  10.700  24.503  12.981
52995W        W19536  43.556  12.614  12.732
52996W        W19537  16.707  27.135   1.201
52997W        W19538  27.950   7.318  12.604
52998W        W19539  16.855  33.973  12.662
52999W        W19540  20.100  10.170  11.160
53000W        W19541  40.882  23.295   1.809
53001W        W19542  11.376  28.540  10.671
53002W        W19543  43.349  37.791   2.912
53003W        W19544  28.655  26.973  11.565
53004W        W19545  23.303  40.461  12.526
53005W        W19546  29.022  39.731  14.937
53006W        W19547   5.968  39.376   1.921
53007W        W19548  14.137  30.840   0.478
53008W        W19549   9.824  37.783  13.042
53009W        W19550  14.738   4.931  13.516
53010W        W19551  35.032   7.335   4.623
53011W        W19552  18.759   4.359   4.132
53012W        W19553  25.735  36.984  11.930
53013W        W19554  44.010   9.416   3.200
53014W        W19555  28.894  14.302   4.090
53015W        W19556  29.612  23.598  12.018
53016W        W19557  41.983   0.646   0.259
53017W        W19558  21.269  34.887  14.034
53018W        W19559   3.929  44.871   2.959
53019W        W19560  36.980  14.799   0.423
53020W        W19561   1.278  38.369   2.157
53021W        W19562  17.762  15.288  13.516
53022W        W19563   4.971  23.189   0.337
53023W        W19564  30.867   3.029  13.829
53024W        W19565  27.922   2.872   4.243
53025W        W19566  11.129  14.576  14.889
53026W        W19567  37.692  34.169  11.947
53027W        W19568  36.978  26.802   0.765
53028W        W19569   7.695  37.285   0.790
53029W        W19570  14.189  15.059  14.416
53030W        W19571  23.020  32.925   2.450
53031W        W19572  27.137   7.014  12.091
53032W        W19573  15.841  23.258  12.971
53033W        W19574  43.385   0.006   0.224
53034W        W19575  12.375  23.002  12.206
53035W        W19576  21.663  32.660  11.071
53036W        W19577  39.606  30.642   4.026
53037W        W19578  10.104   7.670   4.538
53038W        W19579  33.938  30.499  13.986
53039W        W19580   8.628  13.499  12.324
53040W        W19581   3.340  43.753  14.028
53041W        W19582  19.798   1.293   3.641
53042W        W19583  23.992  32.479   2.723
53043W        W19584   4.775  19.170  13.783
53044W        W19585  19.716  36.491  13.761
53045W        W19586  28.250   7.422  13.011
53046W        W19587  26.503  25.019   0.101
53047W        W19588  41.407   7.547   0.485
53048W        W19589  43.162  23.567  12.662
53049W        W19590  13.367  17.792  10.690
53050W        W19591   6.195  37.886  11.310
53051W        W19592  34.270  42.407   2.698
53052W        W19593  42.558   0.403   2.980
53053W        W19594  18.363  16.578  11.940
53054W        W19595  33.969  12.166   2.383
53055W        W19596   5.573  15.285  11.246
53056W        W19597  27.533  18.653  13.967
53057W        W19598  10.710  37.844   3.987
53058W        W19599  25.198  25.999  10.691
53059W        W19600  41.340   7.955  11.655
53060W        W19601  30.757  36.889  12.008
53061W        W19602   5.146   1.826   1.145
53062W        W19603  42.444   7.129  13.449
53063W        W19604  41.202   7.245   1.399
53064W        W19605  40.067  12.799   2.652
53065W        W19606  22.139  43.284  10.928
53066W        W19607  21.946  43.779   3.796
53067W        W19608  36.895  10.011  13.806
53068W        W19609  31.612  14.602  11.915
53069W        W19610   4.303  36.559  14.974
53070W        W19611  28.704   3.909   2.270
53071W        W19612  12.133  32.174   0.411
53072W        W19613   2.281  29.270  10.264
53073W        W19614  17.699  13.331   1.695
53074W        W19615   0.892  28.175  10.772
53075W        W19616  10.157  16.668   0.911
53076W        W19617  15.578  33.542  13.095
53077W        W19618  23.123  15.971   1.720
53078W        W19619  17.263  17.391  14.387
53079W        W19620   0.767   4.351  13.867
53080W        W19621  41.111  13.868  13.810
53081W        W19622   9.986   0.868  14.440
53082W        W19623  26.758   1.043  12.528
53083W        W19624  19.773  40.590   2.834
53084W        W19625  26.870  26.202  12.829
53085W        W19626  40.215  39.032   0.285
53086W        W19627  12.991  27.845   3.846
53087W        W19628   4.383  24.302   4.108
53088W        W19629  38.351  37.090  11.886
53089W        W19630  26.994  22.813   2.406
53090W        W19631   1.905  34.505   3.010
53091W        W19632  11.272   9.334   3.602
53092W        W19633  44.932   6.826   3.232
53093W        W19634   0.910  10.671  12.420
53094W        W19635  28.852  18.637  10.686
53095W        W19636  38.733  27.346   3.144
53096W        W19637  21.640   8.698   4.833
53097W        W19638  38.505   0.475   1.451
53098W        W19639  24.037  19.041   3.175
53099W        W19640  22.361   3.280  11.949
53100W        W19641  16.340  16.189   0.477
53101W        W19642  18.755  29.054  14.387
53102W        W19643  30.922  37.032   1.751
53103W        W19644  11.492  36.772   1.115
53104W        W19645  39.835  17.321   0.914
53105W        W19646  36.185  12.276  13.072
53106W        W19647  17.838   1.032   0.298
53107W        W19648  31.175  41.069   3.843
53108W        W19649  11.142  10.315   0.700
53109W        W19650  14.899  17.622   3.291
53110W        W19651  33.339  32.065  11.090
53111W        W19652  33.173  33.246   2.980
53112W        W19653  36.370   1.423   1.156
53113W        W19654  12.093  25.999   2.913
53114W        W19655  39.965  39.362  12.370
53115W        W19656   5.279   2.999   0.759
53116W        W19657  34.491  38.845  10.744
53117W        W19658  20.125   2.223   4.400
53118W        W19659  34.530  39.562   0.906
53119W        W19660  34.092   6.648   4.631
53120W        W19661   2.274  16.078  11.794
53121W        W19662   6.031   8.491  10.432
53122W        W19663  24.955   0.239   4.607
53123W        W19664  34.904  27.606   1.498
53124W        W19665   4.625  43.404  13.378
53125W        W19666  29.076  31.934  11.158
53126W        W19667  18.033  38.034  13.984
53127W        W19668   0.482  19.627  11.963
53128W        W19669  37.032  19.066  11.195
53129W        W19670  32.466   1.225  10.608
53130W        W19671  20.687  20.132  12.045
53131W        W19672  33.862   7.808  11.365
53132W        W19673   2.433  21.022   2.669
53133W        W19674  11.670  31.159  12.446
53134W        W19675  10.451  12.332   2.262
53135W        W19676  36.307   1.763  11.132
53136W        W19677  36.500  16.366   2.224
53137W        W19678   2.284  21.410   3.846
53138W        W19679  38.566  16.864   1.212
53139W        W19680  22.111  10.756  14.045
53140W        W19681  17.933  40.881   1.668
53141W        W19682  10.858  15.333   0.072
53142W        W19683  40.567  29.029   0.787
53143W        W19684  15.824   6.416   1.748
53144W        W19685  44.894  10.850   4.719
53145W        W19686  31.111   4.006  11.988
53146W        W19687  27.815  26.276  11.506
53147W        W19688   5.813   9.629  13.563
53148W        W19689  19.678  25.234   2.791
53149W        W19690  13.460  35.809  13.618
53150W        W19691  14.722  21.390   2.373
53151W        W19692  19.631  23.591   2.863
53152W        W19693  10.235  16.913  13.944
53153W        W19694  27.326  29.132   2.264
53154W        W19695   0.858  30.672  12.028
53155W        W19696  34.349   7.489   1.762
53156W        W19697   9.300  44.417  12.010
53157W        W19698  26.206  41.998   1.382
53158W        W19699  18.252  44.698   0.368
53159W        W19700  27.868  15.757  10.159
53160W        W19701   0.265   2.365  12.526
53161W        W19702  40.090  17.345  10.813
53162W        W19703  38.269   0.804  11.951
53163W        W19704  37.501  17.455   1.860
53164W        W19705  30.510  25.690   4.223
53165W        W19706  20.252  26.408   4.114
53166W        W19707  33.450  30.657  12.094
53167W        W19708  36.489  39.889   3.228
53168W        W19709   4.852   3.028  11.483
53169W        W19710  24.314   4.438   0.964
53170W        W19711  40.541  23.131   3.735
53171W        W19712  23.969   8.649  11.259
53172W        W19713   2.566   6.792  10.833
53173W        W19714   3.016   4.120  12.029
53174W        W19715   5.717  32.617   4.060
53175W        W19716  38.219  12.193   4.762
53176W        W19717   6.885  14.757  13.937
53177W        W19718   7.879   4.957   0.146
53178W        W19719  27.429   6.123  13.070
53179W        W19720  35.862  29.496   1.679
53180W        W19721  18.773  10.736   2.670
53181W        W19722   5.912  24.095  13.370
53182W        W19723  26.388  23.990   0.374
53183W        W19724  15.007  23.638   4.121
53184W        W19725  30.514  23.249   3.103
53185W        W19726  35.972  33.462   3.241
53186W        W19727  32.898   7.801   0.228
53187W        W19728  40.892   6.801   2.217
53188W        W19729  10.004  10.780  12.441
53189W        W19730  10.639   7.421  13.990
53190W        W19731  18.018  15.525   1.427
53191W        W19732  11.224  32.194   0.317
53192W        W19733  42.401  19.766  14.048
53193W        W19734  36.849  27.462   3.279
53194W        W19735  17.850  22.358  11.115
53195W        W19736  33.831   8.114   1.602
53196W        W19737  42.971  12.608  10.854
53197W        W19738  14.305  17.434  10.052
53198W        W19739  11.502   6.365   4.489
53199W        W19740   3.920  33.433  11.170
53200W        W19741  38.509  36.316  14.882
53201W        W19742  34.092   9.129   1.701
53202W        W19743   6.831   2.957   4.590
53203W        W19744   0.398  41.603  11.535
53204W        W19745  12.257   2.965  12.870
53205W        W19746  18.508  10.366   0.770
53206W        W19747  40.438  22.163  13.598
53207W        W19748  18.910  34.361  10.766
53208W        W19749  34.963  28.495  14.551
53209W        W19750  37.148  27.123  13.403
53210W        W19751  30.524  42.011   2.720
53211W        W19752  39.035   6.502  12.579
53212W        W19753  25.531  12.788   1.684
53213W        W19754  17.805   1.352  14.858
53214W        W19755  29.862  19.590  12.995
53215W        W19756  14.747   1.372  11.255
53216W        W19757  29.453  31.317  12.410
53217W        W19758  25.853  37.664  11.165
53218W        W19759  19.725  41.852  14.893
53219W        W19760   2.455   6.685   2.892
53220W        W19761  22.468   3.639   0.405
53221W        W19762  20.944  19.722   1.991
53222W        W19763  17.617  11.359   3.171
53223W        W19764  36.532  27.126   1.802
53224W        W19765   6.526  13.316  13.341
53225W        W19766  36.893  15.252  11.299
53226W        W19767  31.579  27.093   4.371
53227W        W19768  31.496  39.303   3.678
53228W        W19769   8.963  12.386  12.102
53229W        W19770  14.795  10.719  10.931
53230W        W19771  31.177  26.283   1.726
53231W        W19772  31.280  38.013   2.036
53232W        W19773  17.599  10.151   0.338
53233W        W19774  33.905  17.568   3.576
53234W        W19775  41.758  12.754   2.153
53235W        W19776  24.308   6.669  11.129
53236W        W19777  26.155  35.491   3.281
53237W        W19778  18.583   3.530  13.541
53238W        W19779   4.002  25.137  13.855
53239W        W19780  13.430   1.833  11.269
53240W        W19781   3.933  19.678  10.860
53241W        W19782  19.554  27.101   2.186
53242W        W19783  12.712  13.231   0.075
53243W        W19784   2.243  20.303  14.457
53244W        W19785  16.413  17.662  11.653
53245W        W19786   2.867  15.763  13.406
53246W        W19787   5.711   6.164   2.530
53247W        W19788   7.237   7.833   2.770
53248W        W19789  36.307  40.342  14.808
53249W        W19790  25.185  39.287   2.310
53250W        W19791   6.346  13.885  10.312
53251W        W19792  42.195  17.245  12.361
53252W        W19793   1.697   4.402  13.011
53253W        W19794   5.270  27.621   1.176
53254W        W19795   5.199  29.360   2.671
53255W        W19796   2.931  35.509  12.398
53256W        W19797  29.482  28.819  14.019
53257W        W19798  29.470   8.333  10.474
53258W        W19799  32.528  15.679   3.845
53259W        W19800  18.722  20.502   2.786
53260W        W19801   7.000   3.712  11.226
53261W        W19802  18.577  19.917   3.598
53262W        W19803   8.697  40.361   2.570
53263W        W19804  40.830  41.773   1.233
53264W        W19805   2.493  40.053  14.796
53265W        W19806  32.599  12.027  10.656
53266W        W19807  28.174   0.211  14.847
53267W        W19808   7.920  13.297  11.999
53268W        W19809   7.976  27.678   2.297
53269W        W19810  22.906  44.427  13.975
53270W        W19811  10.603  12.620  10.578
53271W        W19812  16.373   0.911   3.342
53272W        W19813  22.083  40.833   1.308
53273W        W19814   5.327  26.873  11.118
53274W        W19815  38.348   0.230   4.586
53275W        W19816  39.580  41.416  11.521
53276W        W19817   7.398   8.724  10.667
53277W        W19818  30.115  26.154   3.680
53278W        W19819   9.762  37.528  11.152
53279W        W19820   6.808  12.367  13.290
53280W        W19821   7.520   2.837  10.373
53281W        W19822   8.456   4.694   0.850
53282W        W19823  41.650   5.427   1.633
53283W        W19824  17.006  34.269  11.543
53284W        W19825   7.164  25.817  12.547
53285W        W19826  16.724  13.578  11.001
53286W        W19827  33.780  19.994   2.860
53287W        W19828  28.421  10.583  14.029
53288W        W19829   9.176   8.829   1.839
53289W        W19830  34.060  15.152  11.540
53290W        W19831   5.025  24.715   2.754
53291W        W19832   5.171  11.751   0.443
53292W        W19833  11.843  20.538   2.332
53293W        W19834  33.296   8.688  10.944
53294W        W19835  28.030  20.553  11.101
53295W        W19836  32.234  36.507  11.200
53296W        W19837  11.716  29.953   3.670
53297W        W19838  33.836  41.698   1.416
53298W        W19839  43.003   1.726   0.496
53299W        W19840  37.572  16.531  14.986
53300W        W19841   8.494  37.576  12.519
53301W        W19842   3.092  35.384   4.155
53302W        W19843  40.123  18.649  12.269
53303W        W19844  36.837  25.499   1.030
53304W        W19845  41.236   9.835   1.825
53305W        W19846  37.049  38.044   3.349
53306W        W19847  30.070  42.781  11.505
53307W        W19848  16.169  11.615   3.728
53308W        W19849   1.966  32.151   9.850
53309W        W19850  30.419   7.827   3.731
53310W        W19851  11.320  13.599   2.163
53311W        W19852  19.946  20.668  13.144
53312W        W19853   9.579  25.784  14.289
53313W        W19854  40.846  22.680  14.415
53314W        W19855  34.359  35.641   3.628
53315W        W19856  14.738  20.453   0.413
53316W        W19857  14.880  20.131  11.949
53317W        W19858  18.202  43.943   1.721
53318W        W19859  34.408  43.453   1.939
53319W        W19860  13.562  39.512  14.454
53320W        W19861  12.791  39.435   2.703
53321W        W19862  20.881  40.043   3.603
53322W        W19863  42.866  32.305   4.284
53323W        W19864  22.738   6.805   4.843
53324W        W19865  32.078  32.878  12.488
53325W        W19866  10.812  13.561  12.547
53326W        W19867   8.813  41.807   1.674
53327W        W19868  32.431   9.247  11.822
53328W        W19869   2.863  35.990   0.706
53329W        W19870   4.984  29.781  10.355
53330W        W19871  15.510  16.542   4.320
53331W        W19872   9.716  22.678  11.539
53332W        W19873  12.080  13.052   0.747
53333W        W19874   6.404   5.899   0.953
53334W        W19875   6.230   0.309  14.113
53335W        W19876   5.628  34.753   2.706
53336W        W19877  38.393  19.829  11.918
53337W        W19878  12.104  40.980  11.876
53338W        W19879  40.277  27.624  10.748
53339W        W19880  33.609  12.599  14.909
53340W        W19881  40.120  29.358   4.234
53341W        W19882  17.198  19.284  11.219
53342W        W19883   1.811  40.953  12.064
53343W        W19884  31.241   8.986  11.253
53344W        W19885  18.568  10.721   1.745
53345W        W19886  14.541  41.376  12.407
53346W        W19887  43.747  11.391  10.707
53347W        W19888   0.743  19.537   2.597
53348W        W19889  42.810  36.653   2.291
53349W        W19890  17.610  15.183   1.477
53350W        W19891  23.867  37.692   2.671
53351W        W19892  11.811  10.980   2.817
53352W        W19893  43.138  12.063  14.029
53353W        W19894  22.524  39.476   1.139
53354W        W19895  44.006  34.607  10.723
53355W        W19896  27.742   4.813  12.570
53356W        W19897  18.128  43.582  11.584
53357W        W19898   6.347  30.703   5.216
53358W        W19899  39.076  39.519  14.666
53359W        W19900  24.610  42.736  10.833
53360W        W19901   2.234  20.774  11.097
53361W        W19902  22.987   3.146  10.187
53362W        W19903  11.375  35.371   2.734
53363W        W19904  13.510  18.699  14.293
53364W        W19905  22.380  18.837   2.194
53365W        W19906  18.169   3.330  14.974
53366W        W19907  23.638  32.794  14.856
53367W        W19908  40.829  17.230  12.140
53368W        W19909  33.930  43.751  11.158
53369W        W19910  37.827  41.846   0.802
53370W        W19911  43.230  19.214  10.648
53371W        W19912  34.623   2.785   0.254
53372W        W19913   0.370   5.849  14.051
53373W        W19914  43.608  31.457   2.974
53374W        W19915  42.298  19.268  14.243
53375W        W19916   2.809   6.833   1.221
53376W        W19917  31.561  38.303   0.790
53377W        W19918   0.215  40.802   4.856
53378W        W19919  42.569  17.568   3.764
53379W        W19920   4.699  24.689   4.226
53380W        W19921  33.181  24.228   3.869
53381W        W19922  13.604  39.407   4.422
53382W        W19923  42.345  29.075  12.950
53383W        W19924  28.824  24.676  14.609
53384W        W19925   7.812  24.690   1.269
53385W        W19926  13.619   9.835  12.048
53386W        W19927  36.842  38.949  12.912
53387W        W19928  43.777  18.156  12.481
53388W        W19929  44.079  35.158  11.582
53389W        W19930  10.963  39.822  10.295
53390W        W19931  33.982  25.449   4.149
53391W        W19932  25.721   0.727   1.278
53392W        W19933  23.386  27.398  10.966
53393W        W19934   7.287  12.616  13.979
53394W        W19935   7.746  31.358   3.244
53395W        W19936  40.932  35.414   3.445
53396W        W19937  20.927   6.913  10.703
53397W        W19938  24.053  12.249  11.718
53398W        W19939   7.114  10.175  11.242
53399W        W19940   3.659  34.254   4.727
53400W        W19941  44.866  39.787  14.372
53401W        W19942  31.145  31.041  11.047
53402W        W19943  18.359  10.708   0.357
53403W        W19944  13.665  37.432   2.315
53404W        W19945  40.445  40.090  12.104
53405W        W19946  26.050  28.527   0.813
53406W        W19947  31.559   7.465  11.230
53407W        W19948   4.055  32.668  12.533
53408W        W19949  10.942  21.131   2.982
53409W        W19950  10.783  20.062  13.452
53410W        W19951  12.265  32.362   1.873
53411W        W19952   7.052   4.584  11.163
53412W        W19953  37.811  40.223  13.783
53413W        W19954  38.808   0.577   0.463
53414W        W19955  36.880  41.861   3.005
53415W        W19956  42.454  19.769  12.189
53416W        W19957  39.438  14.035   0.780
53417W        W19958   2.851  38.058  12.951
53418W        W19959  36.115   4.993   1.698
53419W        W19960  25.509   6.219   0.711
53420W        W19961  28.186  31.066  12.017
53421W        W19962  24.217  15.677   4.772
53422W        W19963  39.065   4.486  11.641
53423W        W19964   7.413  23.275   1.471
53424W        W19965  32.128  17.670   1.317
53425W        W19966  16.182  31.092   2.815
53426W        W19967   3.880  39.621  12.885
53427W        W19968  20.527  40.511  14.234
53428W        W19969   4.972  20.994   3.889
53429W        W19970  27.649  38.367   3.656
53430W        W19971  16.126  41.331   1.789
53431W        W19972   7.912  40.942  10.367
53432W        W19973  19.503  39.743  11.645
53433W        W19974  11.752  30.957   2.764
53434W        W19975  14.771   1.209  11.736
53435W        W19976  11.851  40.891   2.605
53436W        W19977  21.291   8.165   2.647
53437W        W19978  33.047  33.331  13.337
53438W        W19979  18.103  30.880  12.087
53439W        W19980  13.130  28.624  14.050
53440W        W19981  16.720  14.781  11.091
53441W        W19982  35.432  34.457  11.129
53442W        W19983  24.981  37.609   4.195
53443W        W19984   2.536  36.490  14.047
53444W        W19985  21.967  35.465   1.788
53445W        W19986  40.914  42.071   0.774
53446W        W19987   0.765  40.282  10.614
53447W        W19988  38.017  16.250   2.768
53448W        W19989  28.928  10.495  11.005
53449W        W19990  40.669  18.309  12.895
53450W        W19991   1.301  40.981  10.790
53451W        W19992   0.309  18.515   3.690
53452W        W19993   2.944   5.897  11.683
53453W        W19994  29.521  29.528   3.674
53454W        W19995  42.861  14.292   2.707
53455W        W19996   1.451   6.615   3.017
53456W        W19997   6.332  35.052  11.179
53457W        W19998  29.086  38.852  13.309
53458W        W19999  41.396   9.874   2.719
53459W        W20000  28.193  35.098  14.507
53460W        W20001  10.589  17.506  10.552
53461W        W20002  44.958  35.688   4.610
53462W        W20003  37.523  32.967   1.614
53463W        W20004  23.510   5.920  10.725
53464W        W20005  38.467  10.437  12.030
53465W        W20006   1.288  25.849   2.249
53466W        W20007  19.808  27.797   3.211
53467W        W20008  22.134  38.495  14.826
53468W        W20009   9.261  16.395   4.106
53469W        W20010  20.042  21.526   3.792
53470W        W20011  14.499  21.289  14.578
53471W        W20012  34.824   6.367   0.321
53472W        W20013  15.159  11.669   3.338
53473W        W20014  11.751  20.725  12.543
53474W        W20015  43.448  23.077  11.160
53475W        W20016   3.454  11.896  12.361
53476W        W20017  20.676  28.312   0.955
53477W        W20018   7.770  32.426   4.240
53478W        W20019   7.925   7.097  14.554
53479W        W20020  44.870  43.146  11.896
53480W        W20021  23.691  30.952  13.889
53481W        W20022  16.039  37.435  13.829
53482W        W20023  29.880  21.196  10.687
53483W        W20024  14.343   9.349  12.066
53484W        W20025  40.775  14.226  14.467
53485W        W20026  31.949  16.801  10.796
53486W        W20027   1.508  33.916  10.466
53487W        W20028  35.903   0.577   0.918
53488W        W20029  29.176  10.643   1.213
53489W        W20030  42.212  10.906  11.497
53490W        W20031  17.915   9.277  12.941
53491W        W20032  34.855  16.039   2.702
53492W        W20033  28.668   2.937  14.022
53493W        W20034   3.654  33.686   3.175
53494W        W20035  31.973  33.590   0.881
53495W        W20036  18.333   9.097   1.344
53496W        W20037  37.422  10.622   0.726
53497W        W20038  15.736  19.840   9.850
53498W        W20039  23.717  16.284  10.738
53499W        W20040   6.232   6.184   4.959
53500W        W20041  24.730   5.797   0.224
53501W        W20042  21.501  16.497   3.300
53502W        W20043  39.001  23.036   3.082
53503W        W20044  20.285  17.326   1.333
53504W        W20045  22.833  31.251   4.069
53505W        W20046  23.087   1.923  14.749
53506W        W20047  17.384   1.810   3.761
53507W        W20048  11.673  42.823  12.500
53508W        W20049  22.127  42.512   0.265
53509W        W20050  38.005  39.440   3.538
53510W        W20051  10.879   7.434  14.896
53511W        W20052  12.174  19.224  14.739
53512W        W20053  37.072   9.037  10.744
53513W        W20054  30.099  28.060   3.226
53514W        W20055  23.504  13.309   0.370
53515W        W20056  30.972  41.818   0.461
53516W        W20057  42.957   7.253   2.693
53517W        W20058   5.994  10.325  14.675
53518W        W20059  44.068   9.034   0.852
53519W        W20060  33.834  20.901   1.996
53520W        W20061   0.716   2.756   4.050
53521W        W20062   8.037  42.719  14.858
53522W        W20063  32.039  38.396  11.558
53523W        W20064  14.811  37.272   1.881
53524W        W20065   9.419   5.660  11.918
53525W        W20066  26.398  19.966  13.456
53526W        W20067   4.636  36.466   2.127
53527W        W20068   4.685  35.609  11.225
53528W        W20069   4.487   9.358  12.622
53529W        W20070  11.887  33.090  13.743
53530W        W20071  12.412  27.915   4.119
53531W        W20072  34.324  21.034  10.740
53532W        W20073  17.199  38.872  13.408
53533W        W20074   4.691   9.342   0.994
53534W        W20075  41.425  31.036   0.553
53535W        W20076  41.087  39.960   0.389
53536W        W20077  41.770  13.448  13.046
53537W        W20078   6.378  22.204   2.904
53538W        W20079  23.982  41.904   0.306
53539W        W20080  24.304  13.671  14.310
53540W        W20081   5.689  38.475  11.509
53541W        W20082  30.171  18.596   1.319
53542W        W20083  29.747  11.021   3.871
53543W        W20084   6.834  38.847  11.774
53544W        W20085  35.059  25.778  11.718
53545W        W20086  12.704  25.613  13.905
53546W        W20087  38.412  14.627  10.725
53547W        W20088  38.608  10.530  13.351
53548W        W20089   9.806  42.680  10.161
53549W        W20090  24.520  11.785   3.199
53550W        W20091  41.941  36.959   1.852
53551W        W20092   2.951   8.403   1.805
53552W        W20093  40.343  36.841  14.912
53553W        W20094  33.435  41.644   1.075
53554W        W20095  27.572  43.492   0.982
53555W        W20096  30.592   9.616   4.071
53556W        W20097   2.231  25.984  11.861
53557W        W20098  20.248  15.606  12.594
53558W        W20099  13.834  16.449  14.003
53559W        W20100  11.095   7.330  10.507
53560W        W20101  14.251   1.995   4.684
53561W        W20102  44.696  40.994  14.079
53562W        W20103  37.068  19.982  12.159
53563W        W20104  25.137  31.926  10.732
53564W        W20105  25.902  40.038   1.999
53565W        W20106  41.517   1.187   0.865
53566W        W20107  12.244  25.671  13.594
53567W        W20108   3.957  16.662  14.014
53568W        W20109   3.388  15.231   4.814
53569W        W20110  26.055  16.102   1.406
53570W        W20111   0.949  36.825  13.402
53571W        W20112  42.085  14.877   4.076
53572W        W20113   7.965  16.710   4.786
53573W        W20114  36.955  18.279  10.763
53574W        W20115  41.318   3.969  11.016
53575W        W20116  31.473  23.299  11.610
53576W        W20117  22.549  23.709  13.141
53577W        W20118  33.159   6.812   0.158
53578W        W20119  34.717   6.613  14.104
53579W        W20120  31.939   8.403  14.223
53580W        W20121  12.626   2.221  14.884
53581W        W20122  13.340  27.893   4.220
53582W        W20123  22.619   6.754   0.231
53583W        W20124   0.533  27.234  14.342
53584W        W20125   0.886  39.115  13.854
53585W        W20126   0.790   9.348   1.660
53586W        W20127  44.802  26.098  14.805
53587W        W20128  28.336  20.610  11.581
53588W        W20129   6.517  27.679   5.291
53589W        W20130  13.917  39.029  13.057
53590W        W20131  28.697  28.074  11.549
53591W        W20132  23.232  22.433   3.233
53592W        W20133  28.749   7.001  13.454
53593W        W20134  18.590   0.036   1.807
53594W        W20135  40.873  14.134   2.745
53595W        W20136  39.406  31.458   4.037
53596W        W20137   0.782  38.475  11.940
53597W        W20138  20.350  27.719   0.214
53598W        W20139  39.907  13.604  12.350
53599W        W20140  19.739  13.348  14.873
53600W        W20141  10.185   1.988   2.736
53601W        W20142  15.294  31.230   2.354
53602W        W20143  19.278   2.542  13.364
53603W        W20144  18.568  36.449   0.736
53604W        W20145  16.647  40.663   1.959
53605W        W20146  17.570  18.202  12.207
53606W        W20147   2.015  16.442   3.789
53607W        W20148  28.991  37.016   2.199
53608W        W20149  21.573  37.875   3.056
53609W        W20150  21.198   5.884  14.459
53610W        W20151  31.123  42.541   9.983
53611W        W20152  11.628  27.951   3.672
53612W        W20153  34.939   6.393   1.969
53613W        W20154  18.651  14.597  14.274
53614W        W20155  43.226  20.861  12.991
53615W        W20156  18.078  19.714   3.731
53616W        W20157  39.890   3.308   0.781
53617W        W20158  32.939  24.137   4.678
53618W        W20159   9.361  20.567  12.596
53619W        W20160  13.345  11.874  13.435
53620W        W20161   6.330  21.333  10.710
53621W        W20162  32.080  22.873   2.312
53622W        W20163  12.113  37.933  12.828
53623W        W20164  22.974  37.365  14.832
53624W        W20165  17.734  20.952   2.738
53625W        W20166   4.217  20.536   0.732
53626W        W20167  29.659  14.924   2.965
53627W        W20168  25.753  41.745   1.429
53628W        W20169  28.134  13.104   2.362
53629W        W20170  16.433  28.972   0.382
53630W        W20171   6.115  13.266   2.407
53631W        W20172  18.490   4.914   3.682
53632W        W20173  24.957  21.531   2.308
53633W        W20174   0.821  11.765   4.560
53634W        W20175  18.587  14.182  13.006
53635W        W20176  35.288  12.228   3.206
53636W        W20177  18.280  28.575  12.262
53637W        W20178  17.688   1.335  11.098
53638W        W20179  33.366   2.363  14.582
53639W        W20180  17.957  35.500  11.690
53640W        W20181  44.609  29.598   1.391
53641W        W20182  26.363   7.591  13.497
53642W        W20183  10.683  22.221   3.663
53643W        W20184   9.386  16.608   2.119
53644W        W20185  36.000  19.665  13.633
53645W        W20186  15.164  21.688   1.512
53646W        W20187  31.413  16.269  14.491
53647W        W20188  22.953  23.979   1.204
53648W        W20189  26.141   5.355   5.495
53649W        W20190  35.301  10.924   0.022
53650W        W20191  28.397  34.058   2.659
53651W        W20192  37.896  27.013   3.124
53652W        W20193   5.265  34.912  13.447
53653W        W20194  23.161  40.798   2.796
53654W        W20195   4.406   5.990   4.600
53655W        W20196   1.648   7.368   0.507
53656W        W20197  25.946  15.897   3.272
53657W        W20198  34.977   1.521   4.478
53658W        W20199  12.213   0.764  12.221
53659W        W20200   0.776   9.652   4.077
53660W        W20201  22.597   3.200  10.520
53661W        W20202  13.128  19.301   0.008
53662W        W20203  17.841  39.889  12.942
53663W        W20204  39.860   3.697   4.884
53664W        W20205   5.339   8.240   4.655
53665W        W20206  42.983  14.380   4.104
53666W        W20207   8.405  13.237  11.886
53667W        W20208   2.835  22.559  13.575
53668W        W20209  34.158   0.771  10.629
53669W        W20210  20.289   3.655   3.169
53670W        W20211  10.210   0.539   2.247
53671W        W20212   5.864  12.396  13.343
53672W        W20213  31.855   8.352  14.729
53673W        W20214   0.404  21.704   3.646
53674W        W20215  11.155  35.182   0.288
53675W        W20216  19.288  40.875  12.531
53676W        W20217  29.475   6.680  10.383
53677W        W20218  21.501  26.912  12.595
53678W        W20219  31.983  40.772   2.922
53679W        W20220  43.917  17.676   1.756
53680W        W20221  41.024  26.531   3.993
53681W        W20222   7.125  41.564  14.774
53682W        W20223  38.570  19.989  12.595
53683W        W20224  42.764  27.554   2.716
53684W        W20225  37.293  37.895   4.651
53685W        W20226  16.667  43.092  11.127
53686W        W20227  35.327   7.200  11.426
53687W        W20228  34.782   5.888  11.661
53688W        W20229  13.154  17.654  14.300
53689W        W20230  37.488   6.052  13.034
53690W        W20231  17.164  12.741  11.580
53691W        W20232  17.591  10.163   4.463
53692W        W20233  11.712  18.643   1.288
53693W        W20234  21.442  22.551   0.488
53694W        W20235   9.600  22.799   1.691
53695W        W20236  43.376  11.204  11.604
53696W        W20237   5.183  41.600   2.937
53697W        W20238  17.559  27.703  14.422
53698W        W20239  13.075  35.967   3.734
53699W        W20240  22.550   4.136   0.305
53700W        W20241   2.125   0.888  11.541
53701W        W20242  33.192  29.551   2.394
53702W        W20243   9.236  11.782   3.314
53703W        W20244  13.012  38.797   5.498
53704W        W20245  23.152  44.030   4.645
53705W        W20246  26.860   4.752  13.377
53706W        W20247  41.028  18.714  13.979
53707W        W20248   6.239  14.753   1.835
53708W        W20249  13.398   5.922  12.038
53709W        W20250  19.725  24.421   3.452
53710W        W20251  25.307  44.488   2.651
53711W        W20252  15.313  11.236  14.928
53712W        W20253   4.066  19.330  11.207
53713W        W20254  15.139  21.601   0.090
53714W        W20255  17.621   9.864  10.896
53715W        W20256  44.333  27.963  10.940
53716W        W20257  10.129  31.436  11.625
53717W        W20258  41.800  27.239  11.957
53718W        W20259  36.486   9.213  14.404
53719W        W20260  31.725  23.772  12.644
53720W        W20261  16.847  26.979   3.118
53721W        W20262  10.825   7.356   2.405
53722W        W20263  35.002   8.368   4.532
53723W        W20264  26.679  34.900  10.631
53724W        W20265  28.469   9.679  13.550
53725W        W20266  42.248  34.899   0.227
53726W        W20267  36.731  18.371  10.312
53727W        W20268   5.768  32.359  10.530
53728W        W20269  17.801  39.830  11.034
53729W        W20270  38.725  13.200   1.520
53730W        W20271  18.108  37.021   3.200
53731W        W20272  40.987  14.212   3.651
53732W        W20273  19.539  22.836  10.754
53733W        W20274  18.661  31.986   0.360
53734W        W20275  22.157  38.518  14.182
53735W        W20276  33.382   7.625   2.259
53736W        W20277  17.260  28.168   3.266
53737W        W20278   8.901  29.164   3.651
53738W        W20279   8.963   7.637  10.723
53739W        W20280  39.940  22.871  12.997
53740W        W20281   3.309  19.264  11.649
53741W        W20282   9.279  40.995   4.587
53742W        W20283   8.600  26.725   4.450
53743W        W20284  29.108  40.888   2.757
53744W        W20285  24.959   6.730  14.374
53745W        W20286   3.920  25.554  14.446
53746W        W20287  29.056  33.939  14.957
53747W        W20288  17.320  42.042   2.843
53748W        W20289  44.536  34.349  12.530
53749W        W20290  42.498  31.121  10.816
53750W        W20291   4.346  14.780   1.927
53751W        W20292   4.721  16.287  12.486
53752W        W20293   1.603  40.488  12.004
53753W        W20294  25.074  25.228  11.729
53754W        W20295   9.524  14.088   1.153
53755W        W20296   3.230   2.179  14.196
53756W        W20297  27.439  39.076  13.847
53757W        W20298  13.997  21.486  12.087
53758W        W20299   5.938  25.088  13.995
53759W        W20300  43.831  22.608   4.156
53760W        W20301  24.566  24.275  13.143
53761W        W20302  42.245  38.537   3.707
53762W        W20303  16.405   7.275  13.374
53763W        W20304  22.931   9.193  10.751
53764W        W20305  25.324  12.883  10.653
53765W        W20306  34.376  42.894   2.161
53766W        W20307  28.414  31.854  12.782
53767W        W20308  21.874  38.560   4.121
53768W        W20309  41.265  29.612   4.243
53769W        W20310  36.035  35.485  14.858
53770W        W20311   3.783  27.296   4.186
53771W        W20312  44.530  25.570  10.566
53772W        W20313  42.931  43.540  12.078
53773W        W20314  12.082   3.553  13.455
53774W        W20315   0.722  28.532   3.831
53775W        W20316   5.991  27.334  12.074
53776W        W20317  24.159   6.280  12.818
53777W        W20318  27.625  33.441   3.616
53778W        W20319  21.295  29.403  12.526
53779W        W20320   2.391   5.002   4.168
53780W        W20321  27.576  34.103   4.874
53781W        W20322   9.914  41.709   0.249
53782W        W20323   9.339  16.122   0.229
53783W        W20324  11.505  17.701   1.438
53784W        W20325  16.081   8.702   4.695
53785W        W20326  40.785   4.763   4.634
53786W        W20327  30.362  23.453  12.504
53787W        W20328  23.956  13.091   2.503
53788W        W20329  33.109  38.450  12.971
53789W        W20330  20.517  11.676  10.514
53790W        W20331   2.692   3.853  14.477
53791W        W20332  10.109  37.425   2.378
53792W        W20333  37.364  44.101  13.780
53793W        W20334  27.564  26.328  14.951
53794W        W20335   8.179  12.809   2.108
53795W        W20336   6.477   6.765   0.478
53796W        W20337  26.583  34.881   4.144
53797W        W20338  14.399  40.766  11.972
53798W        W20339  34.180  37.370   3.992
53799W        W20340  44.093  16.430  10.066
53800W        W20341  42.685  16.629  14.343
53801W        W20342  44.797  25.185   0.645
53802W        W20343   9.200  38.602   1.845
53803W        W20344  14.424  12.918  13.963
53804W        W20345  26.049  28.572  13.498
53805W        W20346  11.864  12.963   1.268
53806W        W20347  29.929   1.396   1.777
53807W        W20348  35.632  29.181   0.894
53808W        W20349  29.143  29.968  13.080
53809W        W20350  10.055   7.328   4.936
53810W        W20351  25.731  37.743  13.561
53811W        W20352  37.166  27.373  12.082
53812W        W20353  36.645  31.585   0.754
53813W        W20354  37.535  23.362  14.731
53814W        W20355  39.770   4.244   4.158
53815W        W20356  32.888  12.109   4.195
53816W        W20357  41.028   3.055  12.845
53817W        W20358   0.520   4.302   1.230
53818W        W20359  29.900  33.112   0.009
53819W        W20360  18.151  34.122   0.277
53820W        W20361   4.396  42.696   3.460
53821W        W20362  37.369  31.628  13.316
53822W        W20363  16.125   6.851  13.494
53823W        W20364  16.171  21.586   1.388
53824W        W20365  34.659  41.463   1.462
53825W        W20366  32.269   9.148   2.879
53826W        W20367   6.193  43.502  12.054
53827W        W20368  31.060   5.669  12.492
53828W        W20369  20.181   5.651   5.057
53829W        W20370  24.891  36.727  10.912
53830W        W20371   4.387   5.371  14.154
53831W        W20372  33.661  36.723  12.971
53832W        W20373  29.570   4.538  11.480
53833W        W20374  31.516  21.068   3.498
53834W        W20375   7.948  14.847  12.885
53835W        W20376  10.156  44.694  10.553
53836W        W20377  22.309  42.108  11.110
53837W        W20378  20.654  17.288   1.885
53838W        W20379  19.527  10.580  14.552
53839W        W20380   0.362  18.987  14.501
53840W        W20381  29.782   5.752  12.075
53841W        W20382  11.804  24.732  11.287
53842W        W20383  24.947  34.081   0.020
53843W        W20384   3.851  19.250   1.279
53844W        W20385  38.680  28.731   3.133
53845W        W20386  30.164   0.199   1.336
53846W        W20387  25.739   9.684   0.251
53847W        W20388  14.309  12.672  13.090
53848W        W20389  38.251  21.108   3.950
53849W        W20390  31.103  23.531  13.029
53850W        W20391  34.030  35.509  14.885
53851W        W20392  19.692  28.396  13.695
53852W        W20393  23.802  20.304   3.375
53853W        W20394   3.003  34.502  11.011
53854W        W20395  10.321  44.083  12.476
53855W        W20396  19.638   6.975  10.185
53856W        W20397  35.125  12.676   3.882
53857W        W20398  30.683   3.399   3.281
53858W        W20399  19.062  16.029   2.312
53859W        W20400   4.160  42.740   1.037
53860W        W20401  37.385  38.454   3.448
53861W        W20402   2.591  22.953  13.847
53862W        W20403   5.736  38.417  12.417
53863W        W20404  34.688  13.617   4.147
53864W        W20405  43.708   4.972  12.594
53865W        W20406  33.034  25.418  13.960
53866W        W20407  39.506  27.765   1.810
53867W        W20408  32.072  37.091   3.879
53868W        W20409   1.855  28.329   3.360
53869W        W20410  18.052  32.047  12.330
53870W        W20411  23.188  18.222  10.650
53871W        W20412  31.409   7.709  12.591
53872W        W20413   3.361  39.384   4.060
53873W        W20414  13.133  16.755   4.809
53874W        W20415  44.047   3.857   1.213
53875W        W20416   2.738  18.743   1.785
53876W        W20417  33.677  24.248  11.945
53877W        W20418  13.729  22.469   4.338
53878W        W20419  39.374  25.339   4.843
53879W        W20420  30.158  23.205  14.855
53880W        W20421  19.322   5.033   0.458
53881W        W20422   6.879  42.448  11.062
53882W        W20423  27.952  10.890  12.038
53883W        W20424   7.347   9.995  12.510
53884W        W20425  42.266  29.904   0.241
53885W        W20426  39.961  27.796   2.816
53886W        W20427  30.344  41.002   0.259
53887W        W20428   4.657  23.541   0.641
53888W        W20429   5.767  34.869  12.940
53889W        W20430  32.536   6.376  13.069
53890W        W20431   8.294   5.569   4.034
53891W        W20432  39.476   4.015  14.525
53892W        W20433   1.437   6.567  12.678
53893W        W20434  37.894  34.861   1.788
53894W        W20435   7.138   7.954   0.462
53895W        W20436  31.154  22.137   0.912
53896W        W20437  11.391  22.588  13.550
53897W        W20438  20.266  31.479  11.645
53898W        W20439   6.830  22.462   0.070
53899W        W20440  44.451  42.094  13.270
53900W        W20441   0.934  15.579  11.963
53901W        W20442   6.714  12.184   0.716
53902W        W20443   2.870  32.382  12.100
53903W        W20444  28.267  27.037   1.843
53904W        W20445   2.002  18.072   1.377
53905W        W20446   5.694  12.500   4.159
53906W        W20447  19.599  38.748  11.783
53907W        W20448  44.860  18.288   4.706
53908W        W20449   1.749  35.102   2.877
53909W        W20450   0.519  22.211  13.410
53910W        W20451  17.481  35.353   4.523
53911W        W20452   2.939  44.039   3.895
53912W        W20453   8.834  18.229  10.684
53913W        W20454  36.678  10.568   1.325
53914W        W20455  25.568  39.536  14.068
53915W        W20456   1.982  42.918   0.350
53916W        W20457   6.185  11.056   1.181
53917W        W20458  28.736   1.369   0.288
53918W        W20459  18.566  32.558   5.364
53919W        W20460  41.817  30.984   2.322
53920W        W20461  16.014  40.924   0.244
53921W        W20462  40.815   1.901  11.691
53922W        W20463  35.393  28.424  11.205
53923W        W20464   6.231  32.956   2.787
53924W        W20465  24.746  41.831   4.627
53925W        W20466  15.326   9.936   1.223
53926W        W20467  15.684  18.512  10.784
53927W        W20468  36.649  32.510  12.869
53928W        W20469  29.100  41.760  12.473
53929W        W20470  13.462  31.505  12.862
53930W        W20471  18.678  41.227   0.922
53931W        W20472  34.959  33.567  11.361
53932W        W20473  27.829  21.146   2.711
53933W        W20474   7.702  28.516   1.260
53934W        W20475  23.091  30.545  11.904
53935W        W20476  29.230  22.124  13.011
53936W        W20477   5.248  28.376  13.922
53937W        W20478  40.422  24.645  13.382
53938W        W20479   4.578  21.271   3.658
53939W        W20480   4.387  42.639   3.977
53940W        W20481  21.505  28.575  13.359
53941W        W20482  40.361   0.420  11.830
53942W        W20483   0.361   5.165   2.168
53943W        W20484  11.861  40.275  10.649
53944W        W20485   8.582   0.788  13.548
53945W        W20486  30.082  40.475   3.239
53946W        W20487  16.888  15.388   4.751
53947W        W20488  36.749  29.532   1.865
53948W        W20489  32.967  36.414   0.962
53949W        W20490  43.573  37.903   1.390
53950W        W20491  29.043  16.598  12.255
53951W        W20492   6.051  15.398   4.463
53952W        W20493  13.026  18.523   1.287
53953W        W20494  43.382  15.198  10.213
53954W        W20495   8.103  35.603  11.480
53955W        W20496  19.668  18.425  13.887
53956W        W20497  40.488  24.907  12.526
53957W        W20498  18.568  34.609  14.511
53958W        W20499  43.452  14.754  12.393
53959W        W20500  38.538  19.733  13.049
53960W        W20501  24.704  38.817  13.380
53961W        W20502  14.195  35.252   0.891
53962W        W20503  10.317   2.387   2.212
53963W        W20504   5.265  31.527   0.877
53964W        W20505  43.157   8.770   1.237
53965W        W20506  28.040  24.526   2.724
53966W        W20507  36.493  15.296  12.592
53967W        W20508  20.794  26.224   2.358
53968W        W20509   2.280  40.829   2.432
53969W        W20510  34.504  18.826   3.685
53970W        W20511  20.826   3.699  10.470
53971W        W20512   0.386  28.031   0.889
53972W        W20513   8.610  36.497   0.535
53973W        W20514  21.851   2.369  12.496
53974W        W20515   0.368  44.176  11.597
53975W        W20516   3.905  42.962  14.843
53976W        W20517  15.253   0.535   3.658
53977W        W20518  24.500  21.673  12.555
53978W        W20519  18.577  11.345   3.217
53979W        W20520  13.834  36.928   0.856
53980W        W20521  24.943  23.378  10.758
53981W        W20522   2.002  39.501  13.043
53982W        W20523  44.206   5.409   4.540
53983W        W20524  10.672  37.896  10.515
53984W        W20525   0.381   8.650  13.378
53985W        W20526  25.662  12.424   2.825
53986W        W20527  31.049  30.639   3.742
53987W        W20528   4.821   5.759   1.735
53988W        W20529   0.285  13.904  10.677
53989W        W20530  40.055  35.457  12.680
53990W        W20531  18.534  36.965   1.419
53991W        W20532   0.543  14.619   2.324
53992W        W20533   5.221   3.288   0.314
53993W        W20534   9.446   4.476   1.955
53994W        W20535  39.383  19.742   2.404
53995W        W20536  38.211  39.263  13.847
53996W        W20537  25.051  11.934   1.909
53997W        W20538  33.634  14.446   3.016
53998W        W20539  24.240  26.314  12.129
53999W        W20540  31.755  29.566  12.457
54000W        W20541  34.823  30.534   2.635
54001W        W20542  31.611  31.775  13.231
54002W        W20543  25.955  33.083  13.895
54003W        W20544  28.448  29.417  12.603
54004W        W20545  35.864  27.268  14.301
54005W        W20546  30.937  33.501   1.782
54006W        W20547  17.978  12.866  13.249
54007W        W20548  39.352   8.105  12.925
54008W        W20549  29.610  24.787  14.372
54009W        W20550  37.895  18.192   3.203
54010W        W20551  23.737  44.487  11.524
54011W        W20552  37.557  39.338   2.263
54012W        W20553  29.047  25.567   2.857
54013W        W20554  22.701  22.210  12.529
54014W        W20555  16.638   3.671   2.368
54015W        W20556  36.628  23.627   1.267
54016W        W20557  30.348  25.643  12.020
54017W        W20558  39.762  42.376   1.799
54018W        W20559  11.872  13.644   3.879
54019W        W20560  27.513   3.138   2.890
54020W        W20561  37.338  15.361  11.070
54021W        W20562   8.622  19.928  12.611
54022W        W20563  21.276  17.209   1.368
54023W        W20564  25.616  41.129  12.926
54024W        W20565  15.263   1.499   0.843
54025W        W20566  24.087  11.331   9.706
54026W        W20567  39.918   1.279  13.132
54027W        W20568  34.541  18.438   1.614
54028W        W20569  34.541  22.283   4.152
54029W        W20570  37.373  10.235   1.798
54030W        W20571  33.780  42.499   0.176
54031W        W20572   0.700  35.962   2.347
54032W        W20573  15.119  23.721   2.743
54033W        W20574  44.245   3.374  10.596
54034W        W20575  13.858   3.844  13.785
54035W        W20576  18.524  41.411  10.408
54036W        W20577  39.956  34.596   4.163
54037W        W20578  15.433  41.393  12.959
54038W        W20579  30.440  43.579   1.435
54039W        W20580  11.399  20.807   4.012
54040W        W20581  12.655  28.546   1.344
54041W        W20582   8.134  33.606  12.465
54042W        W20583   3.705  38.904   4.100
54043W        W20584  38.787  12.759  10.203
54044W        W20585  26.669   3.283  14.462
54045W        W20586   1.481  23.033  11.926
54046W        W20587  14.136  28.682  11.608
54047W        W20588  21.441  27.999  12.955
54048W        W20589  25.701  10.956   1.350
54049W        W20590  22.865  36.180  12.504
54050W        W20591  11.250  21.924  14.374
54051W        W20592  32.588  26.708   0.367
54052W        W20593  15.054  23.783  12.624
54053W        W20594  19.782  42.779  13.832
54054W        W20595  30.673  35.520   2.246
54055W        W20596  19.524  40.018   4.025
54056W        W20597  39.524  20.544   3.229
54057W        W20598  27.408  19.250   2.607
54058W        W20599  19.454   8.205  10.188
54059W        W20600  18.049  40.323  13.644
54060W        W20601  41.317   9.627  14.423
54061W        W20602  32.531  17.727   3.369
54062W        W20603   3.201  29.079   1.055
54063W        W20604  20.058  16.865   5.350
54064W        W20605  28.421  24.110   3.362
54065W        W20606  28.074   7.511  14.711
54066W        W20607  10.733   3.580   4.280
54067W        W20608  18.957  41.528   3.061
54068W        W20609  28.390  33.165  13.477
54069W        W20610   6.029  43.758  11.138
54070W        W20611   3.260  32.075  14.841
54071W        W20612   4.349  16.664   4.729
54072W        W20613  34.050  31.627   3.261
54073W        W20614  27.540   9.321   3.845
54074W        W20615  35.467  19.849  12.029
54075W        W20616  10.238  37.711  12.455
54076W        W20617  23.120  37.417   3.433
54077W        W20618  18.408  21.539  11.749
54078W        W20619   7.352  42.107   0.817
54079W        W20620   6.483  44.987  13.792
54080W        W20621   5.246  22.457  11.650
54081W        W20622  31.014  16.734  12.920
54082W        W20623  23.076   7.788  12.962
54083W        W20624  21.117  31.617   1.314
54084W        W20625   4.270  39.546   4.682
54085W        W20626  17.290   9.225   1.205
54086W        W20627  16.436  22.270   4.103
54087W        W20628   0.221  18.493   0.942
54088W        W20629  23.105   1.977  12.895
54089W        W20630  44.751   4.998   3.705
54090W        W20631  14.165   3.523  11.147
54091W        W20632  36.979  12.698   3.628
54092W        W20633  31.985  29.255  11.198
54093W        W20634  15.384  17.231   1.744
54094W        W20635  40.872  11.630  10.303
54095W        W20636  35.943   4.018  13.305
54096W        W20637  29.074  44.254   4.111
54097W        W20638   0.242  21.728   0.380
54098W        W20639   1.797  20.491   2.883
54099W        W20640  16.584  25.933  12.936
54100W        W20641  27.530  19.156   1.701
54101W        W20642  11.346  18.106  14.319
54102W        W20643  27.136  43.472  13.859
54103W        W20644   0.080  24.700  10.727
54104W        W20645  43.483  29.880   3.675
54105W        W20646  34.647  22.173   3.276
54106W        W20647  10.049  20.263   3.186
54107W        W20648   6.721   6.060  12.033
54108W        W20649  40.210  26.098   4.011
54109W        W20650  12.170  18.377  14.486
54110W        W20651  15.240  38.508   4.518
54111W        W20652  25.665  17.308   2.277
54112W        W20653   0.139  18.288  13.899
54113W        W20654  31.356   1.908  14.311
54114W        W20655  12.619  41.928  12.466
54115W        W20656  10.277   5.429   0.354
54116W        W20657  19.510  36.536   4.044
54117W        W20658  37.602  17.681  13.520
54118W        W20659  28.694  43.072   4.600
54119W        W20660   2.894  24.749  11.935
54120W        W20661  26.351  10.943   1.759
54121W        W20662  12.300   3.570  11.157
54122W        W20663   2.368  30.887   3.804
54123W        W20664   7.097  15.521   4.509
54124W        W20665  30.810  35.461  11.098
54125W        W20666  18.833  28.675   0.349
54126W        W20667   2.230  43.183  14.995
54127W        W20668  17.020  14.898  13.294
54128W        W20669  33.677  34.570  11.073
54129W        W20670  30.470  36.970  11.401
54130W        W20671   9.778  39.273  11.525
54131W        W20672  21.210  23.053  14.849
54132W        W20673  41.827  24.260   2.001
54133W        W20674  33.933  43.888   1.192
54134W        W20675  35.889   9.037   2.210
54135W        W20676   6.008  27.045  11.549
54136W        W20677  17.581  30.607  14.336
54137W        W20678   4.918  13.635  12.025
54138W        W20679  29.154  10.329  12.965
54139W        W20680  10.805  25.951  14.324
54140W        W20681  15.897  36.232  12.897
54141W        W20682  25.529  24.989   1.205
54142W        W20683  34.679  23.434  10.726
54143W        W20684   9.270  34.141  12.723
54144W        W20685   2.471  27.154  11.705
54145W        W20686  29.876   2.847  11.664
54146W        W20687  24.230  26.106   0.536
54147W        W20688  27.189  28.843   3.170
54148W        W20689   2.254  33.653   5.261
54149W        W20690   4.637   8.481   0.628
54150W        W20691  30.864  26.652  13.771
54151W        W20692  34.864  17.287   4.475
54152W        W20693  40.980  21.594  11.501
54153W        W20694  42.380  23.026   3.616
54154W        W20695  35.912  31.586  13.474
54155W        W20696  40.941  31.434  12.989
54156W        W20697  39.016  27.385   2.269
54157W        W20698  18.001  31.884  14.747
54158W        W20699  24.952  34.666  11.838
54159W        W20700  33.997  23.031   3.675
54160W        W20701   1.524  30.042  13.786
54161W        W20702   7.910  12.405  11.134
54162W        W20703  30.038   1.994   0.930
54163W        W20704  34.990   4.853   4.152
54164W        W20705  37.366  36.429  11.596
54165W        W20706  15.577  27.340  12.377
54166W        W20707  39.413  12.386  11.140
54167W        W20708  29.509  18.593   4.083
54168W        W20709  41.284  23.518  12.926
54169W        W20710  35.461  27.103  13.548
54170W        W20711  17.029   5.626   0.669
54171W        W20712  18.086  40.607   1.257
54172W        W20713   7.874  29.675  10.397
54173W        W20714  18.102   3.216   3.863
54174W        W20715  31.039   2.126   0.474
54175W        W20716   7.366  25.585  10.623
54176W        W20717  34.897   6.340   4.687
54177W        W20718  38.350   4.283  11.591
54178W        W20719  18.020   4.971   3.903
54179W        W20720  38.160   2.404  13.552
54180W        W20721   0.751  40.594   2.433
54181W        W20722  39.476  26.413   2.108
54182W        W20723  27.575  39.961   4.633
54183W        W20724  12.275  25.350  14.535
54184W        W20725  17.554  27.172   4.661
54185W        W20726  13.357  26.123  11.237
54186W        W20727  30.468  27.562   0.568
54187W        W20728  19.289  18.517   1.451
54188W        W20729  34.845  32.114   5.093
54189W        W20730  22.102  22.251   4.078
54190W        W20731   8.174   6.937  12.451
54191W        W20732  25.367  38.985  10.747
54192W        W20733   7.153  22.707  10.869
54193W        W20734   5.863  21.968  14.406
54194W        W20735  38.992  30.936  11.591
54195W        W20736  13.556  18.565   1.320
54196W        W20737   3.319  28.311  11.648
54197W        W20738   4.494  15.906  12.142
54198W        W20739   2.984  13.644  10.805
54199W        W20740  32.053   8.854   3.926
54200W        W20741  16.839  21.151   2.353
54201W        W20742  33.483  39.386   4.534
54202W        W20743  15.337   6.156  12.256
54203W        W20744  24.534  26.114  13.372
54204W        W20745  39.218  34.630  14.898
54205W        W20746  34.972  19.261   1.740
54206W        W20747  37.965  25.178   2.683
54207W        W20748   9.222  36.568  14.761
54208W        W20749   8.392  15.662  14.419
54209W        W20750   5.906  26.087  11.506
54210W        W20751  10.559  19.258   2.807
54211W        W20752  42.739  44.263  13.366
54212W        W20753  45.000  32.356   3.127
54213W        W20754  27.483  39.923  12.061
54214W        W20755  23.980  27.168   1.743
54215W        W20756  18.025  39.254   3.709
54216W        W20757  26.543   8.911   2.084
54217W        W20758  13.428   0.509  11.648
54218W        W20759  11.160  31.853   4.134
54219W        W20760   3.495  25.029  14.778
54220W        W20761  29.955  34.855  10.708
54221W        W20762  44.189  25.311  11.184
54222W        W20763   6.897  13.247  12.059
54223W        W20764  11.407  36.224  12.969
54224W        W20765  42.930  41.369   1.267
54225W        W20766  24.803  12.681   3.584
54226W        W20767   5.309  34.451  10.673
54227W        W20768   5.952  25.126   4.068
54228W        W20769  42.651   4.824  11.163
54229W        W20770  11.879  19.671   2.814
54230W        W20771   6.377  11.297   0.745
54231W        W20772  33.314   5.956  12.570
54232W        W20773   1.202   1.664  11.903
54233W        W20774  34.111  22.532   4.342
54234W        W20775   6.057  17.249   1.549
54235W        W20776  37.890  34.297  10.995
54236W        W20777  23.424  35.437  12.969
54237W        W20778  40.965  16.657  12.787
54238W        W20779  10.848  15.230   3.521
54239W        W20780  44.109  39.507   0.720
54240W        W20781  40.857  17.226  14.482
54241W        W20782  18.071  11.748   0.840
54242W        W20783   9.457   5.189  11.128
54243W        W20784  38.279  29.094  12.165
54244W        W20785   4.103  20.571  13.911
54245W        W20786  33.506  22.769  12.058
54246W        W20787  39.616  17.271   3.623
54247W        W20788   5.510  29.593  10.763
54248W        W20789  28.257  40.075   3.346
54249W        W20790  19.045  18.783  13.062
54250W        W20791  30.163  11.956  11.497
54251W        W20792  37.867  25.917   4.211
54252W        W20793  20.804  34.358  10.701
54253W        W20794  21.698  36.972  13.855
54254W        W20795  39.885  36.439  10.637
54255W        W20796  23.547  30.584  11.668
54256W        W20797  23.999   6.130   1.336
54257W        W20798  15.699  27.631   4.808
54258W        W20799  30.144  15.648   2.957
54259W        W20800  12.287  39.223  11.052
54260W        W20801  38.487  36.931   0.428
54261W        W20802   7.216  43.424  10.747
54262W        W20803  25.613  11.368   3.767
54263W        W20804  23.768  26.184  13.867
54264W        W20805  36.409  15.219   0.993
54265W        W20806  34.156  39.539  13.009
54266W        W20807  19.983  28.367   2.897
54267W        W20808  36.059  18.748  13.964
54268W        W20809  23.460  42.484   2.761
54269W        W20810  40.289   6.439  11.026
54270W        W20811  41.569  10.200   1.954
54271W        W20812  23.009  40.617   1.925
54272W        W20813  24.332  28.852   0.901
54273W        W20814   0.823   6.620   2.356
54274W        W20815  16.656  15.541   2.852
54275W        W20816  22.630  12.355  13.439
54276W        W20817  28.099  31.542  12.176
54277W        W20818  37.143  36.881   0.214
54278W        W20819   4.882  23.140   2.731
54279W        W20820  24.105   5.712  13.537
54280W        W20821  19.022  40.823   2.494
54281W        W20822  42.999  40.478  13.149
54282W        W20823  25.213   4.967  10.593
54283W        W20824  36.368  40.089   2.295
54284W        W20825  29.059  22.772  10.453
54285W        W20826  23.783  44.771   3.815
54286W        W20827  35.330  20.434   2.362
54287W        W20828   2.671  23.758   1.315
54288W        W20829  12.659   8.814  13.395
54289W        W20830  28.786  14.648  13.792
54290W        W20831  36.858  25.825  11.156
54291W        W20832  20.586  30.140   4.628
54292W        W20833  25.937  19.933   4.092
54293W        W20834  12.413   5.524  13.853
54294W        W20835   6.681  44.047   0.416
54295W        W20836  11.332  35.955  12.140
54296W        W20837  14.801  30.969  14.510
54297W        W20838  12.462  10.583   4.552
54298W        W20839  39.891  25.637   3.540
54299W        W20840  11.324  27.102  13.551
54300W        W20841  41.826  11.875   0.830
54301W        W20842  42.214  19.165  11.405
54302W        W20843  36.640  20.448  12.715
54303W        W20844  23.179  40.331  12.022
54304W        W20845  39.318  26.154  11.721
54305W        W20846  41.982   8.097  10.788
54306W        W20847  17.069  22.961   1.711
54307W        W20848  10.921  29.642  11.968
54308W        W20849  22.730  28.951   4.201
54309W        W20850  19.826  25.504  12.506
54310W        W20851  44.494   3.653  14.468
54311W        W20852   5.766  39.818  12.322
54312W        W20853  41.544  23.692   1.259
54313W        W20854  36.423  20.763   0.180
54314W        W20855   9.736  27.411  13.940
54315W        W20856  18.691  25.240  13.232
54316W        W20857  20.391  16.894  10.255
54317W        W20858  27.923  22.048  12.082
54318W        W20859   0.260   9.804  13.831
54319W        W20860   8.077  28.451  11.212
54320W        W20861  27.511  42.864   2.745
54321W        W20862  30.501  19.284  11.072
54322W        W20863  26.556  43.839   1.344
54323W        W20864  33.087  22.732   4.644
54324W        W20865  16.835  25.025  12.001
54325W        W20866  23.484   1.331   3.292
54326W        W20867  27.004  44.490  11.454
54327W        W20868  18.507  24.636   0.325
54328W        W20869  18.562  41.962  11.306
54329W        W20870  43.711  19.033   1.793
54330W        W20871  20.893  25.470  11.073
54331W        W20872  27.518  34.593  10.765
54332W        W20873   5.326  39.926  12.580
54333W        W20874  27.069  18.223   3.918
54334W        W20875  24.574  10.141  10.669
54335W        W20876  14.667  29.485   2.393
54336W        W20877   2.483  35.849   5.339
54337W        W20878  44.353  32.506  11.573
54338W        W20879  10.002  40.032  10.451
54339W        W20880  15.759  26.972  10.885
54340W        W20881  40.007  41.939   0.883
54341W        W20882  22.574  18.189  14.859
54342W        W20883   0.313  35.283   0.058
54343W        W20884  10.753  11.498  12.013
54344W        W20885  44.752  22.714   0.739
54345W        W20886  18.739  40.921  11.137
54346W        W20887  16.079   5.118   0.599
54347W        W20888  10.160  23.565   4.561
54348W        W20889  29.792  11.849  14.074
54349W        W20890  16.552  18.532  14.342
54350W        W20891  13.607  36.285  13.022
54351W        W20892  41.402  17.738   0.309
54352W        W20893  17.052   7.656  13.032
54353W        W20894  33.875   4.415   2.363
54354W        W20895  44.800  28.049   1.306
54355W        W20896  30.913  18.674  12.307
54356W        W20897  33.329  23.803   2.288
54357W        W20898  36.826  17.179   1.970
54358W        W20899  12.266  29.610  14.353
54359W        W20900  38.447  37.261   4.774
54360W        W20901  35.537   3.960   4.764
54361W        W20902  27.693   1.875  13.546
54362W        W20903  26.898  15.599   4.046
54363W        W20904  32.638  13.852   4.014
54364W        W20905   8.887   6.558   1.712
54365W        W20906   1.050  24.940  10.164
54366W        W20907  12.252  15.172  12.492
54367W        W20908   3.531  27.699  14.380
54368W        W20909   0.941  33.138   2.667
54369W        W20910  33.123   3.024   3.180
54370W        W20911  34.353  37.888  11.539
54371W        W20912   7.676  15.948  10.834
54372W        W20913   4.300  27.112  11.712
54373W        W20914  28.660  20.935   3.798
54374W        W20915  12.814   5.933   1.261
54375W        W20916  34.115   7.035  11.878
54376W        W20917  38.473  28.108  14.424
54377W        W20918   1.753   0.884  14.751
54378W        W20919  38.907  42.325   1.164
54379W        W20920  36.651  12.667  11.187
54380W        W20921  31.821  21.104   4.932
54381W        W20922  10.611   8.928   1.458
54382W        W20923  36.472  29.147  10.797
54383W        W20924  39.354   4.467   2.373
54384W        W20925  27.036  35.557   0.224
54385W        W20926  34.628  20.323  14.462
54386W        W20927   1.929  24.629  12.387
54387W        W20928  35.294  12.307   1.305
54388W        W20929   6.255  25.058  14.441
54389W        W20930   7.623  19.790   3.107
54390W        W20931   9.696  41.936   4.921
54391W        W20932  19.074  42.312  12.903
54392W        W20933  25.006  17.844   3.592
54393W        W20934   7.770  31.221  13.611
54394W        W20935   2.790  35.182   2.656
54395W        W20936  36.780  37.354  14.496
54396W        W20937  32.572  28.071   0.771
54397W        W20938  38.935  19.095   2.871
54398W        W20939  23.997  26.110  14.327
54399W        W20940  44.244  29.252   1.184
54400W        W20941  42.952  23.381  14.019
54401W        W20942  18.078  12.634   1.244
54402W        W20943  29.065  27.384   4.157
54403W        W20944  23.636   3.369  11.292
54404W        W20945   4.256  10.208  13.053
54405W        W20946  21.093   2.729   2.202
54406W        W20947   5.304  28.431   5.368
54407W        W20948  10.898  28.343  10.918
54408W        W20949  23.999  19.042   0.464
54409W        W20950  26.360   1.829  13.803
54410W        W20951   2.744   8.832  10.507
54411W        W20952  40.350  14.135  10.201
54412W        W20953  43.759  20.840  13.835
54413W        W20954  24.655  27.945   1.775
54414W        W20955   5.492  18.847   3.819
54415W        W20956  33.850   9.413  13.510
54416W        W20957   4.938  30.260  10.136
54417W        W20958   7.238   6.296  11.513
54418W        W20959   8.098  36.617   4.645
54419W        W20960  11.072  44.226  14.873
54420W        W20961  27.070   4.008   0.167
54421W        W20962  29.251  38.107  14.396
54422W        W20963  42.312  29.201   4.061
54423W        W20964  36.494  41.034   3.410
54424W        W20965  10.322  25.350   2.331
54425W        W20966  36.106  42.930   0.486
54426W        W20967  22.708  12.464   2.771
54427W        W20968  26.381  37.921   3.610
54428W        W20969  12.383   0.398  10.797
54429W        W20970   5.238  22.937   3.958
54430W        W20971  11.880  37.516  10.719
54431W        W20972   4.855  35.015   0.662
54432W        W20973  35.806  40.217  11.171
54433W        W20974   3.011  22.707  14.572
54434W        W20975  28.730  21.553  10.517
54435W        W20976   7.189  15.388  13.892
54436W        W20977  31.425  43.093   3.606
54437W        W20978  16.047  37.643  13.354
54438W        W20979  36.560  36.627   1.943
54439W        W20980  30.094   1.700  13.358
54440W        W20981  37.440  24.391  12.065
54441W        W20982   5.259  29.374  13.928
54442W        W20983   5.826  30.628   1.850
54443W        W20984   9.446  39.318  13.079
54444W        W20985  38.782  18.032  14.079
54445W        W20986  27.085   7.206   4.007
54446W        W20987  39.709  23.086  14.661
54447W        W20988   7.695  36.003   0.152
54448W        W20989  12.220   8.510   2.232
54449W        W20990  27.271  39.202  12.570
54450W        W20991   5.775  24.266   3.751
54451W        W20992  11.753  18.141   3.992
54452W        W20993  24.424   8.699  12.012
54453W        W20994  18.531  36.903  13.434
54454W        W20995  27.122  12.813  13.014
54455W        W20996   1.655  36.496   4.671
54456W        W20997   0.483   4.290   2.202
54457W        W20998  18.274   6.312  11.131
54458W        W20999  37.353  17.092  12.554
54459W        W21000  30.910   6.474   4.990
54460W        W21001   2.067  26.954   2.330
54461W        W21002  18.970   9.972  10.788
54462W        W21003  23.491   8.850  14.014
54463W        W21004  34.036  38.859  13.599
54464W        W21005  12.057   4.636   3.893
54465W        W21006  27.231  24.298  11.617
54466W        W21007  28.194  23.682   0.642
54467W        W21008   4.513  22.741   0.893
54468W        W21009  30.415  37.714   0.946
54469W        W21010  24.878  23.145  11.695
54470W        W21011   5.473  40.836  11.096
54471W        W21012  26.525  10.884  13.535
54472W        W21013   7.923  25.131   0.291
54473W        W21014   4.473  34.828   4.156
54474W        W21015  12.325  21.093   1.759
54475W        W21016  17.034  13.802  11.933
54476W        W21017  13.843  17.825  13.338
54477W        W21018   4.444  18.317   4.093
54478W        W21019   7.608  36.835  10.906
54479W        W21020  29.741  41.044   3.796
54480W        W21021  41.078  10.143   3.714
54481W        W21022  32.662  13.076  11.933
54482W        W21023  22.855  30.786   3.163
54483W        W21024  30.371  27.855  12.032
54484W        W21025   9.093  22.805   1.635
54485W        W21026   0.533  36.602  12.579
54486W        W21027  10.483  20.026  11.541
54487W        W21028  21.751   3.285   0.907
54488W        W21029  34.577  42.253  14.898
54489W        W21030  24.537  14.055   2.674
54490W        W21031  44.768   2.525  14.788
54491W        W21032  27.863  12.299  12.037
54492W        W21033  30.379  17.936  13.485
54493W        W21034  36.993  18.678  13.929
54494W        W21035  21.748   0.886  10.645
54495W        W21036  22.754  14.259  12.116
54496W        W21037  44.846  18.330  12.287
54497W        W21038   9.852  37.276   2.837
54498W        W21039  36.295  27.459   1.429
54499W        W21040  14.360  29.372  13.872
54500W        W21041  29.036  31.080  13.918
54501W        W21042  40.603  39.594  11.225
54502W        W21043  15.081  16.793   1.715
54503W        W21044  28.454   8.594   2.795
54504W        W21045  33.106  37.065  12.129
54505W        W21046  11.205  37.031   2.035
54506W        W21047  31.686  24.023  13.432
54507W        W21048   1.230  18.807   1.935
54508W        W21049  20.380  19.220  12.947
54509W        W21050  42.941  29.087  12.520
54510W        W21051  40.322  32.527  13.985
54511W        W21052  26.323  34.412  11.556
54512W        W21053  33.725  15.209   1.867
54513W        W21054  25.882  21.927   2.239
54514W        W21055  16.562  33.590   3.752
54515W        W21056  34.161   5.495  10.871
54516W        W21057  18.616  38.423   0.511
54517W        W21058  25.396  37.923  13.939
54518W        W21059   7.242   2.751   4.347
54519W        W21060  20.037  24.431  13.328
54520W        W21061  17.366  30.997   5.457
54521W        W21062  41.979  44.744   0.427
54522W        W21063  20.827  28.020  10.712
54523W        W21064  44.299  25.180  12.997
54524W        W21065  40.854  15.257  11.992
54525W        W21066  18.595  23.796  14.307
54526W        W21067  16.886   3.947  12.488
54527W        W21068  19.550  10.817   4.616
54528W        W21069  40.707   7.273  11.070
54529W        W21070  15.613  44.814   2.054
54530W        W21071  32.050   5.937   4.347
54531W        W21072  28.232  44.927   2.222
54532W        W21073  36.967  25.126   4.022
54533W        W21074  39.820  30.647   2.608
54534W        W21075  37.201  22.260  11.201
54535W        W21076  28.372   4.601  11.744
54536W        W21077  32.765  14.075   2.284
54537W        W21078  40.451   3.175  11.570
54538W        W21079   7.133   5.848   2.810
54539W        W21080  16.161   7.935   0.405
54540W        W21081  27.073  39.257   4.582
54541W        W21082  32.076  31.163   4.359
54542W        W21083  15.692  42.753   0.936
54543W        W21084  13.419  23.282   2.193
54544W        W21085  29.442  29.710  12.468
54545W        W21086   6.919  42.382  12.865
54546W        W21087  17.210  17.248  12.177
54547W        W21088  11.885  34.409  14.819
54548W        W21089  15.895  42.260   3.326
54549W        W21090  23.262   6.766  12.870
54550W        W21091  11.142  42.431   0.295
54551W        W21092  43.809  32.984   2.174
54552W        W21093  28.688  42.284  11.515
54553W        W21094  18.664   4.724   0.639
54554W        W21095  18.126  18.994  13.011
54555W        W21096   7.460  24.032   3.224
54556W        W21097   1.951   2.775  13.923
54557W        W21098  12.986  25.555   1.599
54558W        W21099   7.882  15.042  10.382
54559W        W21100  26.088  21.963  14.139
54560W        W21101  11.298  42.188  12.292
54561W        W21102   8.441  43.016  14.804
54562W        W21103  42.878  15.081  12.349
54563W        W21104   3.188  41.344  13.433
54564W        W21105   3.286   5.691  13.175
54565W        W21106  11.228  31.110  12.186
54566W        W21107   6.270  19.976   1.326
54567W        W21108  17.124   9.764  13.123
54568W        W21109  22.828  41.940  11.953
54569W        W21110  19.716  12.559  11.276
54570W        W21111  25.820  33.854   0.012
54571W        W21112  28.218  20.740  10.672
54572W        W21113  40.631  11.217   2.021
54573W        W21114   1.936   0.220   1.140
54574W        W21115  19.481  35.274  12.404
54575W        W21116  44.481   8.388  13.261
54576W        W21117  25.940  31.619   1.236
54577W        W21118  17.307   7.296   0.391
54578W        W21119  31.072  28.737   0.409
54579W        W21120   2.193  28.116   4.626
54580W        W21121  14.623  19.234   1.856
54581W        W21122  40.329  31.905  14.442
54582W        W21123  36.477   3.353  13.929
54583W        W21124  33.210  40.889   2.825
54584W        W21125   5.663  42.874   1.283
54585W        W21126  23.200  42.333   1.369
54586W        W21127  44.493  26.417  12.783
54587W        W21128  10.034  12.317  13.874
54588W        W21129   9.214  22.096  11.790
54589W        W21130  33.235   3.692  11.160
54590W        W21131  35.760  28.856   0.010
54591W        W21132  26.168  11.788   4.779
54592W        W21133  33.763  33.306   4.983
54593W        W21134  33.086  44.785   4.196
54594W        W21135  18.142  40.823  11.958
54595W        W21136  31.953  29.605   3.952
54596W        W21137  29.721  13.331  12.424
54597W        W21138  29.971  34.540   4.305
54598W        W21139  25.048  38.321  11.098
54599W        W21140   2.834  21.506   1.701
54600W        W21141  22.690  31.103  13.004
54601W        W21142  31.531  18.528   3.313
54602W        W21143  25.002  19.925   0.775
54603W        W21144  38.545  11.615   3.759
54604W        W21145  23.786  25.656  11.177
54605W        W21146  20.003  10.919  12.845
54606W        W21147   8.229   9.341  12.472
54607W        W21148  30.583  44.712   2.171
54608W        W21149  26.927  32.033   1.808
54609W        W21150  38.145  23.148   1.674
54610W        W21151   7.304  10.683  11.937
54611W        W21152  28.901  14.728  13.034
54612W        W21153   4.438   1.988  14.337
54613W        W21154  37.585  29.957   1.407
54614W        W21155  41.013   1.712   2.215
54615W        W21156  15.352  43.048  12.403
54616W        W21157  27.217  30.873  12.466
54617W        W21158  12.758  17.701   1.486
54618W        W21159   7.820  34.650   3.853
54619W        W21160  24.901  40.235   0.797
54620W        W21161  19.119  18.918   0.232
54621W        W21162  14.379  35.523  14.304
54622W        W21163  26.893  23.580  13.327
54623W        W21164   6.576  15.340   3.217
54624W        W21165   7.430   3.994   1.351
54625W        W21166  21.677  27.867  10.637
54626W        W21167  24.477  15.544   0.647
54627W        W21168  33.876   2.834   2.707
54628W        W21169  28.117  25.725   0.825
54629W        W21170   8.434  35.809   2.778
54630W        W21171  15.996  32.032   0.111
54631W        W21172  30.406  12.706  14.905
54632W        W21173  25.328  29.919  13.811
54633W        W21174   7.464  32.630  10.690
54634W        W21175   5.843  19.757  10.929
54635W        W21176  34.649  12.910   4.714
54636W        W21177  24.462   1.745  12.671
54637W        W21178  10.333   7.342  11.308
54638W        W21179  40.048  18.793  13.527
54639W        W21180  21.060  43.338   2.855
54640W        W21181  10.398  38.437   2.817
54641W        W21182  20.570  25.464   1.966
54642W        W21183  28.951   8.366  14.876
54643W        W21184  36.775  17.306  10.624
54644W        W21185  28.278  32.435   1.496
54645W        W21186  25.524   4.573  10.743
54646W        W21187  27.920   3.696  10.013
54647W        W21188  44.373  43.319   0.881
54648W        W21189  18.708  28.243  12.072
54649W        W21190  28.935  20.818   2.442
54650W        W21191  23.981   0.899  14.893
54651W        W21192  17.921  41.000  13.896
54652W        W21193   3.020  41.046   4.214
54653W        W21194  27.043  17.754  13.960
54654W        W21195  21.086  29.069   2.958
54655W        W21196  32.128  38.383   2.284
54656W        W21197  14.152  40.963   1.938
54657W        W21198  11.903  36.506  10.559
54658W        W21199  12.538  15.739   0.393
54659W        W21200   5.196  31.000  12.469
54660W        W21201  32.530  42.049  14.284
54661W        W21202  27.218  32.957  12.116
54662W        W21203  15.639  44.724  13.850
54663W        W21204  31.134  17.543   4.545
54664W        W21205  30.996  20.639   1.924
54665W        W21206  33.111  11.070  11.105
54666W        W21207  33.678  28.986   1.648
54667W        W21208  20.555  23.268   4.612
54668W        W21209  23.202  28.278  11.069
54669W        W21210  13.332  29.164   3.698
54670W        W21211  12.892  13.031  10.755
54671W        W21212  17.805  15.773   9.926
54672W        W21213  15.459  11.693   4.202
54673W        W21214  20.697  32.625   3.171
54674W        W21215  38.375  18.658  12.858
54675W        W21216  34.475  36.336   0.793
54676W        W21217  27.477  22.107   2.857
54677W        W21218   5.482  44.649   0.310
54678W        W21219   2.418  36.556   3.170
54679W        W21220  41.182  31.928   0.322
54680W        W21221  27.532  38.341  12.191
54681W        W21222  41.873  23.091  13.724
54682W        W21223  14.013  31.601   2.640
54683W        W21224   1.815  16.144   1.171
54684W        W21225  23.244  26.093   0.740
54685W        W21226  41.509  17.628   3.416
54686W        W21227  24.111   3.444   2.600
54687W        W21228  11.795   2.905  13.082
54688W        W21229   0.799  34.001   4.144
54689W        W21230   0.311   2.980  11.950
54690W        W21231   5.184  19.519  14.985
54691W        W21232  33.596  41.040   4.559
54692W        W21233  14.782  36.999  13.835
54693W        W21234  39.621  28.159  13.742
54694W        W21235   1.325   1.817  13.357
54695W        W21236   6.607   6.732  12.525
54696W        W21237   0.331  33.909  14.394
54697W        W21238   2.398  33.479   4.258
54698W        W21239  10.270  29.332   4.976
54699W        W21240  13.263  20.324  11.522
54700W        W21241   1.721  10.142  11.582
54701W        W21242  18.093  32.596  13.595
54702W        W21243  44.366  44.461   2.306
54703W        W21244   3.599  31.338   5.498
54704W        W21245  32.886  26.039   4.685
54705W        W21246   5.764  16.602   0.724
54706W        W21247  44.060   7.359   3.644
54707W        W21248   1.235   8.392   3.635
54708W        W21249  28.905   0.332  13.707
54709W        W21250  34.208  33.611  13.463
54710W        W21251   6.270  19.841  14.580
54711W        W21252   6.807  16.274  12.908
54712W        W21253  12.127   4.763   2.495
54713W        W21254  36.838  12.897  14.403
54714W        W21255  39.565  20.221   2.300
54715W        W21256  15.866  33.202  13.493
54716W        W21257  11.248  14.424  12.390
54717W        W21258  36.804  14.779  14.309
54718W        W21259  12.035  29.858   1.885
54719W        W21260  35.488  19.346   3.330
54720W        W21261  40.454  16.086   1.894
54721W        W21262  34.696  21.911   3.811
54722W        W21263  13.331   6.784   4.809
54723W        W21264  37.682  12.201   3.829
54724W        W21265  12.121   6.708  14.341
54725W        W21266  29.094   6.868  11.043
54726W        W21267  11.603  29.623   0.031
54727W        W21268  11.301  25.272  13.002
54728W        W21269   0.358  35.186   1.401
54729W        W21270  17.799  25.739   4.628
54730W        W21271   4.101  23.364  10.301
54731W        W21272  28.181  36.108  12.652
54732W        W21273   8.332  19.166   3.866
54733W        W21274  30.415  10.911   4.673
54734W        W21275  10.408  16.523   1.804
54735W        W21276  27.242  37.327  10.365
54736W        W21277  21.208   7.125  12.046
54737W        W21278  29.165  25.206   0.020
54738W        W21279   2.384  36.284   3.675
54739W        W21280  23.348  44.503   3.310
54740W        W21281   4.240  24.797  12.526
54741W        W21282   3.338  17.295  13.857
54742W        W21283   5.967   7.440  13.026
54743W        W21284  11.140  10.964  12.091
54744W        W21285  39.396  30.964   0.997
54745W        W21286  38.291  21.784  14.890
54746W        W21287  44.890  41.397  13.822
54747W        W21288  41.770  17.560   0.680
54748W        W21289  42.325  30.889   2.156
54749W        W21290  18.628  25.198  10.959
54750W        W21291  31.086  34.169  12.625
54751W        W21292  35.433  43.536  11.534
54752W        W21293  22.580   1.214  10.521
54753W        W21294  37.047  44.231   1.806
54754W        W21295  25.080  17.073  10.475
54755W        W21296  42.625  12.410   4.012
54756W        W21297   4.697  15.045   4.400
54757W        W21298  39.604  40.306   0.670
54758W        W21299   5.967  38.000  10.764
54759W        W21300  10.141   7.173  13.336
54760W        W21301  39.423  14.912   3.318
54761W        W21302   8.183  10.973  12.893
54762W        W21303  33.228  37.648  11.106
54763W        W21304   5.064  26.492  13.560
54764W        W21305  22.727  28.607  12.931
54765W        W21306  33.959  43.207  13.523
54766W        W21307  35.045  16.595  13.805
54767W        W21308  24.220  19.075   2.685
54768W        W21309  25.309   4.551  10.267
54769W        W21310  25.369  22.875   2.355
54770W        W21311  22.972  40.301   4.488
54771W        W21312  40.788  27.114  11.226
54772W        W21313  14.131   4.421  14.193
54773W        W21314  38.260  36.594  11.082
54774W        W21315   4.675   1.392   0.293
54775W        W21316  20.810  32.900  10.953
54776W        W21317  36.125  35.841   4.140
54777W        W21318  26.851  16.237   1.834
54778W        W21319   4.899  27.514  14.302
54779W        W21320  31.381  36.778   1.795
54780W        W21321  38.609   3.637  11.604
54781W        W21322  32.643  27.588  13.071
54782W        W21323  24.568  18.132  11.598
54783W        W21324  34.071   6.910   2.320
54784W        W21325   1.911  38.950   0.197
54785W        W21326  35.119  44.232  11.209
54786W        W21327   8.006  12.793  10.776
54787W        W21328  42.923  22.420  13.601
54788W        W21329  19.645  14.071   0.959
54789W        W21330   3.351  40.053   0.720
54790W        W21331   7.373   8.379   2.148
54791W        W21332   8.238  24.060  10.540
54792W        W21333   0.829  15.790   1.347
54793W        W21334  34.867   8.871  10.309
54794W        W21335  14.290   2.785  13.439
54795W        W21336  42.348  14.325  11.939
54796W        W21337  30.939  40.042   2.368
54797W        W21338  15.498   9.301   4.559
54798W        W21339  12.256  13.304   4.777
54799W        W21340   6.968   5.920   2.328
54800W        W21341  35.515  31.143   3.334
54801W        W21342   9.807  44.437   3.899
54802W        W21343  11.820   7.764   0.762
54803W        W21344  27.589   4.678   3.748
54804W        W21345  38.255  22.014  12.114
54805W        W21346  40.234  33.710   2.795
54806W        W21347  37.879  42.475  12.376
54807W        W21348  41.744  10.661   2.803
54808W        W21349  40.932   8.108   4.452
54809W        W21350  18.250  11.104   2.189
54810W        W21351  38.572   9.783   0.839
54811W        W21352  16.209   6.136  11.157
54812W        W21353  35.822   6.709  13.424
54813W        W21354   7.747  38.566   2.284
54814W        W21355   4.714  26.863   1.374
54815W        W21356  42.894  29.155   1.796
54816W        W21357  38.837  37.717  11.143
54817W        W21358  31.961  29.852  13.404
54818W        W21359   3.871  26.554   0.428
54819W        W21360   5.242  40.384  10.495
54820W        W21361  22.917   3.391  13.286
54821W        W21362  42.837  44.802  13.363
54822W        W21363  44.456  40.097  14.474
54823W        W21364   2.903   7.438  10.711
54824W        W21365  21.923   1.189  14.057
54825W        W21366  19.744  39.881  11.202
54826W        W21367  11.905  25.922   0.190
54827W        W21368  34.556  27.087  13.634
54828W        W21369   4.020  13.608   2.840
54829W        W21370  38.877   6.927  13.936
54830W        W21371  39.082  24.175  13.752
54831W        W21372  35.791  26.328  13.254
54832W        W21373   8.465  41.322   1.218
54833W        W21374  23.469  11.844   2.394
54834W        W21375  15.908  18.200  10.159
54835W        W21376  20.655  39.908  13.270
54836W        W21377  17.098  26.227   5.008
54837W        W21378  34.613   2.246  10.768
54838W        W21379  16.532   8.935   0.929
54839W        W21380   3.982   2.861  14.583
54840W        W21381  19.684  33.991  13.018
54841W        W21382  19.983   9.532   4.184
54842W        W21383   8.982  44.237  11.160
54843W        W21384  12.160  15.631  11.541
54844W        W21385  27.181  16.121   3.230
54845W        W21386   1.281  30.951  11.944
54846W        W21387   0.814   1.777  14.884
54847W        W21388   0.723  27.995  14.581
54848W        W21389  21.973   9.086   0.266
54849W        W21390   2.896  13.186   0.368
54850W        W21391  24.111  19.134  14.456
54851W        W21392  34.825  33.520  10.867
54852W        W21393  20.503  43.957  12.531
54853W        W21394  30.679  28.205   4.566
54854W        W21395  31.312  17.410  12.524
54855W        W21396   5.297  35.543   4.532
54856W        W21397  25.478   4.813  12.849
54857W        W21398  42.532  42.472  14.253
54858W        W21399  17.831  24.437   0.786
54859W        W21400  42.397  14.704  11.559
54860W        W21401  31.872  19.083   1.266
54861W        W21402  30.220  42.403  10.240
54862W        W21403  16.089  21.330   1.885
54863W        W21404   3.926  11.878   2.498
54864W        W21405  19.214  24.299   4.569
54865W        W21406   6.060   5.309  12.022
54866W        W21407  31.274  42.557   2.315
54867W        W21408   7.871  21.742  10.612
54868W        W21409  40.582  25.729   1.878
54869W        W21410  25.428  24.171   2.272
54870W        W21411  29.993  35.555  12.074
54871W        W21412  24.497  34.031  13.986
54872W        W21413  30.672  34.060  14.384
54873W        W21414  40.014  13.312   0.038
54874W        W21415   0.770  14.304   0.905
54875W        W21416  25.186  23.954  11.131
54876W        W21417   4.971  17.741   2.258
54877W        W21418   8.215  23.676   3.692
54878W        W21419   7.721  16.725   1.277
54879W        W21420   6.210  22.634  13.932
54880W        W21421  12.986  42.686   2.246
54881W        W21422   7.729   0.985  13.286
54882W        W21423  25.676  43.492  11.453
54883W        W21424   8.379   9.039   3.172
54884W        W21425   8.974  17.029   1.794
54885W        W21426  32.589   3.812  14.388
54886W        W21427  43.116  24.558   4.664
54887W        W21428  35.449  37.251  12.960
54888W        W21429  25.537  28.357  13.206
54889W        W21430  21.537   4.846   3.448
54890W        W21431  12.264  42.969   1.516
54891W        W21432  29.449  36.390  10.728
54892W        W21433  10.137   9.141   0.330
54893W        W21434  27.151   1.341   4.849
54894W        W21435  25.674  44.349   1.476
54895W        W21436  10.365  38.658   4.692
54896W        W21437  35.986  22.559   2.809
54897W        W21438  16.519  17.055  10.969
54898W        W21439   1.811  23.483  10.681
54899W        W21440  39.792  38.213  11.522
54900W        W21441  24.233  10.568  10.731
54901W        W21442  14.593   7.062  14.393
54902W        W21443  24.622  36.822   2.746
54903W        W21444  43.495  34.844   2.403
54904W        W21445   4.266  14.013   3.114
54905W        W21446  11.278   2.537  11.155
54906W        W21447  32.529   3.160  11.354
54907W        W21448  32.678  34.017   3.270
54908W        W21449  20.682  24.067  13.878
54909W        W21450  10.188  22.945  11.433
54910W        W21451   3.227  43.271   3.601
54911W        W21452  32.971  36.151   4.264
54912W        W21453  36.626  19.328  14.970
54913W        W21454  11.389  21.144   2.739
54914W        W21455  36.452  10.317   4.432
54915W        W21456  17.394   1.515   0.767
54916W        W21457  28.942  31.120  10.724
54917W        W21458  27.342  13.771   1.829
54918W        W21459   3.740  25.630  13.974
54919W        W21460  10.211  44.247   4.677
54920W        W21461   0.908   4.625   0.305
54921W        W21462   1.908  27.938  14.485
54922W        W21463  11.420  21.822  12.994
54923W        W21464  30.337  35.691  11.701
54924W        W21465  36.084  40.537   2.275
54925W        W21466  13.238  37.584  10.582
54926W        W21467  31.706   2.658  11.960
54927W        W21468  21.865  23.032  13.079
54928W        W21469  29.006  34.225   3.200
54929W        W21470  26.505  16.553   3.636
54930W        W21471  18.250   6.972  14.955
54931W        W21472  10.201  25.553  14.701
54932W        W21473  37.580   4.451  13.116
54933W        W21474   5.673  44.318  14.879
54934W        W21475  19.613   3.923  11.183
54935W        W21476  20.002   2.834  14.289
54936W        W21477   2.844  35.583  10.166
54937W        W21478  44.556  25.476  11.553
54938W        W21479   7.809   4.986   5.034
54939W        W21480  33.182   5.398   1.128
54940W        W21481  36.014  32.638   1.630
54941W        W21482  27.821  39.636   2.590
54942W        W21483  28.528  21.453  11.972
54943W        W21484  32.905  13.211  13.933
54944W        W21485  38.085   3.513  11.726
54945W        W21486  11.683  24.804   4.747
54946W        W21487   0.241  38.884   3.084
54947W        W21488  24.205  44.513  11.763
54948W        W21489  41.955  15.289   4.337
54949W        W21490  22.649  23.071  11.867
54950W        W21491  28.031   4.954  12.985
54951W        W21492   1.236  43.694  12.111
54952W        W21493  43.114  37.408  14.113
54953W        W21494  24.063  43.783   1.680
54954W        W21495  30.933  10.245  13.556
54955W        W21496   0.856  14.082   1.812
54956W        W21497  22.915  19.078  11.550
54957W        W21498  32.552  17.006   4.950
54958W        W21499   3.767  17.275   1.926
54959W        W21500  15.607  16.320   0.871
54960W        W21501  39.091  41.237  10.530
54961W        W21502  38.477   4.955  12.943
54962W        W21503  38.347  26.678   4.262
54963W        W21504  17.631  11.011   0.497
54964W        W21505  11.825  15.958  14.885
54965W        W21506  13.481   7.781   1.230
54966W        W21507  25.587  13.071   0.422
54967W        W21508  22.987   3.136   3.695
54968W        W21509  33.563  28.560   1.909
54969W        W21510  12.064  17.807   0.395
54970W        W21511  17.813  35.451   3.165
54971W        W21512  24.625  28.401   2.940
54972W        W21513   8.933   9.736  11.517
54973W        W21514   5.559  28.251   9.807
54974W        W21515  32.541   1.616   3.073
54975W        W21516  33.179  22.826  14.347
54976W        W21517  24.846  29.871  13.133
54977W        W21518  21.559  44.742  13.043
54978W        W21519   3.679   6.731   4.774
54979W        W21520   1.900  34.675   1.718
54980W        W21521  27.408  10.320   4.131
54981W        W21522  20.794  12.348   0.393
54982W        W21523  30.988   7.240  13.451
54983W        W21524   2.148  25.045  14.339
54984W        W21525  17.575  33.027  12.108
54985W        W21526  31.974   3.219   3.642
54986W        W21527  32.130  18.777  10.660
54987W        W21528  29.096  10.660   1.748
54988W        W21529  41.029  10.591  11.124
54989W        W21530  35.981  13.791  11.198
54990W        W21531  44.918  27.038  12.264
54991W        W21532  39.260  41.514  11.933
54992W        W21533  37.944   4.445   0.781
54993W        W21534  29.941   0.003  13.993
54994W        W21535   1.439   0.941  13.894
54995W        W21536  27.070  29.469  10.666
54996W        W21537  43.432  15.362  13.613
54997W        W21538  10.119   2.506  13.912
54998W        W21539   6.227  20.686   4.792
54999W        W21540  28.130  23.771  10.349
55000W        W21541   2.198   7.641   4.357
55001W        W21542  33.995  41.995   2.905
55002W        W21543  22.515  16.903   2.769
55003W        W21544  38.264   0.207   1.887
55004W        W21545  38.586  10.720   4.213
55005W        W21546   3.346   7.591   2.675
55006W        W21547  27.544   8.523   1.270
55007W        W21548   4.171  40.594   1.791
55008W        W21549  20.427  15.108  12.746
55009W        W21550  41.576   6.056   1.214
55010W        W21551  29.511  41.405  12.439
55011W        W21552  14.577  16.996  11.636
55012W        W21553  25.982  22.796   0.885
55013W        W21554  12.349  24.633  14.785
55014W        W21555  39.366  18.248   4.096
55015W        W21556  27.732   2.688  11.013
55016W        W21557  15.824  19.265   0.445
55017W        W21558  18.944  24.197  10.752
55018W        W21559  44.065  31.965   0.001
55019W        W21560  10.628  29.130   2.890
55020W        W21561   2.197  14.646   1.927
55021W        W21562   1.376  36.886   1.926
55022W        W21563   8.462  23.778   5.235
55023W        W21564   2.320  30.745  14.422
55024W        W21565  16.800  36.341   3.197
55025W        W21566  25.196  24.106  12.450
55026W        W21567  30.988  44.694  10.753
55027W        W21568   3.644  25.578   1.842
55028W        W21569  21.258   6.770  13.915
55029W        W21570  29.893  36.443   3.034
55030W        W21571  33.316  14.359  13.796
55031W        W21572   2.492  37.390   0.066
55032W        W21573  42.284  30.113  14.763
55033W        W21574  42.798  18.041   2.688
55034W        W21575  16.763  35.577  11.140
55035W        W21576  10.364  43.746   1.867
55036W        W21577  37.420  39.318  14.837
55037W        W21578  19.234  37.931  11.527
55038W        W21579   7.197  20.704   0.579
55039W        W21580  14.793  13.710   0.494
55040W        W21581  23.254   7.237   4.933
55041W        W21582  38.544  31.151  11.688
55042W        W21583   7.783   5.569   1.878
55043W        W21584  18.629  23.210  10.554
55044W        W21585   6.870  11.888   2.732
55045W        W21586  37.925  38.562  11.142
55046W        W21587  35.323  28.741  14.228
55047W        W21588  31.911  34.836   0.219
55048W        W21589   9.599  43.586  14.810
55049W        W21590   9.349  43.535   1.365
55050W        W21591  22.779  10.718   1.275
55051W        W21592   7.916   8.421  10.929
55052W        W21593  35.632  38.419  11.538
55053W        W21594  34.422  33.910   0.854
55054W        W21595  14.227  25.452   4.511
55055W        W21596  32.873  43.693  11.070
55056W        W21597  37.627   2.100  10.326
55057W        W21598  16.769  33.618  13.914
55058W        W21599  17.754  22.033  12.378
55059W        W21600  16.211  25.147  10.734
55060W        W21601   1.353  22.216  12.307
55061W        W21602  36.915   2.809  10.753
55062W        W21603   5.180   6.629  12.363
55063W        W21604  39.990  30.922   3.395
55064W        W21605   3.803   9.869   3.094
55065W        W21606   5.786   7.698   0.189
55066W        W21607   6.142  22.828   2.312
55067W        W21608  24.552  10.222   3.223
55068W        W21609  17.577   1.897   2.319
55069W        W21610  15.193   4.287  10.621
55070W        W21611  23.266  41.463   2.384
55071W        W21612  36.920  10.411   4.184
55072W        W21613  43.897   0.888   3.923
55073W        W21614   7.362  23.034  10.527
55074W        W21615  42.695  36.209  12.843
55075W        W21616  35.451   8.403   3.295
55076W        W21617  41.583  13.204  13.482
55077W        W21618  27.415  40.533  14.927
55078W        W21619  39.759  10.637  11.432
55079W        W21620  35.130  20.971  13.071
55080W        W21621  12.714  18.622  11.678
55081W        W21622  42.498  32.747  11.934
55082W        W21623  19.054  40.890   4.167
55083W        W21624  13.352  16.707  11.620
55084W        W21625  40.552  38.431   0.801
55085W        W21626  16.616   3.536  12.348
55086W        W21627  41.911  30.087  12.513
55087W        W21628  26.608  29.552  10.400
55088W        W21629  25.440  32.364   0.087
55089W        W21630  33.961  42.032   0.432
55090W        W21631   0.322  15.346  10.498
55091W        W21632  19.459  37.441  13.382
55092W        W21633  26.083  34.904   1.437
55093W        W21634  44.492  10.933  14.001
55094W        W21635  11.172  41.562  14.830
55095W        W21636  38.812   2.318  11.258
55096W        W21637   6.632  10.213  11.417
55097W        W21638   4.167  36.089  13.412
55098W        W21639  35.072  44.988   0.996
55099W        W21640  27.741  44.764   1.810
55100W        W21641  31.325  37.327   3.541
55101W        W21642  15.732  31.332   3.664
55102W        W21643  17.318  11.351   4.651
55103W        W21644  43.464   3.380  14.689
55104W        W21645  21.024   8.661   3.204
55105W        W21646  36.587  28.083  12.862
55106W        W21647  25.059  26.318  12.513
55107W        W21648  11.622  31.067   0.885
55108W        W21649  26.893  17.427   4.846
55109W        W21650  29.636   3.832   2.899
55110W        W21651  40.948  11.896   1.727
55111W        W21652   2.332  27.932  11.243
55112W        W21653  19.464  24.625   2.693
55113W        W21654  40.485   1.242   4.300
55114W        W21655   1.862  38.290  13.916
55115W        W21656   7.648  20.101   2.484
55116W        W21657  35.791  30.985  11.996
55117W        W21658  35.488  42.005   2.424
55118W        W21659   1.188   6.631  12.249
55119W        W21660  32.679  42.561   4.346
55120W        W21661   5.875  30.681   0.866
55121W        W21662   0.507  31.573   3.131
55122W        W21663   3.617  25.587  11.779
55123W        W21664  40.613  21.477   4.200
55124W        W21665  40.989  33.984   2.626
55125W        W21666  21.829   1.261  11.208
55126W        W21667  31.102  14.200  14.850
55127W        W21668  42.961  31.999   3.863
55128W        W21669  39.602  21.743  12.958
55129W        W21670  11.751  32.883   2.155
55130W        W21671  11.067  39.254  10.289
55131W        W21672  16.198   8.352   1.707
55132W        W21673  31.943   0.391  10.306
55133W        W21674  41.510  43.055  13.469
55134W        W21675  30.900  33.777  14.775
55135W        W21676  21.148  37.835  12.043
55136W        W21677  11.321  40.773  12.568
55137W        W21678  32.884  25.050  11.376
55138W        W21679  22.038  29.010  13.086
55139W        W21680  43.912   9.089  10.787
55140W        W21681   9.482  22.233  12.643
55141W        W21682   0.757  28.203   4.603
55142W        W21683  32.135  14.156   2.904
55143W        W21684  25.546  21.546   3.691
55144W        W21685   8.598  19.868  13.469
55145W        W21686  23.916  40.397   4.032
55146W        W21687   5.013   0.930  10.711
55147W        W21688  33.471   5.743   3.888
55148W        W21689  31.011  44.402   2.181
55149W        W21690   0.602  13.162  13.984
55150W        W21691  38.814  17.037  10.697
55151W        W21692  26.582  28.166   0.796
55152W        W21693  36.122  33.468   2.685
55153W        W21694  19.698  21.729   2.869
55154W        W21695  26.364  23.496  13.524
55155W        W21696  37.490  44.979   3.985
55156W        W21697  18.782  28.463   2.303
55157W        W21698  29.399  22.129   2.283
55158W        W21699  22.439  11.558   2.304
55159W        W21700   2.890   5.120   4.194
55160W        W21701  14.316  36.876  14.068
55161W        W21702  33.521  10.341   0.169
55162W        W21703  20.770  37.481   4.349
55163W        W21704  25.150  13.282  13.646
55164W        W21705  11.225   9.754  14.786
55165W        W21706  29.005   2.445   0.888
55166W        W21707  31.939  36.335  11.640
55167W        W21708  32.952   3.620   5.201
55168W        W21709  12.445  20.577  11.073
55169W        W21710  39.740  14.173   0.367
55170W        W21711  36.294  15.238   2.841
55171W        W21712  14.582  38.024   4.057
55172W        W21713  23.041  15.821   4.165
55173W        W21714  15.539  23.108  11.087
55174W        W21715  15.312  32.445  11.905
55175W        W21716   9.915  37.293  13.846
55176W        W21717  11.399  14.056  12.059
55177W        W21718   3.214  27.684  14.820
55178W        W21719   6.638  19.394  12.866
55179W        W21720  42.653  26.125  11.372
55180W        W21721   2.310  37.927   4.348
55181W        W21722  14.237  41.517   4.176
55182W        W21723  34.912  25.978  12.407
55183W        W21724  24.801  12.789  12.687
55184W        W21725   9.772  21.117  13.551
55185W        W21726  18.604   6.802   4.867
55186W        W21727  41.905  26.789  12.188
55187W        W21728   2.028  44.040  13.983
55188W        W21729  42.004  20.350  11.640
55189W        W21730  12.852  11.684  14.954
55190W        W21731   8.885  30.137   0.495
55191W        W21732  12.050  44.415   1.336
55192W        W21733  27.402  36.896   1.019
55193W        W21734  32.062  31.015  10.770
55194W        W21735   2.000  29.445  12.412
55195W        W21736   2.058  23.195   4.092
55196W        W21737   3.636  31.115  13.098
55197W        W21738   6.329  37.700  14.451
55198W        W21739  17.310  12.231  13.027
55199W        W21740  23.939  37.353   3.078
55200W        W21741   5.645  19.089  12.037
55201W        W21742  20.564  25.556   0.030
55202W        W21743   0.863  31.423  14.768
55203W        W21744  31.836  15.283  12.114
55204W        W21745  36.584   2.863   0.987
55205W        W21746  11.685  21.018   3.642
55206W        W21747   1.447  32.800  11.923
55207W        W21748  23.595  20.101   0.920
55208W        W21749  11.070  34.129   0.004
55209W        W21750  23.509  36.835   1.326
55210W        W21751  21.163  15.636  12.426
55211W        W21752  38.593  32.027  14.320
55212W        W21753   4.682  29.516   3.720
55213W        W21754  36.320  35.561  14.431
55214W        W21755  30.526  28.887   3.536
55215W        W21756  15.089  18.103  13.520
55216W        W21757  29.532  40.475  13.369
55217W        W21758   9.499  42.748   1.817
55218W        W21759  37.475  16.324   4.767
55219W        W21760   0.943  14.272   2.305
55220W        W21761  43.217  42.997   1.825
55221W        W21762   8.460   3.934   1.290
55222W        W21763  19.509  30.239   2.204
55223W        W21764   1.274  30.011  12.472
55224W        W21765  23.997   2.566   0.948
55225W        W21766  37.910  17.803   2.416
55226W        W21767  44.884  27.750   3.321
55227W        W21768   5.407  15.780  10.615
55228W        W21769  27.112  36.967   4.837
55229W        W21770  33.124  34.944   4.231
55230W        W21771  30.988  14.721   4.607
55231W        W21772   6.534  35.981  11.990
55232W        W21773  40.127  20.718   0.901
55233W        W21774  19.011  21.250   0.454
55234W        W21775  15.887  34.559   0.301
55235W        W21776  40.421  31.970  14.963
55236W        W21777   3.157  30.523  10.613
55237W        W21778  33.369   8.162   4.508
55238W        W21779   3.547  18.002  13.449
55239W        W21780  12.139  14.772   1.269
55240W        W21781  13.882  30.287   5.421
55241W        W21782   1.542  24.950   1.138
55242W        W21783  25.163  35.892   1.719
55243W        W21784  12.131  31.345   3.674
55244W        W21785  42.923   6.990  12.075
55245W        W21786  36.054  25.700  14.904
55246W        W21787  44.921  22.993  11.178
55247W        W21788  18.599   1.576  14.338
55248W        W21789  42.379   9.451   4.858
55249W        W21790  11.156   4.237   3.333
55250W        W21791  27.527  23.527  13.944
55251W        W21792  44.623   0.476  12.451
55252W        W21793  43.528   6.444  11.100
55253W        W21794  43.736  11.421   4.140
55254W        W21795  15.246  23.121   0.908
55255W        W21796  42.950  20.262   1.366
55256W        W21797  32.094  21.502   2.322
55257W        W21798  28.982  33.297   4.942
55258W        W21799  30.593   0.185  11.009
55259W        W21800   3.487  34.638   0.527
55260W        W21801  17.197  32.046   5.195
55261W        W21802  43.564  37.279  11.560
55262W        W21803  13.920  26.583   1.153
55263W        W21804  32.598   6.266  12.120
55264W        W21805  43.668  37.870  12.331
55265W        W21806   0.919  12.729  10.776
55266W        W21807  11.288  34.067  11.217
55267W        W21808  21.612  16.996  11.426
55268W        W21809   0.441  30.145   3.079
55269W        W21810  17.022  23.625  13.940
55270W        W21811  27.523   1.766  14.944
55271W        W21812  14.664  43.915   0.846
55272W        W21813  39.839   5.869  11.803
55273W        W21814  31.654  29.869  14.944
55274W        W21815  23.459  34.964   2.372
55275W        W21816   4.893   7.685   3.648
55276W        W21817  30.383  33.153  12.916
55277W        W21818  20.553  31.888   2.655
55278W        W21819  28.766  32.670   3.685
55279W        W21820  38.894  39.881  10.439
55280W        W21821  16.116  26.235   1.445
55281W        W21822   6.898  19.268  13.333
55282W        W21823  30.275  14.730   3.708
55283W        W21824  16.578  38.281   1.841
55284W        W21825  37.473  15.307   4.587
55285W        W21826  20.983  28.776   1.311
55286W        W21827  40.384  13.509   3.581
55287W        W21828  11.276   6.869   3.450
55288W        W21829  42.264  12.267  13.929
55289W        W21830  14.009  40.068   3.659
55290W        W21831  40.197  21.952   1.289
55291W        W21832  24.239  10.711  12.541
55292W        W21833  30.264  13.719   0.309
55293W        W21834  20.541  21.137   2.211
55294W        W21835  22.921   3.867   0.536
55295W        W21836   5.165  37.045   0.948
55296W        W21837  10.382  12.687   2.918
55297W        W21838  40.914   7.710   1.429
55298W        W21839  28.129  43.233   4.103
55299W        W21840  31.177  13.692   1.702
55300W        W21841  28.992  43.499  12.128
55301W        W21842  29.063  12.698  14.663
55302W        W21843  44.088  44.876   4.643
55303W        W21844  14.290   9.813   2.268
55304W        W21845  10.241  10.324   2.462
55305W        W21846  25.751  23.022   3.779
55306W        W21847   9.750   8.776   0.380
55307W        W21848  19.037  41.505   2.290
55308W        W21849  29.820  15.160  12.274
55309W        W21850  17.454   2.666   2.770
55310W        W21851   2.923  19.165  10.681
55311W        W21852  36.152  17.589   3.143
55312W        W21853  14.617  29.738   5.500
55313W        W21854  26.189   9.003   2.861
55314W        W21855  41.331  27.697  12.488
55315W        W21856  44.084   2.236  14.293
55316W        W21857  27.459   2.763  14.769
55317W        W21858  13.815   2.696  12.085
55318W        W21859  19.585  41.178   0.563
55319W        W21860  17.569  17.825  14.497
55320W        W21861  35.019   9.894  11.187
55321W        W21862  33.680  33.991   0.228
55322W        W21863  15.321  15.746  10.532
55323W        W21864  13.171  41.877   4.819
55324W        W21865  28.753  11.343  11.684
55325W        W21866  36.377  32.558   3.433
55326W        W21867  13.664  21.557   3.801
55327W        W21868   4.416  35.184   3.768
55328W        W21869  20.226   3.901   2.194
55329W        W21870  13.734  33.935  11.610
55330W        W21871   6.695  40.020  14.471
55331W        W21872  42.377  33.709   0.247
55332W        W21873  17.235  34.317   2.195
55333W        W21874   6.377   8.074  14.440
55334W        W21875  18.594   3.230   4.088
55335W        W21876  42.760  31.621  12.835
55336W        W21877  14.103  25.692  10.660
55337W        W21878  35.009  27.577   0.511
55338W        W21879   8.300  37.794   4.076
55339W        W21880  42.914   9.796   4.251
55340W        W21881  24.177  16.762  12.503
55341W        W21882  14.099  26.581  12.638
55342W        W21883  12.159  30.642  14.323
55343W        W21884  28.813  18.180  12.478
55344W        W21885   5.944   1.037  14.441
55345W        W21886  39.198  17.863   4.391
55346W        W21887  32.407  44.939   2.313
55347W        W21888  29.611  18.737   3.101
55348W        W21889  29.229  41.503  12.032
55349W        W21890  31.451  32.356  14.192
55350W        W21891  34.863  38.917  14.063
55351W        W21892   3.854  43.947  14.881
55352W        W21893  38.494   6.793  13.597
55353W        W21894   6.897  25.716  10.837
55354W        W21895  17.295  12.363   1.037
55355W        W21896  41.780  39.509   1.445
55356W        W21897  19.094  42.472  10.565
55357W        W21898   0.261  19.041   0.438
55358W        W21899  42.972  23.690  10.640
55359W        W21900  10.875  12.755   1.890
55360W        W21901  28.732  33.057   4.096
55361W        W21902  19.563  30.639  13.473
55362W        W21903  22.562  28.703  14.829
55363W        W21904  31.727  43.847  11.986
55364W        W21905  38.687  10.288   3.097
55365W        W21906  11.751  31.467  10.751
55366W        W21907   5.369   7.978   0.330
55367W        W21908  16.480  16.787  13.458
55368W        W21909   2.415   0.812   3.233
55369W        W21910   0.386  21.773   1.235
55370W        W21911   4.329   0.554   2.313
55371W        W21912  29.928   8.883   3.254
55372W        W21913  18.822  41.034  11.639
55373W        W21914  36.834  35.626  14.394
55374W        W21915  39.921  12.178   1.292
55375W        W21916  36.072  36.161  13.428
55376W        W21917   9.862  40.966   3.683
55377W        W21918  33.795  31.655   4.193
55378W        W21919   8.726  39.804   0.790
55379W        W21920  17.594   8.010   4.821
55380W        W21921  14.327  19.824  14.724
55381W        W21922   2.493  16.802  14.734
55382W        W21923  29.128  36.631  14.315
55383W        W21924  24.067  38.449   2.261
55384W        W21925  28.752   4.733  13.532
55385W        W21926  22.651   9.865   1.197
55386W        W21927  15.448  32.195   4.916
55387W        W21928   7.499  31.572  12.469
55388W        W21929  44.485  43.005   2.097
55389W        W21930  18.478  13.147  12.378
55390W        W21931  10.578  35.021  13.037
55391W        W21932  34.134  33.451   1.794
55392W        W21933  34.355   3.352   1.656
55393W        W21934  29.665  13.008  12.010
55394W        W21935  14.179  23.251  10.681
55395W        W21936  29.406  24.231  12.064
55396W        W21937   4.721  27.881  11.982
55397W        W21938  37.100  14.896   3.794
55398W        W21939  24.969  16.063   1.160
55399W        W21940   7.686  36.264   1.080
55400W        W21941  27.623  28.224   1.878
55401W        W21942  18.382  35.323  13.838
55402W        W21943  24.418   0.351   4.496
55403W        W21944  39.864  26.801   0.069
55404W        W21945  39.869  30.143   1.336
55405W        W21946  37.595  44.847  11.140
55406W        W21947  38.106  37.151   1.328
55407W        W21948  27.076  34.897  13.878
55408W        W21949  29.407   4.679   3.159
55409W        W21950  32.407  18.118   1.491
55410W        W21951  16.376  34.398   0.458
55411W        W21952  37.315  29.597  14.287
55412W        W21953  39.728  40.412   3.254
55413W        W21954  35.088   9.445   2.770
55414W        W21955   9.943  32.065   5.039
55415W        W21956  41.838  21.336  14.405
55416W        W21957  21.515  34.216   4.308
55417W        W21958  36.779   3.770  12.955
55418W        W21959  41.229  17.397  11.004
55419W        W21960  40.895  15.804  12.157
55420W        W21961   1.120  19.054  13.772
55421W        W21962  16.138  41.285  11.111
55422W        W21963  38.924  25.521   5.044
55423W        W21964  21.162  29.261   1.554
55424W        W21965   3.514   7.734   3.604
55425W        W21966  23.155  11.091  11.033
55426W        W21967  36.995  11.281   0.238
55427W        W21968  22.639  37.346   3.227
55428W        W21969  26.045   4.337   0.750
55429W        W21970   5.720  19.870  12.742
55430W        W21971   7.138  27.423  14.416
55431W        W21972   5.690  21.298   1.459
55432W        W21973   2.879  12.653   2.206
55433W        W21974  43.272   8.610  11.249
55434W        W21975   5.126  42.876   0.940
55435W        W21976  30.505  15.781  13.743
55436W        W21977   0.794  40.621  13.905
55437W        W21978  44.254  13.837  14.818
55438W        W21979   1.763  13.203  10.767
55439W        W21980   5.336  41.779  11.169
55440W        W21981  27.242   1.647  12.507
55441W        W21982  27.611   5.885   1.794
55442W        W21983  31.587  34.883  12.789
55443W        W21984  11.758  37.811   0.017
55444W        W21985  11.623  14.548  12.031
55445W        W21986   2.571  24.689   2.662
55446W        W21987   2.184   7.183   2.199
55447W        W21988  30.661  17.864  14.370
55448W        W21989  20.111  29.034   0.020
55449W        W21990  19.611  34.313   1.458
55450W        W21991  12.750  42.925   0.722
55451W        W21992  39.958   0.479   0.918
55452W        W21993   9.985  17.032   2.321
55453W        W21994  42.304  42.856   0.035
55454W        W21995  25.792  40.305  12.207
55455W        W21996  13.521   1.322  12.678
55456W        W21997  44.771  35.811  10.560
55457W        W21998  18.319   3.187  11.162
55458W        W21999  29.237   1.266  12.380
55459W        W22000  35.848   9.784  13.806
55460W        W22001  44.267  13.164   3.069
55461W        W22002  37.551  11.212   0.518
55462W        W22003  18.991  28.236  11.660
55463W        W22004  35.958  32.324   3.668
55464W        W22005  16.533  29.918  11.194
55465W        W22006  39.341   5.329  12.735
55466W        W22007  15.668   9.195  14.807
55467W        W22008  23.513   0.016   2.100
55468W        W22009   8.524   7.829  14.441
55469W        W22010  43.163   6.924   4.196
55470W        W22011  30.525   0.705  10.987
55471W        W22012  10.385  43.265  14.510
55472W        W22013   0.206  44.746  11.068
55473W        W22014  43.067  40.061  12.843
55474W        W22015  11.602  37.821   0.512
55475W        W22016   0.246  33.891  13.533
55476W        W22017  18.336   9.696  12.588
55477W        W22018  20.101  18.259   2.384
55478W        W22019  18.005  37.885  13.330
55479W        W22020   8.932   5.095   3.703
55480W        W22021  31.493  29.579  13.531
55481W        W22022   0.213  28.636  11.614
55482W        W22023  30.033  23.477   2.213
55483W        W22024  28.738  13.259   4.877
55484W        W22025  28.501   2.021   4.823
55485W        W22026  25.725  17.119  11.057
55486W        W22027  16.559   7.412  14.118
55487W        W22028  20.241  44.492  12.840
55488W        W22029  42.594   8.332   3.912
55489W        W22030  33.366  19.242  13.356
55490W        W22031   4.937  41.508  11.368
55491W        W22032  28.655  16.144   0.204
55492W        W22033  14.678  44.482  13.542
55493W        W22034  30.908  13.180   0.026
55494W        W22035  14.569  10.943  13.429
55495W        W22036  26.939   3.306  10.722
55496W        W22037  35.189  28.245   3.172
55497W        W22038  32.661  38.412   2.262
55498W        W22039  42.546  23.508   1.420
55499W        W22040   4.835  20.122  10.676
55500W        W22041   9.841  21.403  13.131
55501W        W22042  42.087  27.025   0.451
55502W        W22043  19.380  31.957  14.006
55503W        W22044  13.806  44.773  14.102
55504W        W22045  28.432  41.664  10.848
55505W        W22046  44.553  15.295  11.644
55506W        W22047  42.822  44.981  10.724
55507W        W22048  28.609  43.292   3.578
55508W        W22049  12.618  39.000   4.552
55509W        W22050  13.080  25.632  10.660
55510W        W22051  27.104  31.265   4.517
55511W        W22052  27.602   5.941   0.894
55512W        W22053  40.233  23.460   5.220
55513W        W22054  27.696  33.438  11.477
55514W        W22055  41.213  23.081  14.519
55515W        W22056  23.215  15.246   1.362
55516W        W22057  21.435   5.004  13.031
55517W        W22058  35.976  13.310  13.428
55518W        W22059  16.252  38.850   0.326
55519W        W22060  37.429  20.563   2.423
55520W        W22061  22.317  36.752   2.710
55521W        W22062  38.305  18.349  13.964
55522W        W22063  37.563  33.098  12.039
55523W        W22064   1.458   3.612   2.782
55524W        W22065  10.138  16.388   4.035
55525W        W22066   2.302   0.406  11.946
55526W        W22067  38.072   0.580   4.025
55527W        W22068  31.915   6.361   4.628
55528W        W22069  31.338  36.574  12.408
55529W        W22070  44.772  34.211   0.805
55530W        W22071  25.774  10.361  14.398
55531W        W22072  15.684  41.516  11.106
55532W        W22073  43.393  12.838   3.642
55533W        W22074  40.474   6.869  11.257
55534W        W22075  17.208  26.407  11.456
55535W        W22076   6.002  20.098   2.895
55536W        W22077  23.681   6.010   2.873
55537W        W22078  10.303  44.892  14.819
55538W        W22079  44.284  33.612   4.087
55539W        W22080   7.849  11.340   2.590
55540W        W22081   2.317   7.724   1.704
55541W        W22082  37.356  10.971  13.479
55542W        W22083  16.065  30.481  12.386
55543W        W22084   8.981   0.074  10.814
55544W        W22085  42.933  15.534  12.880
55545W        W22086  23.901  37.190  11.927
55546W        W22087  34.306  38.175   0.281
55547W        W22088  15.836  29.956  14.956
55548W        W22089   6.828   3.246   1.388
55549W        W22090  13.631  35.836  10.802
55550W        W22091  30.070   7.241   0.353
55551W        W22092  14.761  13.652  14.882
55552W        W22093  11.680  30.011  11.748
55553W        W22094  37.482  13.680   1.216
55554W        W22095  37.920  29.504   2.831
55555W        W22096  10.999  38.582  11.544
55556W        W22097  17.058  10.810   1.229
55557W        W22098  30.370  18.848   0.890
55558W        W22099   3.601  13.878   3.770
55559W        W22100  27.209  14.859  11.718
55560W        W22101  40.264  21.859   4.056
55561W        W22102  42.247  37.855  10.823
55562W        W22103  25.993  24.574  12.902
55563W        W22104   6.172  37.144   0.770
55564W        W22105  39.577   9.729   4.971
55565W        W22106  27.049   7.618  14.274
55566W        W22107  27.434  15.756  10.980
55567W        W22108   1.902   5.289   1.636
55568W        W22109  31.406  11.860  13.473
55569W        W22110  25.497  22.298  14.436
55570W        W22111  32.482  19.941  13.342
55571W        W22112  14.822  42.192  13.980
55572W        W22113  28.361  29.071  11.169
55573W        W22114  44.050  22.565  12.023
55574W        W22115  22.375  22.785  11.180
55575W        W22116  40.875  22.048  13.854
55576W        W22117   3.596  26.783   3.325
55577W        W22118  30.142  41.248  11.929
55578W        W22119  33.377  18.978  10.299
55579W        W22120  20.252  19.255  10.271
55580W        W22121  42.454   7.971   2.499
55581W        W22122  23.581  11.076  11.301
55582W        W22123  35.721  30.043  12.519
55583W        W22124  37.021  19.556   0.456
55584W        W22125  24.162  12.609   0.437
55585W        W22126  12.040  14.627   3.473
55586W        W22127  11.172  17.832   3.594
55587W        W22128  34.418  43.444  13.647
55588W        W22129   0.993  29.117   3.545
55589W        W22130  24.293  11.106   4.723
55590W        W22131   7.839  20.728  11.549
55591W        W22132   6.726   1.677  14.807
55592W        W22133  14.917  38.372   0.413
55593W        W22134   9.603  37.486   2.462
55594W        W22135  32.832  18.052  13.263
55595W        W22136  28.741   7.286   3.419
55596W        W22137  33.841  15.416   0.807
55597W        W22138   4.513  13.645   2.785
55598W        W22139  25.044   0.391  12.170
55599W        W22140   9.411   9.739   0.453
55600W        W22141   8.020  26.332   2.798
55601W        W22142  33.976   8.617   1.683
55602W        W22143   9.858   0.407  10.383
55603W        W22144  27.258   0.400  12.926
55604W        W22145  22.532  44.453  10.695
55605W        W22146   1.901  21.401   1.824
55606W        W22147  24.504  12.171  12.509
55607W        W22148  18.415  11.725   2.605
55608W        W22149  38.226  37.529  11.674
55609W        W22150  17.872  31.883   0.911
55610W        W22151  44.288  33.382  10.672
55611W        W22152  36.004   2.974  13.795
55612W        W22153  26.009   3.521   3.664
55613W        W22154  28.872  38.475  11.189
55614W        W22155  31.958  29.489  10.728
55615W        W22156  17.223  36.499   4.123
55616W        W22157   3.924   3.004   3.184
55617W        W22158  17.794  44.988   0.353
55618W        W22159  14.727  30.218  11.110
55619W        W22160   3.372  32.459  11.951
55620W        W22161  32.426  36.175  11.558
55621W        W22162  38.268  27.184  14.026
55622W        W22163   5.370  11.611  14.970
55623W        W22164  29.231  24.271  10.693
55624W        W22165  31.024  35.364  13.238
55625W        W22166  14.068  41.557  12.269
55626W        W22167   6.823   7.769   3.086
55627W        W22168  32.503  10.453  12.562
55628W        W22169  18.624  20.694  12.467
55629W        W22170  22.231  23.772   1.318
55630W        W22171  28.033  37.911   2.439
55631W        W22172   8.209  23.167   2.506
55632W        W22173  27.909  35.489   1.857
55633W        W22174   4.378  27.161  11.218
55634W        W22175  15.020  35.455  12.426
55635W        W22176  44.740  43.973   2.391
55636W        W22177  43.093  29.447   0.623
55637W        W22178  12.598  12.652  14.220
55638W        W22179   0.704  25.753  11.219
55639W        W22180  32.437  22.312   3.880
55640W        W22181  19.236  37.393  11.614
55641W        W22182  27.422  35.196  12.114
55642W        W22183  25.114  13.219  14.173
55643W        W22184  20.486  12.586  11.596
55644W        W22185   6.831  36.973   0.264
55645W        W22186  36.909  41.304  14.506
55646W        W22187  31.932  12.675  12.533
55647W        W22188  18.140   6.509   3.611
55648W        W22189  42.510  22.502  12.473
55649W        W22190  10.634  41.919   2.751
55650W        W22191  26.941   0.474   0.513
55651W        W22192  10.392  27.060   0.898
55652W        W22193   6.520  10.098   3.162
55653W        W22194  29.524   9.192   3.184
55654W        W22195   9.380  23.293   1.828
55655W        W22196  28.358  21.650   0.399
55656W        W22197  37.865  14.193  10.015
55657W        W22198  31.413  10.376  14.849
55658W        W22199  18.228  32.459  10.121
55659W        W22200  23.247  23.045  11.136
55660W        W22201  29.231  37.423  13.789
55661W        W22202   8.345  42.087   3.676
55662W        W22203   6.779  37.546  13.677
55663W        W22204  24.144  10.596   1.199
55664W        W22205  28.178  32.930   3.205
55665W        W22206  42.350   8.906  11.712
55666W        W22207  17.278  36.145  13.827
55667W        W22208  17.519  15.906   4.213
55668W        W22209  19.822  16.034   4.190
55669W        W22210   7.865  35.373  12.932
55670W        W22211  18.248  28.219   0.744
55671W        W22212  28.437  43.815   0.135
55672W        W22213  42.011  38.548   1.772
55673W        W22214  33.477  34.089  11.157
55674W        W22215  34.596  27.581  13.387
55675W        W22216   2.333   3.819   0.812
55676W        W22217  26.693  34.436  13.934
55677W        W22218  44.569  28.121   3.541
55678W        W22219  12.290   6.710   4.621
55679W        W22220  34.469   8.012   4.595
55680W        W22221  28.041   8.930  14.900
55681W        W22222  24.498  20.650  14.253
55682W        W22223  44.931  37.621  14.931
55683W        W22224  21.327   3.202   2.261
55684W        W22225  24.494  32.169   4.317
55685W        W22226  17.002   2.204  10.739
55686W        W22227  25.028   6.417   0.771
55687W        W22228   9.164  26.982   1.231
55688W        W22229  32.082  31.189  12.046
55689W        W22230  27.028  31.406  13.437
55690W        W22231  38.084  37.119   0.127
55691W        W22232  41.899  24.285   4.940
55692W        W22233  34.629   9.579  11.060
55693W        W22234  29.077  43.983  13.776
55694W        W22235  27.111  25.031   2.986
55695W        W22236   5.998   5.679   5.017
55696W        W22237  19.584  40.137  10.783
55697W        W22238   2.197  12.728   2.781
55698W        W22239   9.056   3.903  14.391
55699W        W22240  18.018  35.028   1.705
55700W        W22241   7.236   4.189   0.858
55701W        W22242   2.533   6.324  11.060
55702W        W22243  30.019  43.364   2.934
55703W        W22244  27.386  20.273  10.800
55704W        W22245   4.259  36.916   1.374
55705W        W22246  12.503  33.870  13.875
55706W        W22247  15.081  28.219  11.660
55707W        W22248  36.873  34.936   3.911
55708W        W22249   0.265  43.849   2.406
55709W        W22250  31.925  21.596  11.116
55710W        W22251  17.459   0.679   1.599
55711W        W22252   0.281  27.449  13.913
55712W        W22253  40.390  13.176   2.552
55713W        W22254  18.321  12.520  11.862
55714W        W22255  14.863  24.100   2.493
55715W        W22256  35.346  41.578  10.497
55716W        W22257  33.878  28.924   2.129
55717W        W22258   3.433   9.805  12.985
55718W        W22259  10.837  42.397  12.958
55719W        W22260  27.053  43.833   0.835
55720W        W22261  11.698  14.434   0.484
55721W        W22262  21.196  33.416  11.590
55722W        W22263  44.838  23.400   4.120
55723W        W22264   2.276  11.160  10.240
55724W        W22265  20.103  36.806  10.982
55725W        W22266  35.878  20.331   0.989
55726W        W22267   8.675  40.846   5.574
55727W        W22268   8.772  30.676  14.655
55728W        W22269  34.043  39.008  11.244
55729W        W22270   5.779  12.727  14.965
55730W        W22271  18.656   0.708  12.436
55731W        W22272   7.226  11.074  11.088
55732W        W22273  33.987  25.092   2.337
55733W        W22274  35.494  34.612  10.654
55734W        W22275  44.664  35.098   0.954
55735W        W22276   2.546  33.059   3.657
55736W        W22277   7.781  37.499   4.944
55737W        W22278  16.599  29.567   3.716
55738W        W22279   8.071  33.507  10.783
55739W        W22280  37.287  27.980   4.590
55740W        W22281  15.301  19.747   1.466
55741W        W22282  21.736  35.469  12.075
55742W        W22283  27.494  28.278   4.227
55743W        W22284  16.963  29.964   4.612
55744W        W22285  25.610  12.018   0.239
55745W        W22286  21.568  16.428   1.217
55746W        W22287  17.586   5.240  10.728
55747W        W22288  25.266  34.461  11.454
55748W        W22289  35.820   3.287  14.804
55749W        W22290   7.202  20.559   4.798
55750W        W22291  23.025  11.405   4.774
55751W        W22292  17.102  32.444   0.545
55752W        W22293   0.432   7.929  10.946
55753W        W22294  11.117   1.912  12.397
55754W        W22295   4.461   8.924  14.833
55755W        W22296  29.101  20.591   3.747
55756W        W22297  37.342  33.592  14.871
55757W        W22298  32.394  22.274  14.502
55758W        W22299   4.956   3.321  12.195
55759W        W22300  17.828  10.344  12.453
55760W        W22301  26.428   9.470   2.863
55761W        W22302  43.918  14.901   4.131
55762W        W22303  19.738  23.280  14.022
55763W        W22304   3.439  13.342  13.456
55764W        W22305  19.673   5.390   3.429
55765W        W22306  20.084  42.542  10.849
55766W        W22307   7.112  27.874   1.308
55767W        W22308  30.415  11.902   2.278
55768W        W22309  26.609  22.400  10.699
55769W        W22310  28.671   2.401   4.467
55770W        W22311   4.437  26.719  10.945
55771W        W22312  44.066  27.901   2.751
55772W        W22313   3.614   0.165   3.957
55773W        W22314   0.331  26.728  13.387
55774W        W22315  35.539  20.731  13.334
55775W        W22316  41.893  30.334   4.492
55776W        W22317  37.461  16.705   3.509
55777W        W22318   4.280  18.971   1.392
55778W        W22319  17.296   0.322   1.232
55779W        W22320  11.869  26.428   2.702
55780W        W22321  35.997  38.000   1.680
55781W        W22322  27.079  29.489  11.177
55782W        W22323  22.009  20.650  12.327
55783W        W22324  29.870  44.348   9.771
55784W        W22325  32.402   9.963  14.896
55785W        W22326  24.716  34.576   1.297
55786W        W22327  33.624  14.638  11.215
55787W        W22328  43.496  29.101  11.633
55788W        W22329  33.368  18.792  14.392
55789W        W22330  30.933  23.233   0.268
55790W        W22331   8.192  15.547   2.724
55791W        W22332  19.294  25.646  11.866
55792W        W22333  44.339  18.071  10.570
55793W        W22334  12.089  12.240  12.998
55794W        W22335  42.128  31.343   1.446
55795W        W22336   8.368  43.926  14.314
55796W        W22337  10.694  12.298   2.719
55797W        W22338  16.171  43.535  12.355
55798W        W22339  43.761   6.295  13.137
55799W        W22340   7.600  21.170   4.298
55800W        W22341  41.865  15.728   4.573
55801W        W22342   5.762  35.061  13.431
55802W        W22343  21.018  15.036   3.408
55803W        W22344  24.156  18.265   4.999
55804W        W22345   2.485  37.187   2.085
55805W        W22346   6.733  10.222   0.737
55806W        W22347  24.241  42.366  13.194
55807W        W22348  33.567  16.681  12.097
55808W        W22349  17.588  28.571  12.826
55809W        W22350   3.806  33.340   3.702
55810W        W22351  14.290  37.599   1.256
55811W        W22352   2.803  30.373  13.022
55812W        W22353  36.039  21.247   0.976
55813W        W22354  12.124   3.812  14.374
55814W        W22355   3.310  22.427   2.200
55815W        W22356  22.111   2.255  12.059
55816W        W22357  26.047  28.226  10.730
55817W        W22358  35.626  25.353   1.878
55818W        W22359  13.698  44.883  10.742
55819W        W22360   2.959  12.883   3.384
55820W        W22361   6.118  21.007   1.338
55821W        W22362   3.955   7.143   4.986
55822W        W22363   4.527  27.973  13.227
55823W        W22364  21.768   9.195   4.762
55824W        W22365   0.344  21.537  10.132
55825W        W22366  42.551   0.398  12.685
55826W        W22367   8.938  33.062   3.182
55827W        W22368   7.910  41.422   4.641
55828W        W22369  16.020  29.979  12.453
55829W        W22370  17.578  36.606  13.511
55830W        W22371  28.081   7.460  14.003
55831W        W22372   3.050  42.384  11.531
55832W        W22373  26.439  34.070   1.799
55833W        W22374  30.137  17.027  10.878
55834W        W22375  22.249  32.368   4.266
55835W        W22376  18.621  35.232  11.031
55836W        W22377  31.834   2.753  11.285
55837W        W22378  12.274  23.889  14.197
55838W        W22379  20.699  15.197  13.228
55839W        W22380  21.231  37.411   4.147
55840W        W22381  30.444   6.723  14.869
55841W        W22382  35.466  34.077   3.768
55842W        W22383   7.176   4.691  12.117
55843W        W22384   7.294  13.577   2.899
55844W        W22385  20.062   3.333  14.969
55845W        W22386  18.765  13.642  13.636
55846W        W22387  10.331   7.229   4.505
55847W        W22388  26.090  12.729   0.303
55848W        W22389  40.868  34.561  13.125
55849W        W22390  31.010  23.262  12.074
55850W        W22391  32.340  16.778  13.008
55851W        W22392   9.907  10.192  13.062
55852W        W22393  26.412  39.662   0.287
55853W        W22394   7.476  23.517  14.203
55854W        W22395   7.216  13.870   0.440
55855W        W22396  22.073   5.749  12.308
55856W        W22397  15.759  31.355  10.774
55857W        W22398  31.322   6.326  13.274
55858W        W22399  11.254  43.462  14.287
55859W        W22400  20.122   2.272   1.272
55860W        W22401  22.133  14.822  12.504
55861W        W22402  32.387   0.332  10.611
55862W        W22403  13.793  23.230  11.096
55863W        W22404  22.943   5.431   2.660
55864W        W22405  28.084  14.848   2.716
55865W        W22406   3.052  32.949   3.647
55866W        W22407   1.824   6.492  12.999
55867W        W22408  34.546  41.239  12.592
55868W        W22409  43.893  42.497   4.616
55869W        W22410   1.786   3.472  13.412
55870W        W22411   9.150  40.420   2.832
55871W        W22412  43.824  38.513  11.600
55872W        W22413   1.089   7.380   0.465
55873W        W22414  26.605  10.137   1.014
55874W        W22415  31.373   1.319   1.702
55875W        W22416  44.601  32.575   4.061
55876W        W22417  22.773  11.871  11.094
55877W        W22418   3.275  43.050   0.940
55878W        W22419  17.638   4.159  12.162
55879W        W22420  23.374  18.096   0.894
55880W        W22421   7.422  24.543  11.494
55881W        W22422  24.455  37.589  13.921
55882W        W22423  14.219  29.613   2.161
55883W        W22424   3.735  19.115   3.227
55884W        W22425   4.335  21.999   4.733
55885W        W22426  13.329  17.851   2.626
55886W        W22427   6.759  26.261   0.724
55887W        W22428   7.743   6.363   1.187
55888W        W22429  24.286  26.952   2.443
55889W        W22430  30.487  42.404   4.920
55890W        W22431  36.502  29.955  11.198
55891W        W22432  25.366  28.650   4.220
55892W        W22433  28.357  32.922  14.948
55893W        W22434  16.635  29.556   4.604
55894W        W22435   3.969  13.570  13.937
55895W        W22436  12.658  30.168  10.969
55896W        W22437  26.711  34.991  11.749
55897W        W22438   1.381   5.599   2.774
55898W        W22439  30.539  17.027   2.286
55899W        W22440  19.748  43.031   2.795
55900W        W22441   4.348   6.740  11.793
55901W        W22442  22.704  22.583   2.116
55902W        W22443  12.032  28.561  11.450
55903W        W22444  38.038  27.721   1.325
55904W        W22445  26.621   0.362  12.560
55905W        W22446   7.680  22.421   1.910
55906W        W22447  21.220  26.878  14.556
55907W        W22448  13.717   2.374   2.592
55908W        W22449  44.221  11.863  13.253
55909W        W22450  26.741  36.114  14.845
55910W        W22451  38.730  23.735  13.929
55911W        W22452  40.929  44.474  12.668
55912W        W22453  14.168  17.611   0.862
55913W        W22454  11.474  40.509   2.377
55914W        W22455  34.994  40.279   3.006
55915W        W22456   1.498   8.398   2.349
55916W        W22457   4.733   9.630  14.350
55917W        W22458  10.544  34.871   2.666
55918W        W22459   4.052  31.879   2.599
55919W        W22460  12.157  39.733   1.373
55920W        W22461  44.174  21.255   2.229
55921W        W22462  35.741  38.055  12.497
55922W        W22463  20.509  40.254   3.308
55923W        W22464  34.938  39.878  14.909
55924W        W22465  26.185  10.737  11.948
55925W        W22466   0.393  10.716   4.600
55926W        W22467  37.900  40.811   0.955
55927W        W22468  26.580  14.032   4.947
55928W        W22469  14.626   0.253   0.523
55929W        W22470  32.905  37.184   1.978
55930W        W22471  22.842  37.749  12.451
55931W        W22472   6.961   7.275  14.855
55932W        W22473  33.217   1.388   5.092
55933W        W22474   8.442  36.312   5.117
55934W        W22475  28.014  42.021   1.147
55935W        W22476  31.695   2.848   0.333
55936W        W22477  39.076  20.759  13.965
55937W        W22478  29.968  20.619  12.928
55938W        W22479   8.078  34.443  11.256
55939W        W22480  22.828   5.398  10.415
55940W        W22481  13.821   2.049   0.248
55941W        W22482  19.969   6.038   2.645
55942W        W22483  20.128   8.924  10.719
55943W        W22484  19.498  42.732  13.401
55944W        W22485  26.433  34.132  14.948
55945W        W22486  15.403  37.815   0.839
55946W        W22487   7.803  40.599   2.172
55947W        W22488  11.937  23.423  10.582
55948W        W22489  24.592  18.082  14.900
55949W        W22490   5.964   6.196   1.024
55950W        W22491  39.396   3.236  14.964
55951W        W22492  37.794  12.475   4.604
55952W        W22493   8.251  20.783   2.017
55953W        W22494  40.693   1.833   0.796
55954W        W22495  19.641  23.250  11.259
55955W        W22496  15.750  19.535  10.707
55956W        W22497  14.768  18.772   4.908
55957W        W22498  42.027  15.534  14.204
55958W        W22499  34.393  22.607  14.070
55959W        W22500  36.824  26.517   1.163
55960W        W22501  31.181   3.239   3.287
55961W        W22502  24.086  14.355   4.242
55962W        W22503  11.965  28.192  13.982
55963W        W22504   7.825  13.564   0.256
55964W        W22505   7.683  25.627   0.260
55965W        W22506  36.890   7.670  13.063
55966W        W22507  30.182  19.761  14.362
55967W        W22508  26.131  35.803  14.382
55968W        W22509  40.354  19.630  13.410
55969W        W22510  39.437  41.683  11.104
55970W        W22511  29.620  39.990   2.974
55971W        W22512  20.019  28.089  12.810
55972W        W22513  12.351  20.940  13.615
55973W        W22514   4.324  14.456   3.366
55974W        W22515  26.211  43.172  11.178
55975W        W22516  38.847  31.055   4.616
55976W        W22517   9.155  26.075  10.706
55977W        W22518  34.465   1.030  14.295
55978W        W22519  21.668  43.839   3.358
55979W        W22520  21.638  29.443   1.958
55980W        W22521  34.658   5.201  10.556
55981W        W22522  11.278   4.361  11.223
55982W        W22523  12.359   9.734   0.170
55983W        W22524  10.115  14.718   3.690
55984W        W22525  22.564  33.422  10.570
55985W        W22526  29.225  32.603   2.725
55986W        W22527  38.537  23.534   0.987
55987W        W22528  28.729  22.714  13.584
55988W        W22529  18.425  21.170   1.145
55989W        W22530  34.029   3.795  13.593
55990W        W22531   5.862   0.843  12.546
55991W        W22532  20.003  17.958   3.676
55992W        W22533  10.398  27.311   0.270
55993W        W22534  35.873   2.227  13.089
55994W        W22535  33.237   1.733   2.510
55995W        W22536  39.294   9.173  10.396
55996W        W22537   9.409   9.691  13.496
55997W        W22538  39.586  22.627   1.432
55998W        W22539   8.404  10.101   4.483
55999W        W22540  32.488  43.775  13.840
56000W        W22541  11.072  10.846  14.800
56001W        W22542  39.282  23.935  13.310
56002W        W22543  34.877   5.964  13.044
56003W        W22544   1.986  37.849  13.065
56004W        W22545  40.841   7.720   2.329
56005W        W22546  44.161  15.914  12.689
56006W        W22547   6.423  44.996  11.273
56007W        W22548  31.256  29.644  11.467
56008W        W22549  32.142  17.551   4.714
56009W        W22550  37.678  42.889   2.139
56010W        W22551  24.552   1.189   0.170
56011W        W22552  38.945  30.919  13.989
56012W        W22553  29.958  29.866  13.543
56013W        W22554   4.847  22.771  12.484
56014W        W22555  18.287  20.044  13.884
56015W        W22556  42.431  12.361   0.320
56016W        W22557   9.850   2.515  11.848
56017W        W22558   6.682  42.400  10.566
56018W        W22559  44.718  28.123  12.927
56019W        W22560  27.548   0.240  11.643
56020W        W22561  34.184   2.332   2.055
56021W        W22562  15.137  33.395   3.171
56022W        W22563  25.329  12.360   4.138
56023W        W22564   6.210  20.880   3.019
56024W        W22565  33.497   7.719  12.799
56025W        W22566  10.929  36.900   0.394
56026W        W22567  36.190   7.722   1.965
56027W        W22568  25.259  15.281   4.164
56028W        W22569  41.577  25.006   4.117
56029W        W22570  39.015  43.298   4.071
56030W        W22571  42.016  26.036  13.572
56031W        W22572  21.808   9.346  11.400
56032W        W22573  19.211  23.291   2.288
56033W        W22574  18.125   4.480  10.659
56034W        W22575  19.997  38.253   2.797
56035W        W22576   3.308  10.306   2.662
56036W        W22577  40.297  31.503  11.113
56037W        W22578  22.690   4.078   5.371
56038W        W22579  36.861  39.084  11.166
56039W        W22580   4.389  41.788  13.805
56040W        W22581  34.422  40.122  11.224
56041W        W22582  35.985  34.802  12.023
56042W        W22583  26.060  25.478  14.091
56043W        W22584  30.469  10.024   4.990
56044W        W22585  28.241  12.535   2.677
56045W        W22586  30.591  42.044   4.570
56046W        W22587  11.582   8.414   2.766
56047W        W22588  30.834  34.822  14.647
56048W        W22589  11.935  18.551  12.978
56049W        W22590  13.144  13.182  14.765
56050W        W22591  23.807  30.609   4.901
56051W        W22592  24.192   2.041  13.914
56052W        W22593   5.298  23.560   2.372
56053W        W22594  11.216  35.115   3.165
56054W        W22595  10.353   2.453  13.457
56055W        W22596  12.229  12.128  14.964
56056W        W22597   9.933  37.436  14.820
56057W        W22598   2.565  37.925  11.858
56058W        W22599  43.763   9.874   3.220
56059W        W22600  17.421  21.611   4.570
56060W        W22601  16.197  35.411  14.088
56061W        W22602  10.890  44.443   1.906
56062W        W22603  35.697  43.407  12.964
56063W        W22604  18.640  38.393  12.544
56064W        W22605   1.837  42.718   2.630
56065W        W22606  38.370  21.578  12.582
56066W        W22607   8.595  15.239   3.757
56067W        W22608  34.938   6.167  14.328
56068W        W22609  16.628  33.835  11.612
56069W        W22610  28.991  28.724   2.786
56070W        W22611   2.488   9.313  11.643
56071W        W22612   3.095  42.244  10.833
56072W        W22613  12.653  34.268  14.380
56073W        W22614  18.661  24.083   3.396
56074W        W22615   0.021  42.299  12.562
56075W        W22616  18.276   9.808   3.649
56076W        W22617  14.842   5.458  12.409
56077W        W22618  30.023  27.175   4.187
56078W        W22619  30.142  12.592  12.875
56079W        W22620  17.495  13.707   0.988
56080W        W22621  35.142   8.420   0.294
56081W        W22622  12.737  37.077  12.212
56082W        W22623  11.296  18.797  12.392
56083W        W22624  20.741   2.369  13.375
56084W        W22625   9.065   0.248   2.834
56085W        W22626  31.032  29.110  10.574
56086W        W22627  38.594  44.974  10.864
56087W        W22628  18.498  19.072  11.480
56088W        W22629   6.333   5.382  10.154
56089W        W22630  16.668   4.844  12.475
56090W        W22631  44.882  39.327  13.621
56091W        W22632  33.266  31.569  11.030
56092W        W22633  25.190  11.374  12.613
56093W        W22634  32.444  29.707  12.011
56094W        W22635  31.850  15.136   4.756
56095W        W22636  34.886   3.637  13.206
56096W        W22637  25.476   9.502  14.452
56097W        W22638  28.595   9.794   4.592
56098W        W22639   6.291  43.325  12.535
56099W        W22640  43.977  25.601   1.150
56100W        W22641  40.401  32.913  14.359
56101W        W22642  44.907  17.775   2.693
56102W        W22643   2.230  31.488  12.780
56103W        W22644  19.962   4.772  13.838
56104W        W22645  14.588  20.637   4.158
56105W        W22646  18.251  34.251   3.868
56106W        W22647  20.277  19.001  11.199
56107W        W22648  32.064  24.127   2.255
56108W        W22649  31.583   9.319  14.949
56109W        W22650  40.774  21.635  13.558
56110W        W22651  23.212  36.423  14.425
56111W        W22652  10.368  36.042  14.422
56112W        W22653   8.701  13.440   3.127
56113W        W22654   9.324   2.346  11.640
56114W        W22655  37.001   5.838   2.911
56115W        W22656  15.733   0.744   3.682
56116W        W22657  12.265  23.653   0.506
56117W        W22658  25.063  42.571   0.743
56118W        W22659  35.650  13.998  10.743
56119W        W22660  11.457  44.656   2.240
56120W        W22661  36.195   1.826   4.385
56121W        W22662  44.131   7.621   0.912
56122W        W22663  37.456   7.835   2.862
56123W        W22664   3.619  43.184  13.504
56124W        W22665  25.203  23.964   4.498
56125W        W22666   0.321   4.153  14.197
56126W        W22667  32.222  22.030  13.064
56127W        W22668  39.632   6.667  14.750
56128W        W22669  21.123  31.417   1.976
56129W        W22670  23.084  18.263   4.467
56130W        W22671  19.645  33.314   1.236
56131W        W22672  42.249   7.238  11.106
56132W        W22673   5.401  19.797   4.263
56133W        W22674  10.821  39.551   3.386
56134W        W22675   5.095  12.282  10.599
56135W        W22676  11.167  36.164   0.508
56136W        W22677  36.066  20.073   4.639
56137W        W22678  37.442  33.598   3.235
56138W        W22679  41.705  38.534   2.619
56139W        W22680  35.033  21.651  11.402
56140W        W22681  14.364   6.657   4.530
56141W        W22682  26.978  15.066  13.652
56142W        W22683  24.540   5.891   3.640
56143W        W22684  23.581  24.157  13.590
56144W        W22685  10.562   4.927   3.704
56145W        W22686   7.980  24.838  14.851
56146W        W22687  19.819  39.725  12.691
56147W        W22688  42.721   7.680  10.767
56148W        W22689  34.211  40.888  12.432
56149W        W22690  31.109  30.874  12.027
56150W        W22691  40.042  27.286   2.861
56151W        W22692   8.466   1.555   2.361
56152W        W22693   5.672   2.383   2.368
56153W        W22694  40.543  27.271   4.369
56154W        W22695  11.779  39.885  11.673
56155W        W22696  40.856   7.519  12.520
56156W        W22697   6.696  43.467  13.266
56157W        W22698  37.082  19.238  14.680
56158W        W22699  38.791  12.254  14.822
56159W        W22700  24.811   9.317   4.567
56160W        W22701  19.996  33.926   1.020
56161W        W22702  35.076  12.102  12.526
56162W        W22703  11.330  23.753  13.820
56163W        W22704  38.931  20.718   4.287
56164W        W22705  29.183   6.847  12.406
56165W        W22706   9.255  11.686  10.816
56166W        W22707  43.427   9.657   4.130
56167W        W22708  31.940  42.491  11.130
56168W        W22709  10.895  10.547  12.952
56169W        W22710  22.189  24.970  10.927
56170W        W22711   8.907   5.380   2.742
56171W        W22712   4.566  43.773  14.885
56172W        W22713  40.555   9.247  13.763
56173W        W22714  26.793  38.424  13.962
56174W        W22715  22.519  31.059   4.448
56175W        W22716  34.048  44.218  13.379
56176W        W22717  13.282  27.212  13.814
56177W        W22718  36.591  31.854  14.436
56178W        W22719   0.481   5.949   0.932
56179W        W22720  10.394  28.417   3.607
56180W        W22721  10.172  19.614  14.045
56181W        W22722  11.463  34.438  10.485
56182W        W22723  21.699  14.751   1.825
56183W        W22724  33.892  41.145   3.258
56184W        W22725  35.135  36.434  14.398
56185W        W22726  19.623  30.100   0.920
56186W        W22727  44.517  18.586  10.684
56187W        W22728  18.071  42.737   2.202
56188W        W22729  36.570  42.432   0.856
56189W        W22730  14.095  25.923  13.932
56190W        W22731  28.278   2.939  12.946
56191W        W22732  40.650  17.482   2.873
56192W        W22733  36.307   3.735  11.604
56193W        W22734  25.212  21.737  11.909
56194W        W22735  10.618   3.864   1.893
56195W        W22736  37.641  24.045   0.750
56196W        W22737  42.801   0.962   1.862
56197W        W22738  25.682  20.536  13.022
56198W        W22739  39.429   1.699  10.625
56199W        W22740  11.638  35.125   4.330
56200W        W22741   2.675  35.073  10.213
56201W        W22742  18.743  42.950   4.947
56202W        W22743  17.953  42.879  12.806
56203W        W22744  29.915  12.857  12.475
56204W        W22745  30.105  25.005   2.313
56205W        W22746  33.403  31.773   4.500
56206W        W22747   2.088  19.210   3.707
56207W        W22748  20.661  44.930   4.016
56208W        W22749  37.868  18.589  13.221
56209W        W22750   4.210  18.754   1.870
56210W        W22751  37.564  36.628   1.387
56211W        W22752  14.161   9.334  12.974
56212W        W22753  20.979  33.847   1.467
56213W        W22754  25.830  31.905  13.293
56214W        W22755  26.427  44.552  14.020
56215W        W22756  27.600  26.002   1.887
56216W        W22757  10.119  25.617   0.201
56217W        W22758  15.645   3.056   2.949
56218W        W22759   4.301   4.461  14.090
56219W        W22760  38.459  25.131   1.471
56220W        W22761  36.401  33.215   3.079
56221W        W22762  32.783   5.514  10.899
56222W        W22763  37.908  21.787  12.534
56223W        W22764  15.305  19.224   0.356
56224W        W22765   8.316  41.594   5.001
56225W        W22766  39.745  33.740   2.665
56226W        W22767   5.006  15.566   2.339
56227W        W22768  34.522   2.709  12.962
56228W        W22769  17.619  38.456   4.038
56229W        W22770  35.788   5.540  13.327
56230W        W22771  18.257   7.189  10.710
56231W        W22772  32.692  37.753  14.233
56232W        W22773  20.709  39.996   4.097
56233W        W22774   5.172  36.395  13.560
56234W        W22775   0.970  13.088  11.604
56235W        W22776  44.815  36.875  14.402
56236W        W22777  41.016  44.064   2.839
56237W        W22778  11.652   0.200   2.212
56238W        W22779  31.640  15.623   5.025
56239W        W22780   7.378  31.778  13.969
56240W        W22781   3.006  27.936  14.096
56241W        W22782  41.454  38.010   0.370
56242W        W22783   7.956  29.572   3.775
56243W        W22784  26.103  42.807   4.093
56244W        W22785  15.590  16.841   0.006
56245W        W22786   1.826  32.253  11.066
56246W        W22787  12.121   7.609  14.425
56247W        W22788  16.252  44.554   0.042
56248W        W22789   2.638  11.057  14.932
56249W        W22790  23.513  43.405   3.005
56250W        W22791  41.840  11.249  11.607
56251W        W22792   4.278  18.239   3.591
56252W        W22793   6.867   9.817   2.290
56253W        W22794  27.176  15.282   1.988
56254W        W22795  28.571   1.818  11.924
56255W        W22796   6.404  36.981  12.396
56256W        W22797  34.103  41.739  11.872
56257W        W22798  35.523   1.976   2.012
56258W        W22799  41.275   0.564   3.436
56259W        W22800  13.731  25.126  11.045
56260W        W22801   6.268  42.901  13.563
56261W        W22802  13.787  33.415  14.941
56262W        W22803  37.854  27.601   4.988
56263W        W22804  25.618   6.912  12.032
56264W        W22805   4.003  27.171  10.402
56265W        W22806  14.923  10.825   2.780
56266W        W22807  29.563  24.726   0.285
56267W        W22808  25.272   3.937  12.138
56268W        W22809  22.624  39.990   1.190
56269W        W22810  35.649   5.267   4.137
56270W        W22811   4.801   7.436   1.049
56271W        W22812  23.923  22.303  10.962
56272W        W22813   0.194  22.704  10.867
56273W        W22814   2.413  12.821  10.541
56274W        W22815   8.772   7.233  12.129
56275W        W22816   4.823  39.004  12.013
56276W        W22817   3.374  23.756   2.850
56277W        W22818  26.405  19.130  13.750
56278W        W22819   7.930  12.687  12.453
56279W        W22820  20.644  35.111  10.699
56280W        W22821  17.849  22.246   2.389
56281W        W22822  44.523   6.329   0.896
56282W        W22823  26.147   2.230   4.618
56283W        W22824  10.711  29.948   3.827
56284W        W22825  27.460  14.244   2.614
56285W        W22826   7.813  35.741  10.103
56286W        W22827  36.474   9.162   3.697
56287W        W22828   5.705  27.944   1.320
56288W        W22829  33.935  32.886  13.943
56289W        W22830  25.595  34.455  12.865
56290W        W22831  24.749  29.010   4.791
56291W        W22832  26.185  38.406   4.354
56292W        W22833  10.257  28.134   4.755
56293W        W22834  42.122   7.840  14.452
56294W        W22835  14.566  11.841   1.812
56295W        W22836  25.589  13.852  13.691
56296W        W22837  11.857   0.509   0.424
56297W        W22838  23.068  42.551   4.710
56298W        W22839  36.474  28.509   2.889
56299W        W22840   0.202  12.334  14.867
56300W        W22841  34.475  13.837   1.018
56301W        W22842  32.466  31.684   0.381
56302W        W22843  33.455  27.924   5.168
56303W        W22844  31.591  31.808  11.122
56304W        W22845   9.326  20.771  13.581
56305W        W22846  34.029  44.551   1.728
56306W        W22847  18.961  30.285   5.199
56307W        W22848  34.386  10.650  14.978
56308W        W22849   8.411  22.132   2.686
56309W        W22850  10.218   4.173   1.985
56310W        W22851  34.751   5.815   5.060
56311W        W22852   0.778  44.083   3.358
56312W        W22853  20.055   3.406   9.969
56313W        W22854  29.787  20.588  13.943
56314W        W22855  27.072   8.408  14.744
56315W        W22856  32.004  42.512  14.550
56316W        W22857   3.083   2.311   3.295
56317W        W22858  19.798  10.035   3.361
56318W        W22859   0.584   2.406  14.376
56319W        W22860  11.638  25.816  12.502
56320W        W22861   6.591  10.759   0.969
56321W        W22862   2.321  35.885   2.724
56322W        W22863  38.199  34.280   3.598
56323W        W22864  25.287  18.615  13.131
56324W        W22865  25.206  31.462   1.784
56325W        W22866  30.284   5.679  13.364
56326W        W22867  28.377  12.288  11.967
56327W        W22868  30.438  37.590   1.798
56328W        W22869   3.906   5.244  14.013
56329W        W22870  35.323  29.164   0.029
56330W        W22871  25.450  36.375   1.803
56331W        W22872  15.381  33.023   2.757
56332W        W22873  35.592  16.164  12.607
56333W        W22874  44.772   8.141   4.364
56334W        W22875   8.303  30.618   1.209
56335W        W22876  35.164  44.187   0.347
56336W        W22877  16.913  36.863  10.586
56337W        W22878  26.415  20.554   1.853
56338W        W22879   2.246  38.276   3.729
56339W        W22880  29.857  40.953  12.444
56340W        W22881  12.294  10.106  14.745
56341W        W22882  40.443   1.315  11.884
56342W        W22883  33.983  19.311   1.328
56343W        W22884  31.396   2.291  10.089
56344W        W22885   3.336  13.341  14.433
56345W        W22886  36.239   3.045  10.241
56346W        W22887  30.600  32.543   4.614
56347W        W22888  41.934  44.882  13.107
56348W        W22889  37.051  39.901  11.640
56349W        W22890  10.560  20.020   0.577
56350W        W22891  28.584  26.508  10.861
56351W        W22892   3.545  30.340   2.262
56352W        W22893   1.752  16.218  14.702
56353W        W22894  43.287   6.672   2.175
56354W        W22895  39.930  17.353  12.152
56355W        W22896  21.763  15.796   2.682
56356W        W22897   1.198   4.685   1.808
56357W        W22898   5.723  16.768   2.915
56358W        W22899  17.751  40.613  12.219
56359W        W22900  19.852  42.681   2.413
56360W        W22901  20.538  19.545   2.358
56361W        W22902  38.465  15.244  11.656
56362W        W22903   3.365   4.842   0.035
56363W        W22904  25.910   9.430   2.740
56364W        W22905  16.254   5.718   4.245
56365W        W22906  36.874  32.445   2.679
56366W        W22907  28.123  12.545  12.864
56367W        W22908  36.122  14.108  13.041
56368W        W22909   6.906  14.335   3.722
56369W        W22910  21.016  13.348  11.110
56370W        W22911  41.476  38.540   1.315
56371W        W22912  39.627   0.036  11.937
56372W        W22913  12.875  44.428  11.618
56373W        W22914  24.013  43.079  14.444
56374W        W22915  15.494   5.870  14.356
56375W        W22916  28.936  41.259  12.406
56376W        W22917  31.465   0.933   3.777
56377W        W22918  18.667  13.825  12.629
56378W        W22919  41.661   4.871   1.692
56379W        W22920  11.444  10.716  11.731
56380W        W22921  16.626  37.311  13.005
56381W        W22922   1.866   3.748  12.213
56382W        W22923  33.516  10.774   2.818
56383W        W22924   5.812  31.728   3.519
56384W        W22925  28.222  17.047   0.391
56385W        W22926   8.224  34.603   1.882
56386W        W22927  29.650   9.705   5.463
56387W        W22928  20.516  38.077   4.833
56388W        W22929   8.145  33.388   4.764
56389W        W22930  44.411  34.888  12.562
56390W        W22931  14.981  35.890  13.219
56391W        W22932  34.490  42.877   2.702
56392W        W22933  27.089  19.219   0.381
56393W        W22934  33.589  14.679  12.123
56394W        W22935  32.168  24.677   2.681
56395W        W22936  24.806   9.737   2.209
56396W        W22937  36.814  41.293  10.681
56397W        W22938   4.764   3.793   3.620
56398W        W22939  14.258  39.038  12.410
56399W        W22940  23.145   9.179  13.151
56400W        W22941  22.052  34.083   0.345
56401W        W22942  44.825  15.068  12.035
56402W        W22943  39.508  26.151   4.872
56403W        W22944  16.080  18.813  14.262
56404W        W22945  13.145  22.268  10.675
56405W        W22946  10.784  37.070   3.285
56406W        W22947  15.228  15.323   0.467
56407W        W22948   8.747  26.402   0.879
56408W        W22949  14.805   9.878  11.527
56409W        W22950  19.627   8.292  14.210
56410W        W22951  41.914   5.833   0.382
56411W        W22952  19.603  31.578   4.201
56412W        W22953  42.299   0.327  13.146
56413W        W22954  10.254  42.417   1.486
56414W        W22955  26.666  12.313   4.989
56415W        W22956  19.655   6.966   5.045
56416W        W22957  19.562  21.129   1.361
56417W        W22958  21.283   0.739   3.300
56418W        W22959  28.706  30.626  10.702
56419W        W22960  36.335  16.038   1.846
56420W        W22961  11.277  16.198  14.414
56421W        W22962  39.208   7.174   0.314
56422W        W22963   6.663  33.321  13.978
56423W        W22964  39.378   8.874   3.235
56424W        W22965  12.747  34.225   5.459
56425W        W22966   5.008   4.026   3.048
56426W        W22967  28.198  21.687   4.448
56427W        W22968  39.416  30.143   4.185
56428W        W22969  11.799  24.225   2.413
56429W        W22970   0.800  22.508   5.031
56430W        W22971   0.344  30.625  12.621
56431W        W22972  18.237  39.988  12.404
56432W        W22973   2.102   3.052  13.452
56433W        W22974  15.177  27.266  11.416
56434W        W22975   2.728  18.044  14.829
56435W        W22976  40.884  16.606  14.892
56436W        W22977  44.276   2.526   3.264
56437W        W22978  37.091  24.257  11.169
56438W        W22979   1.384   7.869   2.300
56439W        W22980   9.985  32.660   0.840
56440W        W22981  12.341  29.311  11.372
56441W        W22982  10.742  16.898  11.913
56442W        W22983  22.497  38.580  12.127
56443W        W22984   5.021  32.098   0.918
56444W        W22985  14.180  29.198  11.589
56445W        W22986   3.998  30.846  11.585
56446W        W22987   3.885   1.341  13.398
56447W        W22988  36.923  34.490   3.621
56448W        W22989  13.650   4.680   3.216
56449W        W22990  17.993  23.820   4.434
56450W        W22991  11.743  44.961  11.084
56451W        W22992  25.922   1.797   0.822
56452W        W22993   5.622  16.690   3.786
56453W        W22994  18.531  26.452   4.609
56454W        W22995  44.236   3.866  13.121
56455W        W22996  38.683  34.787   5.001
56456W        W22997  16.234   3.451  14.527
56457W        W22998  32.903  21.240  13.549
56458W        W22999   0.483  33.712  11.147
56459W        W23000  37.536  31.676   1.332
56460W        W23001  30.093  17.257   0.299
56461W        W23002  39.726  15.953  14.887
56462W        W23003   5.102  22.289   0.300
56463W        W23004   9.855   8.998  14.909
56464W        W23005  33.078  41.398   3.634
56465W        W23006   1.161  40.061  11.175
56466W        W23007  19.706  22.493   0.779
56467W        W23008  16.465  21.159   1.403
56468W        W23009  25.293  17.443   1.257
56469W        W23010  35.990   0.005  11.517
56470W        W23011   7.158   4.919  13.154
56471W        W23012  15.917  24.004   0.028
56472W        W23013  39.025  33.803  14.898
56473W        W23014  11.217  43.231   2.707
56474W        W23015  10.164   2.377   0.959
56475W        W23016  43.947  43.924   0.267
56476W        W23017  17.960  26.686   4.034
56477W        W23018  44.413   5.638   1.614
56478W        W23019  10.607  40.028   2.182
56479W        W23020  21.193  17.810   4.170
56480W        W23021  39.762  21.604  10.989
56481W        W23022  26.630  40.971  12.833
56482W        W23023  37.751  15.393  12.367
56483W        W23024  22.419  17.409   2.787
56484W        W23025  10.809  13.293  13.630
56485W        W23026  33.379  42.602   1.137
56486W        W23027  11.378  36.550  13.405
56487W        W23028  14.359   3.908   1.122
56488W        W23029  21.664  12.651   9.853
56489W        W23030  36.349  25.199   2.348
56490W        W23031  13.573  41.045  13.461
56491W        W23032  17.308  20.487  13.402
56492W        W23033   5.833  23.346  10.656
56493W        W23034  36.499  13.879   0.367
56494W        W23035  26.546  25.708  14.037
56495W        W23036  44.321  41.697  12.371
56496W        W23037  36.911  42.043   4.019
56497W        W23038  26.965   2.013   4.134
56498W        W23039  38.591  33.062   3.836
56499W        W23040   6.985  14.153   2.144
56500W        W23041  37.990   6.682   2.193
56501W        W23042  36.050  10.353  12.429
56502W        W23043  24.843   8.384   3.728
56503W        W23044  32.002  38.563  13.919
56504W        W23045  44.860  16.336  13.842
56505W        W23046   9.698   8.815   1.700
56506W        W23047  15.789   4.173   4.468
56507W        W23048  31.535  35.435   1.636
56508W        W23049  31.367   0.312  13.644
56509W        W23050  30.484   4.407   3.624
56510W        W23051  41.882  42.337  12.824
56511W        W23052  14.021  10.739   3.640
56512W        W23053  20.532  39.060   0.267
56513W        W23054  11.781  15.021  14.817
56514W        W23055  38.558  20.798   3.600
56515W        W23056  10.654  26.941   1.759
56516W        W23057  22.262  24.164  12.071
56517W        W23058  25.467  18.058   3.688
56518W        W23059  38.069  23.908   4.131
56519W        W23060  25.245  24.571   0.194
56520W        W23061  36.573  13.662   4.150
56521W        W23062  33.910  20.596  12.000
56522W        W23063  25.518  34.538   2.699
56523W        W23064  43.807   8.054  12.263
56524W        W23065  31.921  20.034  13.024
56525W        W23066  11.767  15.871   4.121
56526W        W23067  16.104   9.803  12.067
56527W        W23068  12.751  41.073   2.675
56528W        W23069  18.863   8.839  11.562
56529W        W23070  14.230  27.056   1.555
56530W        W23071  36.611   0.173  14.526
56531W        W23072  27.996  43.415  10.604
56532W        W23073  20.560  13.174  12.637
56533W        W23074  21.917   2.174   0.961
56534W        W23075  10.757   8.411  12.569
56535W        W23076   0.422  22.489   0.748
56536W        W23077   0.198   3.938  12.126
56537W        W23078   6.362  19.223   0.883
56538W        W23079  34.606  23.764  11.590
56539W        W23080  36.481  38.947   1.412
56540W        W23081  14.225  41.327   1.525
56541W        W23082  21.093  10.219   1.671
56542W        W23083  36.402  29.199   4.994
56543W        W23084   5.301  15.827   2.775
56544W        W23085  10.429  37.762   3.561
56545W        W23086  41.667  40.347   0.944
56546W        W23087  42.471  32.021   3.574
56547W        W23088  44.487  34.946  13.178
56548W        W23089  24.614  13.196   4.681
56549W        W23090  34.870  25.215  10.753
56550W        W23091  17.409   3.243  12.732
56551W        W23092  11.161  22.986   4.733
56552W        W23093   9.294  15.936   2.693
56553W        W23094  27.095  40.698  11.522
56554W        W23095  29.355  22.902  14.395
56555W        W23096   1.476   0.695   2.324
56556W        W23097   8.384  14.200   4.827
56557W        W23098  30.604  37.560   4.172
56558W        W23099  26.096  30.042  14.249
56559W        W23100  43.040   3.365   3.276
56560W        W23101  20.308  13.402  13.051
56561W        W23102  25.223  40.050   4.890
56562W        W23103  30.708   9.624   0.300
56563W        W23104  33.922   5.452  12.915
56564W        W23105  41.013  12.175   0.375
56565W        W23106  41.248  12.016   2.408
56566W        W23107  26.100  21.036  12.433
56567W        W23108  37.694  22.048  11.130
56568W        W23109  32.588  37.242  13.997
56569W        W23110  32.340  13.737   2.673
56570W        W23111   9.832  20.604  13.547
56571W        W23112  34.995  20.017   4.804
56572W        W23113  21.206  30.037  14.314
56573W        W23114  10.162  13.468   1.724
56574W        W23115  13.345  27.007  11.035
56575W        W23116  30.518  26.620   2.684
56576W        W23117  36.383  38.658   3.334
56577W        W23118  22.326  37.520  14.298
56578W        W23119  31.495  17.535   3.284
56579W        W23120  40.350   4.998   3.103
56580W        W23121   0.652   9.100  14.874
56581W        W23122  21.081  16.485   3.743
56582W        W23123  44.412  38.954   1.891
56583W        W23124  12.139   2.311  12.825
56584W        W23125  10.798   5.331   4.662
56585W        W23126   2.678  32.927  13.794
56586W        W23127   8.894  21.290  12.047
56587W        W23128  19.717  20.126   4.124
56588W        W23129  19.834  27.084  14.903
56589W        W23130   7.140  12.259  10.682
56590W        W23131  22.775  26.129   1.682
56591W        W23132  44.621  25.648   0.459
56592W        W23133  19.744   9.958   2.027
56593W        W23134  37.174  13.557   2.038
56594W        W23135  34.860   3.344  12.566
56595W        W23136  18.812   7.306   3.590
56596W        W23137  24.105  24.753  14.289
56597W        W23138   0.883  35.069  13.890
56598W        W23139  22.220   6.718  12.792
56599W        W23140  20.463  20.592  11.984
56600W        W23141   2.570   0.546  14.897
56601W        W23142   4.577  23.478  10.122
56602W        W23143  27.206  20.036   2.189
56603W        W23144  43.276   1.835  14.459
56604W        W23145  15.199   3.831  10.859
56605W        W23146   3.256   6.609  13.613
56606W        W23147  28.687  32.897   3.211
56607W        W23148  33.958  41.419  10.936
56608W        W23149  42.181  13.067  10.319
56609W        W23150  13.089  30.958   0.917
56610W        W23151  35.314  11.945  11.117
56611W        W23152  23.065   0.807   1.706
56612W        W23153  32.102  27.017  14.076
56613W        W23154  41.091  41.610  10.621
56614W        W23155   3.362  12.918   0.465
56615W        W23156  35.085   5.292   2.884
56616W        W23157  28.956  15.589  12.662
56617W        W23158  37.723  30.988  11.154
56618W        W23159  25.967  20.357  10.558
56619W        W23160  19.055   2.697  11.477
56620W        W23161   2.133  38.933   3.312
56621W        W23162  34.004  33.887  13.861
56622W        W23163  33.890  32.002   4.648
56623W        W23164  21.249   3.063   1.728
56624W        W23165  12.629  34.305   3.036
56625W        W23166   3.541  42.229   2.163
56626W        W23167  32.628   4.669   1.871
56627W        W23168  32.973  14.848   0.956
56628W        W23169  22.562  39.410   3.186
56629W        W23170  26.134  16.160  11.101
56630W        W23171  15.809  37.787  12.379
56631W        W23172   8.218  38.348   4.757
56632W        W23173  31.994  15.746  10.730
56633W        W23174  13.367  12.374  10.468
56634W        W23175  14.103  16.833   1.720
56635W        W23176  27.180  24.942  11.027
56636W        W23177  16.546  23.506  14.142
56637W        W23178  10.331  19.220  14.385
56638W        W23179  28.196  28.964   1.530
56639W        W23180  18.781  33.728  11.490
56640W        W23181  38.132  41.858   2.969
56641W        W23182  33.464  17.081   2.585
56642W        W23183  19.042  23.000   1.394
56643W        W23184  23.776  42.885   2.852
56644W        W23185   0.839  22.181  13.858
56645W        W23186  19.188   0.709   0.365
56646W        W23187  15.645  41.479  12.450
56647W        W23188   4.207  44.471  11.606
56648W        W23189  38.950  14.023   1.876
56649W        W23190   8.869  40.243  13.440
56650W        W23191   3.026   9.310  10.643
56651W        W23192  12.272  22.649   4.866
56652W        W23193  41.913  18.695   3.848
56653W        W23194  43.581  16.421  12.021
56654W        W23195  27.073  12.846   3.308
56655W        W23196  21.212  10.358   4.636
56656W        W23197   6.848  38.053  11.190
56657W        W23198  35.599  37.806  14.228
56658W        W23199  13.914  15.748  11.333
56659W        W23200  35.996  41.828   3.518
56660W        W23201  23.539  38.541   4.565
56661W        W23202  30.304  22.742   4.649
56662W        W23203   0.948   5.454   1.462
56663W        W23204  19.194   9.142   1.280
56664W        W23205  30.487  13.626  11.927
56665W        W23206   5.126  19.514   1.782
56666W        W23207   2.464  42.193   3.666
56667W        W23208  32.671  19.945  14.385
56668W        W23209  35.177  20.447   2.867
56669W        W23210  40.056  16.138  11.949
56670W        W23211   2.275  27.955   2.202
56671W        W23212  42.913   8.897  13.913
56672W        W23213  35.254  21.013   1.147
56673W        W23214   9.137  29.030   1.878
56674W        W23215  14.537  16.076  10.823
56675W        W23216  32.040  28.666   3.391
56676W        W23217  18.530  38.888  12.721
56677W        W23218  32.147  17.096   4.479
56678W        W23219  27.262  37.985  13.173
56679W        W23220  23.979  34.929   2.393
56680W        W23221  10.574  26.707   3.195
56681W        W23222  36.744  41.908  13.476
56682W        W23223  28.568  17.806  11.850
56683W        W23224  39.399  22.672  10.342
56684W        W23225   0.294  20.992  14.949
56685W        W23226  33.967  11.054  12.075
56686W        W23227  28.947  41.059   0.976
56687W        W23228   1.393  25.768  10.498
56688W        W23229  26.553  17.074  11.597
56689W        W23230  24.524   1.960   3.899
56690W        W23231  38.916  19.553   3.688
56691W        W23232  20.512   8.694  12.429
56692W        W23233  23.293  43.545  11.617
56693W        W23234  41.427  12.439   4.133
56694W        W23235   4.157  44.897  10.137
56695W        W23236   1.785  11.819  14.321
56696W        W23237   9.840  18.648   2.467
56697W        W23238  37.966  24.068  10.754
56698W        W23239  18.958   5.180  10.841
56699W        W23240   0.735   0.765  10.918
56700W        W23241  37.349  27.059   4.545
56701W        W23242  15.281  13.363   2.628
56702W        W23243  34.181   2.395  13.875
56703W        W23244   9.107  38.780   2.344
56704W        W23245   9.270  41.891  10.272
56705W        W23246  24.225  23.187  11.275
56706W        W23247  18.196   4.894   0.784
56707W        W23248  11.398  37.859   3.582
56708W        W23249  28.136  30.220   3.114
56709W        W23250  37.587   0.397   3.149
56710W        W23251  20.761  38.403  12.004
56711W        W23252  35.767  37.451   0.513
56712W        W23253  31.187  19.738  14.459
56713W        W23254  25.078   1.318   0.221
56714W        W23255  32.182  22.020  11.130
56715W        W23256  16.741  26.171  13.362
56716W        W23257   3.233  36.995   0.744
56717W        W23258  25.849  39.907  10.768
56718W        W23259  11.807  16.180   3.159
56719W        W23260  16.699  34.900   0.653
56720W        W23261  38.725  35.872  12.497
56721W        W23262   7.957   8.935   1.348
56722W        W23263  33.949  23.543   3.492
56723W        W23264  13.908  18.953   1.251
56724W        W23265  35.960  12.576  14.703
56725W        W23266  33.019  30.371   3.211
56726W        W23267  17.268  14.011  12.357
56727W        W23268  28.901   5.188  11.702
56728W        W23269  23.761   5.460   0.840
56729W        W23270  16.990  24.985   5.201
56730W        W23271  15.603  25.109  12.896
56731W        W23272  24.388   6.801   1.321
56732W        W23273   4.289  31.736   3.577
56733W        W23274   9.576  18.664  13.317
56734W        W23275  16.084  23.617   3.632
56735W        W23276  32.241   2.352   2.292
56736W        W23277  19.769   6.291   3.372
56737W        W23278   3.927  26.695  10.813
56738W        W23279  26.969   7.036   3.071
56739W        W23280  12.509  10.161  13.996
56740W        W23281  10.652  29.040   0.684
56741W        W23282  32.366   8.721  13.603
56742W        W23283  41.713   8.402   0.249
56743W        W23284  40.479  27.758   4.169
56744W        W23285  18.321   7.460   3.685
56745W        W23286  31.544  31.390  12.849
56746W        W23287  19.182   9.852  14.754
56747W        W23288  36.672   0.721  10.663
56748W        W23289  24.081  32.579   2.207
56749W        W23290   1.313  13.532   2.415
56750W        W23291  10.999  26.505   0.400
56751W        W23292  17.117   7.856   1.879
56752W        W23293   1.244  20.984   0.869
56753W        W23294  34.308   1.253  10.708
56754W        W23295  13.996  15.815   4.059
56755W        W23296   3.438  17.442   4.414
56756W        W23297   1.772  20.064   2.113
56757W        W23298   9.242  23.752   4.170
56758W        W23299   4.875  42.716   4.149
56759W        W23300   9.205  16.017  11.607
56760W        W23301  17.033  17.190   2.672
56761W        W23302   4.794  19.036  12.885
56762W        W23303  26.947  13.277   4.636
56763W        W23304  38.998   3.899   3.036
56764W        W23305  10.033  27.460   3.676
56765W        W23306   8.478  37.312   4.146
56766W        W23307  15.299  12.420   1.255
56767W        W23308  42.045  44.327   0.710
56768W        W23309  10.134  26.164  13.904
56769W        W23310  22.330  44.796  12.397
56770W        W23311   9.394  24.436  14.286
56771W        W23312  21.867   8.739   3.494
56772W        W23313   8.300  13.141   2.895
56773W        W23314  31.185  12.277  14.165
56774W        W23315  21.635  11.789  12.019
56775W        W23316   7.075  36.048   4.202
56776W        W23317   3.876  10.675  12.419
56777W        W23318  40.613  22.810  14.873
56778W        W23319   2.185   1.159  14.924
56779W        W23320  21.608  26.717   4.769
56780W        W23321   7.238  28.453  12.518
56781W        W23322  13.779   8.257   0.182
56782W        W23323  15.585  25.043  13.468
56783W        W23324  10.763  14.943  14.715
56784W        W23325  22.209  30.156   4.002
56785W        W23326  24.168  33.915   2.269
56786W        W23327  40.546   7.365  13.802
56787W        W23328  30.095   2.626   4.061
56788W        W23329  20.750   2.822   2.894
56789W        W23330  12.734  29.477  12.614
56790W        W23331   6.169   0.749  14.836
56791W        W23332   2.329  33.955   4.051
56792W        W23333  27.142  34.933  10.834
56793W        W23334  19.791  21.642   1.438
56794W        W23335  18.779   7.822  14.263
56795W        W23336  21.724  35.083  13.851
56796W        W23337   5.467  15.781   2.290
56797W        W23338  42.791   2.915  12.579
56798W        W23339  32.626  26.617  12.988
56799W        W23340  43.470  16.063   3.806
56800W        W23341  16.609  12.034   2.945
56801W        W23342  23.654  20.254  12.647
56802W        W23343  27.093   3.204  12.647
56803W        W23344  37.432   1.372   4.431
56804W        W23345   3.776  24.654   0.988
56805W        W23346   8.348  29.464   0.169
56806W        W23347  16.475  31.854   2.472
56807W        W23348  29.347  32.604  14.770
56808W        W23349  25.265  34.547  13.914
56809W        W23350  24.976   6.815  10.753
56810W        W23351  16.602  23.999   4.119
56811W        W23352  40.446  35.484   4.169
56812W        W23353   8.361   4.867   0.327
56813W        W23354  12.932  22.167   3.311
56814W        W23355   0.247  24.386  11.106
56815W        W23356  34.967  21.220  11.092
56816W        W23357  28.977   9.675   2.704
56817W        W23358  17.485  24.209  13.996
56818W        W23359   1.812   1.582   1.809
56819W        W23360  29.925  35.375   3.892
56820W        W23361  44.393  19.203  14.089
56821W        W23362   8.730  29.415  13.581
56822W        W23363  33.983   0.702  12.585
56823W        W23364   8.720  40.568  11.356
56824W        W23365   5.284  29.662   2.149
56825W        W23366  13.609  28.613   0.426
56826W        W23367  22.563  40.397   4.167
56827W        W23368  44.071   6.558   4.903
56828W        W23369  37.233   2.255  12.107
56829W        W23370  41.283  34.813  14.005
56830W        W23371  23.363  19.730  13.000
56831W        W23372   0.462  43.817   4.685
56832W        W23373  24.694  44.455   3.684
56833W        W23374  25.796  22.782  13.983
56834W        W23375  38.403   0.240  12.415
56835W        W23376  34.551  34.564   1.373
56836W        W23377   0.470  34.272  14.756
56837W        W23378  41.452  33.422   0.547
56838W        W23379   5.697  41.142  14.707
56839W        W23380   4.124  26.441   1.880
56840W        W23381  19.118   0.223   2.548
56841W        W23382  42.919  32.838   4.266
56842W        W23383  14.416  38.267  11.672
56843W        W23384  21.288  42.033   3.295
56844W        W23385   6.153  35.017   4.557
56845W        W23386  22.807   4.413  13.899
56846W        W23387  36.258  23.204  13.497
56847W        W23388  17.716   2.540   0.533
56848W        W23389  44.221  38.932  12.920
56849W        W23390  43.967  26.474   4.043
56850W        W23391  12.344  41.724  13.073
56851W        W23392  36.371  37.523  10.790
56852W        W23393  16.040   5.195  13.096
56853W        W23394  35.333  44.479  11.821
56854W        W23395  18.508   5.343  10.613
56855W        W23396  25.926   7.256   4.593
56856W        W23397  22.922  18.741  13.889
56857W        W23398   5.593   3.990   3.594
56858W        W23399  33.607  18.999  11.140
56859W        W23400  28.639  23.362   1.928
56860W        W23401  26.978  24.281   4.457
56861W        W23402  13.942  12.635  12.046
56862W        W23403  32.387  40.852   3.263
56863W        W23404   9.826  25.030  10.733
56864W        W23405   0.741  44.382   2.934
56865W        W23406  29.410   3.361  13.717
56866W        W23407  20.091  44.176   1.428
56867W        W23408  35.384   6.788  11.119
56868W        W23409  38.506  27.624  12.556
56869W        W23410  14.198  33.540  13.799
56870W        W23411  21.615  22.115  10.793
56871W        W23412  25.639  40.527   4.192
56872W        W23413  44.728  43.856   3.305
56873W        W23414   6.276   3.811   0.971
56874W        W23415  32.124  20.481  11.592
56875W        W23416   7.695  32.987  12.676
56876W        W23417  30.139  23.044  11.594
56877W        W23418  27.650   4.675   2.833
56878W        W23419   2.270  24.633  10.213
56879W        W23420  25.549   2.151   0.961
56880W        W23421  38.572  26.617   2.848
56881W        W23422   4.776  37.116   4.198
56882W        W23423  16.562  13.643   4.191
56883W        W23424   9.322  42.228   1.689
56884W        W23425  44.885  30.991  10.707
56885W        W23426   4.737   8.066   1.738
56886W        W23427   0.766  43.417   3.674
56887W        W23428  17.071   5.491  14.574
56888W        W23429  34.454  10.661  13.268
56889W        W23430  39.992   8.121  10.532
56890W        W23431   0.936   6.456  12.672
56891W        W23432  15.456  30.725   2.267
56892W        W23433  17.466   8.902  11.705
56893W        W23434   2.339  29.555   4.998
56894W        W23435  39.616   3.464   0.383
56895W        W23436  18.157  27.591   4.002
56896W        W23437   0.829  26.683  12.644
56897W        W23438  33.447   5.089  14.729
56898W        W23439  40.822  33.030   0.854
56899W        W23440   5.075   4.737   1.516
56900W        W23441  31.370  36.588  14.602
56901W        W23442  24.240  36.805  12.547
56902W        W23443  11.107  41.020  10.763
56903W        W23444  30.099  23.745  14.892
56904W        W23445   2.887  33.494   0.710
56905W        W23446   5.812  35.183  11.180
56906W        W23447  17.753  10.363  10.337
56907W        W23448  13.662  28.913  12.406
56908W        W23449   2.655   6.491   0.885
56909W        W23450  21.836   1.918  12.767
56910W        W23451  44.974  29.923   1.180
56911W        W23452  14.626  36.023   4.653
56912W        W23453   2.383  14.001   2.190
56913W        W23454  11.293   5.483   4.625
56914W        W23455  40.416  21.033   3.704
56915W        W23456  39.531  27.059   3.351
56916W        W23457  23.645  22.675   1.359
56917W        W23458  41.898  24.214  12.919
56918W        W23459  35.351  41.557   0.286
56919W        W23460   5.673  11.427   2.760
56920W        W23461   6.206   4.501  13.944
56921W        W23462   9.878  11.310  14.464
56922W        W23463  28.414  42.049  14.851
56923W        W23464  19.786  19.050  11.051
56924W        W23465  30.710  16.624   0.130
56925W        W23466  35.805  44.527  13.504
56926W        W23467   1.368  15.653   1.411
56927W        W23468  18.127  44.430   2.634
56928W        W23469  11.319  21.531  11.572
56929W        W23470   0.414  13.113   0.975
56930W        W23471  30.454  44.805  12.269
56931W        W23472  44.992  23.192   4.622
56932W        W23473  35.917  21.455   0.504
56933W        W23474  42.983   8.280   4.229
56934W        W23475   3.434  36.273  13.853
56935W        W23476  38.836  22.941  10.729
56936W        W23477   9.342  12.343   2.348
56937W        W23478  39.851   0.927  10.799
56938W        W23479  24.133   9.759   0.716
56939W        W23480  40.518  30.554  11.221
56940W        W23481  29.634  19.645   3.628
56941W        W23482  11.703  12.273   1.759
56942W        W23483  33.021  21.959   2.374
56943W        W23484  44.515   5.122   1.361
56944W        W23485  16.718   4.377   4.203
56945W        W23486  17.525  38.098   4.663
56946W        W23487  42.089  29.169  10.363
56947W        W23488  23.693  13.403  13.317
56948W        W23489  32.409  25.135  10.695
56949W        W23490  21.739  16.556   4.233
56950W        W23491   9.097  29.168  14.486
56951W        W23492   3.411  21.003  13.028
56952W        W23493   9.139  11.364  13.858
56953W        W23494  27.249  19.775  12.466
56954W        W23495  13.882  39.112   2.187
56955W        W23496  33.457  35.415   3.176
56956W        W23497   1.815  20.079  10.628
56957W        W23498  29.117  31.847   4.199
56958W        W23499  14.811  34.549   3.065
56959W        W23500  22.411  28.551   3.339
56960W        W23501  37.843  23.104  14.365
56961W        W23502  21.628  13.533   1.411
56962W        W23503   5.221  39.840   0.840
56963W        W23504  22.324  28.564  13.340
56964W        W23505  16.681  22.711   4.188
56965W        W23506   3.458  29.918  12.448
56966W        W23507   4.848  33.053  14.498
56967W        W23508  40.606  19.713   1.610
56968W        W23509   8.141  31.604   1.279
56969W        W23510   5.230  33.568   1.685
56970W        W23511  16.155   4.785  11.152
56971W        W23512  35.455  13.614   2.531
56972W        W23513  19.619  32.607  11.138
56973W        W23514  35.448   4.281   3.753
56974W        W23515   6.882  31.374  11.572
56975W        W23516  12.062  35.264  11.980
56976W        W23517   5.907  10.809  10.540
56977W        W23518  17.793  25.076  13.561
56978W        W23519   0.776  32.828  11.265
56979W        W23520  16.716  30.851   3.757
56980W        W23521   7.285  18.342  13.414
56981W        W23522  18.519  27.360   3.685
56982W        W23523   6.895   7.341   4.879
56983W        W23524  22.797  18.697   1.331
56984W        W23525  23.211  37.409  12.439
56985W        W23526   2.728   1.617  11.270
56986W        W23527  22.522   2.784  13.842
56987W        W23528  35.596  39.089   1.512
56988W        W23529  31.691  10.597  11.073
56989W        W23530  25.749   4.190   1.872
56990W        W23531  42.258   9.739  12.058
56991W        W23532  30.371  34.809   5.035
56992W        W23533  18.491  31.191  12.532
56993W        W23534  22.179   4.972   1.295
56994W        W23535   5.415   5.780  14.988
56995W        W23536   5.490  19.730  10.550
56996W        W23537  16.832  36.822   3.997
56997W        W23538  10.671  23.169  11.137
56998W        W23539  44.281  41.432  14.539
56999W        W23540  18.787   9.386  13.521
57000W        W23541  39.460  10.815  13.318
57001W        W23542   9.810  35.621  11.561
57002W        W23543  29.168  29.210  12.060
57003W        W23544  13.324  42.845  14.534
57004W        W23545   6.256  32.434  10.633
57005W        W23546  42.922  44.574   2.673
57006W        W23547  24.907  44.326   4.132
57007W        W23548   2.438   8.280   4.747
57008W        W23549  35.680  44.893  14.387
57009W        W23550  30.913  42.344  11.443
57010W        W23551  17.234   7.201  10.793
57011W        W23552  12.746  42.131   2.644
57012W        W23553  21.596  38.622   3.682
57013W        W23554  21.289  24.348   2.704
57014W        W23555   0.618  43.055  13.940
57015W        W23556  29.110  30.493   1.925
57016W        W23557  23.533   8.296   9.848
57017W        W23558  20.856  40.626  13.868
57018W        W23559  28.934  25.479   1.377
57019W        W23560  19.597  33.418   1.736
57020W        W23561  29.398  23.548  11.463
57021W        W23562  28.273  18.291  10.078
57022W        W23563  21.812  34.185   3.144
57023W        W23564  37.461  13.534  11.492
57024W        W23565  12.813  29.132   3.746
57025W        W23566  20.163  35.112  12.988
57026W        W23567  37.564   1.409   3.298
57027W        W23568  40.842  15.688   1.051
57028W        W23569  15.573   1.639  14.472
57029W        W23570  16.551   8.137   3.404
57030W        W23571  36.477  30.336   3.141
57031W        W23572  35.992   9.917  14.796
57032W        W23573   0.850  17.341  12.591
57033W        W23574  15.820   9.304   0.302
57034W        W23575  19.473  18.644   2.828
57035W        W23576  24.496  43.452   1.845
57036W        W23577  27.730  11.061  13.390
57037W        W23578  14.379   8.170   1.328
57038W        W23579  16.805  11.200   4.782
57039W        W23580   8.620  16.618   0.879
57040W        W23581  12.605  12.328   1.308
57041W        W23582  28.214  21.812   0.886
57042W        W23583  30.620   6.211  14.993
57043W        W23584  16.561  21.093   1.907
57044W        W23585  44.795  23.456   1.286
57045W        W23586  38.630  44.866  10.358
57046W        W23587  37.840  38.468   0.957
57047W        W23588  36.882   8.592   0.325
57048W        W23589  33.191  34.872   0.098
57049W        W23590  39.668  35.995   2.041
57050W        W23591   5.967   9.891  13.131
57051W        W23592  23.337   8.137   4.196
57052W        W23593  15.376  22.153  13.634
57053W        W23594  13.109  18.309  11.513
57054W        W23595  44.233  17.214  13.767
57055W        W23596  32.926  31.236   2.768
57056W        W23597   3.401   2.816   1.348
57057W        W23598  16.209   8.228   2.695
57058W        W23599   8.471  13.674   4.625
57059W        W23600  21.304  22.410  13.353
57060W        W23601  15.850   4.442  14.342
57061W        W23602   8.299  14.139   2.702
57062W        W23603  22.198  24.663   0.294
57063W        W23604  43.958  42.872   2.614
57064W        W23605  18.774  15.104  12.101
57065W        W23606  26.857  32.787  14.791
57066W        W23607   5.276   8.607  14.953
57067W        W23608  17.804  25.526  14.303
57068W        W23609   9.087  44.861   0.007
57069W        W23610  37.699  20.644  10.766
57070W        W23611  18.698  20.738   1.319
57071W        W23612   7.624  39.594   2.199
57072W        W23613  35.855  40.784   2.672
57073W        W23614  37.065  44.767   3.772
57074W        W23615  42.024  29.585   3.795
57075W        W23616   8.629  24.641  13.124
57076W        W23617  27.507  44.071  14.820
57077W        W23618  29.941  15.056   0.841
57078W        W23619   2.281  34.018   1.226
57079W        W23620  37.308   9.218  13.009
57080W        W23621  10.369  27.142   3.422
57081W        W23622   1.691  29.549   0.015
57082W        W23623  44.665  28.457  13.327
57083W        W23624  22.637  30.439   0.784
57084W        W23625  18.546  18.200  12.541
57085W        W23626  26.993   2.644  14.987
57086W        W23627  28.186  27.552   0.177
57087W        W23628  21.424  35.557  13.132
57088W        W23629  15.211  15.504   4.549
57089W        W23630  38.264  14.795   0.760
57090W        W23631  35.892  11.294  12.042
57091W        W23632  23.722  38.538   3.190
57092W        W23633  40.699  25.962  12.411
57093W        W23634  35.807  26.836   4.588
57094W        W23635  11.577  42.768   3.141
57095W        W23636  38.839  24.099   1.404
57096W        W23637  39.670   5.755   1.043
57097W        W23638  22.999  13.526   0.443
57098W        W23639   6.210  27.214   3.607
57099W        W23640  41.375  40.828  13.400
57100W        W23641  12.076  23.725   3.701
57101W        W23642  35.284  20.618   0.673
57102W        W23643  11.674  24.791  10.808
57103W        W23644   3.367  37.335   3.951
57104W        W23645  32.419  12.246  12.036
57105W        W23646  30.095  44.410   2.924
57106W        W23647   8.800  35.307  14.397
57107W        W23648  23.149  13.809   4.334
57108W        W23649  20.164  24.669  11.666
57109W        W23650  37.041  32.843  12.065
57110W        W23651  38.878  29.796  14.875
57111W        W23652  33.503   6.722   1.022
57112W        W23653  19.966  36.286  10.474
57113W        W23654  25.606  42.132   0.014
57114W        W23655  14.329  41.425   4.678
57115W        W23656  11.098  38.427   2.245
57116W        W23657  16.246  22.082   3.654
57117W        W23658  33.798  31.780   3.689
57118W        W23659  40.999  39.763   2.550
57119W        W23660  18.675  19.561  11.509
57120W        W23661  19.780  24.261   1.356
57121W        W23662   9.741   2.599  12.997
57122W        W23663  40.632  34.935  13.412
57123W        W23664  43.397  15.304  14.574
57124W        W23665  31.477  36.081  12.474
57125W        W23666  10.864  31.515   2.803
57126W        W23667  34.040  23.667  14.882
57127W        W23668  32.958  31.580   1.407
57128W        W23669  10.052  11.236  12.960
57129W        W23670  17.264   4.632   0.906
57130W        W23671  27.158  26.248   0.729
57131W        W23672  39.644  30.461   4.521
57132W        W23673  43.751  29.333   4.070
57133W        W23674  35.058  31.889   3.294
57134W        W23675   9.561  21.982   3.597
57135W        W23676  24.547   7.226   2.891
57136W        W23677  39.562  18.226  14.447
57137W        W23678  16.061  27.927  13.440
57138W        W23679  26.812  14.840  12.903
57139W        W23680  21.177  21.585   2.765
57140W        W23681   5.564  11.639  14.479
57141W        W23682  22.120  23.298  14.514
57142W        W23683   2.974  32.737   0.032
57143W        W23684   7.539  31.304  14.846
57144W        W23685  29.127  19.611  12.621
57145W        W23686   8.219  14.698  13.308
57146W        W23687  43.012  25.556  11.583
57147W        W23688  32.519  31.940   4.418
57148W        W23689  25.134   4.658   1.419
57149W        W23690  36.650   2.317   9.809
57150W        W23691  41.774  17.770   1.167
57151W        W23692   5.142  13.884   4.585
57152W        W23693  11.632  18.130  12.924
57153W        W23694  33.059   6.416   0.895
57154W        W23695  17.209  32.596  12.676
57155W        W23696  34.325  27.508   4.098
57156W        W23697  23.264   4.976   2.663
57157W        W23698   5.835  37.840  14.443
57158W        W23699   8.398  35.413  14.721
57159W        W23700  15.912  11.377  12.785
57160W        W23701  40.370  34.345  12.578
57161W        W23702  34.953  25.116  12.403
57162W        W23703  31.947   6.261  10.484
57163W        W23704   2.221  39.448  10.554
57164W        W23705  26.898  12.246   0.563
57165W        W23706   1.970  31.673  10.195
57166W        W23707   4.201   3.157   4.640
57167W        W23708  31.026  12.733   2.656
57168W        W23709  22.710  34.110   2.450
57169W        W23710  12.379  10.114   4.293
57170W        W23711  30.774  13.808   3.743
57171W        W23712  33.543   1.289   3.981
57172W        W23713  22.548  20.509   4.311
57173W        W23714   8.234  21.012  12.571
57174W        W23715  24.538  12.704   4.021
57175W        W23716   0.368  34.560   3.132
57176W        W23717   9.235  35.687   1.896
57177W        W23718  11.815  23.425   0.393
57178W        W23719  35.537  15.294   4.777
57179W        W23720  36.887   3.022   0.352
57180W        W23721  15.632  12.741   0.956
57181W        W23722   1.409  29.514  13.896
57182W        W23723  14.422  37.402  12.341
57183W        W23724   2.825  16.805   2.120
57184W        W23725  10.581  35.015  13.966
57185W        W23726  27.455  20.178   1.762
57186W        W23727  25.934  11.084   0.115
57187W        W23728  14.811  38.535  13.859
57188W        W23729  32.983   9.239  14.944
57189W        W23730  27.441  23.653  11.090
57190W        W23731  22.663  33.574  13.179
57191W        W23732  11.845   1.872  12.919
57192W        W23733  27.058  28.583  14.682
57193W        W23734  40.478  11.539  14.427
57194W        W23735  27.739   1.919   1.276
57195W        W23736  16.964  25.236   2.302
57196W        W23737  22.288  11.664  11.717
57197W        W23738  30.329  20.765  11.213
57198W        W23739   8.934  18.577  11.045
57199W        W23740  17.261  44.243   0.310
57200W        W23741  37.542  37.811  14.625
57201W        W23742  33.585  44.483  13.437
57202W        W23743  25.145  34.221   0.498
57203W        W23744  42.383   7.744   1.655
57204W        W23745   9.147  36.071  13.136
57205W        W23746  23.677  14.408   2.224
57206W        W23747  30.449  31.381   0.315
57207W        W23748   7.136  12.257   3.826
57208W        W23749  38.964  13.245   5.526
57209W        W23750  30.364  34.141   4.274
57210W        W23751   7.035  16.099  14.495
57211W        W23752  22.630  29.698  10.226
57212W        W23753  35.633  39.253  13.067
57213W        W23754   6.221  39.966  12.557
57214W        W23755  31.064   9.552   4.420
57215W        W23756   6.330  11.963  14.823
57216W        W23757   5.250  26.133   0.479
57217W        W23758  42.195  40.389   1.781
57218W        W23759   5.188   2.025   0.661
57219W        W23760  32.627  36.324   2.466
57220W        W23761  32.407  19.949   5.084
57221W        W23762   0.001   4.225   1.267
57222W        W23763   7.270  34.114   2.273
57223W        W23764   5.323  13.557   1.758
57224W        W23765  25.289  41.948   1.521
57225W        W23766  19.740  17.748   2.421
57226W        W23767  31.891  33.480   1.817
57227W        W23768  43.250  27.958   3.309
57228W        W23769  11.102  33.388  12.115
57229W        W23770  10.230  10.721  14.725
57230W        W23771  26.496  24.964  11.569
57231W        W23772   8.157  19.103  13.849
57232W        W23773  22.579  28.224   0.993
57233W        W23774  39.563  28.194   2.843
57234W        W23775  17.305  37.046   3.807
57235W        W23776  13.183  20.179  14.456
57236W        W23777  44.412  41.846   4.434
57237W        W23778  21.025  22.268   0.424
57238W        W23779   6.117  26.078   3.163
57239W        W23780   6.237  30.517  11.740
57240W        W23781   5.083   0.677   2.541
57241W        W23782   4.859  37.358  12.064
57242W        W23783  27.395  22.173   0.348
57243W        W23784   0.032  31.211  14.336
57244W        W23785  43.358  23.004  13.918
57245W        W23786  20.880  38.717   3.715
57246W        W23787  18.157  23.298   3.644
57247W        W23788  28.751  24.507  10.684
57248W        W23789   4.523  37.345   1.235
57249W        W23790  39.235  43.999  12.620
57250W        W23791  11.289  26.999   4.898
57251W        W23792  32.477  19.599   0.091
57252W        W23793   2.640   2.871   5.743
57253W        W23794  35.887  39.426  14.903
57254W        W23795  13.383  20.804   4.232
57255W        W23796  13.068  33.238   2.328
57256W        W23797   2.598  29.494  12.983
57257W        W23798  24.893  33.156   1.181
57258W        W23799  20.828  22.667   4.669
57259W        W23800  43.418  24.666  14.870
57260W        W23801   0.317  19.629  12.913
57261W        W23802   9.234   1.964  12.649
57262W        W23803  38.585  14.893   5.042
57263W        W23804  39.837   7.655  13.091
57264W        W23805  16.904  33.948   1.619
57265W        W23806  14.101  30.006   1.839
57266W        W23807  39.740  29.413  11.084
57267W        W23808  10.705  34.363   0.524
57268W        W23809  20.907  10.423   1.223
57269W        W23810  27.494   1.031  12.991
57270W        W23811  12.825  25.789  12.148
57271W        W23812  19.530  28.133   1.196
57272W        W23813  39.801   9.984  12.969
57273W        W23814  13.533  13.963  14.118
57274W        W23815  15.529   0.881   2.145
57275W        W23816   6.734   1.684   1.436
57276W        W23817  35.169   7.730   2.035
57277W        W23818  33.049  13.647   2.128
57278W        W23819  21.694  19.526   2.772
57279W        W23820  39.981   3.632  12.763
57280W        W23821  37.817  16.232  13.408
57281W        W23822  10.342  25.771  12.132
57282W        W23823   1.912  13.268   2.178
57283W        W23824  43.313  14.691   1.721
57284W        W23825  14.609  35.459   4.596
57285W        W23826  10.570  11.265  10.308
57286W        W23827  20.744  11.188   1.867
57287W        W23828   2.349  40.541  12.142
57288W        W23829  17.541  10.179  11.285
57289W        W23830  15.639  27.016   0.384
57290W        W23831  40.318  32.841  13.509
57291W        W23832  12.344  16.256   2.196
57292W        W23833  11.308  22.450   1.504
57293W        W23834  25.180  24.119   0.907
57294W        W23835   8.893  16.992  13.050
57295W        W23836  15.589  43.769   2.298
57296W        W23837   7.865  23.179  13.933
57297W        W23838  21.777  20.049  14.830
57298W        W23839  29.567  24.266   2.281
57299W        W23840  13.840  18.419  13.043
57300W        W23841  36.443  18.660   1.146
57301W        W23842  13.681   3.036   0.447
57302W        W23843   1.421  30.823   5.203
57303W        W23844  37.479  28.986   0.853
57304W        W23845  31.030  12.791   1.150
57305W        W23846  44.150   4.318   0.926
57306W        W23847   5.811  27.391  13.387
57307W        W23848  33.451   9.091   3.585
57308W        W23849  29.508  35.641  14.835
57309W        W23850   2.526  43.481  12.160
57310W        W23851   3.853  36.377  14.713
57311W        W23852  28.785  11.348  12.941
57312W        W23853  12.699  37.750  14.031
57313W        W23854  28.592  21.651  11.027
57314W        W23855   1.725  30.944  11.590
57315W        W23856   3.069  35.583  11.052
57316W        W23857  17.626   3.768   1.090
57317W        W23858  44.392  41.431  14.020
57318W        W23859  27.545  37.441   3.191
57319W        W23860  12.603  36.194   1.763
57320W        W23861   8.739   5.471   4.495
57321W        W23862  24.573  14.620   3.280
57322W        W23863  44.878   6.979   1.910
57323W        W23864   4.489   9.770  13.860
57324W        W23865  27.648   7.646  14.989
57325W        W23866   8.576  24.697   3.529
57326W        W23867   6.672  44.392   4.094
57327W        W23868  18.666  20.493  13.585
57328W        W23869  17.910  17.994  10.986
57329W        W23870  38.971   3.105   1.361
57330W        W23871   1.712  29.168  12.082
57331W        W23872  44.866  29.228   2.278
57332W        W23873  36.928  28.878   3.345
57333W        W23874  31.664   1.200   3.370
57334W        W23875   8.821   3.356   0.482
57335W        W23876  43.063  39.026   1.209
57336W        W23877  16.237  22.116  11.716
57337W        W23878   1.684  28.462   0.433
57338W        W23879   4.819   2.010  11.687
57339W        W23880  10.669  17.052  14.255
57340W        W23881  22.166  23.413  12.886
57341W        W23882  35.509   4.045  14.439
57342W        W23883  24.629  41.636  14.827
57343W        W23884  18.607   7.481   0.742
57344W        W23885  30.001  26.358  11.572
57345W        W23886  39.991  29.227  12.063
57346W        W23887  30.529  21.508   0.484
57347W        W23888   1.269   9.687   3.859
57348W        W23889  22.137   8.838   4.981
57349W        W23890  14.969  26.515  11.592
57350W        W23891   8.718  10.431  13.412
57351W        W23892   5.509   8.230  13.508
57352W        W23893  30.277   5.227  13.603
57353W        W23894  41.626  39.501  12.024
57354W        W23895   9.823  20.481   0.863
57355W        W23896  28.390  11.150  14.902
57356W        W23897   6.433   4.925  14.909
57357W        W23898  37.578  38.477  10.751
57358W        W23899  36.033  33.554  10.464
57359W        W23900  35.447   0.198  14.807
57360W        W23901  31.007  40.476  12.920
57361W        W23902  15.533  32.850  14.711
57362W        W23903  11.839  24.140  11.991
57363W        W23904  33.118  35.635  12.240
57364W        W23905  30.554   2.831   3.924
57365W        W23906  36.519  16.027  14.540
57366W        W23907  10.944  31.954  10.752
57367W        W23908  40.299   9.855   2.792
57368W        W23909  40.368  15.030  14.178
57369W        W23910  39.209  23.250  11.499
57370W        W23911   8.785   2.825   0.417
57371W        W23912   7.811  17.579   2.929
57372W        W23913   7.561  23.549  14.747
57373W        W23914   0.725  14.780   3.636
57374W        W23915  19.108  35.068   0.283
57375W        W23916  39.102  10.371  12.587
57376W        W23917  35.439  14.617   0.519
57377W        W23918  17.581  10.118  14.303
57378W        W23919   1.241  13.670  12.163
57379W        W23920  31.899  26.389   2.766
57380W        W23921  19.224  44.504   4.436
57381W        W23922  33.953  16.741  13.958
57382W        W23923   5.336  13.277  12.068
57383W        W23924  13.352  35.015  13.513
57384W        W23925  29.186  23.466  13.272
57385W        W23926  31.030  21.773   3.632
57386W        W23927   1.399  41.839   4.595
57387W        W23928  11.269  38.630   5.104
57388W        W23929  23.783  33.351   3.282
57389W        W23930   0.920   3.721   0.746
57390W        W23931  43.462   6.090  11.494
57391W        W23932   4.758  33.338  10.502
57392W        W23933  22.010  31.615  13.519
57393W        W23934  17.617  18.038  13.344
57394W        W23935  25.823  15.489   4.942
57395W        W23936  10.518  22.934   4.217
57396W        W23937  21.471  39.012  13.900
57397W        W23938  42.226  32.430  14.822
57398W        W23939  12.393  20.081  13.313
57399W        W23940   6.115  43.077   2.741
57400W        W23941   4.184   5.195   1.373
57401W        W23942  24.975  39.687  11.108
57402W        W23943  32.510   7.703  11.877
57403W        W23944  24.694  44.937  12.523
57404W        W23945   3.967  43.209  10.659
57405W        W23946  38.355  28.310  13.118
57406W        W23947  41.093  12.953  11.645
57407W        W23948  15.402  27.932   0.474
57408W        W23949  27.430  24.685  11.906
57409W        W23950  34.285  22.108  14.204
57410W        W23951  30.234  38.067   1.931
57411W        W23952  37.780   9.125   4.478
57412W        W23953  20.668  18.722   4.677
57413W        W23954  21.559  10.159  13.107
57414W        W23955  20.491  15.887  11.666
57415W        W23956  22.569   5.892   1.940
57416W        W23957  25.757  27.330   2.202
57417W        W23958  17.293   1.554   2.044
57418W        W23959  28.693  23.865   1.914
57419W        W23960   7.133   4.468   2.699
57420W        W23961  33.517   0.527  14.371
57421W        W23962  14.376   6.006   2.292
57422W        W23963  31.697  29.419   4.856
57423W        W23964  11.880  26.210   0.597
57424W        W23965  39.960  16.452   2.291
57425W        W23966   8.500  27.598   2.351
57426W        W23967  23.137  30.469   1.434
57427W        W23968   3.271  14.266   2.812
57428W        W23969   9.834   3.324  14.065
57429W        W23970  22.197   9.265   4.150
57430W        W23971  12.359  44.282   1.738
57431W        W23972  30.509   2.478  12.576
57432W        W23973  15.338   3.937   4.272
57433W        W23974  32.043   0.291   3.315
57434W        W23975  42.779  27.637  13.435
57435W        W23976  32.036   6.225   2.368
57436W        W23977  25.048  16.547   4.421
57437W        W23978  10.185  24.755   0.444
57438W        W23979  24.455  27.000   4.375
57439W        W23980  40.813  42.736   2.798
57440W        W23981  34.865  26.046   1.906
57441W        W23982   9.763  31.654  10.691
57442W        W23983  10.776  31.404   4.383
57443W        W23984  43.276  15.087   1.385
57444W        W23985  24.791  13.725   0.586
57445W        W23986  30.004  42.539   2.398
57446W        W23987  37.774   4.776   1.219
57447W        W23988  25.618  22.994   4.681
57448W        W23989   2.675   0.771   1.603
57449W        W23990  23.622  27.054   0.444
57450W        W23991  23.035  29.662  10.595
57451W        W23992  11.624  11.815   0.442
57452W        W23993  41.401  42.316   0.770
57453W        W23994  44.281  34.161   3.987
57454W        W23995  38.965  10.906  13.469
57455W        W23996  44.295  44.510   2.835
57456W        W23997  11.363  35.741  10.423
57457W        W23998  36.619  24.165   3.089
57458W        W23999   0.737  19.457   3.123
57459W        W24000   6.950  25.032   3.256
57460W        W24001   2.174   1.291  11.840
57461W        W24002   6.090   1.015  10.784
57462W        W24003  31.113  39.257  10.717
57463W        W24004  44.018   8.194  13.991
57464W        W24005   2.339  22.524   4.570
57465W        W24006  28.459  38.404  13.335
57466W        W24007  19.720  30.161  13.452
57467W        W24008   8.258  26.625  14.408
57468W        W24009  13.771  10.399   4.809
57469W        W24010  39.253  26.547  10.112
57470W        W24011  20.179   8.752   2.133
57471W        W24012  25.193  11.712   0.346
57472W        W24013  21.996  13.175  10.266
57473W        W24014   2.071  25.031  12.042
57474W        W24015  32.195  17.615  14.790
57475W        W24016   5.162  32.875   5.361
57476W        W24017  14.317  29.938  13.941
57477W        W24018  25.989  40.122  14.323
57478W        W24019  33.036   9.724   3.145
57479W        W24020  18.182  23.759   4.901
57480W        W24021  18.162  20.936  10.623
57481W        W24022   1.252  28.592  13.568
57482W        W24023  11.711   5.854   4.488
57483W        W24024   8.775   9.679   2.375
57484W        W24025  33.780   4.493  12.037
57485W        W24026  37.607  34.152   1.348
57486W        W24027  10.925  44.033  11.639
57487W        W24028  14.803  30.687  12.038
57488W        W24029   5.622  27.527   3.123
57489W        W24030  19.220  34.952  13.340
57490W        W24031   0.167  35.189   0.883
57491W        W24032   3.970   2.674  11.268
57492W        W24033  25.687  28.565  12.156
57493W        W24034   5.447  12.536  12.641
57494W        W24035  33.255  18.048  11.093
57495W        W24036  21.523  35.349   0.881
57496W        W24037   4.412  18.155  10.668
57497W        W24038  34.029  26.153   2.462
57498W        W24039  15.209  19.279   4.563
57499W        W24040  22.543  34.253  10.860
57500W        W24041  16.365  17.459  12.506
57501W        W24042  10.885   0.206   1.754
57502W        W24043  43.874   0.521  13.885
57503W        W24044  15.242  36.213  14.859
57504W        W24045  14.972   3.504   3.617
57505W        W24046  36.032  16.118   4.524
57506W        W24047  38.984   7.579   4.602
57507W        W24048  34.521   4.776   4.339
57508W        W24049   9.458  11.791   0.492
57509W        W24050   0.973  36.079  13.973
57510W        W24051  27.619  39.989  12.594
57511W        W24052   0.024   3.831   5.361
57512W        W24053   2.001  39.993  11.369
57513W        W24054   5.570  36.672   3.450
57514W        W24055  29.213  10.138  10.667
57515W        W24056   9.631   1.221   0.093
57516W        W24057  40.416  29.735  14.250
57517W        W24058  38.754  33.396   2.216
57518W        W24059  39.608  34.596  10.789
57519W        W24060  16.263  42.207   2.545
57520W        W24061   6.430  35.076  11.918
57521W        W24062   7.153  40.867   0.470
57522W        W24063  24.439  37.002   4.171
57523W        W24064  15.806   2.059  12.642
57524W        W24065   2.899  38.082   3.192
57525W        W24066  25.176  24.028   3.603
57526W        W24067  33.237  35.022  12.929
57527W        W24068   5.758  37.443   0.724
57528W        W24069  13.863  23.496   1.411
57529W        W24070   9.116  16.677  14.903
57530W        W24071   2.706  44.171   9.709
57531W        W24072  20.766   7.891  10.954
57532W        W24073  26.257   8.225   3.523
57533W        W24074  15.162  25.983  14.959
57534W        W24075  39.193  11.858   3.012
57535W        W24076  25.083  41.224  12.948
57536W        W24077  25.232  30.762   0.711
57537W        W24078  18.159  41.303  13.546
57538W        W24079  31.174  32.603  12.805
57539W        W24080  23.966   4.341   2.674
57540W        W24081  13.050  37.505  12.288
57541W        W24082  13.233   3.068   0.838
57542W        W24083   1.023   3.385   1.339
57543W        W24084  20.780  42.361  13.344
57544W        W24085  31.367  15.975  14.931
57545W        W24086  33.707  11.607   2.726
57546W        W24087   9.845  41.176   0.250
57547W        W24088  25.135  18.598   2.882
57548W        W24089   3.207   4.342   3.289
57549W        W24090  27.107  12.823  11.137
57550W        W24091  25.813   9.445   3.696
57551W        W24092  38.057  13.128   0.494
57552W        W24093   6.508  23.572  13.849
57553W        W24094  39.377  18.088   2.255
57554W        W24095  29.638  17.158   0.768
57555W        W24096  30.174  32.899  14.516
57556W        W24097  40.676  10.523   0.810
57557W        W24098  25.926   6.244   3.184
57558W        W24099   8.425   9.270   2.663
57559W        W24100  22.216  32.625  14.736
57560W        W24101  21.691  43.741  12.905
57561W        W24102  44.454   0.461   2.796
57562W        W24103   0.756  33.927   1.449
57563W        W24104   3.779  13.551  12.558
57564W        W24105   1.953  20.604   0.383
57565W        W24106  38.231  13.053   1.396
57566W        W24107  17.555  38.853   3.260
57567W        W24108  14.793   6.456   3.766
57568W        W24109   0.352  36.154   4.029
57569W        W24110   4.374  29.480   1.409
57570W        W24111  15.553  22.461   0.278
57571W        W24112  13.926  38.497  13.029
57572W        W24113  38.095   6.276  12.247
57573W        W24114  12.777  14.829  14.065
57574W        W24115  41.977  26.071   2.018
57575W        W24116  21.424   0.388  13.323
57576W        W24117  29.530   7.370   3.588
57577W        W24118  11.813   5.687   3.245
57578W        W24119  43.048   4.703   4.620
57579W        W24120  36.523  27.618   3.705
57580W        W24121  23.305  26.010   1.698
57581W        W24122  23.302   9.723  10.351
57582W        W24123  30.197  16.067   1.702
57583W        W24124   2.930  27.912   0.859
57584W        W24125  17.022  37.592  13.961
57585W        W24126  41.134  26.584   1.932
57586W        W24127   8.663   9.105  13.473
57587W        W24128  15.816  28.866  13.923
57588W        W24129  43.003  27.191   0.337
57589W        W24130  24.435   3.541  12.936
57590W        W24131  13.669  15.793   2.675
57591W        W24132  28.526   4.321  10.593
57592W        W24133  23.522  43.937  13.323
57593W        W24134  23.650   1.596  11.322
57594W        W24135  10.567  41.911  12.441
57595W        W24136  35.665   6.728   2.433
57596W        W24137  27.569  41.555  13.539
57597W        W24138  12.155  15.940  14.471
57598W        W24139  39.595  11.681   4.526
57599W        W24140  14.764  28.286   0.989
57600W        W24141  35.658  24.013   3.418
57601W        W24142  42.392  14.306   2.950
57602W        W24143  21.290  38.343  14.304
57603W        W24144  36.077  41.266   0.328
57604W        W24145  42.664  10.367  10.722
57605W        W24146  35.024  41.963  13.535
57606W        W24147  35.079  30.993   0.596
57607W        W24148  25.518  20.561   4.869
57608W        W24149  20.769  24.082  12.937
57609W        W24150  32.626  15.125  13.025
57610W        W24151   3.329  10.692  12.498
57611W        W24152   9.798  39.558  14.335
57612W        W24153  12.062  40.167   0.952
57613W        W24154  31.078   5.137  11.612
57614W        W24155   1.551  25.038  12.073
57615W        W24156  10.401   8.224   1.959
57616W        W24157   5.029  31.979   3.402
57617W        W24158  14.448  32.707   1.310
57618W        W24159  26.115  41.876   3.577
57619W        W24160  26.235   8.385  14.052
57620W        W24161   8.169  23.163   0.990
57621W        W24162  13.108   3.890  12.022
57622W        W24163  19.503  33.044  11.672
57623W        W24164  16.308  16.475  10.282
57624W        W24165  34.158   6.291   2.867
57625W        W24166   1.275  12.073   0.393
57626W        W24167  12.086   9.137  11.572
57627W        W24168  27.797  33.374   9.960
57628W        W24169   7.337   5.346  12.020
57629W        W24170  24.209  12.156  13.073
57630W        W24171  43.711  11.582   2.360
57631W        W24172  24.247  31.949  11.557
57632W        W24173  16.334  32.186   4.922
57633W        W24174   0.959   8.870  14.535
57634W        W24175  16.645  21.722  10.809
57635W        W24176  10.105  28.601  14.958
57636W        W24177   1.662  18.101  11.101
57637W        W24178  33.624  27.499   2.855
57638W        W24179  15.349   5.207  11.895
57639W        W24180  12.754  29.208  13.380
57640W        W24181  31.235  26.136  14.967
57641W        W24182  18.967  15.180   0.846
57642W        W24183  44.121  30.303  14.496
57643W        W24184   7.579  37.664   4.525
57644W        W24185  23.097  24.748  14.273
57645W        W24186  44.411   5.889   0.094
57646W        W24187  20.614  19.342   3.720
57647W        W24188  24.488  19.155  13.329
57648W        W24189  33.150  27.881  11.738
57649W        W24190  26.704  34.460  13.411
57650W        W24191  13.139  22.661  14.974
57651W        W24192  39.846  15.459   2.417
57652W        W24193   5.442  27.730   3.700
57653W        W24194  22.898   1.913   0.774
57654W        W24195   9.239  18.309  13.451
57655W        W24196  22.493  13.351  11.167
57656W        W24197  28.858   9.655  10.712
57657W        W24198  27.165  13.320   4.142
57658W        W24199  28.501  23.023  10.652
57659W        W24200  41.105   2.901   3.117
57660W        W24201  10.438  31.045   4.253
57661W        W24202  31.805   2.811  14.824
57662W        W24203  19.112  44.180   2.767
57663W        W24204  14.524  43.725  14.405
57664W        W24205   8.185  37.037  13.755
57665W        W24206  36.363  32.730  11.037
57666W        W24207  44.560  22.299  10.752
57667W        W24208  33.043  29.080  12.277
57668W        W24209  15.247   2.165   2.591
57669W        W24210  41.273  19.687   1.474
57670W        W24211  38.552  21.232   0.677
57671W        W24212  15.236   6.379  14.246
57672W        W24213  19.208  33.230  13.085
57673W        W24214  24.480  33.664  12.633
57674W        W24215  11.687  19.683   5.250
57675W        W24216  24.261  23.030   0.502
57676W        W24217   5.055  34.041   1.760
57677W        W24218   8.938  22.698  13.127
57678W        W24219  30.232   9.149  11.129
57679W        W24220  15.207  40.075   3.790
57680W        W24221   7.842   2.209   4.741
57681W        W24222  14.741  34.085   2.275
57682W        W24223  10.925  24.551  11.173
57683W        W24224  26.756  26.526   0.949
57684W        W24225   3.780   7.429   2.942
57685W        W24226  23.380  31.485  11.615
57686W        W24227  34.408  27.220   0.555
57687W        W24228  29.162   3.320  14.849
57688W        W24229  32.174  21.647  12.063
57689W        W24230  17.812  19.491  11.958
57690W        W24231  12.136  36.710  13.895
57691W        W24232  44.696  44.221  13.261
57692W        W24233  37.914  14.064   3.372
57693W        W24234  31.307  26.720  12.406
57694W        W24235  12.892   5.482  14.987
57695W        W24236  19.334  37.387  12.500
57696W        W24237  29.419  15.066  11.931
57697W        W24238  42.075  34.910   1.108
57698W        W24239  25.998  38.773  12.978
57699W        W24240  33.922  22.977   2.371
57700W        W24241  38.341  37.848  10.871
57701W        W24242  44.328  18.448  10.197
57702W        W24243   0.161  11.344  14.006
57703W        W24244  16.808  35.527   2.168
57704W        W24245  31.856   2.169   1.837
57705W        W24246  16.540  25.082   3.712
57706W        W24247  26.113  27.353  14.240
57707W        W24248  25.415   0.362  12.527
57708W        W24249  22.894  25.719  11.425
57709W        W24250  12.319  41.267  14.001
57710W        W24251  29.790  24.176  11.217
57711W        W24252  27.269   9.608  11.477
57712W        W24253  15.045   8.866   2.661
57713W        W24254  12.195  34.725  11.931
57714W        W24255  22.719  30.206   2.214
57715W        W24256   1.991  26.420  12.041
57716W        W24257  20.014  13.122  14.485
57717W        W24258  17.334   3.671  12.457
57718W        W24259  20.307   7.091  14.088
57719W        W24260  21.078  28.666  13.068
57720W        W24261   8.386  28.938  10.729
57721W        W24262  24.304   6.415  14.159
57722W        W24263   1.199  15.001  13.071
57723W        W24264   5.684  41.465  13.035
57724W        W24265   4.223  42.419   4.409
57725W        W24266   7.508  33.549  14.208
57726W        W24267  18.554  39.848   1.243
57727W        W24268  19.045   6.306  12.886
57728W        W24269   3.887  13.396   4.139
57729W        W24270   5.675  40.940   3.205
57730W        W24271  40.500  37.535  13.853
57731W        W24272   8.962  30.437  13.372
57732W        W24273  13.559   4.453  13.497
57733W        W24274  31.504   9.677   9.865
57734W        W24275   5.041  27.603  14.770
57735W        W24276  37.262  26.377   0.868
57736W        W24277  36.595  17.876   4.624
57737W        W24278   6.187  13.344  10.453
57738W        W24279  30.487  44.095   1.434
57739W        W24280  38.423  14.320   3.602
57740W        W24281  15.604  34.282  14.969
57741W        W24282  14.179   3.485  12.569
57742W        W24283  14.326  17.312   1.722
57743W        W24284  10.368  22.821   0.439
57744W        W24285  13.718   9.385   4.772
57745W        W24286  40.301  23.551   4.621
57746W        W24287  33.084  31.510  10.511
57747W        W24288  36.379  42.478  11.180
57748W        W24289  44.396  26.108  10.547
57749W        W24290  10.988  29.639  11.009
57750W        W24291  19.667  16.333   0.691
57751W        W24292  26.863  11.194   2.971
57752W        W24293  44.901  23.500   0.400
57753W        W24294  28.742  21.728   0.798
57754W        W24295  14.492  21.458   3.720
57755W        W24296  39.142  28.177  13.520
57756W        W24297  30.787  31.740   1.656
57757W        W24298  10.042  30.686  10.738
57758W        W24299  39.040  42.447  13.362
57759W        W24300   5.949   8.668   0.854
57760W        W24301  44.103  13.297   3.967
57761W        W24302  39.387  42.150  14.831
57762W        W24303   2.485  24.114  11.098
57763W        W24304  17.247  29.675  12.060
57764W        W24305  16.645   4.635  11.069
57765W        W24306  34.936  18.125   0.255
57766W        W24307  42.874   7.222   4.690
57767W        W24308  42.782  36.168   5.013
57768W        W24309  23.988  17.212  13.866
57769W        W24310  40.924  33.270  12.441
57770W        W24311  11.869  23.549  14.476
57771W        W24312   8.171  28.548   2.444
57772W        W24313  17.541  39.116   3.694
57773W        W24314  14.657  34.007   3.796
57774W        W24315   3.337  18.211  14.267
57775W        W24316  25.382   8.195  11.425
57776W        W24317  10.337  18.736  11.070
57777W        W24318   6.590  37.285   3.745
57778W        W24319   7.416  12.870  14.416
57779W        W24320  42.344  19.459  13.648
57780W        W24321   4.898  13.094  11.162
57781W        W24322  21.052  35.517   2.848
57782W        W24323  22.017  18.859   4.555
57783W        W24324  44.275  24.602   2.696
57784W        W24325  34.086  41.034  11.251
57785W        W24326   4.750   7.081   1.442
57786W        W24327  32.467  16.718   1.480
57787W        W24328   1.244   6.150  14.071
57788W        W24329  41.299  34.482  12.848
57789W        W24330  10.697  26.769   4.165
57790W        W24331  30.449   4.796   3.995
57791W        W24332  32.016  15.823  14.022
57792W        W24333  43.763  39.341  10.510
57793W        W24334  31.226  33.804  13.296
57794W        W24335  14.578   0.444  13.944
57795W        W24336  41.863   5.177   2.044
57796W        W24337   0.944   5.824  13.442
57797W        W24338   2.983  44.432   1.883
57798W        W24339   4.916  43.428  13.831
57799W        W24340  17.811  37.995   2.883
57800W        W24341  17.535  11.677  13.125
57801W        W24342  16.807  33.351  11.565
57802W        W24343  28.335   9.746  10.663
57803W        W24344  30.457  34.979  12.512
57804W        W24345  21.006  22.124   3.162
57805W        W24346  39.224   9.300  14.423
57806W        W24347  22.472  23.575  11.522
57807W        W24348  39.759  40.251  12.568
57808W        W24349  19.788  18.873   5.203
57809W        W24350  34.165  22.525  14.522
57810W        W24351  26.958  13.231   3.001
57811W        W24352  30.205  29.697  13.968
57812W        W24353  40.825  32.574   0.495
57813W        W24354  36.339  12.770   2.440
57814W        W24355  20.599  32.542   2.145
57815W        W24356   2.537  43.767  12.957
57816W        W24357  28.082  17.183  14.902
57817W        W24358  20.568   5.131  14.333
57818W        W24359  10.226  22.732  14.010
57819W        W24360  21.186  17.830  13.068
57820W        W24361  30.912  44.325  14.458
57821W        W24362  23.525  28.114  12.219
57822W        W24363  29.713   1.728   2.139
57823W        W24364  35.554  34.970   1.393
57824W        W24365   6.680   1.244   1.751
57825W        W24366  20.172  43.326   2.695
57826W        W24367   3.337   5.163  10.202
57827W        W24368  34.887  36.626   2.983
57828W        W24369  34.006  34.775  14.455
57829W        W24370  23.963   6.875   2.241
57830W        W24371  19.145   6.539   0.296
57831W        W24372  20.685  19.267  14.993
57832W        W24373   2.552  13.169   3.634
57833W        W24374   7.352   4.794  10.698
57834W        W24375  42.715   6.390   0.376
57835W        W24376  22.771  20.585   0.813
57836W        W24377   1.655   6.919  11.184
57837W        W24378  40.232  40.731  12.794
57838W        W24379  17.087  41.744   3.290
57839W        W24380  32.905  22.598  10.510
57840W        W24381  41.797   4.304   2.352
57841W        W24382  38.630  18.334   2.741
57842W        W24383  17.024  11.315  14.371
57843W        W24384  28.923  42.439   1.220
57844W        W24385  16.620   2.214   1.843
57845W        W24386  25.976   6.348   0.539
57846W        W24387  26.278  26.532   0.746
57847W        W24388   6.939  44.746  13.728
57848W        W24389  12.415  37.823  11.142
57849W        W24390  24.173  38.907   5.486
57850W        W24391  36.715   1.151   0.165
57851W        W24392  37.560  21.472  12.776
57852W        W24393  36.175  32.357  12.983
57853W        W24394  12.780   7.411   3.221
57854W        W24395  37.361  25.301  10.861
57855W        W24396  28.473  42.838   2.345
57856W        W24397  12.776  13.394   1.299
57857W        W24398  37.532  17.539   3.040
57858W        W24399  15.576  28.904  12.476
57859W        W24400  32.955  32.048  13.821
57860W        W24401  19.103   1.432   4.313
57861W        W24402  19.587  14.804  11.140
57862W        W24403  36.936   6.353   1.237
57863W        W24404  10.194   7.401   2.290
57864W        W24405  20.690  18.862  10.917
57865W        W24406   5.367   7.439   0.444
57866W        W24407   3.042  19.570   3.663
57867W        W24408  37.064  18.172   4.587
57868W        W24409   4.488   4.015  12.862
57869W        W24410  31.225  40.953   1.440
57870W        W24411  38.555  13.185  12.174
57871W        W24412  42.010  27.947   3.594
57872W        W24413  12.256  34.859  12.839
57873W        W24414  31.186  26.048  13.933
57874W        W24415   6.762  43.128  10.423
57875W        W24416  15.856  16.458   1.342
57876W        W24417   0.457  35.031  13.130
57877W        W24418  31.935  43.962   1.399
57878W        W24419  31.118  14.779  14.656
57879W        W24420   5.249  36.062   4.649
57880W        W24421  34.977  13.124   3.648
57881W        W24422  41.815  37.805  13.013
57882W        W24423  19.067   5.281  14.561
57883W        W24424   2.192   0.775   1.841
57884W        W24425  32.613  15.813   1.896
57885W        W24426  40.903  15.196   2.849
57886W        W24427  24.124  34.536  10.838
57887W        W24428  40.490  39.704  12.954
57888W        W24429  19.658  20.590   2.856
57889W        W24430  43.723  33.723  11.811
57890W        W24431  39.337  42.187  11.156
57891W        W24432  39.481   7.644   1.810
57892W        W24433  33.078  12.385   3.751
57893W        W24434   0.420  19.778  14.257
57894W        W24435  24.259  22.508  11.847
57895W        W24436  30.720  16.257  13.794
57896W        W24437  40.528   5.377   0.864
57897W        W24438  12.028   3.415  10.738
57898W        W24439  10.743  42.034   3.665
57899W        W24440  32.900   5.120   1.463
57900W        W24441  31.211  15.883   5.132
57901W        W24442   5.289  44.928   1.705
57902W        W24443  39.494  41.079  12.104
57903W        W24444   7.854  34.905   2.364
57904W        W24445  32.047  24.204   1.218
57905W        W24446  15.791  16.646  10.399
57906W        W24447  31.510  22.458  13.298
57907W        W24448   7.568  33.521  10.662
57908W        W24449   9.078  26.287  11.161
57909W        W24450  38.637  32.021  12.814
57910W        W24451  18.617  43.234  11.637
57911W        W24452  18.805  40.902   0.540
57912W        W24453   4.895  28.480   2.831
57913W        W24454  19.025   7.062   1.452
57914W        W24455  22.308  17.798   0.073
57915W        W24456  40.824  26.002  13.869
57916W        W24457   4.882   8.388  12.518
57917W        W24458  20.673   1.865  13.596
57918W        W24459  34.662  36.839   0.760
57919W        W24460  19.775  26.520   0.846
57920W        W24461   8.359  14.666  13.805
57921W        W24462  38.388  21.063   4.457
57922W        W24463  14.382  14.248  13.119
57923W        W24464  26.449  12.827   4.042
57924W        W24465  13.722   5.327   2.570
57925W        W24466  29.786  28.554  14.884
57926W        W24467   6.188  38.210  14.458
57927W        W24468  33.117  42.038  11.378
57928W        W24469   2.984  41.332   4.657
57929W        W24470  25.043  29.876   0.864
57930W        W24471  34.639   3.937  11.890
57931W        W24472  27.554  38.414   3.076
57932W        W24473  38.885  39.636   2.207
57933W        W24474  39.486  10.822  12.784
57934W        W24475   0.921  35.907  12.876
57935W        W24476  12.565  44.977  11.551
57936W        W24477  15.700  17.671   0.761
57937W        W24478  15.247   6.847  13.984
57938W        W24479   6.831  30.525   0.959
57939W        W24480   9.098  24.512  12.897
57940W        W24481   4.773  12.865   4.572
57941W        W24482  10.317  43.825  14.475
57942W        W24483   1.114  41.183   2.695
57943W        W24484  39.339   5.638  12.327
57944W        W24485  36.774  42.075  10.985
57945W        W24486   5.487  36.438   1.638
57946W        W24487  23.292   5.435  14.006
57947W        W24488  34.652  32.304   1.990
57948W        W24489   0.135  44.236  11.122
57949W        W24490  14.227   5.470  14.029
57950W        W24491   9.798   7.510   1.126
57951W        W24492  22.646  38.386   0.763
57952W        W24493  30.479  30.003  14.330
57953W        W24494  23.929  11.863  14.408
57954W        W24495   7.164  31.845  13.015
57955W        W24496   7.942   0.247  14.688
57956W        W24497  25.154  44.053  12.394
57957W        W24498  28.489  13.312  12.629
57958W        W24499  28.683  12.355  12.891
57959W        W24500   4.012  34.366  11.077
57960W        W24501  44.388  33.499   3.242
57961W        W24502  21.101  22.697   5.132
57962W        W24503   5.156   6.897   4.543
57963W        W24504  38.134  39.539   0.542
57964W        W24505  13.763  32.330   4.509
57965W        W24506  35.119   2.854  11.254
57966W        W24507  24.320   1.905   2.296
57967W        W24508   2.913  14.759   2.290
57968W        W24509  20.999  20.209  12.616
57969W        W24510  31.882  18.501   4.575
57970W        W24511  18.035   6.142   2.804
57971W        W24512  42.404  39.857  11.715
57972W        W24513  43.338  43.583   0.478
57973W        W24514  38.144  10.706  10.689
57974W        W24515  36.444   2.787   9.837
57975W        W24516  15.681  16.173   2.890
57976W        W24517  20.631  25.285   1.476
57977W        W24518  31.725  32.967   1.752
57978W        W24519  29.436   2.140   1.897
57979W        W24520  16.018   3.841   3.230
57980W        W24521   4.139  39.822   1.252
57981W        W24522  42.367  22.409  11.970
57982W        W24523  28.001  23.423  13.288
57983W        W24524  35.616  12.923  13.467
57984W        W24525  22.364  32.980   4.963
57985W        W24526   1.402  19.212   0.284
57986W        W24527  30.889   1.697  14.391
57987W        W24528  27.309  23.693   1.180
57988W        W24529  25.184   0.180   1.486
57989W        W24530  28.442   7.580   0.433
57990W        W24531   0.433  25.930  14.310
57991W        W24532  16.344  33.941   3.223
57992W        W24533  43.771   6.541  12.434
57993W        W24534  27.333   4.922  13.533
57994W        W24535  35.638   6.868   2.957
57995W        W24536  15.542  17.667  12.361
57996W        W24537  28.212  42.401   2.432
57997W        W24538  22.180  28.264   4.427
57998W        W24539  24.984   0.553  11.265
57999W        W24540  17.855   0.741   3.658
58000W        W24541   5.646  43.493   2.463
58001W        W24542   0.736  35.209  14.781
58002W        W24543  20.701  26.223  13.458
58003W        W24544  32.854  41.982   2.009
58004W        W24545  19.177  41.698  13.509
58005W        W24546  33.774   3.126  14.820
58006W        W24547  42.644  17.819   0.915
58007W        W24548   7.717  12.896  13.896
58008W        W24549   8.273  32.805   0.862
58009W        W24550  44.955  14.331   4.571
58010W        W24551  38.496  13.708  13.842
58011W        W24552   0.477  20.752   1.284
58012W        W24553   1.863  10.705  13.441
58013W        W24554  30.983  44.667   3.331
58014W        W24555  11.067  12.804  14.527
58015W        W24556  40.821  16.777  10.660
58016W        W24557  20.534  21.614  10.909
58017W        W24558  28.307  30.503  12.976
58018W        W24559  31.218  18.154   2.833
58019W        W24560  29.866  24.785  12.066
58020W        W24561  21.013  28.160   2.873
58021W        W24562  14.229  34.129  14.717
58022W        W24563  42.032  17.604   3.677
58023W        W24564  21.512  26.948  11.582
58024W        W24565  21.744  33.652   3.284
58025W        W24566  36.717  10.055   1.379
58026W        W24567  25.977   2.076  14.250
58027W        W24568  25.214   3.104  12.405
58028W        W24569  36.075  28.802   2.735
58029W        W24570  30.374   6.340  14.535
58030W        W24571  37.925   0.296  10.636
58031W        W24572   6.131   6.959  11.194
58032W        W24573   4.761  19.404  11.973
58033W        W24574  26.960   6.151   0.429
58034W        W24575  40.393  13.352   1.233
58035W        W24576  44.268  33.222   2.143
58036W        W24577  17.554  28.570   0.957
58037W        W24578   8.249  22.455  12.009
58038W        W24579  43.302  29.920  12.470
58039W        W24580   0.221  20.021   0.418
58040W        W24581   4.406   0.066   2.190
58041W        W24582   9.903  43.338   0.732
58042W        W24583   2.709  30.433  12.045
58043W        W24584  12.705  44.967   1.913
58044W        W24585  43.266  40.492   0.494
58045W        W24586   7.675  10.450   2.787
58046W        W24587  38.204  23.873   3.638
58047W        W24588  40.878  25.597   5.024
58048W        W24589  18.818   0.749   2.152
58049W        W24590  12.300  26.114   0.906
58050W        W24591   3.502  21.660  13.790
58051W        W24592  25.894  30.551  11.081
58052W        W24593  20.842  35.120   3.799
58053W        W24594  44.862  41.766  13.471
58054W        W24595  31.172  22.442  12.373
58055W        W24596  24.804  18.373  12.419
58056W        W24597  17.641   9.354  12.519
58057W        W24598  34.913  24.080   4.281
58058W        W24599   5.558  34.522   5.006
58059W        W24600  12.186  21.643   0.854
58060W        W24601  31.494  42.642  13.825
58061W        W24602   5.425  30.917   1.674
58062W        W24603  17.717  18.992  13.352
58063W        W24604  20.761   3.338   4.110
58064W        W24605   6.327  31.392  11.491
58065W        W24606  12.881  28.854  12.030
58066W        W24607   5.433  35.433  11.529
58067W        W24608   2.129  29.128   1.981
58068W        W24609  16.126  19.670   0.837
58069W        W24610  39.325   9.262   0.830
58070W        W24611  28.197  14.558  14.830
58071W        W24612  39.911   9.691   4.576
58072W        W24613  25.526  33.330  11.187
58073W        W24614  18.046   9.722  11.668
58074W        W24615  31.450  21.317  12.683
58075W        W24616  42.383   4.471  10.614
58076W        W24617  15.229  18.505   3.576
58077W        W24618  34.021  26.204  12.144
58078W        W24619  36.891  42.308  14.281
58079W        W24620   1.192  40.057  13.978
58080W        W24621  17.473  25.963  13.922
58081W        W24622  23.254   4.303  12.990
58082W        W24623   9.150   6.745  12.350
58083W        W24624  39.927  33.167  13.441
58084W        W24625   6.105  33.310  10.544
58085W        W24626  37.571  43.673   2.412
58086W        W24627   2.759   2.628   9.465
58087W        W24628  31.692   5.274  13.019
58088W        W24629  28.707  24.008  14.067
58089W        W24630  27.556  28.608   2.836
58090W        W24631   9.297  43.781   2.720
58091W        W24632  11.773  37.333   0.435
58092W        W24633  15.405  15.776  11.934
58093W        W24634   5.399  35.519   1.215
58094W        W24635   7.327  11.365   3.382
58095W        W24636   2.358  30.096   4.957
58096W        W24637   8.716   7.130  14.888
58097W        W24638   1.221  27.734   3.719
58098W        W24639  20.045   8.325   0.347
58099W        W24640  17.496  22.201   4.142
58100W        W24641   1.304   4.039  12.999
58101W        W24642   8.246  13.729   1.125
58102W        W24643  31.384  24.467   2.261
58103W        W24644  25.950  34.196   0.905
58104W        W24645   4.910  24.984  13.914
58105W        W24646   5.397  12.706  10.736
58106W        W24647  42.968  15.787  11.099
58107W        W24648  41.479  17.984  10.461
58108W        W24649  33.950  39.281   3.863
58109W        W24650  15.297  42.033   4.265
58110W        W24651  17.616  42.082  12.219
58111W        W24652  38.824  37.484   4.482
58112W        W24653  35.429  10.356   2.723
58113W        W24654  24.690  40.579   4.543
58114W        W24655  42.716  33.129  14.378
58115W        W24656  43.101  30.234   2.423
58116W        W24657  19.948  30.305  12.670
58117W        W24658  38.363  29.641  14.347
58118W        W24659  23.618  15.670  14.310
58119W        W24660  28.668  30.787   0.714
58120W        W24661  21.870  42.876   3.377
58121W        W24662   5.995  19.114  14.541
58122W        W24663  31.679  27.468  13.443
58123W        W24664  38.867  40.986   4.194
58124W        W24665  20.205   2.891  11.920
58125W        W24666  18.604   0.473  10.736
58126W        W24667  14.232  12.177  11.914
58127W        W24668  38.890  27.899   3.128
58128W        W24669  15.079  14.335   4.444
58129W        W24670  33.883  25.378  12.568
58130W        W24671  44.225   7.736   3.297
58131W        W24672   1.784  36.542  11.209
58132W        W24673   2.930  18.130   0.305
58133W        W24674  40.075  36.400  14.933
58134W        W24675  29.935  27.942  11.118
58135W        W24676  15.120  39.418   2.677
58136W        W24677  26.452  34.533  10.900
58137W        W24678  43.241  22.705  12.985
58138W        W24679   1.894   8.369  10.813
58139W        W24680  27.817   4.496   3.302
58140W        W24681  17.214  25.900   0.390
58141W        W24682  19.684  21.491   4.189
58142W        W24683  41.737  29.221   3.407
58143W        W24684  15.568  34.844   4.916
58144W        W24685   8.037  13.209   2.451
58145W        W24686   0.187  28.909   2.591
58146W        W24687   7.180  41.940   1.284
58147W        W24688  30.367  10.227  11.617
58148W        W24689   6.209  30.455   4.233
58149W        W24690  35.407  17.511  10.515
58150W        W24691  35.571   7.400   3.023
58151W        W24692  30.633  36.040   4.867
58152W        W24693  14.219  25.050  12.110
58153W        W24694  11.541   1.335   3.223
58154W        W24695  43.190   4.209  10.937
58155W        W24696   9.952  22.237   3.364
58156W        W24697  29.544  29.850  13.855
58157W        W24698  18.821  12.376  11.164
58158W        W24699   6.950   7.419   2.248
58159W        W24700   6.338  31.603   3.310
58160W        W24701   7.983  18.274   0.015
58161W        W24702   0.015  40.472   1.883
58162W        W24703  13.877  15.187  14.791
58163W        W24704  19.200   2.296   2.885
58164W        W24705   4.198   5.720   1.395
58165W        W24706   6.070  31.667   0.128
58166W        W24707  39.058  32.998   0.431
58167W        W24708  11.676  27.678  11.155
58168W        W24709  35.869   0.593  13.301
58169W        W24710  11.759  19.964  11.220
58170W        W24711  41.085   7.854   1.905
58171W        W24712  39.378  22.543   3.292
58172W        W24713  34.320  31.566   4.169
58173W        W24714   7.351  24.112  11.977
58174W        W24715  26.420   4.288  10.783
58175W        W24716   3.785  29.718   2.097
58176W        W24717  30.502  41.791  14.037
58177W        W24718  42.906  27.901  10.903
58178W        W24719  17.825  12.088  13.051
58179W        W24720   2.968  20.170   4.353
58180W        W24721  26.969  36.234   1.936
58181W        W24722  15.278  22.658  11.129
58182W        W24723  37.430  24.204   4.413
58183W        W24724   3.186   5.002  12.139
58184W        W24725  40.289  39.240   2.789
58185W        W24726  24.985  30.995   4.594
58186W        W24727  33.446  37.282  10.817
58187W        W24728  39.282  30.997   4.251
58188W        W24729  33.910  43.943  12.467
58189W        W24730  37.276  20.167  13.487
58190W        W24731  19.693  31.004   4.053
58191W        W24732  16.114   4.104   0.688
58192W        W24733  37.902  11.785   2.887
58193W        W24734  13.004  35.721   2.429
58194W        W24735  18.921  10.537  11.012
58195W        W24736  24.211  28.774   0.379
58196W        W24737  18.850   3.938   1.657
58197W        W24738  18.620  16.104  10.290
58198W        W24739  38.065  37.016  14.201
58199W        W24740  18.241  26.938  13.218
58200W        W24741  23.480  26.722   0.067
58201W        W24742  23.913  25.138  12.702
58202W        W24743   6.836  27.701  14.724
58203W        W24744  20.865  39.346  11.180
58204W        W24745  12.216  24.706   4.210
58205W        W24746  19.198  18.632  10.697
58206W        W24747   4.180  18.531  12.476
58207W        W24748  37.367  38.449   2.416
58208W        W24749   5.820  43.739   4.137
58209W        W24750   9.831   5.975   3.801
58210W        W24751  23.259  36.897  12.463
58211W        W24752  18.624  41.074  13.179
58212W        W24753  39.200   8.921  11.723
58213W        W24754  33.380   2.795  14.854
58214W        W24755  19.805  16.031  14.399
58215W        W24756  44.602  29.394  14.373
58216W        W24757  10.672   9.461  10.827
58217W        W24758  26.931   8.417   4.990
58218W        W24759  33.611  27.923   3.651
58219W        W24760  44.372   7.679   1.908
58220W        W24761  30.075  11.040   0.666
58221W        W24762  43.767  22.687   3.139
58222W        W24763  15.621  43.844   4.591
58223W        W24764  27.043  30.844  11.359
58224W        W24765   8.302  43.821  10.919
58225W        W24766  34.154  14.084  12.892
58226W        W24767   1.408  10.698  13.181
58227W        W24768   3.725   4.257   2.380
58228W        W24769  13.065  21.162   0.139
58229W        W24770   9.113  19.251   1.694
58230W        W24771  34.094  34.080   1.296
58231W        W24772  38.269  42.953  11.049
58232W        W24773  25.114  28.738  10.987
58233W        W24774   2.373   2.914   0.287
58234W        W24775  34.074  15.905  11.823
58235W        W24776  22.130   0.790   2.168
58236W        W24777  14.065  11.157   0.629
58237W        W24778   2.536  36.145  11.590
58238W        W24779  17.066  17.732   3.443
58239W        W24780  12.210  34.882   1.399
58240W        W24781  22.474  40.525   1.918
58241W        W24782  11.121  30.243   0.486
58242W        W24783   7.897   8.440   1.425
58243W        W24784  13.673  42.516  10.939
58244W        W24785   9.902   0.794  14.978
58245W        W24786  16.351   1.868   3.925
58246W        W24787  43.965  29.189  11.106
58247W        W24788  44.716  15.339   4.100
58248W        W24789  42.567  38.263  14.813
58249W        W24790  38.057  32.917  11.534
58250W        W24791   3.349  26.792  10.772
58251W        W24792  42.824  41.033   3.116
58252W        W24793  11.745  11.682  12.582
58253W        W24794   1.500  28.660   2.133
58254W        W24795  18.773  41.898   2.761
58255W        W24796  30.337  28.659   0.967
58256W        W24797  10.404  21.948   3.320
58257W        W24798  41.980   5.283  10.966
58258W        W24799  17.596   0.387  10.935
58259W        W24800  29.101  29.957   1.206
58260W        W24801  33.592  36.671   3.219
58261W        W24802  32.006  11.986  10.211
58262W        W24803  12.116  11.262  14.499
58263W        W24804  39.504  32.061   2.290
58264W        W24805  23.564  32.544   3.028
58265W        W24806  34.277  21.154  13.551
58266W        W24807  19.066   0.435  14.925
58267W        W24808  42.096   9.275  14.895
58268W        W24809  43.272  39.463   0.022
58269W        W24810   5.723  28.139  10.679
58270W        W24811   1.751  27.780   2.427
58271W        W24812  41.566   3.813   1.820
58272W        W24813   4.607  25.135   3.988
58273W        W24814   4.630  30.505   0.401
58274W        W24815  29.101  29.886  14.525
58275W        W24816  14.394  29.966   1.406
58276W        W24817  33.007  17.282   2.706
58277W        W24818   4.893  36.413   0.790
58278W        W24819  13.692  36.379  12.503
58279W        W24820  41.839  37.704   1.386
58280W        W24821  15.379   2.840  13.562
58281W        W24822  13.151   2.724   1.228
58282W        W24823  16.506   5.749  11.345
58283W        W24824  34.714  19.287   0.767
58284W        W24825  20.217  28.455  13.109
58285W        W24826  34.327  22.559   2.419
58286W        W24827  32.016  41.582  10.316
58287W        W24828  15.725  28.109   1.681
58288W        W24829  36.992  38.503   4.681
58289W        W24830  12.547   9.762  11.143
58290W        W24831  40.469  39.230  13.130
58291W        W24832   2.162  40.255  13.531
58292W        W24833  31.428  21.700   1.062
58293W        W24834  28.749  17.911  11.373
58294W        W24835  18.173  23.727   2.810
58295W        W24836  41.546  31.563   0.440
58296W        W24837   4.114  30.015   0.752
58297W        W24838  27.164  23.004   3.653
58298W        W24839  17.744  43.307   4.513
58299W        W24840  33.556   0.943   5.357
58300W        W24841  14.033  31.306  14.449
58301W        W24842  34.968  22.948  13.340
58302W        W24843  16.565  14.338  13.910
58303W        W24844  40.783  30.082  14.918
58304W        W24845  18.012   7.751  13.835
58305W        W24846  37.488   0.339  11.890
58306W        W24847  14.321  39.978  14.757
58307W        W24848  16.725  19.216   0.548
58308W        W24849   4.058  13.391   0.829
58309W        W24850   4.805  10.694  12.160
58310W        W24851  27.664  30.053  14.778
58311W        W24852  33.027  12.021   1.497
58312W        W24853  30.583  16.275   5.082
58313W        W24854   0.430  28.069   2.456
58314W        W24855   9.195  25.776  12.484
58315W        W24856  21.743  14.217   4.173
58316W        W24857  42.872  34.473  14.872
58317W        W24858  25.981  33.766   4.038
58318W        W24859  15.125  20.754   3.537
58319W        W24860  42.310  34.589  11.488
58320W        W24861  21.742  30.856  14.493
58321W        W24862  26.043   7.687   2.295
58322W        W24863  14.251  35.423   0.393
58323W        W24864  13.565  30.892  11.606
58324W        W24865  20.268  37.394  11.550
58325W        W24866  36.381  34.538  10.838
58326W        W24867  19.849   3.367  13.671
58327W        W24868  36.054  38.877  10.710
58328W        W24869  32.856   6.465  10.259
58329W        W24870  14.023   3.888   0.282
58330W        W24871  34.819  35.738  12.998
58331W        W24872  33.908  11.149  13.995
58332W        W24873  25.590  29.430  13.101
58333W        W24874  44.456  42.807   4.052
58334W        W24875   6.182  21.620   4.572
58335W        W24876   5.350  13.355  11.158
58336W        W24877  40.066  12.688   3.569
58337W        W24878  28.906  18.584  12.087
58338W        W24879  16.095  11.105   0.485
58339W        W24880  22.317   5.400  11.161
58340W        W24881  44.131  34.554   0.350
58341W        W24882  34.166   6.610  10.526
58342W        W24883  24.441  13.372  11.078
58343W        W24884  34.160  40.691   3.223
58344W        W24885   9.324  13.079   1.926
58345W        W24886  42.442   9.407   3.073
58346W        W24887  25.081   6.924   0.729
58347W        W24888   9.181  40.818   4.054
58348W        W24889  28.329  18.747   0.823
58349W        W24890   0.261  31.689   3.566
58350W        W24891  35.823  17.054  12.057
58351W        W24892  39.630  24.956  12.138
58352W        W24893  29.110  35.326   2.105
58353W        W24894  21.601  43.789   4.187
58354W        W24895  29.741  33.468   0.815
58355W        W24896  11.370  30.943  11.732
58356W        W24897  12.171   1.325  14.860
58357W        W24898  34.582   3.286   3.184
58358W        W24899  32.985  24.621   3.138
58359W        W24900   9.913  15.675  12.554
58360W        W24901  16.862  10.710   2.772
58361W        W24902  15.076  23.979   1.337
58362W        W24903  26.724  16.054   3.639
58363W        W24904  10.458  24.523  14.439
58364W        W24905  17.184  16.106  13.830
58365W        W24906  15.375  23.070  11.977
58366W        W24907   6.191  27.102   0.593
58367W        W24908  38.660  43.323   3.234
58368W        W24909  15.790  34.163   2.351
58369W        W24910  17.547  34.545   2.541
58370W        W24911  41.436  31.359  10.696
58371W        W24912  39.100  22.227  13.848
58372W        W24913  23.578   6.959   3.922
58373W        W24914  14.061   2.011  14.734
58374W        W24915  19.297   9.645   1.250
58375W        W24916  17.130  34.901  13.518
58376W        W24917   6.932   6.726  13.566
58377W        W24918  30.356  39.390   3.299
58378W        W24919  16.522  35.663   0.075
58379W        W24920  37.905  24.398   4.317
58380W        W24921  40.929   7.261   3.726
58381W        W24922   8.929  17.762  12.856
58382W        W24923  27.630  41.748   0.399
58383W        W24924  19.368  28.606   0.370
58384W        W24925  30.264  38.871   4.425
58385W        W24926  41.834  15.376   2.367
58386W        W24927  40.114  17.893   3.584
58387W        W24928  37.061   1.416   2.021
58388W        W24929  26.268  33.481   0.155
58389W        W24930  12.740   4.377   4.619
58390W        W24931   3.360  17.083   0.419
58391W        W24932  14.167  38.008  12.051
58392W        W24933  32.653   6.700   1.761
58393W        W24934  37.020  35.733   3.380
58394W        W24935  25.522  14.674   1.283
58395W        W24936  14.446  34.320  10.715
58396W        W24937  22.122   0.094  14.491
58397W        W24938  42.338   1.322   1.245
58398W        W24939  43.441  18.646   3.134
58399W        W24940  32.474  23.677   2.847
58400W        W24941  23.153  17.986  11.106
58401W        W24942  38.402  44.853  13.863
58402W        W24943   3.875  35.894  14.444
58403W        W24944  41.254  21.627  14.537
58404W        W24945  33.921  43.677   0.702
58405W        W24946  21.737  39.546  11.016
58406W        W24947  37.707  38.419   0.021
58407W        W24948  18.772   5.090  13.709
58408W        W24949   1.799  30.415  10.732
58409W        W24950  26.592  39.021  10.300
58410W        W24951  41.486  38.513   0.446
58411W        W24952  29.986  26.679  10.586
58412W        W24953   2.333  21.428  12.435
58413W        W24954  16.619   9.240  11.667
58414W        W24955  42.902  40.818   3.587
58415W        W24956  36.128  25.112   1.879
58416W        W24957  24.554  20.303  11.597
58417W        W24958  28.402  14.834   3.127
58418W        W24959  39.398  38.110  12.317
58419W        W24960  10.368  32.043   4.662
58420W        W24961  14.160  40.984   0.966
58421W        W24962  20.454  19.837   1.914
58422W        W24963  35.336   7.150   1.736
58423W        W24964  10.402  38.106  11.327
58424W        W24965   7.774  36.090  14.295
58425W        W24966  12.345   4.923  14.452
58426W        W24967  10.777   7.731   4.583
58427W        W24968   8.883  43.683  13.892
58428W        W24969  32.638  19.664   0.645
58429W        W24970  41.513   5.950   1.735
58430W        W24971  24.055  30.081   2.745
58431W        W24972  18.610  17.373   2.186
58432W        W24973  27.633  18.489   0.362
58433W        W24974  39.800  23.353  10.659
58434W        W24975  42.126  14.423   4.302
58435W        W24976  39.422  13.103   0.974
58436W        W24977  13.161  33.457   1.879
58437W        W24978  35.896   8.645   3.199
58438W        W24979   2.527  33.167   5.039
58439W        W24980  28.822   4.405   2.363
58440W        W24981  27.212  29.872   3.182
58441W        W24982  42.975  26.024  14.497
58442W        W24983  25.126   8.822   0.813
58443W        W24984  25.496  18.665  14.499
58444W        W24985  40.546  11.327   4.657
58445W        W24986  11.544  17.320  11.370
58446W        W24987  39.279  10.221   1.081
58447W        W24988  39.501  31.971   0.514
58448W        W24989  27.611  11.091  14.417
58449W        W24990  31.722   4.308  13.606
58450W        W24991  40.002  34.636  11.127
58451W        W24992  37.403   5.950   4.315
58452W        W24993  26.089  23.474  14.027
58453W        W24994   4.896  31.601   3.081
58454W        W24995  17.754   8.275   1.561
58455W        W24996   9.620  21.538  14.437
58456W        W24997  15.404  29.263   0.234
58457W        W24998  44.773  22.954   1.330
58458W        W24999  41.131  32.848   1.241
58459W        W25000  17.279  41.530   4.572
58460W        W25001  26.744   9.265  13.823
58461W        W25002   3.992  15.897  12.119
58462W        W25003  27.654  12.531  14.902
58463W        W25004   1.451  15.752  11.211
58464W        W25005  37.701  16.185   4.093
58465W        W25006  14.990   2.767  12.658
58466W        W25007   6.719  22.507  12.979
58467W        W25008  29.053  15.750   4.683
58468W        W25009  40.115   9.361   3.426
58469W        W25010  14.355   5.299  11.512
58470W        W25011  20.958  23.297   2.786
58471W        W25012   5.679  38.687   1.546
58472W        W25013  28.446   9.131  13.946
58473W        W25014  20.653  43.064   2.701
58474W        W25015   3.772  24.562  11.702
58475W        W25016  32.618  31.956  12.351
58476W        W25017  30.050   2.847  11.149
58477W        W25018  31.804  16.001  13.533
58478W        W25019   3.442  37.617  13.347
58479W        W25020  13.316  26.964   0.395
58480W        W25021  13.669  21.957  14.553
58481W        W25022  27.007  23.321  14.614
58482W        W25023  29.150  19.744  13.553
58483W        W25024  28.208  35.472   4.114
58484W        W25025   7.661  40.486  10.681
58485W        W25026   1.915   3.895   4.786
58486W        W25027  31.467  13.414   2.235
58487W        W25028  33.327  23.495   2.841
58488W        W25029  11.617   9.085   0.280
58489W        W25030  24.623  14.337   0.412
58490W        W25031  32.817  14.689  11.674
58491W        W25032  27.889  43.841  12.983
58492W        W25033   3.685   1.205   4.911
58493W        W25034  32.110  26.946   0.426
58494W        W25035   8.270  32.130   2.280
58495W        W25036   6.857  19.119  12.470
58496W        W25037  37.650   3.699  12.450
58497W        W25038   9.066  11.897   2.302
58498W        W25039  15.037  16.130  10.750
58499W        W25040  13.323  38.977   4.222
58500W        W25041  24.788  36.328   0.775
58501W        W25042  24.984   2.890  13.715
58502W        W25043  36.403  31.438   4.858
58503W        W25044  44.460   8.718   3.732
58504W        W25045   1.786  30.816   3.545
58505W        W25046  15.701  19.777  11.150
58506W        W25047  33.658   0.928  13.314
58507W        W25048  38.935  35.532   4.683
58508W        W25049   0.885  16.394  11.524
58509W        W25050  35.791   4.968  11.234
58510W        W25051  35.993  25.941   0.657
58511W        W25052   3.633  10.482  11.098
58512W        W25053  30.259  30.298   4.248
58513W        W25054  38.984   1.239  13.400
58514W        W25055  32.824  37.682   1.862
58515W        W25056  40.502  43.861  11.160
58516W        W25057   1.955  33.888   2.175
58517W        W25058  10.882  39.789  13.809
58518W        W25059  37.439  21.629  13.768
58519W        W25060  17.043  28.964   4.568
58520W        W25061  36.111  12.135  11.517
58521W        W25062  29.248  11.051  13.486
58522W        W25063  41.780  33.874  12.616
58523W        W25064   6.669  13.045  11.152
58524W        W25065   0.827  13.380   2.626
58525W        W25066  33.035   7.696  13.616
58526W        W25067   7.720  31.466   4.279
58527W        W25068  10.660  41.533  14.712
58528W        W25069  36.059  10.452  14.753
58529W        W25070   8.250  15.204   1.749
58530W        W25071  19.552  37.116   1.104
58531W        W25072  29.932   3.996  13.858
58532W        W25073  33.570   4.009  10.257
58533W        W25074  22.493  15.171   0.479
58534W        W25075   9.689   0.884  13.424
58535W        W25076  16.378  26.011   2.978
58536W        W25077  20.196  36.317  12.473
58537W        W25078  40.932  39.381  12.950
58538W        W25079  17.081  35.418  13.098
58539W        W25080   8.743  24.793  11.994
58540W        W25081  41.529  31.975  12.511
58541W        W25082  27.499   7.456   4.585
58542W        W25083  18.075  44.964   1.727
58543W        W25084  15.070  40.959   0.725
58544W        W25085  24.259   1.580  14.895
58545W        W25086  41.459  40.248   5.023
58546W        W25087  37.334  37.767   1.326
58547W        W25088  35.212  36.514   4.776
58548W        W25089  39.837  32.668  13.332
58549W        W25090  34.879   5.753  11.188
58550W        W25091  18.075   5.176   2.918
58551W        W25092  32.866  19.508  11.661
58552W        W25093  28.614   6.154  13.712
58553W        W25094  10.953  12.009  13.965
58554W        W25095   9.259  15.824   4.119
58555W        W25096  25.392   8.564   3.726
58556W        W25097  40.578  21.084  14.705
58557W        W25098  37.712  39.517   0.864
58558W        W25099  22.187  16.665  10.723
58559W        W25100  24.649  27.821  12.994
58560W        W25101  29.485  21.233   4.244
58561W        W25102  31.263   0.468   0.320
58562W        W25103  32.110  33.092  14.039
58563W        W25104  36.477  35.859  12.606
58564W        W25105   1.202   5.277  13.391
58565W        W25106  33.460  21.217   3.203
58566W        W25107  10.925  34.525   4.800
58567W        W25108  12.443  34.420   1.356
58568W        W25109  34.172   2.891   0.039
58569W        W25110  37.365  39.476  13.893
58570W        W25111   6.414   1.536   5.133
58571W        W25112  39.566  10.614  10.386
58572W        W25113   6.529  26.778  13.932
58573W        W25114  26.611  16.055  11.599
58574W        W25115  27.135  23.857   4.149
58575W        W25116  15.637  12.208  10.691
58576W        W25117  21.064  26.617   2.582
58577W        W25118  32.266  42.864   3.194
58578W        W25119  18.990  35.808   2.811
58579W        W25120  10.393  25.862   2.281
58580W        W25121  11.376  37.067  13.538
58581W        W25122  18.127  12.246  14.894
58582W        W25123  31.787  41.519  14.148
58583W        W25124  22.974  12.388  14.944
58584W        W25125  33.712  11.299  10.388
58585W        W25126  24.283  10.320   2.796
58586W        W25127  20.590  35.426  13.077
58587W        W25128  18.295  27.434  14.329
58588W        W25129  20.357  34.051   2.314
58589W        W25130  35.065  38.378   1.450
58590W        W25131  40.025   7.384   4.697
58591W        W25132  44.766   1.469  13.035
58592W        W25133  26.474  24.395  12.869
58593W        W25134  19.655  18.362   5.065
58594W        W25135  30.676   2.977   0.575
58595W        W25136   6.655   4.710  12.130
58596W        W25137  22.826   1.640   4.444
58597W        W25138  26.680  27.565   3.310
58598W        W25139   2.106  20.143  12.067
58599W        W25140   0.313  13.805  12.070
58600W        W25141  28.179   0.669  13.337
58601W        W25142  17.173  34.062   4.600
58602W        W25143   6.527  15.174   1.760
58603W        W25144  42.075  19.302   4.486
58604W        W25145   8.948  36.924   1.795
58605W        W25146  18.077  15.595   0.419
58606W        W25147  33.447  19.742  11.977
58607W        W25148  44.022  27.463  11.555
58608W        W25149   9.331  20.114   1.889
58609W        W25150  28.140  31.447   4.970
58610W        W25151  18.052  39.040  12.527
58611W        W25152  43.916  22.278   0.698
58612W        W25153   7.122  28.167   0.474
58613W        W25154   4.548  14.358  11.713
58614W        W25155  28.085   7.506   5.386
58615W        W25156  11.706  43.220  14.373
58616W        W25157  32.587  33.066  14.313
58617W        W25158  29.463   8.464  14.967
58618W        W25159  20.390  41.853   2.149
58619W        W25160  17.674  10.423  10.849
58620W        W25161  26.392  43.948  12.952
58621W        W25162  38.009  24.644   2.523
58622W        W25163   7.328  14.840  11.555
58623W        W25164  35.455  11.269  12.359
58624W        W25165  25.899  15.532   1.757
58625W        W25166  36.305  13.306   3.716
58626W        W25167  41.660  41.224   5.101
58627W        W25168  32.108  36.961   3.389
58628W        W25169  38.820  34.291  14.979
58629W        W25170  17.126  36.294   2.747
58630W        W25171  10.447  41.456   3.267
58631W        W25172  24.368  30.189  14.455
58632W        W25173  23.751  37.781  11.202
58633W        W25174   4.546  31.421   4.526
58634W        W25175  29.112  19.373   3.265
58635W        W25176  42.941  21.007  10.387
58636W        W25177  25.254  37.203  11.998
58637W        W25178   2.247  41.884   3.291
58638W        W25179  11.774  31.995   5.071
58639W        W25180  16.668  26.616   3.436
58640W        W25181  15.451   4.261  12.402
58641W        W25182   3.180   6.647   3.812
58642W        W25183  22.166  10.229  10.922
58643W        W25184  40.575  37.546  10.919
58644W        W25185  16.881  17.052  11.373
58645W        W25186  38.320  34.272   4.523
58646W        W25187  11.291  16.894  13.886
58647W        W25188   4.214  26.627   9.962
58648W        W25189   7.072  35.630  12.294
58649W        W25190   5.643  17.244   4.233
58650W        W25191   7.687  22.642  14.876
58651W        W25192  34.154  26.580   3.603
58652W        W25193  34.869  14.862   4.659
58653W        W25194  11.565  15.653   1.203
58654W        W25195  12.769  27.526   4.841
58655W        W25196  31.423  27.045   2.883
58656W        W25197  37.793  42.638  12.863
58657W        W25198  20.305   8.187  13.548
58658W        W25199  42.949  13.554  13.441
58659W        W25200  15.721  15.878  14.934
58660W        W25201   5.134  21.684  10.774
58661W        W25202  18.710  12.427   2.163
58662W        W25203  12.194   5.302  11.823
58663W        W25204  22.684  16.052  11.980
58664W        W25205  43.951  14.652  12.534
58665W        W25206   2.493   9.856   3.803
58666W        W25207  16.613  36.367  12.051
58667W        W25208  38.971  14.679   1.159
58668W        W25209   2.290  29.050   3.739
58669W        W25210  25.232  28.786  14.487
58670W        W25211  30.022  33.507  10.447
58671W        W25212  38.023  19.085   2.872
58672W        W25213  41.542  14.517  13.036
58673W        W25214   4.015  23.136   5.480
58674W        W25215   0.430  35.681  11.617
58675W        W25216  11.396  17.304   4.234
58676W        W25217  13.585  24.463  14.928
58677W        W25218  28.560   1.475  12.972
58678W        W25219  37.351  12.941   1.970
58679W        W25220  19.158  19.518   2.204
58680W        W25221  14.470  25.743   0.925
58681W        W25222  36.417  19.184   0.986
58682W        W25223  39.651  10.179  10.085
58683W        W25224   4.647  29.419  14.613
58684W        W25225  38.845   7.895  14.964
58685W        W25226  38.479   8.277   0.177
58686W        W25227  11.733   9.241  11.927
58687W        W25228  22.479   0.761   4.572
58688W        W25229  32.134  34.333   0.191
58689W        W25230  14.318   9.270  14.904
58690W        W25231  36.060  11.343   3.109
58691W        W25232  23.529  41.916  12.550
58692W        W25233  18.085  33.460   4.687
58693W        W25234  20.595  10.737  10.452
58694W        W25235  21.506  25.225  13.556
58695W        W25236  27.806  26.231  13.962
58696W        W25237  13.290   0.955  11.482
58697W        W25238  41.500   6.167   0.716
58698W        W25239  15.240   8.957   1.470
58699W        W25240  31.500  44.343  14.418
58700W        W25241  15.581  29.116   1.054
58701W        W25242   7.465   3.958   0.002
58702W        W25243  38.923  33.296  12.461
58703W        W25244  27.335   7.925   4.787
58704W        W25245   3.432  44.626   3.081
58705W        W25246  23.001  18.715   2.701
58706W        W25247  17.141  26.705  13.749
58707W        W25248  31.501   6.952  11.356
58708W        W25249  33.022   7.851   3.785
58709W        W25250  21.535  32.718  10.539
58710W        W25251   3.051  42.929   0.478
58711W        W25252   0.029  20.841  13.798
58712W        W25253  20.324  40.943  14.004
58713W        W25254  28.771   6.798   2.723
58714W        W25255  41.875  34.185  14.828
58715W        W25256  23.463   1.334   2.345
58716W        W25257  16.269  38.814   1.806
58717W        W25258  13.563  34.394  10.913
58718W        W25259  32.061   1.382   4.791
58719W        W25260  33.082  42.309   4.599
58720W        W25261  36.822  11.220  11.046
58721W        W25262   2.983   7.702   0.425
58722W        W25263  39.346  16.320  14.841
58723W        W25264  37.971   4.481  14.892
58724W        W25265  38.967  22.901   5.136
58725W        W25266  12.892  10.174  12.550
58726W        W25267  35.523  38.389  12.831
58727W        W25268   3.937  32.787   2.753
58728W        W25269   3.438   3.730   1.328
58729W        W25270  29.430   9.449   3.653
58730W        W25271  37.023  25.945   0.251
58731W        W25272  37.062  27.567   3.724
58732W        W25273   3.188  40.465   4.474
58733W        W25274  19.811  33.901  11.537
58734W        W25275  33.888   8.100  13.884
58735W        W25276  35.360  36.491   3.842
58736W        W25277  15.149  35.930  14.431
58737W        W25278  10.075  34.931  14.038
58738W        W25279  12.724  37.830  10.737
58739W        W25280   6.200   0.158  10.831
58740W        W25281  40.871  19.296  10.849
58741W        W25282  43.482  19.093  13.508
58742W        W25283  35.670  40.599  13.995
58743W        W25284  40.532  17.847   3.210
58744W        W25285   0.195   4.334  10.813
58745W        W25286   3.838  35.604  13.043
58746W        W25287  29.187  20.603   1.511
58747W        W25288   0.390   2.929   2.878
58748W        W25289  17.462   6.803   3.085
58749W        W25290   3.781  40.403  13.856
58750W        W25291  35.677  33.152  10.528
58751W        W25292   4.137  30.042   2.354
58752W        W25293   3.211  17.199   5.017
58753W        W25294  25.495  33.984  12.616
58754W        W25295  35.539   6.079  10.687
58755W        W25296   5.489  38.550  14.377
58756W        W25297  12.736  26.281  11.976
58757W        W25298  12.823   9.831   3.103
58758W        W25299  34.281  25.721  13.920
58759W        W25300  27.422  44.331  10.694
58760W        W25301  10.018  14.158  11.547
58761W        W25302  29.864  43.776   1.254
58762W        W25303   4.791  30.069  12.341
58763W        W25304  32.104  17.583  14.254
58764W        W25305  41.835  13.551  11.735
58765W        W25306  42.373   5.269   3.197
58766W        W25307  20.919  37.819  13.622
58767W        W25308  19.835  26.845   3.427
58768W        W25309  31.445  12.871  12.525
58769W        W25310  13.806  30.196  12.915
58770W        W25311  25.714   8.312  12.300
58771W        W25312  31.070  18.652  14.530
58772W        W25313  28.439  16.814   1.887
58773W        W25314  35.392  41.731  12.654
58774W        W25315  34.916  39.364   1.901
58775W        W25316  33.259  39.372  10.893
58776W        W25317  32.835  10.203  10.339
58777W        W25318  10.736   5.652   4.276
58778W        W25319  11.698   0.451   3.351
58779W        W25320   4.081  42.316   3.236
58780W        W25321  15.337  37.491   1.240
58781W        W25322  43.796  22.597  14.654
58782W        W25323  44.327   3.002  12.840
58783W        W25324   7.539  43.653   1.927
58784W        W25325  34.596  40.794   4.536
58785W        W25326  40.980  19.326   2.361
58786W        W25327  31.542   0.901  10.761
58787W        W25328  40.594  37.635  14.756
58788W        W25329   0.850  18.816  14.353
58789W        W25330  24.270  24.805   4.202
58790W        W25331  41.433   7.250   3.838
58791W        W25332   7.044  12.170   2.289
58792W        W25333  11.710  11.145  12.479
58793W        W25334  18.314   1.925   4.092
58794W        W25335  42.237  28.467  14.356
58795W        W25336   5.123  43.871  14.043
58796W        W25337  38.473  40.561  10.500
58797W        W25338  22.624  35.044   2.790
58798W        W25339  29.650  15.558   3.886
58799W        W25340  24.905  43.283   2.145
58800W        W25341   6.815   5.602   0.248
58801W        W25342  29.471  31.378  13.845
58802W        W25343  15.232  38.463  10.526
58803W        W25344  42.904  30.083  13.622
58804W        W25345  22.978  23.399  13.102
58805W        W25346  30.251  22.620   2.117
58806W        W25347  41.791  18.282   0.405
58807W        W25348  43.294  38.705  11.917
58808W        W25349  29.684  26.670  13.399
58809W        W25350  31.432  35.007  11.519
58810W        W25351  24.583  11.500   2.772
58811W        W25352  24.716   3.607  14.143
58812W        W25353  10.157  10.829   2.223
58813W        W25354  30.941  30.055   2.686
58814W        W25355  12.413  37.634   3.637
58815W        W25356  28.545   8.445  11.591
58816W        W25357  27.767  26.769  14.770
58817W        W25358  44.327  15.830   3.169
58818W        W25359   7.357  43.382  14.927
58819W        W25360  27.542   5.299   3.853
58820W        W25361  11.567   6.639   1.361
58821W        W25362  30.634  22.759  13.562
58822W        W25363  27.206  33.782  14.793
58823W        W25364  41.431  32.736  12.019
58824W        W25365  27.608  15.034   2.869
58825W        W25366  39.377  29.216   3.562
58826W        W25367  14.371  29.074   1.429
58827W        W25368   6.388  42.851   1.757
58828W        W25369  15.577  40.812  14.928
58829W        W25370  36.572  17.464  11.750
58830W        W25371  36.706  42.335   2.888
58831W        W25372  20.424  18.397   2.773
58832W        W25373   3.694  16.638   0.420
58833W        W25374  40.366  37.073  14.435
58834W        W25375   5.436   4.358  14.364
58835W        W25376  25.552   7.699   2.014
58836W        W25377  20.455   9.506   1.698
58837W        W25378  34.536  34.351  11.118
58838W        W25379  35.134  20.246   1.503
58839W        W25380  22.652  32.022  12.413
58840W        W25381  37.473   9.894   4.794
58841W        W25382   6.752  17.316  13.041
58842W        W25383   8.575  44.948  13.482
58843W        W25384  36.487  35.815   2.219
58844W        W25385  20.122   8.347  12.469
58845W        W25386  43.204  37.021   4.715
58846W        W25387  40.502  26.611   2.158
58847W        W25388  21.103  42.399  11.121
58848W        W25389  20.767   3.268   1.771
58849W        W25390  13.642  43.521   4.378
58850W        W25391  38.389  32.667  12.632
58851W        W25392   0.450   2.037   2.821
58852W        W25393   7.853  32.903   2.212
58853W        W25394  16.760  40.991  11.991
58854W        W25395  36.447  23.748  13.463
58855W        W25396  37.000   5.278  10.697
58856W        W25397  12.362  16.101  13.982
58857W        W25398  28.424  35.809  12.989
58858W        W25399   2.644  16.395  14.984
58859W        W25400  19.633  28.454  14.911
58860W        W25401  42.826  34.563   3.064
58861W        W25402  16.637   4.520   0.307
58862W        W25403  28.038  29.520  12.908
58863W        W25404  12.238  12.760  11.204
58864W        W25405   1.466  13.044   2.348
58865W        W25406   6.245  19.074  14.084
58866W        W25407  23.911   0.711   2.234
58867W        W25408  15.129  19.131  14.440
58868W        W25409  26.589  24.570  14.710
58869W        W25410   7.114  44.535   1.861
58870W        W25411   2.493  26.140   3.580
58871W        W25412  15.367  24.204   2.369
58872W        W25413  13.953  17.066   4.551
58873W        W25414  16.547  30.440  13.007
58874W        W25415  14.676  12.870  13.514
58875W        W25416  11.739  23.639   4.996
58876W        W25417  15.189   2.510  14.367
58877W        W25418  30.470  43.170  13.889
58878W        W25419  20.724  31.433   1.587
58879W        W25420   1.878   4.009   3.016
58880W        W25421  17.834  38.475   1.151
58881W        W25422   4.286  34.839   1.419
58882W        W25423  22.071   9.784   0.598
58883W        W25424  34.616   6.090   4.310
58884W        W25425  33.867  10.039   3.930
58885W        W25426  32.343  44.358  13.082
58886W        W25427  23.602   8.509  12.115
58887W        W25428  25.975  37.363   0.818
58888W        W25429  29.981  20.049   2.784
58889W        W25430   0.228  17.038   0.992
58890W        W25431  23.054  26.720   0.407
58891W        W25432  42.863  41.670  14.418
58892W        W25433  37.998  14.265  14.871
58893W        W25434  23.260   0.143   1.344
58894W        W25435   3.411  18.986   1.102
58895W        W25436  11.678  22.112  14.735
58896W        W25437  14.966  13.718  11.283
58897W        W25438  19.122  23.997  13.497
58898W        W25439  33.206   7.668   0.612
58899W        W25440  10.350   9.107  11.583
58900W        W25441  40.988  32.638   3.362
58901W        W25442  15.873  21.113   2.481
58902W        W25443   8.700  19.498  12.287
58903W        W25444   0.974  38.606   0.822
58904W        W25445   8.354  44.443  12.044
58905W        W25446  27.726  17.184  11.266
58906W        W25447  11.537   8.265  10.728
58907W        W25448  37.540  25.643  13.528
58908W        W25449  42.422  18.640   2.612
58909W        W25450  19.648   4.343  12.984
58910W        W25451  17.125  19.046   4.762
58911W        W25452  29.067  37.558   3.987
58912W        W25453  35.607  34.036  12.909
58913W        W25454  35.556  39.986  11.544
58914W        W25455  23.490  21.559  14.388
58915W        W25456   4.731  21.721  11.795
58916W        W25457  38.655   2.187  13.580
58917W        W25458  43.026  25.503  12.166
58918W        W25459  36.146   4.141   1.018
58919W        W25460   0.288   0.272  14.038
58920W        W25461  34.529  14.908   0.935
58921W        W25462   1.890  41.582   3.746
58922W        W25463   0.831  35.485   1.442
58923W        W25464   0.518  12.648   3.816
58924W        W25465  14.728  44.294   3.768
58925W        W25466   8.218  21.692  14.451
58926W        W25467  16.322  19.618  12.990
58927W        W25468  31.713  25.544   0.523
58928W        W25469   1.738  14.496  13.856
58929W        W25470  43.776   0.956   1.760
58930W        W25471  15.085  22.565   3.604
58931W        W25472   5.290  43.853  12.072
58932W        W25473  17.417  44.388  11.312
58933W        W25474   1.294  17.441  10.614
58934W        W25475  27.662  40.948  13.788
58935W        W25476  27.491   3.013  14.270
58936W        W25477  26.693  26.267  11.229
58937W        W25478  20.204   2.359   3.922
58938W        W25479  22.163   7.219  10.076
58939W        W25480   6.179  44.270   4.106
58940W        W25481   6.321  16.696   1.421
58941W        W25482   0.279   5.804   3.468
58942W        W25483   6.945  29.935  11.978
58943W        W25484  20.639   5.209   3.854
58944W        W25485  17.226  44.426  13.926
58945W        W25486  43.689   2.498  13.373
58946W        W25487   8.579  13.334  13.461
58947W        W25488  21.058   7.139   1.754
58948W        W25489  20.038  30.611  10.670
58949W        W25490  37.604   6.654  10.663
58950W        W25491  27.223  27.904   4.612
58951W        W25492  27.452  16.639  11.236
58952W        W25493  37.630  10.075  14.814
58953W        W25494  23.031  18.958  11.080
58954W        W25495   7.623  29.884   2.726
58955W        W25496  37.337  39.879   1.339
58956W        W25497  39.611   9.416   2.364
58957W        W25498  20.293   0.453   0.927
58958W        W25499  44.347  34.928  14.503
58959W        W25500  14.864  26.413  14.841
58960W        W25501  15.041  25.675   4.087
58961W        W25502  34.838  39.328  13.435
58962W        W25503  22.159  27.722   4.572
58963W        W25504  11.362   7.952   1.798
58964W        W25505   0.792  39.439  10.393
58965W        W25506  13.765  14.022  12.036
58966W        W25507  43.697  34.133   0.732
58967W        W25508   3.921  33.534  14.014
58968W        W25509  36.778   4.981   5.002
58969W        W25510  43.815  44.726  11.101
58970W        W25511  10.467  27.644   2.090
58971W        W25512  30.598   1.973  10.361
58972W        W25513  31.208  44.748  14.518
58973W        W25514  23.439  44.995  12.955
58974W        W25515   5.142  34.131   4.090
58975W        W25516  14.214  16.430  12.614
58976W        W25517   2.310   4.417  12.571
58977W        W25518   1.114  17.123   1.958
58978W        W25519  12.745  38.470   0.734
58979W        W25520  41.604  32.974   0.343
58980W        W25521   8.438  44.461  14.138
58981W        W25522  25.210  15.084   1.203
58982W        W25523  15.284   8.459   1.320
58983W        W25524   3.828  42.453   1.348
58984W        W25525  19.274  14.552   2.419
58985W        W25526  36.027  24.095   1.729
58986W        W25527   3.260   8.846  14.784
58987W        W25528  26.427  14.766  13.275
58988W        W25529   7.582  37.345  11.103
58989W        W25530  23.422  32.425  11.313
58990W        W25531   9.543   5.977  13.968
58991W        W25532  11.782  17.961   3.507
58992W        W25533  17.172   9.584  13.989
58993W        W25534  19.605  29.473   5.206
58994W        W25535   1.025  11.595   5.019
58995W        W25536  11.624  33.441   3.608
58996W        W25537  44.195   7.503  13.490
58997W        W25538   6.728  35.156  11.507
58998W        W25539  30.458  38.468  14.433
58999W        W25540  16.056  42.450   1.763
59000W        W25541  15.822  28.679  11.249
59001W        W25542  43.751  37.653   2.455
59002W        W25543  32.480  28.654  11.113
59003W        W25544  39.057   2.018   0.346
59004W        W25545  34.079  40.426  13.538
59005W        W25546  23.497   2.465   4.572
59006W        W25547  15.358   0.157  14.479
59007W        W25548  21.668  39.092   3.963
59008W        W25549  22.814   2.558  12.122
59009W        W25550  42.961  35.934   3.813
59010W        W25551  44.418  10.596   0.838
59011W        W25552  27.629  17.812   4.050
59012W        W25553  40.093   4.161  13.245
59013W        W25554   6.979  28.825   1.667
59014W        W25555   3.402  29.807  14.086
59015W        W25556  22.663  16.255  14.101
59016W        W25557  13.722  16.135  11.067
59017W        W25558   1.209   0.698  11.713
59018W        W25559  44.506  41.987  11.022
59019W        W25560  40.753   2.483  10.689
59020W        W25561  29.024  26.695  12.618
59021W        W25562  38.785   9.299   0.825
59022W        W25563   3.682   8.705   3.606
59023W        W25564  37.283   6.080  14.679
59024W        W25565  23.356  32.969   2.838
59025W        W25566  13.345  30.047  13.608
59026W        W25567  14.725  40.239  14.996
59027W        W25568   0.415   9.192  12.493
59028W        W25569   3.655  41.378  12.069
59029W        W25570   1.505  33.429   4.181
59030W        W25571  28.944  38.375  13.473
59031W        W25572  34.955  39.886   1.928
59032W        W25573  35.148  26.598  13.955
59033W        W25574   4.660  24.932  13.457
59034W        W25575  29.921  17.200  10.429
59035W        W25576  38.845  35.933  14.739
59036W        W25577  21.204  29.289  11.429
59037W        W25578   3.231  38.874   2.920
59038W        W25579   7.430   7.141   0.291
59039W        W25580  41.016  18.769  13.462
59040W        W25581  17.333   6.437   4.713
59041W        W25582   7.906  34.799   1.296
59042W        W25583   9.315  29.092  14.945
59043W        W25584   9.790  30.568   3.287
59044W        W25585  11.435   8.670  10.185
59045W        W25586  39.093  28.915   9.937
59046W        W25587   3.970  39.284   4.347
59047W        W25588  33.381  21.106  13.849
59048W        W25589  12.098  11.840   3.222
59049W        W25590  29.197  38.559  14.910
59050W        W25591  40.948  26.951  14.089
59051W        W25592  32.333  11.125  14.120
59052W        W25593   4.426  29.077   2.230
59053W        W25594   9.384  19.435  14.675
59054W        W25595  19.284   6.305  14.832
59055W        W25596  20.469   5.825  13.324
59056W        W25597  44.407  19.270  13.047
59057W        W25598  16.056  40.622  14.821
59058W        W25599  27.187   6.726  12.592
59059W        W25600  28.631  21.683   4.178
59060W        W25601  15.332  38.436  12.793
59061W        W25602   6.434   2.388   4.109
59062W        W25603   4.564  19.547   0.855
59063W        W25604  38.409  35.962  13.896
59064W        W25605  13.268  25.688   2.542
59065W        W25606  33.396  33.153  14.698
59066W        W25607  39.497  21.788   0.387
59067W        W25608  15.763  39.002   3.210
59068W        W25609   2.772  36.823  13.605
59069W        W25610   2.860  17.651  11.537
59070W        W25611  21.206  40.002   0.868
59071W        W25612  42.593  33.121  10.943
59072W        W25613  20.669  44.771  12.951
59073W        W25614  27.635  33.527  14.942
59074W        W25615  33.264   2.104   2.125
59075W        W25616  17.009  18.852   3.331
59076W        W25617  44.741  27.652  11.128
59077W        W25618   9.810  33.870   0.446
59078W        W25619  25.719  33.552   4.705
59079W        W25620   4.263   1.774   2.453
59080W        W25621   7.062  15.236   1.100
59081W        W25622  23.959  33.414  13.468
59082W        W25623   3.995  15.376  13.420
59083W        W25624   9.876  38.142   0.465
59084W        W25625  16.316  16.177  13.921
59085W        W25626   8.730  35.637   0.765
59086W        W25627   6.937  21.191   2.285
59087W        W25628  42.414  16.570   4.553
59088W        W25629  44.392   9.928  14.026
59089W        W25630  22.098   3.469   9.834
59090W        W25631  37.079  38.793  10.796
59091W        W25632  42.970  15.762  12.434
59092W        W25633  20.949   1.744   0.363
59093W        W25634  41.677  24.769  11.152
59094W        W25635  26.565  27.625   1.931
59095W        W25636  39.317  42.458  14.332
59096W        W25637  40.108  43.835   4.457
59097W        W25638  42.684  44.260   3.134
59098W        W25639   3.231   4.524   4.190
59099W        W25640  16.283  28.547   4.757
59100W        W25641  37.325  39.709  10.292
59101W        W25642   6.405   4.467  12.907
59102W        W25643  14.253  23.938   1.790
59103W        W25644  20.254   9.681   0.295
59104W        W25645  20.650   6.204  11.480
59105W        W25646  39.033  33.862  11.585
59106W        W25647  28.142  34.150  12.454
59107W        W25648  30.168  42.819  10.990
59108W        W25649  28.138  42.107  12.546
59109W        W25650  41.837  33.520  10.752
59110W        W25651  26.948  13.329   0.444
59111W        W25652  25.501  43.780   4.549
59112W        W25653  16.746   6.005  13.501
59113W        W25654  18.028  34.645  14.364
59114W        W25655  42.058   9.276  10.751
59115W        W25656   9.909  10.452  14.373
59116W        W25657  39.965  21.974   2.247
59117W        W25658   9.772  30.635   2.266
59118W        W25659  20.011  43.452  14.003
59119W        W25660  32.658  16.148  12.898
59120W        W25661  23.438  26.510  11.261
59121W        W25662  24.519  28.506  13.544
59122W        W25663  30.986  24.274   0.287
59123W        W25664  24.730   8.153   2.431
59124W        W25665  26.563  22.415   4.002
59125W        W25666  40.313  42.446   1.781
59126W        W25667   3.544   6.174  14.897
59127W        W25668  27.018  10.787   1.217
59128W        W25669  16.229   3.495   1.364
59129W        W25670  10.672   4.719   1.235
59130W        W25671  36.423  36.381  12.604
59131W        W25672  11.418  28.116  13.516
59132W        W25673   0.789  15.331  13.822
59133W        W25674  31.834  20.625  11.134
59134W        W25675  32.572  44.524   1.996
59135W        W25676  29.078  12.464  12.468
59136W        W25677  42.770  38.520   2.830
59137W        W25678  40.061   1.207   3.640
59138W        W25679  31.932   9.174   3.288
59139W        W25680  38.895  15.753  11.778
59140W        W25681   6.383   4.510   3.176
59141W        W25682  35.152  39.732  11.708
59142W        W25683  27.176  41.850  13.932
59143W        W25684   6.482  39.930  13.046
59144W        W25685  10.633   6.351  11.691
59145W        W25686  19.787  42.311  11.664
59146W        W25687  27.438  17.786  14.920
59147W        W25688  36.060  28.305   2.596
59148W        W25689   8.130   4.741   4.648
59149W        W25690  11.907   3.399  12.944
59150W        W25691   2.726  41.112   2.459
59151W        W25692  20.153   8.415  10.634
59152W        W25693  24.781  13.026   2.741
59153W        W25694  42.371  31.190   0.761
59154W        W25695  35.538  23.189   0.367
59155W        W25696  36.001  38.866   1.267
59156W        W25697  21.705  27.523   3.865
59157W        W25698  33.970  17.547  11.993
59158W        W25699  18.153  43.137  14.114
59159W        W25700   4.801  38.351   1.088
59160W        W25701  44.985   9.830   4.503
59161W        W25702  11.661  42.402   4.032
59162W        W25703   8.771  24.121   4.061
59163W        W25704  18.176  24.553  13.990
59164W        W25705  36.006  25.510   3.175
59165W        W25706  41.070  23.805  13.724
59166W        W25707  28.967  25.640  11.717
59167W        W25708  30.712  30.002   4.269
59168W        W25709   5.849  29.004   1.194
59169W        W25710   0.526   6.739   4.054
59170W        W25711  31.595   9.606  14.489
59171W        W25712  23.434   0.641   1.394
59172W        W25713  37.623  20.834  11.577
59173W        W25714  42.977  30.900  14.878
59174W        W25715  37.778  15.385   2.542
59175W        W25716  24.260  39.459  13.825
59176W        W25717   3.797  16.642   4.045
59177W        W25718  33.581  43.509   2.211
59178W        W25719  13.240  29.130  13.307
59179W        W25720   6.039  19.877   5.045
59180W        W25721  16.545  27.864   4.181
59181W        W25722  40.739   2.524   3.135
59182W        W25723  36.602  24.216   5.024
59183W        W25724  38.665  20.325  14.810
59184W        W25725  24.230  42.415   1.229
59185W        W25726  39.776  13.744  14.873
59186W        W25727   4.284   2.714  11.681
59187W        W25728   9.651  20.995  10.452
59188W        W25729  14.299  23.750   2.354
59189W        W25730   8.935  30.946  13.467
59190W        W25731   4.317  33.556   0.471
59191W        W25732  41.976  21.339   3.594
59192W        W25733  17.552  22.643  13.395
59193W        W25734  27.811  21.085  12.495
59194W        W25735  24.567  38.525   1.437
59195W        W25736  29.512  31.573   0.489
59196W        W25737  16.125  31.199   0.084
59197W        W25738  17.236  21.240  12.148
59198W        W25739  35.684   7.583  11.466
59199W        W25740   0.551  34.996   9.997
59200W        W25741  36.341  35.036   1.848
59201W        W25742  31.828  16.829   0.213
59202W        W25743  28.887  42.853   3.614
59203W        W25744  34.883   5.399  11.879
59204W        W25745  43.922  37.004   3.092
59205W        W25746  24.075   2.500  13.606
59206W        W25747   9.188   2.755  12.083
59207W        W25748   9.875   2.753   2.859
59208W        W25749   4.367  37.849  11.628
59209W        W25750  24.285  26.543  14.383
59210W        W25751   0.545  26.997   4.606
59211W        W25752  13.547  29.916  12.572
59212W        W25753  22.050  40.596  11.208
59213W        W25754  39.402  10.082  11.057
59214W        W25755  34.439   5.030  10.119
59215W        W25756  15.800  16.251  11.170
59216W        W25757   9.043  39.382   3.097
59217W        W25758  42.538  40.072   2.351
59218W        W25759   4.188  17.827   3.256
59219W        W25760  33.188  35.156  12.071
59220W        W25761   6.417  27.581   3.902
59221W        W25762  13.057  23.007   3.382
59222W        W25763  15.150  26.503   1.753
59223W        W25764   0.009   7.734   3.681
59224W        W25765  44.681  25.090  11.231
59225W        W25766  19.043  21.628  10.894
59226W        W25767  16.294   2.033  11.398
59227W        W25768  27.061  23.386  11.834
59228W        W25769   2.222  30.110   2.776
59229W        W25770  10.379   1.217   0.283
59230W        W25771   7.236   6.309   4.020
59231W        W25772  37.953  30.580   2.387
59232W        W25773  26.921  15.781  10.946
59233W        W25774  18.610  36.773   3.210
59234W        W25775  25.334  41.555   1.190
59235W        W25776   0.360  14.381  10.464
59236W        W25777  25.607  25.026   0.687
59237W        W25778  38.054  26.291  12.691
59238W        W25779   4.882  15.804  12.487
59239W        W25780  31.411  28.515  14.702
59240W        W25781  18.756   2.040  12.133
59241W        W25782   2.543  17.656  12.486
59242W        W25783   5.540  34.664  12.040
59243W        W25784  19.076  29.396   1.160
59244W        W25785  15.469  22.148   3.316
59245W        W25786  40.122  40.144  14.214
59246W        W25787  11.250  38.329  10.145
59247W        W25788  32.540  23.551   1.783
59248W        W25789  18.646  25.743  13.344
59249W        W25790  41.073  34.058  13.088
59250W        W25791  21.684   7.712   3.671
59251W        W25792   6.943   7.154  12.443
59252W        W25793  42.924  20.870  12.597
59253W        W25794  29.453  16.002  11.716
59254W        W25795  25.831  41.596  13.007
59255W        W25796  25.018  21.671  14.851
59256W        W25797   9.137  21.071   0.995
59257W        W25798  40.758   9.390  10.608
59258W        W25799  33.678   6.759   2.872
59259W        W25800  28.114  21.350  14.390
59260W        W25801  44.715  13.133   2.738
59261W        W25802  29.844   5.864   4.829
59262W        W25803  22.176  37.254   2.743
59263W        W25804   4.242   2.071  14.803
59264W        W25805  16.583   6.492  12.690
59265W        W25806  13.799  10.298  13.440
59266W        W25807  17.840  16.104  13.529
59267W        W25808   4.635   4.649   0.282
59268W        W25809  10.414  28.453  10.765
59269W        W25810  20.690  20.066  10.676
59270W        W25811  14.396  43.455   0.843
59271W        W25812  41.540  35.428   2.201
59272W        W25813  11.271  42.291   1.796
59273W        W25814   6.419   6.747  14.037
59274W        W25815  33.612   0.809  11.434
59275W        W25816   2.848  32.342   2.133
59276W        W25817  22.327  39.291  13.869
59277W        W25818  34.352   1.863  12.608
59278W        W25819  10.083  43.742  11.882
59279W        W25820   6.773  41.262   1.917
59280W        W25821  19.474  41.412  13.199
59281W        W25822  40.809   5.248   0.447
59282W        W25823  40.640  26.375   4.710
59283W        W25824   7.965  29.262  11.686
59284W        W25825  20.828  18.146  13.322
59285W        W25826  44.446  33.484  12.398
59286W        W25827  17.166  22.910  14.678
59287W        W25828  34.080   1.559  14.862
59288W        W25829   9.299  43.205   3.884
59289W        W25830  27.939  13.676  10.120
59290W        W25831  40.765  27.114  14.942
59291W        W25832  20.322  43.458   4.542
59292W        W25833  24.476  28.233  10.740
59293W        W25834   1.317  16.088   1.677
59294W        W25835   2.721  40.880  11.626
59295W        W25836  43.722   5.292  13.019
59296W        W25837  19.177  24.603  13.927
59297W        W25838  39.056  38.399  11.976
59298W        W25839   7.551   1.073  13.790
59299W        W25840  29.839  28.829   0.950
59300W        W25841  38.954   1.016   3.730
59301W        W25842  25.139   3.802  11.316
59302W        W25843   5.764  42.407   4.646
59303W        W25844   1.890  40.221  12.343
59304W        W25845  33.364  41.383  11.633
59305W        W25846   0.290  10.950  14.942
59306W        W25847  18.168   6.144  14.188
59307W        W25848   2.351  34.622  14.617
59308W        W25849   3.297  35.491  11.507
59309W        W25850  33.887  26.615   2.640
59310W        W25851  14.118  42.009  13.671
59311W        W25852  29.380   7.766  11.662
59312W        W25853  33.948  28.709   0.455
59313W        W25854  26.680   1.811   2.233
59314W        W25855  12.762  33.843   3.146
59315W        W25856  32.106   8.525   1.474
59316W        W25857  39.903  25.022   0.012
59317W        W25858  17.698  16.670  14.268
59318W        W25859  32.480  24.824   3.711
59319W        W25860  38.509  26.241   3.252
59320W        W25861  42.251  38.556   4.631
59321W        W25862  11.071  19.617  14.010
59322W        W25863  24.909   2.805  12.684
59323W        W25864  22.716  28.145  11.112
59324W        W25865   5.156  28.075  11.790
59325W        W25866  44.778  27.078  14.890
59326W        W25867  27.403  23.903   3.194
59327W        W25868   9.091  40.448  13.910
59328W        W25869  16.560  13.042  14.305
59329W        W25870  19.246  43.926   0.845
59330W        W25871  16.783  14.020  14.253
59331W        W25872   4.395  25.676   2.866
59332W        W25873  23.589  33.283  11.491
59333W        W25874  13.927  25.688   0.951
59334W        W25875  39.974  29.077   2.646
59335W        W25876  37.254  26.845  14.604
59336W        W25877  25.539  31.890   1.470
59337W        W25878  41.077   7.271   0.174
59338W        W25879  16.833  32.691   2.950
59339W        W25880  43.705  42.765  11.176
59340W        W25881  40.893  16.325   1.711
59341W        W25882  27.177  17.056  12.525
59342W        W25883   1.915  19.261  12.670
59343W        W25884  32.836   8.575   0.759
59344W        W25885  38.770  29.060   4.740
59345W        W25886  10.857  23.131   2.116
59346W        W25887  35.508   9.947   1.230
59347W        W25888  39.543   6.905  10.666
59348W        W25889  17.038  42.775   2.404
59349W        W25890  26.339   3.118   1.184
59350W        W25891   0.880   2.001  13.540
59351W        W25892  41.960  28.449   4.398
59352W        W25893  42.224   5.946   3.775
59353W        W25894  42.492   2.817   3.592
59354W        W25895  44.833   7.248  11.849
59355W        W25896  37.685  28.460  12.395
59356W        W25897  32.961   8.468   4.624
59357W        W25898  14.690  40.510   0.422
59358W        W25899   7.298   0.919   3.232
59359W        W25900   8.100  28.482   0.935
59360W        W25901   1.425  23.196  10.500
59361W        W25902  32.709  11.336   4.641
59362W        W25903  34.177  17.741   1.236
59363W        W25904   2.648  24.221  11.872
59364W        W25905  11.999  11.967  14.501
59365W        W25906  42.448   3.798   1.925
59366W        W25907  22.929  35.456  13.085
59367W        W25908  12.635   5.425  13.122
59368W        W25909   2.800  40.394  11.886
59369W        W25910  40.319  10.599  12.199
59370W        W25911  39.593   2.415   2.445
59371W        W25912   9.241  27.916   3.941
59372W        W25913  38.724  12.244  14.066
59373W        W25914  21.169  33.628  12.969
59374W        W25915   8.157  21.105  11.421
59375W        W25916   1.779  11.990   0.311
59376W        W25917  20.103  43.361   4.076
59377W        W25918   5.214  34.870   1.512
59378W        W25919  10.731  18.647   1.387
59379W        W25920  18.056  25.990   0.406
59380W        W25921  38.493  32.564   3.700
59381W        W25922  43.470  41.234  13.470
59382W        W25923  23.283  44.455   0.828
59383W        W25924   9.616  25.076   2.839
59384W        W25925  20.040  35.875   2.624
59385W        W25926  12.154  30.007  13.986
59386W        W25927   2.269  30.634   2.729
59387W        W25928  22.210  13.221  10.741
59388W        W25929  37.310   0.352  12.851
59389W        W25930  38.543  34.552   4.151
59390W        W25931  15.621  37.310  13.488
59391W        W25932  35.099  39.796   2.842
59392W        W25933  37.887   0.595  10.202
59393W        W25934  38.176  25.586  13.468
59394W        W25935  33.944  27.577  12.077
59395W        W25936  40.504  32.480   3.454
59396W        W25937  26.513  32.461   4.319
59397W        W25938  20.087  15.946   5.143
59398W        W25939  10.203  32.168  13.983
59399W        W25940   3.652   1.135  10.616
59400W        W25941  27.485  16.607   1.875
59401W        W25942  33.169  36.397  11.140
59402W        W25943  11.751  32.358   2.055
59403W        W25944  33.006  20.934   2.387
59404W        W25945  39.393  16.226  10.536
59405W        W25946  16.983  15.698  12.038
59406W        W25947  36.414  33.718   3.010
59407W        W25948  15.666  17.043  12.914
59408W        W25949  12.593  35.858  10.733
59409W        W25950  34.613   5.361  11.030
59410W        W25951  43.270  21.952  14.883
59411W        W25952  43.236  29.043  10.354
59412W        W25953  28.334   4.252   2.379
59413W        W25954  31.972  39.605   1.817
59414W        W25955   3.728  28.093  11.916
59415W        W25956  20.789  25.995  14.903
59416W        W25957  42.000   3.772  11.932
59417W        W25958  32.945  19.725   2.888
59418W        W25959  10.840  42.004  14.838
59419W        W25960  14.635   7.851   1.651
59420W        W25961  27.023  12.223  14.490
59421W        W25962  29.465  11.219  13.930
59422W        W25963  21.026  16.810   3.288
59423W        W25964   1.349   1.472  12.573
59424W        W25965  38.163  24.925   3.435
59425W        W25966  17.643  24.634   2.229
59426W        W25967  28.694  28.602  13.591
59427W        W25968  22.815  39.958  12.043
59428W        W25969   2.242   3.968  10.981
59429W        W25970  42.852  27.939  14.831
59430W        W25971   1.444  14.988   2.091
59431W        W25972  29.183  41.372  12.848
59432W        W25973   8.233  16.271   4.889
59433W        W25974  14.920  12.772   1.902
59434W        W25975  34.966  38.933  10.595
59435W        W25976  35.542  11.306  13.346
59436W        W25977   7.291  24.579  12.904
59437W        W25978  35.670   2.435   1.878
59438W        W25979  36.863  25.132   3.172
59439W        W25980  18.244  30.878  13.757
59440W        W25981  38.961   4.144  10.767
59441W        W25982  39.460  13.626   2.647
59442W        W25983   2.138  19.863   4.546
59443W        W25984  34.851  22.076   4.986
59444W        W25985  34.249  13.769  11.565
59445W        W25986  36.629  22.698   1.315
59446W        W25987   3.275  39.196  14.364
59447W        W25988  43.792  44.652   0.257
59448W        W25989  30.289  27.270   2.828
59449W        W25990   5.211  15.013   3.155
59450W        W25991   3.171  36.125   4.686
59451W        W25992  13.367  38.775  14.921
59452W        W25993  17.744   0.759  14.878
59453W        W25994  36.857   0.400  13.108
59454W        W25995  37.520  14.210   1.115
59455W        W25996  27.538  18.992   0.403
59456W        W25997  20.235  12.725   2.286
59457W        W25998  13.034  31.420  14.276
59458W        W25999   1.208  44.130  14.757
59459W        W26000  34.038  42.390   0.785
59460W        W26001  15.772   3.326   4.843
59461W        W26002  16.794  22.514   2.883
59462W        W26003  37.142  10.211  11.775
59463W        W26004  22.959  32.595  13.570
59464W        W26005  39.053   6.308   0.385
59465W        W26006  29.874   6.261  14.525
59466W        W26007  37.893  36.339   1.735
59467W        W26008  17.416  36.833  10.679
59468W        W26009  23.478  26.456  11.773
59469W        W26010  21.185  40.955   5.185
59470W        W26011  34.970   1.104  11.249
59471W        W26012  10.375  37.575  14.604
59472W        W26013  20.529  30.016   2.124
59473W        W26014  28.191  34.719  13.163
59474W        W26015  30.104   5.298  12.153
59475W        W26016   1.453  21.423   2.708
59476W        W26017   6.212  39.099  14.394
59477W        W26018  30.998   7.700   2.904
59478W        W26019  39.958  14.702   0.375
59479W        W26020  34.631   5.306   1.748
59480W        W26021   8.573  41.602  13.647
59481W        W26022  43.027  27.418   1.849
59482W        W26023  18.859  39.020   1.765
59483W        W26024  42.467   6.225   2.415
59484W        W26025  18.432  25.194  12.782
59485W        W26026  18.214  41.945   4.475
59486W        W26027   0.819  16.293  12.410
59487W        W26028  39.779   2.375   1.953
59488W        W26029  41.347  27.783  13.304
59489W        W26030   8.838   9.967   1.319
59490W        W26031  10.695  13.620   2.697
59491W        W26032  28.661  23.026   0.002
59492W        W26033  38.315  27.751   4.161
59493W        W26034  25.527   5.009  11.015
59494W        W26035  23.629  13.767  12.471
59495W        W26036  11.753  18.495  11.519
59496W        W26037  39.950  21.153   2.941
59497W        W26038  29.448  14.828   0.038
59498W        W26039  27.183  36.068  11.209
59499W        W26040  30.959  12.781  11.147
59500W        W26041  32.031  20.198   1.149
59501W        W26042  19.294  34.537   2.850
59502W        W26043   1.473  44.308  11.182
59503W        W26044  34.300  37.547  13.327
59504W        W26045  43.443   8.654   3.553
59505W        W26046  10.902  37.611  14.600
59506W        W26047   2.501  22.634   2.762
59507W        W26048  35.132  35.540   1.481
59508W        W26049  12.030  38.879   1.981
59509W        W26050  41.986  28.661   2.732
59510W        W26051  36.558   7.853   3.205
59511W        W26052  15.556  37.011   4.745
59512W        W26053  30.125   7.153   2.718
59513W        W26054  17.604  42.895   0.286
59514W        W26055  23.805  32.417   3.534
59515W        W26056  37.958   7.144  12.531
59516W        W26057   9.841  23.050   1.282
59517W        W26058  10.587  14.796   1.512
59518W        W26059   2.449  32.495  13.559
59519W        W26060  19.261  17.931   2.347
59520W        W26061  28.007   3.924   1.927
59521W        W26062  20.226  18.099  11.188
59522W        W26063  36.670  24.918   2.655
59523W        W26064  30.758  13.186  10.724
59524W        W26065  30.334  16.525   1.892
59525W        W26066  18.516  27.594  14.789
59526W        W26067  39.851  39.285   3.609
59527W        W26068   5.266  39.349   2.674
59528W        W26069  37.037  22.717   3.709
59529W        W26070  15.655  10.494  12.448
59530W        W26071  42.897   9.810  11.572
59531W        W26072  34.948  13.339  12.001
59532W        W26073  28.181   5.075  11.656
59533W        W26074  39.580  38.038   3.216
59534W        W26075  25.184  19.129   4.219
59535W        W26076  28.557  25.439   1.016
59536W        W26077  40.525  22.632   0.847
59537W        W26078   2.500   7.567  14.918
59538W        W26079  39.988   2.269  11.693
59539W        W26080  19.602   0.036   2.676
59540W        W26081   2.433  27.195   4.326
59541W        W26082  32.184  35.133   2.156
59542W        W26083  41.116   9.325   1.812
59543W        W26084  32.780  31.037  14.463
59544W        W26085  22.076  41.826  11.500
59545W        W26086   6.666  17.649  11.416
59546W        W26087  39.447  42.832   0.619
59547W        W26088  40.457  26.611   3.315
59548W        W26089  44.744  19.147   1.845
59549W        W26090  21.400  41.311   2.988
59550W        W26091  34.932  30.961   1.938
59551W        W26092   4.322  23.112  14.453
59552W        W26093   3.718  11.859   1.648
59553W        W26094  36.791  38.600   1.163
59554W        W26095  11.275  21.415  14.532
59555W        W26096   3.740  12.911   3.887
59556W        W26097  23.363  19.177  13.048
59557W        W26098  22.139   6.655  11.451
59558W        W26099  26.146   9.782  12.908
59559W        W26100  25.599   0.430   2.932
59560W        W26101  27.628  17.151  13.368
59561W        W26102  29.073  11.531  13.393
59562W        W26103  41.758   4.290  13.962
59563W        W26104  40.928  20.292  13.383
59564W        W26105  24.806  22.750   2.292
59565W        W26106   5.574  24.514  12.351
59566W        W26107   8.070  26.129  13.586
59567W        W26108  28.243  36.081   3.723
59568W        W26109  20.931  41.416  13.029
59569W        W26110  18.897  31.447   4.712
59570W        W26111  18.755  39.354  13.500
59571W        W26112   9.732  23.979   0.978
59572W        W26113  36.350  34.485  11.346
59573W        W26114  31.177  14.876  10.596
59574W        W26115  26.787  19.015  12.429
59575W        W26116  25.326  35.174   5.148
59576W        W26117  16.531  13.670   0.720
59577W        W26118  18.201   9.707   2.599
59578W        W26119  42.405  36.484   2.633
59579W        W26120  16.204  37.455   2.317
59580W        W26121   4.141   1.811   4.355
59581W        W26122  34.334  39.033   4.322
59582W        W26123  22.130  32.428   3.367
59583W        W26124  43.269  26.701  12.330
59584W        W26125   5.646  38.783   4.322
59585W        W26126  25.610   3.829   3.203
59586W        W26127  37.049  30.594  14.683
59587W        W26128  24.047  23.902   4.646
59588W        W26129  15.932  43.398   3.749
59589W        W26130  28.740  40.612  13.117
59590W        W26131   9.671  20.842  13.994
59591W        W26132  29.057  13.446   2.216
59592W        W26133   1.557  12.320   3.209
59593W        W26134  13.586  39.367  10.667
59594W        W26135   6.135  26.510   4.095
59595W        W26136  24.007  14.404  11.342
59596W        W26137  15.419  10.146   2.956
59597W        W26138  20.552  37.480   0.780
59598W        W26139  41.343  41.695  14.520
59599W        W26140  39.266  18.865   0.097
59600W        W26141  17.299   8.949   0.752
59601W        W26142  10.456  19.048  14.859
59602W        W26143  24.990  10.461   3.178
59603W        W26144  41.179  21.599  13.205
59604W        W26145  35.657   1.718   5.319
59605W        W26146  37.679  21.091  12.019
59606W        W26147  33.861  40.942   1.987
59607W        W26148   2.867  23.203   2.314
59608W        W26149  10.280  36.567   1.837
59609W        W26150  18.521  35.457  12.380
59610W        W26151  32.011  30.590  11.708
59611W        W26152   8.782   5.682  12.167
59612W        W26153  13.824  19.132  14.331
59613W        W26154  30.602  11.604   1.915
59614W        W26155  40.380  34.974   2.387
59615W        W26156  13.106  43.762  13.497
59616W        W26157  30.385  30.246   1.967
59617W        W26158  32.512  19.702   3.197
59618W        W26159  30.980  19.433  11.045
59619W        W26160  24.565  15.553  12.469
59620W        W26161  27.065  30.360   3.189
59621W        W26162  33.042  18.499  13.397
59622W        W26163   9.669   5.409   3.118
59623W        W26164  22.365  34.685  11.050
59624W        W26165  18.034  23.530  13.958
59625W        W26166  37.719  14.701  14.892
59626W        W26167   2.045  30.371   2.346
59627W        W26168  20.484  37.091  11.201
59628W        W26169  31.970  43.073   3.634
59629W        W26170  15.824  26.162   2.290
59630W        W26171  42.291   1.826  14.270
59631W        W26172  34.556  13.358  11.619
59632W        W26173  27.614   2.230   0.443
59633W        W26174  33.099   5.406  10.088
59634W        W26175   8.396  14.172  14.003
59635W        W26176  16.170  37.498  10.394
59636W        W26177  37.568   8.394   2.731
59637W        W26178  15.166  36.044   1.302
59638W        W26179  12.241   5.250  10.804
59639W        W26180  44.471   4.689  12.210
59640W        W26181  12.924  39.473   0.217
59641W        W26182   4.015  37.877   2.349
59642W        W26183  18.599   1.000   4.183
59643W        W26184   2.163  13.656   0.913
59644W        W26185  38.723  13.007  11.101
59645W        W26186   6.695  43.922   4.367
59646W        W26187  42.629  25.982  13.145
59647W        W26188  31.917  15.318   2.431
59648W        W26189  44.049  25.879   2.555
59649W        W26190   3.533  32.614  10.197
59650W        W26191  43.976  22.424   1.639
59651W        W26192  36.179   4.413   0.314
59652W        W26193   2.648  27.039  13.261
59653W        W26194  41.755  41.553   1.797
59654W        W26195  43.462  37.752  13.095
59655W        W26196  15.233  39.546   3.838
59656W        W26197  23.701  26.960   3.153
59657W        W26198   9.636   3.176  14.508
59658W        W26199  26.108  10.101   3.700
59659W        W26200  14.245  24.592   2.899
59660W        W26201  19.538  30.915  12.996
59661W        W26202  37.825  29.530  12.839
59662W        W26203  29.219  43.081  11.852
59663W        W26204   5.674  10.206  12.319
59664W        W26205   4.436  24.776   0.668
59665W        W26206  33.512   6.800  13.908
59666W        W26207  34.897  33.581  12.750
59667W        W26208  38.326  40.284  13.876
59668W        W26209  21.218   8.795  14.222
59669W        W26210   9.189  32.216  14.739
59670W        W26211  24.911  36.781   1.682
59671W        W26212  38.734  42.776  13.948
59672W        W26213  44.881  16.027   2.334
59673W        W26214  23.537  28.350   3.375
59674W        W26215  12.355  30.396  12.438
59675W        W26216  20.795   3.701  14.243
59676W        W26217  42.294  39.622   1.421
59677W        W26218   4.856  29.273  10.470
59678W        W26219  37.451   7.161  14.830
59679W        W26220  19.158  21.689   0.733
59680W        W26221  16.172   7.214   4.505
59681W        W26222  13.206  27.928   2.996
59682W        W26223  28.641   0.801  13.514
59683W        W26224  13.536   0.915   1.123
59684W        W26225  34.410  39.836  12.636
59685W        W26226  26.499  29.469   4.272
59686W        W26227  13.175  14.451   2.670
59687W        W26228   6.185  13.898   0.156
59688W        W26229  38.356  31.958   3.222
59689W        W26230   1.913  33.361   2.192
59690W        W26231  17.754   5.855   0.841
59691W        W26232  42.955  28.819   1.361
59692W        W26233   0.721  37.116  14.822
59693W        W26234  36.841   4.391  12.618
59694W        W26235  41.932   7.931  13.436
59695W        W26236   9.215   2.350   3.663
59696W        W26237  35.028  29.974  14.686
59697W        W26238  25.048  14.657   0.921
59698W        W26239  34.764  43.481   3.242
59699W        W26240  25.586  18.182  11.653
59700W        W26241   0.756   2.887  11.666
59701W        W26242  12.360  23.587   3.293
59702W        W26243  32.244  31.716   0.855
59703W        W26244  26.642  18.588   4.267
59704W        W26245  28.457  24.028   1.230
59705W        W26246   0.898   5.763  13.948
59706W        W26247   4.421  10.891  14.284
59707W        W26248  14.893  11.256   4.144
59708W        W26249   7.799  21.423   2.369
59709W        W26250  11.863  27.541   4.881
59710W        W26251  37.571  24.779  13.436
59711W        W26252  38.820   5.385   0.407
59712W        W26253  13.348  18.367   2.630
59713W        W26254  11.099  36.139  10.622
59714W        W26255  35.333  21.649   3.893
59715W        W26256  26.699  22.395   3.152
59716W        W26257  26.014  42.674   2.890
59717W        W26258  11.969  32.660   1.021
59718W        W26259  15.181  32.823   0.721
59719W        W26260  36.436  18.933  14.640
59720W        W26261  44.468   4.017  13.553
59721W        W26262  22.564   0.557   0.304
59722W        W26263  10.656   4.449   2.683
59723W        W26264   6.712  14.877   2.442
59724W        W26265  38.750   2.190  14.379
59725W        W26266  44.033   2.376   2.640
59726W        W26267   4.518  44.697   1.390
59727W        W26268  20.743  14.312  11.326
59728W        W26269  12.174  41.873  11.649
59729W        W26270  33.126  28.005  14.412
59730W        W26271  19.836  44.270   4.509
59731W        W26272  36.294  14.279   0.695
59732W        W26273  13.723  19.723   4.782
59733W        W26274   9.635  15.117  12.833
59734W        W26275  25.648  36.053   0.883
59735W        W26276  29.672  27.039  14.743
59736W        W26277  19.469   1.948  14.451
59737W        W26278   1.554  38.557  14.941
59738W        W26279   0.368   3.381   3.140
59739W        W26280  21.623  34.482  13.119
59740W        W26281  12.837   4.729   3.154
59741W        W26282  22.726  15.837  12.504
59742W        W26283  23.720  38.055   3.373
59743W        W26284  20.770   3.597  12.083
59744W        W26285  41.762   0.678   3.333
59745W        W26286   1.305  11.391   2.824
59746W        W26287  40.031  14.309   2.154
59747W        W26288  38.474  38.021   2.863
59748W        W26289   4.466  16.230   0.390
59749W        W26290  19.666  22.734  13.842
59750W        W26291  40.055  42.837   1.515
59751W        W26292   7.833  11.834  11.793
59752W        W26293  15.360  32.637   2.345
59753W        W26294   0.505  41.318  12.452
59754W        W26295  14.393  37.503   2.800
59755W        W26296  42.730  27.176  12.345
59756W        W26297  33.463  35.364   0.753
59757W        W26298   4.566  32.672  14.838
59758W        W26299  25.580  33.201  14.429
59759W        W26300   2.316  30.864   1.797
59760W        W26301   8.941  24.914   3.241
59761W        W26302  10.310  26.535   2.771
59762W        W26303   7.669  36.748   0.869
59763W        W26304  40.119  32.364   1.866
59764W        W26305  44.873  42.672   4.343
59765W        W26306  24.958  14.828   0.003
59766W        W26307  26.638  32.452   0.742
59767W        W26308  20.090  44.441  14.728
59768W        W26309  29.137  26.484  11.084
59769W        W26310   9.097   4.903  13.769
59770W        W26311  24.094  35.859   3.784
59771W        W26312  10.877  42.908  13.117
59772W        W26313  16.232   0.934  13.099
59773W        W26314   7.354  25.060  10.538
59774W        W26315  18.082  29.238  11.695
59775W        W26316   3.848  29.862  11.530
59776W        W26317  39.837   4.968   1.514
59777W        W26318  31.862  23.440   3.509
59778W        W26319  37.778   4.491   1.740
59779W        W26320  25.436  31.969   0.458
59780W        W26321  14.145   5.474  14.529
59781W        W26322  11.841   0.940   0.039
59782W        W26323  41.902  34.249   0.833
59783W        W26324  32.456  44.565  12.136
59784W        W26325  19.672  32.748   3.319
59785W        W26326  42.819  42.954   0.013
59786W        W26327  33.219  29.793  11.240
59787W        W26328  33.425  33.224  13.682
59788W        W26329  36.122  24.098  11.614
59789W        W26330  39.471   5.539   3.236
59790W        W26331  32.887  10.598   2.827
59791W        W26332  25.969  44.994   1.215
59792W        W26333  31.596  16.107   0.719
59793W        W26334  19.710  18.117   4.076
59794W        W26335   3.776   9.612  14.959
59795W        W26336  43.831  30.722   1.331
59796W        W26337   2.992  37.334   2.262
59797W        W26338  10.152  30.571  12.486
59798W        W26339  33.840  44.079  14.724
59799W        W26340  40.790   2.995   2.677
59800W        W26341   8.728   3.987  11.318
59801W        W26342  29.011   4.723   0.935
59802W        W26343  35.617  23.162   3.146
59803W        W26344  34.039  29.654   4.149
59804W        W26345  29.424  42.300   1.198
59805W        W26346  28.108  10.303  10.201
59806W        W26347  34.488   1.306   3.703
59807W        W26348  40.402  19.423   0.347
59808W        W26349   6.898  19.272   4.632
59809W        W26350   2.030   3.350   0.331
59810W        W26351  44.726  35.082   1.856
59811W        W26352  23.680  38.869   1.304
59812W        W26353   8.810  10.192   4.830
59813W        W26354  17.852  11.184   1.314
59814W        W26355   5.214   5.631   4.057
59815W        W26356  14.323   1.065  11.508
59816W        W26357   7.221  17.280  10.781
59817W        W26358  20.026  30.726  14.128
59818W        W26359  37.279  26.079   2.963
59819W        W26360   8.211  39.783  13.139
59820W        W26361  43.978  20.365  13.927
59821W        W26362  39.370  24.615   1.729
59822W        W26363  33.030  28.348   1.714
59823W        W26364  38.312  37.288   3.594
59824W        W26365  14.833  32.417  12.507
59825W        W26366  37.153  10.295   1.327
59826W        W26367  20.313  13.835  12.102
59827W        W26368  23.918  16.896  11.126
59828W        W26369  33.186  19.286   2.944
59829W        W26370  23.248  22.373   4.434
59830W        W26371  40.022  14.642  14.074
59831W        W26372  33.083  15.282  12.830
59832W        W26373  13.907  31.756  13.033
59833W        W26374   5.625  24.120   4.460
59834W        W26375   0.326  24.765   1.254
59835W        W26376  21.726  35.170   0.440
59836W        W26377  22.189  44.728  13.466
59837W        W26378  40.374  19.456  10.800
59838W        W26379  14.164  13.030  13.449
59839W        W26380  39.317  12.268   3.755
59840W        W26381  25.975  18.196   1.885
59841W        W26382  18.774  14.662  12.997
59842W        W26383  19.186  36.106  12.009
59843W        W26384  16.367  22.782  11.925
59844W        W26385   2.850  25.051   0.586
59845W        W26386   6.283  31.656  12.937
59846W        W26387  11.818   2.292  11.542
59847W        W26388   0.941  16.580  14.820
59848W        W26389  11.769  12.359   4.238
59849W        W26390  19.796  42.419   4.417
59850W        W26391  25.261  25.212  12.949
59851W        W26392  32.144  16.691   2.821
59852W        W26393  36.416  42.202   4.150
59853W        W26394  33.678  34.665   2.427
59854W        W26395  25.365  21.204   2.349
59855W        W26396  22.199   0.814   3.629
59856W        W26397  36.886  31.461  13.424
59857W        W26398  29.058  28.978  14.726
59858W        W26399  11.817  23.706  13.983
59859W        W26400  32.441  37.987  10.917
59860W        W26401  13.849  14.829   0.745
59861W        W26402  15.590  36.518   3.743
59862W        W26403  14.560  14.066   0.169
59863W        W26404  31.537  38.842   0.750
59864W        W26405  36.055  40.573  14.363
59865W        W26406  10.188   1.907   0.681
59866W        W26407   1.905  36.295   4.274
59867W        W26408  41.789  12.092  13.917
59868W        W26409   0.461  17.068   0.494
59869W        W26410  20.727  29.639   4.599
59870W        W26411  27.279  16.374  14.495
59871W        W26412  43.424   1.220   1.295
59872W        W26413  33.666  36.810  14.279
59873W        W26414  10.610  22.107  10.543
59874W        W26415  18.103  24.668   4.607
59875W        W26416  33.529  10.210  12.246
59876W        W26417   4.379  10.811   0.296
59877W        W26418  15.528  13.549  11.193
59878W        W26419  38.081   7.133  14.294
59879W        W26420  13.709  21.615   3.273
59880W        W26421  19.204   7.347   0.071
59881W        W26422  13.613   5.221   3.082
59882W        W26423   5.208  20.346  10.933
59883W        W26424  30.340  13.764   2.613
59884W        W26425  42.994  24.750  13.159
59885W        W26426  17.232  32.194   1.277
59886W        W26427  25.898   4.790  14.106
59887W        W26428   5.475  29.609  14.929
59888W        W26429  23.743  44.767   2.485
59889W        W26430  42.851  41.300  10.623
59890W        W26431  17.022  19.613   3.621
59891W        W26432  24.871  43.089   3.613
59892W        W26433   7.446  42.260  11.135
59893W        W26434  11.359  32.465  13.464
59894W        W26435  44.005  29.716   3.859
59895W        W26436  13.296  17.610   1.447
59896W        W26437  26.625   8.732   3.015
59897W        W26438  24.699  41.770  11.199
59898W        W26439   7.201  28.578   4.533
59899W        W26440  13.050  10.889   0.443
59900W        W26441  18.639   3.418   3.067
59901W        W26442  43.043   6.723  13.236
59902W        W26443  36.103   5.439   3.279
59903W        W26444   5.220  40.109   0.382
59904W        W26445  10.057   0.318   4.925
59905W        W26446  35.576  43.480  14.260
59906W        W26447  27.196  36.524  10.805
59907W        W26448   4.081  41.491   2.393
59908W        W26449  44.933  39.250   2.900
59909W        W26450  25.203  43.316   3.290
59910W        W26451  33.661  44.153   4.228
59911W        W26452  31.586  41.170   2.896
59912W        W26453   8.763  35.417   4.036
59913W        W26454  32.652  37.109  12.464
59914W        W26455   7.484  29.513  12.988
59915W        W26456  41.697  11.276  12.454
59916W        W26457  18.694  17.605   0.473
59917W        W26458   1.381  31.080   3.389
59918W        W26459   8.053  10.751   1.806
59919W        W26460  44.819   7.367  13.963
59920W        W26461   3.944   4.635   2.138
59921W        W26462  32.660   6.780  11.471
59922W        W26463  39.685  21.082   5.101
59923W        W26464  25.602  31.656  10.700
59924W        W26465   5.961  20.564   2.640
59925W        W26466  27.692  21.567  10.746
59926W        W26467  14.637  41.853  11.594
59927W        W26468   2.320  28.564   4.860
59928W        W26469  35.047   8.283   0.805
59929W        W26470  23.224   2.569  12.453
59930W        W26471  32.469  31.451   2.649
59931W        W26472  18.395  22.313  11.089
59932W        W26473  18.468  28.577  10.693
59933W        W26474  23.490  33.819  14.953
59934W        W26475  20.072  34.495  14.223
59935W        W26476   4.665  23.490   3.127
59936W        W26477  43.039  22.141  14.435
59937W        W26478   6.395  13.481   3.144
59938W        W26479   6.314   9.181  11.881
59939W        W26480   9.716  19.633   4.617
59940W        W26481   3.273  25.971  14.000
59941W        W26482  41.890  12.369   1.795
59942W        W26483  38.370   2.231  14.014
59943W        W26484  15.605  31.725  13.406
59944W        W26485   1.321  23.986   0.730
59945W        W26486  41.123  23.670   2.204
59946W        W26487  16.894   6.370   0.504
59947W        W26488   2.196  24.308  10.619
59948W        W26489  13.284   5.424   4.154
59949W        W26490  27.816  39.683  11.579
59950W        W26491  37.225  35.799   1.434
59951W        W26492   4.402  18.006  14.462
59952W        W26493  26.688  25.462   0.967
59953W        W26494   2.728  33.881   1.475
59954W        W26495  29.071  10.180   0.929
59955W        W26496  12.718  20.241  12.005
59956W        W26497  13.636   8.836   4.727
59957W        W26498   6.879  11.025  11.995
59958W        W26499  42.264  19.152   0.678
59959W        W26500   1.849  13.745   1.900
59960W        W26501  40.283  40.328  11.672
59961W        W26502   8.987   6.966  10.969
59962W        W26503  41.437  41.308   0.852
59963W        W26504   2.325   4.529   1.900
59964W        W26505  31.628  24.615   2.712
59965W        W26506  17.184   2.964   1.877
59966W        W26507  34.325  31.592  10.286
59967W        W26508  39.861  14.739  13.441
59968W        W26509  26.553  38.196   3.222
59969W        W26510  26.137  29.673   3.949
59970W        W26511  14.876   7.292   5.318
59971W        W26512  44.872  17.472   2.269
59972W        W26513  35.680  10.954  10.752
59973W        W26514  13.318   3.745  13.814
59974W        W26515   2.510  18.304  11.666
59975W        W26516  19.717  32.962  10.778
59976W        W26517   9.339  32.119   1.429
59977W        W26518   9.921  22.463  14.331
59978W        W26519   5.994  16.618  10.664
59979W        W26520   0.887  30.902  14.869
59980W        W26521  37.914  28.171  12.029
59981W        W26522   7.380  23.169   3.601
59982W        W26523  43.044  14.886   4.181
59983W        W26524  44.466   0.269   9.891
59984W        W26525  28.088   0.377   1.262
59985W        W26526  24.779  29.042  14.999
59986W        W26527  20.040  19.523  11.115
59987W        W26528   0.381  28.493   4.400
59988W        W26529   4.229  40.007  13.050
59989W        W26530   4.529  22.061   2.618
59990W        W26531  22.512  36.515  14.762
59991W        W26532   8.179  16.845  11.562
59992W        W26533  31.667  25.655   4.120
59993W        W26534  29.206  42.557   3.873
59994W        W26535  40.048   5.084  10.187
59995W        W26536  36.418  16.893   2.183
59996W        W26537   5.650  34.265   4.581
59997W        W26538  31.371  43.233  10.746
59998W        W26539  22.239  31.948   3.580
59999W        W26540   2.419  14.835  14.503
60000W        W26541   5.761  30.251   4.461
60001W        W26542  43.247  19.091   1.985
60002W        W26543  40.505   5.937  11.257
60003W        W26544  12.084  31.454   4.507
60004W        W26545  43.330  44.231   2.787
60005W        W26546  34.610  22.149   0.161
60006W        W26547  20.523  23.539   0.400
60007W        W26548  28.915  13.562   0.731
60008W        W26549   9.299  15.701   3.164
60009W        W26550  30.046  20.722  14.376
60010W        W26551  38.496  35.047  11.550
60011W        W26552  14.887  18.771   3.919
60012W        W26553   1.705  28.648  13.822
60013W        W26554  40.747  14.658   0.828
60014W        W26555  35.041  27.116  13.860
60015W        W26556  29.633  24.776   2.264
60016W        W26557   4.389  28.003   0.259
60017W        W26558  13.134  16.685   1.669
60018W        W26559  27.999   0.153   0.337
60019W        W26560  12.319  16.433  14.380
60020W        W26561  42.322  12.795  13.813
60021W        W26562   2.872  44.925   3.579
60022W        W26563   7.354  10.510  14.866
60023W        W26564  25.375   2.032   3.550
60024W        W26565  20.117  19.030   1.715
60025W        W26566  21.035  11.543   1.007
60026W        W26567  26.957  24.137   2.441
60027W        W26568  42.798   0.467  14.597
60028W        W26569  25.581   4.227   0.936
60029W        W26570  35.631  42.677  13.911
60030W        W26571  26.085  37.314  10.404
60031W        W26572  22.268  14.895  11.593
60032W        W26573  10.275   5.813   3.039
60033W        W26574  38.314  38.987  11.970
60034W        W26575   3.888   0.864  12.615
60035W        W26576  34.941   8.605  12.659
60036W        W26577  32.120  33.971  14.235
60037W        W26578  12.325  36.445   0.389
60038W        W26579  33.942  42.370  13.197
60039W        W26580   0.451  32.040   0.446
60040W        W26581   5.390  22.738  11.207
60041W        W26582  24.395   3.389  14.906
60042W        W26583  11.337  33.544  11.564
60043W        W26584  36.104  42.904   4.324
60044W        W26585  13.579   1.866   2.627
60045W        W26586  33.515  42.009   0.180
60046W        W26587  17.554  37.360   4.172
60047W        W26588   3.005   2.830  14.851
60048W        W26589  37.414  13.972  13.300
60049W        W26590  32.043   5.265  11.571
60050W        W26591  32.463  20.540   4.101
60051W        W26592   5.291  38.357   0.864
60052W        W26593   7.356   7.607   3.248
60053W        W26594  21.444   9.891  13.884
60054W        W26595  27.442  33.200  12.573
60055W        W26596   9.384  42.226   0.671
60056W        W26597  38.009  11.227  13.779
60057W        W26598   2.496  20.502   2.576
60058W        W26599  28.923  28.225  11.972
60059W        W26600  26.499  22.895  10.807
60060W        W26601  41.516   3.437   0.565
60061W        W26602  13.710  35.506  14.845
60062W        W26603   2.079  41.987  13.347
60063W        W26604   5.119  44.883  14.939
60064W        W26605  12.794   6.838  13.988
60065W        W26606  34.710   3.428  14.591
60066W        W26607   8.377  28.776  13.528
60067W        W26608  28.064  38.907   0.433
60068W        W26609  13.223  14.068   3.351
60069W        W26610  37.305   0.459  13.945
60070W        W26611   5.452  22.532  14.963
60071W        W26612  19.985  13.025   0.202
60072W        W26613  32.453  22.016  13.558
60073W        W26614  32.093  18.002   3.693
60074W        W26615   4.887  15.850  13.363
60075W        W26616  43.268   7.769  10.818
60076W        W26617  21.666  38.546  14.006
60077W        W26618  44.464  28.254   0.513
60078W        W26619  44.096  34.809   3.811
60079W        W26620  21.230   8.173  14.067
60080W        W26621   7.258  11.848  13.568
60081W        W26622  18.477  44.697   5.007
60082W        W26623  14.614  34.468  13.395
60083W        W26624  25.727  33.011  12.129
60084W        W26625  16.709  22.941   0.405
60085W        W26626  17.185  38.089   0.173
60086W        W26627   3.787  23.519   2.650
60087W        W26628   1.529   3.474   4.582
60088W        W26629  30.918  29.874  11.065
60089W        W26630  44.540  12.123  12.951
60090W        W26631  15.158  42.323   2.779
60091W        W26632  44.984  43.733   0.122
60092W        W26633  12.086  39.078   3.703
60093W        W26634  36.449  16.634  12.708
60094W        W26635  18.776  10.837   1.271
60095W        W26636  33.908  26.869  14.354
60096W        W26637  25.227  36.466   0.475
60097W        W26638  13.146   6.329  13.287
60098W        W26639   4.336  44.802   2.611
60099W        W26640  19.675  28.397   0.778
60100W        W26641  22.301  25.911  14.937
60101W        W26642   4.469  38.543   3.661
60102W        W26643   5.597  19.824   4.749
60103W        W26644  25.608  27.517  14.852
60104W        W26645   9.132   4.223   2.853
60105W        W26646  25.190  22.986  10.935
60106W        W26647  40.322   2.479  13.403
60107W        W26648  42.623  44.246   2.409
60108W        W26649  11.556   4.805  11.108
60109W        W26650   8.619  37.285  13.595
60110W        W26651  30.240   7.833  12.007
60111W        W26652  10.924   1.283   3.845
60112W        W26653  41.501  31.929   0.852
60113W        W26654   6.750  16.806  12.956
60114W        W26655  34.443  12.373   4.119
60115W        W26656   1.711  15.124  13.006
60116W        W26657  36.467  36.339   0.950
60117W        W26658   9.762  21.570  12.136
60118W        W26659  12.448  19.171  13.249
60119W        W26660  25.436  37.092  12.864
60120W        W26661  43.412  22.444  14.926
60121W        W26662   1.492   2.286  14.174
60122W        W26663  16.006  16.190   4.926
60123W        W26664   9.683  29.872  14.367
60124W        W26665  20.102   7.417   2.319
60125W        W26666  29.144   1.677  10.744
60126W        W26667   4.037  21.261   3.598
60127W        W26668  38.848  41.565  12.308
60128W        W26669  43.304  14.689  10.578
60129W        W26670  26.490  39.401  11.159
60130W        W26671  39.154  38.946   0.417
60131W        W26672  30.893  17.782   0.759
60132W        W26673   7.731  19.042   2.712
60133W        W26674  23.040  23.994   1.741
60134W        W26675  27.291  36.132  13.685
60135W        W26676  41.516  39.832  11.393
60136W        W26677  20.786  31.434  10.754
60137W        W26678   9.653  41.207  10.641
60138W        W26679  20.044  11.620  14.331
60139W        W26680  18.013  19.186  11.535
60140W        W26681  44.935   6.480   0.125
60141W        W26682  10.625  39.116   4.781
60142W        W26683  14.556  18.124   4.157
60143W        W26684   3.757  26.344   5.010
60144W        W26685  15.719  21.355   1.228
60145W        W26686  30.434  44.198  11.118
60146W        W26687  19.867  44.353   1.851
60147W        W26688  23.168  39.574   0.514
60148W        W26689  26.533  27.258  13.468
60149W        W26690  11.232  27.036   4.377
60150W        W26691   7.469  36.152  11.639
60151W        W26692  24.480  16.070   3.672
60152W        W26693   8.948  38.925  12.433
60153W        W26694  15.590  29.607   2.758
60154W        W26695  30.478   8.887   2.444
60155W        W26696  19.768  44.926  11.201
60156W        W26697   0.722   4.982   3.798
60157W        W26698  34.886  19.551   3.631
60158W        W26699  33.347   6.709  12.043
60159W        W26700  34.973  11.090  10.176
60160W        W26701  37.844  29.657   0.138
60161W        W26702  42.963   6.847   0.377
60162W        W26703   3.813  34.673   2.358
60163W        W26704  38.935  38.234  11.150
60164W        W26705  14.743  17.163   4.115
60165W        W26706   2.513  44.642   9.864
60166W        W26707  24.407  35.088   4.703
60167W        W26708  34.196  17.796  11.615
60168W        W26709  15.401   9.607  13.203
60169W        W26710   4.078   2.250   3.138
60170W        W26711  31.195   7.791   4.159
60171W        W26712   9.170  15.553  10.652
60172W        W26713  25.964  17.314   3.613
60173W        W26714   5.302   1.344   1.877
60174W        W26715  11.376  30.181   0.944
60175W        W26716  22.033  24.784  12.710
60176W        W26717  43.082  25.735   3.681
60177W        W26718   1.894  24.244  13.987
60178W        W26719  23.212  42.019   3.649
60179W        W26720   4.783   2.148   0.982
60180W        W26721  14.334  20.463  11.342
60181W        W26722  39.386  43.823   1.905
60182W        W26723  11.712   5.282  11.596
60183W        W26724  24.981   9.594  14.270
60184W        W26725  29.664  13.065   2.442
60185W        W26726  44.863  39.003  11.030
60186W        W26727   0.402  13.584   2.409
60187W        W26728   0.995  28.175   4.130
60188W        W26729  26.183  41.490   1.378
60189W        W26730   2.042  43.696  11.319
60190W        W26731  34.806  17.358   2.325
60191W        W26732   6.431  23.113   4.427
60192W        W26733   8.367  12.779   1.629
60193W        W26734  20.018  27.088   1.907
60194W        W26735   7.621   8.975  11.974
60195W        W26736  16.788  13.404  12.912
60196W        W26737  14.854  28.037   3.251
60197W        W26738  29.687  18.714  12.479
60198W        W26739  43.008  40.889  11.829
60199W        W26740  17.621  15.890  12.071
60200W        W26741   2.778  20.001  13.604
60201W        W26742  31.931   2.145  12.089
60202W        W26743  23.558  21.224  11.651
60203W        W26744  30.998  34.871   3.891
60204W        W26745  29.820  40.521  14.689
60205W        W26746   9.786  21.631   1.569
60206W        W26747  32.198  18.298  11.952
60207W        W26748  38.334  41.059   4.156
60208W        W26749  25.480  16.619   3.659
60209W        W26750  39.162  32.276   4.001
60210W        W26751  10.790  24.857   3.115
60211W        W26752  36.457  44.289   0.531
60212W        W26753  30.541  14.164  11.023
60213W        W26754  39.489  16.801   1.752
60214W        W26755   4.612   8.888   3.254
60215W        W26756  31.476  24.766  14.995
60216W        W26757  25.893  28.524  13.980
60217W        W26758   8.154  37.548   4.521
60218W        W26759   9.447  27.666   1.254
60219W        W26760  16.541   8.716   0.366
60220W        W26761  37.115  24.714  11.441
60221W        W26762  26.953  33.519  11.023
60222W        W26763  31.409  35.816   3.016
60223W        W26764  41.921  23.426   2.630
60224W        W26765  17.512   3.953  14.353
60225W        W26766  10.168  11.013  13.410
60226W        W26767  29.062  33.599  11.154
60227W        W26768  23.968  11.787   3.191
60228W        W26769  25.948   8.832  12.810
60229W        W26770  20.033  38.773   4.587
60230W        W26771  26.100  13.700  14.918
60231W        W26772  32.838  30.829  11.552
60232W        W26773  15.315  40.300  11.206
60233W        W26774  22.154  30.314   0.000
60234W        W26775  16.746  12.917  13.061
60235W        W26776  33.921  33.426  12.374
60236W        W26777   7.185  12.397  14.423
60237W        W26778  44.444  20.614  12.480
60238W        W26779  29.605  12.445  12.583
60239W        W26780   5.006   5.148  13.065
60240W        W26781   4.754   7.461  13.704
60241W        W26782  17.763  17.366   3.363
60242W        W26783  22.293  40.062   3.601
60243W        W26784  23.297  32.391  13.095
60244W        W26785  38.002  27.503  12.486
60245W        W26786  24.676  28.958  13.285
60246W        W26787   9.051  23.024   2.123
60247W        W26788  11.245  16.287  12.173
60248W        W26789  16.305  30.980  14.651
60249W        W26790  34.699  28.647   2.008
60250W        W26791  21.616  27.106   0.042
60251W        W26792  27.964   5.806  11.940
60252W        W26793  37.041  24.298  14.004
60253W        W26794  20.317  36.655   1.247
60254W        W26795  19.325  10.827   0.382
60255W        W26796   2.870  41.079  14.555
60256W        W26797  43.112  26.107   1.634
60257W        W26798  19.184  30.117   4.708
60258W        W26799   4.521  36.441   0.427
60259W        W26800   1.320  18.814   2.441
60260W        W26801  30.424  15.721  13.235
60261W        W26802  40.319  20.621  14.749
60262W        W26803  26.980  23.608  10.849
60263W        W26804  17.875  27.729  11.596
60264W        W26805   9.125  27.715  14.544
60265W        W26806  14.164  22.080   1.786
60266W        W26807  41.210  43.374   1.804
60267W        W26808  10.227  28.840   2.784
60268W        W26809  27.766  42.411   2.690
60269W        W26810  16.975   0.547   0.500
60270W        W26811  27.452  22.762  12.933
60271W        W26812  20.325  40.884  11.653
60272W        W26813   3.259  36.769  11.101
60273W        W26814  13.695  16.609   2.338
60274W        W26815   8.407  12.483  14.320
60275W        W26816   5.908  39.911  13.844
60276W        W26817  32.054  35.522  11.166
60277W        W26818  17.787  42.976  11.941
60278W        W26819  31.029   4.590  13.192
60279W        W26820  36.125  23.114  14.010
60280W        W26821  39.266  21.728   3.149
60281W        W26822   1.513  26.475   0.816
60282W        W26823  29.347  20.175  14.460
60283W        W26824  20.667   5.622   5.384
60284W        W26825  37.680  15.298   1.272
60285W        W26826  24.756  43.468  13.598
60286W        W26827   6.769  34.623  11.558
60287W        W26828  28.911  32.506  12.904
60288W        W26829  41.240  28.419  13.083
60289W        W26830  29.973  13.764   3.364
60290W        W26831  15.677  41.064  14.462
60291W        W26832  42.947  11.559  14.023
60292W        W26833  30.580  17.662  13.894
60293W        W26834  15.533  14.130  13.861
60294W        W26835  36.496  12.266   1.207
60295W        W26836  41.928  35.852   4.575
60296W        W26837   6.751  34.380  13.855
60297W        W26838  40.056  13.584  11.873
60298W        W26839  17.480  11.345   0.099
60299W        W26840   3.563   1.800   1.342
60300W        W26841  14.747  33.323   1.978
60301W        W26842  18.390  42.521  11.451
60302W        W26843   5.893   3.947   2.278
60303W        W26844   2.049  28.447  14.132
60304W        W26845  12.257  33.934  14.341
60305W        W26846   7.095  40.330   0.401
60306W        W26847  33.099  28.595  10.666
60307W        W26848  30.192  29.657   0.732
60308W        W26849  39.547  25.216  11.508
60309W        W26850  23.433   7.356  13.943
60310W        W26851  31.417   7.274  14.497
60311W        W26852  28.655  36.227  12.454
60312W        W26853  26.748  13.420  10.847
60313W        W26854   5.216  40.406   4.790
60314W        W26855   3.327   8.615   0.270
60315W        W26856  20.581  35.578   3.113
60316W        W26857  25.983   4.686   1.951
60317W        W26858   6.206  14.164  12.673
60318W        W26859  29.290   0.895   2.198
60319W        W26860  26.198  26.380   1.239
60320W        W26861  24.721  36.763  14.359
60321W        W26862  42.959   3.816  11.207
60322W        W26863  14.997   3.483  10.090
60323W        W26864  40.693  36.908   2.445
60324W        W26865  18.070   7.322   1.358
60325W        W26866   8.829   5.130   3.203
60326W        W26867  34.989   5.279   2.379
60327W        W26868  23.459   6.462   0.959
60328W        W26869  33.585  32.928   1.178
60329W        W26870   9.056  16.674  13.413
60330W        W26871  36.419  39.800   0.977
60331W        W26872  42.070  14.165   0.901
60332W        W26873   8.311  40.288  11.126
60333W        W26874  24.597  24.034  12.190
60334W        W26875   3.574   0.522   0.528
60335W        W26876  41.972  27.121   0.979
60336W        W26877  39.454   2.686  10.469
60337W        W26878  42.199   0.204   2.138
60338W        W26879  26.490  42.956  14.393
60339W        W26880  24.178   0.683   3.560
60340W        W26881  31.440  43.492   0.756
60341W        W26882  35.474  30.671   0.714
60342W        W26883  18.959   6.382   1.754
60343W        W26884  44.493  29.137   1.605
60344W        W26885  44.869   6.138  10.672
60345W        W26886  12.925  10.702  12.188
60346W        W26887  34.791  13.123   4.163
60347W        W26888  10.364  31.604   2.677
60348W        W26889  13.212  28.155  11.554
60349W        W26890  36.277  30.075   2.722
60350W        W26891  10.036   8.881  14.435
60351W        W26892   5.018   7.955   3.225
60352W        W26893  27.091  41.659   2.595
60353W        W26894  39.378  39.494   3.422
60354W        W26895  38.040  16.741   3.387
60355W        W26896  38.078   4.716  11.511
60356W        W26897  33.139  29.219   0.937
60357W        W26898  35.577  41.053   3.021
60358W        W26899  42.482   7.705   3.189
60359W        W26900  36.834  17.348   0.890
60360W        W26901   5.237  14.499   3.278
60361W        W26902  10.029  24.182   0.226
60362W        W26903  28.136  20.497   0.192
60363W        W26904  33.114   6.429   1.807
60364W        W26905  33.436  34.490  12.045
60365W        W26906  41.440  24.560   3.372
60366W        W26907  23.325  33.370   3.551
60367W        W26908  10.869  16.105   3.609
60368W        W26909  32.585  29.939  12.508
60369W        W26910   8.642  31.602  12.187
60370W        W26911  29.389  33.643   1.842
60371W        W26912  30.661  18.262  12.564
60372W        W26913  27.247  42.889   4.637
60373W        W26914  27.972  31.458  14.412
60374W        W26915   9.332  27.666   0.414
60375W        W26916   4.169  21.763   2.891
60376W        W26917  37.783  17.751   0.512
60377W        W26918  24.039  22.604  14.556
60378W        W26919  18.283  20.551  12.873
60379W        W26920  16.714  27.377  14.882
60380W        W26921  21.712  36.574   4.123
60381W        W26922   0.245   7.026  13.930
60382W        W26923   8.051  39.457   3.248
60383W        W26924  39.927  38.726   3.565
60384W        W26925  32.328   6.489   1.296
60385W        W26926  31.785  18.179   3.030
60386W        W26927  32.288  17.287   3.238
60387W        W26928  34.334  40.451  12.728
60388W        W26929  31.840  41.374  12.428
60389W        W26930   3.965  36.742   3.777
60390W        W26931  37.531  40.437  11.894
60391W        W26932  28.415  33.582  14.574
60392W        W26933  16.726  30.751   0.922
60393W        W26934  27.130  38.971   0.697
60394W        W26935  40.892  18.171  11.672
60395W        W26936   8.968  20.251  13.444
60396W        W26937  23.149  20.228   3.675
60397W        W26938  43.409   6.649  10.374
60398W        W26939  15.856  10.517  14.860
60399W        W26940  35.100   2.850  14.966
60400W        W26941  19.864  15.065  10.784
60401W        W26942  37.217  14.392   4.436
60402W        W26943  34.402  28.961  10.650
60403W        W26944  17.829  33.702   1.094
60404W        W26945  35.365  19.892   2.356
60405W        W26946  43.180  17.086   2.798
60406W        W26947  31.478   2.812   3.278
60407W        W26948  36.696   7.647  14.507
60408W        W26949  25.096  28.797   3.771
60409W        W26950  34.084  11.351  12.498
60410W        W26951  11.162  38.541  14.948
60411W        W26952  22.997  43.101  11.757
60412W        W26953   7.660  43.113   0.404
60413W        W26954  14.752  18.531  11.122
60414W        W26955  37.878   2.736   4.858
60415W        W26956  15.659   6.898   3.115
60416W        W26957  17.772  23.643  13.373
60417W        W26958  28.759  42.975   2.777
60418W        W26959  23.773   1.411   4.257
60419W        W26960  28.496  21.531   1.226
60420W        W26961  26.660  41.354   0.067
60421W        W26962  26.643  10.812  11.701
60422W        W26963   9.124  39.914   2.265
60423W        W26964  12.947  39.323  12.197
60424W        W26965   2.740  33.065  12.396
60425W        W26966  14.218  26.603   3.079
60426W        W26967  29.280   5.469  13.298
60427W        W26968   8.227  23.561   1.677
60428W        W26969  31.630  44.793   0.300
60429W        W26970   6.314  33.470   2.858
60430W        W26971  32.223  44.231   1.730
60431W        W26972  37.764  15.074  14.537
60432W        W26973  18.996   9.863   4.127
60433W        W26974  39.165  44.347   5.324
60434W        W26975  24.672  26.714   1.274
60435W        W26976  18.566  35.993  13.416
60436W        W26977  23.232  22.090  12.502
60437W        W26978  12.229   6.319   1.906
60438W        W26979  44.833  23.385  12.447
60439W        W26980   5.135  20.822   0.069
60440W        W26981  16.841  44.516  13.528
60441W        W26982  42.067  15.683  12.717
60442W        W26983   4.977  42.957   9.849
60443W        W26984  11.422  12.019   4.514
60444W        W26985  42.783  19.716  13.685
60445W        W26986  43.676  22.270  11.817
60446W        W26987   1.946  42.478   1.577
60447W        W26988  38.063  14.722  11.373
60448W        W26989  26.167  24.198   1.794
60449W        W26990  26.387  26.469   1.923
60450W        W26991   3.919   4.159  13.684
60451W        W26992  28.435  25.771  11.039
60452W        W26993  30.210   9.107   0.378
60453W        W26994  31.656  28.350  10.680
60454W        W26995  11.184   0.881  13.264
60455W        W26996  27.913  23.582   4.612
60456W        W26997   0.568  14.360   4.063
60457W        W26998  34.619  12.776   3.825
60458W        W26999  23.628   0.477  14.334
60459W        W27000  10.429  17.834   2.290
60460W        W27001  44.681  26.620   4.641
60461W        W27002  29.206  17.975   0.148
60462W        W27003  33.603  34.833  14.773
60463W        W27004  17.162   6.824   5.035
60464W        W27005  20.189  27.595   1.890
60465W        W27006  42.462  29.426   4.507
60466W        W27007  32.357  11.864   3.184
60467W        W27008   2.485   3.896  13.832
60468W        W27009  20.021  31.538  12.091
60469W        W27010  43.514  17.625  12.578
60470W        W27011  34.465  39.458   0.375
60471W        W27012   5.841  33.060  13.534
60472W        W27013   1.653   3.735   3.806
60473W        W27014   6.758  21.463  11.018
60474W        W27015   3.487  26.189  11.778
60475W        W27016   0.761  44.797  10.702
60476W        W27017  25.149  37.285   3.261
60477W        W27018  40.954  35.344   4.275
60478W        W27019  23.408   1.780   0.848
60479W        W27020  40.603  34.205   4.592
60480W        W27021  16.836  19.330  13.887
60481W        W27022   8.134  34.482   3.304
60482W        W27023  21.350  37.359  12.515
60483W        W27024  23.008  20.651  12.642
60484W        W27025  10.741  21.834   1.702
60485W        W27026  30.598  41.109  12.876
60486W        W27027  43.051  42.366  13.064
60487W        W27028  30.460  17.132  13.895
60488W        W27029   9.788  39.522  11.961
60489W        W27030  30.403  44.380   3.688
60490W        W27031  17.315  39.595   0.257
60491W        W27032  34.700  10.417   3.859
60492W        W27033  33.047  34.913  10.431
60493W        W27034  44.737   7.611  10.609
60494W        W27035  10.136   0.398  14.725
60495W        W27036   5.952  18.058   4.049
60496W        W27037  24.452   6.239  13.676
60497W        W27038  23.947  27.538   1.348
60498W        W27039  36.581  40.447   9.902
60499W        W27040  19.256  27.996   0.757
60500W        W27041  16.062   1.873   2.433
60501W        W27042  13.828  44.355  12.491
60502W        W27043  27.066  24.314   3.941
60503W        W27044  20.852   4.484   2.275
60504W        W27045  17.572  27.612  11.151
60505W        W27046  10.774  30.564   0.266
60506W        W27047  13.205  32.764  11.836
60507W        W27048  44.179  43.409  13.944
60508W        W27049  43.744  38.839   0.321
60509W        W27050  34.509  40.074  13.098
60510W        W27051  35.387  13.092   4.787
60511W        W27052  33.945  17.132   1.185
60512W        W27053  35.872   1.694   1.248
60513W        W27054  43.404   0.336  12.119
60514W        W27055  43.954  41.231   3.745
60515W        W27056   4.962   9.410  11.611
60516W        W27057  21.502   4.645   3.949
60517W        W27058  28.755  12.850   9.895
60518W        W27059   2.775  44.408  13.543
60519W        W27060   8.895  31.983   1.117
60520W        W27061  28.012  15.325  11.810
60521W        W27062  25.969   8.899  11.100
60522W        W27063   8.233  26.240  11.567
60523W        W27064  17.639  29.424  12.801
60524W        W27065  35.549  23.688   1.262
60525W        W27066  18.268  25.233   4.077
60526W        W27067  15.469  27.995  14.959
60527W        W27068   2.743  29.901  14.506
60528W        W27069   1.816  25.008  11.593
60529W        W27070  16.149  13.401  14.270
60530W        W27071  33.555  42.399   4.382
60531W        W27072  17.686  26.203   4.851
60532W        W27073  24.810   6.263  14.964
60533W        W27074  43.605  19.692   3.715
60534W        W27075  11.957   6.356  13.796
60535W        W27076  15.754   9.524   4.146
60536W        W27077  16.052  41.821   2.251
60537W        W27078   7.872  41.863   4.957
60538W        W27079  25.548  26.852  13.620
60539W        W27080  25.939  24.202   0.204
60540W        W27081  31.008  23.227  11.146
60541W        W27082  15.621  19.578   0.849
60542W        W27083   2.848   7.682  13.032
60543W        W27084  14.055   1.949  10.208
60544W        W27085   2.148   5.720  12.079
60545W        W27086   4.958  15.327  12.591
60546W        W27087   0.413  13.701  14.225
60547W        W27088  31.086  32.422  13.270
60548W        W27089  37.111  15.740  12.995
60549W        W27090  41.304   3.028  11.982
60550W        W27091  28.747  14.763   4.514
60551W        W27092  40.284  34.340   1.006
60552W        W27093  29.922  10.209   5.462
60553W        W27094  12.612   6.339   0.988
60554W        W27095   8.572   1.907   2.739
60555W        W27096  27.120  36.387  13.097
60556W        W27097   9.786  19.872  13.798
60557W        W27098  28.670  15.038   0.409
60558W        W27099  35.167  39.408   3.184
60559W        W27100   7.922  29.453   2.721
60560W        W27101  28.510   7.743   4.158
60561W        W27102   2.915   7.433  11.556
60562W        W27103  39.260  33.260  14.085
60563W        W27104   1.783  24.545   1.421
60564W        W27105   7.464   9.130   1.314
60565W        W27106   7.324  40.795   2.025
60566W        W27107  41.122  20.223  10.738
60567W        W27108   0.766  38.917   3.091
60568W        W27109  15.177  43.434   2.397
60569W        W27110  23.469  34.161  14.569
60570W        W27111  11.095  18.767  10.651
60571W        W27112  18.588  12.941   3.972
60572W        W27113  44.932  25.439   4.133
60573W        W27114   6.492  17.831  14.793
60574W        W27115  19.522  11.131  11.968
60575W        W27116  26.453  30.419  11.174
60576W        W27117  34.846  36.465   0.426
60577W        W27118  37.185   7.951   1.923
60578W        W27119  34.885  21.540   4.132
60579W        W27120  42.059  27.409   1.441
60580W        W27121   1.411  21.921   0.028
60581W        W27122  19.403  43.515  11.157
60582W        W27123  17.275   9.750   4.649
60583W        W27124  26.445  20.257  12.073
60584W        W27125  29.602  36.852   3.129
60585W        W27126   1.382  17.756   0.545
60586W        W27127  43.568  42.086   0.398
60587W        W27128  38.380  21.729   0.807
60588W        W27129  19.137  40.055   1.017
60589W        W27130   1.630  44.809   3.003
60590W        W27131  32.982   1.214   1.779
60591W        W27132  29.290  24.029  13.422
60592W        W27133   3.248  30.689   4.955
60593W        W27134  30.453  30.887   3.148
60594W        W27135  39.133  22.844  11.143
60595W        W27136  44.839  17.788  10.552
60596W        W27137  29.527  39.795   2.111
60597W        W27138  19.661   6.374  14.302
60598W        W27139  36.896  13.012  11.460
60599W        W27140  17.129  22.738  10.976
60600W        W27141  33.237  19.137  11.597
60601W        W27142  29.088  23.109  11.229
60602W        W27143  24.699  13.708  12.301
60603W        W27144  28.060   7.445   2.302
60604W        W27145  38.314  17.841  14.035
60605W        W27146  25.274  18.308  14.842
60606W        W27147   8.444  41.340  10.327
60607W        W27148  13.936  11.576  11.096
60608W        W27149  27.882  30.681  11.919
60609W        W27150  27.497  16.796  14.720
60610W        W27151  41.901  37.945   3.710
60611W        W27152   3.428  11.163   0.229
60612W        W27153  20.759  43.344   4.294
60613W        W27154  13.819   4.491   1.957
60614W        W27155  32.013  19.214  13.594
60615W        W27156  24.032  33.756  12.068
60616W        W27157  31.448  27.996   3.613
60617W        W27158  40.541   1.324   0.777
60618W        W27159  36.807  32.001   3.479
60619W        W27160  20.554  25.063  11.033
60620W        W27161  40.541   9.829   4.626
60621W        W27162  17.313   8.364  13.440
60622W        W27163  32.606  30.568  14.343
60623W        W27164  29.511   1.042   2.657
60624W        W27165  35.558  20.303   3.710
60625W        W27166  23.841  27.194  11.930
60626W        W27167  14.731  42.332   0.907
60627W        W27168  24.128  20.702  12.596
60628W        W27169  22.713  12.023   1.099
60629W        W27170  24.899  13.763   3.640
60630W        W27171  29.624   9.055  12.656
60631W        W27172  28.740  33.515   3.786
60632W        W27173   5.675  24.955  13.504
60633W        W27174   3.269   9.870  13.884
60634W        W27175  36.404  30.091  14.570
60635W        W27176  44.935  39.935   1.798
60636W        W27177  21.531  12.502   4.300
60637W        W27178  43.555  44.299   1.959
60638W        W27179  23.513  31.439  13.859
60639W        W27180  10.860  14.130   3.441
60640W        W27181  20.021  28.558  10.819
60641W        W27182  38.827  36.458   1.701
60642W        W27183   3.901  41.129   0.019
60643W        W27184  27.500  23.330  13.016
60644W        W27185  39.826   5.288   0.686
60645W        W27186   1.283   2.401   0.520
60646W        W27187  19.821  36.064   0.060
60647W        W27188   7.956   1.989   0.876
60648W        W27189  15.836   6.295   3.707
60649W        W27190  40.814  38.625  14.722
60650W        W27191  44.023  15.647   4.573
60651W        W27192  16.490   8.318  14.551
60652W        W27193  33.965  40.473   4.103
60653W        W27194   7.908  10.505  11.449
60654W        W27195  18.150  26.594  12.415
60655W        W27196   4.070   3.136  13.479
60656W        W27197  20.263  35.842  12.162
60657W        W27198  28.176  27.656   2.702
60658W        W27199  35.033  37.996   4.832
60659W        W27200  23.748  26.166  12.096
60660W        W27201  31.762   5.608   3.634
60661W        W27202  33.389  17.735   0.842
60662W        W27203   9.298  13.990   3.728
60663W        W27204  27.462   0.399   3.241
60664W        W27205   7.777   5.743   3.364
60665W        W27206  35.825  44.575  11.727
60666W        W27207  35.399  36.870   3.506
60667W        W27208  21.078   4.346   4.022
60668W        W27209  34.156  41.284  14.872
60669W        W27210  40.144   5.722   0.817
60670W        W27211  43.378  44.800   1.976
60671W        W27212  38.170  32.433   3.298
60672W        W27213  44.768  39.319   0.139
60673W        W27214   1.296  16.668  12.471
60674W        W27215  35.948  30.657   2.362
60675W        W27216   4.946  38.873  12.501
60676W        W27217   3.202  11.894  14.316
60677W        W27218  43.090   6.743   4.680
60678W        W27219  24.577  13.896   0.120
60679W        W27220  27.880  28.884  11.168
60680W        W27221   0.833  11.761  14.705
60681W        W27222   2.804  35.343   0.236
60682W        W27223  27.117  19.578   3.749
60683W        W27224  18.691  23.461  11.420
60684W        W27225  32.589   3.257   2.395
60685W        W27226   7.889  14.842  11.998
60686W        W27227  30.655  39.904   1.263
60687W        W27228   0.949  20.642   4.238
60688W        W27229  37.536  41.297   3.105
60689W        W27230  12.610  44.283  13.030
60690W        W27231  42.775  27.558  12.015
60691W        W27232  27.389  41.932  11.424
60692W        W27233  40.394  19.239   1.630
60693W        W27234   7.940  25.350  14.816
60694W        W27235   7.899   0.072  12.559
60695W        W27236  41.928  27.496   4.105
60696W        W27237  38.017  38.247  12.920
60697W        W27238  33.906  15.203   4.552
60698W        W27239  35.617   2.908  13.019
60699W        W27240  20.045  32.374  11.230
60700W        W27241  32.189  13.550   0.249
60701W        W27242  39.303  43.070  14.837
60702W        W27243  36.952  29.000  13.381
60703W        W27244  37.358  34.217  12.351
60704W        W27245  44.611  11.735   5.142
60705W        W27246  21.852  17.764  11.304
60706W        W27247  29.422  40.302   4.628
60707W        W27248  42.143  33.275  11.215
60708W        W27249  38.939  14.712  14.355
60709W        W27250  13.056  42.960  11.270
60710W        W27251  30.714  31.307   3.024
60711W        W27252  32.879   2.813  13.864
60712W        W27253  22.663  43.477  13.922
60713W        W27254  14.362   5.648  12.193
60714W        W27255  28.389  25.410   0.527
60715W        W27256   1.674  34.343  10.757
60716W        W27257   5.306  35.676  12.952
60717W        W27258   2.928  20.118   4.896
60718W        W27259  11.831  33.137  14.705
60719W        W27260  29.705  36.640   0.079
60720W        W27261  32.887  36.416  11.572
60721W        W27262  34.202  26.352   2.936
60722W        W27263  27.530   1.772   4.091
60723W        W27264  42.230  21.055  11.449
60724W        W27265  42.445   6.171   3.379
60725W        W27266   7.390  15.128   2.967
60726W        W27267  26.842  18.868  11.706
60727W        W27268  22.152  18.964  11.166
60728W        W27269  16.332   9.701   0.897
60729W        W27270  37.938  42.719   2.545
60730W        W27271  38.854   1.081   0.346
60731W        W27272  16.619  29.864   5.025
60732W        W27273   4.854  39.749  10.937
60733W        W27274  12.189  10.584  13.748
60734W        W27275  26.165  13.933   4.625
60735W        W27276   7.414  16.551  12.350
60736W        W27277  36.946  31.413  11.144
60737W        W27278   9.131  26.098  11.639
60738W        W27279  39.023  25.216  12.363
60739W        W27280  20.638  36.161  12.018
60740W        W27281  24.683  31.102  11.518
60741W        W27282   9.111   3.344  14.454
60742W        W27283  10.282  21.019   3.594
60743W        W27284  40.248   0.292  10.921
60744W        W27285  22.302  13.661   5.131
60745W        W27286  10.795  33.921  12.087
60746W        W27287   6.009  43.247   4.156
60747W        W27288  13.658  39.562  13.937
60748W        W27289  10.119   1.590  10.422
60749W        W27290  44.029  24.794  14.393
60750W        W27291  10.871  16.301  10.987
60751W        W27292  12.010  13.114  13.809
60752W        W27293  38.212  12.866   0.052
60753W        W27294  26.923   6.113  14.488
60754W        W27295  13.771  34.997  14.802
60755W        W27296  36.733  19.184  11.760
60756W        W27297  24.126  17.192   5.123
60757W        W27298  23.979  41.500  11.679
60758W        W27299  27.936   5.663  14.268
60759W        W27300  42.375  14.954  10.824
60760W        W27301   7.834  41.378  13.402
60761W        W27302  10.716   4.562  10.597
60762W        W27303  13.942  17.685  12.157
60763W        W27304  44.358  41.839  13.701
60764W        W27305  22.984  24.690   1.007
60765W        W27306   9.706   7.800  12.161
60766W        W27307  22.839  37.490  14.360
60767W        W27308   7.365  44.869  11.390
60768W        W27309  15.893  29.194  11.176
60769W        W27310   0.484  16.815  14.671
60770W        W27311  28.990   7.745   3.337
60771W        W27312  35.144  20.301   0.255
60772W        W27313  11.631   8.936   3.655
60773W        W27314  30.173   5.287   2.757
60774W        W27315   8.258  25.753  11.402
60775W        W27316   1.155  24.573   4.594
60776W        W27317   2.779  28.397   1.747
60777W        W27318  44.976  18.160  13.321
60778W        W27319  12.358  27.679   1.960
60779W        W27320   1.982   7.140  11.538
60780W        W27321  24.513  21.692  11.232
60781W        W27322   1.279  10.717   2.083
60782W        W27323  14.957  39.648  11.661
60783W        W27324  20.916  36.050   4.179
60784W        W27325  37.400  44.751   3.086
60785W        W27326  11.404  24.670   0.587
60786W        W27327  38.032  31.925   0.428
60787W        W27328  23.128  34.085  11.524
60788W        W27329  39.885  28.058   3.255
60789W        W27330   8.449  29.478   2.357
60790W        W27331  35.087   6.022   9.823
60791W        W27332  26.512  43.343   4.197
60792W        W27333   2.548  41.584   0.810
60793W        W27334   5.740  13.838  13.451
60794W        W27335  44.876  26.457  14.000
60795W        W27336  40.252  32.338  13.500
60796W        W27337   6.902  14.296   0.698
60797W        W27338  31.206   2.217   5.461
60798W        W27339  11.300  32.243   1.785
60799W        W27340  44.497  15.034   0.340
60800W        W27341  23.236   4.025   2.845
60801W        W27342  39.313   5.239   4.106
60802W        W27343   5.060  32.099  10.637
60803W        W27344   0.529  31.141  12.662
60804W        W27345  18.985  11.240  14.507
60805W        W27346  36.392  41.296  14.356
60806W        W27347  26.406   8.732  12.026
60807W        W27348  11.168   9.605   2.209
60808W        W27349   9.031  10.694   1.843
60809W        W27350  21.582  13.827  10.368
60810W        W27351  36.347   9.368  10.586
60811W        W27352   4.836  44.947  12.409
60812W        W27353   8.877  20.082   2.508
60813W        W27354  41.894  10.601   4.273
60814W        W27355  32.527  25.836   1.338
60815W        W27356  25.419  13.666  14.466
60816W        W27357  20.047  42.092  10.560
60817W        W27358  43.022  44.272   3.553
60818W        W27359  13.870  29.982   1.379
60819W        W27360  20.092  25.978  12.458
60820W        W27361  38.020  42.812   9.974
60821W        W27362  19.302  14.292   0.648
60822W        W27363  24.227  33.562   1.876
60823W        W27364  14.481  40.273   5.125
60824W        W27365  37.930  33.287   1.688
60825W        W27366  32.828  11.569   2.438
60826W        W27367  11.304  16.540   2.919
60827W        W27368  12.086  33.019  10.128
60828W        W27369   0.427  29.478   0.768
60829W        W27370  14.222  27.071  12.454
60830W        W27371  24.264   0.852  12.696
60831W        W27372  30.627  28.410  14.249
60832W        W27373  39.022   0.012  11.177
60833W        W27374  32.404  24.525   2.210
60834W        W27375  38.977   8.639   4.671
60835W        W27376  32.225  32.886   3.145
60836W        W27377   5.361  40.944   0.783
60837W        W27378  12.786  33.757  10.915
60838W        W27379  34.295  31.359   1.688
60839W        W27380  39.596  13.199  12.544
60840W        W27381  39.732  39.255  13.390
60841W        W27382  35.631  31.391   3.761
60842W        W27383  26.023   6.413   1.825
60843W        W27384  24.444  30.022  12.843
60844W        W27385  41.243  32.506   4.805
60845W        W27386  11.148  35.788  13.126
60846W        W27387   3.968   8.710  11.211
60847W        W27388  22.056  39.556   1.845
60848W        W27389  34.783  12.139   3.174
60849W        W27390  23.047  19.559  12.197
60850W        W27391  34.936   5.334  13.904
60851W        W27392   4.753  18.220   2.274
60852W        W27393  37.332   6.743  13.084
60853W        W27394  34.376  36.414  14.678
60854W        W27395  14.591  30.911   3.180
60855W        W27396  44.320   2.613  14.013
60856W        W27397  43.523  25.651  11.489
60857W        W27398  24.579  35.876   2.848
60858W        W27399  18.635   1.726   3.125
60859W        W27400   2.974   8.355   2.897
60860W        W27401  11.894  43.980  14.900
60861W        W27402  29.620  39.593  13.379
60862W        W27403  10.356  26.398   2.257
60863W        W27404   3.698  17.621  14.970
60864W        W27405  20.552  27.985   1.899
60865W        W27406  42.973  36.344  13.893
60866W        W27407   3.813  33.542  12.620
60867W        W27408  25.187  44.924  12.455
60868W        W27409   3.654  41.762   0.220
60869W        W27410  27.279  26.536   2.785
60870W        W27411  20.744   1.335  14.370
60871W        W27412  13.366  10.789  10.871
60872W        W27413  35.887  43.295   2.250
60873W        W27414   5.780  27.645   0.875
60874W        W27415  22.741  12.990   2.759
60875W        W27416  37.777  32.413   2.608
60876W        W27417  18.282  25.048  13.773
60877W        W27418  25.035  11.224   0.266
60878W        W27419  12.303  35.253   4.557
60879W        W27420  10.038  16.196   2.002
60880W        W27421  12.446  12.294   3.661
60881W        W27422  44.969  30.852  14.731
60882W        W27423   7.302  19.870  12.123
60883W        W27424  31.078   3.734  12.587
60884W        W27425  27.857  39.970   4.187
60885W        W27426  29.478   4.051   4.204
60886W        W27427  38.774  38.549  11.549
60887W        W27428  17.272   7.756  14.516
60888W        W27429   0.197  36.108  10.764
60889W        W27430  38.226  20.030  13.495
60890W        W27431  32.539  34.967  10.631
60891W        W27432   4.638   5.247  13.417
60892W        W27433  12.796  35.501   0.445
60893W        W27434  37.381  15.233   2.854
60894W        W27435   6.600  34.352  14.351
60895W        W27436  39.660   0.393  13.917
60896W        W27437  43.740  23.735   3.286
60897W        W27438   6.457  32.928  10.653
60898W        W27439   1.018  11.599   0.698
60899W        W27440   4.436  35.357   4.252
60900W        W27441  33.071   4.127  10.368
60901W        W27442  38.482  13.184   0.813
60902W        W27443  38.911  20.281  11.698
60903W        W27444  37.768  24.351   2.903
60904W        W27445   6.870  42.835  12.505
60905W        W27446  17.737  36.136  11.070
60906W        W27447  28.495  32.798  11.080
60907W        W27448  25.476  18.122   1.772
60908W        W27449  37.586  39.399   3.260
60909W        W27450   1.894   1.556   2.849
60910W        W27451  10.390  28.473  14.500
60911W        W27452   9.367  26.783  10.404
60912W        W27453  20.667  42.051   0.206
60913W        W27454  24.062   0.249  14.552
60914W        W27455  13.338   7.274   4.172
60915W        W27456  10.881  13.343   0.024
60916W        W27457  17.004  39.510   2.774
60917W        W27458  26.510  43.736   2.931
60918W        W27459  15.609  27.650  13.423
60919W        W27460  32.613  29.522  12.894
60920W        W27461   1.884   3.356   4.174
60921W        W27462  43.888   6.397   3.218
60922W        W27463   1.358   6.720   3.520
60923W        W27464   5.417   1.283  14.812
60924W        W27465  30.595  13.722  13.519
60925W        W27466  19.368  25.771   0.636
60926W        W27467   9.194   1.271   4.159
60927W        W27468  43.929   7.892  12.763
60928W        W27469  29.161   1.458  12.893
60929W        W27470   1.024  33.547   4.069
60930W        W27471   6.277  26.935   2.237
60931W        W27472  27.710   0.476  13.153
60932W        W27473  42.287   5.333   4.859
60933W        W27474  38.068  41.860  13.059
60934W        W27475  31.350  19.057   2.625
60935W        W27476  36.448  32.354   4.857
60936W        W27477   1.953   9.682  13.493
60937W        W27478  42.695  39.854  12.557
60938W        W27479  34.513   6.460   0.861
60939W        W27480  19.055  34.410   3.276
60940W        W27481  41.367   1.969   4.108
60941W        W27482  19.295  16.302  10.786
60942W        W27483  38.945  36.939  11.977
60943W        W27484   1.868  39.811   3.336
60944W        W27485  22.257   3.454   0.859
60945W        W27486  23.627  30.603   1.240
60946W        W27487  30.168  42.862   0.792
60947W        W27488   9.653  35.290   0.972
60948W        W27489  17.349  42.020  12.931
60949W        W27490  30.592   7.271  11.469
60950W        W27491  38.043   4.755   0.341
60951W        W27492   6.663  44.880   2.160
60952W        W27493  26.936  15.605  13.030
60953W        W27494  44.865  27.679  14.938
60954W        W27495   7.210  33.032  14.406
60955W        W27496   8.538  26.468  14.807
60956W        W27497  27.038  17.265   1.201
60957W        W27498  40.419  24.469   3.557
60958W        W27499  11.674  39.798   4.033
60959W        W27500  35.982  41.778   1.251
60960W        W27501  39.672  12.851   9.895
60961W        W27502  34.595  39.433   4.488
60962W        W27503  18.545  17.332   0.003
60963W        W27504  38.247  29.687  13.086
60964W        W27505  26.255  41.290  11.508
60965W        W27506  15.635  36.184  12.032
60966W        W27507  19.002  44.400   0.858
60967W        W27508   2.803   8.994   4.652
60968W        W27509  41.947  27.515   0.608
60969W        W27510  20.449  25.947  13.038
60970W        W27511  22.091  36.934   1.734
60971W        W27512  30.532  25.272   2.149
60972W        W27513  28.565  25.963   0.964
60973W        W27514  36.965  12.269   4.607
60974W        W27515  30.496  36.564  14.777
60975W        W27516   2.908   0.931   3.103
60976W        W27517   6.813   9.890  13.386
60977W        W27518  37.082  12.728   0.411
60978W        W27519   8.887  40.600  12.529
60979W        W27520  10.436  34.536   5.026
60980W        W27521   5.692   1.491   0.331
60981W        W27522  26.050  14.068  12.100
60982W        W27523  24.730  18.601  11.519
60983W        W27524  14.050  34.862   2.716
60984W        W27525  23.603  41.270  12.892
60985W        W27526  44.473  38.663   2.388
60986W        W27527   2.948  37.080  14.425
60987W        W27528  12.161  13.630   0.044
60988W        W27529  35.836   0.710   1.800
60989W        W27530  43.239  31.106  14.477
60990W        W27531  20.191  44.281   4.101
60991W        W27532  32.163   6.690  10.685
60992W        W27533  10.144  38.473  14.762
60993W        W27534   4.765   2.532  11.650
60994W        W27535  43.868  16.079  14.052
60995W        W27536  14.710  22.692  12.454
60996W        W27537  30.158  20.912   4.892
60997W        W27538  28.023  32.983   0.485
60998W        W27539  12.120  43.961   3.025
60999W        W27540  42.024   1.958  13.848
61000W        W27541  26.252  40.232  10.801
61001W        W27542  19.417  40.423  11.619
61002W        W27543  24.630   3.246   1.806
61003W        W27544   8.993  15.975  12.975
61004W        W27545  21.697  44.909   0.308
61005W        W27546  30.620  25.752  11.575
61006W        W27547  27.119  42.518   1.344
61007W        W27548  28.431  26.162  12.865
61008W        W27549  44.572  42.274   2.831
61009W        W27550  25.518  41.821   2.343
61010W        W27551   9.639  20.189   0.430
61011W        W27552  21.652  27.547   4.402
61012W        W27553  23.781  20.998   3.894
61013W        W27554   2.446  10.917  14.387
61014W        W27555   8.866  19.630  13.865
61015W        W27556  23.522  19.731  10.657
61016W        W27557  28.970  14.801   2.325
61017W        W27558  30.021   1.206  14.322
61018W        W27559  31.662  17.266  13.308
61019W        W27560   7.307  15.097   4.765
61020W        W27561  22.629  27.656  10.240
61021W        W27562   1.272   7.412  13.028
61022W        W27563  29.502  19.195   4.775
61023W        W27564  26.443  21.942  12.442
61024W        W27565  25.128  26.640  11.842
61025W        W27566  34.446   0.839   2.811
61026W        W27567  41.411  36.533   4.536
61027W        W27568  20.229  10.188  12.433
61028W        W27569   5.218  14.007   3.141
61029W        W27570  17.251   0.860   1.159
61030W        W27571  36.904  33.847  13.407
61031W        W27572  31.662  37.881  13.338
61032W        W27573  23.023  17.789   0.684
61033W        W27574  33.306   2.413  12.151
61034W        W27575  40.017  41.095  12.107
61035W        W27576  20.501  30.443  11.923
61036W        W27577   8.918   2.674   2.874
61037W        W27578   2.508  37.954   1.765
61038W        W27579   6.170   1.138   1.791
61039W        W27580  26.611   7.375   1.367
61040W        W27581   5.183  35.745  11.183
61041W        W27582  26.681   2.885  12.561
61042W        W27583  30.594  17.641   3.346
61043W        W27584  19.249   5.568   3.896
61044W        W27585   1.233  12.727   4.486
61045W        W27586   7.738  14.351  14.079
61046W        W27587  27.134  30.394   4.014
61047W        W27588   3.041  25.207   1.051
61048W        W27589  33.065  15.268   3.280
61049W        W27590  38.918   3.168   4.062
61050W        W27591  18.159   4.272   0.492
61051W        W27592  14.016  28.887   3.242
61052W        W27593   7.112  20.521   3.374
61053W        W27594  24.024  28.653   1.882
61054W        W27595  41.849  29.665   0.423
61055W        W27596   0.409  30.095  14.928
61056W        W27597  38.521  36.055  10.654
61057W        W27598   3.283  24.397   3.132
61058W        W27599  20.594   8.896  11.949
61059W        W27600  40.825   3.893   2.637
61060W        W27601   9.325  25.018   3.808
61061W        W27602  42.504  40.001   0.478
61062W        W27603  41.547  43.702   4.807
61063W        W27604   7.440  21.037   2.325
61064W        W27605   0.309   7.285   2.968
61065W        W27606  41.123  18.375   1.433
61066W        W27607  20.686   5.131  10.448
61067W        W27608  25.369  30.028  13.305
61068W        W27609  26.998  34.597  14.326
61069W        W27610   1.270  33.503  10.717
61070W        W27611  24.640  11.602   1.841
61071W        W27612  18.655  23.211   4.329
61072W        W27613  44.682  22.546   4.118
61073W        W27614  26.124  35.853  10.699
61074W        W27615   1.929  42.678   3.139
61075W        W27616  36.180  38.345   1.996
61076W        W27617  40.246  30.987  11.215
61077W        W27618   5.318  20.265   4.786
61078W        W27619   6.005  37.285   0.277
61079W        W27620  19.095  17.140   2.845
61080W        W27621  30.479   1.431  13.583
61081W        W27622  30.449  21.692  14.483
61082W        W27623  35.364  39.563   3.636
61083W        W27624  31.658  38.125   2.863
61084W        W27625   0.842  16.690  14.309
61085W        W27626  35.064  36.214  11.137
61086W        W27627  12.782  12.412  13.798
61087W        W27628  13.617  23.247  12.515
61088W        W27629  28.093  21.541   1.843
61089W        W27630  19.707   5.486  11.966
61090W        W27631  39.196  34.155  11.146
61091W        W27632  22.732  24.967  13.995
61092W        W27633  18.181   1.291  14.439
61093W        W27634  42.799  22.023   1.765
61094W        W27635   0.874   6.838   0.491
61095W        W27636  20.756   3.725   3.755
61096W        W27637  28.925  14.366   1.321
61097W        W27638  17.608  19.027   4.101
61098W        W27639  31.051  21.224   3.303
61099W        W27640   9.129   7.762  13.038
61100W        W27641  22.154  19.804  14.308
61101W        W27642   7.865  44.725  13.923
61102W        W27643  10.879  24.306   3.170
61103W        W27644  42.332   8.216  11.151
61104W        W27645   3.472  28.574   1.287
61105W        W27646   7.854   5.523  13.997
61106W        W27647  14.760  33.799  10.749
61107W        W27648  14.244  18.640   4.859
61108W        W27649  44.434   1.422   0.340
61109W        W27650   2.288  24.502  13.387
61110W        W27651  34.078  30.464   2.022
61111W        W27652  39.655   0.249   3.671
61112W        W27653  28.258  42.945   9.933
61113W        W27654  38.652  30.555   4.310
61114W        W27655  17.629  30.730   0.892
61115W        W27656  25.690   5.500   1.361
61116W        W27657  26.614   0.550   0.948
61117W        W27658  15.152  31.599  12.555
61118W        W27659  39.821  18.398   2.248
61119W        W27660  33.045  11.989  10.175
61120W        W27661  35.951  15.368   1.197
61121W        W27662  24.171  30.497  12.361
61122W        W27663  14.258  39.240   0.582
61123W        W27664  32.495  14.254   1.453
61124W        W27665  31.290   9.490  13.478
61125W        W27666  22.737  11.035  10.727
61126W        W27667  42.812  18.007  13.184
61127W        W27668  16.327  37.423  10.882
61128W        W27669  35.853   3.356  12.354
61129W        W27670  13.604   7.891  12.047
61130W        W27671  17.600  29.670  14.313
61131W        W27672   6.273  11.339   1.617
61132W        W27673  39.450   3.026   4.149
61133W        W27674  31.449   7.164  10.601
61134W        W27675  31.558  19.399  13.410
61135W        W27676  12.362  16.226   3.161
61136W        W27677  23.059  24.220   4.328
61137W        W27678  23.523   2.725   2.277
61138W        W27679   4.924  31.080  11.265
61139W        W27680   2.631   4.690  11.524
61140W        W27681  39.565  11.946  14.158
61141W        W27682  40.510  10.350  11.272
61142W        W27683  14.164  35.313   4.373
61143W        W27684   8.310  35.796  12.101
61144W        W27685  31.405  31.482   4.643
61145W        W27686   0.463   7.212  14.389
61146W        W27687   1.763  25.840   9.690
61147W        W27688  29.873  15.665   1.733
61148W        W27689  22.777  27.361   4.914
61149W        W27690  15.551  22.595  12.132
61150W        W27691  30.974  32.115  13.931
61151W        W27692  22.688   5.707   0.956
61152W        W27693   9.731  12.754  13.815
61153W        W27694  14.717  21.816  13.437
61154W        W27695  11.815   6.059   5.123
61155W        W27696   6.879   8.445  12.895
61156W        W27697   5.480   7.410   3.380
61157W        W27698   8.185  40.351  14.011
61158W        W27699  33.374  33.354   1.396
61159W        W27700  10.030  16.080   4.437
61160W        W27701  21.220  29.062   0.328
61161W        W27702  32.663  43.170  11.967
61162W        W27703   9.076  18.664  10.523
61163W        W27704  16.423  18.172  13.075
61164W        W27705   9.531  16.360  12.092
61165W        W27706  21.806  12.025   0.304
61166W        W27707  33.642  36.544  11.972
61167W        W27708  38.895  42.428   2.602
61168W        W27709  38.348   8.213  12.998
61169W        W27710  16.237  17.790  12.129
61170W        W27711   5.401  38.849   0.685
61171W        W27712  12.146  11.954  10.597
61172W        W27713   0.315  27.463  11.989
61173W        W27714  34.624   6.488   3.045
61174W        W27715  17.484   5.216   4.484
61175W        W27716  20.311  15.364   0.002
61176W        W27717  43.470  19.595   3.227
61177W        W27718   0.395  44.094   0.278
61178W        W27719  29.072   9.453  11.151
61179W        W27720  40.587  29.330  12.582
61180W        W27721  25.559  25.472  11.635
61181W        W27722  12.160  20.027  14.203
61182W        W27723  36.596  37.487   1.289
61183W        W27724  11.567  25.662  10.795
61184W        W27725  24.799  21.933  12.184
61185W        W27726   8.299   8.161   1.264
61186W        W27727   8.558  43.783   3.781
61187W        W27728  43.767  39.505  13.608
61188W        W27729  20.172   1.002  10.012
61189W        W27730  31.482   0.913   0.508
61190W        W27731  28.380  37.900  10.683
61191W        W27732  41.441   3.548  12.921
61192W        W27733  16.137  22.893  12.757
61193W        W27734  32.064  34.033  10.377
61194W        W27735  27.469  23.699   4.852
61195W        W27736   4.103  26.117   0.664
61196W        W27737  25.234  44.392   1.207
61197W        W27738  43.614  21.021   3.598
61198W        W27739  30.995   1.151   3.633
61199W        W27740  26.653   6.752   2.758
61200W        W27741  17.734  22.967   2.758
61201W        W27742   4.480  33.481  13.018
61202W        W27743  16.817  12.296   0.858
61203W        W27744   6.703  13.664  14.687
61204W        W27745  36.601   4.777  12.880
61205W        W27746   4.660  35.179  10.491
61206W        W27747  41.048  17.383   0.410
61207W        W27748   2.254  24.698   3.696
61208W        W27749  28.589  28.905  14.958
61209W        W27750   5.334  33.086  14.250
61210W        W27751  33.925  16.190   3.705
61211W        W27752  12.017  44.516   4.757
61212W        W27753  39.198  24.980   4.532
61213W        W27754  34.463  28.242   1.792
61214W        W27755  10.959  11.756  11.588
61215W        W27756  18.741   9.858   3.313
61216W        W27757  44.861  16.221   4.390
61217W        W27758   3.253   5.221  10.929
61218W        W27759   3.837  16.220   4.745
61219W        W27760  24.376  35.925  14.930
61220W        W27761  33.428   4.224   0.704
61221W        W27762  20.682  38.520  11.522
61222W        W27763  18.610  33.938  10.810
61223W        W27764  39.499   7.950  13.396
61224W        W27765   4.364  12.162   0.817
61225W        W27766  43.384  38.918   3.065
61226W        W27767   8.428  39.392   0.803
61227W        W27768  37.347  43.961  12.027
61228W        W27769  39.179  32.505   0.340
61229W        W27770  38.060  39.078   3.163
61230W        W27771  21.808  13.836   2.760
61231W        W27772  39.826  24.482  14.987
61232W        W27773  44.646  23.291   3.176
61233W        W27774   2.230  13.890  14.332
61234W        W27775  36.021  42.020   4.463
61235W        W27776  28.441   0.791   2.793
61236W        W27777   0.894  13.482  13.054
61237W        W27778  16.241  15.848  13.271
61238W        W27779  26.691  22.477  11.606
61239W        W27780   1.407   4.291   0.552
61240W        W27781  19.613  17.321  12.226
61241W        W27782  20.570   5.860   1.728
61242W        W27783  34.991  26.051  14.791
61243W        W27784   2.893  19.065   2.961
61244W        W27785  40.600  18.140  13.368
61245W        W27786  27.594   8.147  13.990
61246W        W27787   7.789  14.177  11.226
61247W        W27788  37.480  37.713  11.227
61248W        W27789  42.497  21.107  12.475
61249W        W27790  32.098  33.314   3.860
61250W        W27791  15.461  18.755   0.228
61251W        W27792   3.385  20.963  12.108
61252W        W27793   3.241  20.200  13.447
61253W        W27794  25.042  16.844   3.449
61254W        W27795   0.284  10.371  10.884
61255W        W27796   8.678   7.002   4.737
61256W        W27797  18.058   6.986   3.334
61257W        W27798   8.463  41.966   0.066
61258W        W27799  25.542  34.970  13.036
61259W        W27800  15.135  12.304  11.464
61260W        W27801  29.670  28.417   0.379
61261W        W27802  13.716  40.738   4.026
61262W        W27803  39.674   3.256  12.555
61263W        W27804   3.390  38.364  14.998
61264W        W27805  41.037  30.027   0.469
61265W        W27806  24.334  37.600   2.876
61266W        W27807  24.025  23.003  10.760
61267W        W27808  14.081  27.480   4.176
61268W        W27809   9.146  26.972  10.847
61269W        W27810  28.454   8.618   5.417
61270W        W27811  37.082  19.282  12.916
61271W        W27812  29.358  21.627   2.333
61272W        W27813  21.493   2.203  14.653
61273W        W27814  35.210  11.139  10.654
61274W        W27815  34.469   3.266  11.457
61275W        W27816  20.521  24.271  11.707
61276W        W27817  39.567  37.373  10.437
61277W        W27818   0.264   2.727   0.356
61278W        W27819   0.910   3.391  13.515
61279W        W27820   4.319  39.419   2.874
61280W        W27821  37.051  12.193  12.466
61281W        W27822  32.292  27.224   2.688
61282W        W27823  35.304  15.761   4.926
61283W        W27824  10.045  43.947  11.134
61284W        W27825  42.531  25.490  13.370
61285W        W27826  42.045  30.119  11.867
61286W        W27827  28.952  37.905  14.019
61287W        W27828  27.817  44.269  11.036
61288W        W27829  24.349  27.201  11.925
61289W        W27830  28.456  18.750  14.953
61290W        W27831  38.796  36.938   1.883
61291W        W27832  24.501  42.378   4.299
61292W        W27833  41.624  33.626   4.101
61293W        W27834  36.550  31.533   3.413
61294W        W27835  37.775  21.767  11.571
61295W        W27836  41.527   0.568   0.008
61296W        W27837  25.613   0.548   0.049
61297W        W27838  20.260  24.450   1.296
61298W        W27839  29.398  12.166  12.168
61299W        W27840  17.054  30.047  11.097
61300W        W27841  43.043  22.205  11.159
61301W        W27842  40.431  42.154   4.604
61302W        W27843  37.841  37.356   1.792
61303W        W27844  25.134  22.534  10.722
61304W        W27845  37.070  40.935   1.330
61305W        W27846  34.611  13.333   1.185
61306W        W27847  32.537  34.449   3.545
61307W        W27848   5.664  11.218  13.270
61308W        W27849   2.381  29.541   2.138
61309W        W27850  32.799   8.304   3.231
61310W        W27851  41.685   0.171   2.177
61311W        W27852  36.036  33.315   3.752
61312W        W27853  12.361  38.397  14.451
61313W        W27854  40.413  35.575   3.614
61314W        W27855  20.715   8.716  14.967
61315W        W27856   0.678  41.550  11.970
61316W        W27857   6.130   4.202  13.539
61317W        W27858   4.086   7.849   0.690
61318W        W27859   3.995  34.655  10.655
61319W        W27860   2.259  42.971   2.810
61320W        W27861   7.922  16.809  12.041
61321W        W27862  16.673  37.506  11.677
61322W        W27863  25.277   1.299  14.265
61323W        W27864  17.744  43.744  12.509
61324W        W27865  33.308  41.972   4.249
61325W        W27866  44.561  10.638  11.995
61326W        W27867  11.806  25.067  14.623
61327W        W27868  31.448  44.090  11.191
61328W        W27869  31.697  16.779   9.914
61329W        W27870  21.675  34.609  13.603
61330W        W27871  41.974  24.638   1.696
61331W        W27872  43.181  13.160   3.187
61332W        W27873  26.139  30.014  11.114
61333W        W27874  11.333  26.099   0.867
61334W        W27875   0.993  19.088  12.020
61335W        W27876  36.071  39.039  13.192
61336W        W27877  16.336  13.970   1.994
61337W        W27878  19.541   1.794   4.975
61338W        W27879   0.383  37.958   4.172
61339W        W27880  20.930  31.613  12.885
61340W        W27881  23.103   6.813   4.052
61341W        W27882   0.819  34.175  12.059
61342W        W27883   6.395  37.461  14.006
61343W        W27884  43.991  13.591  14.444
61344W        W27885   3.707  30.507   3.741
61345W        W27886  40.305  36.905   3.352
61346W        W27887   7.961  41.534   3.203
61347W        W27888  11.082  30.645   4.875
61348W        W27889   3.436  19.214   1.858
61349W        W27890  12.546   7.390   0.613
61350W        W27891  36.950   4.820  12.047
61351W        W27892   6.226  44.877   0.839
61352W        W27893   5.276  15.029   0.374
61353W        W27894  31.689  34.722   4.154
61354W        W27895  44.262  43.345  12.167
61355W        W27896  31.611  27.114  13.831
61356W        W27897  30.617  38.128   2.879
61357W        W27898  35.452  44.272  13.069
61358W        W27899  44.037  11.106  13.336
61359W        W27900  22.275   3.364   2.167
61360W        W27901  42.930  26.260  13.544
61361W        W27902  38.925  27.934  10.671
61362W        W27903  43.909  14.213  11.625
61363W        W27904   2.665  19.267   3.384
61364W        W27905  14.074  26.331   2.250
61365W        W27906   4.312  39.483  14.549
61366W        W27907  29.123  36.953   3.282
61367W        W27908  29.649  43.746  13.558
61368W        W27909  13.330  25.221   5.162
61369W        W27910  22.998  12.047  14.516
61370W        W27911  35.634  43.891  11.200
61371W        W27912  28.063  38.594   1.662
61372W        W27913  11.195  28.437   1.164
61373W        W27914  31.904  25.621  12.323
61374W        W27915  34.834  12.651   4.314
61375W        W27916  12.576   1.022   2.244
61376W        W27917   0.616  20.251   1.241
61377W        W27918  12.459  34.004  13.051
61378W        W27919  37.549   2.883  10.619
61379W        W27920   4.653  17.867   3.470
61380W        W27921  17.351  39.517   1.756
61381W        W27922  43.395  24.429   3.274
61382W        W27923   1.997   8.292  12.271
61383W        W27924   8.150  30.628   1.885
61384W        W27925   6.411  24.525   2.715
61385W        W27926  37.369  19.176  13.360
61386W        W27927  20.845  22.302  13.071
61387W        W27928  25.556  29.454   2.688
61388W        W27929  22.240  40.643  13.875
61389W        W27930  26.683  37.321   1.365
61390W        W27931  27.474  17.580  11.033
61391W        W27932  26.094  22.455  12.055
61392W        W27933  10.858   7.654  11.521
61393W        W27934  13.927   1.715  11.121
61394W        W27935  40.469  19.731   4.459
61395W        W27936   1.999  16.671  14.774
61396W        W27937   3.772  22.477  14.066
61397W        W27938  17.090  18.292  12.028
61398W        W27939  11.325   6.212   2.213
61399W        W27940  26.056  11.107  12.282
61400W        W27941   5.499   1.079   4.902
61401W        W27942  20.800  43.921   3.172
61402W        W27943  27.794   8.681   0.807
61403W        W27944  37.495  16.237   2.316
61404W        W27945  16.357  23.927   4.854
61405W        W27946  40.699  25.644  12.011
61406W        W27947  36.961   6.203  10.528
61407W        W27948   0.486  29.358   1.790
61408W        W27949  37.974  27.950   2.816
61409W        W27950  23.073  25.235   0.181
61410W        W27951  28.865  11.713  10.642
61411W        W27952  42.523  43.106   0.450
61412W        W27953  17.983  30.620   3.124
61413W        W27954  26.945  16.920   4.650
61414W        W27955  44.912  15.547  10.169
61415W        W27956  39.113  36.236  11.291
61416W        W27957   3.317   9.854  14.827
61417W        W27958  12.692  19.736   4.139
61418W        W27959  24.971  29.591   5.014
61419W        W27960  44.765  16.755   2.774
61420W        W27961   6.739  21.690   2.368
61421W        W27962  36.856  25.074  14.693
61422W        W27963  42.863  41.514   0.762
61423W        W27964   2.966  25.609   2.787
61424W        W27965   5.375  31.166   4.567
61425W        W27966  38.892  42.349   4.077
61426W        W27967  32.833   1.831  10.181
61427W        W27968  33.431  43.759   1.766
61428W        W27969  44.984  17.384  11.484
61429W        W27970  31.428  33.414   1.637
61430W        W27971  38.136  29.990   1.478
61431W        W27972  27.492  20.115   4.012
61432W        W27973   2.308  13.615  13.865
61433W        W27974  19.178  31.647   0.915
61434W        W27975   6.297  35.633  12.926
61435W        W27976   8.009  42.822  13.967
61436W        W27977   2.396  18.318  13.440
61437W        W27978  24.183  43.036  13.955
61438W        W27979  33.135  32.877   1.449
61439W        W27980  19.077  26.164   0.426
61440W        W27981   3.195  20.645  10.512
61441W        W27982  16.250  23.273   2.587
61442W        W27983  27.402  44.533   4.646
61443W        W27984  20.105  30.921   3.155
61444W        W27985   4.936  21.407  13.622
61445W        W27986  17.790  36.934  13.929
61446W        W27987  40.106  10.554   2.320
61447W        W27988   7.363  29.909  10.494
61448W        W27989   3.153  37.266  11.987
61449W        W27990  42.565   4.712   0.779
61450W        W27991  29.998   8.679   2.629
61451W        W27992   4.118  20.584  12.611
61452W        W27993  42.442  40.841   1.865
61453W        W27994  10.348  22.251  11.192
61454W        W27995   4.718   0.689   3.988
61455W        W27996  18.247  38.775   2.775
61456W        W27997  24.387  19.769  12.508
61457W        W27998  34.737   5.658   3.629
61458W        W27999  17.152  12.739   0.012
61459W        W28000  17.606  27.175  14.427
61460W        W28001  30.954   3.769  10.345
61461W        W28002  41.809   6.015  14.118
61462W        W28003  19.458  18.579  11.271
61463W        W28004  44.860  11.284  13.109
61464W        W28005  41.220  22.853  11.488
61465W        W28006  12.877   5.857   0.384
61466W        W28007  33.414   8.201  12.992
61467W        W28008  43.957   6.165  10.941
61468W        W28009  43.380  13.228  12.538
61469W        W28010  33.055   9.369   0.450
61470W        W28011  10.303  18.221  13.382
61471W        W28012  20.292  17.610  14.725
61472W        W28013  43.711  31.188  13.108
61473W        W28014   9.860  21.025   4.520
61474W        W28015  10.281  23.701  13.031
61475W        W28016  34.131  29.587  11.162
61476W        W28017  30.859  26.626   4.043
61477W        W28018  35.130  23.695  10.759
61478W        W28019  33.828  41.840  12.804
61479W        W28020   2.462  13.006  12.559
61480W        W28021  22.730   2.948  11.800
61481W        W28022  27.053  15.965   1.428
61482W        W28023  10.139   6.283   3.190
61483W        W28024  20.482  28.872   4.129
61484W        W28025   6.382  42.326  11.955
61485W        W28026  14.554  42.410  10.511
61486W        W28027  29.248  33.330  13.381
61487W        W28028  15.723  35.930   0.760
61488W        W28029  11.419  35.447  12.808
61489W        W28030  23.626  29.847  13.850
61490W        W28031   9.186  24.508   4.726
61491W        W28032  10.594  17.363  13.863
61492W        W28033   1.008  28.999  13.329
61493W        W28034  38.806   2.429   4.688
61494W        W28035  41.982  42.179  11.512
61495W        W28036   1.818  30.220  12.052
61496W        W28037  15.815  14.143  14.338
61497W        W28038  25.595  31.623   0.842
61498W        W28039   8.908  44.443  10.307
61499W        W28040  30.210   9.871  10.658
61500W        W28041  27.042  26.537   2.312
61501W        W28042   8.714  18.812   4.549
61502W        W28043   0.962  40.354  14.390
61503W        W28044  44.780  44.958  11.302
61504W        W28045  17.668  31.639  10.880
61505W        W28046  38.067  36.530  11.648
61506W        W28047  18.646  43.279   4.565
61507W        W28048  19.103   2.185  11.556
61508W        W28049   9.158  12.268  14.786
61509W        W28050  28.989   1.655   4.832
61510W        W28051   9.638   9.611   4.589
61511W        W28052   9.701   3.341  12.540
61512W        W28053  44.499   7.704  11.571
61513W        W28054  18.633  20.251  13.125
61514W        W28055  23.567  25.731  14.047
61515W        W28056  19.514  43.269  12.464
61516W        W28057  35.511  41.479  11.828
61517W        W28058  20.565  38.442   0.706
61518W        W28059  21.265  15.351   0.220
61519W        W28060   6.608  27.475   2.906
61520W        W28061   2.636   9.610  14.782
61521W        W28062  10.676  20.151  12.036
61522W        W28063   7.750  15.106  11.410
61523W        W28064  37.054  23.567   2.923
61524W        W28065  27.233  35.519   4.270
61525W        W28066  43.860  22.157   3.271
61526W        W28067  22.232  12.239   2.817
61527W        W28068  37.466  23.884  11.991
61528W        W28069  10.345  40.467  11.670
61529W        W28070  25.681  22.295   1.912
61530W        W28071   7.218  29.892  10.985
61531W        W28072  25.543   7.747  10.674
61532W        W28073  23.569   7.761   1.146
61533W        W28074  16.187  14.320   3.709
61534W        W28075  42.160  20.838   3.661
61535W        W28076   7.515  18.104  11.269
61536W        W28077   9.983  19.567  12.994
61537W        W28078  17.990  18.514  12.052
61538W        W28079  32.107   7.622  12.254
61539W        W28080   1.673  24.480   4.725
61540W        W28081  41.138  41.085  12.617
61541W        W28082  26.552  36.059   3.729
61542W        W28083  26.111  16.620   0.224
61543W        W28084  12.888  16.787   4.263
61544W        W28085  28.549  40.385  12.384
61545W        W28086  20.644  32.138  11.498
61546W        W28087  11.262  17.110   0.329
61547W        W28088  23.260  27.191  14.528
61548W        W28089  35.602  12.884  10.530
61549W        W28090   6.869  35.037   3.184
61550W        W28091  38.454  37.851  13.421
61551W        W28092  21.237  25.865  11.094
61552W        W28093  22.435   9.753   3.763
61553W        W28094  30.186  30.396   3.749
61554W        W28095  18.277  19.150   0.556
61555W        W28096  28.026  20.799   2.317
61556W        W28097  26.950  34.124   1.658
61557W        W28098  17.630  13.091  12.912
61558W        W28099  37.167  44.893  12.071
61559W        W28100   9.194  23.292  14.933
61560W        W28101  39.322   2.192  10.587
61561W        W28102   4.694  34.409   4.679
61562W        W28103  11.381  18.807   1.962
61563W        W28104  41.300  35.903  11.167
61564W        W28105  39.531  16.999  13.343
61565W        W28106   5.813  13.690   3.794
61566W        W28107   3.812  36.756   3.226
61567W        W28108  12.640  16.266  11.061
61568W        W28109  35.038   4.894  12.034
61569W        W28110  41.695  20.451  13.846
61570W        W28111  10.625  16.673   3.574
61571W        W28112  38.711  12.754  14.913
61572W        W28113  43.452   1.840   0.762
61573W        W28114  29.413  17.345   1.217
61574W        W28115  28.980  42.026  11.869
61575W        W28116   6.354  36.936  12.905
61576W        W28117  20.475  38.863   2.708
61577W        W28118  43.752  30.633   4.444
61578W        W28119   8.189  35.824   5.034
61579W        W28120  43.394   3.435  13.476
61580W        W28121  43.350   6.184   1.953
61581W        W28122  21.023  26.682  13.303
61582W        W28123  38.535  37.428  13.144
61583W        W28124  32.292  10.647   1.521
61584W        W28125  19.237  25.607   2.177
61585W        W28126  38.039   7.672  14.309
61586W        W28127  43.945  34.312  12.904
61587W        W28128  39.566  38.882   0.748
61588W        W28129  14.956   3.779   0.416
61589W        W28130  20.983   5.766  13.430
61590W        W28131   1.599   5.820  11.189
61591W        W28132  42.141  12.851  10.778
61592W        W28133  20.148   0.411  10.592
61593W        W28134  15.340   5.778   4.145
61594W        W28135  35.926   4.905   2.157
61595W        W28136  29.171  16.482   3.221
61596W        W28137  37.873  31.438   4.865
61597W        W28138  13.815   3.736  10.755
61598W        W28139  33.222  20.025  12.626
61599W        W28140  31.907  30.293  14.816
61600W        W28141  30.458   2.910   3.352
61601W        W28142  32.507  42.854  11.576
61602W        W28143   0.267  14.577  13.308
61603W        W28144  26.464  37.450   0.518
61604W        W28145   7.758  11.483   2.113
61605W        W28146  23.141   7.615   0.254
61606W        W28147   2.850   9.459   4.029
61607W        W28148   7.777   1.544  11.997
61608W        W28149  28.122  24.868   4.479
61609W        W28150  11.027   7.701  14.367
61610W        W28151  16.688   8.300   2.937
61611W        W28152   3.239  32.407   0.349
61612W        W28153  41.416  12.368  14.140
61613W        W28154   0.934   5.734   4.629
61614W        W28155  41.916   5.738   4.736
61615W        W28156  35.925  33.307   4.621
61616W        W28157   1.316   7.348   4.381
61617W        W28158  13.327  18.920   3.615
61618W        W28159   4.404  39.719  10.689
61619W        W28160  37.497  35.303   2.332
61620W        W28161  26.542  41.717   0.452
61621W        W28162  33.964  34.374  12.026
61622W        W28163  40.148  12.693  12.487
61623W        W28164  13.265  27.555   0.830
61624W        W28165  23.797  28.348   1.524
61625W        W28166  34.540  17.539  12.567
61626W        W28167  35.979  11.412   1.348
61627W        W28168  23.221  22.485  11.097
61628W        W28169   5.855  22.251  13.941
61629W        W28170  40.785  37.921  10.588
61630W        W28171  44.385  24.090  10.516
61631W        W28172  39.074  23.864  11.618
61632W        W28173  35.041  19.237  11.431
61633W        W28174  40.773  29.473   1.291
61634W        W28175  21.184  18.052  12.500
61635W        W28176  31.129   3.343  11.274
61636W        W28177  31.503  42.530  13.007
61637W        W28178   8.912  27.039   4.139
61638W        W28179   7.150  20.207   0.340
61639W        W28180  33.435  33.976  10.131
61640W        W28181  28.068  28.598  12.453
61641W        W28182  36.302   0.386  10.653
61642W        W28183  17.185  30.722   3.259
61643W        W28184  39.143  40.165   2.084
61644W        W28185  20.119  42.136   3.112
61645W        W28186  21.972   2.203  11.095
61646W        W28187   2.436  27.321   1.874
61647W        W28188  43.068  22.820   0.707
61648W        W28189  24.031  23.925   4.116
61649W        W28190  42.937   0.472  10.466
61650W        W28191  10.890   5.870   2.325
61651W        W28192  34.355  44.409  11.585
61652W        W28193   5.538   0.809   4.333
61653W        W28194  24.775   0.386  11.700
61654W        W28195  35.508  41.671  13.143
61655W        W28196  40.185  18.148  13.026
61656W        W28197  28.017  26.461   4.577
61657W        W28198  24.906  24.203   0.465
61658W        W28199   3.237  12.863   3.824
61659W        W28200  37.732  40.931   2.787
61660W        W28201  21.790   1.876  14.374
61661W        W28202  37.482   2.532  14.834
61662W        W28203  25.363  27.657   2.291
61663W        W28204  18.774  29.985  13.492
61664W        W28205  35.188  38.466  13.911
61665W        W28206   4.721  33.655   1.704
61666W        W28207   7.721  18.752  13.364
61667W        W28208  42.424   4.016  14.220
61668W        W28209  10.009  26.536   4.665
61669W        W28210   4.429  38.917   3.029
61670W        W28211  33.437  11.330  13.106
61671W        W28212   9.453   3.911  11.225
61672W        W28213  31.495  13.928   2.135
61673W        W28214  33.481  17.771   3.833
61674W        W28215  26.310   3.579  12.085
61675W        W28216  34.476  40.578  13.249
61676W        W28217   1.397  15.313   4.445
61677W        W28218  16.531   3.953   0.408
61678W        W28219  27.665  10.370   1.875
61679W        W28220  40.029  38.433  12.858
61680W        W28221  19.302  16.023   0.297
61681W        W28222   7.488   9.389   0.481
61682W        W28223   1.807   7.819  14.018
61683W        W28224  36.541   2.786  12.110
61684W        W28225  16.092  13.211   3.593
61685W        W28226  29.190   9.315  12.895
61686W        W28227  29.591   3.006  12.542
61687W        W28228  41.878   0.394   1.739
61688W        W28229   5.445  41.578  10.697
61689W        W28230  37.760  24.341  12.531
61690W        W28231  32.409  27.730  14.018
61691W        W28232  29.014  16.235  13.107
61692W        W28233  41.597  19.563   1.868
61693W        W28234  27.642  37.545  14.760
61694W        W28235   8.377  23.622   1.173
61695W        W28236   0.271   6.265   4.347
61696W        W28237  39.555  39.635   3.884
61697W        W28238  30.522  38.982   3.563
61698W        W28239  39.086  33.257  10.222
61699W        W28240  16.066  20.934  14.356
61700W        W28241  30.056  29.173  12.142
61701W        W28242  18.143  28.416   2.942
61702W        W28243  34.650  36.566  11.156
61703W        W28244  26.177  21.743  14.903
61704W        W28245   9.110  40.267  12.911
61705W        W28246  15.877  24.085   3.660
61706W        W28247  28.271  26.698  12.856
61707W        W28248  41.757  23.744   3.289
61708W        W28249  29.223  35.467  10.769
61709W        W28250  16.235  17.819  14.503
61710W        W28251  33.460   3.429  11.982
61711W        W28252   1.865  11.287   0.360
61712W        W28253  41.351   1.782  14.465
61713W        W28254  28.715  37.296  11.343
61714W        W28255  14.382  44.462   1.804
61715W        W28256  29.625  18.272  11.254
61716W        W28257   4.230  21.268   4.576
61717W        W28258  11.610   5.991  13.962
61718W        W28259  10.270  42.240   0.981
61719W        W28260  38.913  29.139   3.855
61720W        W28261  18.145  19.606   4.283
61721W        W28262  15.192  23.887   3.258
61722W        W28263  31.562  15.673   9.949
61723W        W28264  21.816  11.475   0.246
61724W        W28265  27.559  19.291  14.959
61725W        W28266  30.618  33.924  12.493
61726W        W28267   5.266  40.854  14.866
61727W        W28268  17.636  34.509   1.935
61728W        W28269  13.526  35.666   2.420
61729W        W28270  13.584  31.049  12.575
61730W        W28271  29.680   6.084  14.090
61731W        W28272  43.232   7.298   0.412
61732W        W28273   7.092  29.391   4.476
61733W        W28274   7.517  35.822  12.082
61734W        W28275  11.305  38.298   1.227
61735W        W28276  21.145   0.140  14.431
61736W        W28277  32.611  12.273  12.991
61737W        W28278  11.103  24.964   3.749
61738W        W28279  31.909  16.626   2.365
61739W        W28280   4.779  31.548   3.594
61740W        W28281  10.014  43.575   2.252
61741W        W28282   9.068  28.701   3.414
61742W        W28283  14.126  18.284   4.478
61743W        W28284  18.806  26.374   3.773
61744W        W28285  40.998  44.268  10.682
61745W        W28286  27.699  30.542  13.603
61746W        W28287  37.064  36.462  14.737
61747W        W28288  11.227  28.961   1.314
61748W        W28289   0.804  40.947   0.146
61749W        W28290  18.092   0.433  10.787
61750W        W28291  28.758  41.564   0.888
61751W        W28292  15.624  29.516  13.064
61752W        W28293  28.195  43.898  10.875
61753W        W28294  30.354   7.399   4.092
61754W        W28295  32.581  29.652  10.707
61755W        W28296  20.768   3.253  10.807
61756W        W28297  22.485  27.602   3.911
61757W        W28298   9.181  41.556  12.549
61758W        W28299   9.309  40.182   0.905
61759W        W28300   8.653  14.150  11.681
61760W        W28301  31.380   7.957   2.646
61761W        W28302   0.444   7.646  11.365
61762W        W28303   1.973   5.480  14.322
61763W        W28304  20.313  13.309  12.202
61764W        W28305   4.108  37.611  12.511
61765W        W28306   8.647  38.147   3.896
61766W        W28307  42.797  24.565   0.365
61767W        W28308  33.043   4.574   1.300
61768W        W28309  20.495   1.999   0.399
61769W        W28310  28.112  41.264  12.945
61770W        W28311  14.351  13.048   1.891
61771W        W28312  13.766  17.425  11.189
61772W        W28313  26.439   7.746  11.688
61773W        W28314  11.682  38.006  10.571
61774W        W28315   4.706  17.508   3.088
61775W        W28316  16.227   3.229   4.511
61776W        W28317  32.403  34.369   1.852
61777W        W28318  14.122   4.836  11.447
61778W        W28319  25.998  16.806   3.791
61779W        W28320  17.847  29.502  10.621
61780W        W28321   4.685   2.001   2.268
61781W        W28322  43.059  23.582   4.638
61782W        W28323  28.084   1.339  14.131
61783W        W28324  24.446  42.348  14.060
61784W        W28325  32.654  24.112   2.370
61785W        W28326  20.941  25.402  14.184
61786W        W28327  42.967  43.385  14.235
61787W        W28328   5.675  29.955   1.228
61788W        W28329  24.014  40.794  10.716
61789W        W28330  28.210  13.535   2.808
61790W        W28331  20.257   7.828   2.584
61791W        W28332  24.240  39.868  12.902
61792W        W28333   9.014  43.728  12.993
61793W        W28334   6.389  21.022  12.074
61794W        W28335  14.703   2.107  11.987
61795W        W28336  35.355  37.974  11.514
61796W        W28337   9.485  16.860  10.297
61797W        W28338  38.141  17.794  11.095
61798W        W28339  36.350  38.386   0.894
61799W        W28340  42.027  31.943   0.796
61800W        W28341  37.143  41.131  11.048
61801W        W28342  18.780  21.966   4.540
61802W        W28343   8.373   1.411  14.297
61803W        W28344  11.434  33.761   4.420
61804W        W28345   2.449  38.903   0.418
61805W        W28346  17.088  34.282   2.704
61806W        W28347  22.203   3.879   5.328
61807W        W28348   3.923  35.203   1.419
61808W        W28349   5.380  10.187   4.073
61809W        W28350  10.117  36.471   4.469
61810W        W28351  18.751  24.175   0.282
61811W        W28352  15.692  15.310  12.069
61812W        W28353   9.902  39.138   0.238
61813W        W28354  43.428  41.402   1.444
61814W        W28355  36.345  28.057  10.994
61815W        W28356  28.275  13.746   0.583
61816W        W28357  32.873  16.661   0.517
61817W        W28358   6.884  22.087   2.884
61818W        W28359   2.671   1.858   0.742
61819W        W28360  35.359   5.448   0.173
61820W        W28361  34.467  44.320   0.965
61821W        W28362   3.753  41.493   4.142
61822W        W28363  26.104  11.078   4.656
61823W        W28364   4.366  44.185   4.820
61824W        W28365  28.879  40.279  11.715
61825W        W28366   3.565  31.435  12.195
61826W        W28367   6.430  20.277  12.471
61827W        W28368  18.635   9.959   2.820
61828W        W28369   8.943  29.397   2.227
61829W        W28370  32.008  33.934  13.017
61830W        W28371  15.981  12.982   0.648
61831W        W28372  41.381  38.017   1.323
61832W        W28373   2.268  24.961   9.815
61833W        W28374  17.316  28.138  14.094
61834W        W28375  18.106  16.803   4.242
61835W        W28376   8.477  43.323  12.489
61836W        W28377  22.335  11.349   0.151
61837W        W28378  20.376   9.872   4.190
61838W        W28379  16.951  12.582  12.032
61839W        W28380   3.507  11.939  13.895
61840W        W28381  29.442  32.460   2.271
61841W        W28382   7.817  37.786  11.243
61842W        W28383  17.790   5.714   1.356
61843W        W28384  11.803  13.666   3.383
61844W        W28385  38.120  23.086  13.172
61845W        W28386  33.882  40.461  11.089
61846W        W28387  40.956  11.021   2.957
61847W        W28388  16.465  42.515  14.288
61848W        W28389  41.110  40.233   2.765
61849W        W28390  42.320  29.759  13.826
61850W        W28391  12.579   8.854  11.155
61851W        W28392   5.486  39.464   9.905
61852W        W28393  41.573  16.541   2.633
61853W        W28394  13.512  24.688  10.880
61854W        W28395  21.126   7.694  13.897
61855W        W28396  19.278  26.854  12.790
61856W        W28397  29.092  41.028  13.594
61857W        W28398  17.112  10.766  13.977
61858W        W28399  40.917  15.581   3.249
61859W        W28400  13.277   2.854  14.425
61860W        W28401  38.706   7.281   0.407
61861W        W28402  37.792  42.560  11.878
61862W        W28403  24.074  43.509  14.192
61863W        W28404  32.774  28.596   0.715
61864W        W28405   2.079   6.227  12.012
61865W        W28406  34.005  11.664   1.177
61866W        W28407  36.869  13.738   4.561
61867W        W28408  28.089  34.746  13.667
61868W        W28409   4.656  32.996   0.518
61869W        W28410   2.366  39.908  10.831
61870W        W28411  14.083  25.742  11.529
61871W        W28412  26.949  16.683  11.107
61872W        W28413  20.731  17.311  13.598
61873W        W28414  10.671  22.397   0.375
61874W        W28415  21.546   6.378  13.060
61875W        W28416  33.588  31.457   2.326
61876W        W28417  37.518  14.013   5.336
61877W        W28418  19.212  21.635  11.375
61878W        W28419   0.864  13.007  14.549
61879W        W28420  26.247  27.477   2.313
61880W        W28421  20.760  39.704  14.615
61881W        W28422  28.989  34.953  10.727
61882W        W28423  39.420  41.230   0.684
61883W        W28424  13.800  33.903   3.514
61884W        W28425  24.994   3.247  11.048
61885W        W28426  27.570   5.816   3.982
61886W        W28427  20.255  32.178  10.544
61887W        W28428  23.416  15.342  12.501
61888W        W28429  29.469  28.587  10.667
61889W        W28430  15.224  12.511  13.268
61890W        W28431  35.642  32.238  11.167
61891W        W28432  24.823   0.792   3.466
61892W        W28433  15.342  25.605  12.044
61893W        W28434  41.294  12.520   2.298
61894W        W28435  10.753   0.789  13.526
61895W        W28436  37.015  35.364   1.676
61896W        W28437  43.301   4.352  13.951
61897W        W28438  20.480  13.118   1.319
61898W        W28439   9.699  30.841  12.402
61899W        W28440  13.663  39.515   3.103
61900W        W28441  26.021  32.097  12.827
61901W        W28442  43.511  22.978  14.879
61902W        W28443  36.940  40.287   2.918
61903W        W28444  22.864  26.895  12.584
61904W        W28445  40.503  42.581  13.427
61905W        W28446   6.732  31.935  14.235
61906W        W28447  40.612  26.715  11.528
61907W        W28448  34.692   2.417  13.829
61908W        W28449  19.282   6.153   3.300
61909W        W28450  42.660   7.166   1.787
61910W        W28451   3.779  44.170  12.424
61911W        W28452  20.012  23.916   3.594
61912W        W28453   0.777  10.206   4.076
61913W        W28454  36.952  28.100  14.083
61914W        W28455  20.609   9.680  14.915
61915W        W28456   1.465   4.223   1.877
61916W        W28457  31.423  44.675  11.810
61917W        W28458  21.024  30.935  14.933
61918W        W28459   8.323   7.061  11.962
61919W        W28460  23.493  39.725  13.478
61920W        W28461   2.315  20.118   3.526
61921W        W28462  39.811  34.561   1.035
61922W        W28463  27.772  10.734   3.828
61923W        W28464  22.121   4.481  10.642
61924W        W28465  42.178  14.837   5.028
61925W        W28466  19.106   7.644   2.301
61926W        W28467   1.789  10.940   1.891
61927W        W28468  10.768  30.358  14.401
61928W        W28469  10.312   5.548   0.849
61929W        W28470  44.287  36.891  12.962
61930W        W28471   6.975  34.177  12.502
61931W        W28472   7.171  14.625  10.693
61932W        W28473  41.555  37.431   2.222
61933W        W28474  23.713  21.246  10.730
61934W        W28475  38.803  18.240  14.775
61935W        W28476  30.073   0.083  12.441
61936W        W28477  17.093  41.992  13.386
61937W        W28478   5.803  41.248   3.749
61938W        W28479   7.653  30.145   3.166
61939W        W28480   4.751   4.148   0.351
61940W        W28481   8.735  12.297   3.806
61941W        W28482   8.196  37.546   3.279
61942W        W28483  44.477   4.565   0.440
61943W        W28484  20.213  38.271  14.249
61944W        W28485  15.244  29.124  10.707
61945W        W28486   1.008  23.147  11.236
61946W        W28487  15.437  31.015   0.417
61947W        W28488   6.669  29.836  12.454
61948W        W28489  14.914  40.283   4.165
61949W        W28490  44.698   3.739   0.409
61950W        W28491  43.923  18.105   3.282
61951W        W28492  16.788  33.663   3.312
61952W        W28493  42.010  19.142   0.213
61953W        W28494   4.208   4.700  11.553
61954W        W28495   8.890  11.159  11.685
61955W        W28496  23.673   7.323   1.441
61956W        W28497  36.437  15.077  14.093
61957W        W28498  40.124  17.520   3.243
61958W        W28499  14.602  28.018   0.027
61959W        W28500   6.850  37.830  10.217
61960W        W28501   1.565  27.392   0.727
61961W        W28502  26.926  27.618  14.780
61962W        W28503  22.226   4.905  14.896
61963W        W28504   4.052   9.182   0.033
61964W        W28505  14.073  18.223  10.776
61965W        W28506  35.213   7.289  12.805
61966W        W28507   8.208  41.100  12.131
61967W        W28508   3.439  27.573   1.686
61968W        W28509  34.435  30.732  10.675
61969W        W28510  22.602  26.346  11.618
61970W        W28511  37.905  43.013   2.987
61971W        W28512  32.173   8.515   2.313
61972W        W28513   3.182  29.140  12.170
61973W        W28514  44.191  30.187  11.732
61974W        W28515  43.846  17.488  14.000
61975W        W28516  32.878   5.123   3.057
61976W        W28517  36.845  30.078   0.377
61977W        W28518  25.391  35.756  12.356
61978W        W28519  34.178  33.559   4.042
61979W        W28520  26.275  28.054   1.834
61980W        W28521   9.431  23.575  13.603
61981W        W28522  13.502   4.790   0.797
61982W        W28523  39.127  33.691   4.290
61983W        W28524  29.478   0.882  12.095
61984W        W28525   7.681  14.711  12.471
61985W        W28526  34.432  30.473   0.801
61986W        W28527  18.054  11.077   3.101
61987W        W28528   4.656   9.399   2.787
61988W        W28529  35.433  16.903  14.711
61989W        W28530  27.837   0.472  14.495
61990W        W28531  32.593  43.268   3.093
61991W        W28532  21.260  31.433  10.566
61992W        W28533   9.283  26.189   3.072
61993W        W28534   5.248  38.524   1.340
61994W        W28535  35.627  24.608  12.877
61995W        W28536   5.910  12.249   3.370
61996W        W28537  10.059   7.882  14.505
61997W        W28538   2.623  37.506  10.783
61998W        W28539   3.691  15.719  13.602
61999W        W28540  40.337  39.563  13.987
62000W        W28541  35.483   5.435   5.404
62001W        W28542  37.556  13.921  12.806
62002W        W28543  19.769  12.137  11.003
62003W        W28544  37.625   2.868  14.272
62004W        W28545   5.711  27.104   2.812
62005W        W28546  30.825   2.386  10.860
62006W        W28547  30.600  44.392   0.459
62007W        W28548  24.671  36.084   1.507
62008W        W28549  20.236  11.727  11.659
62009W        W28550  17.769  28.716  14.399
62010W        W28551   9.344  24.816  11.170
62011W        W28552  14.203  41.523   0.978
62012W        W28553   6.626  43.969  13.839
62013W        W28554  37.342  33.997  14.534
62014W        W28555  19.770  38.436  13.466
62015W        W28556   4.365  35.290   3.010
62016W        W28557  16.747  20.784   3.193
62017W        W28558   6.731  43.334  10.891
62018W        W28559  30.197  44.823  10.949
62019W        W28560  16.228  44.475  10.692
62020W        W28561  31.425  18.791   3.727
62021W        W28562  23.980  36.535   3.143
62022W        W28563  43.306  27.971   0.559
62023W        W28564  31.106  22.555  13.601
62024W        W28565   3.740  21.714  11.688
62025W        W28566  43.462  24.204  13.868
62026W        W28567  38.049  44.074   3.035
62027W        W28568  22.149  18.534  14.358
62028W        W28569  20.243  22.471   3.435
62029W        W28570  31.554  12.426   2.287
62030W        W28571  36.215  10.151   0.201
62031W        W28572  38.923   4.911  14.938
62032W        W28573  24.317  19.529  12.957
62033W        W28574  43.228   5.392   0.287
62034W        W28575  14.855  34.169  12.126
62035W        W28576  17.957  26.525  14.817
62036W        W28577  20.029  28.578  14.077
62037W        W28578  37.025  42.909   0.074
62038W        W28579  29.039   4.556   2.800
62039W        W28580  35.806  25.104   4.673
62040W        W28581  10.752  22.105   0.822
62041W        W28582  18.809  19.168   2.086
62042W        W28583  15.067   1.844   3.582
62043W        W28584  31.577   5.919   4.065
62044W        W28585  11.590  30.006  13.942
62045W        W28586   0.034   7.276   3.908
62046W        W28587  24.750  34.485  13.788
62047W        W28588  26.100  23.742   0.008
62048W        W28589  24.141  22.056   3.983
62049W        W28590  19.719  17.120   2.173
62050W        W28591   2.029  32.187   0.286
62051W        W28592  15.596   5.140  13.912
62052W        W28593   7.216  21.680   4.767
62053W        W28594   0.669  12.255  10.667
62054W        W28595  28.115  21.197   4.557
62055W        W28596  10.539  15.626  11.496
62056W        W28597  18.164  32.463   3.183
62057W        W28598  18.765  39.218   0.023
62058W        W28599  44.317  17.887  14.484
62059W        W28600  32.429  25.441  12.335
62060W        W28601  43.967   0.235  11.070
62061W        W28602  15.662  25.434  10.729
62062W        W28603  44.105  19.750   3.844
62063W        W28604  15.724  14.230  13.388
62064W        W28605  30.705   9.787  11.600
62065W        W28606  37.306  24.021   3.896
62066W        W28607  29.946  25.646  10.816
62067W        W28608  23.125  42.718   3.188
62068W        W28609  19.780  37.849  14.395
62069W        W28610  34.041  15.718  10.525
62070W        W28611  37.820  23.990   1.215
62071W        W28612  40.187   3.320   5.042
62072W        W28613  13.676   6.690  14.824
62073W        W28614  43.451  27.990   2.156
62074W        W28615   2.898  36.267  14.369
62075W        W28616  28.480   3.689   1.844
62076W        W28617   5.826   5.771   0.328
62077W        W28618  28.655  19.757   1.819
62078W        W28619   5.211   6.805   1.289
62079W        W28620   4.707  39.753   0.950
62080W        W28621  32.206  31.414   3.654
62081W        W28622  24.185  43.265   4.341
62082W        W28623  10.617  32.599  14.076
62083W        W28624  12.753  38.945   1.408
62084W        W28625  12.893  40.960   1.274
62085W        W28626  32.898  37.136   3.531
62086W        W28627  11.823  15.085   3.273
62087W        W28628  35.396  13.751   4.737
62088W        W28629  17.737  26.657  14.369
62089W        W28630  11.330  22.495   2.738
62090W        W28631  11.619  36.735  12.976
62091W        W28632  16.088   8.234  14.183
62092W        W28633  10.455  20.584   3.921
62093W        W28634   6.830  20.232  12.834
62094W        W28635   8.144  34.947   4.124
62095W        W28636  26.258  38.744   2.798
62096W        W28637  32.600  13.498   0.909
62097W        W28638  43.030  35.441   0.211
62098W        W28639   5.306  34.953   3.888
62099W        W28640   5.385  17.004  13.217
62100W        W28641  20.283  38.571   3.095
62101W        W28642  37.673  25.671  11.560
62102W        W28643  40.306  24.429   4.084
62103W        W28644  17.570  16.061  12.565
62104W        W28645   3.955  39.784  14.983
62105W        W28646  36.492  40.006   0.294
62106W        W28647  31.530  33.744  10.237
62107W        W28648  40.703   8.607  11.611
62108W        W28649  14.990  25.615   3.282
62109W        W28650  41.706  44.998   4.553
62110W        W28651  19.199  40.308  14.318
62111W        W28652  30.480   2.488  13.576
62112W        W28653   5.890  12.890   2.139
62113W        W28654  41.663  11.106   2.232
62114W        W28655  18.637   0.852  13.792
62115W        W28656  29.948  14.563  11.171
62116W        W28657  30.879  36.163   1.556
62117W        W28658  23.173  25.515  13.822
62118W        W28659  16.394   5.842  14.445
62119W        W28660  10.339   1.972   3.259
62120W        W28661  15.486   2.572   3.361
62121W        W28662  43.719  44.276   0.626
62122W        W28663  25.759   2.314  10.665
62123W        W28664  28.521  28.305   2.225
62124W        W28665  19.838  13.600  12.959
62125W        W28666   5.648  32.675   1.347
62126W        W28667  44.853  37.038   2.817
62127W        W28668  39.322  18.010  11.379
62128W        W28669  10.077  42.054  12.359
62129W        W28670  40.054   3.475  11.683
62130W        W28671  31.995  11.103   1.653
62131W        W28672   3.091  40.423  13.396
62132W        W28673  13.378   8.696  12.547
62133W        W28674  43.378  26.446   2.140
62134W        W28675  36.462  10.582   0.070
62135W        W28676  18.733   8.687   3.105
62136W        W28677  29.389  31.123  14.885
62137W        W28678  44.876   3.957   1.708
62138W        W28679  44.812  27.830  12.479
62139W        W28680  13.699  33.909   1.345
62140W        W28681  15.834  12.607  12.943
62141W        W28682  18.964  15.610  13.979
62142W        W28683   5.880  26.574  12.305
62143W        W28684   6.805  41.986   3.274
62144W        W28685  18.293   2.652  12.509
62145W        W28686  34.021  36.368  12.946
62146W        W28687  40.430  19.048  13.995
62147W        W28688   5.306  14.829  11.469
62148W        W28689   3.589   3.199   4.082
62149W        W28690  22.767  38.935   1.878
62150W        W28691  11.414  17.978  11.605
62151W        W28692  19.334  39.297  12.599
62152W        W28693  10.194  29.122  14.936
62153W        W28694  27.437  19.201  13.015
62154W        W28695  17.720  23.251  13.020
62155W        W28696  17.770  29.922  12.840
62156W        W28697   8.216  17.255  14.392
62157W        W28698  22.764  43.516   1.201
62158W        W28699   9.476  14.446   2.892
62159W        W28700  10.717   8.138   1.197
62160W        W28701  37.372  25.733  11.141
62161W        W28702  12.105   2.589   2.670
62162W        W28703  24.989  41.715  13.036
62163W        W28704  43.525  21.132   4.552
62164W        W28705   0.914  33.703  13.990
62165W        W28706   1.454  19.993   0.774
62166W        W28707  24.544  35.426  10.807
62167W        W28708  23.928  32.661  14.438
62168W        W28709  40.107  33.468   2.326
62169W        W28710  12.194  32.727  14.569
62170W        W28711  34.242  26.809   4.392
62171W        W28712  39.014  26.523   0.284
62172W        W28713  18.753  30.341  11.223
62173W        W28714  38.293  29.232  11.211
62174W        W28715  36.426  18.333   2.879
62175W        W28716  25.722  12.659  10.351
62176W        W28717  20.427   6.206   4.576
62177W        W28718  27.383  41.834   2.185
62178W        W28719   6.132  43.308   3.240
62179W        W28720   5.307   0.417  12.044
62180W        W28721  31.099  16.058   3.174
62181W        W28722   0.599   4.911   4.282
62182W        W28723   3.912  38.378   1.436
62183W        W28724  10.207   4.636  10.617
62184W        W28725  32.925  43.966  14.719
62185W        W28726   4.397  34.259  14.784
62186W        W28727  28.593  20.563  13.444
62187W        W28728  16.220   5.865  13.589
62188W        W28729  26.285   2.951  12.888
62189W        W28730  40.064  11.363  14.881
62190W        W28731  42.327  41.503  14.290
62191W        W28732   3.570   5.329   3.202
62192W        W28733  23.993   3.378   4.512
62193W        W28734   3.264  30.117  14.476
62194W        W28735  44.953  13.613   2.680
62195W        W28736   6.101  13.267   0.843
62196W        W28737   7.123  26.583   1.940
62197W        W28738  15.594   8.942  10.258
62198W        W28739   7.195   6.408  10.633
62199W        W28740  21.729  25.499  11.231
62200W        W28741  12.646   7.678  13.130
62201W        W28742  34.934  19.275  10.915
62202W        W28743  43.853   3.024   1.834
62203W        W28744   6.142   6.193  10.482
62204W        W28745  36.517  41.526   0.292
62205W        W28746   3.279  38.137   4.538
62206W        W28747  10.851  24.728  12.548
62207W        W28748  42.714   3.361   2.839
62208W        W28749   8.000  26.583   2.270
62209W        W28750  13.684   0.752   4.607
62210W        W28751   8.738  43.860  13.408
62211W        W28752  22.813  32.547  13.089
62212W        W28753   8.230  40.445   3.272
62213W        W28754  24.796   9.646  13.314
62214W        W28755  10.473  23.958   4.493
62215W        W28756  36.154  25.936   3.391
62216W        W28757  20.001   2.294  10.732
62217W        W28758  28.526  25.740   2.397
62218W        W28759  32.963  30.374   0.965
62219W        W28760  33.580   2.905   2.254
62220W        W28761  44.936  10.314  12.179
62221W        W28762  36.380   9.346   1.760
62222W        W28763  24.674  33.981   0.470
62223W        W28764  18.123  23.939   0.815
62224W        W28765  15.813  19.531   3.222
62225W        W28766  22.760  20.615  10.515
62226W        W28767  23.567  13.649   1.250
62227W        W28768   6.279   2.835   2.367
62228W        W28769  15.375  30.437   0.814
62229W        W28770  12.277  31.658  12.907
62230W        W28771   7.454  32.904  12.204
62231W        W28772  19.805  34.888  14.480
62232W        W28773  32.967  41.518   1.320
62233W        W28774  34.466  32.799  11.141
62234W        W28775  15.589  25.940  13.968
62235W        W28776  20.379  34.669  10.784
62236W        W28777  42.375  27.252   4.012
62237W        W28778  35.770   1.370  12.800
62238W        W28779  14.180  24.729   1.326
62239W        W28780   6.132  10.532   1.128
62240W        W28781  18.750  37.956  13.782
62241W        W28782   8.033  23.717  14.836
62242W        W28783  44.337   5.407  10.664
62243W        W28784   8.219  39.484   2.732
62244W        W28785  27.591  35.536  10.992
62245W        W28786  27.176   6.046  14.950
62246W        W28787  16.642  42.707  14.739
62247W        W28788  18.152   9.474   4.249
62248W        W28789  31.649  22.698   4.138
62249W        W28790  15.199  29.278  13.242
62250W        W28791   9.538  17.093  12.326
62251W        W28792  38.951  43.914   0.448
62252W        W28793   4.923  42.366  14.436
62253W        W28794  11.407  38.520  13.249
62254W        W28795  29.061  12.936   2.173
62255W        W28796  13.313  17.361   3.556
62256W        W28797   5.744  33.326  10.914
62257W        W28798  27.665  36.456  13.911
62258W        W28799  12.684  26.534   0.834
62259W        W28800  44.337  35.804  12.759
62260W        W28801   5.993  40.900  11.112
62261W        W28802  37.279  32.347  12.121
62262W        W28803  19.242  10.681   2.465
62263W        W28804   6.781  25.558   1.325
62264W        W28805  25.760  25.276  11.203
62265W        W28806  13.641  40.064  11.201
62266W        W28807  40.960  21.410   1.405
62267W        W28808  33.853  18.715  13.465
62268W        W28809  14.375  31.955  11.925
62269W        W28810  15.703  24.448   2.769
62270W        W28811  11.609   2.508   2.730
62271W        W28812  34.315   2.511  13.399
62272W        W28813  17.034  37.298  11.994
62273W        W28814  11.920  38.512  13.353
62274W        W28815  40.729  10.055   1.579
62275W        W28816   9.259   9.272   4.742
62276W        W28817  27.496   0.929   3.284
62277W        W28818  44.313   6.358   0.397
62278W        W28819  15.924   1.620   3.754
62279W        W28820   4.506   7.316  13.266
62280W        W28821   6.799  26.418   1.574
62281W        W28822  27.194  24.918   1.257
62282W        W28823  16.486  37.772  12.805
62283W        W28824  28.999  14.168  14.359
62284W        W28825  24.150  29.897  11.480
62285W        W28826   8.198  14.801  10.727
62286W        W28827  16.776  24.342  10.277
62287W        W28828  13.064  20.631  12.030
62288W        W28829  14.660   5.293  11.962
62289W        W28830  44.259  34.058  13.486
62290W        W28831  38.846   8.193  12.911
62291W        W28832  12.782  24.920  13.311
62292W        W28833  39.108  23.243  12.440
62293W        W28834  29.884  21.707  10.576
62294W        W28835  13.705  30.292  14.886
62295W        W28836  27.483  31.061   0.386
62296W        W28837   7.793  11.287  13.007
62297W        W28838  31.077  28.772   1.368
62298W        W28839   5.995  44.887  13.924
62299W        W28840  28.395   8.131  13.514
62300W        W28841  11.234   7.608   1.403
62301W        W28842  39.623   7.173  13.111
62302W        W28843   1.939  28.392  10.075
62303W        W28844  36.943  20.537  11.163
62304W        W28845  21.744  29.678  14.968
62305W        W28846  37.452  41.413   3.753
62306W        W28847  10.090  27.025  11.203
62307W        W28848  12.853  34.128  12.138
62308W        W28849  18.013  21.941  13.195
62309W        W28850  30.944  25.216   3.884
62310W        W28851   8.843  19.982  12.143
62311W        W28852   0.476  37.123   2.535
62312W        W28853  21.314   0.938  11.952
62313W        W28854  31.419   8.608   0.691
62314W        W28855  35.350  21.210  14.399
62315W        W28856  33.478  32.879   2.743
62316W        W28857  25.433  16.236   2.153
62317W        W28858  16.362  10.797   2.648
62318W        W28859   0.864  11.857  14.209
62319W        W28860  22.781  16.834  11.558
62320W        W28861  43.201   4.130   1.344
62321W        W28862  33.700  38.494   4.889
62322W        W28863  35.910  11.441  12.537
62323W        W28864  33.346  27.660   4.326
62324W        W28865  11.102  14.697   3.298
62325W        W28866  10.846  14.670  13.754
62326W        W28867  28.486  25.166   1.663
62327W        W28868   4.163  32.974   1.226
62328W        W28869  26.705  39.910  12.405
62329W        W28870  24.627  42.761   3.950
62330W        W28871  18.409  44.998  10.835
62331W        W28872  39.012   7.117   2.106
62332W        W28873   9.988  10.701  12.985
62333W        W28874  18.765  40.591   1.750
62334W        W28875  27.399   2.265   4.112
62335W        W28876  39.006  26.849   5.037
62336W        W28877  21.263  36.300  11.276
62337W        W28878  40.562  16.253   4.733
62338W        W28879  23.760  31.807  14.725
62339W        W28880  26.850  11.764  12.727
62340W        W28881  21.226  11.851   1.429
62341W        W28882   2.298  34.451   0.964
62342W        W28883  43.445   8.394   1.026
62343W        W28884  24.987  11.158  13.026
62344W        W28885  13.752  27.422   0.987
62345W        W28886  35.254  25.899  11.222
62346W        W28887   2.300  12.307  10.695
62347W        W28888  20.364  40.058   2.412
62348W        W28889  43.396   1.482   3.886
62349W        W28890   7.782  19.677   1.097
62350W        W28891  43.062   0.774  11.941
62351W        W28892  30.289  40.173  12.110
62352W        W28893  40.367  20.508   1.302
62353W        W28894   4.413  25.549   3.731
62354W        W28895   0.758  28.608  11.025
62355W        W28896  21.630  20.681  13.165
62356W        W28897  16.768  19.510   4.065
62357W        W28898   2.017  35.423   3.307
62358W        W28899  42.359  39.452   3.654
62359W        W28900  18.532  12.070  14.532
62360W        W28901  23.671  31.564  13.026
62361W        W28902  25.261   9.946  12.455
62362W        W28903  38.813  17.142   1.755
62363W        W28904  35.183   5.934   3.764
62364W        W28905  23.152  20.556   0.446
62365W        W28906  37.365  18.358   1.889
62366W        W28907  26.179   3.056  14.415
62367W        W28908  22.866   8.758  11.941
62368W        W28909  19.838  44.979   3.583
62369W        W28910  36.587  15.290   2.391
62370W        W28911  24.159  11.109   0.264
62371W        W28912  17.410  27.137  13.518
62372W        W28913  24.223   8.881   3.206
62373W        W28914  41.432  35.475  14.361
62374W        W28915  28.144  15.109  12.751
62375W        W28916  13.368   4.797  12.532
62376W        W28917  37.434   1.772   4.937
62377W        W28918  28.992  30.206   0.444
62378W        W28919  17.196   3.060  14.890
62379W        W28920  27.977  20.610  11.973
62380W        W28921  18.321  35.417   3.313
62381W        W28922  14.647  16.649  14.612
62382W        W28923  42.531   8.960   2.249
62383W        W28924   4.707  35.489  14.388
62384W        W28925  33.786   2.339   1.267
62385W        W28926  32.477   3.430   5.062
62386W        W28927  27.538  12.396   4.900
62387W        W28928  11.435  32.994  13.399
62388W        W28929  36.043  40.748  13.611
62389W        W28930  42.708  27.040   2.714
62390W        W28931   1.936   6.282  14.659
62391W        W28932  24.433   3.290   3.327
62392W        W28933  33.587  44.651   4.099
62393W        W28934  33.483  23.823  11.160
62394W        W28935  43.862   2.807   2.331
62395W        W28936  38.537  12.607  13.740
62396W        W28937   3.657  29.962  10.699
62397W        W28938   3.291  11.387  13.081
62398W        W28939  31.026   8.525   0.320
62399W        W28940   1.406   7.754   0.766
62400W        W28941  24.079  18.294  10.758
62401W        W28942  13.259  16.005  14.944
62402W        W28943  41.224  10.295  10.766
62403W        W28944  19.010  31.836  14.968
62404W        W28945  32.461  28.470   3.825
62405W        W28946  11.157  35.910  12.632
62406W        W28947  26.708  10.171  13.353
62407W        W28948  34.578  22.567  14.852
62408W        W28949  26.683  21.971  11.573
62409W        W28950  21.276  41.036  13.087
62410W        W28951   1.536  42.466  11.509
62411W        W28952  13.242  16.057  12.806
62412W        W28953  39.387  39.392   4.688
62413W        W28954  19.862  13.560  12.187
62414W        W28955  35.981  28.078   4.479
62415W        W28956  28.271   2.524  11.608
62416W        W28957  18.105   0.717  12.564
62417W        W28958  44.698   1.556   3.803
62418W        W28959  27.698  43.453  11.947
62419W        W28960  29.471   8.394   4.852
62420W        W28961   2.930  37.453  11.188
62421W        W28962  35.039   9.623  12.036
62422W        W28963  41.250  20.670  13.570
62423W        W28964  41.093  12.296   3.317
62424W        W28965  44.599  32.621  12.000
62425W        W28966  41.309  21.869  10.591
62426W        W28967  43.313  26.852   1.243
62427W        W28968  24.195  43.240   0.224
62428W        W28969  12.294   5.965  13.590
62429W        W28970  34.017  31.511   4.643
62430W        W28971   3.286  11.634   3.157
62431W        W28972  21.691   6.455  11.645
62432W        W28973  13.499  38.993  14.462
62433W        W28974  30.577  16.201  12.859
62434W        W28975  10.399  25.849   1.389
62435W        W28976  24.081  18.690   4.701
62436W        W28977   9.402   4.310   3.637
62437W        W28978  26.276  27.508   0.685
62438W        W28979  12.368  23.170   4.127
62439W        W28980  40.414  28.123   4.533
62440W        W28981  23.304  23.535  10.925
62441W        W28982  31.030  28.855  11.025
62442W        W28983  43.393   3.346   1.870
62443W        W28984  42.466  43.347  14.946
62444W        W28985  19.266  20.453  11.656
62445W        W28986  33.561  44.052  14.275
62446W        W28987  31.065  21.169   1.938
62447W        W28988  21.073   6.683   3.058
62448W        W28989  34.073   5.428   2.829
62449W        W28990  35.616  28.183  12.505
62450W        W28991   1.804  42.195  14.749
62451W        W28992   3.216   9.446   0.651
62452W        W28993   7.120  42.983   3.963
62453W        W28994   5.147   0.310   2.899
62454W        W28995   3.883  15.101   0.802
62455W        W28996  16.039  24.932   3.670
62456W        W28997  23.420   7.770   4.534
62457W        W28998  24.367   3.716  14.498
62458W        W28999  21.194  10.079  11.715
62459W        W29000   6.533   9.747   1.429
62460W        W29001   0.345  17.039  11.447
62461W        W29002  31.446  11.222  12.485
62462W        W29003   3.980   0.448   0.879
62463W        W29004  18.761  20.751  14.018
62464W        W29005   8.475  11.173   1.013
62465W        W29006   9.193  40.610   4.927
62466W        W29007  17.300  38.065  13.053
62467W        W29008  15.060   7.834  13.431
62468W        W29009   1.770   0.291  12.386
62469W        W29010  34.108  20.665  13.827
62470W        W29011  44.928  10.239  10.013
62471W        W29012  18.788   5.642  12.093
62472W        W29013  36.095   0.326   3.299
62473W        W29014  44.482  23.520   0.682
62474W        W29015  38.429  29.347   2.856
62475W        W29016  39.472  26.227   0.419
62476W        W29017   0.744  44.274  14.952
62477W        W29018  38.597  11.821  14.996
62478W        W29019   4.936  12.076  14.180
62479W        W29020  16.638  43.796   4.427
62480W        W29021  23.467   0.907  13.976
62481W        W29022  15.305  41.902  10.406
62482W        W29023  37.013  32.488   3.677
62483W        W29024  26.000   6.153  13.027
62484W        W29025   3.828   1.026  12.121
62485W        W29026  23.642  15.190   1.027
62486W        W29027  42.093  42.416  10.612
62487W        W29028  23.787  18.242   4.211
62488W        W29029  33.607   0.317  12.738
62489W        W29030  43.277  30.439   4.534
62490W        W29031   6.121  14.809   4.982
62491W        W29032  18.171   0.488  14.926
62492W        W29033   5.553  12.841  14.508
62493W        W29034  36.381  18.221  13.527
62494W        W29035  43.084  37.456  12.360
62495W        W29036  29.728  39.602  14.393
62496W        W29037   6.850  18.613  12.518
62497W        W29038  30.188   5.908  12.899
62498W        W29039  44.895  31.921  14.869
62499W        W29040   5.778  44.093  11.992
62500W        W29041  36.852  32.088  14.039
62501W        W29042  37.241   1.934   4.474
62502W        W29043  43.003  17.333   3.647
62503W        W29044   6.424  10.629   0.321
62504W        W29045  22.208  23.721  14.185
62505W        W29046  38.725  11.407   1.512
62506W        W29047  31.278  38.049   0.415
62507W        W29048  13.712  44.031   2.455
62508W        W29049   3.400  18.032  11.532
62509W        W29050   7.739  31.560   2.614
62510W        W29051  17.208  37.187   0.671
62511W        W29052  24.047  34.842   5.002
62512W        W29053   9.755  26.313   1.716
62513W        W29054  44.165   5.287   2.855
62514W        W29055  13.183  24.137  13.392
62515W        W29056  33.992  39.514  14.623
62516W        W29057  26.084  38.453  14.757
62517W        W29058  14.631  29.328  12.435
62518W        W29059   6.154  15.575   3.456
62519W        W29060  15.887   9.191   2.727
62520W        W29061   6.611   0.419  11.013
62521W        W29062  21.631  31.231  10.873
62522W        W29063  10.831  37.641  13.147
62523W        W29064  14.931  27.934   4.124
62524W        W29065   5.591   9.237  11.023
62525W        W29066  39.850  36.096   1.183
62526W        W29067  40.359  42.460   3.196
62527W        W29068   1.949  30.094  11.137
62528W        W29069   3.509   3.654   4.999
62529W        W29070  16.760   2.409   1.393
62530W        W29071  31.774   8.096  13.245
62531W        W29072  13.738  42.243   3.617
62532W        W29073  12.068  14.079   4.088
62533W        W29074  33.718  11.459   4.835
62534W        W29075  33.945  32.163   4.156
62535W        W29076  37.244   3.284  10.677
62536W        W29077  30.150   0.725  13.370
62537W        W29078  23.014  27.704   4.592
62538W        W29079  43.719  13.393  14.038
62539W        W29080   7.416   4.197  12.037
62540W        W29081  16.805  24.560   2.683
62541W        W29082  17.573  28.703  11.847
62542W        W29083  21.596   4.317  10.724
62543W        W29084  35.620  30.658   1.607
62544W        W29085  35.878  42.275  11.130
62545W        W29086  10.894  26.508  12.211
62546W        W29087  19.617  11.142  13.725
62547W        W29088  21.751  23.199   3.102
62548W        W29089  28.866   9.764   2.202
62549W        W29090  22.741  42.413  13.407
62550W        W29091  44.120  21.751   3.016
62551W        W29092   6.099  11.813   3.555
62552W        W29093  27.638  34.177  12.224
62553W        W29094  16.569  37.083  12.537
62554W        W29095  34.468   9.857  11.478
62555W        W29096   3.672   3.434   2.371
62556W        W29097  19.286  31.455  14.197
62557W        W29098  16.733  32.820   3.522
62558W        W29099  36.600  23.231   3.198
62559W        W29100  13.832  22.596   2.871
62560W        W29101  44.265   1.655   3.503
62561W        W29102  40.839  29.575  12.972
62562W        W29103  43.768  34.070  13.403
62563W        W29104  22.511  17.740   3.279
62564W        W29105  23.613  16.753  12.501
62565W        W29106   8.276   5.770  12.907
62566W        W29107   5.015   1.599   2.785
62567W        W29108  27.101  44.427  12.825
62568W        W29109  42.678  10.590   3.660
62569W        W29110  30.384  11.835   0.972
62570W        W29111  41.960  43.874  12.840
62571W        W29112  29.722  27.180  11.933
62572W        W29113  39.834  35.165   0.344
62573W        W29114  34.995  12.910   2.209
62574W        W29115  26.646  28.163  11.562
62575W        W29116  34.643  35.613   1.302
62576W        W29117  26.276   8.622  10.577
62577W        W29118  40.984  17.284  13.973
62578W        W29119   0.792  36.670  13.876
62579W        W29120  34.131  15.421  11.968
62580W        W29121  39.169  19.053   4.442
62581W        W29122  24.772  35.847  10.985
62582W        W29123  10.604  34.807  10.098
62583W        W29124  17.845  16.168   3.596
62584W        W29125  16.173  37.233   9.818
62585W        W29126  32.697   0.831  12.288
62586W        W29127  13.164  31.192  11.882
62587W        W29128   6.371  18.176   3.174
62588W        W29129   1.776  19.916   4.989
62589W        W29130  10.944  24.130   3.642
62590W        W29131  33.596  19.689  13.454
62591W        W29132  29.846   5.729  14.464
62592W        W29133  39.754   1.816  11.469
62593W        W29134   7.637  43.482  12.842
62594W        W29135  11.280   9.570   3.089
62595W        W29136  14.904   5.948   1.384
62596W        W29137  17.498  33.044  11.102
62597W        W29138   5.661   1.221   4.027
62598W        W29139   6.939   9.526   1.839
62599W        W29140  14.773   8.141   2.060
62600W        W29141  23.171  18.710  12.864
62601W        W29142  12.597  30.172   0.854
62602W        W29143  40.703  19.345   4.179
62603W        W29144   3.152  10.965  12.095
62604W        W29145  42.263  17.234   2.394
62605W        W29146  12.625  32.028  12.055
62606W        W29147   0.818   4.381   2.614
62607W        W29148  35.644   6.315  11.169
62608W        W29149  29.807   6.803   4.682
62609W        W29150  43.530  31.044  14.939
62610W        W29151   0.275  10.828  10.627
62611W        W29152  17.068   9.210  14.416
62612W        W29153   2.160  16.295   4.895
62613W        W29154  15.233  24.253  13.919
62614W        W29155  43.948  30.073   2.927
62615W        W29156  27.005   8.394   1.631
62616W        W29157  32.996   5.508   4.003
62617W        W29158  43.025  17.039  12.000
62618W        W29159  41.798  26.188   0.478
62619W        W29160   6.904   9.998  13.882
62620W        W29161  33.469  38.578   4.060
62621W        W29162   9.181  25.668  14.750
62622W        W29163  19.714  17.870  13.949
62623W        W29164  36.817  39.553  13.478
62624W        W29165  43.007  33.119  10.558
62625W        W29166  26.289  15.023   0.138
62626W        W29167  30.113   8.858  12.723
62627W        W29168   1.222  44.976   4.251
62628W        W29169  11.161  43.837  11.224
62629W        W29170  35.593  13.819  12.458
62630W        W29171   9.344  42.407  10.117
62631W        W29172   2.265  18.951   4.148
62632W        W29173   8.930  28.927   2.980
62633W        W29174  20.126  22.101  10.703
62634W        W29175  37.472   4.344  10.405
62635W        W29176   5.553  36.151  11.173
62636W        W29177  24.546  41.011   2.759
62637W        W29178   6.830  28.100   0.903
62638W        W29179  13.717  22.036   3.599
62639W        W29180   9.724  20.427  13.036
62640W        W29181  12.699  16.747  12.920
62641W        W29182  22.003  17.370   2.394
62642W        W29183  30.387   8.193  10.718
62643W        W29184  37.568   4.178   3.598
62644W        W29185  32.309  29.113  12.800
62645W        W29186  23.264  16.282   4.077
62646W        W29187   8.159  39.417  13.507
62647W        W29188   4.303  28.097   1.820
62648W        W29189   5.391  19.748   2.165
62649W        W29190   8.570  36.879  11.172
62650W        W29191  19.197  41.128   3.276
62651W        W29192  36.331   0.376  13.168
62652W        W29193   2.711  44.902   2.730
62653W        W29194  15.406   2.858   0.283
62654W        W29195   1.720   3.126  10.679
62655W        W29196  22.223   4.390   3.178
62656W        W29197  13.380  20.141  11.042
62657W        W29198   6.777  15.743  12.791
62658W        W29199  13.931  11.583   0.964
62659W        W29200  42.135   0.974  10.789
62660W        W29201  24.595  30.118   0.301
62661W        W29202  11.825  25.240  10.615
62662W        W29203  32.516  17.735   4.387
62663W        W29204   9.687  29.006   2.635
62664W        W29205  25.062   5.374   9.748
62665W        W29206  22.614  36.105   0.808
62666W        W29207  13.603  34.187   3.145
62667W        W29208  30.219  34.068   0.900
62668W        W29209   8.148  36.917   4.094
62669W        W29210  20.697  35.962  10.659
62670W        W29211  36.874  13.089   3.298
62671W        W29212   2.066   2.827   2.753
62672W        W29213  11.811   9.857   2.801
62673W        W29214  43.640  41.903   2.506
62674W        W29215  32.185  24.094  13.407
62675W        W29216  22.491  21.972   2.743
62676W        W29217  23.258   7.687   2.805
62677W        W29218  19.532  18.166  11.586
62678W        W29219   0.239  25.038  12.603
62679W        W29220  17.333  24.065   3.368
62680W        W29221  29.423  36.778  12.512
62681W        W29222   1.614  11.829  13.466
62682W        W29223  21.730  16.790   1.702
62683W        W29224  19.146  10.866  10.665
62684W        W29225  30.059  10.282   2.702
62685W        W29226   2.240   5.222  12.022
62686W        W29227  20.526  10.108   0.459
62687W        W29228  24.946  15.334  12.903
62688W        W29229  30.573  33.112  13.558
62689W        W29230   9.936  27.451   2.729
62690W        W29231  16.771  43.611  11.116
62691W        W29232  29.850  24.933  11.456
62692W        W29233  17.800  32.185  13.639
62693W        W29234  14.215  40.496   0.639
62694W        W29235   0.808   1.076  11.901
62695W        W29236   8.127  10.852   4.312
62696W        W29237  19.023  15.162  13.721
62697W        W29238  26.934   8.196   4.532
62698W        W29239  24.998   1.417   2.961
62699W        W29240  42.295  43.301  13.860
62700W        W29241  42.008  29.324   4.750
62701W        W29242  28.016  27.991   4.961
62702W        W29243  40.590  13.146  13.404
62703W        W29244  10.305  29.780  10.454
62704W        W29245  19.224   7.233  10.648
62705W        W29246   5.296  18.608   2.637
62706W        W29247  36.073  41.467   0.841
62707W        W29248   1.322   7.393   1.368
62708W        W29249  15.387  32.454  12.939
62709W        W29250  22.554   0.999   2.381
62710W        W29251   5.807  29.249  13.981
62711W        W29252  29.501  39.066  13.083
62712W        W29253  16.294  10.733  13.021
62713W        W29254  10.733  32.460   4.741
62714W        W29255   8.150  39.462  10.939
62715W        W29256  22.292  38.327   0.302
62716W        W29257  17.679   5.762  12.029
62717W        W29258  15.353  14.124   1.168
62718W        W29259  34.591   9.419   2.869
62719W        W29260   1.244  21.787   1.329
62720W        W29261  10.445  43.857   3.634
62721W        W29262   8.851  12.755  10.826
62722W        W29263  40.520  41.467   2.643
62723W        W29264  14.775  14.484   1.440
62724W        W29265   2.673  32.124  13.928
62725W        W29266  15.225  23.117   1.437
62726W        W29267  43.248  31.370  12.946
62727W        W29268  14.289  44.956  10.806
62728W        W29269   7.804   9.416  12.906
62729W        W29270   1.698   3.770  11.714
62730W        W29271  34.329   9.226  12.294
62731W        W29272   3.437  13.578   1.381
62732W        W29273  37.360  30.823   0.056
62733W        W29274  34.017  33.535   4.540
62734W        W29275   6.774  33.667   3.004
62735W        W29276  28.583  39.623   0.738
62736W        W29277  34.168  34.982   3.171
62737W        W29278  41.219  13.146   3.022
62738W        W29279   4.518  43.974  10.476
62739W        W29280  12.551  10.821  13.483
62740W        W29281  44.348  43.241   2.534
62741W        W29282  36.935  21.848   2.404
62742W        W29283  27.572  18.993  11.151
62743W        W29284  18.688  31.893   2.223
62744W        W29285  42.754   1.773  14.491
62745W        W29286  37.011   2.796  13.374
62746W        W29287   0.916  10.656  12.936
62747W        W29288   2.261  36.300  11.183
62748W        W29289  44.242  40.987  13.797
62749W        W29290  36.331   0.506   1.787
62750W        W29291  19.395  24.527   4.132
62751W        W29292  43.147  35.030  12.982
62752W        W29293  15.678  42.395   2.848
62753W        W29294   7.171   0.314   3.284
62754W        W29295  29.079  12.177  10.692
62755W        W29296  43.460   1.484   0.362
62756W        W29297  23.287  33.522  10.785
62757W        W29298  41.396  11.134   1.801
62758W        W29299  29.497  32.090   1.160
62759W        W29300  39.728  44.542   4.256
62760W        W29301   9.728   4.918   3.271
62761W        W29302  28.270  16.923   4.071
62762W        W29303   1.195  12.719   3.119
62763W        W29304   6.756  32.654  11.968
62764W        W29305   2.394  31.768  14.283
62765W        W29306  40.776  31.677  11.038
62766W        W29307  16.081  12.675  13.437
62767W        W29308  43.829  30.971  13.970
62768W        W29309   3.669  33.324   2.315
62769W        W29310   4.894  19.609   2.260
62770W        W29311  43.349  28.425   3.090
62771W        W29312  23.605  24.506   1.795
62772W        W29313   3.778  44.984  12.113
62773W        W29314   1.469  20.098   2.680
62774W        W29315  38.497   4.789   3.003
62775W        W29316   2.765  30.117  11.608
62776W        W29317   7.845  10.175  12.506
62777W        W29318  11.887  11.406  14.035
62778W        W29319  17.253  18.070   0.080
62779W        W29320  25.142  24.727  14.269
62780W        W29321  40.037  35.330  14.141
62781W        W29322  39.010  16.690   1.939
62782W        W29323  28.992   8.314   4.720
62783W        W29324   3.918  14.424  13.470
62784W        W29325  34.662   2.809   2.264
62785W        W29326   3.917  12.491   1.046
62786W        W29327  12.556   0.629   1.304
62787W        W29328  21.999  34.012  12.362
62788W        W29329  41.907  39.309   0.271
62789W        W29330  42.374  35.201  13.284
62790W        W29331  17.843  11.052  13.847
62791W        W29332  43.574  14.794   5.407
62792W        W29333  33.749   4.509   2.854
62793W        W29334  32.003  11.701  12.693
62794W        W29335  15.504  33.186   9.846
62795W        W29336  22.871  34.215   3.759
62796W        W29337  10.114  39.805  13.725
62797W        W29338   0.421   4.822   0.470
62798W        W29339  41.257  18.860   0.027
62799W        W29340   5.284  17.422  12.933
62800W        W29341  18.774  13.541  12.207
62801W        W29342  16.761  14.521  14.386
62802W        W29343   7.550  39.499   3.277
62803W        W29344  43.871  27.867  11.198
62804W        W29345  21.116  31.856  12.472
62805W        W29346  34.251   1.019   9.844
62806W        W29347  27.979   9.606  12.333
62807W        W29348  39.097  17.555  14.149
62808W        W29349   0.978   7.375  12.580
62809W        W29350  24.082  33.565  12.975
62810W        W29351  15.275  10.181   2.430
62811W        W29352  40.093  14.693  12.068
62812W        W29353   3.816  30.053  13.814
62813W        W29354  27.838  11.426  12.026
62814W        W29355  31.225   1.005   3.173
62815W        W29356   1.449  33.045  10.560
62816W        W29357  11.343   5.267  10.915
62817W        W29358  10.560  43.764   1.251
62818W        W29359  37.844  10.070   2.793
62819W        W29360  27.459  15.602   1.703
62820W        W29361  12.495  23.636  10.763
62821W        W29362  23.163   9.315   1.797
62822W        W29363  24.443  10.612   0.770
62823W        W29364  10.206  35.358  13.118
62824W        W29365   4.483   8.273   1.300
62825W        W29366  38.930  23.941   4.301
62826W        W29367   6.278  22.205   0.896
62827W        W29368   2.866  33.039   1.931
62828W        W29369  11.422  37.765  11.966
62829W        W29370  16.127  33.974  10.632
62830W        W29371  32.522   5.466  12.614
62831W        W29372   0.459  16.664   4.431
62832W        W29373  12.627  16.963  11.513
62833W        W29374  26.466  11.568   5.204
62834W        W29375  26.255  24.525   1.381
62835W        W29376   0.776  31.099  11.790
62836W        W29377  10.282  39.941  11.727
62837W        W29378   5.176  14.848   4.563
62838W        W29379  18.652  32.553  10.394
62839W        W29380  36.365   7.625   2.424
62840W        W29381  12.155  21.292  14.898
62841W        W29382  26.887  26.594  14.031
62842W        W29383  42.060  37.584  12.588
62843W        W29384  28.133  37.049  13.463
62844W        W29385  31.206  26.156   3.892
62845W        W29386   5.802  43.279  10.894
62846W        W29387  30.443  18.617   3.700
62847W        W29388  35.126  35.856   5.064
62848W        W29389  12.858  34.354  13.885
62849W        W29390  10.705  22.652  11.871
62850W        W29391  10.710   4.293  12.492
62851W        W29392  22.590  34.530  13.804
62852W        W29393   4.225  42.545  12.009
62853W        W29394  23.214  21.163   2.154
62854W        W29395  20.025   6.445   3.831
62855W        W29396  42.923  42.997   3.935
62856W        W29397  22.221  34.728  12.057
62857W        W29398  10.721  42.437   2.680
62858W        W29399   1.724  34.633   2.550
62859W        W29400   3.466  18.825  14.880
62860W        W29401  10.391   6.696   3.888
62861W        W29402  41.416  37.491  12.127
62862W        W29403  18.406  38.737   0.900
62863W        W29404  35.938   9.664   0.263
62864W        W29405  24.057  29.179  12.928
62865W        W29406  21.804  36.331  12.058
62866W        W29407  21.396  36.334   1.951
62867W        W29408  21.229   8.160   0.450
62868W        W29409  23.156  14.711   0.451
62869W        W29410  39.319  35.087  10.681
62870W        W29411   3.289  28.803  11.547
62871W        W29412  23.699  18.628   1.676
62872W        W29413  13.105  37.929   2.760
62873W        W29414  44.524  28.591  12.750
62874W        W29415  13.035  12.816   0.123
62875W        W29416  31.541  29.621   0.542
62876W        W29417  30.202  14.863  11.509
62877W        W29418  15.947  39.128   2.751
62878W        W29419  44.246  33.813   3.620
62879W        W29420  14.473   9.236   4.892
62880W        W29421   4.369  38.524   4.692
62881W        W29422  25.456  31.985  12.927
62882W        W29423   6.952   2.674   9.819
62883W        W29424   8.347   8.329  14.525
62884W        W29425  16.326   1.945  14.164
62885W        W29426  22.459   6.861  10.306
62886W        W29427  11.861  32.350  14.441
62887W        W29428  43.729  40.066  13.799
62888W        W29429  23.407   6.100  14.376
62889W        W29430   0.797  31.661   0.563
62890W        W29431  28.107   9.837   4.379
62891W        W29432  33.429  18.680   3.650
62892W        W29433  36.599  25.053  11.179
62893W        W29434   8.267  44.962  12.983
62894W        W29435  19.954  18.510   2.923
62895W        W29436   2.991  10.410  13.146
62896W        W29437  12.059  34.621  13.570
62897W        W29438   9.743  10.786  11.657
62898W        W29439  41.768  15.142  12.088
62899W        W29440  12.328   9.304  11.158
62900W        W29441  19.180  30.941  13.373
62901W        W29442  25.905  15.694  11.074
62902W        W29443  31.267  28.869   0.889
62903W        W29444  18.569  35.917  11.238
62904W        W29445   3.062  14.117  13.970
62905W        W29446   9.933  31.048   1.978
62906W        W29447  26.407  11.063   3.771
62907W        W29448  15.071  39.110  11.641
62908W        W29449   6.132  24.632   0.636
62909W        W29450   7.532   0.283  10.694
62910W        W29451  43.605  35.640   4.860
62911W        W29452  17.830  22.901   3.743
62912W        W29453  22.227   2.067  14.189
62913W        W29454  38.974  28.073   0.436
62914W        W29455  28.436  42.224   0.381
62915W        W29456  24.533  37.993   0.739
62916W        W29457  39.547  20.178   0.247
62917W        W29458  27.588  32.134   1.273
62918W        W29459   5.220  36.992   0.424
62919W        W29460   7.378  12.706  11.594
62920W        W29461  42.803  39.162  14.463
62921W        W29462   5.675  37.034  13.958
62922W        W29463   0.358   0.450   0.725
62923W        W29464  18.668  16.993  14.351
62924W        W29465  43.449   5.843  12.363
62925W        W29466  22.076  17.839  13.022
62926W        W29467  29.147   6.939   2.374
62927W        W29468  24.640  23.730  10.977
62928W        W29469  20.815  23.740   4.580
62929W        W29470  31.476  20.073   3.552
62930W        W29471  31.900  17.448  13.753
62931W        W29472  44.328  38.372   1.408
62932W        W29473  41.226  24.064   0.322
62933W        W29474   8.400  20.051   4.353
62934W        W29475  36.789  23.087  14.449
62935W        W29476  37.303  17.944  11.902
62936W        W29477   8.815  34.570  11.785
62937W        W29478  44.883   6.432  11.097
62938W        W29479  24.678  36.596   1.231
62939W        W29480   9.865   3.147   9.535
62940W        W29481  38.752   4.697   0.841
62941W        W29482   6.430  21.810   4.131
62942W        W29483  39.196  30.141  11.127
62943W        W29484   9.563  11.809   1.000
62944W        W29485   7.801  35.517  14.255
62945W        W29486  32.196   2.861   0.179
62946W        W29487  33.425  40.448  13.832
62947W        W29488   5.266  27.603  11.617
62948W        W29489  10.150  29.667  14.902
62949W        W29490  21.247  21.026  13.297
62950W        W29491   3.436  36.325  12.942
62951W        W29492   1.510  37.600   9.784
62952W        W29493  21.869  36.128   3.293
62953W        W29494  27.722   2.319   1.896
62954W        W29495  24.570  36.964   0.731
62955W        W29496  24.946   6.910   3.426
62956W        W29497  41.690  30.474   2.831
62957W        W29498  32.534  34.682  13.462
62958W        W29499  44.454  11.420  13.379
62959W        W29500  30.047   7.790  12.857
62960W        W29501   2.389  16.631  10.649
62961W        W29502  12.660  43.004  13.360
62962W        W29503  30.045  10.959   1.416
62963W        W29504  22.563   5.408  13.551
62964W        W29505   5.824   3.252  12.530
62965W        W29506  15.793   8.304   5.094
62966W        W29507  19.076  10.161   0.506
62967W        W29508  32.506  20.138   1.415
62968W        W29509  40.857  32.371   2.526
62969W        W29510   3.197  42.502  14.652
62970W        W29511  23.584  34.000  13.511
62971W        W29512  30.583   4.168   1.007
62972W        W29513   4.277   8.738   0.315
62973W        W29514  43.484   1.774  13.983
62974W        W29515  36.753  14.292  12.701
62975W        W29516  44.952  13.265   0.775
62976W        W29517  41.006  25.121  13.383
62977W        W29518  26.438   7.415   4.591
62978W        W29519  20.616   6.839   3.775
62979W        W29520  33.462  33.187  14.187
62980W        W29521   2.327  44.457   1.737
62981W        W29522   4.515  43.931  12.755
62982W        W29523  26.748  30.448   2.781
62983W        W29524  13.245   2.010  12.234
62984W        W29525  16.529  31.840   3.955
62985W        W29526   9.712  14.190   5.028
62986W        W29527  17.499   1.969  11.213
62987W        W29528  44.717  29.850  14.087
62988W        W29529  13.782   5.283  13.872
62989W        W29530  43.905  17.683  10.858
62990W        W29531  29.864  36.539  13.758
62991W        W29532  17.015   6.308  10.725
62992W        W29533  42.525   1.752  12.987
62993W        W29534  15.684  43.050  11.127
62994W        W29535  41.075  43.425  11.606
62995W        W29536  24.434  38.107  11.126
62996W        W29537  12.669  36.951  10.836
62997W        W29538  10.145   3.942  11.653
62998W        W29539   3.504  42.623   0.550
62999W        W29540  18.550  37.885  12.475
63000W        W29541  40.323  39.015  12.175
63001W        W29542  31.479   5.490   2.219
63002W        W29543   5.540   1.266  11.274
63003W        W29544  27.637  22.607   1.799
63004W        W29545  34.929  38.243  14.848
63005W        W29546  43.308  12.075   1.733
63006W        W29547  30.046  44.840  11.832
63007W        W29548  21.686  11.781  12.930
63008W        W29549  13.244   7.858   3.514
63009W        W29550  43.035  42.959   0.478
63010W        W29551  43.037  38.873  10.498
63011W        W29552  31.457  30.548   1.176
63012W        W29553  31.593  21.251  11.264
63013W        W29554  44.333   9.389  14.839
63014W        W29555  42.994  17.018  13.039
63015W        W29556  24.603  18.384  13.731
63016W        W29557  16.520  43.297  12.975
63017W        W29558  11.272  42.521  13.247
63018W        W29559  33.138  31.131   1.602
63019W        W29560  14.323  11.681  11.842
63020W        W29561  22.203   6.857   4.531
63021W        W29562   2.278  17.098   4.475
63022W        W29563   9.603  19.825   2.228
63023W        W29564  24.119  41.380   3.572
63024W        W29565  35.256  31.667  12.119
63025W        W29566  25.039  27.064   3.069
63026W        W29567  22.062   4.792  13.909
63027W        W29568   0.270  24.150   4.143
63028W        W29569  30.122  44.106  12.407
63029W        W29570   6.960  34.607  13.446
63030W        W29571  19.502  28.658  10.891
63031W        W29572   0.088  37.924   2.785
63032W        W29573  11.411  32.103  14.395
63033W        W29574  32.146   4.637  13.037
63034W        W29575   4.954  18.730  11.670
63035W        W29576  19.474  30.508  11.163
63036W        W29577  14.130  35.531  11.527
63037W        W29578  25.368  19.695  14.906
63038W        W29579  38.007  35.563  11.648
63039W        W29580  34.450  33.821   2.672
63040W        W29581  13.581  25.667  10.654
63041W        W29582  42.448  35.009  12.407
63042W        W29583  33.643  27.380  12.926
63043W        W29584  36.461  36.346   4.685
63044W        W29585  41.324  33.045  13.380
63045W        W29586  42.393  34.773  11.957
63046W        W29587  21.303   9.355  12.391
63047W        W29588  14.350  38.265  13.888
63048W        W29589  11.398  15.744   2.546
63049W        W29590  16.675  34.054   0.205
63050W        W29591  44.303  14.919   0.800
63051W        W29592   2.811  19.176  11.607
63052W        W29593  19.057  39.532  14.682
63053W        W29594  10.087  14.481  13.399
63054W        W29595  19.247   4.418   2.707
63055W        W29596   0.969  18.559   3.610
63056W        W29597   8.062   4.740  12.166
63057W        W29598  22.790  29.578  13.978
63058W        W29599  42.158  41.105   1.496
63059W        W29600  44.776  18.788   0.556
63060W        W29601  22.098  13.813  11.619
63061W        W29602  22.856  14.639   3.748
63062W        W29603  41.350  35.580  11.914
63063W        W29604  23.723  12.277   4.207
63064W        W29605   7.779  26.301  13.184
63065W        W29606   7.194  19.840  11.619
63066W        W29607  43.425  28.220   1.678
63067W        W29608  23.177  21.001   3.172
63068W        W29609  29.053  22.047  14.318
63069W        W29610  31.163  36.613   3.600
63070W        W29611   7.690  16.863   2.338
63071W        W29612  44.978  16.863  12.989
63072W        W29613  18.603  39.690  14.882
63073W        W29614  30.340  43.269  10.794
63074W        W29615  13.782  18.276  13.568
63075W        W29616   3.904  11.697  10.018
63076W        W29617  28.043  18.475   4.532
63077W        W29618  40.342  21.842  10.734
63078W        W29619  27.149  27.115  13.539
63079W        W29620  32.861  20.050   1.036
63080W        W29621  11.124  42.435  14.790
63081W        W29622  40.774  33.000  13.298
63082W        W29623  31.562  42.259   1.168
63083W        W29624  27.963  35.506  14.279
63084W        W29625  38.526   6.678  14.827
63085W        W29626  11.355  22.675   2.262
63086W        W29627  40.619   5.373   3.678
63087W        W29628   6.961  29.369  13.359
63088W        W29629  43.213  21.806   0.383
63089W        W29630  39.063  12.819   1.232
63090W        W29631  30.672   3.551  11.170
63091W        W29632  36.051   2.690   1.647
63092W        W29633  23.656   1.766   3.493
63093W        W29634  27.339  22.196  11.042
63094W        W29635  17.024  11.589   2.822
63095W        W29636  23.126  31.159   0.787
63096W        W29637  35.959   9.109  14.423
63097W        W29638   9.219  10.061   4.072
63098W        W29639   3.362  17.892   0.826
63099W        W29640   2.533  43.642   2.076
63100W        W29641  31.878  31.057  13.781
63101W        W29642  17.877  19.233   2.103
63102W        W29643  13.806   5.751   3.772
63103W        W29644   3.881  24.003  13.838
63104W        W29645  13.784  26.685   4.977
63105W        W29646  39.904  42.275  14.947
63106W        W29647  27.773  37.354  10.306
63107W        W29648  17.591  14.986   2.751
63108W        W29649  22.033   3.036  13.257
63109W        W29650  22.106  43.554   3.122
63110W        W29651  34.516  29.350  12.016
63111W        W29652   7.688  44.890  11.009
63112W        W29653  32.447   9.058  12.989
63113W        W29654  34.567  41.242  13.925
63114W        W29655   9.940  17.844  13.465
63115W        W29656   6.306   9.871   4.740
63116W        W29657  39.843  33.395   0.896
63117W        W29658  25.650   3.290   0.034
63118W        W29659  27.669  20.657   2.737
63119W        W29660  27.498  22.641  14.379
63120W        W29661   2.783  10.614   0.841
63121W        W29662   1.792  17.065   1.133
63122W        W29663  18.235   3.748   0.454
63123W        W29664  21.600  27.917   3.536
63124W        W29665   4.544  34.429  11.090
63125W        W29666  21.398  27.373  12.372
63126W        W29667  13.569   6.177  10.329
63127W        W29668  27.774  17.801   3.558
63128W        W29669   9.230  31.374  14.391
63129W        W29670   2.340  42.830  14.296
63130W        W29671   9.589  33.429  10.741
63131W        W29672  22.440  10.120   1.947
63132W        W29673   8.134   8.959  14.008
63133W        W29674  30.865  34.300  14.792
63134W        W29675  43.566  30.099   0.419
63135W        W29676   6.958  28.157  10.088
63136W        W29677  32.424  42.124  13.769
63137W        W29678  34.967   1.227  13.481
63138W        W29679  18.746  11.812   9.996
63139W        W29680  11.800   5.866  13.499
63140W        W29681   8.586  34.158   0.954
63141W        W29682  35.663  13.838  13.784
63142W        W29683   9.382   8.379   1.693
63143W        W29684  20.559  17.222  12.596
63144W        W29685  40.523  39.045  14.880
63145W        W29686  35.284  20.235  11.512
63146W        W29687  24.694  32.846  12.967
63147W        W29688   6.883  34.062  13.454
63148W        W29689  26.539  16.572  12.999
63149W        W29690  43.710  30.673  11.048
63150W        W29691  21.948  14.589  14.816
63151W        W29692  19.812   8.710  13.033
63152W        W29693  10.823   1.779  11.946
63153W        W29694  18.790  19.085   0.687
63154W        W29695  28.703   9.788   3.198
63155W        W29696  32.972  30.204  14.450
63156W        W29697  37.139  25.988   1.824
63157W        W29698  40.769  43.427  13.323
63158W        W29699  37.440  15.579  10.596
63159W        W29700   6.597  30.952  13.986
63160W        W29701  28.040  22.658  12.864
63161W        W29702  38.842  26.457  12.965
63162W        W29703   0.047   5.017  12.842
63163W        W29704   3.804  33.049  10.324
63164W        W29705  16.561  41.836   2.365
63165W        W29706  14.305  24.912   0.769
63166W        W29707  31.576  17.762   2.823
63167W        W29708  26.854  12.793   4.829
63168W        W29709  38.619  29.911  11.893
63169W        W29710  40.513   5.784   2.365
63170W        W29711  36.353  35.080  14.758
63171W        W29712  24.459  29.619  10.472
63172W        W29713  26.675  38.097   1.960
63173W        W29714  30.882  11.550   3.102
63174W        W29715  44.380  18.306   1.754
63175W        W29716  11.049  40.617  14.932
63176W        W29717   9.631  24.111   1.449
63177W        W29718  15.748   4.669  14.799
63178W        W29719  23.450  27.366  14.059
63179W        W29720  26.877   6.774   2.274
63180W        W29721  20.832  20.533   4.411
63181W        W29722  26.253  24.811   4.895
63182W        W29723  24.528  13.405   0.289
63183W        W29724  11.733  39.012  14.177
63184W        W29725   4.918  27.115  14.897
63185W        W29726   2.699  28.268  11.117
63186W        W29727  43.732  31.695  12.392
63187W        W29728  11.911  12.113   4.671
63188W        W29729  40.093  28.518   4.506
63189W        W29730  10.234  18.496  11.509
63190W        W29731  43.847  25.239   3.318
63191W        W29732   6.679  26.216  13.345
63192W        W29733  16.585  35.178  11.461
63193W        W29734  11.520   9.804  11.115
63194W        W29735  20.833  27.890   0.086
63195W        W29736  38.717  37.512  12.647
63196W        W29737  21.318  34.285   0.475
63197W        W29738  28.711  37.859   2.699
63198W        W29739  41.360  11.283   4.164
63199W        W29740  35.843  24.129   2.635
63200W        W29741   4.392  13.741   1.704
63201W        W29742  35.909  26.674   1.394
63202W        W29743   2.894  12.536   1.670
63203W        W29744  37.064  37.345   1.436
63204W        W29745  19.592  14.159   3.743
63205W        W29746   4.018  43.055  11.140
63206W        W29747   2.593  35.086  14.793
63207W        W29748  33.703  26.168   2.858
63208W        W29749  24.489  19.063   1.727
63209W        W29750   7.405  19.277  13.342
63210W        W29751  37.624  19.993  11.242
63211W        W29752  44.449  28.371  14.968
63212W        W29753  21.286  24.063   3.132
63213W        W29754  28.020  19.554  11.024
63214W        W29755  30.152  35.006   4.373
63215W        W29756   9.616  30.129   3.046
63216W        W29757  22.762   8.648  13.176
63217W        W29758  16.050  20.062   4.418
63218W        W29759  11.111   3.857   1.793
63219W        W29760   1.028   2.687  12.874
63220W        W29761  14.702  37.876  14.002
63221W        W29762   6.394  22.775  14.404
63222W        W29763  11.231   3.858  11.396
63223W        W29764  28.025  15.036  14.733
63224W        W29765  30.708   2.904  13.353
63225W        W29766   2.921  28.904  14.495
63226W        W29767  26.930   3.397   4.581
63227W        W29768  41.060  20.045  11.618
63228W        W29769  13.051  31.984  11.289
63229W        W29770  10.897   5.450  13.888
63230W        W29771  43.556  15.923  10.944
63231W        W29772  32.373  25.167  11.562
63232W        W29773  42.462  18.634   4.575
63233W        W29774  39.514  41.839  12.853
63234W        W29775  28.089  17.482  11.979
63235W        W29776  28.691  11.685  14.056
63236W        W29777  12.286  32.746   4.456
63237W        W29778  40.282   7.506  13.374
63238W        W29779  27.490   4.164   3.614
63239W        W29780  21.790  39.965   0.517
63240W        W29781  29.828  36.995   4.374
63241W        W29782  15.026   5.798   4.642
63242W        W29783   8.495  18.607   1.172
63243W        W29784  12.113  33.399  14.306
63244W        W29785  34.566  16.789  11.989
63245W        W29786  21.187  32.568   4.816
63246W        W29787  17.161  25.968  14.800
63247W        W29788   6.363  37.255   3.203
63248W        W29789   6.795  21.224  13.567
63249W        W29790  13.908   3.781   1.383
63250W        W29791  19.725   5.372   1.411
63251W        W29792   6.767  37.280   1.011
63252W        W29793  43.489  29.388  11.184
63253W        W29794  40.537  27.205  11.670
63254W        W29795   2.951  40.231  14.950
63255W        W29796  35.911  38.057  12.984
63256W        W29797  14.378   3.836   4.212
63257W        W29798   6.869  20.518   4.077
63258W        W29799  40.985  33.294  13.686
63259W        W29800  18.581  11.092  12.949
63260W        W29801  32.309  31.519  10.725
63261W        W29802   4.391  27.184   3.265
63262W        W29803  22.103   3.670   1.800
63263W        W29804  27.976   6.523  13.034
63264W        W29805   4.941   3.983   2.172
63265W        W29806  24.579  41.726  12.712
63266W        W29807  24.046  31.132   3.799
63267W        W29808  29.868  13.834   2.074
63268W        W29809   0.793   4.313  11.443
63269W        W29810  16.512  43.262   1.897
63270W        W29811  22.717  38.443   1.730
63271W        W29812  23.004   3.393   9.733
63272W        W29813  27.060  32.852  10.862
63273W        W29814  18.726  12.659  11.584
63274W        W29815  17.304  20.721  12.118
63275W        W29816  23.934   8.329  10.416
63276W        W29817  10.916   9.383   4.177
63277W        W29818  21.394  28.950   1.939
63278W        W29819  31.090  17.177  11.999
63279W        W29820  41.321  33.870  14.364
63280W        W29821  32.866  15.537   1.163
63281W        W29822   9.232  30.958  11.264
63282W        W29823  42.503  39.345   1.804
63283W        W29824  34.585  26.385  12.415
63284W        W29825  36.370  30.269   1.714
63285W        W29826  17.388  35.934   3.676
63286W        W29827  12.891  33.401  14.833
63287W        W29828  12.502  27.840   0.674
63288W        W29829  14.023   8.567   1.463
63289W        W29830  39.365  18.111  11.870
63290W        W29831   6.450  35.526  13.973
63291W        W29832   4.296   1.838   0.772
63292W        W29833   6.600  15.418   1.297
63293W        W29834  24.110  34.881  11.257
63294W        W29835   8.070   3.506  13.682
63295W        W29836  20.303  39.767  12.457
63296W        W29837   7.943  11.101  14.425
63297W        W29838  18.075   4.455  12.071
63298W        W29839  15.799  44.268   0.844
63299W        W29840  17.859   9.052  12.070
63300W        W29841  40.166  43.030   4.125
63301W        W29842  13.115  34.580  11.147
63302W        W29843   8.896  35.899  11.224
63303W        W29844  21.764   5.729   0.266
63304W        W29845  18.506  34.604  12.504
63305W        W29846   7.700  21.153   2.812
63306W        W29847   0.024  27.233  14.351
63307W        W29848  40.127   8.122   3.635
63308W        W29849  11.919  32.674   1.678
63309W        W29850   1.424   5.289  12.925
63310W        W29851   6.136  32.179   4.473
63311W        W29852  38.653  31.945   4.648
63312W        W29853  19.651  37.574   2.802
63313W        W29854  37.555  18.110   0.055
63314W        W29855  34.611   0.133   4.933
63315W        W29856  21.566  26.485  11.391
63316W        W29857  37.382  26.754  13.684
63317W        W29858  32.859   7.815   1.559
63318W        W29859  24.042   6.386  14.963
63319W        W29860  20.156  30.064   2.673
63320W        W29861  10.078  38.963   1.914
63321W        W29862  42.749  23.985   4.368
63322W        W29863   5.008   0.391   1.759
63323W        W29864  23.925  18.633  12.446
63324W        W29865  44.940  32.509  14.793
63325W        W29866   0.358  22.124  11.950
63326W        W29867  24.688  33.245   2.822
63327W        W29868  38.958   9.257  10.770
63328W        W29869   3.021  28.251  10.697
63329W        W29870  31.908   6.032   3.340
63330W        W29871  42.819  37.077  11.032
63331W        W29872   8.361  20.111   3.217
63332W        W29873  26.043   5.972   2.744
63333W        W29874  20.533  35.032   4.213
63334W        W29875  22.663  32.548   2.451
63335W        W29876   5.646  35.255   4.994
63336W        W29877  37.493  40.187   1.713
63337W        W29878  30.071  30.908   2.295
63338W        W29879  42.007  35.867   3.670
63339W        W29880  13.172  16.738  10.730
63340W        W29881  17.181  18.664  14.321
63341W        W29882  25.717  24.058  12.436
63342W        W29883  25.066  10.586  11.221
63343W        W29884  42.267  15.547  11.652
63344W        W29885   9.442  43.986   4.025
63345W        W29886  41.558   2.493   4.651
63346W        W29887   2.061  27.692   1.812
63347W        W29888  29.555  28.127  13.431
63348W        W29889   6.138  22.680   2.837
63349W        W29890  25.217   5.687   5.365
63350W        W29891  27.101  12.595  14.903
63351W        W29892  12.580   1.881  11.625
63352W        W29893  22.066   9.146  10.993
63353W        W29894  11.388  31.976  13.298
63354W        W29895  24.084   1.623   1.792
63355W        W29896   0.888   0.225   2.753
63356W        W29897  18.771  27.930   2.324
63357W        W29898  44.010  34.966  14.071
63358W        W29899  39.223   1.811   0.796
63359W        W29900  29.548  30.154  14.335
63360W        W29901  42.505   7.788  12.899
63361W        W29902  40.031  34.672   0.344
63362W        W29903  42.509  11.175   0.728
63363W        W29904  37.139  31.498   0.634
63364W        W29905  17.952   9.580   1.791
63365W        W29906  30.170  38.776   3.877
63366W        W29907  10.821   0.815  14.052
63367W        W29908  43.475  27.149   1.683
63368W        W29909  25.268   0.971   2.235
63369W        W29910   7.263   2.331   2.173
63370W        W29911  42.762  25.666   2.677
63371W        W29912  12.763   7.631   3.700
63372W        W29913  38.415  40.299  13.370
63373W        W29914  11.072   9.112   1.225
63374W        W29915  33.937  29.327   4.581
63375W        W29916  25.094  17.998   4.093
63376W        W29917  42.600  42.440  13.314
63377W        W29918  39.228  15.813  14.908
63378W        W29919   7.863   5.100   1.688
63379W        W29920  18.575   8.617  11.196
63380W        W29921  23.487  23.941   4.592
63381W        W29922  10.737   9.286   3.696
63382W        W29923  12.909  20.639  13.756
63383W        W29924  27.393   3.874   0.926
63384W        W29925   9.532   7.909   0.367
63385W        W29926   3.000  24.930  14.049
63386W        W29927   3.653  17.193   0.864
63387W        W29928  13.142  37.471   2.322
63388W        W29929  29.631  34.779  11.239
63389W        W29930  23.481  36.852  14.324
63390W        W29931  17.844  29.190   4.589
63391W        W29932   5.279  37.019   3.200
63392W        W29933   9.399   3.736   0.311
63393W        W29934  18.569  37.106  10.693
63394W        W29935   1.318  29.074   9.899
63395W        W29936  23.514  12.399  12.711
63396W        W29937   3.742  19.146  12.082
63397W        W29938  38.458   0.821   3.737
63398W        W29939  23.681  31.381   3.530
63399W        W29940  14.202  36.749   0.489
63400W        W29941  15.708  26.563   3.233
63401W        W29942  43.928   2.349  13.806
63402W        W29943   0.678  12.196   3.671
63403W        W29944  41.735  34.139   4.126
63404W        W29945  30.768  39.182  12.492
63405W        W29946  29.887  12.817  13.347
63406W        W29947  15.531  42.298  12.793
63407W        W29948  29.471  34.904   2.837
63408W        W29949   7.724  40.814   1.700
63409W        W29950   1.315  24.441   1.048
63410W        W29951  29.272  26.134   3.945
63411W        W29952  32.057  34.339   3.767
63412W        W29953   9.654  19.896  11.491
63413W        W29954  42.279  22.185   1.820
63414W        W29955  36.987  38.519  11.226
63415W        W29956  44.035  35.108   0.977
63416W        W29957  42.004  41.572  11.061
63417W        W29958  15.771   6.759  13.935
63418W        W29959  40.027  35.045   3.185
63419W        W29960  38.661   1.675  11.898
63420W        W29961  31.610  37.339   3.978
63421W        W29962  15.387  30.076   3.393
63422W        W29963   2.546  14.352   1.399
63423W        W29964  36.779  21.522   0.476
63424W        W29965  43.575  34.211  12.096
63425W        W29966   0.759  16.014   3.171
63426W        W29967  33.282  34.450  10.751
63427W        W29968  37.459   0.055   0.305
63428W        W29969  26.990  32.612   4.159
63429W        W29970  30.484  27.499   1.624
63430W        W29971   2.680  40.689   3.835
63431W        W29972  23.041   1.290   1.941
63432W        W29973  20.817  13.063   3.751
63433W        W29974  21.056  43.407  13.471
63434W        W29975  36.866  27.802   0.865
63435W        W29976  38.003  30.719  14.942
63436W        W29977  38.370  23.980   1.209
63437W        W29978  43.025   3.924  14.023
63438W        W29979  43.184   3.464   5.035
63439W        W29980  15.764  13.106  12.895
63440W        W29981  17.791  32.343   3.823
63441W        W29982   3.776   5.117  13.516
63442W        W29983   3.950  38.601  11.116
63443W        W29984  41.483   6.486   1.728
63444W        W29985  18.431   5.961  11.866
63445W        W29986  25.334  32.860   3.311
63446W        W29987  36.111  38.286   2.552
63447W        W29988  38.918   8.928  14.049
63448W        W29989  17.529   1.138  13.163
63449W        W29990  10.142   0.799  13.040
63450W        W29991  23.090   2.053  12.381
63451W        W29992  13.801   2.788   3.088
63452W        W29993  26.684  15.558  11.489
63453W        W29994  12.598  28.356   0.724
63454W        W29995  10.822  20.953  11.116
63455W        W29996  31.442   7.776   1.260
63456W        W29997  34.090  27.141  12.872
63457W        W29998   8.089  21.895  14.003
63458W        W29999  38.659  32.935  13.448
63459W        W30000   1.795  42.731  11.133
63460W        W30001  13.095   5.692   0.862
63461W        W30002  15.499  15.741  12.848
63462W        W30003  25.858  25.051  12.482
63463W        W30004  29.144  26.882  11.420
63464W        W30005  24.612  12.142  11.579
63465W        W30006  22.420  26.436   0.525
63466W        W30007  44.106  18.062  12.870
63467W        W30008  44.953  40.298  14.572
63468W        W30009  14.168   3.381   1.877
63469W        W30010  36.577   6.474   3.814
63470W        W30011  36.093  22.448   0.274
63471W        W30012   9.327  32.981   0.915
63472W        W30013  27.478  36.036  10.753
63473W        W30014  21.142  41.914   1.826
63474W        W30015  27.795  18.559  11.732
63475W        W30016  27.784  32.588   1.472
63476W        W30017  18.283  42.852  13.224
63477W        W30018   9.162  11.759   1.373
63478W        W30019  31.817  18.263  11.127
63479W        W30020  11.651  41.466   1.788
63480W        W30021  36.132  21.536   1.858
63481W        W30022  22.234   3.491  10.695
63482W        W30023  28.472  43.755  13.855
63483W        W30024   2.913   0.317  14.512
63484W        W30025   3.269   8.902   2.140
63485W        W30026  33.363  20.684  12.051
63486W        W30027  23.493  21.596  12.445
63487W        W30028  37.936  19.811   4.607
63488W        W30029   3.405  18.250   1.943
63489W        W30030   4.512  19.656   3.268
63490W        W30031  12.796  29.921   4.588
63491W        W30032   1.950  34.552  12.016
63492W        W30033  33.002  33.614  14.899
63493W        W30034  23.691  44.761  13.418
63494W        W30035   8.219  37.001  11.575
63495W        W30036  37.299  31.089   1.326
63496W        W30037  38.512  24.594  11.381
63497W        W30038  37.146   0.953   2.269
63498W        W30039  37.397  13.587  10.995
63499W        W30040   0.408   3.407   4.195
63500W        W30041  31.208  43.787   3.253
63501W        W30042  34.600  11.437  12.949
63502W        W30043  17.835   0.429  13.953
63503W        W30044   8.079  22.023   3.631
63504W        W30045  23.069  28.289   2.181
63505W        W30046  12.486  34.909  14.401
63506W        W30047  15.275  40.486  10.715
63507W        W30048  34.192  15.425  14.346
63508W        W30049  14.345   8.559  14.276
63509W        W30050  22.715  31.218  11.318
63510W        W30051  40.974  35.951  10.761
63511W        W30052  16.595  11.192  10.449
63512W        W30053  31.361   3.965  13.831
63513W        W30054  10.957  31.984  13.592
63514W        W30055  14.715  17.963   1.262
63515W        W30056   6.420  14.610   4.413
63516W        W30057   1.849  44.783  12.550
63517W        W30058  18.309  19.465  12.095
63518W        W30059   6.887  19.782   0.955
63519W        W30060  31.294  44.365  13.145
63520W        W30061  22.594   9.733  14.735
63521W        W30062  30.292  40.478  11.690
63522W        W30063  44.247   8.664  12.886
63523W        W30064  29.336  21.201   0.360
63524W        W30065  23.238   2.538   1.410
63525W        W30066  20.554   5.276   9.976
63526W        W30067  25.409  10.870   3.691
63527W        W30068   9.841  43.432   1.237
63528W        W30069  25.669  14.687  14.391
63529W        W30070  40.437  16.261   0.280
63530W        W30071  18.670  32.702   1.441
63531W        W30072  27.850   4.435  14.757
63532W        W30073   2.395  39.050   2.304
63533W        W30074  30.679  25.021   4.822
63534W        W30075   5.930  16.434   1.182
63535W        W30076  39.740  11.991  11.990
63536W        W30077  38.874  26.475   1.245
63537W        W30078  36.768  14.572   0.879
63538W        W30079   1.686   2.356   0.195
63539W        W30080  25.405  16.966  11.933
63540W        W30081  39.263  13.546   0.743
63541W        W30082  25.134  15.639   5.109
63542W        W30083  19.943   7.359  12.964
63543W        W30084  27.400  23.985  10.696
63544W        W30085  43.690   7.575  12.386
63545W        W30086   3.295  10.746  14.927
63546W        W30087  44.472  40.117   1.079
63547W        W30088  26.560  42.426  14.440
63548W        W30089  17.115  28.942   2.338
63549W        W30090   8.920   5.717  10.696
63550W        W30091  29.769  30.586  10.800
63551W        W30092  10.240   9.269   1.331
63552W        W30093  42.401  15.160  11.281
63553W        W30094   9.569  43.831   4.561
63554W        W30095  13.257   2.339  14.370
63555W        W30096  44.007  44.581  13.399
63556W        W30097   4.432  36.219   2.780
63557W        W30098  11.322   2.377  12.524
63558W        W30099  19.976   1.501   1.715
63559W        W30100  18.315  37.268   3.790
63560W        W30101  13.322  14.463   3.853
63561W        W30102  18.178  11.641   3.057
63562W        W30103  28.592   9.695  11.148
63563W        W30104  33.170  16.039   4.099
63564W        W30105  10.905  14.220  13.179
63565W        W30106  17.200  32.635   1.015
63566W        W30107  29.893   3.928  11.120
63567W        W30108   2.820  34.859   0.407
63568W        W30109  24.580   3.900  14.956
63569W        W30110   1.434  16.841   0.498
63570W        W30111   2.363  14.802   0.545
63571W        W30112   1.775   7.900  11.630
63572W        W30113   3.796  42.586  11.132
63573W        W30114  41.376  17.520   4.622
63574W        W30115  25.955  36.353   1.700
63575W        W30116  30.090  29.754  13.051
63576W        W30117  41.937  32.241   1.731
63577W        W30118  13.800  29.194  11.196
63578W        W30119  14.545   2.614  11.145
63579W        W30120   0.298  37.621  11.656
63580W        W30121  44.315  20.897   0.918
63581W        W30122  44.671  21.288   2.188
63582W        W30123  24.467  41.045   4.581
63583W        W30124  28.621  10.243  12.074
63584W        W30125  36.556  25.403   2.792
63585W        W30126  11.207  42.688   4.026
63586W        W30127  17.474  39.706  10.662
63587W        W30128  44.014  19.736  11.780
63588W        W30129   3.006  18.435  12.198
63589W        W30130  16.493  12.642   4.593
63590W        W30131  43.729  20.170   3.165
63591W        W30132  12.811  25.439  11.236
63592W        W30133  41.884   4.148   4.062
63593W        W30134   0.025  33.477   2.341
63594W        W30135   1.843  37.754  13.956
63595W        W30136   4.997  14.155  14.987
63596W        W30137   7.672  31.351   1.442
63597W        W30138  37.582  19.456  12.918
63598W        W30139   6.772  27.431  11.359
63599W        W30140  44.853   0.044  13.103
63600W        W30141   9.145  40.402   0.297
63601W        W30142   6.859  17.829  12.153
63602W        W30143   9.411  23.988   4.649
63603W        W30144  25.266   1.411   4.056
63604W        W30145  12.100  33.641   3.604
63605W        W30146  19.193  30.420   2.716
63606W        W30147   6.260  18.965   1.314
63607W        W30148  18.230  43.769  12.314
63608W        W30149  23.384  13.125  13.639
63609W        W30150  44.306  40.634  10.660
63610W        W30151  24.282   7.414   0.778
63611W        W30152  19.271  19.218   3.767
63612W        W30153  38.033  10.400  12.369
63613W        W30154   0.943  20.087   0.816
63614W        W30155   9.940   9.648   0.427
63615W        W30156   2.396  29.031  14.784
63616W        W30157  16.700  40.591   0.473
63617W        W30158   3.830  27.559  11.884
63618W        W30159  17.024  44.407  13.038
63619W        W30160   0.781   8.615  10.372
63620W        W30161  32.532  33.475   2.553
63621W        W30162   9.602  25.532   1.969
63622W        W30163   0.777  43.820  13.406
63623W        W30164  12.490  29.083   2.813
63624W        W30165  34.942  16.299  10.258
63625W        W30166  20.767  37.496   1.240
63626W        W30167  33.628  13.710  12.508
63627W        W30168  14.824  42.463   2.372
63628W        W30169   4.937   1.139   0.653
63629W        W30170   9.118  25.676   1.743
63630W        W30171   9.130  10.650  14.446
63631W        W30172  18.349  11.768   4.246
63632W        W30173  21.271  16.285   0.282
63633W        W30174  43.448   8.364  14.018
63634W        W30175   2.010   0.862   3.590
63635W        W30176   7.328  28.032   3.312
63636W        W30177  37.915  35.239  10.343
63637W        W30178   3.414  43.423  11.659
63638W        W30179  27.763  38.012  14.952
63639W        W30180  23.045  17.990   1.253
63640W        W30181  20.962  38.384   1.314
63641W        W30182  26.135   5.224  14.005
63642W        W30183  34.842  27.618   0.021
63643W        W30184  10.369  17.007   2.707
63644W        W30185  22.572  19.673   4.660
63645W        W30186  34.482   4.932   0.830
63646W        W30187  19.196  18.450  14.468
63647W        W30188  41.558  11.133   0.725
63648W        W30189  16.093   3.279   2.383
63649W        W30190  10.108  33.134   4.628
63650W        W30191  37.911  21.809  13.507
63651W        W30192   9.932  14.721  11.253
63652W        W30193  33.418  36.565   0.209
63653W        W30194   5.320  23.678  14.885
63654W        W30195  29.075  30.424   1.426
63655W        W30196  15.637  35.392  13.530
63656W        W30197   3.286   1.194  13.719
63657W        W30198   6.956   0.842   1.975
63658W        W30199  20.246  12.287  12.942
63659W        W30200  21.302  12.736   2.656
63660W        W30201  25.468   0.049  12.043
63661W        W30202  22.081  29.575   1.686
63662W        W30203  35.598  19.716   4.166
63663W        W30204  34.022  13.763   3.390
63664W        W30205  29.529  23.437   0.925
63665W        W30206  25.111  43.485   3.825
63666W        W30207  28.198  17.575  12.803
63667W        W30208   3.402  15.832  12.719
63668W        W30209  21.803  35.499  11.076
63669W        W30210  35.529  16.671  11.869
63670W        W30211  11.323  30.361  12.583
63671W        W30212  32.203  33.475  13.148
63672W        W30213   0.724  44.457   0.464
63673W        W30214  43.191  21.678  12.319
63674W        W30215   1.813  24.632  10.474
63675W        W30216  41.929   7.920  12.017
63676W        W30217  32.068  10.987  12.008
63677W        W30218  29.486  15.813   1.181
63678W        W30219  17.194  20.716  12.969
63679W        W30220  40.503  30.763  14.015
63680W        W30221  21.374   6.853  12.994
63681W        W30222  20.713  15.827  12.627
63682W        W30223  39.824  38.913  12.157
63683W        W30224  14.728   5.036   2.807
63684W        W30225  42.551  32.957   4.589
63685W        W30226  19.732  31.160  14.339
63686W        W30227  18.519  13.390  13.281
63687W        W30228  36.190   4.837  13.208
63688W        W30229  40.750  30.430   1.398
63689W        W30230   4.844   6.467  10.492
63690W        W30231  15.980   3.924  14.474
63691W        W30232  15.068  43.357   2.920
63692W        W30233  38.624  43.191  10.777
63693W        W30234  31.991  10.370   5.092
63694W        W30235   3.475   8.887   1.265
63695W        W30236   4.269  20.755   0.213
63696W        W30237  43.027  28.521   1.778
63697W        W30238   2.377   5.155  11.495
63698W        W30239  27.134  16.175   0.312
63699W        W30240  35.385  34.598  13.834
63700W        W30241  23.855  23.962   0.417
63701W        W30242   6.359  12.741   4.703
63702W        W30243   1.616   6.541   3.916
63703W        W30244   9.817  11.938   0.115
63704W        W30245  35.583  25.535   2.396
63705W        W30246  32.994  16.520   4.060
63706W        W30247   4.803  21.420   3.194
63707W        W30248  36.005  20.040   3.730
63708W        W30249  39.863  33.261  10.844
63709W        W30250  41.384   2.472   1.391
63710W        W30251  28.481  25.629  12.913
63711W        W30252  25.684   8.961  11.576
63712W        W30253  39.926  13.381   2.665
63713W        W30254  44.026  39.384   4.071
63714W        W30255  23.565   4.822   3.095
63715W        W30256   4.377  25.217  12.080
63716W        W30257  11.027  21.206   1.082
63717W        W30258  25.511  28.473   3.693
63718W        W30259   4.467  19.235   2.697
63719W        W30260  20.283  26.190   2.392
63720W        W30261  12.147  36.675  12.991
63721W        W30262   0.891  13.242  12.579
63722W        W30263  14.858  21.699   1.087
63723W        W30264   3.605  35.038  14.927
63724W        W30265  28.951  17.068   1.966
63725W        W30266  26.717  11.256   2.002
63726W        W30267  44.022  37.994   2.730
63727W        W30268  10.251  12.091  13.464
63728W        W30269  10.160  40.802  12.013
63729W        W30270   4.378   4.004  13.870
63730W        W30271  12.892  22.904   0.789
63731W        W30272  36.453  32.611   0.954
63732W        W30273  44.243  40.567   4.208
63733W        W30274  16.307  28.665   3.254
63734W        W30275  15.906  37.308  14.908
63735W        W30276   0.920  19.447  11.659
63736W        W30277   2.995  28.953   3.190
63737W        W30278  33.892  42.491   3.050
63738W        W30279   4.220  41.849  11.232
63739W        W30280  42.342   0.278   1.035
63740W        W30281  40.189  16.068   1.005
63741W        W30282  10.637  14.219   1.889
63742W        W30283  34.647  39.226   2.340
63743W        W30284  20.194  35.104   1.636
63744W        W30285   7.673   4.795   2.168
63745W        W30286  40.313  25.635  12.489
63746W        W30287  35.387  18.575  11.305
63747W        W30288  29.108  12.138   3.375
63748W        W30289   5.780  30.396  11.560
63749W        W30290  11.183   1.914   1.424
63750W        W30291   1.354   2.160   4.920
63751W        W30292   8.509  17.643   3.653
63752W        W30293   0.817  42.860   1.924
63753W        W30294  31.047   8.913  12.888
63754W        W30295  10.807  40.946  12.645
63755W        W30296  28.046   7.026  12.168
63756W        W30297  33.326  31.769   0.296
63757W        W30298  37.280  12.202  11.004
63758W        W30299  43.495  30.637   1.719
63759W        W30300  33.298   3.281  14.679
63760W        W30301  35.858  19.523  14.112
63761W        W30302  42.052   6.364  11.951
63762W        W30303  32.808   2.554   1.890
63763W        W30304  22.748   4.920  12.494
63764W        W30305   5.016  32.374  10.073
63765W        W30306  30.257  25.251   2.773
63766W        W30307  27.934  28.547  13.905
63767W        W30308  32.132  29.476   3.483
63768W        W30309   5.314  12.129  11.899
63769W        W30310  27.910   5.950  13.834
63770W        W30311  27.612   1.491   4.628
63771W        W30312   1.921  13.426   0.238
63772W        W30313  28.728  31.743   2.942
63773W        W30314   2.758   6.339   1.408
63774W        W30315  20.184  42.915  11.205
63775W        W30316  28.039  16.158   4.668
63776W        W30317  35.300  41.216   3.443
63777W        W30318  23.150   4.837   3.594
63778W        W30319  42.424  24.992  13.506
63779W        W30320  31.021   5.094  10.327
63780W        W30321  23.723  23.581   4.929
63781W        W30322  34.281  18.152  11.251
63782W        W30323   5.953  41.512  10.618
63783W        W30324  39.308  15.695   4.401
63784W        W30325   1.493  36.386   3.131
63785W        W30326   4.782   5.718  14.263
63786W        W30327  10.086  35.073   2.402
63787W        W30328  35.497  24.681   3.745
63788W        W30329  34.159  13.517  10.231
63789W        W30330  22.137  17.227   9.914
63790W        W30331   2.290   2.488   1.830
63791W        W30332  19.374   8.712  11.373
63792W        W30333   2.799  25.979   1.826
63793W        W30334   4.845  15.102  12.116
63794W        W30335  26.147  13.425   3.203
63795W        W30336  20.114   5.330  10.264
63796W        W30337  20.018  33.598   1.457
63797W        W30338  26.659  16.847   2.312
63798W        W30339  14.938  19.221  12.194
63799W        W30340  13.756  33.935  14.847
63800W        W30341   7.623   0.513   3.409
63801W        W30342  15.418  28.003   2.742
63802W        W30343  35.255   7.360   4.146
63803W        W30344  33.973  37.562   4.440
63804W        W30345  34.387   3.540  12.420
63805W        W30346  26.097   9.300  11.581
63806W        W30347  39.030  36.618   3.590
63807W        W30348   1.552   5.835   2.323
63808W        W30349   8.839  14.991  11.942
63809W        W30350  37.558   5.903   3.291
63810W        W30351  20.850  29.712   0.395
63811W        W30352  42.300  16.295  14.472
63812W        W30353  39.365  23.258  13.760
63813W        W30354  25.569  18.860   2.375
63814W        W30355  24.770  16.316   0.471
63815W        W30356  36.714  28.393   3.326
63816W        W30357  43.064  23.233  14.815
63817W        W30358  38.008  30.839   1.944
63818W        W30359  19.106   1.029  14.378
63819W        W30360  44.406  36.131  11.358
63820W        W30361   6.251  14.595  12.975
63821W        W30362  33.115   9.167  11.118
63822W        W30363  18.217  17.748   0.696
63823W        W30364  33.611  36.715   4.609
63824W        W30365  25.588   7.185   1.954
63825W        W30366   7.875  43.997  11.183
63826W        W30367  22.570  11.213   3.502
63827W        W30368  30.842  33.229   4.122
63828W        W30369   3.885   8.487  12.507
63829W        W30370  23.144  39.774   3.641
63830W        W30371  44.871  39.059   4.234
63831W        W30372  25.169  44.200  14.328
63832W        W30373   1.503  41.968   2.781
63833W        W30374  12.236  31.844   1.903
63834W        W30375   4.933  32.109   2.927
63835W        W30376  24.922  19.968  11.740
63836W        W30377  38.541  20.455  11.248
63837W        W30378   8.779  36.843  11.994
63838W        W30379   8.345  32.196   4.649
63839W        W30380  35.909  20.664  11.033
63840W        W30381   4.688  33.634   3.099
63841W        W30382   5.781  31.198   0.820
63842W        W30383  16.558  11.569  12.901
63843W        W30384  13.683  13.622  10.360
63844W        W30385  27.787  18.014   4.538
63845W        W30386  16.848  18.373  14.938
63846W        W30387   5.940  32.848  10.734
63847W        W30388  12.390  13.804   2.197
63848W        W30389  34.005  10.025  12.061
63849W        W30390  29.478  34.935   3.349
63850W        W30391  36.561  43.989   4.126
63851W        W30392   5.333  17.689   0.912
63852W        W30393  30.655  33.544   4.621
63853W        W30394  16.842  11.274  13.858
63854W        W30395  32.490  31.985  10.426
63855W        W30396  25.743  17.550   0.968
63856W        W30397  19.333  11.646  12.070
63857W        W30398  20.560  25.523  13.824
63858W        W30399   4.244  39.164  13.606
63859W        W30400  17.835  25.667   2.264
63860W        W30401  35.641  20.714  12.846
63861W        W30402   2.335   1.421   4.459
63862W        W30403  21.493  15.320  13.943
63863W        W30404  25.581   0.433   3.870
63864W        W30405   8.156  37.500  13.456
63865W        W30406  18.230  18.003   3.806
63866W        W30407  31.962  40.660  11.191
63867W        W30408  17.287  35.450   0.032
63868W        W30409  15.720   3.436   1.206
63869W        W30410  11.257  32.675  10.970
63870W        W30411  25.059  43.613  12.054
63871W        W30412   0.817  38.090   1.651
63872W        W30413  42.221   2.204  10.478
63873W        W30414   2.186  15.109  13.210
63874W        W30415  17.584  10.636   3.660
63875W        W30416  23.618  18.175  10.951
63876W        W30417   6.259  28.705   0.417
63877W        W30418  36.030   4.972  11.697
63878W        W30419  20.573  17.829  13.816
63879W        W30420  30.413   4.103   1.985
63880W        W30421  31.314  32.051   0.808
63881W        W30422  21.009  32.109  12.976
63882W        W30423  13.757  27.452   3.561
63883W        W30424   9.724  11.252  12.552
63884W        W30425  28.720  27.193  14.357
63885W        W30426  43.455  41.471   1.985
63886W        W30427  30.991   1.645   3.779
63887W        W30428  18.714   5.698   0.426
63888W        W30429  23.017   3.927   9.739
63889W        W30430  16.094  30.165  11.968
63890W        W30431  16.424  32.013  13.434
63891W        W30432  10.646  24.862   0.697
63892W        W30433   2.346   1.438   3.051
63893W        W30434   7.442   1.442  12.583
63894W        W30435  11.364  21.745  13.792
63895W        W30436  22.764  18.043  13.538
63896W        W30437   0.165  14.998   2.854
63897W        W30438  26.158  24.592  14.414
63898W        W30439   3.904  19.553  13.903
63899W        W30440  27.938  15.241   0.612
63900W        W30441   5.403  24.261  14.472
63901W        W30442  14.224  31.217   3.428
63902W        W30443   9.723  35.999   2.287
63903W        W30444  42.204  22.364  10.375
63904W        W30445   4.693  36.221   3.635
63905W        W30446  17.622  30.222   2.227
63906W        W30447  38.494   2.025   4.896
63907W        W30448   2.277  41.652   4.586
63908W        W30449  25.960  33.538  11.991
63909W        W30450  15.789   6.824   4.497
63910W        W30451  31.905  40.512   1.403
63911W        W30452  35.293  22.343   0.940
63912W        W30453   8.472  42.747  10.659
63913W        W30454   0.983  32.083  12.454
63914W        W30455   4.879  43.865  13.120
63915W        W30456  33.331  34.486   2.095
63916W        W30457   6.122  18.465   1.317
63917W        W30458  40.224   1.168  14.378
63918W        W30459  29.244   5.813  11.178
63919W        W30460  38.901  24.151  12.016
63920W        W30461  22.708  18.014   0.331
63921W        W30462   9.642  24.541  12.971
63922W        W30463  24.000  33.515   0.761
63923W        W30464  15.354   3.507   3.963
63924W        W30465  28.584  39.569   2.216
63925W        W30466   0.216  44.366  13.100
63926W        W30467  13.023   4.783   1.004
63927W        W30468  20.319   2.943   1.775
63928W        W30469  26.992  16.748   1.802
63929W        W30470  14.874  15.814  11.138
63930W        W30471  41.464  35.387   4.453
63931W        W30472   1.428   0.367  10.817
63932W        W30473  27.695  17.167  13.964
63933W        W30474  34.538  30.969  14.544
63934W        W30475  35.192  40.559  14.316
63935W        W30476   4.874   5.757   0.311
63936W        W30477  20.582  42.740   5.048
63937W        W30478  39.318  22.166  13.074
63938W        W30479  30.037  25.269   1.839
63939W        W30480  21.946   9.390  14.512
63940W        W30481  40.704  30.641   2.736
63941W        W30482  28.152  19.018   1.749
63942W        W30483   1.715  21.254   1.037
63943W        W30484  17.668  32.535  11.350
63944W        W30485  34.605  16.458  12.389
63945W        W30486  35.618  11.583  14.253
63946W        W30487  27.417  36.039   4.252
63947W        W30488  19.684  28.174   4.294
63948W        W30489  38.898   1.995   1.844
63949W        W30490   7.977  23.372  11.942
63950W        W30491  13.798  18.968  12.961
63951W        W30492  36.219   8.270   1.377
63952W        W30493   3.684   3.735   1.783
63953W        W30494  19.106  14.286  12.874
63954W        W30495   4.386  12.558   3.331
63955W        W30496   4.343   5.876   2.833
63956W        W30497  32.671  12.143   0.240
63957W        W30498  21.258  23.571  14.793
63958W        W30499   6.951  24.354   2.298
63959W        W30500  14.296  37.355   1.734
63960W        W30501  17.601  40.136  13.878
63961W        W30502  44.479  17.927   0.925
63962W        W30503  29.724  36.465   1.373
63963W        W30504  17.904  38.499   3.125
63964W        W30505   1.987  43.871   1.233
63965W        W30506  41.794   8.367   2.225
63966W        W30507  28.423   8.613  13.922
63967W        W30508  11.134  40.835  10.287
63968W        W30509  36.760   0.763  14.286
63969W        W30510  41.923  24.050  14.727
63970W        W30511  40.440  13.076   2.063
63971W        W30512  13.645   3.785   2.726
63972W        W30513  21.835   1.909   4.523
63973W        W30514  38.126  14.673   2.608
63974W        W30515  41.602  30.844  11.951
63975W        W30516  35.930   1.427   4.562
63976W        W30517  31.412  35.155   4.019
63977W        W30518  41.615   3.862  11.411
63978W        W30519  21.518  40.305  12.006
63979W        W30520  28.641  16.936  10.731
63980W        W30521  18.732  37.316  11.997
63981W        W30522   3.004  17.714   4.160
63982W        W30523  26.651  25.003   4.206
63983W        W30524  20.034   2.425  13.896
63984W        W30525   8.663  30.212  10.847
63985W        W30526   2.942  37.466  14.815
63986W        W30527  44.692  28.907   4.777
63987W        W30528  25.364  35.217  13.452
63988W        W30529  16.142  24.080  11.588
63989W        W30530  44.975  40.391  13.631
63990W        W30531  23.369   7.793   9.801
63991W        W30532   0.465  28.915   3.580
63992W        W30533  26.209  36.843   2.856
63993W        W30534  27.961   4.297   3.772
63994W        W30535  23.985  21.959   1.360
63995W        W30536  22.002  10.865  12.969
63996W        W30537  10.321  30.490   4.416
63997W        W30538  11.940   9.691  12.489
63998W        W30539   4.898  22.210  12.050
63999W        W30540  22.162  35.136  11.198
64000W        W30541  15.375  41.829   5.272
64001W        W30542  15.693  14.128  12.878
64002W        W30543  15.600   0.260   1.778
64003W        W30544  35.799  34.540   1.537
64004W        W30545  35.571  31.514   2.350
64005W        W30546  29.142   1.303   2.893
64006W        W30547  17.839   8.322  12.583
64007W        W30548  19.007  22.012  13.396
64008W        W30549  21.564  43.427   2.755
64009W        W30550  16.618  26.544   2.917
64010W        W30551  41.442  32.493  12.480
64011W        W30552  18.919  25.748  11.475
64012W        W30553   5.154  28.542  13.451
64013W        W30554  10.936  29.895   0.865
64014W        W30555   7.314  36.538   2.186
64015W        W30556   9.576  40.323  13.999
64016W        W30557   9.278  21.890  10.686
64017W        W30558  12.632   4.246  13.521
64018W        W30559   3.209  33.035   4.537
64019W        W30560  31.140   2.311   3.188
64020W        W30561  35.330  33.614  14.935
64021W        W30562  13.942   0.947   0.266
64022W        W30563  22.544  25.443  14.969
64023W        W30564  24.146  43.832  11.629
64024W        W30565  33.026  35.143   3.762
64025W        W30566   9.123  44.894  11.280
64026W        W30567  18.304  44.750  10.390
64027W        W30568  30.652  36.400  12.173
64028W        W30569  34.993  10.709   3.529
64029W        W30570  28.303  26.171  14.042
64030W        W30571  24.506  25.190   2.267
64031W        W30572  27.553  24.224  13.346
64032W        W30573  39.014   4.199  14.733
64033W        W30574  17.059  26.660   0.439
64034W        W30575  20.211  13.653  12.578
64035W        W30576  35.389  41.005  11.373
64036W        W30577  44.749  27.688  14.435
64037W        W30578  36.108   8.032  13.824
64038W        W30579  42.800   0.334   3.927
64039W        W30580  24.480   7.663   1.177
64040W        W30581   7.153  12.467   0.769
64041W        W30582  42.302  15.232  12.112
64042W        W30583   0.065  37.300   4.704
64043W        W30584   5.836   2.342  12.585
64044W        W30585   3.387  11.897   3.858
64045W        W30586  20.497  38.480   4.522
64046W        W30587  28.929  29.742   3.609
64047W        W30588  41.664  21.827   0.951
64048W        W30589  22.753  15.114  14.992
64049W        W30590   1.720   2.424   2.762
64050W        W30591  43.303  23.762   0.976
64051W        W30592   0.297  36.181   1.115
64052W        W30593  37.588  44.914   2.639
64053W        W30594   1.031  12.045  11.474
64054W        W30595   3.352  13.206  12.130
64055W        W30596  23.648   1.936   1.673
64056W        W30597  13.076  34.427   3.761
64057W        W30598  39.601  29.444   1.939
64058W        W30599  33.048  17.763   4.178
64059W        W30600  36.404  25.984   4.231
64060W        W30601   1.392  16.953  10.727
64061W        W30602  16.620   8.701   4.935
64062W        W30603  25.718  11.213   2.269
64063W        W30604  31.524  43.897  14.783
64064W        W30605  43.893   8.090  10.687
64065W        W30606   4.847  43.912   3.680
64066W        W30607  32.978  37.480  11.537
64067W        W30608  27.292  26.502  12.860
64068W        W30609   2.425  29.855  11.064
64069W        W30610   0.290  43.972   4.219
64070W        W30611  40.429  21.866   4.558
64071W        W30612  38.990  43.560   3.621
64072W        W30613  36.037  24.560   3.978
64073W        W30614   4.502  25.951  12.974
64074W        W30615  14.331  28.458   3.180
64075W        W30616   0.698   0.376   3.678
64076W        W30617  27.973  38.750   4.558
64077W        W30618   7.384  13.840  14.486
64078W        W30619  13.334  36.993   0.690
64079W        W30620  16.722  26.881  14.667
64080W        W30621  16.500  14.875  13.067
64081W        W30622   5.488  30.950   1.161
64082W        W30623  30.472  31.189  10.737
64083W        W30624  22.042  18.076  10.648
64084W        W30625   4.623   8.830  12.612
64085W        W30626   8.726  21.140  12.492
64086W        W30627  42.912  27.099   1.444
64087W        W30628   4.699  12.358   3.852
64088W        W30629   8.939  37.604  11.547
64089W        W30630  11.196   4.658   0.549
64090W        W30631  18.612  42.359  12.073
64091W        W30632   8.082  19.220   1.779
64092W        W30633  39.930  35.341   4.892
64093W        W30634  43.511  31.129   1.303
64094W        W30635  39.429  39.614   1.437
64095W        W30636   0.381  37.549   0.605
64096W        W30637  20.111  34.105   4.319
64097W        W30638  18.764  27.129  14.785
64098W        W30639  44.196  42.416   1.236
64099W        W30640  29.571  17.335   3.203
64100W        W30641  35.463  19.032   1.277
64101W        W30642  31.869   8.860  13.765
64102W        W30643  31.187  20.936   2.889
64103W        W30644  40.319  27.200   0.811
64104W        W30645  35.424  27.438  11.997
64105W        W30646  18.382  40.733  14.847
64106W        W30647   8.639  21.975  13.579
64107W        W30648  42.342  13.426  12.178
64108W        W30649  24.827   3.840   4.585
64109W        W30650  18.085  37.098   1.665
64110W        W30651   7.485  30.938   0.264
64111W        W30652  20.756  21.828   1.306
64112W        W30653  14.090  42.265  11.071
64113W        W30654  33.808  10.225  13.118
64114W        W30655  44.769  15.302   0.735
64115W        W30656  40.074  32.714   0.314
64116W        W30657  15.368  35.164  12.628
64117W        W30658  42.850  20.790   4.094
64118W        W30659  27.593  13.884  12.638
64119W        W30660  38.448   4.273   0.910
64120W        W30661  25.998  37.346   1.743
64121W        W30662   2.678  29.875  12.045
64122W        W30663   1.386  15.791   4.717
64123W        W30664  38.378  11.423  11.113
64124W        W30665   0.015  16.663   4.176
64125W        W30666   4.323   6.104  12.539
64126W        W30667  14.131  13.848  14.930
64127W        W30668  12.835  10.238   1.371
64128W        W30669   4.194  38.341  13.936
64129W        W30670  33.996  12.234  10.013
64130W        W30671  28.724  24.461  11.466
64131W        W30672  25.573  43.294  14.036
64132W        W30673  31.374   3.449   1.984
64133W        W30674  43.945  14.991   5.052
64134W        W30675   4.469  33.552  14.001
64135W        W30676  33.719  37.810   2.731
64136W        W30677  25.142  39.292  12.969
64137W        W30678   2.480  18.874   3.698
64138W        W30679   3.671  34.808  13.641
64139W        W30680  17.085  10.241   1.409
64140W        W30681  27.995   3.352   0.643
64141W        W30682  34.015  14.138   4.633
64142W        W30683   7.541  21.813   1.905
64143W        W30684  40.944  36.677   0.762
64144W        W30685   3.177  10.303  11.406
64145W        W30686  21.165  39.542   3.356
64146W        W30687  25.104  20.522   4.581
64147W        W30688   7.630   9.192   3.197
64148W        W30689  33.783  30.412   3.681
64149W        W30690  18.502   5.236  11.125
64150W        W30691  13.862  13.590  14.299
64151W        W30692  12.407  33.004  14.210
64152W        W30693  28.634  23.547   0.897
64153W        W30694  26.415  19.612   3.239
64154W        W30695  29.052  11.649  14.688
64155W        W30696   4.395  39.034   3.539
64156W        W30697  23.710  11.854  11.207
64157W        W30698  13.233  17.496   0.949
64158W        W30699  24.907   3.928   1.752
64159W        W30700   2.261  16.319  13.471
64160W        W30701   5.456  21.552  11.754
64161W        W30702   4.516  29.945   1.833
64162W        W30703  19.478  32.619  12.028
64163W        W30704  40.323  21.270  11.162
64164W        W30705  12.570   9.150  10.726
64165W        W30706  11.165  10.876  12.596
64166W        W30707  41.018  22.727   4.197
64167W        W30708  19.483   9.788   3.041
64168W        W30709   8.324  18.788   4.219
64169W        W30710  17.034   1.750   9.851
64170W        W30711  32.909   5.512   1.835
64171W        W30712   5.851  31.273   4.827
64172W        W30713  34.508  29.516   3.940
64173W        W30714  23.106   9.337   4.230
64174W        W30715  16.842  23.255  13.447
64175W        W30716  44.233  32.374  10.823
64176W        W30717  27.347  20.183   4.918
64177W        W30718  30.448  36.827   3.742
64178W        W30719   5.384  30.943  10.516
64179W        W30720  20.061  18.068  14.740
64180W        W30721  31.455  21.381   2.931
64181W        W30722  27.625  42.523   0.816
64182W        W30723  39.439  19.365   2.780
64183W        W30724  20.725   2.848   3.404
64184W        W30725  37.388  42.439  13.148
64185W        W30726   3.960   6.658  10.534
64186W        W30727  22.540   8.085   4.061
64187W        W30728  38.653  34.416  12.174
64188W        W30729   8.779  28.518   2.259
64189W        W30730  23.820   4.301  14.018
64190W        W30731  11.891  36.830  12.539
64191W        W30732  21.708   5.048  12.578
64192W        W30733  17.045  22.555   3.713
64193W        W30734   0.837  41.909  12.675
64194W        W30735  32.377  32.333  13.740
64195W        W30736  43.021  38.034  13.089
64196W        W30737   8.174  36.607   2.289
64197W        W30738   9.268  16.536   4.617
64198W        W30739  11.708  19.753  11.851
64199W        W30740   6.715  10.775  10.767
64200W        W30741  14.863  34.639  10.748
64201W        W30742  11.340  33.446  14.814
64202W        W30743  13.772  12.309   2.254
64203W        W30744   5.220  18.564   0.405
64204W        W30745  43.639  11.121  12.436
64205W        W30746  25.996   0.028  12.067
64206W        W30747  42.752  22.155  14.862
64207W        W30748  13.035   6.770  13.514
64208W        W30749  13.238  35.085   4.922
64209W        W30750  31.389  28.038  11.014
64210W        W30751  29.073   7.737   2.396
64211W        W30752  10.662  43.601  11.626
64212W        W30753  41.869  26.659  11.702
64213W        W30754  31.383   5.412   4.068
64214W        W30755   0.621  34.147  10.903
64215W        W30756  15.714   6.150  11.330
64216W        W30757  36.551   3.941   4.501
64217W        W30758  33.420  27.002  11.041
64218W        W30759  31.096  41.145   2.696
64219W        W30760  32.463  36.954   2.208
64220W        W30761  12.202  11.212   0.514
64221W        W30762  10.102   2.913  10.691
64222W        W30763   8.335   2.224   1.890
64223W        W30764  32.661  41.928  11.138
64224W        W30765  13.373  31.495  12.340
64225W        W30766  44.951   2.309   0.275
64226W        W30767  24.505  26.682   3.189
64227W        W30768  29.939   3.784  12.854
64228W        W30769  13.212  21.361  11.628
64229W        W30770   3.247  26.755  14.756
64230W        W30771   5.490  37.405   1.163
64231W        W30772  18.352  25.250  12.152
64232W        W30773  26.666  10.541  10.702
64233W        W30774   7.716  35.850   2.118
64234W        W30775  37.012  22.023   2.882
64235W        W30776  34.486  41.142  14.447
64236W        W30777  44.896  42.728  12.864
64237W        W30778  16.537  15.154  10.547
64238W        W30779   7.195  44.403   4.106
64239W        W30780   2.749  38.450  11.592
64240W        W30781  24.522   2.441  13.845
64241W        W30782   4.868  20.957   3.379
64242W        W30783  29.374  39.884   4.931
64243W        W30784   3.123  17.353  14.316
64244W        W30785  11.027  13.393  11.399
64245W        W30786  36.091   2.166   3.609
64246W        W30787   2.851   8.688   0.567
64247W        W30788  27.966  42.183  12.052
64248W        W30789   8.233  37.335   1.801
64249W        W30790  40.310  32.417  14.507
64250W        W30791  31.072   8.914  12.365
64251W        W30792  14.314  14.067   2.675
64252W        W30793  36.881  25.683  12.047
64253W        W30794   6.915  15.662  14.725
64254W        W30795  40.780  15.356   5.050
64255W        W30796  14.474   8.682   1.214
64256W        W30797   8.669  17.618   0.866
64257W        W30798  32.579  27.795   1.237
64258W        W30799  11.946  23.715  12.364
64259W        W30800  37.511   5.325  10.502
64260W        W30801  27.103  25.688   0.746
64261W        W30802  30.637  21.697  12.735
64262W        W30803  27.776  10.647  12.800
64263W        W30804  31.582  36.578   3.250
64264W        W30805  39.907   2.150  13.408
64265W        W30806   5.207  16.750  14.294
64266W        W30807  37.958  24.224  14.939
64267W        W30808  38.605  23.120   0.690
64268W        W30809  26.487  27.646  12.375
64269W        W30810  37.333  33.460  11.710
64270W        W30811  27.557   7.135  13.981
64271W        W30812  16.786  36.690   2.814
64272W        W30813   1.432  36.123  11.062
64273W        W30814  42.906  15.995  11.979
64274W        W30815  43.269  23.243   0.300
64275W        W30816  28.804   1.912  14.853
64276W        W30817  41.825  14.660  14.969
64277W        W30818  34.183  41.080  11.742
64278W        W30819   5.386  26.844   2.335
64279W        W30820  38.941  28.389   2.227
64280W        W30821  34.371  32.299   4.548
64281W        W30822  16.741   7.958  10.875
64282W        W30823  12.145  11.438  10.780
64283W        W30824  26.021  32.537  13.107
64284W        W30825   6.167  14.555  11.109
64285W        W30826  13.815  12.890   3.668
64286W        W30827  10.354   5.181   1.814
64287W        W30828   0.008   7.883   0.577
64288W        W30829  22.298  33.407  10.107
64289W        W30830  26.568   1.843   3.175
64290W        W30831   2.342  22.109  12.985
64291W        W30832  27.227  33.651  11.445
64292W        W30833  25.755  27.042  11.579
64293W        W30834  10.324  25.347   1.459
64294W        W30835  15.126  37.174   0.241
64295W        W30836   6.741  12.322  14.204
64296W        W30837   9.763  22.500   0.797
64297W        W30838  43.278  14.160  12.972
64298W        W30839  13.741  23.530  10.661
64299W        W30840  28.434   5.794  12.235
64300W        W30841  39.554  23.461   3.603
64301W        W30842  42.974  17.025  14.153
64302W        W30843   0.501  14.911  13.619
64303W        W30844  17.598  26.159  13.106
64304W        W30845  37.419  17.059  11.161
64305W        W30846  11.267  41.756   2.030
64306W        W30847   3.982   4.320   5.679
64307W        W30848  31.650  44.780  14.779
64308W        W30849  30.429   6.787  12.107
64309W        W30850  32.975  12.782   5.505
64310W        W30851  27.446  13.310   1.218
64311W        W30852   8.799   7.516  12.557
64312W        W30853  19.888  22.255  11.124
64313W        W30854  40.368  18.131  10.987
64314W        W30855  16.209  39.005  12.233
64315W        W30856  16.665  41.693   1.840
64316W        W30857  18.292  21.175   5.052
64317W        W30858   7.319   6.314   1.794
64318W        W30859   1.436  18.745   4.354
64319W        W30860  24.510   1.983  11.665
64320W        W30861  30.014  37.711  14.032
64321W        W30862  15.620  34.057   4.513
64322W        W30863  12.080   1.298  12.302
64323W        W30864   0.263   8.298   4.258
64324W        W30865  14.089  32.407   2.173
64325W        W30866   8.205   2.384  10.647
64326W        W30867  43.501  10.756   3.324
64327W        W30868  18.440   2.826  11.924
64328W        W30869  28.509  43.459  10.801
64329W        W30870  44.752  31.094   4.074
64330W        W30871  13.665   8.279   1.205
64331W        W30872  32.767  34.513  10.679
64332W        W30873   7.454  24.629   4.420
64333W        W30874   9.247  36.612  11.067
64334W        W30875   4.000  43.329   1.976
64335W        W30876   2.994  15.650   1.243
64336W        W30877  41.853  29.221  13.060
64337W        W30878  18.065  44.019   3.366
64338W        W30879  28.038   2.156  12.560
64339W        W30880  42.006  39.900  10.498
64340W        W30881  41.087  22.214  14.308
64341W        W30882  13.188  14.861  10.762
64342W        W30883  40.271  27.963  12.482
64343W        W30884  34.053  42.956  12.171
64344W        W30885  22.596   3.559   5.422
64345W        W30886  27.512  40.947  12.530
64346W        W30887  22.609   1.981   4.105
64347W        W30888  25.483  43.646  12.353
64348W        W30889   2.142  27.465   2.288
64349W        W30890  13.585  11.443  14.880
64350W        W30891  35.198  19.175   2.208
64351W        W30892  33.557  21.833   4.036
64352W        W30893   8.767   1.760   0.906
64353W        W30894  40.846  20.022   2.840
64354W        W30895  15.073  19.771   3.181
64355W        W30896  35.813  30.842  12.944
64356W        W30897   3.204  29.418  13.815
64357W        W30898  22.967  21.046  12.969
64358W        W30899   2.367   3.271   4.013
64359W        W30900  14.339  27.955   3.323
64360W        W30901  37.629  33.556  12.988
64361W        W30902   7.925  24.910   0.770
64362W        W30903  40.958   2.009   0.327
64363W        W30904  37.541  28.043   5.041
64364W        W30905  36.749  31.379   3.872
64365W        W30906  44.283   2.872   0.023
64366W        W30907   1.420  28.878   5.333
64367W        W30908  42.305  18.102  12.071
64368W        W30909   7.484  26.104  10.922
64369W        W30910  15.773  18.655  14.807
64370W        W30911  10.112   3.218  12.239
64371W        W30912  35.464  31.491  10.759
64372W        W30913  39.058  21.342   2.873
64373W        W30914  22.929  34.352   2.848
64374W        W30915  24.798  26.600  14.424
64375W        W30916  38.958  33.207  13.052
64376W        W30917  19.757  17.774  10.731
64377W        W30918  29.160  41.194   1.846
64378W        W30919  13.115  39.574  13.037
64379W        W30920   2.854  30.854  13.517
64380W        W30921  10.903   8.885   3.955
64381W        W30922   2.535   1.536   1.861
64382W        W30923  24.814  31.649   0.886
64383W        W30924  35.181  16.656  11.058
64384W        W30925  25.888  11.455   3.047
64385W        W30926  24.046  29.086   2.715
64386W        W30927  30.269  28.151  12.440
64387W        W30928  41.164  19.110  10.460
64388W        W30929  13.054  24.036  12.906
64389W        W30930  26.573  38.465   0.657
64390W        W30931   5.463  39.369   1.838
64391W        W30932  14.609  41.017   1.315
64392W        W30933  38.940  13.169   0.564
64393W        W30934  37.370  18.143  12.368
64394W        W30935  40.483   7.335  10.595
64395W        W30936  14.724   9.602  14.502
64396W        W30937  37.016  21.188   3.680
64397W        W30938  24.205  29.704   0.432
64398W        W30939  34.508   2.305   2.927
64399W        W30940  36.926   3.702  11.029
64400W        W30941  37.626   9.835  13.945
64401W        W30942   5.156  13.115  11.591
64402W        W30943  34.019  43.244  12.687
64403W        W30944  30.051  28.468   2.256
64404W        W30945   0.521  11.637  11.134
64405W        W30946  13.891  12.726  14.538
64406W        W30947  25.390  10.284  12.012
64407W        W30948  39.559  44.382   3.795
64408W        W30949  35.826   5.289  12.891
64409W        W30950  14.851  41.248   4.562
64410W        W30951  25.959  27.893   1.436
64411W        W30952  22.417  32.711   0.206
64412W        W30953  10.922  39.908   1.757
64413W        W30954  43.498  22.530  12.562
64414W        W30955  19.927  44.776  12.495
64415W        W30956  31.485  15.221  10.368
64416W        W30957  19.167  24.228  14.892
64417W        W30958   8.813  41.460   5.036
64418W        W30959  19.401  12.260   4.428
64419W        W30960  27.995   6.768   3.168
64420W        W30961  10.363   8.056   4.702
64421W        W30962  41.326  31.660   4.244
64422W        W30963  17.823  38.922   4.184
64423W        W30964  26.981  34.067   4.287
64424W        W30965  22.510  30.573   4.668
64425W        W30966   3.334   2.943   0.259
64426W        W30967  25.270  34.997   1.871
64427W        W30968  17.271  37.491   1.414
64428W        W30969   7.993  20.621   0.720
64429W        W30970  31.965  25.584  14.736
64430W        W30971  26.488  24.065   1.281
64431W        W30972  39.314  20.367   1.340
64432W        W30973  17.046  25.015  10.752
64433W        W30974   6.779  28.697  10.785
64434W        W30975   8.923  20.545  10.936
64435W        W30976  37.174   4.249   2.393
64436W        W30977  17.763  23.680  14.828
64437W        W30978  42.827   9.565   1.047
64438W        W30979  21.081  29.542  13.469
64439W        W30980  23.019  29.084   2.773
64440W        W30981   6.426   1.403  10.861
64441W        W30982  10.195  38.975  11.513
64442W        W30983   1.345   4.179   3.795
64443W        W30984  36.924  35.518  10.804
64444W        W30985   3.485  33.191  13.048
64445W        W30986  44.981  25.110   2.690
64446W        W30987   4.256  31.023   3.063
64447W        W30988  33.905  40.040   0.959
64448W        W30989   8.637  11.871   4.165
64449W        W30990  24.440   2.792   1.668
64450W        W30991  26.878  20.158  10.694
64451W        W30992  24.496  16.569   0.851
64452W        W30993  34.347   5.594   4.154
64453W        W30994  29.568  24.483   0.951
64454W        W30995  37.518  30.496  13.432
64455W        W30996  38.444  40.590  14.269
64456W        W30997   7.623  28.468   3.791
64457W        W30998   9.142  40.933   2.088
64458W        W30999  44.864   1.256   2.903
64459W        W31000   2.788  20.753  12.133
64460W        W31001  33.213  40.351  14.288
64461W        W31002  17.502  19.743  11.107
64462W        W31003  18.796  14.758   2.535
64463W        W31004  33.042  10.619  13.616
64464W        W31005   2.883  35.640  12.893
64465W        W31006   2.503   1.502  13.466
64466W        W31007  13.030  13.900  14.158
64467W        W31008  31.295  19.621   5.061
64468W        W31009  16.130  16.830   2.834
64469W        W31010  20.026  26.955  11.543
64470W        W31011  36.015   1.915   3.177
64471W        W31012  15.284   8.906  14.594
64472W        W31013   4.221  12.932   0.323
64473W        W31014   2.220  37.572  11.965
64474W        W31015   1.864  34.454   1.268
64475W        W31016  17.310   6.893   1.478
64476W        W31017  26.657  20.752   0.471
64477W        W31018  39.228  40.929   4.631
64478W        W31019  15.077   6.652   2.445
64479W        W31020   5.140  35.136   4.896
64480W        W31021  28.743  36.495   1.135
64481W        W31022  33.408  28.561   3.957
64482W        W31023  15.168   0.427  12.817
64483W        W31024  17.899  36.778  11.877
64484W        W31025  22.017  32.210  13.308
64485W        W31026  28.892  38.784   2.126
64486W        W31027  15.026  20.177   1.397
64487W        W31028  14.768  17.082  13.908
64488W        W31029  16.290  30.039  10.748
64489W        W31030  37.508  35.454   0.731
64490W        W31031  10.405  28.167  14.919
64491W        W31032  14.713  30.948  13.369
64492W        W31033  35.610  41.359  13.935
64493W        W31034  31.859  36.829  12.839
64494W        W31035   3.453  14.957  14.342
64495W        W31036  22.980  41.873   2.260
64496W        W31037  25.160  40.584  12.427
64497W        W31038  23.472  16.754   2.302
64498W        W31039  39.723   5.770   0.517
64499W        W31040  19.370  41.456  10.322
64500W        W31041  14.103   2.866  12.947
64501W        W31042  20.708  15.872   0.877
64502W        W31043   2.959  22.395   5.036
64503W        W31044  44.289  38.067   3.212
64504W        W31045  37.645   6.214  13.493
64505W        W31046  26.428  44.384  10.966
64506W        W31047   9.704  39.110  13.462
64507W        W31048  30.482  31.131  13.537
64508W        W31049  17.782   9.775   3.241
64509W        W31050  10.272   3.874  12.969
64510W        W31051  24.501  17.760   2.190
64511W        W31052  20.664   8.983  13.384
64512W        W31053  31.033   4.241   4.784
64513W        W31054  43.768  24.621  12.544
64514W        W31055  27.606  44.042  10.268
64515W        W31056  27.277   0.101  12.502
64516W        W31057  24.631  43.547   3.625
64517W        W31058   7.848  24.080   3.634
64518W        W31059  40.266  43.862   3.951
64519W        W31060   0.321   5.647  14.884
64520W        W31061  35.099   7.673  10.692
64521W        W31062  33.893  15.047   1.323
64522W        W31063  25.424  35.935  13.974
64523W        W31064  26.064  11.220  11.793
64524W        W31065   7.097  33.109   4.122
64525W        W31066   7.362  40.859  10.483
64526W        W31067  28.933   8.639   0.484
64527W        W31068  34.507  26.091   2.620
64528W        W31069   9.543  26.162  11.303
64529W        W31070  21.249   9.687  10.782
64530W        W31071  35.674   7.307  12.215
64531W        W31072  15.609  15.172   2.716
64532W        W31073  43.428  38.894  10.083
64533W        W31074   4.906  27.448  12.215
64534W        W31075  44.206  16.256   1.983
64535W        W31076  35.643  41.276   0.601
64536W        W31077  43.934  30.514   3.196
64537W        W31078   9.207   0.408  11.132
64538W        W31079  28.978  15.825  10.006
64539W        W31080   1.221  41.713  11.993
64540W        W31081  22.496   1.432   4.113
64541W        W31082  21.695  44.545  13.512
64542W        W31083   1.202  28.777  11.234
64543W        W31084  14.142  37.039  12.098
64544W        W31085  43.613   4.860   3.214
64545W        W31086  10.805  21.620   3.136
64546W        W31087  17.343  36.504  11.077
64547W        W31088   2.573  15.280  14.314
64548W        W31089  16.526   4.695   2.325
64549W        W31090  37.542  20.885   4.028
64550W        W31091   7.301   0.927   4.123
64551W        W31092  26.750  21.006  13.529
64552W        W31093  31.169  27.179   2.256
64553W        W31094   6.836  23.576   2.687
64554W        W31095  22.103  36.084   4.829
64555W        W31096  36.086  37.542   1.423
64556W        W31097  32.225  42.915  14.285
64557W        W31098   5.353  33.490   1.186
64558W        W31099  23.417  28.691  14.953
64559W        W31100  13.015   5.220  12.776
64560W        W31101   4.811   8.458  14.708
64561W        W31102  44.798  32.762  14.339
64562W        W31103  14.310  43.917  13.088
64563W        W31104   3.957  41.833   2.800
64564W        W31105  20.197  25.139  13.827
64565W        W31106  30.187  38.778   4.978
64566W        W31107   7.869  10.494   5.064
64567W        W31108  10.855  19.117  11.713
64568W        W31109  19.431  34.156  14.955
64569W        W31110   6.167   1.293   2.885
64570W        W31111  42.927  20.685   3.574
64571W        W31112  29.132  21.161   2.118
64572W        W31113  42.765  14.162  11.324
64573W        W31114   1.398  42.782   4.151
64574W        W31115  10.722  41.987   4.560
64575W        W31116  44.274  27.653  13.730
64576W        W31117   6.800  18.535  11.588
64577W        W31118  42.280  31.587  12.124
64578W        W31119   5.710  38.611   1.039
64579W        W31120  20.009   3.225   3.334
64580W        W31121   4.382  11.835  11.023
64581W        W31122  20.604  11.070  12.427
64582W        W31123  38.998  39.040  12.465
64583W        W31124  10.772  41.491   3.663
64584W        W31125  21.973  17.212   0.020
64585W        W31126  33.460   4.894  11.228
64586W        W31127  16.510  22.254   3.244
64587W        W31128  12.395   2.275   0.383
64588W        W31129  28.544  36.108   4.160
64589W        W31130  38.107  26.575  13.606
64590W        W31131   8.612  33.401  12.579
64591W        W31132  13.931   7.046  13.078
64592W        W31133  14.270  35.688  12.903
64593W        W31134  33.186  28.620  12.393
64594W        W31135  39.524  33.271   1.306
64595W        W31136   7.791  28.621  14.809
64596W        W31137   1.853  29.214   2.397
64597W        W31138  13.316  17.250   1.812
64598W        W31139  42.367  17.344   3.373
64599W        W31140   5.865  14.572   1.473
64600W        W31141  33.657   7.567   0.831
64601W        W31142  43.960  29.260  13.390
64602W        W31143  44.328  18.134   0.467
64603W        W31144  30.010  30.394  13.548
64604W        W31145  31.520   4.019   2.764
64605W        W31146  16.199  44.929  12.432
64606W        W31147  22.657  29.828  12.411
64607W        W31148  40.793  34.445   0.863
64608W        W31149  28.541   7.185   2.447
64609W        W31150  37.194  35.874  10.505
64610W        W31151  10.523  35.635   3.163
64611W        W31152  18.900   9.935   1.447
64612W        W31153   0.422   8.194  14.893
64613W        W31154   1.862  22.965  10.742
64614W        W31155  28.167  44.665   0.316
64615W        W31156  25.533   1.786  14.415
64616W        W31157  42.100  37.458   3.499
64617W        W31158   5.619  44.333   1.159
64618W        W31159  18.534  29.088  13.924
64619W        W31160  42.061  20.195  10.645
64620W        W31161  30.896   7.462   0.410
64621W        W31162   6.569  41.787  14.010
64622W        W31163   4.413   7.906  14.003
64623W        W31164  10.297  22.752  10.975
64624W        W31165  19.451  28.449  11.609
64625W        W31166  26.106  25.372   0.011
64626W        W31167  43.844  31.267   1.677
64627W        W31168   8.282  43.788  11.436
64628W        W31169  20.012  14.596  14.609
64629W        W31170  23.970  24.810   3.590
64630W        W31171  40.362  38.508   4.619
64631W        W31172  31.683  39.080   1.370
64632W        W31173  27.171  14.385  11.553
64633W        W31174   5.401  43.873   1.001
64634W        W31175   0.028  23.922   1.380
64635W        W31176   3.448  22.154   0.221
64636W        W31177  25.230   0.949  10.480
64637W        W31178  26.146  24.279   4.120
64638W        W31179  44.928  38.280   1.263
64639W        W31180  37.908  36.451   4.184
64640W        W31181  12.769  34.104   4.048
64641W        W31182  28.680  44.303  11.541
64642W        W31183  33.550   0.051   0.988
64643W        W31184  15.700  12.305   4.697
64644W        W31185  23.557  43.880   4.313
64645W        W31186  34.573  19.297   2.676
64646W        W31187  31.340  13.686   1.209
64647W        W31188  30.140   4.696  12.488
64648W        W31189  30.572  36.374  11.226
64649W        W31190  42.535  18.193   1.713
64650W        W31191  11.670  27.229  14.723
64651W        W31192   0.680  11.857   2.347
64652W        W31193  12.049  32.507   9.986
64653W        W31194  41.419  11.800  14.122
64654W        W31195  26.462   1.731  10.481
64655W        W31196  22.665  26.082   3.136
64656W        W31197  44.297  30.654  12.482
64657W        W31198  26.504  12.239   3.416
64658W        W31199  32.183  12.923  11.716
64659W        W31200  41.725  24.240  11.655
64660W        W31201  21.710  13.145  12.620
64661W        W31202   5.487  39.605   1.378
64662W        W31203   7.567   3.054  11.356
64663W        W31204  22.693  20.165  11.723
64664W        W31205  33.649  29.893  10.681
64665W        W31206  22.717  10.749   4.900
64666W        W31207   7.888  18.636  13.842
64667W        W31208   2.928  12.233   4.475
64668W        W31209  37.545  15.071  10.699
64669W        W31210  19.473  14.614   4.039
64670W        W31211   3.934  33.096  14.335
64671W        W31212  23.429   0.558  11.831
64672W        W31213  44.777   1.542   0.868
64673W        W31214   7.843  16.524   4.327
64674W        W31215  11.721  18.268   4.478
64675W        W31216  11.856  42.757   0.323
64676W        W31217  31.185  10.453  13.977
64677W        W31218  12.757  19.562   0.307
64678W        W31219  16.125  25.263   2.690
64679W        W31220   2.903   5.543   0.809
64680W        W31221  11.785   3.039   1.850
64681W        W31222  11.428  42.597   4.759
64682W        W31223  13.358  37.062   0.175
64683W        W31224   5.788  18.726   3.394
64684W        W31225  20.571  11.328   2.337
64685W        W31226  17.821  17.042  13.598
64686W        W31227  33.523  15.592  10.532
64687W        W31228   9.239  18.786   3.679
64688W        W31229   6.689  38.561  12.737
64689W        W31230  29.816  19.687   0.669
64690W        W31231  25.757  41.847  12.532
64691W        W31232  18.749  32.519  11.436
64692W        W31233  25.530  39.652  10.407
64693W        W31234   0.509  10.783  11.601
64694W        W31235  33.534   1.359  10.268
64695W        W31236   7.443  29.983  13.847
64696W        W31237   1.207  13.233   1.417
64697W        W31238  31.513  28.006   4.199
64698W        W31239   5.475  36.115   3.350
64699W        W31240   7.670   1.247   0.402
64700W        W31241  32.351  11.910  14.404
64701W        W31242   3.282  26.661   0.275
64702W        W31243  40.939  41.593   1.890
64703W        W31244  33.473  20.056  14.844
64704W        W31245  13.229   3.069  14.891
64705W        W31246  39.339  26.214   3.861
64706W        W31247  40.379  39.949  13.385
64707W        W31248  34.411  14.204  13.604
64708W        W31249  24.664  18.696   0.587
64709W        W31250  24.481  30.622   0.430
64710W        W31251   4.318  30.018   1.342
64711W        W31252  39.366  37.996  11.820
64712W        W31253  25.456  19.554   4.086
64713W        W31254   6.756  14.258   3.146
64714W        W31255   8.605  19.933   2.092
64715W        W31256   2.491  24.524   0.456
64716W        W31257  32.864  18.810  12.005
64717W        W31258  16.544  31.420  14.830
64718W        W31259  27.646   8.241  11.644
64719W        W31260   4.266  27.407   3.996
64720W        W31261  22.625  21.205   4.732
64721W        W31262   6.846  23.232  10.805
64722W        W31263  22.094   4.174  14.168
64723W        W31264  41.570   5.307  11.252
64724W        W31265   3.406  33.478  11.258
64725W        W31266  17.291  18.468  12.548
64726W        W31267  20.852  43.417   3.332
64727W        W31268   6.731  22.961   0.039
64728W        W31269  22.578  37.802  11.753
64729W        W31270  31.546  38.653  13.631
64730W        W31271  25.403   2.825  11.990
64731W        W31272  37.507   2.790  12.472
64732W        W31273  27.277   3.157   3.375
64733W        W31274  11.737  28.627   3.421
64734W        W31275  11.541  15.350   2.854
64735W        W31276  10.360  15.307   3.175
64736W        W31277  15.581  26.592   4.675
64737W        W31278  30.509   3.789   2.385
64738W        W31279  36.499  43.038   1.438
64739W        W31280  13.595  21.978   0.914
64740W        W31281  14.254   9.777   0.007
64741W        W31282   1.740   8.420  13.265
64742W        W31283   9.821  32.484   0.367
64743W        W31284  33.628   7.219   1.292
64744W        W31285   2.267  17.102  10.443
64745W        W31286  28.598  30.663   1.206
64746W        W31287   8.664  14.178  11.158
64747W        W31288  43.824  31.435   2.402
64748W        W31289  22.970  31.621   1.377
64749W        W31290  41.720  26.027   2.454
64750W        W31291  30.585  28.726   0.252
64751W        W31292  39.444  31.613  12.900
64752W        W31293   6.375   8.666  12.926
64753W        W31294   2.344   9.808   2.325
64754W        W31295  39.086  32.546   1.866
64755W        W31296  40.416   3.660   1.437
64756W        W31297  25.098   4.218   1.129
64757W        W31298  41.396  14.724  12.571
64758W        W31299  36.322  31.009  12.929
64759W        W31300  20.714  44.213  13.546
64760W        W31301  44.438  29.413  12.150
64761W        W31302  27.256  21.327   1.196
64762W        W31303  12.648   3.838   3.637
64763W        W31304  32.013  20.373  12.604
64764W        W31305  38.005  31.979  13.995
64765W        W31306  44.439  16.439  11.593
64766W        W31307   0.310  35.532  14.301
64767W        W31308  40.736   4.752  13.358
64768W        W31309  38.488  41.273   0.502
64769W        W31310  34.992  19.357  13.410
64770W        W31311   7.663   2.055  11.448
64771W        W31312  11.146  32.997   1.129
64772W        W31313  34.901   6.864   1.758
64773W        W31314  21.698  41.895   3.779
64774W        W31315  39.172  22.602  12.071
64775W        W31316  29.801  43.049  10.684
64776W        W31317  37.382  40.803  13.317
64777W        W31318   6.573  33.489   0.971
64778W        W31319  34.577   0.378  12.468
64779W        W31320   5.764  23.192  12.352
64780W        W31321  27.486  22.002  10.590
64781W        W31322  21.449   1.224  12.947
64782W        W31323   6.363   5.566   3.163
64783W        W31324   0.128   4.927  13.877
64784W        W31325  15.174   3.443   2.145
64785W        W31326  17.613  32.756  14.888
64786W        W31327  32.672  16.118   3.171
64787W        W31328  39.368  44.830   4.017
64788W        W31329  13.130   8.286   1.914
64789W        W31330   1.723  43.533   3.369
64790W        W31331  10.128  13.571   2.747
64791W        W31332  39.882  23.366   1.760
64792W        W31333  12.208  28.565   1.624
64793W        W31334  35.005  11.052  12.571
64794W        W31335  25.231  40.049   1.192
64795W        W31336   4.412  37.591  12.089
64796W        W31337  13.603  37.798  12.922
64797W        W31338  17.824  17.987  13.798
64798W        W31339  37.702  18.873   4.699
64799W        W31340  37.870   9.229  11.818
64800W        W31341   1.727  25.942  12.036
64801W        W31342  14.807  36.420   1.353
64802W        W31343  16.126   9.202  11.580
64803W        W31344   6.042  14.109   1.285
64804W        W31345  34.096  29.039   0.824
64805W        W31346   5.438  37.900   4.183
64806W        W31347  19.165  23.195  13.032
64807W        W31348   2.738   3.293   3.220
64808W        W31349  16.225  34.293  14.967
64809W        W31350  37.397   3.400   1.200
64810W        W31351  31.553  15.731  10.469
64811W        W31352  21.606  31.862   2.720
64812W        W31353  32.546  18.176  14.055
64813W        W31354  43.949  11.332   0.714
64814W        W31355   9.184  34.184  14.943
64815W        W31356  15.191   4.369  14.895
64816W        W31357  27.921  12.625  11.044
64817W        W31358  38.934  31.183   2.917
64818W        W31359  43.977  28.631  14.779
64819W        W31360  34.601  32.309   1.462
64820W        W31361  20.694  42.927   4.588
64821W        W31362   5.545  19.057   0.408
64822W        W31363  40.933  38.313   2.141
64823W        W31364   1.733  18.163   3.709
64824W        W31365  15.565   7.942  11.084
64825W        W31366  11.090  17.486   1.625
64826W        W31367  21.572   8.654  11.518
64827W        W31368  37.079  40.736  12.043
64828W        W31369  32.483  41.949  11.631
64829W        W31370  17.620  41.190   0.256
64830W        W31371  37.557  10.600   1.274
64831W        W31372  15.981  10.357  11.990
64832W        W31373   8.302  11.195   2.382
64833W        W31374  39.758  27.539   3.219
64834W        W31375  15.579  38.791  12.492
64835W        W31376  29.144  24.449   0.498
64836W        W31377  15.846  42.288   2.255
64837W        W31378  33.981  13.869  12.001
64838W        W31379  17.520  27.534   4.239
64839W        W31380  39.410   8.675   3.784
64840W        W31381  11.229   4.680   0.031
64841W        W31382   4.404  31.577   0.972
64842W        W31383  24.138  13.922   4.516
64843W        W31384  35.383  30.666  14.891
64844W        W31385  18.131  41.565  14.379
64845W        W31386  20.265   6.351   3.269
64846W        W31387   2.024   2.051   1.726
64847W        W31388  14.870  43.240  12.499
64848W        W31389  24.940  34.963   3.349
64849W        W31390  18.442  15.095  14.246
64850W        W31391  18.999  17.311   0.794
64851W        W31392   8.614  37.809   3.115
64852W        W31393   2.153   7.160  12.040
64853W        W31394  21.776  12.146   3.081
64854W        W31395  11.344  26.973  11.675
64855W        W31396  16.814  36.858   0.807
64856W        W31397  43.388  41.437  14.493
64857W        W31398  26.021   5.737   4.588
64858W        W31399  11.288  40.287   4.660
64859W        W31400   1.763  44.978  14.682
64860W        W31401  23.490  38.545  12.705
64861W        W31402  26.492  29.536   1.814
64862W        W31403  40.971   6.691   3.140
64863W        W31404  21.670   2.992   3.328
64864W        W31405  33.897  14.142  12.435
64865W        W31406  27.189  25.447   1.208
64866W        W31407  32.672  25.054   2.705
64867W        W31408  15.657   1.088  12.867
64868W        W31409  28.890  38.293   1.435
64869W        W31410  14.351  20.949   2.799
64870W        W31411  43.370  37.524   1.688
64871W        W31412  21.814  40.858  11.597
64872W        W31413   5.721  38.443  13.461
64873W        W31414   0.261   4.421  13.739
64874W        W31415  17.769   3.372   3.232
64875W        W31416  43.530   9.125  12.527
64876W        W31417  25.623  25.646  12.972
64877W        W31418  16.940  11.452   0.119
64878W        W31419  13.751  38.394  12.187
64879W        W31420   0.264  15.142  12.634
64880W        W31421   2.224  12.541  14.690
64881W        W31422  21.544   8.799   4.333
64882W        W31423  24.447   0.040  12.952
64883W        W31424  15.041   2.453  13.095
64884W        W31425  28.155  29.247   3.269
64885W        W31426  42.513   9.027  10.761
64886W        W31427  26.779  21.623   0.768
64887W        W31428  20.780  28.643   2.652
64888W        W31429  12.232  37.055   4.113
64889W        W31430  42.495   7.501   2.703
64890W        W31431  19.733  32.158  13.500
64891W        W31432  31.458  44.487  10.831
64892W        W31433  24.268  27.559  14.568
64893W        W31434   4.424  32.639   0.814
64894W        W31435  26.547  25.491  10.756
64895W        W31436  11.819  23.945   0.464
64896W        W31437  41.902  35.426   1.845
64897W        W31438  21.742  37.323   1.899
64898W        W31439  39.908  31.827  11.031
64899W        W31440   3.241  44.872  11.120
64900W        W31441  28.524   6.376   1.722
64901W        W31442  10.637  12.850   2.335
64902W        W31443  17.145  18.176   3.117
64903W        W31444  38.985  27.516  11.463
64904W        W31445  10.214  38.244  12.513
64905W        W31446  16.001   2.846   2.116
64906W        W31447  28.950  24.960  13.315
64907W        W31448   8.228  40.255   2.324
64908W        W31449  30.730  28.801  12.845
64909W        W31450  40.753  14.176  13.580
64910W        W31451  36.972  15.602   2.200
64911W        W31452  17.660  34.389  10.377
64912W        W31453  43.400  40.686  10.902
64913W        W31454   1.735  27.485  13.908
64914W        W31455   7.285  25.147  12.011
64915W        W31456  10.438  26.275  12.042
64916W        W31457  13.416   4.941  10.748
64917W        W31458  24.492  30.437  10.952
64918W        W31459   8.502   4.021  14.417
64919W        W31460  16.576  26.063  14.289
64920W        W31461  12.670  38.510   2.242
64921W        W31462   2.404  35.442  10.465
64922W        W31463   5.895  34.341  11.516
64923W        W31464  18.432  43.632   3.420
64924W        W31465   5.889  24.100  12.311
64925W        W31466  21.481   9.173   0.373
64926W        W31467   7.809  40.326   0.811
64927W        W31468   4.839  30.874   5.653
64928W        W31469  26.820  44.260   2.756
64929W        W31470  39.135  43.650   0.871
64930W        W31471   1.988  32.519  13.282
64931W        W31472   4.923  34.502   0.898
64932W        W31473  11.257  41.184  11.217
64933W        W31474  32.482  21.026  13.262
64934W        W31475   8.431   2.440  11.101
64935W        W31476  22.349   5.169  14.472
64936W        W31477   0.545   6.731  14.248
64937W        W31478  26.478  37.236   3.158
64938W        W31479   7.398   9.319  11.649
64939W        W31480  31.951   6.240  11.466
64940W        W31481  18.692  26.810  10.687
64941W        W31482  15.680  11.262  13.685
64942W        W31483   0.521   3.884  13.808
64943W        W31484  22.453  41.540   3.739
64944W        W31485  23.858  25.700   1.364
64945W        W31486  32.062  32.627   0.806
64946W        W31487  15.728  25.973   0.604
64947W        W31488   3.217  30.628   0.850
64948W        W31489  44.753  19.139   3.228
64949W        W31490  16.319  36.898  12.930
64950W        W31491  13.413  37.500   2.782
64951W        W31492  19.666  29.208  13.357
64952W        W31493  10.672  24.441   4.534
64953W        W31494  10.179   7.253  13.843
64954W        W31495  31.754  42.970  11.956
64955W        W31496  13.564  31.410   3.535
64956W        W31497  12.306  36.313   1.331
64957W        W31498  11.392  11.619   4.201
64958W        W31499  26.229   8.821   0.740
64959W        W31500  16.815  29.941  14.546
64960W        W31501  40.178  16.497   9.742
64961W        W31502  30.934  13.313   3.713
64962W        W31503  12.606  42.264   0.454
64963W        W31504   0.014   7.791  14.820
64964W        W31505   3.547  13.796   2.810
64965W        W31506   2.362  33.612   3.235
64966W        W31507  34.401  29.781  11.707
64967W        W31508   5.451  16.042   4.241
64968W        W31509  30.619  15.701  10.926
64969W        W31510   6.914   9.367   1.347
64970W        W31511  40.036  43.902  11.378
64971W        W31512  26.420  15.545  14.308
64972W        W31513  36.002  12.155  14.377
64973W        W31514   9.531  21.140  11.454
64974W        W31515  37.822  40.979   4.316
64975W        W31516  31.631   0.794  12.521
64976W        W31517  41.064  27.743  11.092
64977W        W31518  42.126  11.166  13.703
64978W        W31519  12.985  44.977   1.304
64979W        W31520  22.627  13.868  12.422
64980W        W31521  10.695  11.648  14.304
64981W        W31522   8.887  42.611   1.036
64982W        W31523  38.146  24.091   2.643
64983W        W31524  32.511  41.666  14.659
64984W        W31525   8.382  27.205  12.123
64985W        W31526  44.451  36.169   1.428
64986W        W31527  32.088  26.159  14.042
64987W        W31528  37.803  36.617   4.674
64988W        W31529  21.448  21.662   4.293
64989W        W31530  43.794  29.757  13.327
64990W        W31531   5.252  41.419   1.225
64991W        W31532  26.501   4.448   0.942
64992W        W31533  17.982  32.967  11.296
64993W        W31534  20.069  10.698  11.127
64994W        W31535  11.403   8.215   3.237
64995W        W31536   6.384  17.796   4.116
64996W        W31537   6.283  26.470  14.906
64997W        W31538  19.571  17.751   4.392
64998W        W31539  22.953  43.826   3.632
64999W        W31540  28.970  37.370   2.989
65000W        W31541   2.464   2.274   2.262
65001W        W31542  20.394  37.959  13.863
65002W        W31543  31.209  11.690   4.595
65003W        W31544  17.312   3.291   2.302
65004W        W31545   4.143  34.923  12.726
65005W        W31546  21.928  20.104   3.389
65006W        W31547  31.135   3.849   2.447
65007W        W31548  15.625   5.397  14.831
65008W        W31549  32.541   7.901  12.348
65009W        W31550  40.300  24.057   3.259
65010W        W31551  25.902  21.591  14.481
65011W        W31552  13.163   8.263   1.371
65012W        W31553  10.030  13.040   2.017
65013W        W31554  37.431   2.654   2.632
65014W        W31555  14.138  32.915   0.341
65015W        W31556  20.587  26.707   2.405
65016W        W31557   1.591  40.043   0.526
65017W        W31558   0.984   7.401  10.486
65018W        W31559   8.389  19.581  11.046
65019W        W31560  24.278  17.018  14.300
65020W        W31561  22.644  28.246  14.579
65021W        W31562  33.667  11.710  12.509
65022W        W31563  27.099  20.018  12.893
65023W        W31564  39.103  23.650   3.757
65024W        W31565  40.966  40.089  14.551
65025W        W31566   2.219  40.941   0.813
65026W        W31567  23.933  12.243  10.889
65027W        W31568  20.512   3.758  14.915
65028W        W31569  27.630  24.754  13.363
65029W        W31570  39.181  37.410   0.380
65030W        W31571  20.016  14.677  12.424
65031W        W31572  25.850  37.937   3.667
65032W        W31573  20.606  21.093  12.613
65033W        W31574  40.972  27.697   2.768
65034W        W31575  18.704  43.648  13.490
65035W        W31576  38.775  15.251   0.384
65036W        W31577  31.564   2.862  12.430
65037W        W31578   0.155  17.649   1.845
65038W        W31579  14.064  38.351  10.762
65039W        W31580  13.999  43.512   1.694
65040W        W31581  15.835  16.177   0.385
65041W        W31582  44.480  13.618   4.851
65042W        W31583  31.440  10.329  13.519
65043W        W31584  28.275  14.747  13.874
65044W        W31585  24.977   3.167  11.932
65045W        W31586   4.244  28.612   2.009
65046W        W31587  31.483  30.455   3.906
65047W        W31588  23.251  24.174   0.826
65048W        W31589  25.457   1.034  11.985
65049W        W31590  28.580  31.648  11.506
65050W        W31591  13.506  22.058   0.021
65051W        W31592  30.660  42.483   2.933
65052W        W31593  40.511  22.113  13.087
65053W        W31594   3.047  39.693  11.206
65054W        W31595  10.460  38.532   0.736
65055W        W31596  44.362  31.188  12.413
65056W        W31597  12.590   6.506  12.417
65057W        W31598  17.434  41.038   3.783
65058W        W31599  26.772  30.436   3.593
65059W        W31600  37.106  25.233   2.736
65060W        W31601  32.388  33.011  12.928
65061W        W31602  10.386  10.826  13.847
65062W        W31603  14.532  44.245  14.495
65063W        W31604  44.529   8.702  11.553
65064W        W31605  28.524  23.826  11.074
65065W        W31606  18.968  42.656  13.406
65066W        W31607  44.248  31.570   1.465
65067W        W31608  23.217  24.745  13.389
65068W        W31609  13.220  17.864   3.583
65069W        W31610  30.659  44.672  11.139
65070W        W31611  16.233  40.070   3.091
65071W        W31612  42.375   4.482  14.431
65072W        W31613  43.997  35.834  14.305
65073W        W31614  43.909  12.051   1.478
65074W        W31615   1.228   7.996  10.781
65075W        W31616  32.913  27.633   2.377
65076W        W31617   5.871  44.385  13.892
65077W        W31618   0.585  27.668  11.512
65078W        W31619  27.226  10.785   0.204
65079W        W31620  38.033  40.516   4.132
65080W        W31621  30.453  40.828   3.228
65081W        W31622  32.988  32.402   1.582
65082W        W31623  13.174  40.802   2.806
65083W        W31624  21.749  23.322  12.320
65084W        W31625  18.208  25.346  14.603
65085W        W31626  10.196  21.192  14.855
65086W        W31627  27.934  33.280  12.750
65087W        W31628   6.407  20.307   4.209
65088W        W31629  18.101  28.706  11.779
65089W        W31630  16.833  19.735  12.905
65090W        W31631  39.826  34.937  13.858
65091W        W31632  13.446   7.136   2.692
65092W        W31633  23.552  28.544  13.438
65093W        W31634  11.152  27.742  12.861
65094W        W31635  15.778   4.981   2.755
65095W        W31636  19.604  39.218   1.401
65096W        W31637  30.905   2.042  13.161
65097W        W31638   4.694  42.466   1.818
65098W        W31639  28.607  21.025  13.648
65099W        W31640   9.211   7.976   3.292
65100W        W31641  17.211  27.868   3.685
65101W        W31642   0.040  19.363  11.775
65102W        W31643   3.745  16.089   3.294
65103W        W31644  11.321   2.969   1.605
65104W        W31645  32.873  30.137  13.422
65105W        W31646  16.056  40.935  13.558
65106W        W31647  17.435   2.362   0.938
65107W        W31648  28.447  18.224   4.194
65108W        W31649  19.110  23.769   4.554
65109W        W31650  10.918  25.734  13.866
65110W        W31651   4.876  36.080  13.960
65111W        W31652  21.975  42.705   2.121
65112W        W31653  24.676  19.323   4.984
65113W        W31654   7.635   0.003   1.978
65114W        W31655  35.959  26.483   3.346
65115W        W31656  10.295  16.571  14.360
65116W        W31657  36.896  36.363  11.246
65117W        W31658  30.129  28.141   4.578
65118W        W31659  18.304  32.418   1.674
65119W        W31660   5.922  42.711  14.111
65120W        W31661  14.184  11.814  14.249
65121W        W31662  17.169  16.205  11.991
65122W        W31663  18.957  41.992  12.200
65123W        W31664  18.977  42.994   2.346
65124W        W31665  14.501  40.421  11.546
65125W        W31666  28.712  15.877   2.364
65126W        W31667   8.539  34.070   4.455
65127W        W31668  42.968  27.442  14.767
65128W        W31669  41.947   1.973  14.873
65129W        W31670  41.353  24.658  13.945
65130W        W31671  17.158   2.304   3.682
65131W        W31672   3.732  34.394   3.706
65132W        W31673  12.683  40.102  13.857
65133W        W31674  31.366  42.960   4.906
65134W        W31675  35.382  18.677  12.753
65135W        W31676  27.083  20.562   2.234
65136W        W31677  36.481   6.677  11.019
65137W        W31678  30.827  15.156   4.826
65138W        W31679  31.208   0.910  10.302
65139W        W31680  10.380  35.626  12.699
65140W        W31681   9.475  29.254   1.522
65141W        W31682  41.404  22.371  11.468
65142W        W31683  21.701  28.874   2.792
65143W        W31684   1.594  32.780  12.854
65144W        W31685  21.219  13.253   4.749
65145W        W31686  15.354  34.498   0.362
65146W        W31687  30.939  27.673   4.698
65147W        W31688   9.090  31.972  11.550
65148W        W31689  27.251  44.280   4.218
65149W        W31690  28.187  22.557   1.801
65150W        W31691  38.052  40.636  10.181
65151W        W31692  10.613  13.339  11.693
65152W        W31693   4.397  26.991   5.485
65153W        W31694  39.400  34.509  13.393
65154W        W31695  24.457  12.311  12.028
65155W        W31696  33.395  33.834   3.660
65156W        W31697  17.553  41.990  11.169
65157W        W31698  15.300  21.679  10.410
65158W        W31699  10.943  11.849   4.161
65159W        W31700  23.094  35.018   3.634
65160W        W31701   4.463  31.216  12.007
65161W        W31702   1.799   8.353  12.760
65162W        W31703  11.888   7.584  10.375
65163W        W31704  42.537  35.099   0.930
65164W        W31705  43.955  22.783   0.648
65165W        W31706  18.062  27.890  14.413
65166W        W31707  23.986  20.026  10.514
65167W        W31708  11.243  42.862  11.762
65168W        W31709  34.775  36.075  14.563
65169W        W31710  11.070  23.012   2.581
65170W        W31711   0.735   9.781  13.988
65171W        W31712  13.123   5.840   3.547
65172W        W31713  41.235  29.823  13.181
65173W        W31714  31.197  20.326  11.254
65174W        W31715  11.266  19.565   4.010
65175W        W31716  19.610  29.686   2.280
65176W        W31717  31.844   1.648   4.025
65177W        W31718   9.170  25.906   1.250
65178W        W31719  20.714  40.957   4.981
65179W        W31720  34.397   4.194  11.486
65180W        W31721  21.580  22.091   1.761
65181W        W31722  39.652  18.518  12.426
65182W        W31723  22.726  23.917   4.632
65183W        W31724   7.686  19.673   4.453
65184W        W31725  14.155  24.209  14.368
65185W        W31726  36.608  21.708  12.506
65186W        W31727  29.598  15.583   0.349
65187W        W31728   7.296   7.748  14.101
65188W        W31729  17.197  15.055  14.731
65189W        W31730  44.456  34.473  12.004
65190W        W31731  12.171  34.117   0.671
65191W        W31732  34.790  36.732  14.702
65192W        W31733  34.178  16.648   3.236
65193W        W31734  25.493  40.780   0.522
65194W        W31735  28.406  40.818  14.351
65195W        W31736  26.691  29.531  11.484
65196W        W31737  15.202   0.050  11.347
65197W        W31738   7.130  29.531  13.879
65198W        W31739   3.800  34.681   1.366
65199W        W31740  36.648  13.714  14.024
65200W        W31741  43.248  37.878  12.633
65201W        W31742  16.020  20.029  14.500
65202W        W31743  15.488   4.893   1.495
65203W        W31744  20.451  20.691  12.943
65204W        W31745  40.035  22.909   0.864
65205W        W31746  16.893  33.204   3.855
65206W        W31747  36.500   3.982   2.782
65207W        W31748  38.716   1.909   0.891
65208W        W31749  35.326  42.479   0.296
65209W        W31750   6.349  22.027   1.408
65210W        W31751  25.113  21.681   4.637
65211W        W31752   3.757  12.780   0.164
65212W        W31753   4.653   5.358   0.059
65213W        W31754  11.393  17.310  14.838
65214W        W31755  15.091  32.696  13.923
65215W        W31756   7.383  23.267  13.765
65216W        W31757  12.040  31.189  14.313
65217W        W31758  28.417  19.575   4.237
65218W        W31759  15.795  30.600  11.932
65219W        W31760  11.201  41.127  14.030
65220W        W31761  34.847  40.498  12.070
65221W        W31762  20.387  39.591   4.115
65222W        W31763  23.920   1.065  13.800
65223W        W31764   3.916  32.961   4.006
65224W        W31765   4.931  27.454   2.807
65225W        W31766   5.423  37.542   3.138
65226W        W31767   0.990  25.594   0.588
65227W        W31768  34.126  12.283  12.838
65228W        W31769   7.808  23.105  11.188
65229W        W31770  18.239   2.644   2.269
65230W        W31771  32.302  41.698  12.955
65231W        W31772  44.926  35.787  11.606
65232W        W31773  24.547  40.325  11.333
65233W        W31774   7.212  26.230   2.368
65234W        W31775  29.942  35.391   1.805
65235W        W31776  14.666  29.998   5.051
65236W        W31777   4.357  30.686  11.927
65237W        W31778  24.152  18.235   3.701
65238W        W31779  42.237  32.015   3.033
65239W        W31780   0.930  37.389   1.329
65240W        W31781  16.104  13.742  13.551
65241W        W31782  30.246   2.531   2.249
65242W        W31783  28.695  13.067   0.931
65243W        W31784  38.599  22.795  14.941
65244W        W31785  30.397  22.963  10.868
65245W        W31786  31.463  44.211  12.665
65246W        W31787  28.903  25.168  11.435
65247W        W31788  30.475  43.799  13.213
65248W        W31789  24.093  42.800  11.005
65249W        W31790  29.999  11.428   1.680
65250W        W31791  12.770   1.313   3.634
65251W        W31792  44.050   3.787   2.962
65252W        W31793  27.677  12.347  10.683
65253W        W31794  29.328   6.646   4.535
65254W        W31795  19.697   7.658  10.503
65255W        W31796   3.843  35.941  11.004
65256W        W31797   7.582  28.051   1.424
65257W        W31798  20.269  25.106  14.988
65258W        W31799  10.158  23.284   4.997
65259W        W31800  33.321  24.649  12.828
65260W        W31801  44.393   1.531   2.992
65261W        W31802  44.445  29.022  12.471
65262W        W31803  32.121   1.300   4.280
65263W        W31804   1.964  25.998   3.679
65264W        W31805  27.574  38.399   1.624
65265W        W31806  20.360   8.368  11.580
65266W        W31807   8.291  24.448  10.953
65267W        W31808  26.570  16.570   0.977
65268W        W31809   1.743  21.641   1.381
65269W        W31810  34.979   7.822   0.601
65270W        W31811  22.851  42.063   3.167
65271W        W31812  30.914  41.569  11.085
65272W        W31813   4.301  23.238   4.106
65273W        W31814  24.799   2.036  13.990
65274W        W31815  43.003  13.621   0.949
65275W        W31816  19.362  16.531   0.296
65276W        W31817  31.100   5.376  13.752
65277W        W31818  33.908  26.681  11.976
65278W        W31819  17.273  42.040  10.733
65279W        W31820  31.634  39.019   2.693
65280W        W31821  12.988  31.854   3.424
65281W        W31822  13.357   8.377  12.011
65282W        W31823  41.369  15.102  13.699
65283W        W31824  29.149  38.784   3.643
65284W        W31825  27.744   3.192  10.895
65285W        W31826  29.951  13.456   2.739
65286W        W31827  39.809   7.386   4.230
65287W        W31828  33.991  17.716   4.597
65288W        W31829   5.378  35.154   2.953
65289W        W31830  29.037  39.798   2.273
65290W        W31831  40.893  10.099   0.559
65291W        W31832   5.514  34.865  10.465
65292W        W31833  15.720  43.491  14.494
65293W        W31834  37.583  14.593  11.586
65294W        W31835   7.152   4.707   1.997
65295W        W31836  12.163  21.951  14.241
65296W        W31837  15.174  41.254   0.287
65297W        W31838  29.676  44.577   1.689
65298W        W31839  20.333  30.646   5.096
65299W        W31840  10.708  16.217  14.441
65300W        W31841  20.198  18.865   4.495
65301W        W31842  28.329  43.764   4.094
65302W        W31843  33.753   4.945  14.311
65303W        W31844  22.799  23.573   2.500
65304W        W31845  41.458  41.486   3.154
65305W        W31846  42.590  19.380   4.637
65306W        W31847  34.437   7.084   3.624
65307W        W31848   0.892  42.920  11.782
65308W        W31849  42.978  18.464   4.580
65309W        W31850  31.926  20.930  11.546
65310W        W31851   6.750  15.524  12.323
65311W        W31852   0.764  17.186   2.396
65312W        W31853   2.701  11.952  10.601
65313W        W31854  27.455  26.026  13.040
65314W        W31855  18.165  29.141   2.299
65315W        W31856  41.531  39.222   3.298
65316W        W31857   1.443  19.231   2.171
65317W        W31858  24.532  43.913  11.197
65318W        W31859  40.993   2.935  10.518
65319W        W31860  24.534   8.593   2.738
65320W        W31861   9.921  38.494  14.284
65321W        W31862  44.351  23.256   2.745
65322W        W31863  16.790  17.142  14.371
65323W        W31864  12.065  37.940   1.832
65324W        W31865  41.268   4.362  14.972
65325W        W31866  14.851   2.309  14.717
65326W        W31867   0.525   8.782   2.639
65327W        W31868   7.105   0.618  12.764
65328W        W31869  27.208  34.825   3.316
65329W        W31870  40.522  21.160   1.842
65330W        W31871  12.644   8.171   1.738
65331W        W31872  19.242  13.773  13.508
65332W        W31873   2.062   0.894  13.024
65333W        W31874  38.089  18.894   1.298
65334W        W31875  21.667  21.982  12.540
65335W        W31876  40.306   5.746  11.684
65336W        W31877  25.918  37.643  12.361
65337W        W31878  40.082  44.352   3.906
65338W        W31879  20.824  20.529   0.327
65339W        W31880  20.731  40.918  13.039
65340W        W31881   5.007  11.149   1.806
65341W        W31882   9.338  25.458  12.013
65342W        W31883  22.656  16.681  12.042
65343W        W31884   4.164   2.984  12.129
65344W        W31885  39.807  14.965   2.859
65345W        W31886  22.077  41.709  14.372
65346W        W31887  23.095   2.881   3.210
65347W        W31888  11.575  23.896   2.766
65348W        W31889  17.188  29.709   3.352
65349W        W31890   8.838  24.887   4.748
65350W        W31891  39.204  44.502  14.456
65351W        W31892   3.423   1.329  11.944
65352W        W31893   5.424  28.887  12.512
65353W        W31894  34.297  37.468  11.084
65354W        W31895  25.505  21.344   1.496
65355W        W31896  18.583   5.523  11.580
65356W        W31897   6.448  31.730  13.419
65357W        W31898  43.295  34.999   2.879
65358W        W31899  36.801  19.045  14.278
65359W        W31900   3.684  33.429  13.542
65360W        W31901  24.512  36.491  13.072
65361W        W31902  29.190   6.151   4.074
65362W        W31903  31.409   3.967   1.859
65363W        W31904   3.640  19.620   4.942
65364W        W31905  33.726  15.875  10.106
65365W        W31906  22.223  24.781   2.763
65366W        W31907   0.988  25.593   3.631
65367W        W31908  34.602  44.820   0.818
65368W        W31909  16.742  34.478  14.870
65369W        W31910   0.972  22.608   2.287
65370W        W31911   7.948  10.391   1.467
65371W        W31912  10.058  12.975   1.517
65372W        W31913  38.534   5.661   1.770
65373W        W31914  18.529   9.846  13.416
65374W        W31915  36.953  36.952  12.123
65375W        W31916   3.386  23.516  11.324
65376W        W31917  13.014  22.236   0.886
65377W        W31918  29.122  19.512   1.919
65378W        W31919  21.614  43.330   3.258
65379W        W31920  19.357   2.411  12.423
65380W        W31921  13.364  41.233  11.105
65381W        W31922  40.486   6.841  10.749
65382W        W31923  34.318  26.919   1.817
65383W        W31924  15.581  18.055  10.553
65384W        W31925   3.243  43.321   2.759
65385W        W31926  30.952  15.277  14.432
65386W        W31927  32.156  25.045   0.454
65387W        W31928  34.447  44.308   1.486
65388W        W31929  11.847   0.494  12.880
65389W        W31930  11.283  37.574  14.963
65390W        W31931   1.672   2.888   2.431
65391W        W31932   0.985  23.673   1.607
65392W        W31933   3.702   5.251   4.678
65393W        W31934  38.855  38.127   0.797
65394W        W31935  11.980  12.681  12.507
65395W        W31936  22.042  35.961  10.890
65396W        W31937  30.519   9.790  12.535
65397W        W31938  22.071  25.276   2.829
65398W        W31939  44.972  26.651   3.190
65399W        W31940  16.092  40.327  11.917
65400W        W31941  20.448   1.326   1.750
65401W        W31942  14.620   4.004   3.737
65402W        W31943  35.937   8.376  10.819
65403W        W31944  18.963  42.922  14.818
65404W        W31945  36.515  20.344  14.867
65405W        W31946   0.569  21.634  14.966
65406W        W31947  28.930  20.663  12.084
65407W        W31948  40.842  31.593   4.626
65408W        W31949  14.059   2.974  11.683
65409W        W31950  40.565  43.937   0.232
65410W        W31951  20.048   7.016  12.466
65411W        W31952  32.396  43.406   4.510
65412W        W31953  15.455  13.306   1.539
65413W        W31954  22.055  35.524   3.280
65414W        W31955  21.354   3.190  12.789
65415W        W31956  11.287   9.213  11.605
65416W        W31957  42.312  44.333  13.758
65417W        W31958   5.278  19.861  13.037
65418W        W31959   0.979  44.420   2.025
65419W        W31960  11.591   5.797  10.437
65420W        W31961  26.567  37.657  10.926
65421W        W31962  34.948   8.344   1.844
65422W        W31963  44.726  23.568  14.384
65423W        W31964  15.579   6.221   1.278
65424W        W31965  20.347  37.196   4.247
65425W        W31966  18.094  35.937  11.456
65426W        W31967   5.530  16.894  10.172
65427W        W31968  43.188  18.720   4.977
65428W        W31969  28.672  29.240   0.355
65429W        W31970  36.137  18.191   4.624
65430W        W31971  27.421  16.472  11.717
65431W        W31972  31.343  22.675   1.820
65432W        W31973  16.034  22.672  12.301
65433W        W31974  39.034  36.149   1.330
65434W        W31975  42.352   0.538   4.491
65435W        W31976   8.314  33.877   2.979
65436W        W31977   3.504  35.958  12.344
65437W        W31978  35.462  17.106  13.493
65438W        W31979   4.123   1.310  12.461
65439W        W31980  39.822  23.132   1.282
65440W        W31981  19.536  29.192   1.273
65441W        W31982  17.228  41.783  12.007
65442W        W31983  44.431  42.873  12.021
65443W        W31984   5.478  25.423   3.119
65444W        W31985  21.166  29.453   0.766
65445W        W31986  28.936  28.065  14.150
65446W        W31987  32.868  24.792   2.224
65447W        W31988  16.322  31.897  11.338
65448W        W31989  38.808  39.910   0.791
65449W        W31990  40.136   7.638   3.454
65450W        W31991  30.233  44.558  11.426
65451W        W31992   0.319   2.533  13.917
65452W        W31993  22.232  35.915   2.989
65453W        W31994  37.598  33.587   1.368
65454W        W31995  33.704  29.684   0.078
65455W        W31996  32.986  43.788   3.994
65456W        W31997  40.414  33.715  11.330
65457W        W31998  10.225  14.539   1.810
65458W        W31999  44.879  42.642  12.120
65459W        W32000   1.025  20.589   3.300
65460W        W32001   1.836  12.339  14.323
65461W        W32002  22.982  25.251  13.397
65462W        W32003  18.747  29.058  13.441
65463W        W32004  22.834   5.251  14.538
65464W        W32005  31.450  22.924  14.058
65465W        W32006   2.380  12.416   5.048
65466W        W32007  14.837  16.090  14.064
65467W        W32008  34.357  36.628   0.344
65468W        W32009  25.988  43.822   4.292
65469W        W32010  22.258  40.788   3.288
65470W        W32011   8.809  42.304   4.979
65471W        W32012  11.273  34.281   2.789
65472W        W32013   1.186   6.647  11.064
65473W        W32014   1.873   0.590  14.306
65474W        W32015  23.232  41.460   1.386
65475W        W32016  33.754   3.276  14.319
65476W        W32017  23.010  40.350  12.937
65477W        W32018  31.635   9.747   3.176
65478W        W32019  42.831   3.870  14.884
65479W        W32020   8.741  39.585  11.666
65480W        W32021  12.564   4.986  12.751
65481W        W32022  27.390  31.154   1.705
65482W        W32023  43.538  44.882   1.234
65483W        W32024   1.396  16.094  11.636
65484W        W32025   6.717  42.380   0.973
65485W        W32026  34.689  18.477   3.272
65486W        W32027  31.897  37.414   1.748
65487W        W32028  41.046   5.234  14.370
65488W        W32029  35.108  33.829  13.611
65489W        W32030   4.419  33.722  10.423
65490W        W32031  22.219   7.672   3.324
65491W        W32032  35.942   8.980   3.639
65492W        W32033  41.890  39.073  12.120
65493W        W32034  25.498   1.476  12.340
65494W        W32035  15.473  37.606  11.103
65495W        W32036  27.660  14.946  11.971
65496W        W32037  42.274  13.014   2.192
65497W        W32038  29.545  38.531  14.526
65498W        W32039  24.266  31.458  11.827
65499W        W32040  38.355  25.073  11.601
65500W        W32041  21.399  39.222  11.262
65501W        W32042  23.106  44.871   1.795
65502W        W32043  33.728   5.628  13.925
65503W        W32044  41.380   7.157  14.326
65504W        W32045  41.082  39.128  13.393
65505W        W32046  17.776   1.223   4.538
65506W        W32047  14.100  19.356  14.756
65507W        W32048  13.931  20.687  14.511
65508W        W32049  21.926  11.672   4.228
65509W        W32050  22.151  25.453  11.946
65510W        W32051  27.092  28.075   0.440
65511W        W32052  30.404  10.729  10.644
65512W        W32053  41.907   8.848  13.091
65513W        W32054  20.669   7.485   4.093
65514W        W32055   0.700  35.081  11.865
65515W        W32056  33.442  42.914  10.178
65516W        W32057  18.332  22.808  11.193
65517W        W32058  26.147  21.163  14.312
65518W        W32059  29.038  22.071   3.540
65519W        W32060   6.273   6.326  12.729
65520W        W32061  19.427  19.332  13.405
65521W        W32062   2.696  26.484  13.152
65522W        W32063  23.496  41.456  14.316
65523W        W32064  27.475   3.684   2.791
65524W        W32065  25.014  31.011   1.962
65525W        W32066  33.101  31.010  12.302
65526W        W32067   9.226  28.179  13.458
65527W        W32068   4.411   4.485   3.725
65528W        W32069  32.886  29.629   3.628
65529W        W32070  20.259  26.323  14.364
65530W        W32071  11.829  32.195   0.832
65531W        W32072   8.630  27.102  12.584
65532W        W32073   4.606  35.716   3.798
65533W        W32074   7.595  19.059   1.812
65534W        W32075  29.872  38.500  13.268
65535W        W32076   1.174  17.918  12.948
65536W        W32077  34.392  17.065   4.701
65537W        W32078  30.499  17.978   2.151
65538W        W32079  27.538  15.453  11.958
65539W        W32080  20.635  25.495   4.218
65540W        W32081  35.975   8.616   0.307
65541W        W32082  17.501  14.070  11.874
65542W        W32083  18.499  35.569  14.264
65543W        W32084   9.041  41.899  13.563
65544W        W32085  29.944  43.598  11.648
65545W        W32086  32.519  15.804  13.840
65546W        W32087  12.053  16.819  13.469
65547W        W32088  12.486   4.020   1.255
65548W        W32089  22.615  18.722  11.295
65549W        W32090  39.815  14.592   3.212
65550W        W32091  36.022  30.180   0.399
65551W        W32092   6.327  39.045  12.607
65552W        W32093  29.315   5.764  14.439
65553W        W32094  31.984  40.538   5.009
65554W        W32095  24.271   8.586   4.067
65555W        W32096  17.601   1.050   0.753
65556W        W32097  16.364  23.103   4.523
65557W        W32098  18.239   9.547  13.736
65558W        W32099  26.412  35.163  12.134
65559W        W32100  24.265   9.229   3.655
65560W        W32101  40.693  35.486   0.595
65561W        W32102   7.635   5.829  14.347
65562W        W32103  14.452  27.146  10.574
65563W        W32104  11.638  14.297   1.860
65564W        W32105  32.429  31.767  11.887
65565W        W32106  13.238  30.960  14.076
65566W        W32107  42.755  25.680  11.106
65567W        W32108  17.589  15.689   0.222
65568W        W32109  43.470   0.967   0.453
65569W        W32110  42.478  26.137   1.920
65570W        W32111  39.999  34.946  10.714
65571W        W32112  33.350  32.837  12.935
65572W        W32113  26.821  30.069  12.912
65573W        W32114  38.338  36.676   0.880
65574W        W32115  41.533  18.669   3.232
65575W        W32116  20.580   3.036  12.659
65576W        W32117  21.122   8.107  13.569
65577W        W32118  10.292   2.464  10.922
65578W        W32119   7.587  14.143  10.772
65579W        W32120   6.272  43.300   1.993
65580W        W32121   9.580   1.021   1.743
65581W        W32122  39.405  21.349  13.223
65582W        W32123  13.909  35.415   3.664
65583W        W32124  27.535  12.849   0.359
65584W        W32125  17.104  37.077   1.172
65585W        W32126  40.544  14.145   0.820
65586W        W32127  44.258  36.085  12.273
65587W        W32128  39.511   2.311  13.940
65588W        W32129  24.826  29.188  11.635
65589W        W32130  30.738  33.500   2.705
65590W        W32131  24.559  17.713   1.287
65591W        W32132  36.196  31.911   4.992
65592W        W32133  11.438  28.676   4.768
65593W        W32134  41.303  34.034  11.691
65594W        W32135  34.465  23.911   1.807
65595W        W32136  40.589  37.403  11.781
65596W        W32137   0.497  21.135  10.864
65597W        W32138  16.983  26.626   2.378
65598W        W32139  29.374   1.618  11.205
65599W        W32140  22.072  10.319   0.685
65600W        W32141  10.211  28.070   5.404
65601W        W32142  24.977  36.354  11.857
65602W        W32143  35.889  23.724  14.908
65603W        W32144  33.855  15.361  10.190
65604W        W32145  11.769  34.934  12.663
65605W        W32146  16.807  40.798   2.862
65606W        W32147  20.154  44.673   1.363
65607W        W32148  31.926  26.705  14.905
65608W        W32149  35.326  43.862   2.817
65609W        W32150  37.868  20.137   3.053
65610W        W32151  43.773  32.437   4.335
65611W        W32152  10.869  40.491   4.878
65612W        W32153  13.524  11.216   4.245
65613W        W32154  20.347   5.190  12.994
65614W        W32155  28.810   8.638  11.979
65615W        W32156  13.006  36.010  10.472
65616W        W32157  31.105  42.915  11.061
65617W        W32158   5.792   8.417  12.004
65618W        W32159   0.910  21.485   3.720
65619W        W32160  39.032  11.984   2.484
65620W        W32161  25.267  32.363  14.067
65621W        W32162   1.063   6.172   2.309
65622W        W32163  32.002  31.500  12.635
65623W        W32164  11.321  37.029   3.189
65624W        W32165  32.255  39.016  12.042
65625W        W32166   8.906   6.560   4.605
65626W        W32167  44.953  41.879  10.751
65627W        W32168  12.446  27.167  14.947
65628W        W32169  33.517  12.703  11.889
65629W        W32170  25.501  13.821  10.471
65630W        W32171   8.641  25.675  12.399
65631W        W32172   6.936  24.810  10.703
65632W        W32173  13.344  28.633   1.837
65633W        W32174  38.957  36.090   2.661
65634W        W32175  38.005   7.086  11.161
65635W        W32176  31.725  20.056  14.876
65636W        W32177  36.030  15.773  14.668
65637W        W32178  34.972  44.518   3.583
65638W        W32179   3.419  31.656   3.097
65639W        W32180  19.204  42.222   0.436
65640W        W32181   4.344  40.079   2.588
65641W        W32182   3.257  23.758  11.759
65642W        W32183  18.793  44.338   4.779
65643W        W32184  25.146   2.957   4.799
65644W        W32185   1.375   4.910   3.279
65645W        W32186  18.081  22.432  13.389
65646W        W32187  25.607  40.786   4.665
65647W        W32188  30.874  39.566   2.597
65648W        W32189  22.549   2.703   5.029
65649W        W32190  18.717  31.401   3.869
65650W        W32191  13.117  23.954  12.077
65651W        W32192  10.272   3.751  10.081
65652W        W32193  29.116  38.836   1.660
65653W        W32194   1.956  37.011  10.377
65654W        W32195   5.590  40.388   3.839
65655W        W32196   5.958  22.739   5.110
65656W        W32197  33.170  15.029   4.145
65657W        W32198  13.697   7.646   1.810
65658W        W32199  13.357  24.153  12.513
65659W        W32200  20.341  37.002  13.070
65660W        W32201  10.222  29.453  10.851
65661W        W32202   2.838  42.812  13.995
65662W        W32203  41.997  30.702  13.959
65663W        W32204  36.144  33.435   1.210
65664W        W32205  17.571  18.224  14.180
65665W        W32206  28.399  38.415   1.296
65666W        W32207  15.331  23.936  12.053
65667W        W32208  16.567   8.904  12.935
65668W        W32209  10.334  42.516   4.918
65669W        W32210  38.834  40.311  10.145
65670W        W32211  22.840   8.843   2.205
65671W        W32212  40.554  41.094  12.040
65672W        W32213  44.626  37.153  12.141
65673W        W32214   2.115  40.809  13.500
65674W        W32215  29.308  35.853  13.177
65675W        W32216   9.488  34.310   0.386
65676W        W32217  19.305  12.861   3.601
65677W        W32218   6.237  44.653  10.691
65678W        W32219  29.058  31.498  14.707
65679W        W32220  11.115  18.158  11.230
65680W        W32221  40.421  42.268   0.969
65681W        W32222  11.469  38.727  14.560
65682W        W32223   0.018  26.191   3.416
65683W        W32224  30.426  38.927  11.597
65684W        W32225  35.676  20.551   1.676
65685W        W32226  25.374   6.158  13.398
65686W        W32227  10.424  44.496   2.340
65687W        W32228  25.682  15.287   3.896
65688W        W32229  40.387  16.562   0.972
65689W        W32230  36.320  44.621  11.581
65690W        W32231  22.719  29.976   1.720
65691W        W32232  10.634  37.482  12.174
65692W        W32233  18.812   0.009  11.161
65693W        W32234  25.634   3.409  12.493
65694W        W32235  29.145  24.982   0.488
65695W        W32236  29.630  10.845  11.983
65696W        W32237  32.039  43.736  10.646
65697W        W32238  33.098  35.475   1.162
65698W        W32239   8.663   7.562   4.057
65699W        W32240  33.419  30.037  14.251
65700W        W32241   1.319  41.801   0.663
65701W        W32242  37.970  33.496   3.125
65702W        W32243  32.680   7.201   1.690
65703W        W32244  39.898  35.416  13.654
65704W        W32245   4.320   5.227  11.616
65705W        W32246  27.396  26.490   1.828
65706W        W32247  43.319  42.517   0.486
65707W        W32248  17.850   5.505   2.218
65708W        W32249   9.191  19.795   4.048
65709W        W32250  44.877  39.979  11.079
65710W        W32251  34.140  12.294   1.863
65711W        W32252  12.724  21.777  12.469
65712W        W32253  18.333  38.992  14.117
65713W        W32254  23.240   8.049  12.310
65714W        W32255  11.723   0.702   4.064
65715W        W32256  10.013  24.166   1.766
65716W        W32257   2.867  18.681  11.498
65717W        W32258  30.036  34.157   4.675
65718W        W32259  13.615  23.180   1.721
65719W        W32260  22.126   9.991   1.094
65720W        W32261  16.986  13.650   1.056
65721W        W32262   2.457   4.699   0.028
65722W        W32263  15.811  28.519   3.153
65723W        W32264  39.566  17.797   2.716
65724W        W32265  30.070  16.639  11.650
65725W        W32266  41.808  22.663   0.606
65726W        W32267   3.460  26.557   0.743
65727W        W32268  33.389  28.688  11.090
65728W        W32269  42.008  36.316   5.152
65729W        W32270  21.147   4.146  10.462
65730W        W32271   3.740   4.934  12.450
65731W        W32272  29.008  26.636  14.018
65732W        W32273  17.632   9.866  13.085
65733W        W32274  13.033   0.102   3.991
65734W        W32275   8.321  24.993  12.829
65735W        W32276  21.244  18.333  12.994
65736W        W32277  14.106   5.569   4.586
65737W        W32278   0.453  30.883   1.849
65738W        W32279  11.734   7.732  13.796
65739W        W32280  32.964  38.357  10.445
65740W        W32281  11.852  42.939  14.826
65741W        W32282  17.189  16.637   0.957
65742W        W32283  15.277  44.147  11.681
65743W        W32284   8.699   8.842  10.967
65744W        W32285   2.707  10.409   1.850
65745W        W32286  41.931  28.737  12.961
65746W        W32287   2.224   5.987  12.552
65747W        W32288  26.546  18.996   3.776
65748W        W32289  16.056  25.068  13.155
65749W        W32290  29.605   0.528   3.836
65750W        W32291  37.338  26.043   4.902
65751W        W32292   6.804   9.179   3.410
65752W        W32293   6.419  15.070   4.669
65753W        W32294  11.345  44.252   1.761
65754W        W32295   8.905  36.394   1.763
65755W        W32296  44.998  25.500  13.955
65756W        W32297  13.353   5.267   1.757
65757W        W32298   0.143  29.730   3.152
65758W        W32299  21.597  21.270   3.237
65759W        W32300  16.594  17.920   4.136
65760W        W32301  13.213  30.543   1.520
65761W        W32302  22.057  13.734   1.014
65762W        W32303  24.541  21.857  14.986
65763W        W32304   9.256   5.264   4.524
65764W        W32305   7.371  21.608  11.515
65765W        W32306  42.816  27.566   4.048
65766W        W32307  18.379  26.779   0.651
65767W        W32308  25.717  18.657  11.515
65768W        W32309   6.137  13.261  11.474
65769W        W32310  18.786  25.336   1.602
65770W        W32311  26.876  26.523   1.791
65771W        W32312   7.818  13.536   3.643
65772W        W32313   5.980  18.644  13.024
65773W        W32314  39.111  22.659   3.715
65774W        W32315  18.263  19.614   4.783
65775W        W32316  14.178  15.259  13.122
65776W        W32317  22.592  23.586   0.536
65777W        W32318  15.570  13.631   4.123
65778W        W32319   3.326  44.278   0.900
65779W        W32320  37.332   7.830   3.878
65780W        W32321   7.718  20.020  13.929
65781W        W32322   2.413  26.935  14.803
65782W        W32323   8.097  33.866   1.700
65783W        W32324  28.447   4.681   2.074
65784W        W32325  33.406  39.065   3.262
65785W        W32326  22.635   5.111   0.420
65786W        W32327  44.365  42.762  10.570
65787W        W32328  33.389   0.541   3.260
65788W        W32329  32.671  17.991   2.268
65789W        W32330  25.540   9.374   0.933
65790W        W32331  39.699  17.400   4.807
65791W        W32332  41.945   2.032   2.731
65792W        W32333  18.971  33.336  14.834
65793W        W32334   6.360   7.782  13.996
65794W        W32335   8.839  34.653  12.503
65795W        W32336   1.457  35.817  12.929
65796W        W32337  33.390  31.499  14.841
65797W        W32338  11.579  36.190  10.273
65798W        W32339  31.796   4.006  10.869
65799W        W32340   5.242  18.680  13.344
65800W        W32341  44.900  31.030   4.572
65801W        W32342  25.130  16.988   3.952
65802W        W32343  24.117  37.498  10.997
65803W        W32344  31.511  21.196  13.632
65804W        W32345  11.129   0.944  12.767
65805W        W32346  13.814   4.859   2.767
65806W        W32347  33.574  44.207  11.036
65807W        W32348   5.926  19.154   1.654
65808W        W32349  13.607  19.935   2.782
65809W        W32350  37.880  10.872  12.496
65810W        W32351  21.055  44.341   3.680
65811W        W32352  15.571  41.503  13.879
65812W        W32353  41.925  36.522   3.583
65813W        W32354  27.202   1.864   2.268
65814W        W32355  30.188  28.653   3.866
65815W        W32356  15.889  17.298  12.429
65816W        W32357  21.343  31.960   2.237
65817W        W32358   7.943   6.836   1.321
65818W        W32359  43.614  32.067  13.226
65819W        W32360  40.035  21.949   0.671
65820W        W32361  14.790  28.035   0.532
65821W        W32362  40.373  39.316   3.695
65822W        W32363  30.385   3.252   2.844
65823W        W32364   7.465  30.083  11.842
65824W        W32365  11.422  40.051   2.649
65825W        W32366  29.977  12.319  14.225
65826W        W32367  39.955  37.912   2.347
65827W        W32368  15.211  31.174  13.412
65828W        W32369   8.817  44.713  13.876
65829W        W32370  38.492  10.401   2.620
65830W        W32371  44.059  26.351   3.549
65831W        W32372  42.430  25.810   0.933
65832W        W32373   6.349  15.078   4.158
65833W        W32374  17.677  26.008   4.218
65834W        W32375  42.176  44.863  12.429
65835W        W32376   4.763   9.908   4.059
65836W        W32377  29.534  13.343   2.010
65837W        W32378  29.730   8.763  10.278
65838W        W32379  44.878   4.215   0.417
65839W        W32380  26.023   5.089  11.150
65840W        W32381  12.437   6.202  11.984
65841W        W32382  21.616  28.596  12.533
65842W        W32383  35.822  14.565   0.854
65843W        W32384  16.751  22.089   3.688
65844W        W32385  44.915  36.645  13.941
65845W        W32386  35.798  23.062   2.683
65846W        W32387  32.406  31.486  12.333
65847W        W32388  22.240  33.598  11.489
65848W        W32389  10.666  18.517   4.646
65849W        W32390   3.491  31.592  14.878
65850W        W32391  42.806   6.429  13.745
65851W        W32392  38.593  10.978  12.010
65852W        W32393  37.300   9.352   3.320
65853W        W32394  36.307  26.666  11.463
65854W        W32395   0.530  16.715  13.847
65855W        W32396  43.079  24.675   0.782
65856W        W32397  25.701  24.960   3.250
65857W        W32398   6.229   4.787  14.380
65858W        W32399  41.340  31.928  13.801
65859W        W32400  27.002  21.183  13.948
65860W        W32401  43.544  41.726   0.036
65861W        W32402  32.636  20.608   1.649
65862W        W32403  17.390  42.098   1.907
65863W        W32404  39.802  40.513  12.995
65864W        W32405  14.701  39.473   0.482
65865W        W32406   2.869  30.980   3.633
65866W        W32407  23.154  23.241  14.434
65867W        W32408  24.414  44.832   1.969
65868W        W32409  26.945  37.486   2.740
65869W        W32410   0.703   3.528  12.485
65870W        W32411  18.714   3.857   0.240
65871W        W32412   5.130  11.632  11.594
65872W        W32413   7.527  29.507  10.778
65873W        W32414  15.812   1.540   4.308
65874W        W32415  15.071  26.763   2.614
65875W        W32416  10.651  22.140   4.532
65876W        W32417   4.382  14.614  13.317
65877W        W32418  37.281  34.628   4.583
65878W        W32419  34.092  44.893   4.030
65879W        W32420   0.695  26.447  14.480
65880W        W32421   7.162  40.373   1.758
65881W        W32422  19.121  36.975   4.601
65882W        W32423  40.399  44.472   1.342
65883W        W32424   7.358  20.276  12.984
65884W        W32425  43.033   5.375   1.390
65885W        W32426  22.166  14.557   1.678
65886W        W32427   4.644  22.968   3.174
65887W        W32428  15.689   9.247  10.682
65888W        W32429  17.121   1.944  12.967
65889W        W32430  41.706   3.457  13.998
65890W        W32431  36.591  38.580  10.771
65891W        W32432  29.628  27.835  13.901
65892W        W32433  25.062  15.660  12.541
65893W        W32434  18.761  42.296   0.720
65894W        W32435   5.335  28.506   1.954
65895W        W32436  39.028   4.909   0.432
65896W        W32437   4.743  13.068  12.827
65897W        W32438  30.532  10.986  10.203
65898W        W32439  42.040  26.488   3.152
65899W        W32440  38.872  16.020   1.371
65900W        W32441  22.095  17.074  14.241
65901W        W32442   4.172  30.684  14.291
65902W        W32443   0.568  13.034  12.941
65903W        W32444  11.577  43.547  12.961
65904W        W32445   9.270  17.364  11.994
65905W        W32446  18.225  12.812   2.770
65906W        W32447  36.566   0.804  12.910
65907W        W32448   3.779  35.996   5.157
65908W        W32449   9.793   1.780  10.944
65909W        W32450   5.312  20.697   3.280
65910W        W32451  32.371  40.428   1.213
65911W        W32452  18.294  17.808   4.276
65912W        W32453  41.508  34.948   4.781
65913W        W32454  10.305  39.381   1.164
65914W        W32455  44.562  21.059  13.839
65915W        W32456  33.156  20.236  11.191
65916W        W32457   5.804  31.779  12.816
65917W        W32458  14.143  18.801  12.195
65918W        W32459  22.112  33.237   2.214
65919W        W32460  24.690   1.690   0.303
65920W        W32461  33.342  40.837   1.966
65921W        W32462  15.562  15.310  10.088
65922W        W32463  33.316   4.535   3.618
65923W        W32464  37.029  33.217   0.913
65924W        W32465  16.656  32.767   4.043
65925W        W32466  19.333  40.006  14.751
65926W        W32467  14.213  23.051  13.358
65927W        W32468  37.494   8.752   1.855
65928W        W32469  20.443  28.473  11.574
65929W        W32470  35.562  18.781  13.838
65930W        W32471  32.072  25.016   0.979
65931W        W32472  22.593   7.248  13.364
65932W        W32473  33.596  21.956   1.842
65933W        W32474  43.780  27.752   0.832
65934W        W32475  31.501  31.098   4.147
65935W        W32476  21.601   0.004   1.414
65936W        W32477  25.449   4.913  13.846
65937W        W32478  38.326  26.177  10.938
65938W        W32479  29.140  17.470   1.648
65939W        W32480  41.311  17.074  11.905
65940W        W32481   8.304  16.080  13.552
65941W        W32482  20.655  27.162   4.793
65942W        W32483  40.257  36.669  14.038
65943W        W32484  25.671  19.299   2.679
65944W        W32485  33.095  35.078   1.483
65945W        W32486  12.092  17.756   2.988
65946W        W32487   1.824  44.718   1.104
65947W        W32488  19.133  42.067  14.045
65948W        W32489  39.444   4.697   2.818
65949W        W32490  22.887  42.864  13.603
65950W        W32491  38.136  22.021   3.123
65951W        W32492   2.707   4.741   1.623
65952W        W32493  38.971  18.370  13.718
65953W        W32494   7.206  42.302   3.180
65954W        W32495  38.868   9.856  11.627
65955W        W32496  11.891   7.939   1.724
65956W        W32497   2.056  35.499  12.452
65957W        W32498  10.750  33.829   2.207
65958W        W32499  20.038  37.920  12.633
65959W        W32500  13.098  38.327  14.953
65960W        W32501  13.353  40.803   0.357
65961W        W32502  39.997  39.954   0.741
65962W        W32503  41.511  18.735  10.687
65963W        W32504  40.087  23.661  13.387
65964W        W32505  29.203  35.845  14.468
65965W        W32506  26.505  42.515  12.903
65966W        W32507  31.108  36.507  11.969
65967W        W32508  39.696  41.093   0.238
65968W        W32509  39.557  17.710  14.335
65969W        W32510  15.379  18.837  13.940
65970W        W32511  37.819   9.391   4.043
65971W        W32512  16.154   5.361   4.733
65972W        W32513  42.976  35.805   0.885
65973W        W32514  42.335  32.666  12.463
65974W        W32515  13.819  34.369  11.355
65975W        W32516  33.068  11.532   1.378
65976W        W32517  40.420   7.829  11.643
65977W        W32518   8.696  27.248   1.266
65978W        W32519  13.417  34.383   4.729
65979W        W32520   4.683  38.100   2.723
65980W        W32521  33.876   0.398   1.851
65981W        W32522  19.897   5.373  11.103
65982W        W32523  36.871  36.910   1.654
65983W        W32524  31.827  11.833   3.141
65984W        W32525  10.167  33.715  11.952
65985W        W32526   6.706  12.696   0.034
65986W        W32527  11.253  21.057  13.360
65987W        W32528  23.997  10.624   3.584
65988W        W32529  13.734  43.261  13.875
65989W        W32530  39.087  13.017   2.226
65990W        W32531   2.330  10.910  13.511
65991W        W32532  31.854   3.471   4.086
65992W        W32533  33.799  31.469   2.813
65993W        W32534   3.477   6.274  11.247
65994W        W32535  40.662   6.141   5.106
65995W        W32536  37.215  30.970  11.196
65996W        W32537  14.409  40.256  12.029
65997W        W32538  23.286  26.680  14.480
65998W        W32539  26.669   0.556   1.877
65999W        W32540  23.017  34.002  14.825
66000W        W32541  27.080  40.333   2.146
66001W        W32542  22.509  21.083  11.698
66002W        W32543   0.825   9.923   1.692
66003W        W32544  22.714  28.668   2.033
66004W        W32545  21.663  32.719   4.359
66005W        W32546  40.873  11.060   0.287
66006W        W32547  36.801  22.931  11.584
66007W        W32548  36.837  31.363  14.321
66008W        W32549  32.042  37.870  11.578
66009W        W32550   4.901  17.070   2.344
66010W        W32551   7.696  27.176  14.863
66011W        W32552  23.235  17.735   1.649
66012W        W32553  17.596  29.507   4.251
66013W        W32554  40.610  15.082  12.522
66014W        W32555  42.779  44.549  13.819
66015W        W32556  34.648  10.986   0.259
66016W        W32557   2.222  38.843   1.365
66017W        W32558  22.615   6.770  14.216
66018W        W32559  28.336  22.356  12.190
66019W        W32560  17.270  36.348  14.792
66020W        W32561  39.065  29.982   2.869
66021W        W32562   3.905  31.523   3.818
66022W        W32563  20.049  22.075  11.885
66023W        W32564  14.980  15.333  14.788
66024W        W32565  23.580  34.875  11.518
66025W        W32566   1.943  42.736  12.584
66026W        W32567  10.790   0.027  14.923
66027W        W32568  32.951  16.802   4.526
66028W        W32569  39.219  39.063  14.492
66029W        W32570  13.683   4.761   4.618
66030W        W32571  15.349  13.767  11.630
66031W        W32572  37.950   2.472  10.077
66032W        W32573  18.189  25.562  12.519
66033W        W32574  42.763  17.914  12.666
66034W        W32575  32.398  23.610   0.442
66035W        W32576  19.562  10.423   1.901
66036W        W32577  39.975   3.847   2.408
66037W        W32578   4.527   1.851  13.409
66038W        W32579  28.070  15.086  12.260
66039W        W32580  27.205  23.597   0.230
66040W        W32581  14.376  42.312  11.483
66041W        W32582  10.196  32.044   2.882
66042W        W32583  21.889  18.622  14.790
66043W        W32584  14.783  44.913  13.265
66044W        W32585  30.050  30.676  14.872
66045W        W32586  21.310  14.137   4.946
66046W        W32587  15.890  38.497  11.555
66047W        W32588  37.325  23.692   0.565
66048W        W32589  22.829  31.576   0.875
66049W        W32590  13.549  39.815  12.185
66050W        W32591  23.546  31.188   4.550
66051W        W32592  20.779  22.044  14.029
66052W        W32593  16.058  43.610   2.754
66053W        W32594  21.530  15.760   0.433
66054W        W32595  28.524  24.624  11.909
66055W        W32596   8.843  20.085  11.641
66056W        W32597  15.113  25.158  12.094
66057W        W32598  37.993  13.814   1.198
66058W        W32599   8.421  17.892   4.090
66059W        W32600  29.002  21.561   4.938
66060W        W32601  22.395  14.222   3.229
66061W        W32602  25.073  19.536   3.381
66062W        W32603  23.161   7.948   3.237
66063W        W32604  11.295  42.249   2.770
66064W        W32605  42.282  42.825   0.906
66065W        W32606  27.544   8.369  14.464
66066W        W32607  23.521   3.778  10.989
66067W        W32608  20.001   4.405  11.375
66068W        W32609  41.843  20.560  12.109
66069W        W32610  25.207  22.196  14.034
66070W        W32611  10.493   6.769  11.958
66071W        W32612  19.580  38.071   3.562
66072W        W32613  13.684  24.962  14.720
66073W        W32614  39.242  43.335  13.162
66074W        W32615   3.539  34.372  12.432
66075W        W32616  36.098  19.668   3.318
66076W        W32617   7.161  20.203   3.779
66077W        W32618  16.710  36.533   1.921
66078W        W32619   0.047  37.439   2.550
66079W        W32620   1.468  24.452   0.533
66080W        W32621  14.891  28.893   2.864
66081W        W32622  29.464  36.542   1.817
66082W        W32623  26.027   3.821   9.626
66083W        W32624  26.135   0.581   3.707
66084W        W32625  22.257  17.608  12.562
66085W        W32626  43.896  26.878   3.602
66086W        W32627  27.561   8.183   2.359
66087W        W32628  12.307  16.436  13.057
66088W        W32629  44.985  14.869   0.453
66089W        W32630  17.331   9.686  14.457
66090W        W32631  15.800  22.677  11.266
66091W        W32632  26.460   5.909   2.382
66092W        W32633  26.622  41.188  13.751
66093W        W32634  25.218   8.394  14.977
66094W        W32635  44.017  33.471  11.493
66095W        W32636  43.720   3.344  10.704
66096W        W32637  24.456  33.434  12.157
66097W        W32638   8.714  23.185  14.010
66098W        W32639  10.916  39.139   5.222
66099W        W32640   8.225  25.964  13.131
66100W        W32641   6.645   4.294  12.432
66101W        W32642  29.493   3.689   1.826
66102W        W32643  18.070  28.052   3.733
66103W        W32644  35.370  36.956  11.515
66104W        W32645  29.557  29.545   1.795
66105W        W32646  25.089  24.724  11.642
66106W        W32647   0.350  18.196  12.470
66107W        W32648  37.013  32.059   2.367
66108W        W32649  41.823  29.213  14.438
66109W        W32650  14.191  14.896   1.907
66110W        W32651   7.583  33.763  11.112
66111W        W32652  21.294  29.657   2.331
66112W        W32653  40.907   4.603  12.876
66113W        W32654   7.476  11.650  13.152
66114W        W32655  13.083  38.372  12.453
66115W        W32656  24.882   2.965   1.406
66116W        W32657  38.939  19.556   2.194
66117W        W32658  11.763  42.059  12.999
66118W        W32659  17.932  22.997   1.929
66119W        W32660   3.068  19.784   0.613
66120W        W32661  14.158   4.977  14.198
66121W        W32662   6.758   7.930   2.018
66122W        W32663  42.951  29.744   2.422
66123W        W32664  24.330   4.150  11.204
66124W        W32665  36.614  23.058   0.933
66125W        W32666  10.596  22.374  13.993
66126W        W32667   6.426  28.931   3.898
66127W        W32668  36.667  33.421   1.247
66128W        W32669  18.075   7.659  12.877
66129W        W32670  32.798   9.429  13.021
66130W        W32671   4.301  43.454   4.361
66131W        W32672  24.995  12.562  14.953
66132W        W32673   2.408  25.760  13.039
66133W        W32674   2.332  23.808  11.697
66134W        W32675  42.886  29.909   4.070
66135W        W32676  42.824   6.720   3.850
66136W        W32677  15.877   9.312  12.022
66137W        W32678  41.926  27.459  12.449
66138W        W32679  25.942  29.895  12.422
66139W        W32680  11.617   3.696  14.344
66140W        W32681  26.531  41.972  14.734
66141W        W32682  20.505  36.577   2.828
66142W        W32683  26.070  39.547  13.451
66143W        W32684  17.789  32.458   1.791
66144W        W32685  10.114  13.385   3.231
66145W        W32686   0.740  44.012  10.769
66146W        W32687   1.041   0.722  12.921
66147W        W32688   7.719  31.869  11.556
66148W        W32689  33.475  36.362   1.704
66149W        W32690  34.053  38.302  13.019
66150W        W32691  10.413  30.975   0.283
66151W        W32692  29.913  24.260  12.055
66152W        W32693   2.220  25.234   3.889
66153W        W32694   5.606  36.664  11.070
66154W        W32695  30.057  17.518  11.102
66155W        W32696  43.250  34.941   0.418
66156W        W32697  17.614  29.508   2.739
66157W        W32698   7.169   3.695  14.667
66158W        W32699  23.097  32.030   1.005
66159W        W32700  10.631   5.796  12.642
66160W        W32701  34.432  28.213  13.943
66161W        W32702  24.800  21.586   0.337
66162W        W32703  27.710  23.338   0.942
66163W        W32704  22.312  18.403  11.909
66164W        W32705  37.917  12.086  13.467
66165W        W32706  36.769  37.001   1.147
66166W        W32707  20.550  41.865   0.681
66167W        W32708   8.778  18.709   0.738
66168W        W32709   2.913  39.410   0.301
66169W        W32710  10.217  11.698  14.488
66170W        W32711   3.228  35.157   1.981
66171W        W32712  41.927  26.635   5.235
66172W        W32713  25.072  33.521   2.579
66173W        W32714   5.405  27.052   3.215
66174W        W32715  26.509  35.563   0.690
66175W        W32716  32.511  37.566   0.405
66176W        W32717   1.502  44.695  14.295
66177W        W32718  35.535  26.031  10.770
66178W        W32719  22.644  36.852   2.306
66179W        W32720  39.307  31.013  13.504
66180W        W32721  36.108   1.948  14.043
66181W        W32722  34.628  28.966   0.821
66182W        W32723  15.450   3.917  14.500
66183W        W32724  31.839  41.247  11.622
66184W        W32725  37.742  41.945  13.554
66185W        W32726   9.417  21.035   0.321
66186W        W32727  10.682   5.692   0.206
66187W        W32728  27.496  41.267   0.442
66188W        W32729  36.858  35.576   4.653
66189W        W32730  27.591  40.464   4.381
66190W        W32731  14.757  40.995  14.488
66191W        W32732  36.768  23.210  11.166
66192W        W32733  10.111  16.717   3.620
66193W        W32734   6.409  40.457  12.044
66194W        W32735   5.719   0.719  12.078
66195W        W32736  19.773  23.078  12.099
66196W        W32737  43.541  35.411   2.328
66197W        W32738  13.101  21.063  14.636
66198W        W32739  22.801  15.360   2.881
66199W        W32740  44.750  22.502  14.987
66200W        W32741  16.237  21.637  11.992
66201W        W32742  33.018  21.586   4.854
66202W        W32743   8.338   3.829  10.576
66203W        W32744  33.435  17.607   1.776
66204W        W32745  15.737   0.815  13.879
66205W        W32746  43.981  37.124   4.482
66206W        W32747   4.549  44.885   3.592
66207W        W32748  39.932  32.003   1.236
66208W        W32749  18.592   8.380   0.341
66209W        W32750  42.346  27.825   0.502
66210W        W32751  33.080  14.787   2.244
66211W        W32752  24.157  37.826   1.639
66212W        W32753  19.221  22.940  11.144
66213W        W32754   2.341  23.746   1.701
66214W        W32755  17.116  29.221   1.902
66215W        W32756   5.461  15.984  12.980
66216W        W32757  12.377   0.240  12.218
66217W        W32758  10.431  40.492   2.266
66218W        W32759   2.675  21.590   4.128
66219W        W32760  32.112  37.316   1.283
66220W        W32761  15.876  12.589  12.021
66221W        W32762  40.372  36.720   4.684
66222W        W32763  29.675  43.061   0.769
66223W        W32764   9.728  38.755  11.543
66224W        W32765  16.131  11.596  14.334
66225W        W32766   6.045  26.718   2.798
66226W        W32767  37.097  27.175  13.911
66227W        W32768  34.860  44.584   1.280
66228W        W32769  21.314   1.764   3.245
66229W        W32770  36.360  23.142  10.428
66230W        W32771   9.603  28.109   0.397
66231W        W32772  10.951  42.853   1.415
66232W        W32773   3.485  44.648   4.127
66233W        W32774  33.093  12.101  12.865
66234W        W32775  14.988  14.960   0.181
66235W        W32776  34.907   6.103   0.774
66236W        W32777  44.248  27.473  11.107
66237W        W32778  26.897  41.293   4.762
66238W        W32779  38.584  12.662   1.448
66239W        W32780   0.416  37.087  11.598
66240W        W32781  43.313   4.773   2.803
66241W        W32782  16.118   7.365  10.668
66242W        W32783  43.351   7.858   3.146
66243W        W32784  26.616  20.982  10.999
66244W        W32785  25.145  37.374   2.162
66245W        W32786  44.869  32.152   1.851
66246W        W32787  43.395  30.656   4.067
66247W        W32788  44.554  42.794  14.713
66248W        W32789  16.190  28.641  14.554
66249W        W32790  29.465  17.185  14.710
66250W        W32791  44.907  44.493  10.582
66251W        W32792   2.190  21.436  11.723
66252W        W32793  21.902   5.219   2.771
66253W        W32794  11.925  37.323   3.663
66254W        W32795  33.619  43.180  11.928
66255W        W32796  18.203  17.563   1.173
66256W        W32797  15.566  26.057  14.482
66257W        W32798  16.785  40.122  12.931
66258W        W32799  10.007   0.810  11.139
66259W        W32800  16.582  15.537   4.274
66260W        W32801  10.151  12.680   4.669
66261W        W32802  34.951  17.244  10.500
66262W        W32803  23.112   1.547  12.535
66263W        W32804   9.002  38.100   1.248
66264W        W32805  37.815   0.357   2.698
66265W        W32806  33.624  20.122   3.880
66266W        W32807  24.678  24.922   0.923
66267W        W32808  24.045   8.237  14.474
66268W        W32809  19.734  13.774   1.362
66269W        W32810  30.413   8.933  13.466
66270W        W32811  34.460  40.077   0.839
66271W        W32812  20.181  21.636   4.274
66272W        W32813  39.423  14.139   2.753
66273W        W32814  27.472  31.589  14.578
66274W        W32815  33.106  24.607  11.608
66275W        W32816  40.390  37.260   4.652
66276W        W32817  39.672  11.715   1.723
66277W        W32818   8.900  41.546  11.171
66278W        W32819  31.820  15.651  14.943
66279W        W32820  26.965  15.437   0.946
66280W        W32821   6.272  29.004   3.385
66281W        W32822   4.425  20.348  10.458
66282W        W32823   4.452  23.542   0.184
66283W        W32824  20.779  28.111   2.415
66284W        W32825  27.482   0.992   2.321
66285W        W32826  38.427  30.886   1.656
66286W        W32827  19.656  12.645   3.291
66287W        W32828  10.146   3.687   1.823
66288W        W32829  17.115  23.164   0.801
66289W        W32830  15.751   7.508   3.143
66290W        W32831  34.486  38.452   2.577
66291W        W32832  19.406  25.000   3.513
66292W        W32833   0.731  28.514  11.534
66293W        W32834  37.740  38.782  14.322
66294W        W32835   7.990  39.347  14.316
66295W        W32836  23.033  23.736  14.317
66296W        W32837  23.584  30.435  10.681
66297W        W32838  14.310  14.686   1.424
66298W        W32839   3.006  28.723   1.430
66299W        W32840  23.717  22.213  11.780
66300W        W32841  32.689  14.634   4.727
66301W        W32842  16.138  17.752   3.914
66302W        W32843  36.117   4.366  12.108
66303W        W32844  39.672  19.560   4.205
66304W        W32845   1.275  11.248  11.939
66305W        W32846  32.717  19.644  10.760
66306W        W32847   9.895  27.952   0.808
66307W        W32848  32.693  40.432   3.194
66308W        W32849   7.769  20.838  13.349
66309W        W32850  26.623   8.400   2.201
66310W        W32851  26.075  40.863   4.896
66311W        W32852  26.921  35.206  12.181
66312W        W32853   0.431  19.111  12.023
66313W        W32854  31.414  15.282  12.488
66314W        W32855  16.564  25.061  13.917
66315W        W32856  10.347  43.063  12.351
66316W        W32857  41.551   1.220   3.660
66317W        W32858  25.590  42.956   2.180
66318W        W32859  11.957  39.355  13.395
66319W        W32860   1.420  22.041  14.530
66320W        W32861   0.241   0.749   1.842
66321W        W32862  35.065  41.029   4.659
66322W        W32863  40.744  31.528   0.083
66323W        W32864  41.579  19.581   3.601
66324W        W32865  13.070  40.440   0.909
66325W        W32866   1.410   0.970  12.600
66326W        W32867  18.516   2.580  14.637
66327W        W32868  26.605  26.346  12.245
66328W        W32869  33.954  10.413   1.963
66329W        W32870  23.586   3.887   0.824
66330W        W32871  32.910  43.427   4.364
66331W        W32872  19.232  36.561   1.543
66332W        W32873  43.465  25.096   1.657
66333W        W32874  20.059  33.959   2.736
66334W        W32875  26.637  19.792  13.017
66335W        W32876  35.150   4.126   5.150
66336W        W32877  10.361  19.027  11.496
66337W        W32878  24.564  41.149   0.022
66338W        W32879  24.227   0.535   4.055
66339W        W32880  30.405  18.579  12.214
66340W        W32881  17.002  43.816  14.384
66341W        W32882  13.685  11.809  14.511
66342W        W32883  41.094  17.409   3.730
66343W        W32884  42.612  40.728  11.446
66344W        W32885  11.777  39.488  13.870
66345W        W32886  36.229  20.368  14.443
66346W        W32887  32.599  27.225   0.360
66347W        W32888  21.509  38.497   1.166
66348W        W32889   6.413   1.126  13.991
66349W        W32890   2.949  37.558  13.092
66350W        W32891  37.701  19.158   1.573
66351W        W32892   4.380   3.556  13.612
66352W        W32893  14.401  26.267   0.900
66353W        W32894  43.030  19.117  14.217
66354W        W32895  14.673  33.340   0.036
66355W        W32896  31.545  23.747  10.735
66356W        W32897  42.941   8.262  14.222
66357W        W32898  16.308  29.530   1.841
66358W        W32899  13.908  27.130  12.048
66359W        W32900  32.570   4.162  13.936
66360W        W32901   6.091  17.809  13.904
66361W        W32902  28.113  43.335   2.292
66362W        W32903  36.656  26.782  11.101
66363W        W32904  14.268  40.558  13.296
66364W        W32905  30.331  22.142  14.252
66365W        W32906  42.940  12.680  11.361
66366W        W32907   7.751  36.844  13.992
66367W        W32908  12.192   6.746  12.853
66368W        W32909  33.109  10.427  12.047
66369W        W32910  22.228  43.020   4.285
66370W        W32911   6.752  38.128   4.588
66371W        W32912  14.610  25.395  14.877
66372W        W32913  30.719  10.653  13.827
66373W        W32914  19.566  38.047   3.053
66374W        W32915  23.072   1.828   0.289
66375W        W32916   9.764  25.091  13.005
66376W        W32917  14.108  19.573   2.171
66377W        W32918  24.752  39.579   2.364
66378W        W32919  34.493  18.051  12.495
66379W        W32920  11.691  12.442   2.663
66380W        W32921  27.328  31.146  11.035
66381W        W32922  36.449  20.760  14.172
66382W        W32923   1.868  18.603  10.993
66383W        W32924   4.832  30.392  11.923
66384W        W32925  38.698  39.036  14.500
66385W        W32926  41.834   6.497   1.058
66386W        W32927   7.301   3.816   1.869
66387W        W32928  24.527  18.141   1.822
66388W        W32929  11.642  17.050  12.758
66389W        W32930  35.521  21.352   0.849
66390W        W32931  13.670  40.400  14.232
66391W        W32932   6.757  29.102  14.065
66392W        W32933   6.901  31.898   2.384
66393W        W32934  39.400  35.234  13.770
66394W        W32935  27.394  21.013  11.477
66395W        W32936  15.681   2.915   1.685
66396W        W32937  11.690   7.947  12.367
66397W        W32938   5.950  18.607  12.232
66398W        W32939  27.241  42.420   2.727
66399W        W32940  22.493  20.011   4.284
66400W        W32941  33.577  31.263  13.994
66401W        W32942  27.478  40.279   3.440
66402W        W32943  43.270  29.156  12.947
66403W        W32944  32.100   9.885  13.193
66404W        W32945  20.121  24.829  14.271
66405W        W32946  42.093  27.930   4.685
66406W        W32947  16.616   4.705  14.809
66407W        W32948  17.783   8.783   0.808
66408W        W32949  29.400  21.050   1.288
66409W        W32950  23.199  40.277  10.675
66410W        W32951   7.710  11.834  13.814
66411W        W32952  13.836  11.657  13.615
66412W        W32953  40.234  40.505   3.188
66413W        W32954  26.942   3.034   3.819
66414W        W32955  44.851  21.761   2.327
66415W        W32956  21.155  15.440  11.122
66416W        W32957  13.274  21.128   5.227
66417W        W32958  13.151   8.246  14.760
66418W        W32959  19.215  11.687   3.738
66419W        W32960  13.608   8.301  13.316
66420W        W32961   0.288  13.689  14.732
66421W        W32962  28.575  44.263   2.156
66422W        W32963   6.298  38.180   4.069
66423W        W32964  12.258  15.306  11.028
66424W        W32965  42.796   0.288   1.273
66425W        W32966  24.223  30.055  10.626
66426W        W32967  33.967  37.898   3.725
66427W        W32968  41.817  32.812   0.993
66428W        W32969   2.699  20.757  14.030
66429W        W32970  34.532  24.155  11.202
66430W        W32971   9.642  34.944   2.693
66431W        W32972   5.861  44.524  13.064
66432W        W32973  37.936   6.601  11.038
66433W        W32974   5.297   6.155  10.610
66434W        W32975  44.437  10.305  10.412
66435W        W32976   2.999  18.017   3.696
66436W        W32977  23.196   6.115  12.036
66437W        W32978  29.966  26.677  12.435
66438W        W32979  39.069  19.053  12.071
66439W        W32980  25.917  34.897   2.760
66440W        W32981  41.920   7.179   3.682
66441W        W32982   8.372  10.312  11.625
66442W        W32983  36.314   6.734   4.523
66443W        W32984   3.986   4.219   3.853
66444W        W32985   3.667  27.789  12.319
66445W        W32986  35.735  30.356   2.013
66446W        W32987  40.435  16.675   4.496
66447W        W32988  33.137  10.294   1.299
66448W        W32989   8.799  41.805  10.720
66449W        W32990  41.803  14.262  12.098
66450W        W32991  34.442  34.964  10.582
66451W        W32992  28.759  16.855   3.203
66452W        W32993   3.913  16.751   0.877
66453W        W32994  34.629   5.777  12.162
66454W        W32995  41.998   2.543   2.713
66455W        W32996  24.275  32.819  11.735
66456W        W32997   8.171  25.584  12.138
66457W        W32998   6.687  10.263  10.907
66458W        W32999  43.890  14.343   2.742
66459W        W33000   3.363   0.694   5.571
66460W        W33001   3.765   1.805   4.005
66461W        W33002   1.781   3.841  11.205
66462W        W33003  14.109  41.900  13.144
66463W        W33004   0.285  40.475  14.039
66464W        W33005   2.711  10.253  11.620
66465W        W33006   4.897   8.520  10.707
66466W        W33007  23.347  40.346  14.830
66467W        W33008  11.069   5.749   3.368
66468W        W33009  41.419  20.482   4.991
66469W        W33010  26.921   1.774   2.710
66470W        W33011  17.126  43.097  12.465
66471W        W33012  30.128   3.901   4.375
66472W        W33013  27.610  23.540   2.878
66473W        W33014  26.664  35.580  11.956
66474W        W33015  38.044  17.496  10.665
66475W        W33016  34.770   8.145  13.834
66476W        W33017  29.945  32.466   0.812
66477W        W33018  34.907  18.468   3.756
66478W        W33019  30.715  37.466  11.267
66479W        W33020   6.836  42.792   0.401
66480W        W33021  41.666   3.512   2.674
66481W        W33022  18.171  19.665  10.731
66482W        W33023  30.062  42.801  12.583
66483W        W33024  17.824  25.996  13.531
66484W        W33025  39.954  36.345   4.517
66485W        W33026  12.613  39.322  10.653
66486W        W33027  38.167   2.017  10.197
66487W        W33028  30.116  40.524  13.406
66488W        W33029  15.294  43.121   0.744
66489W        W33030  20.240   2.361   2.912
66490W        W33031  38.543  11.106  10.717
66491W        W33032  43.457  36.207  14.809
66492W        W33033  20.332  21.620   1.507
66493W        W33034  24.431   6.254  14.623
66494W        W33035  44.048  34.473  14.335
66495W        W33036  24.018  20.673  14.438
66496W        W33037  26.805  28.028  13.142
66497W        W33038  33.573  38.668   1.233
66498W        W33039   5.436  42.054   0.028
66499W        W33040  41.452   1.761  10.738
66500W        W33041  18.214  20.023  10.352
66501W        W33042  37.507  25.543   5.045
66502W        W33043  24.617  35.821  10.473
66503W        W33044  39.739   8.859  10.707
66504W        W33045  34.323  25.099  11.591
66505W        W33046  43.848  20.360   1.977
66506W        W33047   8.076   1.928   2.859
66507W        W33048  14.306   1.298  13.466
66508W        W33049   5.421  38.382  10.169
66509W        W33050  22.409   8.924   3.798
66510W        W33051  24.259  40.104  13.380
66511W        W33052  30.116  38.998  12.449
66512W        W33053  26.454  22.132   2.769
66513W        W33054  11.211  34.061   4.852
66514W        W33055   7.904  35.075   1.742
66515W        W33056   4.827   9.732  12.537
66516W        W33057   7.752  32.356   3.088
66517W        W33058   6.879  37.608  14.163
66518W        W33059  20.269  29.661   3.710
66519W        W33060  14.893   0.726   0.528
66520W        W33061  41.936  21.632   2.609
66521W        W33062   4.731   1.741  13.940
66522W        W33063  43.793  19.795   1.056
66523W        W33064  20.228  36.143   1.292
66524W        W33065  28.553  19.272   3.334
66525W        W33066  14.145  37.891   3.100
66526W        W33067  25.411  26.743   1.879
66527W        W33068   5.807   6.834  12.111
66528W        W33069  19.752  14.649   3.072
66529W        W33070  23.973  12.246   3.757
66530W        W33071  31.017   1.934   2.488
66531W        W33072  25.850  32.519   1.313
66532W        W33073   9.929  20.883  13.118
66533W        W33074  11.482   2.866   4.724
66534W        W33075  15.559  21.922  12.712
66535W        W33076  17.547  38.390  13.827
66536W        W33077  20.731  25.460  12.940
66537W        W33078   2.089  41.183  13.129
66538W        W33079  25.773  41.349   2.806
66539W        W33080  24.698   8.516  12.535
66540W        W33081  33.440   3.604   2.811
66541W        W33082  28.723  43.025  14.982
66542W        W33083   3.963  40.906   1.146
66543W        W33084   0.701  20.818  13.096
66544W        W33085  24.760  24.422   0.964
66545W        W33086  21.236  41.433   2.508
66546W        W33087  28.730  14.769   3.993
66547W        W33088   4.366  19.350  10.784
66548W        W33089  43.756  30.212   4.768
66549W        W33090  22.214  19.842  12.953
66550W        W33091  23.990  10.073   1.209
66551W        W33092   8.712   1.987   2.229
66552W        W33093   5.103  22.526   4.752
66553W        W33094  42.276   7.643  13.836
66554W        W33095   1.668   4.700   4.125
66555W        W33096  32.090  24.638  12.966
66556W        W33097  10.992  24.007   4.524
66557W        W33098  41.267  36.312   1.777
66558W        W33099   8.382  25.086  13.336
66559W        W33100  22.662  33.917   0.193
66560W        W33101  15.564  17.799   2.180
66561W        W33102  34.111   3.186   3.745
66562W        W33103  35.295  15.227   2.987
66563W        W33104  14.614  38.258   0.821
66564W        W33105  21.274  24.998  13.961
66565W        W33106  35.978  26.697  12.404
66566W        W33107  19.197   0.012  14.432
66567W        W33108  16.174  41.045  12.467
66568W        W33109  16.644   3.138  10.409
66569W        W33110  24.632   5.010   4.048
66570W        W33111  40.078  38.888  12.617
66571W        W33112  35.449  32.900   2.323
66572W        W33113  36.755  37.530  12.872
66573W        W33114  12.292   3.280   0.814
66574W        W33115   3.541  22.105  11.983
66575W        W33116  22.522  43.826  13.303
66576W        W33117  10.458   7.233   3.789
66577W        W33118   3.768  39.065  12.916
66578W        W33119  36.615  26.673   2.575
66579W        W33120  12.227  38.797  11.744
66580W        W33121  10.658  20.333   1.357
66581W        W33122  22.956   4.586  11.202
66582W        W33123  18.111  15.440  14.446
66583W        W33124  31.456  26.916  12.852
66584W        W33125  39.453   2.962   1.220
66585W        W33126   2.569  35.469  10.953
66586W        W33127  10.174  24.087   1.239
66587W        W33128  19.672  34.068   3.668
66588W        W33129   7.878   4.356   3.938
66589W        W33130  27.685  26.802   3.696
66590W        W33131   0.425  39.980  13.408
66591W        W33132  21.181  37.616  11.588
66592W        W33133  15.848  38.869   4.105
66593W        W33134  30.474   4.617  12.902
66594W        W33135  33.072  13.526  11.055
66595W        W33136  22.182   2.195   4.802
66596W        W33137  24.529  30.416   4.131
66597W        W33138  24.006  31.690  11.018
66598W        W33139  44.426  14.009   0.661
66599W        W33140  36.796  17.181   3.753
66600W        W33141  22.198  27.147   1.449
66601W        W33142  27.060  35.901  12.898
66602W        W33143  34.060  28.212  13.163
66603W        W33144  11.290  13.183   0.481
66604W        W33145  21.083  35.164   4.461
66605W        W33146   8.426   3.253  12.969
66606W        W33147   1.360  11.192   0.795
66607W        W33148   2.050  25.025   1.258
66608W        W33149  27.975  18.535  14.816
66609W        W33150  12.576  34.045   4.946
66610W        W33151  40.429  21.429   1.398
66611W        W33152  13.816  10.788   4.096
66612W        W33153  31.619  20.070  11.216
66613W        W33154  16.161   4.250  12.887
66614W        W33155  28.943   7.021  10.567
66615W        W33156  34.312   3.371  14.950
66616W        W33157  26.796   3.811  12.079
66617W        W33158  13.233  33.106   3.191
66618W        W33159   1.294   0.065  14.881
66619W        W33160  27.090   5.971   1.865
66620W        W33161  12.205   6.988   4.207
66621W        W33162  21.456   1.809   0.363
66622W        W33163  29.616  29.325  13.895
66623W        W33164  43.123  29.629   1.935
66624W        W33165   2.719  12.841   2.731
66625W        W33166  28.295  39.001   1.399
66626W        W33167  20.527   0.888  14.521
66627W        W33168   6.464  26.931   1.714
66628W        W33169  40.114  20.801  11.189
66629W        W33170   1.433  28.312   2.639
66630W        W33171  13.413  29.037  12.837
66631W        W33172  42.558   1.283  12.354
66632W        W33173  25.281  13.169   5.342
66633W        W33174  39.412  16.256   2.623
66634W        W33175   5.256  21.153  14.415
66635W        W33176  15.223  40.586  12.306
66636W        W33177   4.442  12.467   0.403
66637W        W33178   9.186  32.087  13.807
66638W        W33179  13.789   4.607  10.745
66639W        W33180  18.007   0.388  11.734
66640W        W33181  27.934  36.551  11.942
66641W        W33182   4.207  14.301   3.902
66642W        W33183  10.279  43.763   2.793
66643W        W33184  18.842  34.841   3.711
66644W        W33185  37.960   8.889   1.666
66645W        W33186  25.425   7.471  12.971
66646W        W33187   1.718  32.968   3.274
66647W        W33188  10.283  44.817  11.042
66648W        W33189  34.906  40.002   4.785
66649W        W33190  11.058   4.792  10.973
66650W        W33191   6.957  23.947   4.101
66651W        W33192  18.521  32.169  12.548
66652W        W33193  39.828   9.801   2.628
66653W        W33194   6.917  41.479   3.404
66654W        W33195  18.658  24.251  13.317
66655W        W33196   5.280  25.739  12.111
66656W        W33197  35.303  43.076   4.077
66657W        W33198   4.252   3.082  14.957
66658W        W33199  33.044  41.779   4.652
66659W        W33200   8.675  19.234   2.883
66660W        W33201   8.438  18.172   3.649
66661W        W33202  17.188  17.570  11.395
66662W        W33203  11.190  10.298  14.775
66663W        W33204  41.441  42.023   2.453
66664W        W33205  19.226  21.756  11.938
66665W        W33206  19.475   9.105   1.871
66666W        W33207  42.996  25.693  13.689
66667W        W33208  15.991  19.621   4.151
66668W        W33209  16.634  20.992   0.206
66669W        W33210  42.796  39.977   3.267
66670W        W33211  29.055   2.366  13.038
66671W        W33212  21.569  37.014   0.269
66672W        W33213  22.255  21.720  13.240
66673W        W33214  34.987   9.375  12.956
66674W        W33215  28.913   2.493   2.696
66675W        W33216  14.690  43.978  13.442
66676W        W33217  17.834  14.208   2.252
66677W        W33218  32.603  33.864  13.921
66678W        W33219  38.468  16.098   0.024
66679W        W33220  27.018  43.004   0.395
66680W        W33221  14.650  16.327  12.133
66681W        W33222  40.983  32.471   2.012
66682W        W33223  42.798  42.503   3.271
66683W        W33224   1.692   0.633   0.936
66684W        W33225  17.154   3.244   3.466
66685W        W33226  30.447   1.456  14.505
66686W        W33227   3.305  20.941   4.747
66687W        W33228  25.125   3.484   4.801
66688W        W33229  32.495  10.190   3.620
66689W        W33230  34.029   4.312   1.882
66690W        W33231  27.577   7.132  10.863
66691W        W33232  37.961   4.129   4.266
66692W        W33233   4.323   2.514   3.774
66693W        W33234  23.498  35.278   4.181
66694W        W33235  24.931   2.787   0.398
66695W        W33236  14.013  38.527   1.783
66696W        W33237  10.846  16.534   2.086
66697W        W33238  34.060   0.967   0.477
66698W        W33239  24.163  35.391   2.225
66699W        W33240   3.227  11.767   1.795
66700W        W33241   0.615  14.281  13.050
66701W        W33242   2.395  14.322   5.049
66702W        W33243  39.977  39.885  13.761
66703W        W33244  43.417  33.746   3.577
66704W        W33245  36.510  36.433  13.527
66705W        W33246   1.904  20.913  10.692
66706W        W33247  25.629  13.160   1.311
66707W        W33248  40.033   0.818   1.923
66708W        W33249  35.115  15.559   0.747
66709W        W33250  42.073   4.985  13.084
66710W        W33251   4.570  21.236  13.940
66711W        W33252  27.555  19.530  11.692
66712W        W33253  23.053  23.685   0.771
66713W        W33254   3.221  27.743  13.565
66714W        W33255  36.985  36.667  13.431
66715W        W33256  39.254  43.974   3.758
66716W        W33257   8.531   1.755   1.773
66717W        W33258   3.500   8.367   1.265
66718W        W33259  24.109   0.073   1.618
66719W        W33260  24.414  30.042   0.791
66720W        W33261  10.835   6.651  13.567
66721W        W33262   3.848  17.862  11.638
66722W        W33263  27.772  35.563  12.020
66723W        W33264  11.836  12.964   2.751
66724W        W33265  27.707  44.205   2.465
66725W        W33266  16.314  21.323  10.758
66726W        W33267   9.904  28.491  10.787
66727W        W33268   7.220   8.182   4.075
66728W        W33269   7.978  16.963   4.110
66729W        W33270  17.981  37.765   0.760
66730W        W33271   6.567  11.823  14.385
66731W        W33272  29.958  35.100   3.447
66732W        W33273   0.220  18.070  10.877
66733W        W33274  35.219  33.250   2.638
66734W        W33275   3.758  20.985   0.094
66735W        W33276   3.411  29.603  12.044
66736W        W33277  18.574   5.587  13.688
66737W        W33278  29.740  15.636  14.445
66738W        W33279  31.209   7.729  13.425
66739W        W33280   9.670  27.955  12.709
66740W        W33281  14.683  13.232   0.729
66741W        W33282  38.173  33.120  13.455
66742W        W33283  43.598  43.743   4.169
66743W        W33284  34.651  19.802   0.856
66744W        W33285   9.400  28.959   1.090
66745W        W33286  12.190   2.219   0.861
66746W        W33287  31.064   2.917   4.288
66747W        W33288   6.950  35.810  12.757
66748W        W33289  40.203  44.755   4.245
66749W        W33290  26.015   3.590   5.008
66750W        W33291  31.143  15.783   3.765
66751W        W33292  29.229  19.518  10.271
66752W        W33293  15.147  12.136  13.632
66753W        W33294   9.872  26.853   3.752
66754W        W33295  43.997   3.453   3.601
66755W        W33296  36.032   1.237   2.480
66756W        W33297  21.188  10.609  12.201
66757W        W33298  38.517  15.193  14.928
66758W        W33299  12.964  40.295   2.257
66759W        W33300   0.082  34.355  14.410
66760W        W33301   5.306  18.374   4.466
66761W        W33302  32.599  17.334  14.404
66762W        W33303  38.970   9.373  12.590
66763W        W33304  22.680  40.048  11.541
66764W        W33305  36.069  26.965   2.633
66765W        W33306  17.655  18.720   4.553
66766W        W33307  19.971  31.924  10.896
66767W        W33308  17.660  29.347   1.842
66768W        W33309  10.195  41.007   1.397
66769W        W33310   9.700  19.692  14.299
66770W        W33311  40.353  18.355   4.088
66771W        W33312   9.950   8.704   2.171
66772W        W33313  15.838  13.322  13.342
66773W        W33314   0.634  19.676  12.499
66774W        W33315   8.559  27.161   0.330
66775W        W33316  11.363   8.755   0.899
66776W        W33317  25.552  44.025  12.710
66777W        W33318  15.103  29.407  11.102
66778W        W33319  15.675   3.443  14.442
66779W        W33320  18.876   4.960   1.836
66780W        W33321  14.270  26.090  12.425
66781W        W33322   2.298  39.317  13.430
66782W        W33323  31.441  13.239  12.112
66783W        W33324   2.770  34.547   3.177
66784W        W33325  43.784  13.081   2.578
66785W        W33326  29.001  18.390   1.396
66786W        W33327   6.617  22.165  12.552
66787W        W33328  25.942  30.826  10.604
66788W        W33329   6.838  36.367   1.486
66789W        W33330  32.779   1.155  11.899
66790W        W33331  22.344  30.466   2.467
66791W        W33332  43.294  16.633  13.432
66792W        W33333  39.470  44.702   3.003
66793W        W33334   3.545  37.062   4.936
66794W        W33335  39.903  16.324  10.621
66795W        W33336  42.130  41.181  11.540
66796W        W33337  21.659  20.609   4.248
66797W        W33338  28.885  35.061  13.871
66798W        W33339  14.629  33.864  14.979
66799W        W33340  32.038   8.699   3.432
66800W        W33341  29.578   4.797   3.651
66801W        W33342  31.368  30.871  14.950
66802W        W33343  24.406   1.104  14.688
66803W        W33344  31.349  19.959   2.778
66804W        W33345  17.204  23.630  13.422
66805W        W33346  26.589  23.742   3.708
66806W        W33347   0.895  22.045   0.042
66807W        W33348  37.363  34.826   5.047
66808W        W33349  26.195   7.883   0.884
66809W        W33350   9.215  16.198  13.409
66810W        W33351  30.964  37.632   0.476
66811W        W33352  17.389  12.111   1.481
66812W        W33353  38.059  34.533  11.654
66813W        W33354  33.012  26.229   2.434
66814W        W33355   5.523  27.428  14.888
66815W        W33356  39.569  29.681   3.370
66816W        W33357  30.113  14.688  13.921
66817W        W33358  18.074   2.823   0.276
66818W        W33359  33.208  25.954   2.846
66819W        W33360  36.914   1.299  12.089
66820W        W33361  43.792   5.468  12.472
66821W        W33362   5.148  20.582   1.675
66822W        W33363   2.582  38.457  13.375
66823W        W33364  10.772  22.030  14.837
66824W        W33365  11.382  28.844   3.112
66825W        W33366  17.559   0.353   3.824
66826W        W33367  34.358  30.041  11.236
66827W        W33368  41.147   6.362   2.133
66828W        W33369   7.148   1.753   1.145
66829W        W33370  40.757  15.362  12.938
66830W        W33371   4.806  15.123   2.469
66831W        W33372  41.473  28.066   0.557
66832W        W33373  12.525  32.008   3.198
66833W        W33374  31.303  14.750   1.879
66834W        W33375  43.175   2.450  11.694
66835W        W33376  40.353  23.920   1.319
66836W        W33377  28.886  23.008   2.224
66837W        W33378  23.789  13.851   0.684
66838W        W33379  17.857  39.868  14.261
66839W        W33380  33.846  40.248  11.935
66840W        W33381  41.023  12.721  12.113
66841W        W33382  40.108   9.591  11.120
66842W        W33383  38.463  12.208   1.194
66843W        W33384   5.416  17.208   0.193
66844W        W33385  13.221  24.079   0.791
66845W        W33386  40.500  18.459  14.674
66846W        W33387  24.467   8.900  12.994
66847W        W33388   6.607   7.281  11.181
66848W        W33389  16.608  10.699  12.598
66849W        W33390  27.651  38.198   4.166
66850W        W33391  28.029  10.666  11.569
66851W        W33392  22.054  10.853  14.556
66852W        W33393   5.203  11.776  10.725
66853W        W33394  26.703  29.093  10.633
66854W        W33395   6.946  18.113  11.298
66855W        W33396  22.681  14.693   2.285
66856W        W33397  25.677   4.701   4.514
66857W        W33398  21.782  34.103  10.516
66858W        W33399  30.043  25.515   0.475
66859W        W33400   7.599  34.198   0.259
66860W        W33401  28.143   6.959  11.186
66861W        W33402  44.356  14.849  13.387
66862W        W33403  41.485  15.597   0.407
66863W        W33404  33.695   5.388   1.246
66864W        W33405  31.019  10.795   2.653
66865W        W33406  30.126  24.275  14.932
66866W        W33407   4.820  44.217   2.165
66867W        W33408   5.271   1.154   2.824
66868W        W33409  44.354  29.318  10.787
66869W        W33410  16.760   9.407   1.024
66870W        W33411  10.076  21.375   1.926
66871W        W33412  17.446  31.905   2.771
66872W        W33413  43.998   1.471   2.658
66873W        W33414  31.991  18.034  12.461
66874W        W33415  44.944  40.011  12.436
66875W        W33416  22.624   2.195   4.564
66876W        W33417  29.042  35.665  11.205
66877W        W33418  30.508  27.070   0.357
66878W        W33419  32.474   3.377   3.683
66879W        W33420  39.855   6.715   2.107
66880W        W33421  16.352  13.826  14.012
66881W        W33422   5.672  13.000   4.065
66882W        W33423   3.664  18.308   0.733
66883W        W33424  28.049  44.448   1.061
66884W        W33425  17.747   1.031  14.448
66885W        W33426  27.666  21.990   3.865
66886W        W33427  18.462   9.662  12.099
66887W        W33428  32.016  42.591  13.058
66888W        W33429  23.703  37.157   2.659
66889W        W33430   8.167   9.236  14.874
66890W        W33431  11.444  16.379  14.977
66891W        W33432  15.809  35.287  12.457
66892W        W33433  28.911  26.852   0.261
66893W        W33434  29.323  32.806  12.082
66894W        W33435  37.815  35.038   3.817
66895W        W33436  24.211   0.216   0.438
66896W        W33437  30.476  20.106  12.046
66897W        W33438  22.991  38.808   3.630
66898W        W33439  20.365  41.388  11.578
66899W        W33440  23.461  20.140   1.429
66900W        W33441  12.285  36.174  12.988
66901W        W33442   5.699  42.489   0.030
66902W        W33443  20.957  23.653  13.808
66903W        W33444  30.722   7.267   1.769
66904W        W33445  15.372  37.671  10.251
66905W        W33446  41.823  15.925   1.607
66906W        W33447  36.578  23.387   1.763
66907W        W33448  11.064  17.535  12.302
66908W        W33449  15.992  22.474  13.045
66909W        W33450  32.879  24.981  10.870
66910W        W33451  43.066  14.075  14.928
66911W        W33452  22.009  22.822  14.390
66912W        W33453  26.140  22.573   1.875
66913W        W33454  41.898  38.497  14.151
66914W        W33455  30.683  12.930   2.289
66915W        W33456  43.826  28.689   2.393
66916W        W33457  15.658  20.258   3.760
66917W        W33458  22.724  27.927   2.394
66918W        W33459  36.696  32.601  13.959
66919W        W33460   5.687  18.761  14.330
66920W        W33461  19.931   5.865  13.387
66921W        W33462  26.968   1.002  13.836
66922W        W33463  38.623  35.404  14.737
66923W        W33464  37.534  41.008  12.864
66924W        W33465   9.168  23.464  14.024
66925W        W33466  20.048  26.283  12.897
66926W        W33467   8.916  39.468   1.142
66927W        W33468  31.421  44.813  12.349
66928W        W33469  25.495   1.498   1.724
66929W        W33470  25.218  36.400   2.433
66930W        W33471   7.701  41.872   4.486
66931W        W33472  26.330  21.766   2.438
66932W        W33473  40.016  14.976   1.488
66933W        W33474   2.736  15.110  13.836
66934W        W33475   2.829  40.828   4.670
66935W        W33476  36.827  26.660  14.867
66936W        W33477  35.300  36.109  10.470
66937W        W33478  24.117  39.399  10.803
66938W        W33479  14.210  17.804  10.474
66939W        W33480   6.265   2.220  12.857
66940W        W33481  41.593  40.556  10.198
66941W        W33482   5.785  35.440  12.877
66942W        W33483  21.035   5.010  10.068
66943W        W33484   5.225  35.567  14.246
66944W        W33485   0.502  39.759  11.668
66945W        W33486  28.023   9.913  14.770
66946W        W33487   3.431  28.556  12.978
66947W        W33488  43.377  38.903  13.030
66948W        W33489  36.897  19.742  13.818
66949W        W33490  27.116  17.259   1.714
66950W        W33491   1.755  44.474  13.834
66951W        W33492  20.559   1.997   2.185
66952W        W33493   0.724  12.760   4.579
66953W        W33494   8.742  22.582  14.801
66954W        W33495  33.639  35.375  14.529
66955W        W33496  31.026  31.624  10.781
66956W        W33497  30.936  39.503  12.892
66957W        W33498  16.106  42.304   0.728
66958W        W33499   1.954  21.222  12.115
66959W        W33500   5.484   9.765   3.752
66960W        W33501  12.829  24.178  11.242
66961W        W33502  36.778  40.285   3.417
66962W        W33503  15.241  10.760  11.188
66963W        W33504  32.904  16.214   3.627
66964W        W33505   0.813   4.141  12.900
66965W        W33506  43.073  23.143  10.739
66966W        W33507  19.757   2.970   3.734
66967W        W33508  33.121  15.087  11.469
66968W        W33509  13.016  44.563   1.975
66969W        W33510  17.591  30.547  14.852
66970W        W33511  38.121  31.643  10.713
66971W        W33512  32.923  23.171  12.890
66972W        W33513  26.118  23.871   3.581
66973W        W33514  43.436  23.952  10.565
66974W        W33515  21.002   5.289   1.201
66975W        W33516  30.357  19.120   0.428
66976W        W33517   3.074  25.881   1.419
66977W        W33518  10.370  38.129   4.459
66978W        W33519  12.936  17.716  12.080
66979W        W33520  15.141   0.265   1.458
66980W        W33521   2.674  13.629  11.736
66981W        W33522  28.455  12.133  13.544
66982W        W33523  13.638  42.729   0.811
66983W        W33524   6.262  39.393   3.288
66984W        W33525  31.658  44.259   0.358
66985W        W33526   0.455  25.250   1.990
66986W        W33527  35.650  29.382   0.395
66987W        W33528   9.916  33.557   1.747
66988W        W33529  16.763   2.205   4.505
66989W        W33530  31.672  31.488   2.042
66990W        W33531  39.960  23.909  12.932
66991W        W33532  10.965  14.778   3.791
66992W        W33533  19.230  11.978   3.316
66993W        W33534  28.962   2.752   2.244
66994W        W33535   7.955  41.064  12.597
66995W        W33536  35.012   8.142  10.928
66996W        W33537  25.224  18.073  12.436
66997W        W33538  29.542  37.305   5.046
66998W        W33539   1.857  10.287   2.586
66999W        W33540   3.619   9.731   0.831
67000W        W33541  35.918   2.320  11.702
67001W        W33542  25.646   4.379   3.528
67002W        W33543  12.645  16.978   4.665
67003W        W33544  40.445  39.745   0.970
67004W        W33545  32.750  35.913   1.698
67005W        W33546  35.475  12.646   3.487
67006W        W33547  23.233  12.551   0.401
67007W        W33548  32.636  29.700  13.791
67008W        W33549  17.451  21.720  11.442
67009W        W33550   8.339  43.953  11.921
67010W        W33551   6.486  40.277  10.351
67011W        W33552  25.126  14.044  11.739
67012W        W33553   4.521  38.020   0.707
67013W        W33554  25.802  11.139  14.213
67014W        W33555  15.142  14.876  12.987
67015W        W33556   3.286   8.848  10.566
67016W        W33557  39.763  44.005   4.097
67017W        W33558  17.714  41.465  13.754
67018W        W33559  35.815  17.284   3.381
67019W        W33560   6.607  36.632  13.908
67020W        W33561  21.897  26.942   1.055
67021W        W33562  37.838   8.558  10.253
67022W        W33563  27.248  16.780  12.100
67023W        W33564  43.780  22.073  14.960
67024W        W33565   8.303   7.305   2.727
67025W        W33566  26.927  41.787   0.013
67026W        W33567  34.040  26.055   3.311
67027W        W33568  34.011  31.192  10.436
67028W        W33569  32.192  37.068  11.953
67029W        W33570  15.375  19.002  12.417
67030W        W33571  13.604  13.345  13.040
67031W        W33572  19.686  19.259  14.351
67032W        W33573  27.302  21.397  14.929
67033W        W33574  27.757  38.946  11.881
67034W        W33575  17.899  14.213  14.863
67035W        W33576  11.432  27.589  14.379
67036W        W33577   1.328  13.815   1.959
67037W        W33578  44.284  37.876   1.262
67038W        W33579  24.898  32.150   1.257
67039W        W33580  42.929  42.526  14.720
67040W        W33581  42.088  32.061   3.929
67041W        W33582  37.017  43.451  13.346
67042W        W33583  42.298  28.122  11.609
67043W        W33584  41.954  29.966  13.501
67044W        W33585  31.020  19.730   2.474
67045W        W33586  19.452  14.289  13.259
67046W        W33587  42.108   8.498  14.382
67047W        W33588  36.038  17.687  12.880
67048W        W33589  22.466   8.143   3.378
67049W        W33590  15.137  19.668  11.971
67050W        W33591  23.657  22.928   2.431
67051W        W33592  36.372  33.547  14.837
67052W        W33593  31.762   0.279   0.451
67053W        W33594  25.793   4.728   0.967
67054W        W33595   9.435  38.413   0.401
67055W        W33596  15.209  20.731   3.025
67056W        W33597  36.283  36.491  14.486
67057W        W33598  33.165  26.704  12.671
67058W        W33599  29.109  26.510  11.751
67059W        W33600   5.244  16.906  11.953
67060W        W33601  17.051  27.612  11.279
67061W        W33602   9.312  28.140  12.367
67062W        W33603  34.332  14.723  11.641
67063W        W33604  31.169  43.795   3.779
67064W        W33605  12.196  21.785  13.132
67065W        W33606  16.617  25.073  11.087
67066W        W33607  27.998  11.294   0.226
67067W        W33608   5.446   9.537   0.808
67068W        W33609  25.696  24.024   0.913
67069W        W33610  16.197  24.556  13.337
67070W        W33611   2.286  10.418   4.658
67071W        W33612  19.333  21.581   3.217
67072W        W33613   5.355  36.928   1.414
67073W        W33614  40.097   6.649   0.686
67074W        W33615  21.176  12.873   1.790
67075W        W33616  23.542   9.459  12.970
67076W        W33617  22.287   1.780  12.975
67077W        W33618  23.472  26.572  12.291
67078W        W33619  16.097   6.740   3.665
67079W        W33620  16.475  35.698  11.543
67080W        W33621  12.219  42.373   2.682
67081W        W33622  23.005  20.982  13.971
67082W        W33623  26.205   0.555  11.611
67083W        W33624  21.228  35.967   2.683
67084W        W33625  43.469   9.784  11.939
67085W        W33626  13.677  24.492  13.419
67086W        W33627  18.525  14.378   2.823
67087W        W33628   6.135  32.959   0.300
67088W        W33629  12.926   8.725   1.715
67089W        W33630  33.688  35.364  13.426
67090W        W33631  19.487   4.697   2.342
67091W        W33632  23.029   3.721   2.010
67092W        W33633  41.011  39.860   3.091
67093W        W33634  38.663  25.769  11.837
67094W        W33635  40.437  35.649  12.013
67095W        W33636  40.964  42.579   4.051
67096W        W33637  34.153  15.100  12.710
67097W        W33638  21.699  33.128   3.311
67098W        W33639  23.016   6.477   3.661
67099W        W33640  38.068  12.603  12.440
67100W        W33641   8.882  41.879   0.392
67101W        W33642  33.116  11.847  11.497
67102W        W33643  32.574  26.721  12.078
67103W        W33644  18.823  41.346  14.891
67104W        W33645  35.615  18.859   3.170
67105W        W33646  32.821  14.198  13.790
67106W        W33647  34.953  41.307   1.852
67107W        W33648  40.047  36.998  11.009
67108W        W33649   0.836  28.830  12.526
67109W        W33650  25.734  13.720  12.370
67110W        W33651  37.366  39.087   0.909
67111W        W33652  31.617  20.575  14.760
67112W        W33653  39.223  17.453  14.647
67113W        W33654   9.901  22.699  10.629
67114W        W33655  33.280  28.911  13.832
67115W        W33656   6.799  18.012  10.795
67116W        W33657  10.976  33.916  11.583
67117W        W33658  18.040  30.396  13.565
67118W        W33659  12.889  11.568   2.865
67119W        W33660  16.627  19.772   1.743
67120W        W33661  42.296  18.459   4.094
67121W        W33662  41.067  23.025  10.508
67122W        W33663  13.463  22.860  11.104
67123W        W33664   4.724  22.022   1.758
67124W        W33665  17.502   5.419   0.738
67125W        W33666   1.727  21.421  11.500
67126W        W33667   0.356   6.298  11.205
67127W        W33668  43.986   6.630   4.380
67128W        W33669  39.883  33.666  10.503
67129W        W33670  11.781  21.165   1.657
67130W        W33671  20.545  18.481   2.255
67131W        W33672  18.184   1.533   3.262
67132W        W33673  31.207  43.041  14.480
67133W        W33674   2.558  30.097   3.177
67134W        W33675   2.717   5.079  11.873
67135W        W33676  10.787  18.032   3.300
67136W        W33677  22.108  20.714   4.485
67137W        W33678  37.083   1.854   1.779
67138W        W33679  21.871  15.223  12.299
67139W        W33680  44.235  22.900   2.397
67140W        W33681  11.909  41.532  13.852
67141W        W33682  30.857   8.672  13.448
67142W        W33683  14.525  11.225   0.347
67143W        W33684  32.579   2.430  13.038
67144W        W33685  24.263   5.920  12.045
67145W        W33686  23.181  30.802   0.410
67146W        W33687  33.666  25.816   2.469
67147W        W33688  22.471   2.400  11.186
67148W        W33689  33.561   8.680   2.263
67149W        W33690  23.186  10.322   1.975
67150W        W33691  25.550  26.480  12.648
67151W        W33692  25.330  26.062  12.911
67152W        W33693  11.626  18.128  11.149
67153W        W33694  14.406  42.863  12.124
67154W        W33695  25.706  38.581   4.333
67155W        W33696  20.820  40.017   4.632
67156W        W33697  21.817   6.367   1.768
67157W        W33698   1.791  21.948  11.524
67158W        W33699  35.112  29.106  11.800
67159W        W33700  42.033   5.465   2.847
67160W        W33701  20.590  37.190  12.671
67161W        W33702  34.930  17.772  10.483
67162W        W33703  37.577  43.958   1.173
67163W        W33704  10.375   5.866  13.084
67164W        W33705  34.509  23.208   4.695
67165W        W33706  27.159  39.961  11.064
67166W        W33707  37.966  24.890  11.196
67167W        W33708  44.910   6.194  12.535
67168W        W33709  19.015  16.833   3.728
67169W        W33710  30.708   5.575   0.522
67170W        W33711  14.740  32.680  12.965
67171W        W33712  14.893  34.032  13.445
67172W        W33713  13.072  10.336   1.862
67173W        W33714  36.966  14.564   1.798
67174W        W33715  23.560  24.490   3.657
67175W        W33716   5.389  34.630   2.249
67176W        W33717  27.905   7.958  14.375
67177W        W33718   6.807   8.340   0.808
67178W        W33719   0.269  35.422  12.797
67179W        W33720  16.661  43.358   3.317
67180W        W33721  13.324  42.850   3.824
67181W        W33722   7.958  35.637  12.476
67182W        W33723  43.982  24.013   4.271
67183W        W33724   8.682  13.851  14.874
67184W        W33725  37.919  14.543  13.500
67185W        W33726  38.503  13.345   0.290
67186W        W33727   4.390  36.298  13.836
67187W        W33728  31.219   2.781   4.808
67188W        W33729  12.587  15.662   2.166
67189W        W33730  19.175  32.740  12.943
67190W        W33731  41.134   5.876   0.979
67191W        W33732   7.395  15.500   2.319
67192W        W33733  25.197   6.894  13.898
67193W        W33734  20.785  35.514   0.912
67194W        W33735  32.029  35.966  14.035
67195W        W33736   4.755  17.232  10.727
67196W        W33737  19.902  33.153  12.602
67197W        W33738   6.830  39.596   2.334
67198W        W33739  30.812  41.401  13.899
67199W        W33740  16.402  26.652  11.934
67200W        W33741  37.092  39.382   3.424
67201W        W33742  15.486  34.221   4.064
67202W        W33743  22.015   2.964  13.829
67203W        W33744  19.081  25.665  12.332
67204W        W33745  15.012  14.187  11.575
67205W        W33746  12.111  39.584   3.669
67206W        W33747  15.300   8.746   3.355
67207W        W33748  35.432  19.367  14.734
67208W        W33749  32.887  10.415   4.532
67209W        W33750  14.559  12.807   0.001
67210W        W33751  16.461  31.989  14.875
67211W        W33752  29.545  35.882  12.223
67212W        W33753  19.129  14.055  12.417
67213W        W33754  13.709  41.331  13.885
67214W        W33755  34.366  17.803   2.758
67215W        W33756   1.549   4.779  10.554
67216W        W33757  33.097   8.675   4.145
67217W        W33758  38.672  12.910   1.925
67218W        W33759  23.205  23.489   1.741
67219W        W33760   2.869   1.855  14.368
67220W        W33761  11.362  44.343  13.483
67221W        W33762  22.012  11.172   4.798
67222W        W33763  13.633  16.304   1.888
67223W        W33764  20.080   3.789   0.220
67224W        W33765  27.599  40.974  14.739
67225W        W33766  17.734  31.189   1.163
67226W        W33767   5.938  10.729  12.027
67227W        W33768  16.068  39.134   4.543
67228W        W33769  30.464  17.282   4.158
67229W        W33770  36.448  21.646  14.721
67230W        W33771  31.005   5.840   1.366
67231W        W33772  14.393  11.680   0.107
67232W        W33773  39.303  20.490  14.885
67233W        W33774  33.933  39.131   3.338
67234W        W33775   2.013   9.709  11.592
67235W        W33776   8.850  25.571  13.873
67236W        W33777  19.747  35.770   2.200
67237W        W33778  35.380  15.237   2.455
67238W        W33779  13.635   4.279  14.006
67239W        W33780  39.795  13.847  11.529
67240W        W33781  29.491  26.935  12.567
67241W        W33782   2.934  21.313   4.989
67242W        W33783   1.818  38.143   2.824
67243W        W33784   3.791  36.891  14.671
67244W        W33785   0.092  22.231  10.687
67245W        W33786   3.799   6.530   1.297
67246W        W33787  16.057   7.960   4.011
67247W        W33788  27.875  38.460   0.210
67248W        W33789  30.672  41.215   0.945
67249W        W33790  30.876  13.628   3.251
67250W        W33791  27.549  38.602   2.212
67251W        W33792   9.686  36.957  11.184
67252W        W33793  38.462  20.263  13.032
67253W        W33794  31.066  36.616   1.417
67254W        W33795  16.327  24.572  14.575
67255W        W33796   7.219  29.404  11.175
67256W        W33797  27.149  42.268   0.883
67257W        W33798  13.681  13.758   1.555
67258W        W33799  20.393  18.845  12.560
67259W        W33800  18.779  28.171   4.477
67260W        W33801  38.815  15.248  13.046
67261W        W33802  24.693   3.310   0.459
67262W        W33803  21.172  15.765   4.511
67263W        W33804  21.949   3.433   4.603
67264W        W33805  36.037  21.540  10.518
67265W        W33806  19.022  15.563  14.546
67266W        W33807  36.212  13.717   2.439
67267W        W33808  41.538  28.257   1.566
67268W        W33809  29.593  12.787  13.758
67269W        W33810  38.486  30.480  13.752
67270W        W33811  14.291   4.873  12.854
67271W        W33812  39.780   8.655  12.480
67272W        W33813  26.658  35.334  12.599
67273W        W33814  43.419  34.376   2.164
67274W        W33815  11.357  18.236  13.370
67275W        W33816   0.862  24.532   1.810
67276W        W33817  43.444  17.640  13.467
67277W        W33818  24.317  36.995   1.192
67278W        W33819  20.697  11.689  14.311
67279W        W33820  14.537   9.425   1.690
67280W        W33821  12.151  12.895  12.048
67281W        W33822  19.783  24.988  12.519
67282W        W33823  38.325   9.856   4.263
67283W        W33824  18.347  27.635   4.491
67284W        W33825  23.725  27.971   9.563
67285W        W33826  40.133   3.766   0.817
67286W        W33827  29.568  35.079  14.662
67287W        W33828  34.408   6.637  11.980
67288W        W33829  14.126  44.326  13.447
67289W        W33830  17.252  21.418  14.370
67290W        W33831  33.079  37.570  14.827
67291W        W33832  15.503  19.436   4.162
67292W        W33833  37.612   6.261   1.688
67293W        W33834  40.977  43.843  10.932
67294W        W33835  42.027  42.773   1.359
67295W        W33836  11.754  30.495  14.841
67296W        W33837  10.234  14.328  11.108
67297W        W33838   9.523  33.587   0.780
67298W        W33839   3.893  10.982   2.810
67299W        W33840  14.788  44.940  11.053
67300W        W33841   1.121   4.227  13.497
67301W        W33842  25.024  35.949   1.153
67302W        W33843  11.171  12.585   3.759
67303W        W33844  41.018   5.759  14.292
67304W        W33845  15.869  29.693  12.054
67305W        W33846  31.307  24.519   1.350
67306W        W33847  19.628  13.692   3.997
67307W        W33848  39.759  33.367  14.043
67308W        W33849  12.667  13.646  11.222
67309W        W33850  24.742  30.961   0.742
67310W        W33851  36.416   2.807   3.482
67311W        W33852  12.670  41.837  11.938
67312W        W33853  39.360  37.074  13.476
67313W        W33854  41.644  32.095   4.202
67314W        W33855  41.688  22.606   2.590
67315W        W33856   7.375  40.483   3.687
67316W        W33857  22.038  22.546  11.990
67317W        W33858  34.384  25.415  10.727
67318W        W33859  10.190  12.926  11.068
67319W        W33860  26.157  43.780   0.779
67320W        W33861   7.448  28.508   2.537
67321W        W33862  33.959  19.621  12.053
67322W        W33863  29.827  29.450  14.780
67323W        W33864  38.360  16.251   4.802
67324W        W33865   4.919   0.958  12.571
67325W        W33866  24.899  10.330   1.124
67326W        W33867  17.319  17.144  11.672
67327W        W33868  38.943   7.498  12.513
67328W        W33869   3.602  10.230   0.694
67329W        W33870  21.322  33.066   2.480
67330W        W33871  44.863   8.687  13.471
67331W        W33872  40.979  38.539   1.107
67332W        W33873  37.229  18.185  10.338
67333W        W33874   9.580  25.268  11.173
67334W        W33875  21.212  40.943   2.673
67335W        W33876  32.522  35.780   3.538
67336W        W33877   5.908  24.167   3.272
67337W        W33878   1.812  33.407  12.067
67338W        W33879   1.228  20.193  12.403
67339W        W33880  36.097  11.816  11.118
67340W        W33881  14.069  24.094  11.147
67341W        W33882  11.475  23.800  12.142
67342W        W33883  36.197  30.848  11.246
67343W        W33884  41.530  29.444   3.851
67344W        W33885   2.319  17.775   2.153
67345W        W33886  29.024  25.553   2.317
67346W        W33887  19.605  24.001   0.041
67347W        W33888  11.814  26.288  12.485
67348W        W33889  15.749   2.902  13.162
67349W        W33890  19.960  22.531  12.136
67350W        W33891   3.976  14.424  10.424
67351W        W33892  15.770   8.840  12.487
67352W        W33893  11.181  20.738   0.402
67353W        W33894  29.520  43.704  14.944
67354W        W33895   1.733  28.113   1.760
67355W        W33896  42.191   7.369  10.252
67356W        W33897  41.837  36.334  12.411
67357W        W33898  29.719  12.245  13.049
67358W        W33899  13.186  35.918  11.692
67359W        W33900   7.714  10.908  12.194
67360W        W33901  36.528   8.450   1.762
67361W        W33902  29.510  12.317  14.539
67362W        W33903  24.048  35.736   0.892
67363W        W33904  35.326  12.062  14.199
67364W        W33905  21.309  34.846   3.624
67365W        W33906  27.747  38.327   2.602
67366W        W33907  31.606  25.550  10.638
67367W        W33908  14.348  41.444  13.261
67368W        W33909   2.441  44.444  12.453
67369W        W33910   7.020  27.976  12.572
67370W        W33911  22.308  43.283  14.876
67371W        W33912   0.515  44.624   0.944
67372W        W33913   7.953  21.880   1.031
67373W        W33914  34.802  21.163  13.421
67374W        W33915  43.024  36.773   4.299
67375W        W33916  34.074  39.593  14.041
67376W        W33917  32.472  20.976   1.291
67377W        W33918  36.595   7.910  11.448
67378W        W33919  18.119  25.618   3.715
67379W        W33920   8.438  16.905   4.909
67380W        W33921  28.737  13.397   9.920
67381W        W33922  26.641   4.300  14.084
67382W        W33923  30.252  12.445  11.380
67383W        W33924  21.237  26.733  13.774
67384W        W33925  10.455  14.307  10.644
67385W        W33926  36.947   5.867   0.081
67386W        W33927  18.682  38.872   4.482
67387W        W33928  37.134  21.212   3.172
67388W        W33929  24.567  23.605  10.477
67389W        W33930   5.415  14.172   0.500
67390W        W33931  17.032  16.743  12.154
67391W        W33932  22.078  20.496  10.959
67392W        W33933   7.954  32.821   3.962
67393W        W33934  42.860  33.685   4.783
67394W        W33935  31.422  33.966  13.724
67395W        W33936  15.733  11.578  14.972
67396W        W33937  39.734  32.700  12.463
67397W        W33938  32.942  33.065  14.964
67398W        W33939  40.550   5.672  13.440
67399W        W33940  36.501  27.149   2.415
67400W        W33941  40.261   0.943  13.441
67401W        W33942  20.577  17.645  11.914
67402W        W33943  36.107  19.309  14.834
67403W        W33944   2.614   1.998  14.826
67404W        W33945  15.830  36.418   1.643
67405W        W33946   7.679   1.971   2.351
67406W        W33947  33.909  20.136  10.381
67407W        W33948   4.849  39.915   3.828
67408W        W33949  22.661  23.547   0.023
67409W        W33950  16.131   2.476  11.239
67410W        W33951  32.574   7.607   3.713
67411W        W33952  41.129  28.017   4.572
67412W        W33953  43.457  32.482   2.081
67413W        W33954  16.119   9.354   3.798
67414W        W33955  19.780  25.437  10.455
67415W        W33956  39.799  18.178   0.074
67416W        W33957  16.705  20.607   4.126
67417W        W33958  31.173  25.132  12.016
67418W        W33959  17.076  10.557   3.723
67419W        W33960  32.105  41.159  12.935
67420W        W33961  30.489  35.309  12.091
67421W        W33962   8.840  26.241   2.254
67422W        W33963  28.277  29.984  12.937
67423W        W33964  20.184  11.365  13.001
67424W        W33965  39.099  18.185   3.641
67425W        W33966   0.214  28.541  13.402
67426W        W33967  11.897  26.793  12.477
67427W        W33968  37.899  10.755  11.549
67428W        W33969  19.118   9.308  12.844
67429W        W33970  36.942  24.003  10.731
67430W        W33971  24.434  41.135  14.512
67431W        W33972  16.275  37.564   1.341
67432W        W33973   4.916  43.676  14.504
67433W        W33974  39.559   6.626   0.745
67434W        W33975  25.986   2.637   3.697
67435W        W33976  21.727  39.168   1.709
67436W        W33977   5.234  43.356  14.222
67437W        W33978  16.102  23.482   4.764
67438W        W33979  21.783  44.230  14.476
67439W        W33980  21.643  13.787  12.874
67440W        W33981  20.689  44.240   4.619
67441W        W33982  33.342  26.967  13.093
67442W        W33983  44.765  12.518   0.863
67443W        W33984  34.566  22.015  12.882
67444W        W33985  14.316  25.559   2.692
67445W        W33986  22.694  36.134  10.527
67446W        W33987  40.589  25.323   0.499
67447W        W33988  37.991  29.902   4.607
67448W        W33989  12.739  32.630  12.007
67449W        W33990  15.281  29.118   9.865
67450W        W33991   6.930  10.184  14.786
67451W        W33992   2.846  18.040   2.705
67452W        W33993  13.601  30.948   0.800
67453W        W33994  20.163  19.213   2.213
67454W        W33995  29.937  10.968   1.914
67455W        W33996   6.298  19.790   4.170
67456W        W33997  33.532  43.990   0.875
67457W        W33998  31.495  15.704   0.391
67458W        W33999  35.064  12.355   0.149
67459W        W34000   2.567   0.864   3.728
67460W        W34001  23.137   3.480  12.801
67461W        W34002  20.748  25.983  11.198
67462W        W34003  28.591   4.463  11.083
67463W        W34004  31.840   9.764   2.671
67464W        W34005  20.139  11.919  14.780
67465W        W34006  31.860  30.010   0.433
67466W        W34007  41.484   6.208   3.229
67467W        W34008  17.442  17.824  12.569
67468W        W34009  21.066  15.351  10.169
67469W        W34010  28.562  30.879   3.163
67470W        W34011   4.695  16.148   3.128
67471W        W34012  27.677  35.807   1.506
67472W        W34013  33.127  41.945  13.360
67473W        W34014  35.000   4.241   0.893
67474W        W34015   3.890  20.832  14.315
67475W        W34016  16.310  44.792  11.944
67476W        W34017  41.518   6.988  11.588
67477W        W34018  12.646  37.580   2.285
67478W        W34019   1.486   8.280  14.995
67479W        W34020   3.841  23.633   0.153
67480W        W34021  39.587   0.015   2.598
67481W        W34022  15.817  27.195  14.915
67482W        W34023  44.239  38.362  12.889
67483W        W34024  41.262  29.646   1.010
67484W        W34025  17.783  25.440   4.081
67485W        W34026  10.782  40.304  14.349
67486W        W34027  29.070  16.264   3.915
67487W        W34028  31.887  32.839  14.912
67488W        W34029  30.186  36.630  12.929
67489W        W34030   1.290  29.462   4.983
67490W        W34031  30.909   7.202  14.364
67491W        W34032  10.943  44.413   2.415
67492W        W34033  33.982  21.993  13.800
67493W        W34034  42.458  44.572   4.583
67494W        W34035  32.092  21.470   1.790
67495W        W34036  19.423  27.671   2.364
67496W        W34037   1.663  28.519  11.342
67497W        W34038  23.500  16.260  12.551
67498W        W34039  15.883  32.914   5.079
67499W        W34040  36.314  42.740   3.871
67500W        W34041  44.990  30.534  10.521
67501W        W34042  23.304  13.263   4.146
67502W        W34043  31.628  21.103   0.401
67503W        W34044  44.353  19.749   2.298
67504W        W34045   8.810  33.147  11.851
67505W        W34046  20.257   1.804   4.117
67506W        W34047  25.106  39.283  13.995
67507W        W34048  19.177  31.451   1.401
67508W        W34049  11.742  18.737  12.133
67509W        W34050  22.990  31.953   4.571
67510W        W34051   2.670  34.320  14.330
67511W        W34052  36.950  32.545  12.464
67512W        W34053   8.259   6.787  11.512
67513W        W34054  35.363   3.609   3.889
67514W        W34055  28.461  41.166   0.731
67515W        W34056  19.413   6.645   3.177
67516W        W34057  37.448  37.672   3.577
67517W        W34058   3.367   6.345  11.738
67518W        W34059  24.404  28.032  13.398
67519W        W34060  35.778  17.195   3.888
67520W        W34061  43.766   7.995   0.799
67521W        W34062  24.751  32.381  13.156
67522W        W34063   4.245  36.970  11.318
67523W        W34064  21.177  17.594  10.455
67524W        W34065   7.691  42.567   3.273
67525W        W34066  24.619  21.461  13.085
67526W        W34067  17.605   5.375   1.787
67527W        W34068  42.445  32.137  13.440
67528W        W34069  21.070  35.494   3.362
67529W        W34070  15.946  43.508   1.973
67530W        W34071  26.503   9.350   1.791
67531W        W34072  44.777  36.319  11.664
67532W        W34073  37.602  16.684  13.382
67533W        W34074  29.375  38.550   4.342
67534W        W34075   1.199   0.886   4.227
67535W        W34076  37.392  22.843  10.774
67536W        W34077  22.693  24.492   0.183
67537W        W34078  41.429   6.668   0.796
67538W        W34079   9.215  10.183   5.201
67539W        W34080  28.465  12.336   1.519
67540W        W34081   3.394  11.336  11.650
67541W        W34082  40.789   1.979  10.610
67542W        W34083  34.030  36.554   4.376
67543W        W34084  32.064  18.269   0.260
67544W        W34085   3.347   5.590   0.537
67545W        W34086  20.063  19.905  13.551
67546W        W34087  44.504  36.220   3.435
67547W        W34088  13.714   3.795   4.640
67548W        W34089  38.733  28.249   4.947
67549W        W34090  35.904  36.994  10.668
67550W        W34091  43.204  31.634  12.493
67551W        W34092   7.510   9.803  11.604
67552W        W34093  35.604  40.475  13.488
67553W        W34094  19.164  40.827  14.437
67554W        W34095   5.269  26.418  14.994
67555W        W34096  15.721  10.377  14.225
67556W        W34097  36.319   8.685   4.998
67557W        W34098  28.053  15.293   3.584
67558W        W34099  26.910  15.595  14.505
67559W        W34100  39.258  29.606  11.170
67560W        W34101  28.411  19.088  11.640
67561W        W34102  30.307   3.773  11.471
67562W        W34103   8.449  24.583   4.008
67563W        W34104  23.175  15.369  11.785
67564W        W34105  18.116  37.094  11.050
67565W        W34106  30.656   4.601   4.845
67566W        W34107  10.232  34.049   4.502
67567W        W34108  14.870   6.935  10.831
67568W        W34109  19.495  15.800  11.897
67569W        W34110  13.691  17.132  12.672
67570W        W34111  23.254  16.606   3.689
67571W        W34112  18.631  19.103  12.819
67572W        W34113  34.276   3.871  11.074
67573W        W34114   2.882  26.173   4.032
67574W        W34115   8.236  23.978  11.899
67575W        W34116  26.616  18.947  14.887
67576W        W34117  27.449  28.584   0.529
67577W        W34118  36.019  25.613   4.637
67578W        W34119   7.099  16.065  12.541
67579W        W34120  28.925  20.869   1.147
67580W        W34121  38.139  22.616  14.286
67581W        W34122  16.869  38.494   2.851
67582W        W34123  10.774   9.512  14.551
67583W        W34124   1.734  17.314  14.253
67584W        W34125  41.113  33.015  14.106
67585W        W34126  41.865  23.550  14.916
67586W        W34127  10.623  31.139   4.823
67587W        W34128  19.755   2.383   1.632
67588W        W34129  11.823  37.116   4.496
67589W        W34130   1.568   3.332   0.024
67590W        W34131  41.301  26.096   4.169
67591W        W34132   3.923  23.126   0.319
67592W        W34133  31.436  38.708  14.856
67593W        W34134  10.907  38.524   3.083
67594W        W34135  31.421  44.127  13.903
67595W        W34136  31.091  13.616  13.092
67596W        W34137  18.320   2.490   3.348
67597W        W34138  33.433   1.312  13.568
67598W        W34139   4.405  36.245  11.607
67599W        W34140   6.806   6.199   0.049
67600W        W34141  11.355  44.595  11.086
67601W        W34142  42.956   7.744   4.515
67602W        W34143  32.139  18.516  11.456
67603W        W34144  11.320  15.185   3.304
67604W        W34145  27.765  44.326  14.044
67605W        W34146  29.376  16.083   1.919
67606W        W34147  25.375  37.293   1.314
67607W        W34148  22.163   7.535  11.762
67608W        W34149  38.533  27.390   2.452
67609W        W34150  37.626   7.311  13.449
67610W        W34151   7.812   3.650   5.505
67611W        W34152   8.736  10.627   4.546
67612W        W34153  18.478  21.431  14.486
67613W        W34154  35.791  20.259   2.255
67614W        W34155  35.335   0.211  13.059
67615W        W34156  25.979  14.029  11.191
67616W        W34157  20.525  13.569   3.141
67617W        W34158  41.391  27.568   4.660
67618W        W34159  29.911  40.920   0.868
67619W        W34160   9.011  14.522  11.009
67620W        W34161  27.507  41.458  12.373
67621W        W34162  15.192   0.997  10.470
67622W        W34163  13.299  27.631  12.931
67623W        W34164   4.612  34.624   2.861
67624W        W34165  32.418   0.383  11.121
67625W        W34166  15.018  40.977   1.937
67626W        W34167  23.080  30.185  10.692
67627W        W34168  17.684  35.061  14.311
67628W        W34169  20.527  26.706  13.440
67629W        W34170   9.961  42.290   4.192
67630W        W34171  19.665  36.089  12.223
67631W        W34172  38.257  33.499  10.671
67632W        W34173   8.774  25.367   4.580
67633W        W34174  35.834  38.286   4.013
67634W        W34175   6.707  25.702   2.369
67635W        W34176   0.977  42.039   2.353
67636W        W34177  14.684  15.538  12.547
67637W        W34178  21.308   6.834  11.607
67638W        W34179  23.563  31.335   4.008
67639W        W34180   0.369  25.244   4.338
67640W        W34181  15.297  40.577  12.824
67641W        W34182   4.916  26.400   1.378
67642W        W34183  33.594  22.178  10.714
67643W        W34184  18.165  29.461   1.031
67644W        W34185  37.292   8.611   2.340
67645W        W34186   3.593  42.357   4.624
67646W        W34187  13.658  32.778  13.839
67647W        W34188  10.540  38.699   9.906
67648W        W34189  13.654  39.636   2.136
67649W        W34190   1.361  25.778   1.351
67650W        W34191  24.986  17.860  11.069
67651W        W34192  17.056  12.248  10.754
67652W        W34193   4.551  18.758   4.353
67653W        W34194  41.394  25.894  13.034
67654W        W34195  11.582  22.686  14.027
67655W        W34196   0.374  22.978  13.190
67656W        W34197   0.936   8.122  14.838
67657W        W34198   4.429  10.706   1.301
67658W        W34199   2.364  17.798   0.582
67659W        W34200  11.835   8.810   1.799
67660W        W34201  27.067  23.230   1.180
67661W        W34202   4.227  27.235  12.678
67662W        W34203  30.176  37.873  13.567
67663W        W34204  38.188  22.265   4.405
67664W        W34205  38.407  30.753   3.864
67665W        W34206  44.296   1.198   0.844
67666W        W34207  44.239   4.678   4.322
67667W        W34208  12.557   4.901   0.232
67668W        W34209   0.854   1.503  14.421
67669W        W34210  28.212  32.164  13.478
67670W        W34211  10.831  42.995  12.534
67671W        W34212   2.260  15.175  12.175
67672W        W34213  10.738  38.232  10.127
67673W        W34214   8.453  16.368   2.383
67674W        W34215  12.979  18.119  10.825
67675W        W34216  15.380   3.368   0.809
67676W        W34217  35.481  43.303   1.168
67677W        W34218   6.244   3.970  14.566
67678W        W34219  24.875  12.642  10.735
67679W        W34220  41.713  33.300   2.859
67680W        W34221  39.446   5.029   3.197
67681W        W34222  13.767   7.726  12.507
67682W        W34223   5.608  21.876  10.771
67683W        W34224  30.885  16.533  13.376
67684W        W34225   8.785  28.053  13.145
67685W        W34226  22.277   7.738   1.500
67686W        W34227  21.086  42.073  14.872
67687W        W34228  18.956  17.553   2.544
67688W        W34229   4.198  43.837   0.276
67689W        W34230  19.124  36.087  14.391
67690W        W34231  27.616   3.133  11.822
67691W        W34232  11.413  25.468  14.705
67692W        W34233   0.821  27.193  11.277
67693W        W34234  42.277  41.908  12.013
67694W        W34235   8.750   3.144  11.359
67695W        W34236  27.148  26.203   5.068
67696W        W34237  17.239  43.733   0.284
67697W        W34238  39.720  18.314  11.528
67698W        W34239  36.614   9.865   3.314
67699W        W34240  14.129  21.134  14.902
67700W        W34241  25.089  15.158  13.356
67701W        W34242  20.726  23.962   2.305
67702W        W34243  31.095   2.546  13.339
67703W        W34244  36.103  30.691   1.852
67704W        W34245  35.481  39.955   4.560
67705W        W34246   3.767   1.768   3.126
67706W        W34247   5.906  15.433   0.474
67707W        W34248  15.336  24.749  13.855
67708W        W34249  27.992   5.674  12.455
67709W        W34250  36.469  32.428  13.402
67710W        W34251   0.686  12.210  13.872
67711W        W34252   7.318  25.593  11.636
67712W        W34253  40.213  21.630   1.953
67713W        W34254  23.521  35.306  10.728
67714W        W34255  41.324  15.071  11.824
67715W        W34256  34.891  13.352  12.926
67716W        W34257  29.342  29.028   3.538
67717W        W34258  24.914  24.412   2.779
67718W        W34259  29.463  39.819   0.732
67719W        W34260  16.750  21.608   1.434
67720W        W34261  21.694  16.305   0.651
67721W        W34262  31.506  34.045   4.155
67722W        W34263  17.265  21.934  14.277
67723W        W34264  30.396  40.612   4.306
67724W        W34265  44.092  17.090   1.850
67725W        W34266  33.105  25.746  14.848
67726W        W34267  20.761  37.792   3.033
67727W        W34268  25.600   0.655  13.315
67728W        W34269  27.684  27.169  14.457
67729W        W34270  41.967   6.569   1.931
67730W        W34271  35.475  13.709  11.129
67731W        W34272  23.539  10.148   4.190
67732W        W34273  30.089  18.168   0.288
67733W        W34274  25.612  16.711  11.407
67734W        W34275   9.299  12.320   4.702
67735W        W34276  17.246  23.196  12.787
67736W        W34277  26.282  19.105  12.489
67737W        W34278  27.333  27.061   2.842
67738W        W34279  12.168  20.201   0.227
67739W        W34280  33.456   5.672  11.132
67740W        W34281   2.790  20.165  12.076
67741W        W34282  19.292  39.335  13.500
67742W        W34283  29.585  10.352  11.990
67743W        W34284   4.428   2.153  10.851
67744W        W34285  23.970  37.281  13.316
67745W        W34286  18.804  31.939  11.681
67746W        W34287  29.453   5.865  13.599
67747W        W34288  14.774  34.173   4.788
67748W        W34289   6.316  21.279   0.412
67749W        W34290  14.572   7.401  12.020
67750W        W34291  39.516  41.772   0.850
67751W        W34292   9.832  26.759  10.696
67752W        W34293   7.677  33.606   1.886
67753W        W34294  34.482   5.553  10.229
67754W        W34295   0.262  44.345   2.719
67755W        W34296  11.404  17.350   3.482
67756W        W34297   0.983  38.613  13.754
67757W        W34298  44.847  24.479  14.401
67758W        W34299  30.427  23.992  13.207
67759W        W34300  10.184  27.173   1.391
67760W        W34301  24.007  30.829   1.886
67761W        W34302  34.251  35.863   4.122
67762W        W34303  25.843   9.261  13.609
67763W        W34304  15.450  37.004   1.068
67764W        W34305  39.904  19.608  13.108
67765W        W34306  22.589  41.022   1.018
67766W        W34307  38.065   6.951  10.660
67767W        W34308  38.689  44.241  11.411
67768W        W34309   2.274  23.291  10.754
67769W        W34310   4.130  12.351   2.169
67770W        W34311  17.229  18.675   1.484
67771W        W34312  15.824  33.096  14.326
67772W        W34313  42.756  24.714  12.719
67773W        W34314  41.226  22.253   4.241
67774W        W34315  36.026  27.662  13.490
67775W        W34316   4.339   8.404   2.327
67776W        W34317  10.431  40.081  14.013
67777W        W34318  12.837  22.968   4.231
67778W        W34319  42.081  17.556  13.935
67779W        W34320   9.053  23.779  14.985
67780W        W34321  11.913  19.341   1.492
67781W        W34322  22.181  29.908  14.671
67782W        W34323  36.990  27.875  12.537
67783W        W34324  38.249   5.798   1.200
67784W        W34325  23.426  35.263   3.307
67785W        W34326   5.878  42.297  11.896
67786W        W34327   1.025  15.580  10.978
67787W        W34328   7.763  18.012   2.635
67788W        W34329  26.059  13.397   1.666
67789W        W34330   9.431  19.707  12.351
67790W        W34331  21.630   0.422  10.382
67791W        W34332   3.806  23.224  13.324
67792W        W34333  30.365   9.976  14.365
67793W        W34334  32.137  25.602  10.707
67794W        W34335   1.673  21.414  12.917
67795W        W34336  18.781  37.644  11.584
67796W        W34337  23.841  31.671  13.510
67797W        W34338   8.632  27.685  10.502
67798W        W34339  28.069  18.104  13.357
67799W        W34340   0.900  29.600   3.737
67800W        W34341   3.263  18.296  13.749
67801W        W34342   1.850  35.975  11.336
67802W        W34343   6.611  31.410  12.452
67803W        W34344  30.468   7.334   0.700
67804W        W34345  27.371  11.875  11.398
67805W        W34346  26.313  19.321   4.637
67806W        W34347  33.261  29.849   0.292
67807W        W34348  36.373   3.870   4.975
67808W        W34349   8.720  33.354  13.162
67809W        W34350   8.276  32.642   2.331
67810W        W34351   2.484   8.239   3.777
67811W        W34352  43.786   1.468  13.644
67812W        W34353  44.040   7.662  14.352
67813W        W34354  22.252  14.176  14.710
67814W        W34355   1.276  27.127  11.868
67815W        W34356  11.575   7.633   4.122
67816W        W34357  29.216  13.101  13.586
67817W        W34358   6.299  10.643  13.559
67818W        W34359  36.542  33.242  11.020
67819W        W34360  22.202  21.095   1.501
67820W        W34361   4.152  23.512   2.285
67821W        W34362  42.279  35.051   1.895
67822W        W34363  34.019   4.770  10.285
67823W        W34364  22.067  17.307  10.436
67824W        W34365  34.101   9.119  13.948
67825W        W34366   3.921  20.001   4.036
67826W        W34367  28.261  37.027  12.956
67827W        W34368   7.226  42.916   1.310
67828W        W34369   7.225  26.166   1.040
67829W        W34370  24.408  42.094   2.882
67830W        W34371  41.098  43.018   3.171
67831W        W34372  15.400   7.784  11.533
67832W        W34373   9.194  29.490   4.561
67833W        W34374  12.550  11.542  12.384
67834W        W34375  24.622  37.863   0.252
67835W        W34376   4.827  20.986  12.967
67836W        W34377  22.674   6.952   3.772
67837W        W34378  42.265  32.564  10.798
67838W        W34379  43.836  16.671  13.385
67839W        W34380  39.158  22.535   2.836
67840W        W34381  13.257  15.149  13.379
67841W        W34382  22.715   5.883   4.170
67842W        W34383  35.034   5.855   4.609
67843W        W34384   4.449  12.305  14.040
67844W        W34385  27.470  30.635   1.188
67845W        W34386  30.392  15.167   2.166
67846W        W34387  32.582  35.526  12.678
67847W        W34388  16.042  27.563   3.271
67848W        W34389  11.397   7.765  10.578
67849W        W34390  36.092  22.766   1.417
67850W        W34391  34.074  33.454  14.378
67851W        W34392  31.982  44.679   1.850
67852W        W34393   4.629   5.289  11.191
67853W        W34394  29.941  22.901  13.836
67854W        W34395  44.172  44.693  12.044
67855W        W34396  42.988  17.145  11.150
67856W        W34397  41.217  34.302  14.062
67857W        W34398  30.880  27.163  12.533
67858W        W34399  11.270   6.986   2.921
67859W        W34400  37.051  21.687   3.835
67860W        W34401   7.632  22.481  12.571
67861W        W34402  42.292   6.858  14.749
67862W        W34403  15.596  14.156   3.105
67863W        W34404  22.402  26.435  14.073
67864W        W34405  34.074  42.384  10.571
67865W        W34406  24.199  31.040  14.610
67866W        W34407  10.742   4.462   0.735
67867W        W34408  22.210  28.557   1.889
67868W        W34409  31.091  24.789   0.350
67869W        W34410  15.997  41.405   1.297
67870W        W34411  28.078  41.511   2.440
67871W        W34412  37.884  30.848   0.459
67872W        W34413  39.845   9.874  10.750
67873W        W34414  20.071  18.632   2.020
67874W        W34415  34.056  11.694  14.174
67875W        W34416  39.480   2.377  12.577
67876W        W34417  30.848   9.768  14.440
67877W        W34418   2.234   4.694  13.975
67878W        W34419  22.641   5.916   2.857
67879W        W34420  28.934  14.893  11.211
67880W        W34421  20.369  42.361   0.854
67881W        W34422   9.731  19.498  11.156
67882W        W34423  42.476  26.185  14.501
67883W        W34424  25.477  38.529   1.421
67884W        W34425  24.171  10.807  13.753
67885W        W34426  40.427  10.773   1.246
67886W        W34427  37.567  30.487  10.501
67887W        W34428  15.225  31.619   1.416
67888W        W34429  34.958  28.804   9.905
67889W        W34430  18.374  13.322   2.729
67890W        W34431   0.545  44.549   2.300
67891W        W34432  25.553  35.847  11.436
67892W        W34433   7.751  22.812   0.871
67893W        W34434  36.241   4.446  11.170
67894W        W34435  28.559  35.237   3.627
67895W        W34436  20.237  20.222   2.187
67896W        W34437   2.207  21.493  12.946
67897W        W34438  41.515  20.645  13.091
67898W        W34439  21.098  41.908  12.934
67899W        W34440  18.853  43.531  12.988
67900W        W34441  44.954  21.482   1.393
67901W        W34442  20.280  24.160   3.183
67902W        W34443  40.423  31.614   2.402
67903W        W34444  28.060   6.434  13.866
67904W        W34445  12.502  19.664  10.805
67905W        W34446  30.382   2.737  11.587
67906W        W34447  13.653   3.228   3.349
67907W        W34448  11.268   7.113   2.269
67908W        W34449  40.542  35.090  11.423
67909W        W34450  42.771  21.180  13.579
67910W        W34451  21.217  13.634  12.204
67911W        W34452   8.178  37.213  10.321
67912W        W34453  17.139  41.003  11.633
67913W        W34454  16.232   0.140   4.255
67914W        W34455   2.316  14.841   4.542
67915W        W34456  27.069  10.891  11.943
67916W        W34457  24.508  23.124  10.733
67917W        W34458  17.040  23.980  10.549
67918W        W34459  41.501  43.352   3.193
67919W        W34460  33.518   1.232   1.751
67920W        W34461  38.642  31.745   5.207
67921W        W34462  22.131  10.073  11.420
67922W        W34463   3.997  10.652   3.705
67923W        W34464   5.920   4.829  14.812
67924W        W34465   0.220  38.608   1.845
67925W        W34466   9.415   1.851   1.262
67926W        W34467   4.719  29.089   4.597
67927W        W34468   4.841  32.156   0.359
67928W        W34469  40.011  11.712   3.625
67929W        W34470  33.631  32.651  12.059
67930W        W34471  35.876   2.227  14.416
67931W        W34472  43.814  33.702   4.388
67932W        W34473  26.135  32.831   2.989
67933W        W34474  22.522  26.845  11.552
67934W        W34475  20.330  18.915   1.270
67935W        W34476  12.137  27.510   1.119
67936W        W34477  34.383  14.300  12.471
67937W        W34478  43.845   8.237   1.315
67938W        W34479  17.264   1.051   2.307
67939W        W34480  33.838   1.329   3.094
67940W        W34481  33.827   1.781   3.345
67941W        W34482  23.564  10.587   3.868
67942W        W34483  18.314   1.238  12.515
67943W        W34484   3.380   0.172   5.735
67944W        W34485   1.670  24.968   4.540
67945W        W34486   4.784  31.087   3.835
67946W        W34487  14.130   8.124  12.490
67947W        W34488  12.139  11.250  12.200
67948W        W34489   8.962  36.945  13.389
67949W        W34490  31.056  13.784   0.777
67950W        W34491  43.236  21.675   1.208
67951W        W34492  34.224   2.437   1.547
67952W        W34493   1.180  30.422  13.679
67953W        W34494  20.934  15.129   2.900
67954W        W34495   9.285  14.627  14.843
67955W        W34496  42.967   1.630   4.621
67956W        W34497  22.795  10.208  14.943
67957W        W34498   1.961  19.824  14.340
67958W        W34499  42.879  14.593   3.625
67959W        W34500   9.138  18.131  14.426
67960W        W34501  41.343   8.199   4.075
67961W        W34502  30.573  10.248  10.658
67962W        W34503  27.061  13.920  11.334
67963W        W34504  12.358  15.323  13.522
67964W        W34505  27.573  40.522   4.907
67965W        W34506   9.690   6.314   2.427
67966W        W34507   1.912  29.369  11.651
67967W        W34508  28.174   0.220   4.683
67968W        W34509  15.669  22.527  14.031
67969W        W34510  41.887  44.530  13.530
67970W        W34511  44.798  15.278  12.508
67971W        W34512  23.610  27.995  13.112
67972W        W34513  39.415  16.685   1.237
67973W        W34514   2.208  11.662   4.543
67974W        W34515  34.087  12.835   2.677
67975W        W34516  21.092  40.579   1.412
67976W        W34517  11.720  36.871   0.035
67977W        W34518   7.776   5.498   1.359
67978W        W34519  28.588  11.669  14.919
67979W        W34520  19.657   8.460  12.062
67980W        W34521  11.638   8.503  14.529
67981W        W34522  26.402  16.233  14.880
67982W        W34523   2.280  11.455   1.439
67983W        W34524  20.066   1.727   0.404
67984W        W34525  19.574  42.007   0.985
67985W        W34526  19.808   0.964  11.550
67986W        W34527  23.709  11.673  13.482
67987W        W34528  34.083  41.580   2.618
67988W        W34529  36.952  30.532   0.185
67989W        W34530  21.542  37.341   5.024
67990W        W34531  38.633   8.829   4.315
67991W        W34532   7.929  17.598  13.570
67992W        W34533  40.255   2.868  13.936
67993W        W34534  11.670  23.257   1.747
67994W        W34535   5.319  23.753   1.880
67995W        W34536  15.755   3.589  13.938
67996W        W34537  39.324  18.617   2.272
67997W        W34538   9.454  37.841   2.146
67998W        W34539   0.367  28.604   1.242
67999W        W34540  35.011  23.807   2.749
68000W        W34541  11.723   5.410   1.892
68001W        W34542  27.051  43.810  14.857
68002W        W34543  39.977  12.138  10.292
68003W        W34544  18.174  21.619   1.304
68004W        W34545  44.725  41.224  12.838
68005W        W34546  44.461  15.825   1.773
68006W        W34547  26.523   6.120  13.121
68007W        W34548   0.079  44.753   4.738
68008W        W34549   5.313   3.494   0.830
68009W        W34550   4.857  10.703  13.576
68010W        W34551   9.952  19.644  10.264
68011W        W34552  16.629   8.177   0.465
68012W        W34553  32.119  22.149   1.993
68013W        W34554  25.972   7.508   2.811
68014W        W34555  43.605   8.766   4.570
68015W        W34556  19.347  12.723   1.772
68016W        W34557  41.112  34.983  12.904
68017W        W34558  11.854  34.523   2.175
68018W        W34559  28.545   7.241   2.943
68019W        W34560  33.198   9.816  10.379
68020W        W34561   4.902   9.888  10.987
68021W        W34562  39.517  35.112   1.822
68022W        W34563  34.865  10.374   0.786
68023W        W34564  14.364  29.681  10.690
68024W        W34565  36.531  28.420  11.544
68025W        W34566  34.510  31.785   4.597
68026W        W34567   4.793  14.347  13.483
68027W        W34568  12.644  19.138  11.580
68028W        W34569  22.437   7.178   3.341
68029W        W34570   9.392  24.669  14.758
68030W        W34571   7.440  14.331   0.369
68031W        W34572  32.772  10.293  14.369
68032W        W34573  27.870  20.842  11.519
68033W        W34574  43.913  40.514   2.157
68034W        W34575   8.955  30.070   1.744
68035W        W34576   2.930  41.533   3.791
68036W        W34577   8.397  40.024   4.606
68037W        W34578  19.180   0.191   0.398
68038W        W34579   9.860  43.724  13.925
68039W        W34580  43.681  34.858   1.905
68040W        W34581  39.577  20.398   0.764
68041W        W34582  25.339   0.270   1.970
68042W        W34583  17.239  42.776  14.542
68043W        W34584  23.190  25.677   2.859
68044W        W34585  33.089  20.612   1.924
68045W        W34586  30.486  41.531   1.313
68046W        W34587  42.435  25.809   4.380
68047W        W34588  30.411   8.241  14.838
68048W        W34589  32.393  31.991   2.948
68049W        W34590  30.011  44.320  14.326
68050W        W34591  44.477  21.109  11.094
68051W        W34592  12.557  24.493  12.468
68052W        W34593  34.659  12.289  13.812
68053W        W34594  20.757  26.206  14.410
68054W        W34595  11.372  33.246   0.733
68055W        W34596   2.289  11.134  13.019
68056W        W34597   3.932  11.540  13.071
68057W        W34598  21.490  24.097  12.609
68058W        W34599  23.604  24.713  14.120
68059W        W34600  39.126   0.924   0.792
68060W        W34601  32.823   9.442  14.117
68061W        W34602  25.081  19.284  12.136
68062W        W34603   3.120  28.765  10.555
68063W        W34604  20.574   9.785   3.715
68064W        W34605   4.580   3.426   4.338
68065W        W34606  26.618  33.514   2.711
68066W        W34607  10.984  36.594   2.247
68067W        W34608  37.655  43.736  11.657
68068W        W34609  36.086  37.381   4.602
68069W        W34610   4.958  33.224  12.989
68070W        W34611  40.288  26.555  14.561
68071W        W34612  30.056  25.674   3.917
68072W        W34613   3.830  17.138  13.837
68073W        W34614  41.478  17.793   2.920
68074W        W34615  23.585   8.255  11.663
68075W        W34616   8.393  24.613   4.750
68076W        W34617   4.464   5.412   1.805
68077W        W34618  35.537  36.135  14.222
68078W        W34619  29.596  18.630   0.426
68079W        W34620   5.507  28.016   3.271
68080W        W34621  37.658  42.821   0.788
68081W        W34622  32.956  18.027  14.829
68082W        W34623  25.122   6.135   0.361
68083W        W34624   6.105   4.893   0.309
68084W        W34625   7.210  18.254  10.417
68085W        W34626  13.047  12.890  12.285
68086W        W34627  32.302  17.341  12.390
68087W        W34628  26.471  18.149   0.562
68088W        W34629  33.313  22.104   0.500
68089W        W34630  21.628  29.242   0.938
68090W        W34631  23.024  36.851   0.557
68091W        W34632  16.974   3.935  10.808
68092W        W34633  10.669   2.517   0.893
68093W        W34634  31.823  33.306   1.310
68094W        W34635   9.410   5.065  10.334
68095W        W34636  42.969  30.874   0.875
68096W        W34637  33.704  15.552  14.620
68097W        W34638   1.502  36.407   3.629
68098W        W34639  37.019  12.184   3.240
68099W        W34640  11.080   7.687  13.014
68100W        W34641  44.880   8.739   1.019
68101W        W34642   8.385  37.509  11.577
68102W        W34643   5.355  30.599   5.104
68103W        W34644  33.460  42.954   0.292
68104W        W34645  10.621  20.565  14.170
68105W        W34646  39.386  11.629   2.198
68106W        W34647   5.205  29.064   4.314
68107W        W34648   8.413  15.611  13.343
68108W        W34649  29.171   1.179  10.881
68109W        W34650  39.036  42.861   0.274
68110W        W34651   7.320  38.886  12.504
68111W        W34652  22.986  22.756  14.565
68112W        W34653  15.287  42.470  14.024
68113W        W34654  20.058   2.281   0.351
68114W        W34655  41.235  20.278  13.950
68115W        W34656  31.926  25.216   1.437
68116W        W34657  40.102   3.753  14.045
68117W        W34658  15.779  39.202   4.983
68118W        W34659  30.974  18.740   2.065
68119W        W34660  30.544  23.998  13.734
68120W        W34661  22.738  28.584   3.758
68121W        W34662   2.444  12.658   1.898
68122W        W34663   3.298  14.379  13.315
68123W        W34664   9.772  14.236   2.487
68124W        W34665  26.424  38.849   4.154
68125W        W34666  35.053  30.026  11.943
68126W        W34667  20.303  35.057  11.639
68127W        W34668  34.882  28.510  13.038
68128W        W34669   1.979  27.583  12.542
68129W        W34670  23.006  29.138  10.686
68130W        W34671  41.551  12.604  10.900
68131W        W34672  22.660   6.817   4.308
68132W        W34673   2.232  42.821   4.886
68133W        W34674  43.962   8.281  13.121
68134W        W34675  12.717   2.373   3.219
68135W        W34676  20.724   1.272   3.778
68136W        W34677  30.986   7.985   3.353
68137W        W34678   8.931  40.984  10.397
68138W        W34679  42.282   6.259   4.341
68139W        W34680  42.440  27.254   0.778
68140W        W34681   0.954  34.569   4.743
68141W        W34682  17.570  32.542   3.411
68142W        W34683  18.779  11.034  11.052
68143W        W34684  34.885  13.652   3.648
68144W        W34685  25.200  26.590   3.821
68145W        W34686   4.691  16.958   5.198
68146W        W34687  11.354  19.699  11.052
68147W        W34688  31.389  28.885   3.642
68148W        W34689  28.017  30.139   3.623
68149W        W34690  36.655   9.248  10.994
68150W        W34691  21.609  42.328  13.069
68151W        W34692  41.931  23.213   1.245
68152W        W34693  11.955  42.611   5.018
68153W        W34694  19.265  37.397  10.721
68154W        W34695  19.513  43.560   4.193
68155W        W34696  25.607  32.158  10.654
68156W        W34697  15.614   7.749   0.452
68157W        W34698   8.276  35.704  12.988
68158W        W34699   7.617   9.309   2.274
68159W        W34700  35.230  40.751  13.235
68160W        W34701  37.774  36.631  14.000
68161W        W34702  31.917  36.414   4.196
68162W        W34703  11.241  32.681  10.451
68163W        W34704  27.400  20.691   1.792
68164W        W34705  37.799  26.477  13.188
68165W        W34706   3.966   1.227   4.458
68166W        W34707  35.578  17.792   4.717
68167W        W34708  21.823  40.103   3.828
68168W        W34709  13.242  20.457  12.502
68169W        W34710  29.320  31.737   1.504
68170W        W34711  17.608   2.877   2.308
68171W        W34712  40.972  29.126   1.787
68172W        W34713  24.939  37.222  12.958
68173W        W34714  29.952  18.583  14.986
68174W        W34715  29.969  37.903  12.210
68175W        W34716  11.719  27.248   4.085
68176W        W34717   2.737  20.111  12.608
68177W        W34718  22.527   9.893  13.849
68178W        W34719   1.616  29.546   5.381
68179W        W34720  34.309   5.211   3.608
68180W        W34721  41.059  26.089  12.042
68181W        W34722  40.504   8.358  14.798
68182W        W34723  12.421  28.624  14.718
68183W        W34724  25.964  28.066  13.472
68184W        W34725  18.069  34.598   1.168
68185W        W34726   6.934  33.881   0.807
68186W        W34727  15.887  24.120   2.389
68187W        W34728  39.433  23.472  14.442
68188W        W34729   4.444  38.398  11.233
68189W        W34730   8.562  32.549   0.488
68190W        W34731  44.254  43.995  10.972
68191W        W34732  33.405  36.452  13.352
68192W        W34733  23.966   1.969   0.906
68193W        W34734  43.907   7.283   3.156
68194W        W34735  30.064  29.628   3.523
68195W        W34736   5.529  15.162   2.282
68196W        W34737   5.560  24.036   2.276
68197W        W34738   0.300  33.370   0.640
68198W        W34739  18.635  40.943  10.632
68199W        W34740   8.953   6.359  14.471
68200W        W34741  34.802  44.521   2.700
68201W        W34742  28.491  42.704  10.690
68202W        W34743   1.946  37.926   0.723
68203W        W34744   3.457  14.369  10.542
68204W        W34745  33.120  23.203  11.516
68205W        W34746  32.014  25.599  11.551
68206W        W34747  15.859  22.031   0.290
68207W        W34748  34.447  38.814  12.493
68208W        W34749  16.509  22.532  12.939
68209W        W34750  10.755  34.093   4.532
68210W        W34751  31.683  12.817  12.974
68211W        W34752  15.263  15.576  13.303
68212W        W34753  29.576  36.501  12.114
68213W        W34754  35.594  29.003   2.617
68214W        W34755  25.641   0.020  14.253
68215W        W34756  29.514  20.019   0.389
68216W        W34757   7.488  18.794   1.358
68217W        W34758   9.508  21.893  13.973
68218W        W34759  30.475  42.648  13.970
68219W        W34760  30.258  32.993   3.320
68220W        W34761   3.758   8.637  10.741
68221W        W34762   0.995   9.175   2.207
68222W        W34763   2.953   5.685   4.246
68223W        W34764  12.321  30.030   4.433
68224W        W34765  36.615  22.307  10.288
68225W        W34766  32.096   1.254  12.183
68226W        W34767  21.418  21.525  13.395
68227W        W34768   7.095  23.534  14.532
68228W        W34769  38.066  37.139   2.217
68229W        W34770  43.916   8.208   3.840
68230W        W34771  19.000   6.279  14.293
68231W        W34772  14.865  15.701  14.404
68232W        W34773   2.320   8.909  14.375
68233W        W34774   3.435  13.304   5.004
68234W        W34775  17.776  33.009  13.550
68235W        W34776  33.102  17.362   3.867
68236W        W34777  11.243  16.694  10.876
68237W        W34778  33.894  41.724  14.569
68238W        W34779  27.075  12.239   1.058
68239W        W34780  34.489  10.745   0.699
68240W        W34781  41.570   7.334  13.877
68241W        W34782  15.691  35.768  12.681
68242W        W34783  38.834  16.203  11.498
68243W        W34784  19.050  33.590   0.285
68244W        W34785   3.883  16.559   3.051
68245W        W34786   0.824  36.156   3.772
68246W        W34787  40.316  26.118   2.944
68247W        W34788  34.492   3.870  14.250
68248W        W34789  33.478  21.029   1.234
68249W        W34790  18.198  20.042  12.985
68250W        W34791  12.156  39.901   3.195
68251W        W34792   7.700   0.752   1.893
68252W        W34793  31.885   5.937   2.830
68253W        W34794  45.000  43.876   2.858
68254W        W34795  19.198  19.815  13.975
68255W        W34796  15.889  44.008  12.065
68256W        W34797  33.795  16.472  13.014
68257W        W34798  27.935  15.760   4.344
68258W        W34799   8.982  14.129  12.543
68259W        W34800   9.916  16.529  11.006
68260W        W34801  19.621  37.629   5.063
68261W        W34802   2.741  37.899   0.000
68262W        W34803  34.080  23.936   1.361
68263W        W34804  10.650  28.536   0.841
68264W        W34805   6.263  17.201  12.159
68265W        W34806  36.197  25.154  12.379
68266W        W34807  23.726  20.774  10.911
68267W        W34808   5.920  27.580   1.840
68268W        W34809  26.192  37.410  14.923
68269W        W34810  18.805   2.074   1.171
68270W        W34811  27.804   3.965  12.103
68271W        W34812   5.923   4.580   2.946
68272W        W34813  39.066  18.060   0.234
68273W        W34814  19.621  36.667   2.322
68274W        W34815  15.128  11.860   2.366
68275W        W34816  36.484   6.887   3.135
68276W        W34817  20.709  27.479   3.208
68277W        W34818   3.011  19.243  12.576
68278W        W34819   3.724  40.993   0.681
68279W        W34820  36.423  16.151   2.711
68280W        W34821  22.516  18.939   2.693
68281W        W34822  24.577  21.765  10.734
68282W        W34823  37.467   3.949   4.108
68283W        W34824  36.170   9.016  13.541
68284W        W34825  34.522   2.044  13.539
68285W        W34826  28.424  40.263  12.890
68286W        W34827   4.015   2.476  10.780
68287W        W34828  34.029   0.771  14.408
68288W        W34829  41.851  36.801  12.630
68289W        W34830  17.728  29.806   0.869
68290W        W34831  14.292  12.735   2.875
68291W        W34832  23.188   5.588  11.248
68292W        W34833   6.719   1.802  11.074
68293W        W34834  39.452   7.413  10.526
68294W        W34835  15.132  32.137   0.441
68295W        W34836   6.332  30.886  11.389
68296W        W34837  36.777  43.449  13.827
68297W        W34838  19.960  43.971  13.996
68298W        W34839   2.148   6.747   2.482
68299W        W34840   7.289  32.061   0.291
68300W        W34841  23.551  20.285  10.671
68301W        W34842  13.236  35.654   4.102
68302W        W34843  17.977  32.029   4.168
68303W        W34844  13.021   4.227  11.638
68304W        W34845  27.970   0.840   3.046
68305W        W34846  16.871  30.436   2.938
68306W        W34847  37.088  11.630   1.759
68307W        W34848  10.550   5.902  14.043
68308W        W34849  20.845  32.929  13.947
68309W        W34850  22.112  20.804  13.333
68310W        W34851  16.802  20.686   2.144
68311W        W34852  44.849  26.636  13.084
68312W        W34853  26.276  41.340  12.981
68313W        W34854   1.947  42.860   1.182
68314W        W34855   3.800  31.483   2.827
68315W        W34856  24.776  30.454   2.744
68316W        W34857   9.214  12.199  12.556
68317W        W34858  40.060  16.598  12.591
68318W        W34859  13.722  42.938  10.638
68319W        W34860  24.461  40.838   2.196
68320W        W34861  31.901  19.405  11.830
68321W        W34862   7.010  25.048  13.934
68322W        W34863   1.418  14.810   3.317
68323W        W34864  18.578  32.556  13.440
68324W        W34865  33.817   1.631   4.272
68325W        W34866  32.401  14.860  12.623
68326W        W34867  21.689  11.456  14.238
68327W        W34868  20.079  13.587   0.239
68328W        W34869  38.457  34.332  14.352
68329W        W34870  32.728   2.917   0.242
68330W        W34871  19.592   1.361   4.595
68331W        W34872  38.018  19.003  12.051
68332W        W34873   5.445  20.408   1.261
68333W        W34874  42.913   2.278   4.681
68334W        W34875  10.058   7.197  11.697
68335W        W34876   9.896  19.050  10.916
68336W        W34877  28.515  27.537  12.468
68337W        W34878  42.716  23.496  14.540
68338W        W34879  30.909  28.002  10.786
68339W        W34880  26.585  34.559   1.522
68340W        W34881  19.300   8.372   0.922
68341W        W34882   9.854  18.643   1.944
68342W        W34883  38.043  31.542  11.668
68343W        W34884  23.721   8.804   3.187
68344W        W34885  15.890  11.630  10.114
68345W        W34886  16.769  42.292   1.102
68346W        W34887   5.007  43.927  10.573
68347W        W34888  32.961  20.481   3.331
68348W        W34889  24.957  43.106  11.008
68349W        W34890  27.391  21.636  11.181
68350W        W34891  25.609  36.779   0.269
68351W        W34892  25.721  28.174   0.399
68352W        W34893  12.254  24.419   2.714
68353W        W34894  10.549  27.064  10.963
68354W        W34895   0.305   8.888  12.921
68355W        W34896   7.793  24.197  11.616
68356W        W34897  23.252  19.900   2.275
68357W        W34898  25.072  29.362   0.806
68358W        W34899  39.806  31.469   3.163
68359W        W34900   5.637  16.498  12.493
68360W        W34901  27.117  22.289  14.508
68361W        W34902  20.114  35.568   1.334
68362W        W34903  11.150  32.542   1.366
68363W        W34904  33.837  17.913   1.601
68364W        W34905  33.054  10.294  14.960
68365W        W34906  14.157  11.560   4.225
68366W        W34907  25.184  17.939   1.163
68367W        W34908  10.243   5.983   0.320
68368W        W34909   2.945  27.040   0.513
68369W        W34910  32.665  31.415  11.566
68370W        W34911  39.297  27.041  11.045
68371W        W34912  33.713   7.999   3.153
68372W        W34913  17.959  12.861  12.017
68373W        W34914   2.773  15.012  12.053
68374W        W34915  27.457  27.101  13.065
68375W        W34916  31.456  29.389  10.661
68376W        W34917   3.514   8.641  13.298
68377W        W34918  37.997  44.188   1.429
68378W        W34919  34.997  43.009   2.819
68379W        W34920  33.028  12.550  13.154
68380W        W34921  29.457  25.710  11.965
68381W        W34922  22.171  10.261   4.457
68382W        W34923   5.520  41.415   0.634
68383W        W34924  25.162  40.072  12.411
68384W        W34925  12.726  25.701   3.177
68385W        W34926  18.468  31.242  10.097
68386W        W34927  26.215  44.181   3.599
68387W        W34928  22.837  38.764   4.141
68388W        W34929  20.453  39.408  12.882
68389W        W34930  14.075  23.680   3.769
68390W        W34931  14.312  36.278  10.463
68391W        W34932  23.621  18.501  14.039
68392W        W34933  25.893  34.888   0.933
68393W        W34934  42.044   1.431  11.517
68394W        W34935  18.581  32.412   2.283
68395W        W34936  32.227  29.709  11.092
68396W        W34937  20.276  24.231  12.919
68397W        W34938  18.594  39.862  13.617
68398W        W34939  11.441  16.787  11.347
68399W        W34940  35.536   8.301  12.062
68400W        W34941  39.746  10.391  14.814
68401W        W34942  11.432  32.638  14.370
68402W        W34943  23.822  15.335   4.098
68403W        W34944  16.044  15.289  10.751
68404W        W34945  38.465   3.607  14.865
68405W        W34946   7.466   7.246  14.775
68406W        W34947  35.665  25.372  12.357
68407W        W34948  10.535   7.235  12.169
68408W        W34949   1.474  42.480   2.930
68409W        W34950  34.841  10.926  13.049
68410W        W34951  17.171  44.499   0.765
68411W        W34952  12.377   1.753   1.631
68412W        W34953  31.825  32.312   3.587
68413W        W34954   0.472   7.869   2.809
68414W        W34955  17.280   2.771   0.349
68415W        W34956  26.970  14.531   1.268
68416W        W34957  31.948  28.174   3.546
68417W        W34958   1.069   6.083  10.504
68418W        W34959  41.419  26.316   4.649
68419W        W34960   7.882  15.799  13.990
68420W        W34961  20.281  14.893  10.519
68421W        W34962  19.026   3.275   2.346
68422W        W34963  29.887  26.982  10.997
68423W        W34964  13.692  33.518  10.803
68424W        W34965  17.819  23.107  13.520
68425W        W34966  32.567  11.272   3.324
68426W        W34967   0.683  15.443  14.354
68427W        W34968  37.861  25.148  12.129
68428W        W34969   5.825  28.512  12.096
68429W        W34970  22.092  33.938  14.284
68430W        W34971  41.818   9.467  12.117
68431W        W34972  40.055  20.461   3.126
68432W        W34973  27.570  15.575   2.731
68433W        W34974  27.655   2.418  12.825
68434W        W34975  16.288   8.135  13.715
68435W        W34976  34.937  20.473   4.503
68436W        W34977   7.223  10.054  10.761
68437W        W34978  27.930  36.596  14.821
68438W        W34979   3.878   4.469  10.371
68439W        W34980   1.736  12.672  12.478
68440W        W34981   9.114  12.246  10.425
68441W        W34982   6.307  43.705  11.575
68442W        W34983   4.278  13.868   2.202
68443W        W34984   3.595  16.821  11.242
68444W        W34985  12.816  38.487  12.894
68445W        W34986  10.526   8.540   4.785
68446W        W34987  24.432  37.271  13.532
68447W        W34988  32.348  41.945   3.565
68448W        W34989   3.492  37.931   2.139
68449W        W34990   6.978  30.138   1.533
68450W        W34991  22.629  35.813   1.256
68451W        W34992  27.413  23.812  11.573
68452W        W34993   0.020  28.602   0.838
68453W        W34994   1.798   7.367  12.357
68454W        W34995   5.719  40.745  12.823
68455W        W34996   7.926  17.144   1.968
68456W        W34997  37.992  23.200   2.174
68457W        W34998  39.887  31.489   1.023
68458W        W34999  36.956  13.779  10.257
68459W        W35000  23.718  15.306  13.364
68460W        W35001  23.145  41.614  13.242
68461W        W35002  36.904   4.154   1.220
68462W        W35003   6.417  16.241  11.243
68463W        W35004  34.999  34.465  11.868
68464W        W35005   8.171   7.329  10.803
68465W        W35006  11.332  15.782  11.138
68466W        W35007  19.299  32.610   2.013
68467W        W35008  22.102  39.607  12.970
68468W        W35009  26.684  37.396  12.071
68469W        W35010  27.724  40.055  14.010
68470W        W35011  30.555  35.327   2.714
68471W        W35012  15.735  23.195   0.739
68472W        W35013  35.288  31.436   0.404
68473W        W35014  28.107  25.831  11.544
68474W        W35015   0.478   4.732  14.961
68475W        W35016  33.720  23.722  13.049
68476W        W35017  20.358  16.532  11.090
68477W        W35018  25.154  31.828   4.234
68478W        W35019  14.384   0.645  10.273
68479W        W35020   8.767   5.245  13.551
68480W        W35021  16.030  11.840  11.502
68481W        W35022  17.418  29.141   4.897
68482W        W35023  13.821   0.874  11.543
68483W        W35024  38.056  36.546   0.026
68484W        W35025  20.682   3.050  12.131
68485W        W35026  21.673   3.600  12.643
68486W        W35027  20.083   1.965  14.325
68487W        W35028   7.657  12.269   0.065
68488W        W35029  28.168   9.310  13.064
68489W        W35030  17.868   2.979  13.445
68490W        W35031  20.284  20.408   1.646
68491W        W35032  32.945  37.319  14.388
68492W        W35033  35.171   6.021  13.445
68493W        W35034   8.433  12.244   1.202
68494W        W35035  40.954  26.466   3.452
68495W        W35036  15.869  18.157   0.777
68496W        W35037  13.664  43.247   2.629
68497W        W35038  36.310  12.664   0.922
68498W        W35039  16.378  23.536  11.242
68499W        W35040  13.768   6.550  14.285
68500W        W35041   1.555  20.927   2.628
68501W        W35042   9.399  23.939   2.367
68502W        W35043  17.253  42.538  11.568
68503W        W35044   7.936  32.062  11.127
68504W        W35045  10.787   6.868   2.200
68505W        W35046  11.925  36.968   1.880
68506W        W35047  31.883  33.104  11.908
68507W        W35048  24.409  38.111  13.850
68508W        W35049  12.848  32.931  10.622
68509W        W35050  43.268  43.479   3.412
68510W        W35051  24.545  10.636  11.178
68511W        W35052  42.755  15.332   0.353
68512W        W35053   2.666   4.364   3.298
68513W        W35054  26.727  29.197   3.353
68514W        W35055  11.606  44.220  14.497
68515W        W35056  40.323   5.378   2.705
68516W        W35057   7.362  18.080   0.568
68517W        W35058  30.330  22.082  11.975
68518W        W35059  33.197  39.046   2.772
68519W        W35060   6.039  25.080  14.943
68520W        W35061  16.743  14.388  10.131
68521W        W35062   8.410  39.046  10.780
68522W        W35063  28.455  31.135   1.677
68523W        W35064  29.513   6.330  11.693
68524W        W35065  20.331  29.650  11.083
68525W        W35066   1.371  37.356   1.627
68526W        W35067   0.333  34.547  10.721
68527W        W35068  29.919  16.773   3.987
68528W        W35069  10.304  19.294   3.250
68529W        W35070   1.885   6.880   4.205
68530W        W35071  24.687  39.017  12.903
68531W        W35072   3.976  39.872   3.631
68532W        W35073   2.711  26.582  11.583
68533W        W35074  23.578  28.548   3.894
68534W        W35075   7.778  26.264   4.586
68535W        W35076   2.277  22.541   0.188
68536W        W35077  40.910   6.575  14.924
68537W        W35078   7.325  19.435  12.418
68538W        W35079  22.628  39.368   0.641
68539W        W35080   1.924  41.970   1.474
68540W        W35081  12.547  17.718  12.475
68541W        W35082  34.995  42.320  12.892
68542W        W35083   1.229   8.892  10.552
68543W        W35084  25.110  40.922   4.514
68544W        W35085  30.702   1.200   2.409
68545W        W35086  38.967  20.306  12.519
68546W        W35087  42.414  16.006  13.464
68547W        W35088  20.894  29.642  11.658
68548W        W35089  16.434  15.523   2.238
68549W        W35090  37.912  13.178   3.294
68550W        W35091  19.780   1.227   0.856
68551W        W35092  42.372   0.175  14.558
68552W        W35093  20.088   0.194   2.266
68553W        W35094   5.931   5.232   4.255
68554W        W35095  13.095   3.823  14.299
68555W        W35096  14.614  13.382  11.480
68556W        W35097  27.100  30.430  11.656
68557W        W35098  25.377  33.368   3.222
68558W        W35099  23.099  15.746   2.540
68559W        W35100  37.309  22.997   2.727
68560W        W35101  39.384  28.598  12.817
68561W        W35102  36.839   1.912   3.566
68562W        W35103  38.886  21.663   0.701
68563W        W35104  33.418  34.502  12.920
68564W        W35105  13.232  18.690   2.242
68565W        W35106  24.951  30.736  13.445
68566W        W35107  11.322   7.756  14.782
68567W        W35108  23.668  31.826   4.030
68568W        W35109  20.197   1.579  13.431
68569W        W35110  42.791  20.382   4.426
68570W        W35111  25.184  14.044   4.525
68571W        W35112  28.411   5.858  12.752
68572W        W35113  28.990  15.739   3.820
68573W        W35114   6.754   6.786   2.856
68574W        W35115  13.260   1.470  12.270
68575W        W35116   9.896   4.938  10.329
68576W        W35117  11.836  26.939  13.789
68577W        W35118   9.336  36.186   2.597
68578W        W35119  17.641  23.541  12.411
68579W        W35120   7.949   3.948   1.349
68580W        W35121  29.610  36.974   1.390
68581W        W35122  37.327  17.427  12.961
68582W        W35123  33.399  44.456  11.511
68583W        W35124  16.871  18.350  12.869
68584W        W35125  41.687  37.483  11.674
68585W        W35126  31.164   2.410   2.254
68586W        W35127  40.563  13.848  14.002
68587W        W35128  33.443  42.382  13.450
68588W        W35129   4.103   3.302   4.165
68589W        W35130  35.779  14.546  10.709
68590W        W35131   4.016  34.837  13.230
68591W        W35132  12.263   1.059  14.028
68592W        W35133  43.374  42.244  14.125
68593W        W35134  22.302   3.990  10.733
68594W        W35135   3.375   5.721   0.049
68595W        W35136  39.882  23.310  14.196
68596W        W35137   7.888  17.597   1.223
68597W        W35138  18.721  43.957  12.750
68598W        W35139  20.518  10.201  14.930
68599W        W35140   1.977  12.697  10.806
68600W        W35141  23.120  13.185   2.451
68601W        W35142  33.429  15.097   0.872
68602W        W35143   8.782   4.215  14.787
68603W        W35144  39.553  24.536   4.491
68604W        W35145  37.219  14.697  14.901
68605W        W35146  12.918  14.387   1.225
68606W        W35147  19.072  16.112  13.898
68607W        W35148  13.827  22.795  12.410
68608W        W35149   5.884  19.666   0.206
68609W        W35150   8.918  28.457   2.763
68610W        W35151   8.782  22.592  13.914
68611W        W35152  15.735  12.173  10.185
68612W        W35153  39.797  28.884  11.128
68613W        W35154  33.084  13.508  10.368
68614W        W35155  16.264  18.995   0.602
68615W        W35156  27.499  25.745   3.674
68616W        W35157   7.323  28.163   4.829
68617W        W35158  25.028  28.718   2.836
68618W        W35159  10.671  16.661   1.120
68619W        W35160  24.708   7.345   4.235
68620W        W35161   0.828  23.805   0.029
68621W        W35162  33.071   7.716  14.129
68622W        W35163  41.541  36.949  14.981
68623W        W35164  32.539  19.210   4.543
68624W        W35165  37.739  12.230  14.089
68625W        W35166  24.212   4.760   2.818
68626W        W35167  25.601  18.559   0.821
68627W        W35168   8.900  25.142  13.374
68628W        W35169  44.949  22.121   4.803
68629W        W35170  39.504  25.934   1.889
68630W        W35171   5.233  24.429  12.809
68631W        W35172  32.154   6.875   1.900
68632W        W35173  34.109   9.639  11.173
68633W        W35174   7.200  32.620   4.228
68634W        W35175  39.366   6.100   0.763
68635W        W35176   2.500  27.141  12.459
68636W        W35177  17.740  20.646   2.304
68637W        W35178  22.594  31.781  14.602
68638W        W35179  25.855  35.853  12.170
68639W        W35180  41.839  12.256   4.590
68640W        W35181  23.178  43.701  14.717
68641W        W35182  19.656   4.896   0.817
68642W        W35183  36.477   8.161  11.875
68643W        W35184  11.666  32.365  13.028
68644W        W35185  25.149  34.362   3.938
68645W        W35186  25.526  22.539   3.739
68646W        W35187   9.687   1.272   3.277
68647W        W35188  33.365  11.229   3.988
68648W        W35189  17.865   9.090   3.800
68649W        W35190  43.449   8.131   1.759
68650W        W35191  23.125  33.019   1.429
68651W        W35192  15.593   7.422  10.735
68652W        W35193  35.481  33.077  11.007
68653W        W35194   8.452  35.110  13.815
68654W        W35195  27.251  13.532   2.705
68655W        W35196   6.782  19.491   4.152
68656W        W35197  34.005  43.753  14.345
68657W        W35198  43.230   0.933   3.238
68658W        W35199  36.612  41.596  11.572
68659W        W35200  44.343   9.877   4.039
68660W        W35201  36.215  35.544   3.424
68661W        W35202  25.107  13.162  12.171
68662W        W35203  34.410  43.936  14.580
68663W        W35204  37.411  20.665  13.572
68664W        W35205   2.841  22.250  14.410
68665W        W35206  10.143   0.876  11.620
68666W        W35207  22.222  18.786   3.214
68667W        W35208   8.323  37.470  14.003
68668W        W35209   6.819  37.428  10.612
68669W        W35210  11.190   2.899   0.225
68670W        W35211  10.698  18.503   2.338
68671W        W35212  36.563   1.491   1.820
68672W        W35213  28.276   3.174  14.369
68673W        W35214  18.245  29.901   0.760
68674W        W35215  12.083  35.340  11.169
68675W        W35216   1.861  18.067  14.899
68676W        W35217  38.421  30.565  14.313
68677W        W35218  39.289  13.776  11.707
68678W        W35219   6.431  32.426  12.301
68679W        W35220  37.502  13.375  14.756
68680W        W35221  12.647  27.509   4.350
68681W        W35222   8.024  21.995   1.835
68682W        W35223  29.621  20.934   2.861
68683W        W35224  16.062  10.851  13.479
68684W        W35225  40.888  26.525  13.772
68685W        W35226   1.774  23.974   1.561
68686W        W35227   3.305   5.371   4.009
68687W        W35228  42.510   0.057   4.321
68688W        W35229  26.254   6.760  12.535
68689W        W35230  41.930  11.299   3.682
68690W        W35231  34.139   4.224  14.943
68691W        W35232   5.194  42.531   1.869
68692W        W35233  33.615  21.546  11.951
68693W        W35234  11.857   2.946   0.847
68694W        W35235  31.437  10.683   4.657
68695W        W35236  39.040  42.901  14.377
68696W        W35237   5.647  22.168  11.592
68697W        W35238   1.096  13.043  14.068
68698W        W35239  33.119  44.066   2.562
68699W        W35240   2.169  17.593  12.126
68700W        W35241  30.591  42.245  13.650
68701W        W35242  31.686  39.908   2.755
68702W        W35243  14.092   9.719   3.727
68703W        W35244  11.464   8.128   4.186
68704W        W35245  25.490  33.896  13.735
68705W        W35246  21.297  12.889   3.998
68706W        W35247  19.044   4.742   1.395
68707W        W35248  31.602  41.525  11.983
68708W        W35249   2.197  33.316  10.292
68709W        W35250  36.674  33.960  13.853
68710W        W35251  25.888  16.879  14.834
68711W        W35252  42.417   8.619   0.043
68712W        W35253  37.753  12.924   1.647
68713W        W35254   2.874  27.891   4.743
68714W        W35255  28.644  38.828  13.577
68715W        W35256  20.464  30.529  14.340
68716W        W35257  17.288   5.711   1.117
68717W        W35258  32.361  27.032   3.830
68718W        W35259  31.353  31.454   2.454
68719W        W35260  33.139  39.721   4.222
68720W        W35261  24.870  19.851  11.210
68721W        W35262  44.853  35.145   4.518
68722W        W35263  27.532  25.215   4.271
68723W        W35264  26.430  31.679   3.224
68724W        W35265  40.627  16.766  12.351
68725W        W35266   3.004  44.075   1.238
68726W        W35267  17.614  29.171   2.329
68727W        W35268   2.726  16.486   1.717
68728W        W35269  38.467   6.226   1.421
68729W        W35270  15.168  20.139  14.556
68730W        W35271  39.354  12.863  14.317
68731W        W35272   0.999  31.390   2.238
68732W        W35273   9.672  13.102   3.267
68733W        W35274  36.814  39.565  14.799
68734W        W35275  33.945  20.888   1.464
68735W        W35276   7.958  42.421   3.703
68736W        W35277   1.370  30.058   3.204
68737W        W35278  28.172  10.810  10.128
68738W        W35279  37.806  31.844   1.864
68739W        W35280  29.063  34.598  14.117
68740W        W35281  16.109   6.216   1.358
68741W        W35282  36.109  44.833   2.262
68742W        W35283  24.719  30.099   1.207
68743W        W35284  13.248  14.638   4.328
68744W        W35285  40.262  42.612  11.113
68745W        W35286   1.779  33.636   1.766
68746W        W35287  37.248   1.934   3.199
68747W        W35288   4.807  43.087   0.494
68748W        W35289  38.601  34.337   1.413
68749W        W35290  42.856   3.276   1.305
68750W        W35291  17.309  30.741   9.929
68751W        W35292  21.130  33.453  14.393
68752W        W35293  26.694   6.293  10.681
68753W        W35294   7.882  12.671  11.601
68754W        W35295  17.286  41.487  14.994
68755W        W35296  30.416   2.320   1.804
68756W        W35297  43.446  43.716   2.802
68757W        W35298   1.164  14.748   2.804
68758W        W35299   8.693  39.360  12.622
68759W        W35300   4.363  30.831   4.471
68760W        W35301  36.786   3.568   3.093
68761W        W35302  23.885  17.751   2.990
68762W        W35303   4.845   8.557   1.539
68763W        W35304  43.819  12.330  10.965
68764W        W35305  37.453  35.441  10.596
68765W        W35306   8.153  39.009   0.585
68766W        W35307   1.378   3.369   4.102
68767W        W35308  39.298  21.778   4.553
68768W        W35309   0.224  16.147   3.114
68769W        W35310  42.433   0.489  14.989
68770W        W35311  16.138  39.541  13.401
68771W        W35312   7.965   1.458  12.498
68772W        W35313  11.619  21.660   1.716
68773W        W35314   6.444   0.326   1.444
68774W        W35315  13.608  15.217   2.822
68775W        W35316  44.409  35.646   3.529
68776W        W35317  33.549  24.445  10.145
68777W        W35318  39.861  44.639   1.205
68778W        W35319   2.735  29.319   0.889
68779W        W35320  16.486  44.694   4.107
68780W        W35321   2.108  18.778  13.455
68781W        W35322  22.171  36.366  14.400
68782W        W35323  22.104   1.156   0.848
68783W        W35324  17.665   5.224  12.081
68784W        W35325  37.871  40.088  11.136
68785W        W35326  23.739  41.950   1.653
68786W        W35327  28.831  15.194  14.502
68787W        W35328  38.881  28.043  13.967
68788W        W35329  33.527  34.890   1.296
68789W        W35330  38.061  25.178   0.652
68790W        W35331  32.663  25.593  10.639
68791W        W35332  44.298  20.457  11.969
68792W        W35333  35.391  43.352   0.115
68793W        W35334  11.308  24.685   1.578
68794W        W35335   7.192  32.886  11.763
68795W        W35336  17.787  21.028   0.831
68796W        W35337  43.812  25.124   0.460
68797W        W35338   6.605  15.251  12.773
68798W        W35339  14.305  23.177   3.661
68799W        W35340  35.059  28.016  14.317
68800W        W35341  28.862  26.915  11.024
68801W        W35342   3.457  35.931  11.331
68802W        W35343   9.518  23.116   3.260
68803W        W35344   5.169  44.360  14.318
68804W        W35345  26.235  42.042  12.886
68805W        W35346  10.261  11.332   2.025
68806W        W35347  10.216  17.323  11.280
68807W        W35348   8.161   0.371  14.249
68808W        W35349   3.998  43.345  12.715
68809W        W35350  11.435  41.006   0.040
68810W        W35351  40.882  37.259   2.834
68811W        W35352  31.695  24.999  12.884
68812W        W35353  30.162  28.358  11.456
68813W        W35354  25.998  21.231   3.097
68814W        W35355   9.689  29.936  14.880
68815W        W35356  37.195  29.930   3.512
68816W        W35357  34.637  43.034   1.713
68817W        W35358  41.832  44.734  14.942
68818W        W35359  27.708  39.458   3.908
68819W        W35360   6.842  21.221  12.254
68820W        W35361   3.979  12.097  14.014
68821W        W35362  21.559  21.470  14.352
68822W        W35363  15.841  23.202   3.767
68823W        W35364  40.584  17.604   3.662
68824W        W35365  31.877  14.205   1.937
68825W        W35366  16.349  33.867  10.195
68826W        W35367  32.110   3.213   2.732
68827W        W35368  36.911   9.689   2.916
68828W        W35369   6.734  22.169   0.513
68829W        W35370   6.091  41.597   4.608
68830W        W35371  18.736   5.907   3.311
68831W        W35372  33.175  30.934   2.451
68832W        W35373  44.184  25.389   1.884
68833W        W35374  44.975  39.968   3.689
68834W        W35375   5.346  44.270   4.825
68835W        W35376  19.853  24.308  12.147
68836W        W35377   0.851  21.731   0.961
68837W        W35378  22.324  27.547  13.395
68838W        W35379  35.984  17.144  12.922
68839W        W35380  22.870   0.216   3.658
68840W        W35381  40.611  33.637  12.221
68841W        W35382  41.053   2.172   4.470
68842W        W35383  44.793  14.003  13.383
68843W        W35384  31.587  35.748   0.224
68844W        W35385  12.966  33.110  12.131
68845W        W35386  14.531  40.932  11.492
68846W        W35387  30.429  16.279  11.561
68847W        W35388  21.692  40.449  14.079
68848W        W35389  21.549  31.647  11.274
68849W        W35390  22.808   9.578   0.664
68850W        W35391  29.528  44.022  14.025
68851W        W35392  29.191   3.052  11.205
68852W        W35393  31.013   0.204  10.684
68853W        W35394  44.689  35.330  11.602
68854W        W35395  24.703   3.711  11.007
68855W        W35396  17.512  35.927  11.492
68856W        W35397  12.714  21.699   2.625
68857W        W35398  33.125  31.940  14.829
68858W        W35399  13.667  11.110  11.169
68859W        W35400  17.028  40.511   1.263
68860W        W35401   4.041  38.118   4.639
68861W        W35402  43.858  17.123   3.163
68862W        W35403  20.664  38.273   3.917
68863W        W35404  38.602  20.024  10.977
68864W        W35405   0.266  24.245   1.747
68865W        W35406  38.225  13.427   4.596
68866W        W35407   0.220   0.963   4.114
68867W        W35408  40.290  20.910  14.319
68868W        W35409  34.939  29.169   3.241
68869W        W35410  16.705   5.239   1.262
68870W        W35411  38.841  18.848   2.318
68871W        W35412  19.938  33.387  10.971
68872W        W35413  35.024  39.817   0.831
68873W        W35414  11.519  23.467  12.530
68874W        W35415  23.944  14.434   1.766
68875W        W35416   9.305   0.274   1.116
68876W        W35417  29.941   3.811   3.413
68877W        W35418  37.455  20.781   0.549
68878W        W35419   1.776  30.655   0.308
68879W        W35420  17.824  34.519   4.076
68880W        W35421  14.496  26.538  13.447
68881W        W35422   5.602   9.143   1.169
68882W        W35423  26.541  15.350  13.798
68883W        W35424  18.252  27.553  11.960
68884W        W35425  27.324  20.814  13.793
68885W        W35426  30.679  42.666  10.269
68886W        W35427  38.824  31.628   2.690
68887W        W35428  27.399   4.257  11.615
68888W        W35429  38.315  10.508   0.351
68889W        W35430  11.214   1.472   2.272
68890W        W35431  16.675  17.413   2.303
68891W        W35432  26.470  28.256  13.464
68892W        W35433  28.080  25.417  10.259
68893W        W35434  42.512  15.930  12.578
68894W        W35435  24.170  31.572  12.323
68895W        W35436  25.602  25.418   3.054
68896W        W35437  16.671  28.474   1.173
68897W        W35438  36.087   7.201  12.539
68898W        W35439  11.730  13.804  13.942
68899W        W35440  28.252  10.769   1.244
68900W        W35441  15.808  34.570   2.715
68901W        W35442   7.521  42.687   1.678
68902W        W35443  10.229  37.016   3.208
68903W        W35444  20.240  34.869  12.532
68904W        W35445  17.500  17.088  14.019
68905W        W35446  12.706  14.047  14.542
68906W        W35447  39.982  14.134  14.039
68907W        W35448  34.957   5.060  10.126
68908W        W35449   4.707  12.806  14.893
68909W        W35450  20.976   5.748  14.904
68910W        W35451  35.322  36.100  13.739
68911W        W35452  29.724  40.891   1.344
68912W        W35453  28.907   8.124  13.508
68913W        W35454  35.105   3.491   1.673
68914W        W35455  26.479  28.557   4.260
68915W        W35456  29.981  43.620   3.381
68916W        W35457  44.525  24.060   1.306
68917W        W35458  33.717  15.284  14.163
68918W        W35459  28.221  32.086   4.145
68919W        W35460   0.884  21.564  12.108
68920W        W35461   0.304  29.834   2.672
68921W        W35462  39.993  14.114  12.453
68922W        W35463  14.307   4.625  13.323
68923W        W35464  27.762   1.217  11.722
68924W        W35465  36.100  24.697   4.472
68925W        W35466  44.002   5.742  14.329
68926W        W35467   7.707  18.155  10.798
68927W        W35468  16.226  36.986   2.809
68928W        W35469  35.112   6.970   1.297
68929W        W35470   9.899  20.565  10.628
68930W        W35471  42.823  17.073   3.233
68931W        W35472   7.793  13.367   2.918
68932W        W35473  10.089  17.766  14.505
68933W        W35474  16.331  21.405   0.867
68934W        W35475  37.138  31.029   0.841
68935W        W35476  33.521  13.563   2.350
68936W        W35477  42.729  17.214  12.369
68937W        W35478  22.079  20.230   1.983
68938W        W35479   4.736  20.499   0.285
68939W        W35480  33.209  37.795  14.359
68940W        W35481  41.811  10.449   3.771
68941W        W35482  23.116  15.502  14.924
68942W        W35483   3.116   5.857   2.409
68943W        W35484  14.804  23.048  11.790
68944W        W35485  28.855   4.277  12.617
68945W        W35486  14.698  24.078  14.387
68946W        W35487  14.723  18.027  13.139
68947W        W35488  33.041  39.124  13.664
68948W        W35489   6.418  11.273  11.997
68949W        W35490  17.378  34.652   0.301
68950W        W35491  13.742  11.647   0.488
68951W        W35492  13.211   0.895   3.627
68952W        W35493  38.650  23.823  12.602
68953W        W35494   3.542  12.709  12.940
68954W        W35495  27.909  18.766   3.044
68955W        W35496  34.604   5.882   0.412
68956W        W35497  40.698  41.337   0.184
68957W        W35498  31.331  41.812  12.929
68958W        W35499   9.373  26.954   3.849
68959W        W35500  40.940  13.233   0.391
68960W        W35501  38.176  21.121  12.072
68961W        W35502  40.329  37.242   2.624
68962W        W35503  37.029  28.014   0.391
68963W        W35504   4.274  24.019  12.941
68964W        W35505  22.930  15.140  12.206
68965W        W35506   8.140   8.271   0.329
68966W        W35507   2.198  16.068   3.006
68967W        W35508  43.608   7.771  11.869
68968W        W35509   7.793  33.466  14.922
68969W        W35510  11.146  17.749   4.150
68970W        W35511  14.330  37.450  14.819
68971W        W35512   3.277  30.307  12.798
68972W        W35513  34.915  26.341   1.431
68973W        W35514   9.443  18.728  12.840
68974W        W35515  11.126  15.531  14.104
68975W        W35516  20.483   2.341   0.010
68976W        W35517  10.228  38.270   9.945
68977W        W35518  31.294  17.047   9.680
68978W        W35519  11.668  30.309  14.371
68979W        W35520  18.549  14.799   0.808
68980W        W35521   4.907  27.142   3.251
68981W        W35522  31.674  31.133   0.330
68982W        W35523  32.122  19.417   3.439
68983W        W35524  37.969  13.354  10.570
68984W        W35525  34.429  26.180  13.669
68985W        W35526  22.969  15.168   2.409
68986W        W35527  12.790  29.161  10.317
68987W        W35528  33.180  27.484  13.126
68988W        W35529   1.231  25.794  13.492
68989W        W35530  31.495  33.680   3.490
68990W        W35531  35.823   1.319  10.706
68991W        W35532   9.080   3.730   3.628
68992W        W35533  17.686   7.948  14.767
68993W        W35534  18.089  36.231   0.849
68994W        W35535  25.704   1.368   3.202
68995W        W35536   9.383   2.557  11.173
68996W        W35537  16.308  12.392  13.024
68997W        W35538   1.942  28.610  10.873
68998W        W35539  29.609  24.231   0.500
68999W        W35540  33.417  37.066   0.323
69000W        W35541  26.046  16.759  13.165
69001W        W35542  37.948  32.435  12.430
69002W        W35543  34.237  18.347  12.943
69003W        W35544  19.166  27.974  12.079
69004W        W35545  37.303  43.511   0.176
69005W        W35546   4.105  20.231  12.127
69006W        W35547  31.482  19.267  12.248
69007W        W35548   6.643  15.152  11.949
69008W        W35549  21.225  18.934   1.203
69009W        W35550   3.349  19.721   0.151
69010W        W35551   8.451  11.779  12.532
69011W        W35552   3.410   7.332  10.633
69012W        W35553  39.936  28.021  14.325
69013W        W35554   5.175  44.640   1.192
69014W        W35555  31.573  28.561  13.681
69015W        W35556  13.270  30.607   2.063
69016W        W35557  42.110  33.166   1.913
69017W        W35558  25.696  21.011   9.915
69018W        W35559  16.049  16.655   4.185
69019W        W35560  34.640   3.737   0.310
69020W        W35561  13.819  11.271   1.357
69021W        W35562  18.983  39.920   1.507
69022W        W35563  35.468   9.266   2.004
69023W        W35564   7.889  36.476   4.199
69024W        W35565  17.277   4.427  11.094
69025W        W35566  33.060  30.516   0.308
69026W        W35567  15.426  35.867  13.498
69027W        W35568  10.716   5.434  14.763
69028W        W35569  24.780   9.371   0.280
69029W        W35570  19.180  44.161   0.385
69030W        W35571  39.558  23.473  12.346
69031W        W35572  41.557  25.951  12.152
69032W        W35573  33.742  27.855  10.197
69033W        W35574  44.477  12.993   0.872
69034W        W35575  10.838   1.891   0.043
69035W        W35576  19.716  33.067  12.134
69036W        W35577  18.042  10.188  12.910
69037W        W35578  18.097  32.591   2.180
69038W        W35579  32.498  31.186  12.784
69039W        W35580  22.778  20.194   4.694
69040W        W35581  37.852  40.094   4.374
69041W        W35582  31.205  44.404   1.673
69042W        W35583  21.050   9.002  10.212
69043W        W35584  35.358   5.493  14.673
69044W        W35585  33.167   6.741  13.076
69045W        W35586  31.932  18.830  11.119
69046W        W35587  34.373   6.238   5.207
69047W        W35588  27.524  43.297   1.448
69048W        W35589  35.194  28.468   0.600
69049W        W35590  22.639  33.458  14.898
69050W        W35591  21.913  20.375  13.544
69051W        W35592  33.128  43.916  11.579
69052W        W35593  19.658   0.453  12.448
69053W        W35594  27.106  22.999   4.622
69054W        W35595  44.732  21.068  12.413
69055W        W35596  15.388  23.112  13.344
69056W        W35597   9.742  12.359  14.786
69057W        W35598  35.929  25.702  10.855
69058W        W35599  43.273  20.327  14.354
69059W        W35600  34.004  19.127   0.440
69060W        W35601   4.800  34.943   1.167
69061W        W35602   6.892  23.281  13.604
69062W        W35603  10.845  35.547  11.082
69063W        W35604  17.654   7.984   0.692
69064W        W35605  23.131   7.776   1.925
69065W        W35606  44.491  27.335   0.263
69066W        W35607  34.064  40.115  12.377
69067W        W35608   5.705  38.414   0.556
69068W        W35609  13.850  22.140  11.503
69069W        W35610  11.502  21.332  14.049
69070W        W35611  20.793  43.416   2.374
69071W        W35612  24.981   8.960  12.528
69072W        W35613  16.274  12.237   1.673
69073W        W35614  20.669   0.057   2.584
69074W        W35615  10.189  44.843  13.334
69075W        W35616  44.847  33.868   1.219
69076W        W35617  10.816  27.768   4.208
69077W        W35618  21.368  18.637  14.774
69078W        W35619  43.833  29.826   4.347
69079W        W35620   3.459  12.642   4.309
69080W        W35621  30.674  27.277  10.657
69081W        W35622   2.793  34.118  10.268
69082W        W35623   6.881  24.923  12.886
69083W        W35624  32.459   5.460  14.958
69084W        W35625  40.653   4.869   3.523
69085W        W35626  25.497  35.447   1.828
69086W        W35627  35.392  32.172   0.905
69087W        W35628  23.030   7.136   1.946
69088W        W35629  38.014  38.844  12.494
69089W        W35630  32.484  17.580  11.994
69090W        W35631  21.293  23.553  10.661
69091W        W35632  14.636  40.820  10.088
69092W        W35633  23.642  24.491  13.216
69093W        W35634   4.680  21.517   0.461
69094W        W35635  25.525   4.901   4.059
69095W        W35636  13.654   3.264   4.843
69096W        W35637  35.791   5.028  13.523
69097W        W35638  29.316  15.769   2.966
69098W        W35639  41.811  39.112   0.779
69099W        W35640  39.448  33.360   4.031
69100W        W35641  36.583  13.129   4.129
69101W        W35642   8.030  27.129   0.267
69102W        W35643  22.052   9.355  12.271
69103W        W35644  17.770  14.695   1.528
69104W        W35645  17.347  10.695  10.538
69105W        W35646  27.221   8.482  12.372
69106W        W35647  18.788  30.835   2.255
69107W        W35648   7.889  32.052   1.407
69108W        W35649   2.755  43.012  12.025
69109W        W35650   1.664  20.628  14.068
69110W        W35651  20.536  38.205   2.831
69111W        W35652  33.187   5.548  10.564
69112W        W35653  16.545  36.054  11.153
69113W        W35654  35.928   8.079  14.323
69114W        W35655  44.879  38.626  11.956
69115W        W35656  13.805  29.915  13.377
69116W        W35657  22.342  25.211   1.249
69117W        W35658  42.751   9.191   2.658
69118W        W35659  44.824   5.114  10.671
69119W        W35660  11.560  44.099  11.058
69120W        W35661  15.644  24.143  13.318
69121W        W35662   6.072  23.388  11.122
69122W        W35663  30.651  38.759  14.786
69123W        W35664   6.729  14.758  10.978
69124W        W35665  28.386  38.870   4.229
69125W        W35666  36.549   9.024  12.264
69126W        W35667  39.427  19.787  12.931
69127W        W35668   9.223  17.197  14.167
69128W        W35669  42.245  17.881  12.551
69129W        W35670   2.755  26.438  12.477
69130W        W35671  18.643  37.644  12.945
69131W        W35672  14.722  35.996   1.042
69132W        W35673  19.123  12.289   1.878
69133W        W35674  10.841  42.690  13.946
69134W        W35675  18.763  29.623   1.798
69135W        W35676  27.685  18.739  13.054
69136W        W35677  41.509   6.726   3.186
69137W        W35678   2.905   0.544  11.967
69138W        W35679  36.421   8.027   2.741
69139W        W35680  35.384  34.205  13.349
69140W        W35681  23.167  27.250   3.742
69141W        W35682  12.064   9.308   0.086
69142W        W35683  19.166   7.754  10.535
69143W        W35684  29.596   2.817   3.352
69144W        W35685   2.548   2.037   1.765
69145W        W35686  36.990  13.696   2.505
69146W        W35687  35.895  43.306  11.205
69147W        W35688   1.932  31.022   2.625
69148W        W35689  22.341  24.983  11.926
69149W        W35690  40.866  26.623   2.961
69150W        W35691  34.374  41.346   4.137
69151W        W35692  40.016  28.074  10.709
69152W        W35693  17.138  23.167  11.795
69153W        W35694  31.067  40.828  12.075
69154W        W35695  10.152  28.054   1.956
69155W        W35696   0.818  16.976   4.228
69156W        W35697  14.768  25.572  14.416
69157W        W35698  10.446  42.424  14.204
69158W        W35699  33.989   9.659  14.851
69159W        W35700  14.763  20.591   2.736
69160W        W35701  35.490   3.703  14.937
69161W        W35702  34.981  21.841  14.386
69162W        W35703   2.312   7.093  14.954
69163W        W35704   5.033  11.539  14.574
69164W        W35705  40.668   3.962   1.781
69165W        W35706  11.212  29.999   1.408
69166W        W35707  31.434  10.117  11.154
69167W        W35708  23.640   2.743  13.384
69168W        W35709  29.718  34.471   2.693
69169W        W35710   6.520  44.869  10.309
69170W        W35711  28.858  41.310   4.060
69171W        W35712  18.216  17.056   2.161
69172W        W35713  37.974  35.124   0.336
69173W        W35714  31.813  33.701  13.493
69174W        W35715  36.260   8.703   3.930
69175W        W35716  39.954   8.605   1.260
69176W        W35717   7.684   8.627   4.546
69177W        W35718   5.069  25.703   2.235
69178W        W35719  13.839  28.456  10.693
69179W        W35720   0.020  20.257  13.676
69180W        W35721  33.424  38.459  11.706
69181W        W35722   8.950   5.127  14.993
69182W        W35723   9.425  41.905   0.260
69183W        W35724  22.327   4.354  13.723
69184W        W35725   9.573  36.875   0.650
69185W        W35726  23.059  23.211  13.567
69186W        W35727  20.023  21.253  13.372
69187W        W35728   8.691  22.966   4.250
69188W        W35729  20.838  44.971   2.103
69189W        W35730  34.509  30.412  13.028
69190W        W35731  16.593  10.912  13.414
69191W        W35732  40.511  27.443   2.674
69192W        W35733  30.406   5.190  10.831
69193W        W35734  30.531  33.370   1.443
69194W        W35735  36.577  14.297   3.807
69195W        W35736  11.006  32.853  12.148
69196W        W35737  21.674  16.052  13.286
69197W        W35738  41.262  40.492  10.610
69198W        W35739   2.270  13.246  10.844
69199W        W35740   7.743  23.504  12.510
69200W        W35741  43.843  29.957   1.899
69201W        W35742  32.214   9.952   0.367
69202W        W35743  37.013  24.109   1.768
69203W        W35744  36.248  29.635  14.361
69204W        W35745  34.701   0.120   1.854
69205W        W35746  41.875   7.076   4.646
69206W        W35747  44.844  28.627  14.441
69207W        W35748   5.731  40.044   4.201
69208W        W35749  31.201  18.193   2.302
69209W        W35750  33.060  20.262  14.604
69210W        W35751  33.431  32.726  13.929
69211W        W35752  26.125  38.010  14.433
69212W        W35753  21.787  30.538  10.760
69213W        W35754  14.250  21.396   2.571
69214W        W35755  28.159  30.759  13.421
69215W        W35756  17.084  41.895  14.304
69216W        W35757   4.709   2.792   1.807
69217W        W35758   2.777  41.561   1.481
69218W        W35759   3.925  19.017   3.730
69219W        W35760  21.274  41.864  10.547
69220W        W35761  19.462   5.532   5.017
69221W        W35762  14.729  26.487  12.976
69222W        W35763  20.220  38.472  13.235
69223W        W35764   7.023  20.301   0.875
69224W        W35765  34.549  29.575  13.467
69225W        W35766  37.773  34.773  12.903
69226W        W35767  18.179   5.158   2.415
69227W        W35768  32.365  29.943  11.552
69228W        W35769  14.830   1.936   3.091
69229W        W35770  19.194  28.482  12.073
69230W        W35771  17.417  13.549  12.175
69231W        W35772  26.622  10.660   0.883
69232W        W35773  42.536  42.589   2.681
69233W        W35774  37.902   3.474  14.915
69234W        W35775  14.771  34.147  10.357
69235W        W35776  24.599  26.108   3.363
69236W        W35777  22.779   7.972  12.582
69237W        W35778   8.805  28.106   4.688
69238W        W35779  25.696  21.111   0.154
69239W        W35780  30.430  25.593   1.771
69240W        W35781  16.180  18.239   4.207
69241W        W35782  33.972  39.472  11.542
69242W        W35783   7.651   2.834  14.946
69243W        W35784   9.405  19.124  13.539
69244W        W35785   7.769  16.341   3.428
69245W        W35786  31.934  44.801   4.794
69246W        W35787  20.827  42.019   3.579
69247W        W35788  20.305  44.105  13.192
69248W        W35789   0.172   0.033   0.937
69249W        W35790  44.803  40.203  14.083
69250W        W35791  34.920   8.210  14.324
69251W        W35792   1.522  36.925  10.656
69252W        W35793   4.643  14.339   0.936
69253W        W35794  25.575   0.551  12.079
69254W        W35795   8.470   5.498  11.112
69255W        W35796  34.377   6.006   3.842
69256W        W35797  14.905  22.214  12.199
69257W        W35798   9.804   5.265   0.220
69258W        W35799   2.801  10.063  14.925
69259W        W35800  36.255   3.239  11.498
69260W        W35801  28.066  20.086  12.904
69261W        W35802  44.866  32.672   1.840
69262W        W35803  43.987  15.132   0.414
69263W        W35804  36.281  40.014  12.500
69264W        W35805  31.883   5.267   3.209
69265W        W35806  39.051   2.696   4.254
69266W        W35807  21.234   3.750   2.900
69267W        W35808   0.481  24.321  10.666
69268W        W35809   6.970  39.690  13.022
69269W        W35810  24.583  26.549   0.299
69270W        W35811   4.944   3.474   2.104
69271W        W35812  18.604  20.749   2.356
69272W        W35813  23.915  12.760  14.981
69273W        W35814  40.906  35.132   0.268
69274W        W35815   7.212  41.158   1.671
69275W        W35816  19.014  38.927  11.029
69276W        W35817  39.488  28.078  14.733
69277W        W35818   0.036  10.778  12.371
69278W        W35819  39.343  40.362  14.678
69279W        W35820  23.456   5.475   2.219
69280W        W35821  30.086   0.979  13.854
69281W        W35822  31.504  39.940  11.497
69282W        W35823  36.699  42.431   5.008
69283W        W35824   9.138  37.630  14.981
69284W        W35825  27.657  43.924  13.454
69285W        W35826  39.757   0.072   4.249
69286W        W35827  18.483  42.994  11.209
69287W        W35828  37.313  15.375   3.632
69288W        W35829   7.634  37.410  13.416
69289W        W35830  25.360   2.571  12.529
69290W        W35831  29.079   4.044   2.637
69291W        W35832  39.322   0.660   3.599
69292W        W35833  10.583  44.549  13.194
69293W        W35834  38.043  39.168  10.264
69294W        W35835   7.151  41.198  13.878
69295W        W35836  38.996  24.689  13.588
69296W        W35837  15.718   9.663   1.453
69297W        W35838  19.298  40.212  13.303
69298W        W35839   7.066  37.672   4.539
69299W        W35840  31.956  34.514  10.172
69300W        W35841  43.900   1.016  11.827
69301W        W35842   5.081  22.132   4.123
69302W        W35843  19.942  32.406   4.710
69303W        W35844  36.355  29.488  14.900
69304W        W35845   0.320   8.098  11.670
69305W        W35846  24.394   2.072   0.110
69306W        W35847  16.802  40.465   2.442
69307W        W35848  16.330  37.545   2.860
69308W        W35849  43.382   7.859  13.753
69309W        W35850   2.508  43.297  11.681
69310W        W35851   4.531  33.011  12.213
69311W        W35852  44.966  43.403   3.143
69312W        W35853  32.128  20.805  10.675
69313W        W35854  37.665   0.870   2.258
69314W        W35855  42.780  15.660  11.561
69315W        W35856   6.090  13.840   3.353
69316W        W35857  34.642  12.149   1.797
69317W        W35858   1.291   6.811   2.176
69318W        W35859  16.139  31.615   2.778
69319W        W35860   4.631   7.847  13.389
69320W        W35861  34.648  36.517  14.228
69321W        W35862  37.288  26.583  13.168
69322W        W35863  14.853  39.530  11.085
69323W        W35864  11.763  42.006  14.737
69324W        W35865  29.172   8.772  12.902
69325W        W35866  30.894  16.829  13.822
69326W        W35867  30.060   7.075  11.494
69327W        W35868  22.222  35.815   0.934
69328W        W35869  28.198  44.600   1.546
69329W        W35870   7.218  43.140  14.453
69330W        W35871  38.303  36.632   2.971
69331W        W35872  39.520   0.478   4.612
69332W        W35873  21.004   5.998   3.675
69333W        W35874   8.154  27.196  11.658
69334W        W35875  17.359   8.471   4.829
69335W        W35876  26.714   4.248   0.509
69336W        W35877  11.607  10.016  13.469
69337W        W35878  40.420  13.369   0.369
69338W        W35879   6.836  37.813   2.895
69339W        W35880  36.485  24.226   4.520
69340W        W35881  28.165  16.176   0.727
69341W        W35882   8.737  35.913   1.215
69342W        W35883   8.356   1.813  12.947
69343W        W35884  10.650  16.712   0.119
69344W        W35885  13.399  21.318   4.203
69345W        W35886   0.866   2.042  12.046
69346W        W35887  16.702   5.235  14.844
69347W        W35888   6.734  24.054   1.894
69348W        W35889  32.213  10.467   0.292
69349W        W35890  24.961  20.214   4.205
69350W        W35891  28.243  34.619   4.000
69351W        W35892  37.669  27.452  10.729
69352W        W35893  21.081   5.747  12.048
69353W        W35894  30.696  29.098   4.103
69354W        W35895  35.059  17.958   0.734
69355W        W35896   9.670  25.689   0.450
69356W        W35897  36.199  24.947  10.354
69357W        W35898  31.136   6.365  10.107
69358W        W35899  18.788  42.781  11.799
69359W        W35900  36.061  16.596  12.019
69360W        W35901  27.879  44.960   4.070
69361W        W35902   1.095  27.582  11.475
69362W        W35903  11.571  27.081   1.864
69363W        W35904  18.514  21.748   2.256
69364W        W35905  25.979  37.861   1.709
69365W        W35906  15.127  36.808  13.321
69366W        W35907  18.107   3.229  12.053
69367W        W35908  28.250  27.930   4.501
69368W        W35909  33.365  36.068  12.973
69369W        W35910  33.171  40.882   3.694
69370W        W35911  30.891  40.637  11.117
69371W        W35912  31.015  15.213  14.933
69372W        W35913  29.472  20.311  13.110
69373W        W35914   0.798  10.195  13.673
69374W        W35915  44.783  28.718   2.332
69375W        W35916  18.559  15.787  12.261
69376W        W35917  33.345  35.843   4.484
69377W        W35918  24.183  38.835   1.940
69378W        W35919  12.375  41.423  12.070
69379W        W35920   3.269  41.296   3.275
69380W        W35921  20.307  13.483   2.581
69381W        W35922  26.644   4.281   1.417
69382W        W35923  24.936  33.960  12.510
69383W        W35924   1.740  30.728  12.057
69384W        W35925  31.559  43.667   1.219
69385W        W35926  31.454  26.675   0.109
69386W        W35927  18.606  34.219  12.157
69387W        W35928  44.763   1.057   3.914
69388W        W35929  16.826  32.217   2.697
69389W        W35930   2.981  40.836   1.970
69390W        W35931  15.875  19.566  14.987
69391W        W35932  34.025  26.419  10.673
69392W        W35933  32.830  33.302   0.766
69393W        W35934  16.017  25.917  14.741
69394W        W35935  27.842  11.661  11.463
69395W        W35936  27.641  21.980   0.855
69396W        W35937  10.345   2.888   1.450
69397W        W35938  19.308  20.459   4.163
69398W        W35939  39.005  26.078  10.106
69399W        W35940   6.100  44.438   4.973
69400W        W35941  28.250   6.801   1.775
69401W        W35942  14.761   1.763  14.105
69402W        W35943   5.462  15.293   4.501
69403W        W35944  43.473  43.849  11.962
69404W        W35945   5.793   5.426   2.484
69405W        W35946  15.965  11.172  14.100
69406W        W35947  15.548  20.487  12.510
69407W        W35948   8.759  42.892  11.070
69408W        W35949   0.899   1.570  12.296
69409W        W35950  42.931  42.166  14.357
69410W        W35951  28.409  15.244   2.732
69411W        W35952  23.453  11.814   3.212
69412W        W35953  20.255  18.847  11.686
69413W        W35954  31.659  34.594  13.551
69414W        W35955  11.347  27.659   2.625
69415W        W35956   7.783  18.102  11.692
69416W        W35957  29.132  12.789  12.871
69417W        W35958  13.563  17.295   2.862
69418W        W35959  14.878  13.444   5.091
69419W        W35960   3.903  38.908   3.637
69420W        W35961  39.174   7.562   3.088
69421W        W35962  24.803  11.122   4.538
69422W        W35963  13.768   2.380  10.287
69423W        W35964  40.418  18.729  12.687
69424W        W35965   7.903  18.919   0.424
69425W        W35966   5.458  36.159  12.885
69426W        W35967  40.669   4.523  12.064
69427W        W35968  42.517  37.939   1.881
69428W        W35969  36.690  19.187   2.775
69429W        W35970  43.553   3.957   1.006
69430W        W35971  27.348  32.890   1.419
69431W        W35972  44.328  34.125   2.198
69432W        W35973  37.721   0.480  13.582
69433W        W35974  20.994  32.132  10.123
69434W        W35975  22.370  31.944  11.950
69435W        W35976  12.161  25.119  12.001
69436W        W35977   7.742   6.252  11.521
69437W        W35978  32.002   7.086  11.962
69438W        W35979  36.294   9.445   3.242
69439W        W35980  18.879  34.801   1.407
69440W        W35981  17.685   2.934   1.503
69441W        W35982  38.333   2.984   1.208
69442W        W35983  33.841  39.401  13.407
69443W        W35984  11.392  10.865  13.052
69444W        W35985  27.095  33.070   1.847
69445W        W35986  13.747  40.757  12.597
69446W        W35987   0.380   8.906  11.141
69447W        W35988   2.981  25.969   3.568
69448W        W35989   5.772  42.714  13.609
69449W        W35990   1.163  29.717  12.898
69450W        W35991  43.804  22.746  13.901
69451W        W35992  20.548  17.053   3.222
69452W        W35993   8.157  14.292   3.998
69453W        W35994  31.452  21.595   4.582
69454W        W35995  34.080  24.988   3.234
69455W        W35996  32.117  13.212   2.317
69456W        W35997  10.321  41.717   3.773
69457W        W35998  11.323  27.565   3.195
69458W        W35999   6.143  28.564   3.641
69459W        W36000   8.172  39.021   2.984
69460W        W36001  30.548   5.888  11.592
69461W        W36002  32.013   8.895  10.595
69462W        W36003  38.791  39.931  14.806
69463W        W36004  43.043  19.554   3.744
69464W        W36005  12.445  12.426  13.382
69465W        W36006   2.995   0.317   1.846
69466W        W36007  17.131   1.737  10.954
69467W        W36008  14.270  30.863  14.552
69468W        W36009  43.040  13.622   2.449
69469W        W36010  32.925  27.731  14.907
69470W        W36011   8.506  16.844  10.573
69471W        W36012  40.303  33.148  13.060
69472W        W36013  27.134   9.406  14.114
69473W        W36014  38.733   3.869  10.049
69474W        W36015  43.854  23.146   2.896
69475W        W36016  40.951   5.670   3.385
69476W        W36017  24.544  16.515  12.164
69477W        W36018  43.863  35.600   0.827
69478W        W36019   0.000  28.478  12.032
69479W        W36020  24.518  25.286  14.438
69480W        W36021  42.800   2.189  11.437
69481W        W36022  28.304  17.108   3.169
69482W        W36023   3.688  28.708   5.306
69483W        W36024  36.411  10.738   2.410
69484W        W36025  21.006   9.152   0.173
69485W        W36026  14.118  29.991   3.966
69486W        W36027  31.163  36.945   3.193
69487W        W36028   8.726  39.493   2.659
69488W        W36029  44.546  10.191  14.487
69489W        W36030  37.048  28.722  12.927
69490W        W36031  40.921  35.585  14.635
69491W        W36032   1.102  13.369  14.852
69492W        W36033  19.781  26.277   5.195
69493W        W36034  39.735  40.385  10.736
69494W        W36035  43.765  19.099  10.419
69495W        W36036  23.573  21.161   2.872
69496W        W36037  29.039   3.915  13.854
69497W        W36038  35.416   0.729  13.089
69498W        W36039   4.711  41.070  11.246
69499W        W36040  36.574   5.848  11.785
69500W        W36041  38.055  25.650   2.850
69501W        W36042  29.448  20.998  10.948
69502W        W36043   3.522  31.700  13.070
69503W        W36044   6.419  22.107  13.036
69504W        W36045  38.337  40.734   0.619
69505W        W36046  37.759   5.916  14.963
69506W        W36047  35.977  31.163   2.129
69507W        W36048  39.315   2.323  11.085
69508W        W36049  14.178  37.033  12.615
69509W        W36050  31.916  39.792   2.298
69510W        W36051   0.497   2.841  10.674
69511W        W36052  22.667  12.608  12.057
69512W        W36053  26.808  44.284   4.526
69513W        W36054  23.223  28.606  13.046
69514W        W36055  38.370  26.266  13.146
69515W        W36056  14.735  13.173   2.193
69516W        W36057  36.226   5.302  13.469
69517W        W36058   8.819   8.148   1.870
69518W        W36059  17.071   1.371   1.143
69519W        W36060   9.385   1.556  10.338
69520W        W36061  22.493  16.322  11.125
69521W        W36062  27.735   1.714  11.822
69522W        W36063   2.950   8.266  13.860
69523W        W36064  14.716  10.735  10.425
69524W        W36065  19.842   2.871  14.890
69525W        W36066  41.466  29.602   2.411
69526W        W36067  25.484  23.129   3.065
69527W        W36068  39.913   9.093  11.175
69528W        W36069  34.369  26.692   0.590
69529W        W36070   6.294  31.009  11.875
69530W        W36071   5.706   1.755  14.838
69531W        W36072  12.584  34.357   0.874
69532W        W36073  38.447  25.696  10.618
69533W        W36074   7.228  13.353  14.460
69534W        W36075   9.374  32.780   2.181
69535W        W36076  15.874  28.645  12.148
69536W        W36077   8.401  41.052   0.374
69537W        W36078  36.409  32.564   2.916
69538W        W36079   4.584   8.866   2.376
69539W        W36080   3.537  18.701   4.060
69540W        W36081  27.609   2.536   4.516
69541W        W36082  29.336  43.965  12.184
69542W        W36083   6.913  12.873  14.234
69543W        W36084   0.404  40.320   4.895
69544W        W36085   5.432  33.632  11.715
69545W        W36086   6.917  20.719  12.986
69546W        W36087   9.540   4.814   3.790
69547W        W36088   8.186   8.133  10.590
69548W        W36089  37.458  34.143   4.664
69549W        W36090  21.827  31.031   3.902
69550W        W36091  38.048  25.230  14.723
69551W        W36092  32.681   1.654  14.862
69552W        W36093   0.332  35.637   1.104
69553W        W36094   5.711   9.518   1.853
69554W        W36095  32.909  42.376  13.537
69555W        W36096  37.551  20.149   4.628
69556W        W36097  21.205  20.159  10.774
69557W        W36098   8.128  42.946  11.024
69558W        W36099  30.788  39.943   3.773
69559W        W36100  22.239  43.944   4.832
69560W        W36101  31.938   6.926   4.287
69561W        W36102  43.820   8.782   2.808
69562W        W36103  34.143   7.383  12.576
69563W        W36104   6.559  16.084  12.476
69564W        W36105  11.717  10.953  14.271
69565W        W36106  13.320  35.617  14.085
69566W        W36107  40.916  17.125  14.975
69567W        W36108  21.581  15.290   3.564
69568W        W36109  26.929  36.426   3.640
69569W        W36110   6.627  18.064  11.705
69570W        W36111  26.449  39.998  14.486
69571W        W36112  20.889  25.109  11.442
69572W        W36113  14.144   6.046  10.786
69573W        W36114  14.417  38.015  10.528
69574W        W36115  14.774  13.747  13.813
69575W        W36116  19.801  34.899  11.608
69576W        W36117  20.396   0.236   4.337
69577W        W36118   2.026  19.690  12.369
69578W        W36119  29.957  39.009   3.406
69579W        W36120  39.427   7.119   1.720
69580W        W36121  38.809  43.842  14.422
69581W        W36122   0.370  32.515  13.798
69582W        W36123  38.046  35.374   3.471
69583W        W36124  13.739   2.777   3.635
69584W        W36125  17.473  39.719   1.237
69585W        W36126   4.385  23.251  13.966
69586W        W36127   1.216  13.618   1.066
69587W        W36128  31.566  22.495   2.696
69588W        W36129  36.453  40.566  14.010
69589W        W36130  40.431  29.464   0.394
69590W        W36131  34.848  30.078   2.395
69591W        W36132  31.816  34.915  11.903
69592W        W36133   6.891  28.505  14.747
69593W        W36134  29.014  25.086  12.327
69594W        W36135   3.731  34.779   4.557
69595W        W36136  15.806  21.056  14.790
69596W        W36137   6.227  26.216   0.954
69597W        W36138   4.302  23.495   3.671
69598W        W36139   6.877  41.114  13.451
69599W        W36140  31.172  38.606  11.414
69600W        W36141  32.656  21.775  13.000
69601W        W36142  11.145   6.308  11.573
69602W        W36143  11.609  42.472  14.956
69603W        W36144   8.587   4.704   1.627
69604W        W36145  35.839   9.317   4.069
69605W        W36146  32.126  33.470   4.364
69606W        W36147   0.320   9.142   3.651
69607W        W36148  29.889  24.760  12.595
69608W        W36149  30.143  42.029  10.865
69609W        W36150  15.726  18.809   2.829
69610W        W36151   7.947  11.640  13.383
69611W        W36152  12.344   9.411  13.255
69612W        W36153  41.729  18.702   4.794
69613W        W36154  37.580   1.307   3.830
69614W        W36155  14.221  44.929   4.411
69615W        W36156  41.517  17.832  10.943
69616W        W36157  26.254  16.009  13.349
69617W        W36158  36.809  25.467  14.251
69618W        W36159  24.980   2.263  14.451
69619W        W36160  35.443  12.311   0.482
69620W        W36161  16.807  29.593   1.716
69621W        W36162  43.371  35.249   3.323
69622W        W36163   3.899  35.421  13.909
69623W        W36164  25.697   4.988   4.931
69624W        W36165  19.557  43.745   2.195
69625W        W36166  35.859  10.907  12.471
69626W        W36167  25.804  42.711   4.498
69627W        W36168  27.404  36.242   3.790
69628W        W36169   7.242  33.552   5.054
69629W        W36170  33.476  15.209  14.948
69630W        W36171  31.072   7.427   1.321
69631W        W36172  37.389  38.290   1.359
69632W        W36173  10.799  22.169  13.543
69633W        W36174  27.435  13.794  13.444
69634W        W36175  33.638  12.211  12.628
69635W        W36176  25.902   4.744  13.142
69636W        W36177  24.261  22.191   3.506
69637W        W36178   0.339   2.907   1.345
69638W        W36179  44.992  11.961   1.614
69639W        W36180   1.660  41.954  12.113
69640W        W36181  38.093  42.598   4.618
69641W        W36182  35.027  30.159  10.356
69642W        W36183  10.155   0.455   1.107
69643W        W36184  23.272  43.386   3.856
69644W        W36185  29.351  37.193   0.944
69645W        W36186  20.177  39.885   0.334
69646W        W36187  11.685   6.443  12.483
69647W        W36188  43.337  20.689   3.907
69648W        W36189   4.346  36.782  14.006
69649W        W36190  29.754  13.667   0.218
69650W        W36191   2.990  10.987  10.819
69651W        W36192  40.336  23.698  11.253
69652W        W36193  26.627   5.404  14.383
69653W        W36194  19.117  43.077  14.347
69654W        W36195  13.993  26.950  10.680
69655W        W36196  23.399  10.112   2.801
69656W        W36197   5.224  17.580   4.085
69657W        W36198   9.921   1.272   2.818
69658W        W36199  37.005  18.066   2.168
69659W        W36200  23.721   1.387  13.372
69660W        W36201   2.844   6.628   0.416
69661W        W36202  24.016  25.254   2.067
69662W        W36203  23.484   1.431  13.893
69663W        W36204   4.638  37.502  10.805
69664W        W36205  41.339  14.380   2.650
69665W        W36206  16.219  10.198   0.786
69666W        W36207   9.673  15.441   4.867
69667W        W36208  25.893   3.893   0.002
69668W        W36209  18.154  23.295  11.176
69669W        W36210  16.991   1.416   1.650
69670W        W36211   0.706  43.656  12.110
69671W        W36212  21.223  44.775  12.027
69672W        W36213  32.532   8.850  10.449
69673W        W36214  43.737  14.523   4.992
69674W        W36215  25.748  16.708   1.281
69675W        W36216  12.860  32.931   0.092
69676W        W36217  29.428   0.185  11.111
69677W        W36218   8.231  21.695   1.457
69678W        W36219  36.260  42.955  11.063
69679W        W36220  20.537   6.711  13.429
69680W        W36221  27.084  14.163  14.226
69681W        W36222  24.419   6.200  11.621
69682W        W36223   3.611  43.051   1.752
69683W        W36224  11.028  19.731  14.580
69684W        W36225   3.959  34.333   1.717
69685W        W36226  19.766  36.604   0.210
69686W        W36227   0.181  20.152   3.225
69687W        W36228  17.554  39.962   1.961
69688W        W36229  43.310  28.172  10.693
69689W        W36230  30.571   3.356  14.859
69690W        W36231  43.915  43.260  13.506
69691W        W36232  21.787  36.963  14.799
69692W        W36233  16.770  20.201   0.750
69693W        W36234  18.837   2.648   3.524
69694W        W36235   9.459  11.316   1.335
69695W        W36236   0.414  20.587  13.550
69696W        W36237  35.653  38.494  10.696
69697W        W36238  30.974  18.869   1.565
69698W        W36239  11.028  22.021   0.277
69699W        W36240  16.567  30.376   1.961
69700W        W36241   9.710  39.373   3.789
69701W        W36242   2.922  15.398   0.799
69702W        W36243   3.192  44.458  13.151
69703W        W36244  14.190  12.024  11.430
69704W        W36245  42.071  16.500  14.940
69705W        W36246  43.004  32.680  11.944
69706W        W36247  42.174  42.813  10.262
69707W        W36248  31.133  22.478   0.020
69708W        W36249  27.121  35.632  13.473
69709W        W36250   9.803  42.306  11.459
69710W        W36251   2.642  21.252  12.811
69711W        W36252  27.224   1.202   4.319
69712W        W36253  15.361  12.428   1.812
69713W        W36254  10.312  37.089   1.662
69714W        W36255  42.272   4.783  13.518
69715W        W36256  29.052  41.912   1.198
69716W        W36257  24.587  24.032  14.885
69717W        W36258  17.511  26.668  13.319
69718W        W36259  36.128  28.115  13.222
69719W        W36260  22.779  38.207   4.165
69720W        W36261   9.779  35.750   0.294
69721W        W36262  17.249  17.234   3.153
69722W        W36263  10.149  41.817  12.823
69723W        W36264  14.385   6.131  11.949
69724W        W36265  30.897  14.138  13.407
69725W        W36266   2.382   0.897   1.187
69726W        W36267  32.428  14.352  11.558
69727W        W36268  31.380   1.697  13.831
69728W        W36269  22.165  29.952  14.168
69729W        W36270   7.205  38.928   1.490
69730W        W36271  33.492  25.517  13.424
69731W        W36272  15.720   2.906   4.555
69732W        W36273  43.903  43.060   0.153
69733W        W36274  30.964  17.270   3.330
69734W        W36275  11.385   4.220  11.733
69735W        W36276   4.315   5.082   0.422
69736W        W36277  39.062  28.367   1.279
69737W        W36278  37.631  32.866   3.706
69738W        W36279  14.018  18.621  14.316
69739W        W36280   6.967  31.799   1.872
69740W        W36281   8.878  28.154   1.757
69741W        W36282  26.193  27.508  12.808
69742W        W36283  16.704  31.724  14.439
69743W        W36284   3.953  15.344   0.356
69744W        W36285  25.238  15.667  13.419
69745W        W36286  34.896   3.683   5.023
69746W        W36287  42.408  20.177   3.061
69747W        W36288  17.919  42.297  11.382
69748W        W36289  39.536  13.561   3.645
69749W        W36290  25.167  38.318  14.784
69750W        W36291  38.961  22.403  11.632
69751W        W36292  26.181  36.461  10.580
69752W        W36293  19.575  22.123  14.384
69753W        W36294  32.545  11.251  11.123
69754W        W36295   6.658  22.996   3.124
69755W        W36296   5.268  44.956  14.426
69756W        W36297   9.767  36.412   1.969
69757W        W36298  28.603  33.827  11.132
69758W        W36299   8.195  36.657   2.816
69759W        W36300  28.052  11.701   4.040
69760W        W36301  32.257  31.070  14.596
69761W        W36302  41.093  11.845  12.931
69762W        W36303  11.811  10.966  11.481
69763W        W36304  21.442   3.333   3.664
69764W        W36305  14.901  23.070   0.078
69765W        W36306  17.125  15.864  13.378
69766W        W36307  10.884  37.941   2.214
69767W        W36308   9.848  17.074  10.982
69768W        W36309  28.125  16.031  12.672
69769W        W36310   0.853   8.793   0.467
69770W        W36311  39.023  27.340  14.839
69771W        W36312  21.452  23.016   3.498
69772W        W36313  31.422  18.769  12.368
69773W        W36314  36.496  24.776   1.398
69774W        W36315   5.115  40.523   3.960
69775W        W36316  38.498  23.651   4.280
69776W        W36317  42.239  15.648   3.788
69777W        W36318  31.552  27.241   0.943
69778W        W36319  24.489  22.035   3.081
69779W        W36320  24.052  24.657  12.421
69780W        W36321   6.308  29.478  11.089
69781W        W36322  16.819  17.182  13.445
69782W        W36323   8.221  10.700  12.006
69783W        W36324   5.654  15.564   0.900
69784W        W36325  36.300  40.253   1.201
69785W        W36326  14.265  36.344   3.841
69786W        W36327  26.316  33.913  12.074
69787W        W36328  24.455  44.243   2.333
69788W        W36329   8.142  40.944   5.522
69789W        W36330   2.018  27.665   4.801
69790W        W36331   7.249  42.426  10.698
69791W        W36332  21.950  28.331   2.288
69792W        W36333  27.424  36.323   0.519
69793W        W36334  44.459  28.644   3.156
69794W        W36335  19.647  37.102   3.695
69795W        W36336  24.917   6.927  14.849
69796W        W36337  11.256  15.080  14.832
69797W        W36338  19.164  25.053  13.138
69798W        W36339  25.138  32.566   2.385
69799W        W36340  14.048  17.405   4.137
69800W        W36341   7.376  38.111   0.960
69801W        W36342  12.302  26.734  12.764
69802W        W36343  22.734  11.680   0.229
69803W        W36344  37.027   6.459   4.315
69804W        W36345  43.282  27.496  12.959
69805W        W36346  29.503   0.915  14.436
69806W        W36347  31.860  17.739  13.344
69807W        W36348  31.902  38.577   2.725
69808W        W36349  14.403  18.083  11.140
69809W        W36350  12.835  10.206   2.304
69810W        W36351  11.342  42.011   0.069
69811W        W36352  34.680  20.273  12.220
69812W        W36353  39.849   4.273   3.209
69813W        W36354  11.351   0.846  14.786
69814W        W36355   0.497  35.352   2.377
69815W        W36356  25.430   7.090   4.601
69816W        W36357  26.558  13.125   3.388
69817W        W36358  18.567  40.490   3.351
69818W        W36359  13.226  42.613   4.252
69819W        W36360  32.521   1.462   1.807
69820W        W36361  18.267   2.132   2.327
69821W        W36362  34.096   3.036   3.120
69822W        W36363  44.128  40.249   1.434
69823W        W36364  12.084   1.372   0.789
69824W        W36365   5.570  16.152  11.671
69825W        W36366   2.881   6.388  11.509
69826W        W36367  24.737  18.681   3.214
69827W        W36368  18.446  43.645   0.773
69828W        W36369  14.559  33.154  12.875
69829W        W36370  30.557  22.500   3.837
69830W        W36371   5.295  14.821  10.928
69831W        W36372   0.480  18.270   1.337
69832W        W36373   4.423  36.534   3.932
69833W        W36374  14.226  35.111  14.991
69834W        W36375  44.406  32.286   0.952
69835W        W36376   8.789  43.345  10.730
69836W        W36377   0.820   3.388   2.861
69837W        W36378  44.390   2.878   4.650
69838W        W36379   0.564   9.562  13.470
69839W        W36380  28.146  11.660  12.568
69840W        W36381   8.932   3.906  12.659
69841W        W36382   3.800  38.895   2.282
69842W        W36383   6.156   7.908  14.875
69843W        W36384   9.925  36.399   1.480
69844W        W36385  39.861  28.739   1.827
69845W        W36386  43.886   0.159   0.333
69846W        W36387  37.674  18.828  10.835
69847W        W36388   9.442  24.148   3.254
69848W        W36389   9.684   2.282   3.900
69849W        W36390  28.038  41.142   1.111
69850W        W36391  18.072  11.510  13.732
69851W        W36392  15.193   2.015  14.956
69852W        W36393   3.465   1.921   1.822
69853W        W36394   4.777  41.994   0.861
69854W        W36395  36.453  36.986   2.887
69855W        W36396  33.160  16.264  12.927
69856W        W36397  34.558   7.488   4.514
69857W        W36398   3.646  10.509   1.740
69858W        W36399  35.610  25.475   4.302
69859W        W36400  32.537  32.582   1.378
69860W        W36401  15.805  29.429  14.891
69861W        W36402   5.352   8.384   3.672
69862W        W36403  14.089  26.538  11.003
69863W        W36404  30.555  11.669   0.201
69864W        W36405  25.643  18.979  11.135
69865W        W36406  10.869  14.092   2.877
69866W        W36407  13.116  23.595   0.639
69867W        W36408  30.410  40.810   0.753
69868W        W36409  20.501   3.311  10.366
69869W        W36410  20.261   2.841   3.674
69870W        W36411   6.345   2.918  11.453
69871W        W36412  14.330  25.562  12.018
69872W        W36413  13.047  16.484  13.532
69873W        W36414   0.046  33.999  14.846
69874W        W36415  23.623  20.778  10.385
69875W        W36416  40.458  23.528  13.042
69876W        W36417  28.545   0.314   1.494
69877W        W36418  30.687  20.801   2.739
69878W        W36419  27.531  35.035  11.138
69879W        W36420   6.374  40.572   4.515
69880W        W36421  29.656  14.588   4.244
69881W        W36422  32.807  32.909   4.179
69882W        W36423  42.586  19.314   3.740
69883W        W36424   2.365   5.265   0.769
69884W        W36425  33.200  42.979   0.740
69885W        W36426  29.241  37.955  13.595
69886W        W36427  10.291  17.261   3.166
69887W        W36428   7.771  34.482  12.644
69888W        W36429  31.553   5.651   3.140
69889W        W36430   7.013  19.226  14.686
69890W        W36431  22.981  23.664  12.398
69891W        W36432   5.325  41.034  12.320
69892W        W36433  37.066   6.088   4.692
69893W        W36434  30.912  40.233   0.367
69894W        W36435  25.023  18.100   3.116
69895W        W36436   7.163   8.454   0.343
69896W        W36437  14.647  11.045   2.351
69897W        W36438  41.896  36.162   4.147
69898W        W36439  43.285  11.637   4.043
69899W        W36440   5.745  41.888   2.695
69900W        W36441  18.915  12.288   4.622
69901W        W36442  41.827  18.703  14.382
69902W        W36443  39.891  43.471  12.709
69903W        W36444  34.054  39.939   2.327
69904W        W36445  11.957  38.351   0.749
69905W        W36446  26.170  37.344  10.913
69906W        W36447   7.644  11.853   2.450
69907W        W36448  16.179  30.240   4.165
69908W        W36449   6.873  16.516  11.239
69909W        W36450  42.177  26.136  14.985
69910W        W36451   7.107  43.509   3.123
69911W        W36452  36.626   4.289  10.855
69912W        W36453   9.060  20.557   3.350
69913W        W36454  23.173   6.690  11.815
69914W        W36455   6.888  35.882   1.698
69915W        W36456  38.324  33.799  13.750
69916W        W36457  26.191  15.796  11.497
69917W        W36458  20.611  22.353   1.375
69918W        W36459  25.641  30.544  11.542
69919W        W36460   8.457  12.802  13.379
69920W        W36461  28.584  27.237   0.251
69921W        W36462  12.912  16.705  11.169
69922W        W36463   9.429  20.126  14.371
69923W        W36464  28.817  38.848   0.092
69924W        W36465  18.213  43.562  10.677
69925W        W36466  34.860  27.529   4.142
69926W        W36467  13.910   1.679   4.885
69927W        W36468  15.324  28.090  12.455
69928W        W36469  43.098  11.354   0.811
69929W        W36470  24.805  21.078   0.329
69930W        W36471  15.820  25.109   3.160
69931W        W36472  31.868  11.155  13.912
69932W        W36473  34.612  25.601   2.836
69933W        W36474  30.589  20.607  14.869
69934W        W36475  33.369  44.275   0.002
69935W        W36476   8.274  13.852  11.133
69936W        W36477  14.325  42.920   0.488
69937W        W36478  36.162  15.637  12.003
69938W        W36479   0.308  30.208   2.334
69939W        W36480   9.316  21.161   4.189
69940W        W36481  19.171  31.109   0.992
69941W        W36482  19.588   3.739   0.445
69942W        W36483   6.102  43.866  12.417
69943W        W36484  25.566  16.136  13.174
69944W        W36485   9.955   3.783   2.793
69945W        W36486  42.718  31.820   3.052
69946W        W36487  24.909  28.430   1.703
69947W        W36488  19.553  26.410  10.722
69948W        W36489   9.206  21.408   0.621
69949W        W36490  37.126  38.279  12.406
69950W        W36491  35.839  30.565   3.925
69951W        W36492   2.377  42.405   3.165
69952W        W36493  36.951  21.061   5.180
69953W        W36494  31.371  16.368   2.788
69954W        W36495  18.864  29.101   1.514
69955W        W36496   7.084   5.186   0.526
69956W        W36497   0.967  28.200  10.268
69957W        W36498  33.713   8.187   3.664
69958W        W36499  21.994   4.590   1.600
69959W        W36500  39.089  25.693   1.709
69960W        W36501  13.401  34.411  14.298
69961W        W36502   5.633  32.506  12.652
69962W        W36503   6.291  21.612   3.660
69963W        W36504  33.644  28.223   3.172
69964W        W36505  25.247  10.613   4.498
69965W        W36506   0.972  35.579  13.820
69966W        W36507  22.758  32.353   1.430
69967W        W36508   9.249   4.452  14.036
69968W        W36509  31.125  21.681  12.944
69969W        W36510  34.965   5.790  14.874
69970W        W36511  26.670  34.194  10.455
69971W        W36512  28.469  12.859   4.274
69972W        W36513  42.727  24.218  12.478
69973W        W36514  27.046  37.451  10.830
69974W        W36515  13.455  31.921  11.667
69975W        W36516  14.379  24.000   4.554
69976W        W36517  42.068  23.111   0.758
69977W        W36518  31.101  44.204   0.353
69978W        W36519   0.922  29.917  14.683
69979W        W36520   0.012  42.426  11.630
69980W        W36521  18.850  33.506  10.722
69981W        W36522   1.952  19.293   2.750
69982W        W36523  35.834  32.142   1.693
69983W        W36524  44.092  44.433   3.717
69984W        W36525  42.822  23.770  13.111
69985W        W36526   2.764  30.341  13.585
69986W        W36527  38.639  38.749   0.235
69987W        W36528  34.498  35.455  10.435
69988W        W36529  37.324  34.919   4.151
69989W        W36530  37.670   9.186  11.331
69990W        W36531  40.843  32.112   3.585
69991W        W36532  25.101  22.750   4.978
69992W        W36533   4.779  31.232   0.897
69993W        W36534  10.279  33.357  11.596
69994W        W36535  14.941   9.409  13.338
69995W        W36536  10.276   1.368  12.380
69996W        W36537  25.784  30.180  13.756
69997W        W36538  12.373   2.450   2.231
69998W        W36539  43.839  12.319   1.035
69999W        W36540  39.836   7.740   3.839
70000W        W36541  27.194  16.212  10.993
70001W        W36542  26.459  37.593   1.836
70002W        W36543  33.208   6.898  10.631
70003W        W36544   6.252  36.623  10.963
70004W        W36545   3.049   3.297  13.455
70005W        W36546  39.911   6.423  13.821
70006W        W36547   8.853  14.035   4.682
70007W        W36548  14.353  21.599   0.926
70008W        W36549  26.782  12.657   1.477
70009W        W36550  17.943  31.521   3.321
70010W        W36551  32.226   9.288   1.815
70011W        W36552  15.680   2.171  14.928
70012W        W36553  40.229  15.991  14.886
70013W        W36554  16.244   7.078   2.318
70014W        W36555   7.920  34.658   2.831
70015W        W36556  19.763   6.727   2.788
70016W        W36557  10.253  31.287   0.683
70017W        W36558  26.777  13.057  13.572
70018W        W36559  27.085  28.539   4.039
70019W        W36560  21.480  13.404  14.343
70020W        W36561  21.697  13.573   0.197
70021W        W36562  43.863   8.691  14.021
70022W        W36563  44.287  30.953  11.491
70023W        W36564  26.251  31.974   5.020
70024W        W36565  35.836   2.178   2.784
70025W        W36566  32.876  16.183  14.342
70026W        W36567   1.079  43.279   1.782
70027W        W36568   2.747   2.587   3.600
70028W        W36569  25.013   2.186   0.868
70029W        W36570  32.484   9.938   0.819
70030W        W36571  43.749  17.618   3.272
70031W        W36572  28.457  28.491   4.355
70032W        W36573  40.799  32.427  12.799
70033W        W36574   1.314  15.940  10.719
70034W        W36575  43.968  38.454   5.003
70035W        W36576  14.648   4.747   3.222
70036W        W36577  15.241  10.190  11.476
70037W        W36578  35.565  12.481  14.401
70038W        W36579  40.993  11.396   4.922
70039W        W36580   4.427  20.087   1.974
70040W        W36581  22.360  22.615  13.447
70041W        W36582   0.731  36.001   1.450
70042W        W36583   9.142  29.343   2.783
70043W        W36584  35.084  17.809   1.250
70044W        W36585  12.255  39.280  11.626
70045W        W36586  22.206  44.650  11.251
70046W        W36587  18.472  12.249   4.376
70047W        W36588  44.927  30.636   5.622
70048W        W36589   5.107  42.739  11.929
70049W        W36590   8.627  30.375   0.890
70050W        W36591  32.926  44.080   0.217
70051W        W36592  24.558  25.233   1.322
70052W        W36593  30.378   8.691   1.127
70053W        W36594  26.613   9.214  14.837
70054W        W36595   7.719  20.539  13.833
70055W        W36596  23.483  26.151  14.308
70056W        W36597  26.440  14.131   2.656
70057W        W36598  24.976  42.567   3.585
70058W        W36599   4.709  20.715   0.792
70059W        W36600  13.584  31.400  11.605
70060W        W36601  12.808  15.957   4.555
70061W        W36602  44.091  18.631   1.419
70062W        W36603  43.318  19.608  12.422
70063W        W36604  19.117  14.760  14.515
70064W        W36605  16.703  20.901  12.999
70065W        W36606   8.682  29.331   0.994
70066W        W36607  39.561  35.227   3.121
70067W        W36608  24.169  36.120  14.497
70068W        W36609  44.920  30.139   2.926
70069W        W36610  32.160  29.190   4.636
70070W        W36611  15.313   4.210   0.389
70071W        W36612   3.836  14.260   1.373
70072W        W36613  20.256  22.643  14.530
70073W        W36614  30.015   3.276  12.748
70074W        W36615  13.868  35.322  11.918
70075W        W36616  13.474  42.093   2.149
70076W        W36617  11.335   9.838   0.758
70077W        W36618   8.434  41.320  11.195
70078W        W36619  32.880  17.723   0.939
70079W        W36620  36.058   6.766   3.451
70080W        W36621  28.356   9.348  12.082
70081W        W36622  27.097  16.417   3.648
70082W        W36623  30.653   6.751  14.387
70083W        W36624  15.801  11.375  12.280
70084W        W36625  27.279  37.830   0.009
70085W        W36626  23.011  21.778  13.381
70086W        W36627   2.944   3.525   3.641
70087W        W36628   7.757  37.134   1.667
70088W        W36629  44.466  33.083  13.936
70089W        W36630  37.389  26.999   2.941
70090W        W36631  27.726  14.154  14.341
70091W        W36632  36.847   4.071  14.268
70092W        W36633   9.873  30.521  12.026
70093W        W36634   8.503  26.720   2.221
70094W        W36635  12.100  19.055  12.910
70095W        W36636  29.791  12.216   1.409
70096W        W36637  27.785  41.487  14.426
70097W        W36638  19.050  34.590  14.304
70098W        W36639  26.427  20.133  10.460
70099W        W36640  10.971  20.014   2.310
70100W        W36641  26.492  24.990   0.696
70101W        W36642  33.004  38.355   4.061
70102W        W36643  19.964  37.279  11.155
70103W        W36644  28.162  20.316   0.662
70104W        W36645  32.618  25.941   2.197
70105W        W36646  26.227   9.548  13.387
70106W        W36647   3.040  14.278   2.084
70107W        W36648  33.538  11.036  14.814
70108W        W36649  19.535   6.286   1.052
70109W        W36650  10.485  38.507   5.440
70110W        W36651  40.083  42.762   4.557
70111W        W36652  17.773  39.338   0.862
70112W        W36653   8.743  19.450   1.343
70113W        W36654   7.791  10.334   4.475
70114W        W36655  13.227   6.480   2.227
70115W        W36656  10.717  13.060  12.672
70116W        W36657   8.271  31.481  10.912
70117W        W36658   1.478  37.348   3.648
70118W        W36659   5.385  42.918   4.284
70119W        W36660  22.470  26.024   1.273
70120W        W36661   1.416   3.964   4.667
70121W        W36662   2.103  19.498   4.133
70122W        W36663  13.538  32.538   4.943
70123W        W36664  43.453  16.851  12.818
70124W        W36665   6.868  23.247   0.438
70125W        W36666  44.230  31.160   4.109
70126W        W36667   1.896  15.850  12.490
70127W        W36668   5.277   4.745  11.697
70128W        W36669  16.210  20.951  12.817
70129W        W36670  17.746  19.301   0.370
70130W        W36671  38.523   5.225  14.998
70131W        W36672  28.312  35.641  12.083
70132W        W36673  15.501  19.802   2.883
70133W        W36674  31.596  44.342  12.175
70134W        W36675   5.137   9.201  14.274
70135W        W36676  17.298  33.354  11.465
70136W        W36677   9.704  26.143   0.206
70137W        W36678   9.814  32.498  12.946
70138W        W36679  10.885  26.062  11.899
70139W        W36680  29.112  13.670  14.281
70140W        W36681  43.285   1.639  11.227
70141W        W36682  22.650  21.171   3.346
70142W        W36683  14.869  17.579   4.412
70143W        W36684  35.025  11.774   3.697
70144W        W36685  12.403  39.753   0.930
70145W        W36686  10.639  11.535  13.808
70146W        W36687  18.536  20.516   3.816
70147W        W36688  43.051  42.800   2.378
70148W        W36689  40.332  34.957   4.151
70149W        W36690  33.197  23.603  12.363
70150W        W36691  28.430  26.735   1.151
70151W        W36692  18.989  37.508   2.390
70152W        W36693   4.356  35.002   0.519
70153W        W36694  14.605  28.292   3.646
70154W        W36695   5.217   5.656  10.538
70155W        W36696   6.487  27.908   2.279
70156W        W36697  44.916  13.617  14.348
70157W        W36698   9.126  24.608  10.738
70158W        W36699   6.206  20.617  13.371
70159W        W36700  30.577  39.739  14.750
70160W        W36701  21.748  18.482   1.008
70161W        W36702  34.895   5.529   9.919
70162W        W36703  43.241  42.424   4.127
70163W        W36704  33.625   7.186   2.257
70164W        W36705  30.651  26.561   0.448
70165W        W36706  32.561  32.726   0.878
70166W        W36707  25.143  15.583   1.245
70167W        W36708  25.727   0.287   1.588
70168W        W36709   0.958  29.320  11.673
70169W        W36710  43.787  44.688   1.647
70170W        W36711  39.866  17.164  10.397
70171W        W36712  40.783  33.411  14.142
70172W        W36713  39.400  27.728  10.675
70173W        W36714  34.871   8.799   1.498
70174W        W36715  15.306  15.593  11.451
70175W        W36716   7.224   0.793   1.136
70176W        W36717   0.965  30.925  13.476
70177W        W36718  35.796  22.491  12.441
70178W        W36719  17.004   0.237  11.584
70179W        W36720  10.805   4.848  13.399
70180W        W36721   1.352  25.431   3.285
70181W        W36722  20.598  44.372   1.398
70182W        W36723  34.089  27.912  13.603
70183W        W36724  30.348   1.748   4.409
70184W        W36725  18.445  25.087   1.310
70185W        W36726  10.635  28.130   2.161
70186W        W36727  30.872  35.444   4.390
70187W        W36728   1.470   2.423   3.203
70188W        W36729  11.438  34.816  10.833
70189W        W36730   8.549  21.006  14.002
70190W        W36731   6.792   3.935   1.858
70191W        W36732  37.687   0.752  10.672
70192W        W36733  28.469  41.715   0.488
70193W        W36734  40.404   2.809   3.634
70194W        W36735  42.351  12.581   1.648
70195W        W36736  10.274  11.952   1.507
70196W        W36737  30.690  11.183  10.647
70197W        W36738   7.977   1.780  14.263
70198W        W36739  15.252  11.221  13.407
70199W        W36740  34.325  42.374   0.358
70200W        W36741  29.218   4.943  13.368
70201W        W36742  13.326  33.679   2.314
70202W        W36743   9.954   0.891   4.958
70203W        W36744  22.059  33.855   0.825
70204W        W36745  27.912  20.301  10.637
70205W        W36746  19.716  35.514  10.729
70206W        W36747   5.519  25.100  14.941
70207W        W36748  19.739  13.870  13.412
70208W        W36749  32.416  30.632  12.060
70209W        W36750  27.449  13.624   3.818
70210W        W36751  20.644   7.920   1.678
70211W        W36752  40.666  33.935   4.069
70212W        W36753  27.302  38.986  12.115
70213W        W36754  31.414  29.645   1.546
70214W        W36755   0.927  31.096   1.737
70215W        W36756  19.734   2.741  12.076
70216W        W36757  37.038  44.732   1.280
70217W        W36758  12.963  28.921   2.681
70218W        W36759  23.293   5.926  14.854
70219W        W36760  40.531  40.133   4.608
70220W        W36761   3.243  17.740   2.873
70221W        W36762  38.967  22.596  13.010
70222W        W36763  17.231  29.151   4.138
70223W        W36764  18.554  19.530  13.307
70224W        W36765  21.857  14.878   5.049
70225W        W36766  10.325  10.640  10.530
70226W        W36767  15.745  23.151   2.452
70227W        W36768  41.120  21.447   3.051
70228W        W36769  22.107  36.568  13.090
70229W        W36770  38.265  10.830   0.778
70230W        W36771  42.934   3.184  13.568
70231W        W36772  37.951  15.731   4.038
70232W        W36773  25.140   6.326   4.083
70233W        W36774  24.506  42.297   3.735
70234W        W36775  39.121  44.803   2.654
70235W        W36776   0.841   9.181  12.204
70236W        W36777   3.024  17.589   4.688
70237W        W36778  42.035   2.470  14.770
70238W        W36779  10.341  27.546   3.092
70239W        W36780   0.923  41.962   3.673
70240W        W36781  24.585  33.530   4.905
70241W        W36782  26.738  40.021   2.409
70242W        W36783  42.907  16.764   2.501
70243W        W36784   7.627  44.508   1.780
70244W        W36785  23.339  23.918   0.382
70245W        W36786  22.098  13.130   1.712
70246W        W36787  40.390  25.485   1.413
70247W        W36788  43.831  23.059  14.440
70248W        W36789  19.764  23.280   3.874
70249W        W36790  15.230  13.537   3.340
70250W        W36791  44.320  41.917  11.912
70251W        W36792  24.440   8.982  12.469
70252W        W36793  15.565  23.675   2.474
70253W        W36794  14.307  16.830  13.904
70254W        W36795  41.634  42.487   2.608
70255W        W36796  24.745  39.102   2.630
70256W        W36797  15.666  43.342   3.278
70257W        W36798   8.945   7.263   0.325
70258W        W36799  22.768  25.562   4.395
70259W        W36800   4.775  28.193  13.992
70260W        W36801  10.833  31.444  12.958
70261W        W36802   8.953  31.850   5.113
70262W        W36803  31.948  31.226   2.420
70263W        W36804   0.278  23.856   2.107
70264W        W36805  25.100  23.750   4.046
70265W        W36806  43.384  35.590   1.562
70266W        W36807  34.300   6.172   4.696
70267W        W36808  42.621  30.510  14.773
70268W        W36809  29.542   3.315   0.217
70269W        W36810  42.777  28.009   3.612
70270W        W36811  31.038   2.291   4.966
70271W        W36812  40.327   3.353  13.856
70272W        W36813  40.061  38.986   3.990
70273W        W36814  26.937  27.139  13.069
70274W        W36815   0.367  39.517  10.704
70275W        W36816  23.782  15.599   3.018
70276W        W36817  41.227   8.165  14.420
70277W        W36818  16.620  26.471   3.912
70278W        W36819  12.626  21.081  14.863
70279W        W36820  12.283   5.844   2.470
70280W        W36821  17.551  38.349  10.605
70281W        W36822  36.824  11.308  14.748
70282W        W36823  19.150   9.128  12.350
70283W        W36824   0.488  32.528  11.690
70284W        W36825  36.941  41.821   0.431
70285W        W36826   4.358  34.573   2.399
70286W        W36827  39.595   8.779   2.771
70287W        W36828  32.158   3.935   0.775
70288W        W36829  42.730  27.014  14.916
70289W        W36830  19.731  15.689  13.840
70290W        W36831  43.605   7.222   3.869
70291W        W36832   1.235  40.245   1.311
70292W        W36833  22.218  21.451  14.898
70293W        W36834  24.706  13.557   2.713
70294W        W36835  43.991  35.339  14.422
70295W        W36836  30.607  15.366  10.167
70296W        W36837   4.624  11.949  14.555
70297W        W36838  11.332  32.933  14.797
70298W        W36839  11.852  18.646   4.134
70299W        W36840   2.533  41.442  10.407
70300W        W36841  38.925  14.153   1.157
70301W        W36842  20.215  37.829  10.786
70302W        W36843   2.444  33.012   0.734
70303W        W36844   4.579  39.664   1.442
70304W        W36845   1.976  43.816   0.296
70305W        W36846  41.270   8.234   2.220
70306W        W36847  31.014  35.094  12.289
70307W        W36848  29.407   7.480  14.035
70308W        W36849  42.351   8.806   3.806
70309W        W36850   8.665  18.493  13.360
70310W        W36851  27.439  16.628   0.365
70311W        W36852   7.493   9.994   3.502
70312W        W36853  41.838  38.365  13.657
70313W        W36854  13.013  15.989  12.281
70314W        W36855  13.928   4.060   2.407
70315W        W36856  32.113   6.573  13.334
70316W        W36857  13.854   9.261   2.472
70317W        W36858   8.639   7.808   2.221
70318W        W36859  10.245   2.086  11.639
70319W        W36860  15.636  33.586   3.278
70320W        W36861  20.991  13.248   0.318
70321W        W36862  14.880   0.061   3.216
70322W        W36863  12.324  39.243  14.731
70323W        W36864  22.575   2.703   0.224
70324W        W36865  43.923  43.507  11.784
70325W        W36866   4.966  35.120  14.138
70326W        W36867  21.723  41.318   0.834
70327W        W36868  43.068  10.463   0.925
70328W        W36869  39.364  19.851   1.475
70329W        W36870  34.552   4.441  13.952
70330W        W36871   3.780  40.495  13.350
70331W        W36872  21.862  39.836   2.230
70332W        W36873  11.822   5.237  11.099
70333W        W36874  14.733  21.628   3.145
70334W        W36875  26.455  27.936  14.901
70335W        W36876  23.844  34.957  14.316
70336W        W36877   9.708  10.668   2.414
70337W        W36878  41.835  24.751  12.968
70338W        W36879  42.808  43.441   4.199
70339W        W36880  32.982   7.358   3.954
70340W        W36881  30.382   3.754  13.942
70341W        W36882  12.167  36.925   2.759
70342W        W36883   2.851   8.224  14.361
70343W        W36884  10.723  35.386   1.799
70344W        W36885  30.155  13.599  13.220
70345W        W36886   8.199   1.303   0.357
70346W        W36887  18.710  28.593   4.178
70347W        W36888  24.477  13.374   1.899
70348W        W36889   2.238   9.965   2.825
70349W        W36890  35.437  30.897   4.750
70350W        W36891  10.220  14.683  12.072
70351W        W36892  31.900  42.491  12.057
70352W        W36893  40.332  37.676   4.959
70353W        W36894  30.861   0.514  12.042
70354W        W36895  35.983  42.280  13.809
70355W        W36896  23.551  18.499   4.614
70356W        W36897  25.510  28.563  14.943
70357W        W36898  31.492  36.909  13.636
70358W        W36899  23.569  29.970   4.152
70359W        W36900  31.409  43.773   0.291
70360W        W36901   5.492  25.303   2.204
70361W        W36902  38.412  44.228  11.819
70362W        W36903   5.629  40.846   2.090
70363W        W36904  27.226  20.725   4.527
70364W        W36905  38.872  27.114   3.605
70365W        W36906  42.200  14.527  13.479
70366W        W36907  11.208   1.313   4.265
70367W        W36908  27.424  22.503   1.294
70368W        W36909  42.542  25.165  12.495
70369W        W36910   2.974  37.933  11.537
70370W        W36911   7.438  34.052   0.732
70371W        W36912  17.131  30.143   1.324
70372W        W36913  20.676  40.159   2.826
70373W        W36914  37.560  16.636  11.431
70374W        W36915  37.102   4.685  13.052
70375W        W36916   7.827   3.908  12.905
70376W        W36917  43.475  35.672  14.805
70377W        W36918  22.459  27.513   3.190
70378W        W36919  35.535  24.841   1.991
70379W        W36920  26.209  20.203   0.915
70380W        W36921  13.181  38.472   0.443
70381W        W36922   5.259  28.184  14.416
70382W        W36923  37.426  14.705   2.012
70383W        W36924  23.202   2.669   0.068
70384W        W36925   5.783  29.220   4.265
70385W        W36926  24.586   7.456  13.594
70386W        W36927   7.458   7.675   1.407
70387W        W36928  21.692  29.946  14.504
70388W        W36929  20.538  27.307   0.879
70389W        W36930  19.661  37.997  14.874
70390W        W36931  27.032  42.507   4.358
70391W        W36932  19.063  27.162   4.556
70392W        W36933  20.586  19.045   4.150
70393W        W36934  25.112  43.176  13.843
70394W        W36935  27.035   7.307  10.738
70395W        W36936  13.186  41.900  13.744
70396W        W36937  20.309  25.046  12.021
70397W        W36938  30.635  13.042  14.611
70398W        W36939   7.891  15.103  13.379
70399W        W36940  35.996   6.449  13.847
70400W        W36941  21.032  17.068  13.959
70401W        W36942   8.375  34.447  13.481
70402W        W36943  29.585   0.223  14.641
70403W        W36944  37.481  36.473   3.364
70404W        W36945  14.630  16.834   2.837
70405W        W36946  20.981  19.169   0.487
70406W        W36947  44.986  33.172   2.747
70407W        W36948  11.383   3.113   0.687
70408W        W36949  34.409  28.437  12.853
70409W        W36950  31.251  17.035   4.627
70410W        W36951  39.940  23.388  12.979
70411W        W36952  24.402  39.988   0.713
70412W        W36953  25.000  43.012   4.579
70413W        W36954  43.825  16.767  10.984
70414W        W36955  27.645   2.959  12.289
70415W        W36956  14.348  44.836  12.966
70416W        W36957   5.425  18.739   0.835
70417W        W36958   8.584  22.022   3.796
70418W        W36959  21.589  33.173  14.404
70419W        W36960  10.871   1.862   3.282
70420W        W36961  30.200   0.268   0.377
70421W        W36962  37.839  28.547   0.763
70422W        W36963  22.271  20.260   4.742
70423W        W36964  37.430   6.414  11.415
70424W        W36965  24.744  18.637  12.847
70425W        W36966   4.729   8.844   1.082
70426W        W36967  13.921  11.639  12.216
70427W        W36968  36.932  12.611  13.329
70428W        W36969  38.605  29.962   0.670
70429W        W36970  13.298  44.271  12.534
70430W        W36971   9.402  10.525   9.907
70431W        W36972  14.550  32.377  13.954
70432W        W36973  31.762   9.323  13.564
70433W        W36974  29.654  15.733   5.031
70434W        W36975   1.218   1.312   2.719
70435W        W36976   0.660  20.234   4.163
70436W        W36977   1.461  15.206  13.550
70437W        W36978  34.025  33.002  12.076
70438W        W36979  26.540   9.768   1.449
70439W        W36980  43.286  17.087  11.550
70440W        W36981  35.440   9.451   3.265
70441W        W36982  33.087  14.408   3.783
70442W        W36983  10.589  14.790   3.399
70443W        W36984  18.030  16.837   2.822
70444W        W36985  25.385   4.140  10.990
70445W        W36986  23.961  36.176  11.577
70446W        W36987  21.192   9.834   4.532
70447W        W36988  42.319  40.990   1.012
70448W        W36989   3.726  17.741  12.126
70449W        W36990  32.491  29.053   2.212
70450W        W36991  40.082   2.562   2.359
70451W        W36992   6.031  39.786  13.294
70452W        W36993  30.459   0.698   0.511
70453W        W36994  28.360  11.300   4.125
70454W        W36995   7.913  25.322  12.977
70455W        W36996  15.154  24.009  11.569
70456W        W36997  21.788  36.015  13.831
70457W        W36998   9.432   0.246  10.646
70458W        W36999  38.832   7.297  11.692
70459W        W37000  43.941  10.205  11.121
70460W        W37001  22.041  34.932  10.730
70461W        W37002  25.010   7.300   3.123
70462W        W37003  11.124  19.017  12.797
70463W        W37004   1.962  10.912  14.524
70464W        W37005  31.465  41.542   2.549
70465W        W37006  27.577  32.924  10.567
70466W        W37007   4.790   1.263   1.934
70467W        W37008   0.499   9.920   3.227
70468W        W37009  15.334  12.817  12.868
70469W        W37010  29.930  19.989  10.831
70470W        W37011  20.001  36.419   4.127
70471W        W37012   8.520   3.742  13.559
70472W        W37013  13.495   6.758   1.860
70473W        W37014  26.840  11.373   0.542
70474W        W37015  41.231  24.834  12.244
70475W        W37016  19.538  44.805  13.581
70476W        W37017  12.781  16.356   2.830
70477W        W37018  30.040  14.317  13.559
70478W        W37019  44.685  12.881   3.207
70479W        W37020  23.523   4.747   0.653
70480W        W37021   2.612   2.331  12.423
70481W        W37022  28.002  34.846   2.976
70482W        W37023   2.301  28.237   3.129
70483W        W37024  44.469   5.649   2.234
70484W        W37025  21.733  16.956   1.210
70485W        W37026  17.163  22.340   5.086
70486W        W37027  14.764  11.408  13.519
70487W        W37028   8.445  19.916   2.752
70488W        W37029   5.685  37.513   3.928
70489W        W37030  29.162  11.722  12.912
70490W        W37031  39.824  30.582   0.265
70491W        W37032  44.602  40.805   4.691
70492W        W37033  15.853  17.119   0.447
70493W        W37034  18.715   9.737  13.927
70494W        W37035  14.251  12.561  13.599
70495W        W37036   3.782  28.136  14.556
70496W        W37037  19.688  19.722   0.281
70497W        W37038  10.370  15.878  12.427
70498W        W37039  37.025  15.043   4.638
70499W        W37040  41.974  41.041   3.095
70500W        W37041  12.231   3.703   0.472
70501W        W37042  34.908  32.334   0.719
70502W        W37043   7.703  19.034  10.739
70503W        W37044  10.296  18.222  10.302
70504W        W37045  34.123   5.995  13.743
70505W        W37046  38.341  32.078   3.788
70506W        W37047  12.061  37.455  11.211
70507W        W37048  17.298  25.485  14.414
70508W        W37049  30.609  14.905  10.447
70509W        W37050  26.209   8.626   3.850
70510W        W37051  42.142  17.840   4.124
70511W        W37052  21.489   5.743  13.554
70512W        W37053   1.897  14.377  13.389
70513W        W37054  43.539  30.673   4.912
70514W        W37055  18.725   1.011   0.347
70515W        W37056   8.884  44.527  11.669
70516W        W37057  30.933  26.437   3.564
70517W        W37058  20.393  39.852   3.662
70518W        W37059  36.267  10.054  11.291
70519W        W37060   7.697  23.479   1.851
70520W        W37061  38.849  19.145  10.478
70521W        W37062  41.609   5.138   0.831
70522W        W37063  12.057  26.450   4.120
70523W        W37064  22.466  10.172   2.455
70524W        W37065  13.105  17.124  11.431
70525W        W37066  15.332  16.605   1.274
70526W        W37067  16.826   9.740  12.406
70527W        W37068  13.780   0.439   2.836
70528W        W37069  23.156   5.639  14.456
70529W        W37070   2.848  14.153   3.523
70530W        W37071  30.131   6.690   2.967
70531W        W37072  12.353  35.100   0.965
70532W        W37073  17.142  30.247  13.822
70533W        W37074  30.531  19.574  11.951
70534W        W37075  29.010   7.848  13.028
70535W        W37076  43.066   0.476   1.662
70536W        W37077  15.719  37.392   0.857
70537W        W37078  25.675  22.700   2.803
70538W        W37079  35.272  42.704   3.738
70539W        W37080  31.595  28.225  11.466
70540W        W37081  28.641  21.234   3.384
70541W        W37082  30.616   7.743   1.961
70542W        W37083  10.432  37.881   2.753
70543W        W37084  23.690  36.522  10.687
70544W        W37085  11.873  38.512   4.492
70545W        W37086  15.082  36.961   4.529
70546W        W37087  24.113   2.746  13.159
70547W        W37088  32.609  36.456   4.514
70548W        W37089  26.110  43.253   0.785
70549W        W37090  28.240  43.043  10.979
70550W        W37091  15.322  34.474   2.880
70551W        W37092  15.745  22.853   4.110
70552W        W37093  23.489   1.216   0.916
70553W        W37094  12.179  23.447   0.970
70554W        W37095  20.895  28.486   0.508
70555W        W37096   7.275   0.763   4.668
70556W        W37097   9.887  38.324   2.739
70557W        W37098   1.428  38.591  13.999
70558W        W37099  41.126   8.191   3.597
70559W        W37100  27.233  19.264  12.509
70560W        W37101  15.258  33.001  14.288
70561W        W37102  40.476  13.080   5.013
70562W        W37103   4.555   7.447   4.011
70563W        W37104  23.760  44.993   0.242
70564W        W37105  44.480  43.475  14.387
70565W        W37106  28.116  43.455  10.053
70566W        W37107  24.778  35.616   3.643
70567W        W37108   2.409  16.581  11.979
70568W        W37109  16.560  16.151  10.663
70569W        W37110  31.579  30.974   2.137
70570W        W37111   3.335  20.125   3.372
70571W        W37112  19.073  25.697  13.934
70572W        W37113   2.803   6.037   0.720
70573W        W37114  11.275  21.269  11.120
70574W        W37115   8.772  15.986   4.194
70575W        W37116   9.434  22.970   0.238
70576W        W37117   9.400  31.575  12.977
70577W        W37118  31.772  34.822   2.270
70578W        W37119  19.539  14.864  12.521
70579W        W37120   6.699  28.455   1.223
70580W        W37121  26.044  25.277  10.764
70581W        W37122  12.579  28.108  14.791
70582W        W37123  13.266  43.289   2.326
70583W        W37124  10.180   7.911   9.967
70584W        W37125  20.242  43.959   4.654
70585W        W37126  21.977  20.542  14.868
70586W        W37127  27.201  15.312  10.092
70587W        W37128  21.990  26.206   0.325
70588W        W37129  25.505  35.896  12.979
70589W        W37130  22.273   6.381   1.449
70590W        W37131  44.287   8.401   2.957
70591W        W37132  35.567  34.339  12.493
70592W        W37133  19.792  21.053  11.903
70593W        W37134  11.510  23.162   4.341
70594W        W37135  43.417   8.975   2.506
70595W        W37136  12.253  39.251  13.858
70596W        W37137  27.025   0.712   1.191
70597W        W37138  40.767  41.038   2.825
70598W        W37139  39.912   5.230   3.258
70599W        W37140   8.774  10.895  12.103
70600W        W37141  28.622  17.652   2.444
70601W        W37142  23.497  35.994  14.334
70602W        W37143  40.000   7.131  10.575
70603W        W37144  39.528  35.035  14.962
70604W        W37145  42.453  31.033  13.989
70605W        W37146   8.273  42.941  11.974
70606W        W37147   9.342   9.753  12.465
70607W        W37148  28.746  42.782  13.964
70608W        W37149   7.278  11.555  14.774
70609W        W37150  14.201  21.128   0.776
70610W        W37151  27.424  21.961   1.344
70611W        W37152  25.915  21.680  13.082
70612W        W37153  34.204  15.799  11.006
70613W        W37154  34.953  35.613   2.816
70614W        W37155  42.933   9.959  10.880
70615W        W37156  29.307  28.525   1.986
70616W        W37157  22.520  32.991   3.733
70617W        W37158  32.030   7.150  12.475
70618W        W37159  11.347  36.816   3.689
70619W        W37160  15.843  41.766   1.786
70620W        W37161  37.454   7.324   2.074
70621W        W37162  34.016  10.301  11.638
70622W        W37163  25.274  17.565   0.759
70623W        W37164  37.514   6.498   2.142
70624W        W37165   3.580  26.589  13.510
70625W        W37166  32.529  29.486   4.366
70626W        W37167  11.637  20.230  13.428
70627W        W37168   2.328  41.380   1.680
70628W        W37169  16.297   4.984  13.486
70629W        W37170  36.584   3.217   3.767
70630W        W37171  11.843  34.838  13.163
70631W        W37172  22.664  38.456  14.021
70632W        W37173  39.854  32.464   2.324
70633W        W37174  38.196  44.879  12.063
70634W        W37175   1.508  19.734   3.369
70635W        W37176  36.940   1.264  14.338
70636W        W37177   5.195  30.131   1.294
70637W        W37178   1.227  29.862   5.529
70638W        W37179   5.278  14.825  14.309
70639W        W37180  21.387  37.865   0.427
70640W        W37181  14.214   7.663   1.888
70641W        W37182  18.625  28.673   3.248
70642W        W37183  29.744   5.096  13.334
70643W        W37184  41.969   0.245  11.508
70644W        W37185  31.350  25.512   2.661
70645W        W37186  39.367  40.625   1.845
70646W        W37187  24.105  21.486   4.670
70647W        W37188   2.323  41.722   1.280
70648W        W37189  17.316  22.524   1.812
70649W        W37190   1.543  27.290  13.469
70650W        W37191  30.798  31.228   1.774
70651W        W37192  32.789   1.784   3.513
70652W        W37193  18.030  23.975   1.615
70653W        W37194  33.504  19.323  14.329
70654W        W37195   5.815  38.467   9.828
70655W        W37196   7.912  20.642  12.444
70656W        W37197  26.950  36.990   2.286
70657W        W37198  40.482  11.351   1.504
70658W        W37199   1.373  11.299  13.972
70659W        W37200  33.788  44.144  13.813
70660W        W37201  33.035  42.478   0.761
70661W        W37202  26.972  39.687   3.859
70662W        W37203   5.359   5.001   1.850
70663W        W37204   8.167  30.188   4.051
70664W        W37205  39.634   0.917   0.966
70665W        W37206  35.058  33.671   0.384
70666W        W37207  39.144   2.881  10.830
70667W        W37208  24.575  30.151   3.127
70668W        W37209  38.240  38.772   1.180
70669W        W37210  44.965   8.640   3.613
70670W        W37211  43.153   6.146   1.008
70671W        W37212  18.255  30.719   2.699
70672W        W37213  44.150  42.776  11.495
70673W        W37214  36.460   3.367  11.975
70674W        W37215  17.412  20.314  10.395
70675W        W37216  16.488  39.984   3.757
70676W        W37217  27.003  36.873  14.918
70677W        W37218  10.647  21.168   0.687
70678W        W37219  14.456  16.646  13.037
70679W        W37220   3.656  29.217   0.804
70680W        W37221  39.496  22.286  11.748
70681W        W37222  30.879  25.746   4.619
70682W        W37223   8.218  17.232  13.087
70683W        W37224  27.628  14.214   3.376
70684W        W37225  14.248   1.879  10.745
70685W        W37226  38.028  43.435   0.324
70686W        W37227  22.513   2.832  10.871
70687W        W37228  15.744  25.246   4.024
70688W        W37229  10.389  33.484  12.922
70689W        W37230   5.972  36.442  11.347
70690W        W37231  38.649  30.214   3.060
70691W        W37232   6.491  21.019  13.196
70692W        W37233  26.883  43.023  12.532
70693W        W37234  26.940   4.204  12.419
70694W        W37235  30.564   9.188  13.905
70695W        W37236  16.314  43.739   0.463
70696W        W37237  26.890  10.404  11.907
70697W        W37238  28.563  36.946   1.301
70698W        W37239  20.674   6.041  12.828
70699W        W37240  10.770  16.183  12.373
70700W        W37241   0.025   2.293  12.056
70701W        W37242  26.188  27.144   4.017
70702W        W37243  40.708  22.577  12.905
70703W        W37244  31.820  36.458   0.885
70704W        W37245  23.987  20.770   3.458
70705W        W37246  12.832   4.901  14.183
70706W        W37247  21.287  39.031   3.584
70707W        W37248  13.317  34.107  13.340
70708W        W37249  35.084  33.127  12.144
70709W        W37250   1.466   1.759   2.632
70710W        W37251  19.188   1.218   0.410
70711W        W37252  16.198  16.850   3.735
70712W        W37253   8.408  41.981  12.318
70713W        W37254  20.673  23.309  14.027
70714W        W37255  28.446   1.935   2.085
70715W        W37256  33.055  37.507   2.367
70716W        W37257   9.522   5.830   2.315
70717W        W37258   0.843  36.091  14.880
70718W        W37259  42.959  33.642   3.339
70719W        W37260  41.881  19.022   3.046
70720W        W37261  39.972  18.099   1.823
70721W        W37262  14.001  43.326   4.034
70722W        W37263  15.193  21.666   4.098
70723W        W37264  21.204  28.347   4.152
70724W        W37265  14.640  21.788  12.908
70725W        W37266  29.059   8.166   2.692
70726W        W37267   4.531   3.923  11.969
70727W        W37268   9.409  42.740   3.640
70728W        W37269  21.166   1.221  13.790
70729W        W37270  23.394  38.618  14.592
70730W        W37271  32.179  22.473   3.303
70731W        W37272  39.439  29.141   2.694
70732W        W37273  12.116  27.408  13.804
70733W        W37274  31.319  11.813  14.391
70734W        W37275  41.968  26.481   2.586
70735W        W37276  21.251  36.985   3.742
70736W        W37277  18.674   0.965   2.586
70737W        W37278  32.527  24.975  12.105
70738W        W37279  38.525   6.311   0.352
70739W        W37280  37.216  16.705   3.053
70740W        W37281  30.115  23.331  12.034
70741W        W37282   3.211  26.361   2.271
70742W        W37283  41.042  43.726   4.850
70743W        W37284  37.996   9.218  13.479
70744W        W37285   7.586  38.476   1.306
70745W        W37286  15.414  38.941  14.800
70746W        W37287  28.182  36.533  14.360
70747W        W37288  43.190  29.779   0.208
70748W        W37289  35.441  36.041   3.055
70749W        W37290  21.766  20.625   1.839
70750W        W37291   1.480   3.404  13.002
70751W        W37292  27.453   4.487  13.788
70752W        W37293  14.107  36.118  12.171
70753W        W37294  23.392  12.778  14.950
70754W        W37295   3.662   6.831   3.695
70755W        W37296  40.885  22.136  10.746
70756W        W37297   7.187  16.764   2.506
70757W        W37298  42.404  10.128   4.461
70758W        W37299  33.588  30.859  13.000
70759W        W37300  13.867  14.243   1.442
70760W        W37301  40.208  11.620   3.162
70761W        W37302   0.812  16.257   3.637
70762W        W37303   7.789  37.095  12.377
70763W        W37304  34.315  12.642  13.927
70764W        W37305  14.924  35.350   2.737
70765W        W37306  38.055  39.945   0.203
70766W        W37307  30.278  17.514  10.648
70767W        W37308  13.193   1.383  11.250
70768W        W37309  26.640  29.116  11.179
70769W        W37310  28.880  20.629  11.541
70770W        W37311   9.166   6.374   2.962
70771W        W37312   1.853   6.894  12.595
70772W        W37313  14.600  36.507   2.199
70773W        W37314  35.128  30.059   0.195
70774W        W37315  24.491  39.574  14.780
70775W        W37316  13.369  15.059  14.913
70776W        W37317  15.632  11.058  11.344
70777W        W37318  25.900  30.887   3.479
70778W        W37319  18.703   4.810  10.145
70779W        W37320   1.940   8.905   2.284
70780W        W37321  37.492  18.009   1.004
70781W        W37322  36.121  18.169   3.760
70782W        W37323  22.266  23.138   3.732
70783W        W37324   7.962  22.742  12.978
70784W        W37325  44.298  38.433   1.944
70785W        W37326  35.854   3.732  14.105
70786W        W37327  25.608  25.620   0.015
70787W        W37328  24.695  34.995   2.895
70788W        W37329   8.773  23.930  14.556
70789W        W37330  29.250  36.120  11.333
70790W        W37331  42.763   3.654  14.384
70791W        W37332  12.832  25.609   4.468
70792W        W37333  41.001  31.544  14.512
70793W        W37334  33.366  32.096   4.895
70794W        W37335  12.559  16.192   3.695
70795W        W37336  39.475   6.117  13.849
70796W        W37337   3.080   5.006   1.886
70797W        W37338  42.937  23.726   2.373
70798W        W37339  39.865  38.718  11.558
70799W        W37340   1.071  42.877   3.740
70800W        W37341   0.482  21.976   3.218
70801W        W37342  39.211   6.699   3.776
70802W        W37343  27.979   5.333  14.698
70803W        W37344  23.431   6.177   3.659
70804W        W37345  32.690  33.617  11.661
70805W        W37346  12.712  11.121  10.964
70806W        W37347   4.572  35.160   4.986
70807W        W37348   3.292  17.032  11.600
70808W        W37349  10.794  42.528  13.463
70809W        W37350  44.437   2.491  12.913
70810W        W37351  17.340  41.500  10.752
70811W        W37352   5.169  21.954  11.638
70812W        W37353  37.974  35.044  11.654
70813W        W37354  23.464  16.108   3.642
70814W        W37355   4.718   5.756   0.840
70815W        W37356  12.217  25.558   3.188
70816W        W37357  13.778  30.670  13.840
70817W        W37358  12.963  19.612  10.585
70818W        W37359  17.697  12.574  12.941
70819W        W37360  44.153   6.565   3.684
70820W        W37361  16.053  41.944  14.477
70821W        W37362  44.536  42.885   3.542
70822W        W37363   8.295  25.936  10.916
70823W        W37364   5.869   1.491  10.884
70824W        W37365  27.763  30.502  14.528
70825W        W37366   8.674  44.228   1.449
70826W        W37367  26.575  38.311  12.096
70827W        W37368  34.545  23.176   0.564
70828W        W37369  12.129   0.969   0.469
70829W        W37370  39.643  22.477  10.766
70830W        W37371   7.013  28.072   2.310
70831W        W37372  30.574  42.822  14.444
70832W        W37373  17.142  38.062   3.660
70833W        W37374  10.714  19.591   3.314
70834W        W37375   8.902  10.273  14.735
70835W        W37376   0.819  42.002  12.164
70836W        W37377   7.749  26.458   4.099
70837W        W37378   7.369   0.811  11.512
70838W        W37379  39.510   5.826  12.764
70839W        W37380  28.087  27.608   4.119
70840W        W37381   9.889   8.315  12.821
70841W        W37382  33.867  25.701  12.174
70842W        W37383  27.126   1.172  14.779
70843W        W37384  16.783  15.109   1.974
70844W        W37385   0.582  12.670   2.749
70845W        W37386   3.642  36.900  13.325
70846W        W37387  36.567  19.793   0.341
70847W        W37388  41.563   5.640  13.398
70848W        W37389   0.401  12.607  13.231
70849W        W37390  24.885  26.833   0.661
70850W        W37391  10.407   0.565  13.837
70851W        W37392  36.155  44.915  12.000
70852W        W37393  29.146  36.421   0.210
70853W        W37394   5.169  22.302   9.826
70854W        W37395  39.370  44.973   4.575
70855W        W37396   6.872  11.260   4.666
70856W        W37397  18.078  30.484  10.324
70857W        W37398  18.133  37.546   0.298
70858W        W37399  25.000  30.134   4.040
70859W        W37400   8.906   9.710   3.840
70860W        W37401  34.601  27.980   4.138
70861W        W37402  34.764  34.657  14.538
70862W        W37403  29.089  21.169  12.569
70863W        W37404  25.040  11.083  10.916
70864W        W37405  41.528   6.982  10.779
70865W        W37406  26.047  15.149   2.139
70866W        W37407   4.252  10.711   4.151
70867W        W37408  28.545  12.205  14.052
70868W        W37409  31.336   4.412   3.080
70869W        W37410  29.832  33.932  12.065
70870W        W37411   1.865  38.991   2.242
70871W        W37412  31.205  42.965  13.025
70872W        W37413  14.859  21.544   4.527
70873W        W37414   8.716  22.150   0.129
70874W        W37415  43.292  15.585  11.669
70875W        W37416  36.384  40.805   0.885
70876W        W37417  40.297  20.788   2.138
70877W        W37418  24.994  13.584  11.887
70878W        W37419  30.468  13.913   3.327
70879W        W37420  32.520   2.671  11.605
70880W        W37421   9.810  12.147   1.338
70881W        W37422   6.117  38.446   1.322
70882W        W37423  34.493   8.029  12.030
70883W        W37424   8.421  15.813  11.604
70884W        W37425   6.562  32.619  11.054
70885W        W37426  33.992   0.776  12.072
70886W        W37427  42.777  43.959   0.916
70887W        W37428  30.244  41.753  11.816
70888W        W37429  20.267  21.819  13.929
70889W        W37430  12.118  13.671  12.910
70890W        W37431  33.869  35.869  12.928
70891W        W37432  32.610   4.725   3.235
70892W        W37433  36.964  32.479  13.317
70893W        W37434   4.872  18.714  14.184
70894W        W37435  38.039   6.354  10.591
70895W        W37436  21.128   4.278  14.833
70896W        W37437   2.729  31.722  14.899
70897W        W37438  32.809  20.224  13.636
70898W        W37439  30.799  11.860  14.336
70899W        W37440   7.523   2.493   1.742
70900W        W37441  33.355  19.753   3.635
70901W        W37442  25.241   1.224   0.706
70902W        W37443   6.953   3.285   3.326
70903W        W37444   7.965  40.567   4.584
70904W        W37445   8.830  40.298   0.728
70905W        W37446  12.393  11.708   2.798
70906W        W37447  20.749  40.590  11.605
70907W        W37448  32.369  33.531   2.066
70908W        W37449  38.392   9.030   3.151
70909W        W37450  26.163  19.567   2.741
70910W        W37451   7.437  36.770  10.433
70911W        W37452  40.364  25.972  14.976
70912W        W37453  10.118  41.457  13.239
70913W        W37454  42.539   5.367   2.686
70914W        W37455  12.764  21.054  11.550
70915W        W37456  39.522  33.654  14.997
70916W        W37457   7.869  25.216  14.328
70917W        W37458  35.031  38.564  14.414
70918W        W37459  11.827  24.777   0.903
70919W        W37460  40.389   1.443  13.394
70920W        W37461  14.766  42.806  11.271
70921W        W37462  30.927  25.385   1.733
70922W        W37463  10.785  15.244   1.675
70923W        W37464  30.736  38.818  11.215
70924W        W37465  23.579  35.925   1.857
70925W        W37466  21.801  15.265   2.722
70926W        W37467  37.108  34.403   1.205
70927W        W37468  44.945  36.085  14.847
70928W        W37469  30.675  34.749  12.109
70929W        W37470  12.048  40.840  14.192
70930W        W37471   5.978   0.794   4.009
70931W        W37472  44.480  33.776   0.828
70932W        W37473  37.625  17.184   4.167
70933W        W37474   6.156  21.281   2.688
70934W        W37475  25.377  40.253  11.864
70935W        W37476  19.498  17.185   0.834
70936W        W37477  43.298   7.702   3.710
70937W        W37478  22.111  25.673  11.489
70938W        W37479  20.541  23.500  10.711
70939W        W37480  42.785  34.865   4.068
70940W        W37481  33.017  33.124   4.589
70941W        W37482  28.737  33.009  13.088
70942W        W37483  26.287  31.811   2.276
70943W        W37484  42.431  36.736  14.907
70944W        W37485  29.374   2.200   3.864
70945W        W37486  37.540   1.536   0.688
70946W        W37487   8.421  26.803   1.723
70947W        W37488  10.654  17.229  12.339
70948W        W37489  40.058  33.245   3.529
70949W        W37490  44.952  10.362   4.551
70950W        W37491  36.156  39.713   1.979
70951W        W37492  34.575  33.928  14.495
70952W        W37493  25.273  21.066  10.720
70953W        W37494   9.165  25.719   4.581
70954W        W37495  14.932   0.822   4.820
70955W        W37496  28.154   1.743   3.445
70956W        W37497  17.939   9.565  12.148
70957W        W37498  37.258  29.224  11.125
70958W        W37499  28.316  31.002   3.606
70959W        W37500  23.535   6.850  13.863
70960W        W37501  20.978  26.813   4.619
70961W        W37502  20.099  34.468   4.753
70962W        W37503  25.539   5.393  10.697
70963W        W37504  12.326  13.885   0.487
70964W        W37505   6.839  38.832  13.179
70965W        W37506   2.771  41.838   2.045
70966W        W37507  38.557  33.561   0.378
70967W        W37508  21.149  25.879  14.308
70968W        W37509   5.710  12.134  12.923
70969W        W37510  12.892  32.954   0.999
70970W        W37511  29.053  32.176   3.053
70971W        W37512  36.472   9.249  13.898
70972W        W37513  33.365   6.330   2.292
70973W        W37514  16.963  21.706  11.230
70974W        W37515  30.067  32.933  13.650
70975W        W37516  24.768  16.852  11.142
70976W        W37517  42.296  32.618   1.819
70977W        W37518  22.457  19.037   4.216
70978W        W37519   8.762  41.551   0.817
70979W        W37520  12.627  26.993   1.855
70980W        W37521  13.960  38.618  13.871
70981W        W37522   1.056  24.591  13.828
70982W        W37523  42.904  12.172   0.273
70983W        W37524   3.799  22.245   2.008
70984W        W37525  26.790  42.971   4.405
70985W        W37526   0.869  37.870   4.322
70986W        W37527  43.436   2.848  11.907
70987W        W37528  27.611  29.991   0.365
70988W        W37529   6.835  43.533   4.687
70989W        W37530  26.735   6.494   3.656
70990W        W37531  28.866  44.796  11.519
70991W        W37532  20.185  29.965  14.544
70992W        W37533  18.734   6.801   2.791
70993W        W37534  29.470   5.089  10.570
70994W        W37535  25.166  28.981   3.266
70995W        W37536  35.304  44.314   2.158
70996W        W37537  33.078  38.089   3.212
70997W        W37538  14.466  44.489   4.188
70998W        W37539  29.076   8.647   1.490
70999W        W37540   3.068  21.593   2.167
71000W        W37541   6.567  38.014  11.632
71001W        W37542  37.834  19.531  14.248
71002W        W37543  25.107  28.474   1.212
71003W        W37544  24.959   2.316   3.453
71004W        W37545  33.512  24.151   0.709
71005W        W37546   6.559   6.289  10.767
71006W        W37547   1.977   1.487   9.999
71007W        W37548  19.046  37.829  12.546
71008W        W37549  36.919  41.590   3.760
71009W        W37550  29.176  32.155  12.601
71010W        W37551  13.038  24.707  11.710
71011W        W37552  13.362  14.743   2.226
71012W        W37553   0.266  44.918  10.576
71013W        W37554  21.799  11.243   2.664
71014W        W37555  42.784   5.846  11.953
71015W        W37556  21.576  26.896   2.166
71016W        W37557  29.045  13.123   3.144
71017W        W37558   8.877   4.092  13.394
71018W        W37559  18.244  42.046   1.340
71019W        W37560  12.811   2.877   3.442
71020W        W37561   4.564  23.048   5.611
71021W        W37562  44.270  20.220  11.493
71022W        W37563  24.583  21.523   3.213
71023W        W37564   0.311  21.816  11.493
71024W        W37565  30.092  15.309  13.091
71025W        W37566  34.300  36.856   2.750
71026W        W37567  13.771  38.251  13.467
71027W        W37568   1.806  29.922  12.465
71028W        W37569  12.691  12.568  12.090
71029W        W37570   1.249  29.350  11.066
71030W        W37571  25.552  38.807  12.678
71031W        W37572  35.164  41.440   0.759
71032W        W37573  32.308  19.607  13.800
71033W        W37574  24.818  14.228  12.986
71034W        W37575  27.518  44.224   1.976
71035W        W37576  33.056  25.303  10.466
71036W        W37577  34.169  28.381  14.502
71037W        W37578  38.583  42.545  11.531
71038W        W37579  22.622  32.201   4.832
71039W        W37580  42.517  29.140   2.192
71040W        W37581   3.588  16.508   1.241
71041W        W37582   4.348  39.848   4.003
71042W        W37583   3.440  39.760   0.247
71043W        W37584  30.189  26.750  13.283
71044W        W37585  37.341   4.437  12.655
71045W        W37586  27.259  30.870  10.601
71046W        W37587  13.769  20.665   3.494
71047W        W37588  35.143  41.264  13.126
71048W        W37589  16.289  41.693  13.992
71049W        W37590  18.659  17.735   3.920
71050W        W37591   3.851  29.299   3.293
71051W        W37592   5.449  25.725  12.591
71052W        W37593  32.451   7.321  13.169
71053W        W37594  35.015  10.994   4.980
71054W        W37595  41.856  13.687   2.361
71055W        W37596  15.262   5.418  12.784
71056W        W37597  30.960  31.170  10.556
71057W        W37598  22.392   9.358   0.448
71058W        W37599  16.633  29.545  14.244
71059W        W37600   7.492  16.568  11.854
71060W        W37601  18.609  26.383  13.905
71061W        W37602   1.930   7.244   3.233
71062W        W37603  15.809   1.662   3.229
71063W        W37604   1.997   9.799   3.938
71064W        W37605  10.815  41.820   3.216
71065W        W37606  21.799  24.155   2.263
71066W        W37607   3.207   0.781   0.837
71067W        W37608  41.794   9.766   1.784
71068W        W37609   5.938   2.693   0.256
71069W        W37610  41.006  44.362   0.858
71070W        W37611  30.422  27.751  13.984
71071W        W37612   5.707  18.506   4.187
71072W        W37613  40.801   3.155  11.953
71073W        W37614  18.823  18.524  13.437
71074W        W37615  40.258   6.686  11.662
71075W        W37616  33.101  27.156   2.182
71076W        W37617  19.960   4.641  14.769
71077W        W37618  27.525  36.296   1.353
71078W        W37619  28.905  37.693  11.091
71079W        W37620  38.544  37.434   1.436
71080W        W37621  30.010  34.350  10.780
71081W        W37622  31.555   5.744   1.714
71082W        W37623   8.890   8.857   3.787
71083W        W37624   8.798  14.835  14.723
71084W        W37625  15.123   9.887  14.711
71085W        W37626  33.914  24.386  13.981
71086W        W37627  42.114  32.964   3.805
71087W        W37628  42.924  19.758   2.319
71088W        W37629  10.351   2.819   1.952
71089W        W37630  39.378  32.674  14.901
71090W        W37631   7.650  39.279  12.594
71091W        W37632  26.262  14.114  10.742
71092W        W37633  23.951  23.639  13.268
71093W        W37634  16.647  14.706  12.110
71094W        W37635  23.369  28.789  12.088
71095W        W37636  16.264  18.482  11.029
71096W        W37637   1.357  10.748  12.685
71097W        W37638  11.742  42.550  13.861
71098W        W37639   9.812  42.421   3.242
71099W        W37640  14.025  14.277  13.930
71100W        W37641   3.267  28.778  10.048
71101W        W37642   6.077   6.483   4.534
71102W        W37643   0.851   4.098   3.631
71103W        W37644  38.044  12.370  11.978
71104W        W37645   4.335   7.619  11.509
71105W        W37646   8.831  15.301   3.320
71106W        W37647  32.963   1.342   3.350
71107W        W37648  22.322  31.041   1.193
71108W        W37649  10.813  39.110   3.083
71109W        W37650  22.116  27.904   3.645
71110W        W37651  23.198   8.650   0.389
71111W        W37652  16.170  44.009   3.147
71112W        W37653  41.442  41.492  12.915
71113W        W37654   4.178  28.508  12.562
71114W        W37655  24.165   5.344   3.451
71115W        W37656  42.533  25.236  14.885
71116W        W37657  28.085   6.947  13.932
71117W        W37658  18.921  38.758   0.855
71118W        W37659   1.688   1.984   3.052
71119W        W37660  21.627  11.267  12.851
71120W        W37661   1.467  26.662  10.312
71121W        W37662   6.679  27.065   0.966
71122W        W37663  40.799  35.664  11.236
71123W        W37664   2.668  34.827   5.399
71124W        W37665  44.930  36.488   3.196
71125W        W37666  38.478  32.661   2.907
71126W        W37667  38.974  29.026  11.223
71127W        W37668  10.298   6.854   0.358
71128W        W37669  28.506  18.512   1.251
71129W        W37670  37.937  17.520   4.674
71130W        W37671  39.121  16.345  12.480
71131W        W37672  15.093   0.250   2.744
71132W        W37673  28.347   1.948  12.919
71133W        W37674   6.278  44.781   4.095
71134W        W37675  24.090  15.246  12.984
71135W        W37676  10.082   8.180  11.790
71136W        W37677  44.557  22.979  14.823
71137W        W37678  10.371  40.002  14.520
71138W        W37679  22.197  16.630   3.719
71139W        W37680   6.800  24.424  12.945
71140W        W37681  24.843   3.603   2.131
71141W        W37682  38.619   5.197  14.489
71142W        W37683  23.727  43.174   1.185
71143W        W37684  44.723  14.251   3.301
71144W        W37685   0.918   8.353   4.477
71145W        W37686  27.896  14.137   4.202
71146W        W37687  26.674  10.342   4.461
71147W        W37688  44.045  25.712  10.419
71148W        W37689  43.438  13.022  13.032
71149W        W37690  34.704  40.745  12.508
71150W        W37691  31.209  33.131  10.783
71151W        W37692  26.218  37.101   4.320
71152W        W37693  32.914  37.440  13.370
71153W        W37694   4.786   3.867  13.548
71154W        W37695  20.054  10.410  12.885
71155W        W37696  38.374   2.265  12.599
71156W        W37697  40.450  30.626   1.773
71157W        W37698  12.873   2.419   0.294
71158W        W37699  15.951  27.133   1.645
71159W        W37700  14.996  17.243   0.803
71160W        W37701   9.886   1.840   1.639
71161W        W37702  25.495  12.312  11.691
71162W        W37703  38.081  26.349  11.350
71163W        W37704   3.160  37.713   2.554
71164W        W37705  13.245  42.231  10.830
71165W        W37706  32.407  38.297   1.802
71166W        W37707  29.126   8.771   0.981
71167W        W37708   0.314  43.898   1.759
71168W        W37709  27.638  37.910   1.866
71169W        W37710  43.469  39.179   0.855
71170W        W37711   2.471  27.564   2.679
71171W        W37712  41.606  26.379   1.825
71172W        W37713   8.803   5.000  11.034
71173W        W37714  16.026  34.467  11.115
71174W        W37715  12.107   9.319   1.796
71175W        W37716  38.214   7.905   4.155
71176W        W37717  11.427  42.736   1.504
71177W        W37718  28.024   1.941   1.750
71178W        W37719  35.772  39.039   0.299
71179W        W37720  25.917  32.459   2.702
71180W        W37721  15.329  16.786  10.546
71181W        W37722   5.767  11.641  11.547
71182W        W37723  24.716  12.360   1.878
71183W        W37724  24.226  43.434   4.854
71184W        W37725  21.907  29.014   1.808
71185W        W37726  25.977   1.298   2.743
71186W        W37727  43.898  21.159  14.257
71187W        W37728  24.307  40.686  12.588
71188W        W37729  17.802  31.078   2.444
71189W        W37730  26.512  12.322   3.954
71190W        W37731  20.406  37.933   0.572
71191W        W37732  40.126  11.302  11.503
71192W        W37733  18.128  32.438   4.523
71193W        W37734  28.178  38.990  11.072
71194W        W37735  35.192   5.419   3.878
71195W        W37736  20.015  13.662   2.199
71196W        W37737  29.623  11.863  11.329
71197W        W37738   5.655   6.520  13.859
71198W        W37739  15.773  38.622   2.833
71199W        W37740  12.137   4.193  11.111
71200W        W37741  16.661  32.750  12.931
71201W        W37742  23.367  15.529  13.052
71202W        W37743  41.367  13.066  12.877
71203W        W37744  34.195   1.543  12.972
71204W        W37745  33.383  29.525   3.597
71205W        W37746  15.093  37.304  13.415
71206W        W37747  32.156  12.616  13.003
71207W        W37748  40.010  18.719   2.640
71208W        W37749  14.187  11.227   2.157
71209W        W37750  28.442   8.321  14.467
71210W        W37751  42.509  44.584   4.070
71211W        W37752  34.168  28.376   0.144
71212W        W37753  27.788  18.491  13.532
71213W        W37754  29.201  25.090   3.798
71214W        W37755   8.943  17.320   3.541
71215W        W37756  20.048  25.609   0.124
71216W        W37757  23.392  38.107  14.885
71217W        W37758  24.038   1.502  12.461
71218W        W37759  26.130  32.423   0.865
71219W        W37760   3.235   8.434   3.340
71220W        W37761  18.822  40.637   3.797
71221W        W37762  33.592  19.991  11.162
71222W        W37763  12.761   8.946   4.218
71223W        W37764  16.299  32.533  12.585
71224W        W37765  39.216  29.449   3.073
71225W        W37766   7.388  21.624   4.250
71226W        W37767   4.732  24.119   1.746
71227W        W37768  13.161  26.326  12.798
71228W        W37769  14.413   2.429   0.999
71229W        W37770  15.912   3.003   0.341
71230W        W37771   5.001  12.651   1.218
71231W        W37772  31.462   6.436  11.436
71232W        W37773  21.242   8.269  11.395
71233W        W37774  29.204   7.778   1.895
71234W        W37775   3.444  34.662  10.679
71235W        W37776   3.108   9.364  14.777
71236W        W37777  26.240  27.075  11.368
71237W        W37778  40.768   5.017   1.784
71238W        W37779  28.449  20.580  14.371
71239W        W37780  34.354  32.371   2.898
71240W        W37781  34.078  38.410   0.715
71241W        W37782   2.310   8.945  12.984
71242W        W37783  16.158  41.881   3.948
71243W        W37784  17.789  31.615  12.297
71244W        W37785  27.586  22.104  14.324
71245W        W37786  40.598  19.592  12.502
71246W        W37787  30.907  24.464   1.912
71247W        W37788  11.757  25.592   2.938
71248W        W37789  24.453  13.915   1.408
71249W        W37790  35.425  19.990   2.857
71250W        W37791  35.822   1.012   3.612
71251W        W37792  43.758  30.163  12.377
71252W        W37793  16.237  15.962  10.228
71253W        W37794  39.671   6.826   3.517
71254W        W37795  19.883  13.897   2.622
71255W        W37796   6.136  42.313   1.829
71256W        W37797  25.497  43.974  11.306
71257W        W37798  44.256  16.866   2.436
71258W        W37799  24.538   6.643   4.659
71259W        W37800  28.105  43.476  11.615
71260W        W37801  34.831  27.018   1.755
71261W        W37802   6.586  35.407   3.965
71262W        W37803  35.996  23.450   0.382
71263W        W37804   9.289  34.302  10.555
71264W        W37805   4.914  16.784   0.973
71265W        W37806   9.698   6.771   0.032
71266W        W37807   0.723  19.820   0.415
71267W        W37808  37.536   1.203  11.378
71268W        W37809  22.772  30.946  10.686
71269W        W37810  22.989  21.656  12.393
71270W        W37811  31.352  43.626  13.951
71271W        W37812  14.230  30.172  13.500
71272W        W37813  43.802  39.116  13.971
71273W        W37814   9.625   0.874  11.565
71274W        W37815   4.926  32.277  14.818
71275W        W37816  24.301   8.435  14.902
71276W        W37817   3.754  39.807  11.943
71277W        W37818  41.740  38.449   3.802
71278W        W37819  40.473  32.957   3.644
71279W        W37820  27.542  12.895  12.662
71280W        W37821  14.140  21.758   3.517
71281W        W37822   5.292  17.684   1.864
71282W        W37823  37.893   1.220  14.854
71283W        W37824  29.924  34.437   2.212
71284W        W37825  33.556  31.320  10.656
71285W        W37826  16.448  19.866   2.740
71286W        W37827  30.149  27.198  10.564
71287W        W37828  15.814   4.895  12.057
71288W        W37829   7.242  42.647  14.558
71289W        W37830   1.004   3.612  12.922
71290W        W37831  41.176  16.204   0.831
71291W        W37832  44.436  33.965  12.180
71292W        W37833  39.918   8.093   1.210
71293W        W37834   3.892   8.336   4.825
71294W        W37835  25.492  37.481   2.560
71295W        W37836  42.391  19.207  12.859
71296W        W37837   4.746  16.063  14.728
71297W        W37838  22.166   3.514  11.536
71298W        W37839  13.632  12.561   4.013
71299W        W37840   5.525   9.329   4.008
71300W        W37841  15.058  31.616   0.461
71301W        W37842  24.675  15.680  11.981
71302W        W37843  39.721  17.412   2.340
71303W        W37844  32.148  29.854   1.837
71304W        W37845  16.994   5.161   0.430
71305W        W37846  35.651  24.085   4.878
71306W        W37847  43.959  26.904   0.318
71307W        W37848  40.857  43.917   1.920
71308W        W37849  12.637  26.480   1.708
71309W        W37850  35.926  23.412  11.102
71310W        W37851  24.188  20.212   4.639
71311W        W37852  35.329  13.953  13.394
71312W        W37853   1.635  11.254  14.878
71313W        W37854  35.486  30.488  10.775
71314W        W37855  19.839  38.037  13.915
71315W        W37856  16.801   8.219   4.843
71316W        W37857  44.897  38.153  13.942
71317W        W37858   0.328  17.629   3.379
71318W        W37859   9.064   0.531  14.780
71319W        W37860   8.643  22.100  11.999
71320W        W37861  18.086  43.479   2.860
71321W        W37862  20.504  36.574  11.196
71322W        W37863   7.796   4.093  11.114
71323W        W37864  28.042   9.126   4.587
71324W        W37865   8.870  44.582  10.804
71325W        W37866  23.172  30.163   2.859
71326W        W37867  10.894   0.057   0.792
71327W        W37868  41.353  14.297  10.888
71328W        W37869  42.266  20.761  11.898
71329W        W37870  21.703  26.926  14.241
71330W        W37871   4.710  13.190   2.641
71331W        W37872  26.757  12.148  13.045
71332W        W37873  35.098  16.479   2.630
71333W        W37874  36.086  36.556  11.394
71334W        W37875  15.076  27.582  11.015
71335W        W37876  29.687   4.495  12.409
71336W        W37877  23.717  25.946  13.026
71337W        W37878   8.345   8.788   3.648
71338W        W37879   9.191  19.090  14.020
71339W        W37880  35.208  18.219  13.021
71340W        W37881  33.874  16.354  11.692
71341W        W37882  15.123  22.108   1.852
71342W        W37883  25.163  36.424  14.397
71343W        W37884  22.599   4.471  10.010
71344W        W37885  33.349  21.583   0.592
71345W        W37886  44.085  41.912   4.033
71346W        W37887  39.723   1.257  14.471
71347W        W37888  17.631  29.611   4.808
71348W        W37889  38.987  33.603  12.039
71349W        W37890   1.160  24.169   0.255
71350W        W37891  44.201  29.699  14.937
71351W        W37892  39.446  30.559   4.987
71352W        W37893   1.208  25.591   4.128
71353W        W37894  38.005  44.004  14.066
71354W        W37895  10.204  25.086   1.890
71355W        W37896  23.903  11.604  12.530
71356W        W37897  44.776  10.699  11.386
71357W        W37898  40.163   5.692   1.951
71358W        W37899  28.332  38.510  11.193
71359W        W37900   1.962  15.377  13.616
71360W        W37901   1.708  38.433  11.667
71361W        W37902  19.337   1.845   4.503
71362W        W37903  13.164   4.305   3.216
71363W        W37904   3.415  30.818  12.727
71364W        W37905   4.321  42.393   2.189
71365W        W37906  41.462  42.799  14.545
71366W        W37907  22.153  29.407  14.819
71367W        W37908  44.816  32.622   0.920
71368W        W37909  21.084  18.482  10.473
71369W        W37910  38.825  30.522  12.569
71370W        W37911  28.274  24.946   2.987
71371W        W37912  43.214  14.138  11.632
71372W        W37913   5.342   1.148  10.323
71373W        W37914   6.641  40.330  12.497
71374W        W37915  41.195  24.001   1.481
71375W        W37916  27.061   5.876   0.957
71376W        W37917  28.081   0.200  10.133
71377W        W37918  28.591  30.112  12.009
71378W        W37919  36.612  17.685  14.348
71379W        W37920  11.756   6.920   2.724
71380W        W37921  41.572  20.443  11.394
71381W        W37922  33.845  13.125   0.711
71382W        W37923  30.487   5.657  13.831
71383W        W37924  33.103   3.893   1.206
71384W        W37925  12.949   6.931  10.761
71385W        W37926  24.599  41.536   1.777
71386W        W37927  35.344  23.199   1.395
71387W        W37928  23.672  26.133  10.965
71388W        W37929  10.220  30.856  13.995
71389W        W37930   8.604  27.160  14.035
71390W        W37931  36.075  27.211  12.429
71391W        W37932  25.194  44.051  14.898
71392W        W37933  26.764   9.272  12.828
71393W        W37934  22.448  44.920  10.465
71394W        W37935  33.229  40.297   4.821
71395W        W37936  19.170  42.048   3.214
71396W        W37937   9.578   3.807   3.714
71397W        W37938  35.215  26.014   2.308
71398W        W37939  18.659  36.365   2.612
71399W        W37940  13.260  32.215   1.030
71400W        W37941  41.455   3.485   1.296
71401W        W37942   8.680  19.151  12.673
71402W        W37943  28.113  18.462  12.940
71403W        W37944  12.514  28.869   4.777
71404W        W37945  44.481  11.915   4.270
71405W        W37946  28.953  12.143   3.886
71406W        W37947  40.125  15.987   4.919
71407W        W37948  37.818   7.483  12.975
71408W        W37949  15.215   5.972   0.963
71409W        W37950  34.328  43.280   2.982
71410W        W37951  16.877  42.172   1.870
71411W        W37952  13.731  18.797   1.866
71412W        W37953  23.951  30.113  12.629
71413W        W37954  36.332  28.153   3.571
71414W        W37955  17.818   0.506   0.343
71415W        W37956  35.969  22.035  11.663
71416W        W37957   6.760  11.472   1.765
71417W        W37958  30.772  44.926  14.710
71418W        W37959  36.635  23.524  10.783
71419W        W37960   9.814  30.848   3.745
71420W        W37961  41.415   8.097   1.226
71421W        W37962  43.229  24.614   2.828
71422W        W37963  17.409  35.126   3.187
71423W        W37964  11.577   8.283  11.603
71424W        W37965  16.093  22.186   4.562
71425W        W37966  13.089  29.094  10.722
71426W        W37967  31.450  19.949  10.738
71427W        W37968  39.111   9.304   2.244
71428W        W37969   7.967   3.328   4.238
71429W        W37970  12.354  26.005   0.393
71430W        W37971  35.930  34.051  14.300
71431W        W37972  16.225  20.438   4.115
71432W        W37973  33.035  36.557  14.844
71433W        W37974  16.188  34.405   1.392
71434W        W37975  27.998  10.360   0.518
71435W        W37976  16.003  12.308  14.909
71436W        W37977  14.199  12.507   4.526
71437W        W37978   5.761  39.955  10.880
71438W        W37979   7.028  22.504  13.389
71439W        W37980  18.584  27.785   1.626
71440W        W37981   1.765  10.349   4.600
71441W        W37982  15.586   2.462   2.877
71442W        W37983  41.975  21.086   0.845
71443W        W37984   5.453  11.326  11.858
71444W        W37985  38.788  25.434   4.137
71445W        W37986  18.177  12.625   9.853
71446W        W37987  16.785   0.290  14.839
71447W        W37988  37.566  31.631  11.468
71448W        W37989  44.258   8.071   1.595
71449W        W37990  13.441  38.483  13.816
71450W        W37991  19.527  35.022  14.959
71451W        W37992  29.716   6.316  13.634
71452W        W37993  38.449  21.633   4.043
71453W        W37994  32.368  24.579  12.462
71454W        W37995  41.526  38.000  12.024
71455W        W37996  26.910  24.673  10.690
71456W        W37997   2.217   6.940  10.492
71457W        W37998   0.342  16.537  11.498
71458W        W37999  17.422   0.570   0.740
71459W        W38000  18.631  10.777  10.636
71460W        W38001  22.522  41.493  14.589
71461W        W38002   8.975  42.725   1.844
71462W        W38003  22.027  29.519  10.950
71463W        W38004  19.633  32.468  12.939
71464W        W38005   4.375  10.835  13.700
71465W        W38006  15.771  39.832   2.521
71466W        W38007  13.167  27.449   2.167
71467W        W38008  14.874   9.334   2.584
71468W        W38009   1.025  43.739  12.953
71469W        W38010  16.556   0.195   1.832
71470W        W38011  35.074  36.943   1.626
71471W        W38012  24.688  33.123  14.547
71472W        W38013  23.059  36.509  10.479
71473W        W38014  36.549  29.027   2.765
71474W        W38015   6.362   8.953  11.446
71475W        W38016  12.423  26.005  14.408
71476W        W38017  23.365  36.113   3.783
71477W        W38018  31.459  25.896  13.015
71478W        W38019   4.836  14.908  10.697
71479W        W38020  16.547  40.507  14.986
71480W        W38021  26.746  14.667   4.201
71481W        W38022  35.169   6.338  10.961
71482W        W38023  25.377  39.496  14.894
71483W        W38024  21.707  10.902  11.512
71484W        W38025  31.844  26.093   3.205
71485W        W38026  19.507  35.846   2.881
71486W        W38027  22.556  39.458  10.286
71487W        W38028  25.579  44.880   0.750
71488W        W38029  35.810  13.445   4.835
71489W        W38030  12.108  32.397   2.787
71490W        W38031  19.681  44.646  14.985
71491W        W38032  37.696  29.008   2.780
71492W        W38033  23.456  12.166   3.730
71493W        W38034  38.647  13.635   3.150
71494W        W38035  20.981   8.618  12.167
71495W        W38036  13.389  41.628  12.301
71496W        W38037  13.387  14.431  12.019
71497W        W38038  17.712   6.239   3.715
71498W        W38039  18.805  18.570   5.137
71499W        W38040  30.918  12.301  14.604
71500W        W38041  17.005   7.908   3.526
71501W        W38042  27.040  40.457  11.069
71502W        W38043  17.574  13.181  11.868
71503W        W38044   4.979  11.143  11.951
71504W        W38045  29.013  11.637   2.582
71505W        W38046  44.000  12.249  12.950
71506W        W38047  27.124  40.923  13.812
71507W        W38048  28.104  19.553   3.573
71508W        W38049  30.894  21.044  14.860
71509W        W38050  30.189  21.255   2.132
71510W        W38051  30.175  10.503   4.475
71511W        W38052  11.354  12.136   4.013
71512W        W38053  36.503  27.940  14.306
71513W        W38054  19.964   1.620   3.258
71514W        W38055   1.362  14.221   0.380
71515W        W38056  19.505  19.088  11.492
71516W        W38057  10.711  44.315   0.396
71517W        W38058   1.539   9.172   3.113
71518W        W38059   2.742  42.465  14.383
71519W        W38060  19.069  31.621   1.896
71520W        W38061  30.112  17.120  11.889
71521W        W38062  33.961  22.264   0.904
71522W        W38063  29.847  40.287   1.676
71523W        W38064  35.023  42.364   1.619
71524W        W38065  20.090  19.699  12.222
71525W        W38066  18.163  18.174  11.381
71526W        W38067  40.524  30.332   3.130
71527W        W38068   3.760  43.477   5.160
71528W        W38069   7.251  29.529   3.996
71529W        W38070  39.267  17.089   4.003
71530W        W38071   4.854  36.931   2.220
71531W        W38072  41.963  14.835  13.116
71532W        W38073   7.750  15.915   1.911
71533W        W38074  23.667  39.828   0.500
71534W        W38075  21.468   6.327   0.383
71535W        W38076  40.864  21.142  12.798
71536W        W38077  13.624  29.406  12.511
71537W        W38078  12.256   7.463   2.087
71538W        W38079   4.450   7.865  11.078
71539W        W38080  31.015   3.931  11.207
71540W        W38081  24.294  42.053   4.732
71541W        W38082  18.675  42.277   4.504
71542W        W38083  39.927   2.730  14.367
71543W        W38084  37.740  38.384  12.485
71544W        W38085  20.610  22.469   4.241
71545W        W38086   7.856  30.498   0.963
71546W        W38087  41.479  32.576   3.220
71547W        W38088  20.232  28.251  11.156
71548W        W38089  25.988  16.660  11.048
71549W        W38090  40.486  13.010   3.521
71550W        W38091  30.036  15.908   0.288
71551W        W38092  12.002  10.772   0.308
71552W        W38093  24.126  34.448   4.234
71553W        W38094  24.101  15.735   4.278
71554W        W38095  16.769  16.134  11.174
71555W        W38096  32.936  34.124   3.711
71556W        W38097  35.829  29.290  11.235
71557W        W38098  28.128  17.830  14.343
71558W        W38099  12.799  14.190  12.080
71559W        W38100  18.448  19.099   1.216
71560W        W38101  25.025  34.419  10.559
71561W        W38102  14.423  13.422   3.123
71562W        W38103  24.138  31.067  10.694
71563W        W38104  29.007   7.300   2.694
71564W        W38105  37.477  19.649   4.811
71565W        W38106   4.551  37.852  12.525
71566W        W38107  39.499  30.978  13.970
71567W        W38108  13.833  38.736   4.196
71568W        W38109  25.504  24.516  10.749
71569W        W38110  30.324  38.461  13.512
71570W        W38111  11.136  24.805  13.881
71571W        W38112  30.713  10.870  11.053
71572W        W38113  14.377   7.836   2.375
71573W        W38114  13.835  21.048   4.369
71574W        W38115  15.845  43.517   0.401
71575W        W38116  25.986  31.415   2.777
71576W        W38117  19.643  28.250  11.185
71577W        W38118   9.233   9.528   4.275
71578W        W38119  38.949   9.493  14.021
71579W        W38120  10.895   4.085   4.176
71580W        W38121  40.366  29.634  11.565
71581W        W38122  24.978   8.679  10.336
71582W        W38123   4.393  32.758   4.145
71583W        W38124  24.720  12.095  13.805
71584W        W38125  38.550   4.570   4.077
71585W        W38126  17.767  27.922   3.305
71586W        W38127   9.391  23.659   1.446
71587W        W38128  34.562  19.337  12.074
71588W        W38129  28.733  44.438   2.616
71589W        W38130  22.738  29.097   3.677
71590W        W38131  39.090   9.711   0.703
71591W        W38132   8.383  36.846   5.021
71592W        W38133   3.831  13.366   1.688
71593W        W38134   9.389  28.709  11.576
71594W        W38135   7.251  41.447   3.849
71595W        W38136  36.851   2.341   4.069
71596W        W38137   0.778   6.632  14.984
71597W        W38138  29.924  44.376  11.052
71598W        W38139  23.642  23.495   0.357
71599W        W38140  37.331  20.189  10.830
71600W        W38141  14.883  10.944  11.922
71601W        W38142  35.116  35.096   0.471
71602W        W38143  21.600  27.436   3.375
71603W        W38144   3.509  37.554   5.124
71604W        W38145  21.679  15.662  11.976
71605W        W38146   3.739   7.521   4.145
71606W        W38147  36.458  32.565   2.402
71607W        W38148  44.943  15.351  13.003
71608W        W38149  32.792  37.601  12.412
71609W        W38150  34.381   0.962   1.931
71610W        W38151  14.806  44.756  12.764
71611W        W38152   4.192  10.657  12.818
71612W        W38153  27.458  14.604   1.468
71613W        W38154  11.695   0.250  11.546
71614W        W38155  13.736  35.507   4.147
71615W        W38156  14.194  16.532  13.506
71616W        W38157  31.067  12.280   2.428
71617W        W38158  39.988  31.066  11.631
71618W        W38159  21.731  34.008  13.910
71619W        W38160  11.085  38.880   4.684
71620W        W38161  31.968  38.944  14.943
71621W        W38162  20.207   9.232   2.366
71622W        W38163  31.288   7.461   2.520
71623W        W38164  20.693  44.896  14.323
71624W        W38165  11.348  40.483  13.406
71625W        W38166  16.718   0.475  10.396
71626W        W38167  39.457  15.737  14.028
71627W        W38168  10.166  38.911  13.497
71628W        W38169  24.032  36.832  14.979
71629W        W38170  27.697  21.832  11.598
71630W        W38171  28.562  43.390  11.846
71631W        W38172  42.270  13.194  12.998
71632W        W38173   6.948   3.335  14.985
71633W        W38174  23.743  15.800  12.481
71634W        W38175  21.268   4.235  12.605
71635W        W38176  25.923  43.839   4.839
71636W        W38177  24.485   6.649   0.027
71637W        W38178   1.791   1.336  10.459
71638W        W38179   1.663   2.363  14.681
71639W        W38180  15.135  36.125   4.496
71640W        W38181  44.481   3.030  10.927
71641W        W38182   3.484   5.720   4.637
71642W        W38183   8.919   4.400  10.636
71643W        W38184  37.474  14.057   0.619
71644W        W38185  27.494  43.466  13.246
71645W        W38186  16.535  18.249  11.666
71646W        W38187   9.883  18.227   3.451
71647W        W38188  37.508   8.196  10.470
71648W        W38189  33.196  35.927   0.817
71649W        W38190  34.060  21.631   3.796
71650W        W38191   5.319   2.528   3.226
71651W        W38192   9.594  14.285  13.494
71652W        W38193  27.967  27.981   1.513
71653W        W38194  38.469  43.681  10.889
71654W        W38195  44.304  38.414   2.820
71655W        W38196   6.719  34.660   0.171
71656W        W38197  18.790  35.164   1.067
71657W        W38198  31.777  20.058   3.975
71658W        W38199  32.036  41.890  12.550
71659W        W38200  20.142  14.483   1.885
71660W        W38201  25.144   7.367   2.133
71661W        W38202   3.825  21.617   4.594
71662W        W38203  28.287   8.832  14.386
71663W        W38204  11.588  21.324  10.166
71664W        W38205  12.400   1.724  11.160
71665W        W38206  16.190  11.828  14.805
71666W        W38207  38.285  14.126  11.876
71667W        W38208  30.666   4.830  11.615
71668W        W38209  16.513  25.602   2.704
71669W        W38210   7.472   2.985   1.878
71670W        W38211  18.087  36.973   1.159
71671W        W38212  19.980  16.497   0.253
71672W        W38213  11.602  19.710  14.825
71673W        W38214   5.920  20.281  12.476
71674W        W38215  16.771  19.237  10.921
71675W        W38216  34.198  20.665  11.573
71676W        W38217  38.919  33.169  11.051
71677W        W38218  32.740  22.752  11.472
71678W        W38219  37.924   2.866   0.894
71679W        W38220  34.170  44.970  13.963
71680W        W38221  30.802   8.137  13.395
71681W        W38222  33.784  39.014  10.047
71682W        W38223  19.471  30.395  13.030
71683W        W38224   4.414  27.460  12.074
71684W        W38225  12.236  23.001  10.810
71685W        W38226  10.332  19.975  12.408
71686W        W38227   8.992  34.217  12.274
71687W        W38228  30.088   8.383   1.428
71688W        W38229  43.591   8.788  11.611
71689W        W38230   2.147   1.811  13.916
71690W        W38231  35.377  10.010  11.978
71691W        W38232  28.912  32.955  13.564
71692W        W38233  43.062  39.459  12.262
71693W        W38234  42.504   7.610   2.129
71694W        W38235  28.951  27.605   1.124
71695W        W38236   9.626  38.347  13.883
71696W        W38237  38.808  39.505  14.243
71697W        W38238  11.441  36.171  11.277
71698W        W38239  12.437  38.432  13.436
71699W        W38240  24.439  26.125  11.676
71700W        W38241  17.834  41.303   0.744
71701W        W38242   1.409   5.155   0.898
71702W        W38243   6.184  14.004  11.200
71703W        W38244   9.872  41.913   0.864
71704W        W38245  21.118  26.091  12.077
71705W        W38246   7.867  35.590  10.999
71706W        W38247   3.114  40.478   4.990
71707W        W38248   6.783   2.791  14.341
71708W        W38249  17.197  27.762   0.185
71709W        W38250  42.990   8.824  12.429
71710W        W38251   2.373  35.885  10.207
71711W        W38252  31.416  35.431  13.561
71712W        W38253  42.975  37.978  11.684
71713W        W38254  26.952  13.683  10.446
71714W        W38255   9.914  30.947   0.436
71715W        W38256  21.653  34.495  11.724
71716W        W38257  13.691  43.101   4.701
71717W        W38258  18.846  44.850  12.888
71718W        W38259  10.946  37.127  12.450
71719W        W38260   8.177   0.054   4.208
71720W        W38261  20.922  43.419   1.635
71721W        W38262  41.429  43.018  11.657
71722W        W38263  18.115  11.605   2.214
71723W        W38264  26.258  19.798  11.981
71724W        W38265  36.470  35.273   4.511
71725W        W38266  25.896  18.968  14.359
71726W        W38267  42.472   3.798   4.426
71727W        W38268  26.637  17.122   1.884
71728W        W38269  30.743   7.636   5.090
71729W        W38270   1.447  23.673  13.842
71730W        W38271  14.200   8.980   1.755
71731W        W38272  31.643  14.958   2.672
71732W        W38273  29.607   0.990   4.100
71733W        W38274  23.238  37.832  14.451
71734W        W38275  33.944   3.343  13.353
71735W        W38276  27.149  22.545   2.811
71736W        W38277  26.177  17.805   4.772
71737W        W38278  36.568  16.304  13.605
71738W        W38279  16.590  23.390   4.938
71739W        W38280  31.997  19.667   2.430
71740W        W38281   4.287   6.698   4.122
71741W        W38282   9.731  29.022  11.985
71742W        W38283  13.667  21.088  11.603
71743W        W38284  12.236  13.836   3.073
71744W        W38285  27.870  22.282   1.455
71745W        W38286  24.213  31.014  14.104
71746W        W38287  30.598  24.410  10.590
71747W        W38288  24.767  23.141  11.185
71748W        W38289  39.489  44.040   1.438
71749W        W38290  28.173  10.114   1.895
71750W        W38291  10.248  39.831   3.173
71751W        W38292  31.382  38.723  13.132
71752W        W38293  25.581  31.560   3.096
71753W        W38294  15.808  16.279   3.916
71754W        W38295  42.068  28.583  12.481
71755W        W38296  10.301   3.735   2.317
71756W        W38297  35.038   7.708  12.554
71757W        W38298  35.161  22.152  12.006
71758W        W38299  16.561  23.998   1.317
71759W        W38300  10.694  10.478  14.896
71760W        W38301  12.312  32.067  10.747
71761W        W38302  40.975  23.840  13.208
71762W        W38303  18.594   8.574  12.897
71763W        W38304  41.063  15.003   3.861
71764W        W38305  44.347  29.855  14.444
71765W        W38306  40.037  44.905   3.321
71766W        W38307   2.370  28.076   4.149
71767W        W38308  42.808  32.526  13.404
71768W        W38309  10.793  34.800  12.614
71769W        W38310  14.755  19.822   5.382
71770W        W38311  33.194  37.856   0.711
71771W        W38312  36.763  44.904   0.860
71772W        W38313  31.072  17.722   2.574
71773W        W38314  18.331  28.676   2.095
71774W        W38315  34.845  21.317  14.374
71775W        W38316  14.521   3.056   1.672
71776W        W38317  15.780  19.029  10.714
71777W        W38318  28.588  30.859  12.734
71778W        W38319  40.871  33.637  14.584
71779W        W38320  35.778   9.373  13.450
71780W        W38321  42.062   4.473  13.073
71781W        W38322  26.271  32.479   0.354
71782W        W38323  22.618  21.550  13.602
71783W        W38324   0.996  41.278  11.668
71784W        W38325  23.951  23.398   3.128
71785W        W38326  11.292  11.196  14.469
71786W        W38327  21.568   0.919  13.374
71787W        W38328   8.489  30.246   1.865
71788W        W38329  25.950  33.055   4.770
71789W        W38330  44.315  18.955   1.089
71790W        W38331  37.037  42.767   2.862
71791W        W38332  11.062  24.226   0.290
71792W        W38333  18.203   5.706   3.161
71793W        W38334  39.499   0.734   3.105
71794W        W38335  15.316  44.070   0.908
71795W        W38336  31.261  16.530   3.286
71796W        W38337   5.991  29.437   0.887
71797W        W38338  40.242  26.103  14.323
71798W        W38339  22.025  18.647  11.539
71799W        W38340  44.863  17.494   3.147
71800W        W38341  39.209  25.072  11.889
71801W        W38342  44.820  30.171   2.437
71802W        W38343  37.784  29.186  11.120
71803W        W38344  36.955  13.848  10.830
71804W        W38345   9.187  29.058  12.877
71805W        W38346   1.002  15.321   1.223
71806W        W38347  22.657  42.147  11.501
71807W        W38348   8.843  29.401  14.086
71808W        W38349  31.483  17.899  12.437
71809W        W38350  14.810  43.996   3.141
71810W        W38351  27.887  30.467  11.118
71811W        W38352  42.238  36.096   0.335
71812W        W38353  22.166  33.112   0.435
71813W        W38354   1.796   7.821  14.985
71814W        W38355  44.247   1.734  13.495
71815W        W38356  30.962   3.000  14.795
71816W        W38357  35.438   4.781   3.930
71817W        W38358  19.709  10.572   3.345
71818W        W38359  11.817   2.049   2.813
71819W        W38360  33.930  33.831   2.089
71820W        W38361  10.844  22.625   2.332
71821W        W38362   9.717  33.436  13.807
71822W        W38363  17.155  13.657   0.578
71823W        W38364  36.979  18.446  12.505
71824W        W38365   1.211  18.107   3.780
71825W        W38366  32.878  12.779   1.905
71826W        W38367  18.731  41.890   1.503
71827W        W38368  29.564  12.355   3.240
71828W        W38369  24.088  13.651   3.048
71829W        W38370  29.161  40.979  12.010
71830W        W38371  43.951  15.623  13.827
71831W        W38372  38.918  32.823   9.993
71832W        W38373   9.292  25.427   0.222
71833W        W38374  11.073  30.210  13.960
71834W        W38375  13.229   2.660  13.937
71835W        W38376   7.573  24.584  13.351
71836W        W38377  10.338  30.218   2.480
71837W        W38378  11.497  19.293  12.552
71838W        W38379  33.246  27.772  12.234
71839W        W38380  10.595  17.652  11.464
71840W        W38381  31.233  37.386  11.225
71841W        W38382  24.196  35.050  10.791
71842W        W38383  35.360  19.254   4.327
71843W        W38384  26.072   5.292   3.201
71844W        W38385  11.225   6.827   4.474
71845W        W38386  23.740  25.721  13.541
71846W        W38387   7.777   4.450   0.196
71847W        W38388   7.912  24.665  12.443
71848W        W38389  30.836  12.069   3.202
71849W        W38390  23.098  29.640   1.898
71850W        W38391  18.268  20.115   0.770
71851W        W38392  14.534   3.171  14.829
71852W        W38393  17.268  21.562   1.613
71853W        W38394  28.986  39.984   4.071
71854W        W38395  11.604  16.838  14.796
71855W        W38396  42.227  34.374   2.404
71856W        W38397  12.750  13.755   3.180
71857W        W38398  41.309  24.293  12.476
71858W        W38399  36.080   7.274   1.240
71859W        W38400  26.957  38.467   2.364
71860W        W38401  20.084  35.140  14.813
71861W        W38402  33.950  13.586  12.948
71862W        W38403  25.594  35.151   4.651
71863W        W38404  24.732  44.258  12.171
71864W        W38405  28.586   3.931  11.170
71865W        W38406  20.867  16.346  12.076
71866W        W38407   2.426  42.530  12.378
71867W        W38408  41.437  22.784   0.951
71868W        W38409   8.689  13.656  11.843
71869W        W38410  13.469  27.140  12.899
71870W        W38411   6.968  35.553   4.313
71871W        W38412  17.550  12.110   3.877
71872W        W38413   0.038  21.127  11.974
71873W        W38414   9.950   6.424   4.641
71874W        W38415   3.413   0.198   2.132
71875W        W38416  41.181  40.719   1.750
71876W        W38417  34.217  10.155  14.957
71877W        W38418  40.726  32.003  12.033
71878W        W38419  33.697  35.069   4.211
71879W        W38420  29.448  18.156   1.420
71880W        W38421  11.074  31.998  12.450
71881W        W38422  28.088   0.586   5.054
71882W        W38423   9.355   2.189  14.341
71883W        W38424   6.311   1.945  10.731
71884W        W38425  34.141  43.062   4.618
71885W        W38426  18.278   8.777   2.297
71886W        W38427  34.469  14.269   3.549
71887W        W38428  39.787  41.546   0.472
71888W        W38429  15.693  21.540   4.072
71889W        W38430  31.702  33.588  11.531
71890W        W38431  27.494   4.162  10.797
71891W        W38432  18.965  32.541   9.971
71892W        W38433  38.934   9.297  14.897
71893W        W38434  27.864  16.605   3.770
71894W        W38435  44.091  38.858  11.350
71895W        W38436   0.978  34.989   0.687
71896W        W38437  10.505  15.030   2.668
71897W        W38438  38.108  33.763  11.963
71898W        W38439  11.087  15.602  10.717
71899W        W38440   9.450  13.971  12.685
71900W        W38441   7.178  34.076  14.012
71901W        W38442  15.162   0.761   1.285
71902W        W38443  16.156  22.966   1.057
71903W        W38444   2.403  28.506   2.688
71904W        W38445   6.299  16.833  13.494
71905W        W38446  27.370  20.917   3.173
71906W        W38447  33.144  35.938   1.360
71907W        W38448  12.709   4.505  11.334
71908W        W38449  18.223   7.957   3.480
71909W        W38450  23.642  38.859  11.857
71910W        W38451  44.564  14.650   4.513
71911W        W38452  35.136   8.520   5.017
71912W        W38453  18.141  44.928   4.683
71913W        W38454  23.557  23.571  14.384
71914W        W38455  34.638  20.179   0.313
71915W        W38456  13.123  44.572  12.049
71916W        W38457  31.281  13.191  11.638
71917W        W38458  10.225   6.934   1.979
71918W        W38459  21.599   7.463   4.525
71919W        W38460  16.230  41.430  14.434
71920W        W38461  20.021  11.217   0.170
71921W        W38462  36.065  32.377   2.117
71922W        W38463   6.647  30.865  12.487
71923W        W38464  24.703  13.111  13.886
71924W        W38465   8.252  19.481  14.837
71925W        W38466  38.721  36.624   2.664
71926W        W38467  28.489   5.199   3.342
71927W        W38468  33.416  40.215  10.971
71928W        W38469  19.831  38.597  10.539
71929W        W38470   1.350   1.038   0.055
71930W        W38471  25.087  33.412   5.033
71931W        W38472  15.119  10.882  14.303
71932W        W38473   2.888  16.553  12.129
71933W        W38474  29.534   5.283  12.039
71934W        W38475  39.353  13.024  13.834
71935W        W38476  38.336  12.307  12.771
71936W        W38477   3.952  15.038   2.822
71937W        W38478  17.973  38.238  14.750
71938W        W38479  14.703  15.025  12.435
71939W        W38480  27.240  39.428   3.376
71940W        W38481  17.337   5.949  12.720
71941W        W38482   4.166  31.984   9.840
71942W        W38483   2.426  26.044   0.273
71943W        W38484  43.947  15.613  14.735
71944W        W38485  27.035  32.303  14.758
71945W        W38486  29.194  40.812   2.239
71946W        W38487  29.091  39.823  13.032
71947W        W38488   9.276  29.741   3.097
71948W        W38489  18.198  38.131   1.737
71949W        W38490   2.660  30.485   3.685
71950W        W38491  12.028  26.168   3.670
71951W        W38492  13.379  32.191  10.946
71952W        W38493  11.849  16.824   1.024
71953W        W38494  38.772  37.630   4.973
71954W        W38495  22.250   4.894   2.561
71955W        W38496   1.856  34.498   4.990
71956W        W38497  30.123  19.296   0.908
71957W        W38498  26.120  36.975   3.822
71958W        W38499   7.740  15.654  11.537
71959W        W38500  25.805  23.391   3.402
71960W        W38501  43.095  35.952   2.815
71961W        W38502   8.678  15.740  14.889
71962W        W38503  13.539   2.317   1.236
71963W        W38504  14.965  16.536  13.164
71964W        W38505  36.365  43.967   1.886
71965W        W38506  13.434  10.750  12.095
71966W        W38507  12.554  14.750   1.617
71967W        W38508  14.719  18.478   1.341
71968W        W38509   5.290  25.140  14.473
71969W        W38510   8.426  17.010  11.992
71970W        W38511  37.939  23.632   1.857
71971W        W38512  14.347  10.894  10.753
71972W        W38513   1.862  19.643   0.287
71973W        W38514  14.070  26.483  10.477
71974W        W38515  38.131  15.662  11.673
71975W        W38516   9.906  29.978   2.300
71976W        W38517  33.161  36.957  13.506
71977W        W38518  22.709   4.360   4.528
71978W        W38519  12.524  24.331   4.442
71979W        W38520  35.603  15.183   1.542
71980W        W38521   1.735  38.320  13.050
71981W        W38522  18.178  28.114   4.635
71982W        W38523  11.831   7.735  10.860
71983W        W38524  39.119  12.654  12.383
71984W        W38525  44.874  39.157  11.886
71985W        W38526  24.471  33.999  12.231
71986W        W38527  34.031  14.043   0.292
71987W        W38528   6.148  44.613  11.467
71988W        W38529  35.610  17.296   0.010
71989W        W38530  34.638  29.840  12.169
71990W        W38531  43.448  20.257   1.161
71991W        W38532  41.369  25.602   2.392
71992W        W38533  36.472  38.899  13.922
71993W        W38534   6.405  21.714   2.790
71994W        W38535  44.693  29.532   3.232
71995W        W38536   1.198   6.399   4.788
71996W        W38537  39.662  11.456  14.480
71997W        W38538  14.029  21.848   2.630
71998W        W38539  10.776  36.106   3.120
71999W        W38540   4.238  17.578  11.492
72000W        W38541  19.832  26.157  14.943
72001W        W38542   8.545  42.903  12.774
72002W        W38543  10.609  27.085  13.809
72003W        W38544  43.066  30.458   1.956
72004W        W38545   4.460   0.347   0.706
72005W        W38546  17.778  43.340   3.998
72006W        W38547  31.655   7.897  12.135
72007W        W38548  39.050  43.970  11.160
72008W        W38549  36.469  25.511  12.929
72009W        W38550  41.995  18.330   0.899
72010W        W38551  35.936   9.989  10.877
72011W        W38552  18.257  24.077   2.077
72012W        W38553   2.160  16.216   0.173
72013W        W38554  39.838  43.254   1.953
72014W        W38555  18.107   0.301   3.763
72015W        W38556  26.540  11.133  12.105
72016W        W38557  43.824  23.532   4.163
72017W        W38558  41.128  32.083  11.129
72018W        W38559  26.310  29.908   0.965
72019W        W38560  36.332  23.151  11.437
72020W        W38561   6.844   7.939  12.859
72021W        W38562  40.934  22.780   1.710
72022W        W38563  39.576   6.535   4.115
72023W        W38564  21.376  21.715  12.923
72024W        W38565   4.441  16.797  10.813
72025W        W38566  11.705  11.221   4.260
72026W        W38567  15.983  44.685   4.218
72027W        W38568   3.913  17.120   3.879
72028W        W38569  13.593  14.357   1.017
72029W        W38570   6.614  27.919   1.361
72030W        W38571  44.045  38.401  11.136
72031W        W38572  12.160   8.378   1.730
72032W        W38573  41.356  35.154   1.343
72033W        W38574  33.455  38.357  14.827
72034W        W38575  17.084  26.440   4.160
72035W        W38576  26.476  41.296   3.200
72036W        W38577  30.037  12.826   0.742
72037W        W38578  18.719   3.505  11.218
72038W        W38579  36.276  32.386  11.907
72039W        W38580  29.143   2.428   1.566
72040W        W38581   5.559   6.398   4.391
72041W        W38582   9.802   8.498  14.928
72042W        W38583   2.723  12.326  10.970
72043W        W38584  13.248  42.890  13.069
72044W        W38585  32.443  38.029   4.757
72045W        W38586  15.758  24.556  13.625
72046W        W38587  33.200   7.368  14.978
72047W        W38588  42.211  38.042  12.784
72048W        W38589   9.824  31.002  11.841
72049W        W38590   9.128   0.867  11.764
72050W        W38591  19.723  31.133  13.433
72051W        W38592  34.511  18.795  14.297
72052W        W38593  18.277  18.198  14.905
72053W        W38594   4.207  24.804   4.097
72054W        W38595  42.017  44.529   3.793
72055W        W38596   1.261  16.038   3.771
72056W        W38597  26.692  11.127  14.381
72057W        W38598  18.984  13.250  14.408
72058W        W38599   1.905  39.043   1.712
72059W        W38600  16.181  31.588   3.617
72060W        W38601  40.861  35.875   0.909
72061W        W38602   1.702  13.435   0.697
72062W        W38603  32.518  35.936   4.550
72063W        W38604  24.618  15.101   0.926
72064W        W38605  32.852  17.598   0.445
72065W        W38606  17.486  43.328  13.403
72066W        W38607   2.536   6.889  12.440
72067W        W38608   6.298  33.659   4.027
72068W        W38609  21.316  44.728  11.172
72069W        W38610  27.433  22.698  11.131
72070W        W38611   7.566   1.636   3.733
72071W        W38612  39.697  32.528   3.179
72072W        W38613  10.073  28.384   1.572
72073W        W38614  21.155   1.436   2.897
72074W        W38615  24.309  31.935   2.889
72075W        W38616  26.770  24.832  12.931
72076W        W38617   8.290  35.376   4.794
72077W        W38618  16.055   6.001   1.936
72078W        W38619  39.738  32.866  11.155
72079W        W38620  20.217  15.734   1.031
72080W        W38621  15.752  18.570   4.799
72081W        W38622  14.668   9.395  11.626
72082W        W38623  29.243  32.007   2.096
72083W        W38624   7.931   9.436   1.287
72084W        W38625  29.122   9.776   4.519
72085W        W38626   3.324  42.749  13.271
72086W        W38627  41.456  40.978   0.390
72087W        W38628   6.333  28.071   3.626
72088W        W38629  17.289  44.874   3.111
72089W        W38630  20.953  30.515  14.524
72090W        W38631  44.383   8.822   4.236
72091W        W38632  37.648  42.075  11.796
72092W        W38633   7.888   7.504  11.196
72093W        W38634  39.051   3.967   3.566
72094W        W38635  15.034  20.316  12.982
72095W        W38636  11.744  24.109  13.617
72096W        W38637  36.306  41.973  11.114
72097W        W38638   3.683  35.964   3.895
72098W        W38639   5.117  15.102   1.355
72099W        W38640  30.123  14.755   2.325
72100W        W38641  24.150   9.770  11.569
72101W        W38642  16.870  25.567   4.147
72102W        W38643   2.526  40.948   4.245
72103W        W38644  29.015  33.698   3.204
72104W        W38645   2.239  31.538  14.838
72105W        W38646   1.221   5.297   4.656
72106W        W38647  20.817   9.521  12.512
72107W        W38648  38.601  29.355  14.843
72108W        W38649  18.747  36.391  11.247
72109W        W38650  26.318  30.836  10.949
72110W        W38651  29.789  28.443  11.100
72111W        W38652   4.633  44.822   4.640
72112W        W38653  21.552  44.757   0.788
72113W        W38654  32.714  27.576  11.199
72114W        W38655  40.933  15.363   2.357
72115W        W38656   9.721  20.137   3.721
72116W        W38657  42.267   6.963  12.418
72117W        W38658  12.989  27.919  11.143
72118W        W38659  15.197  14.724   0.591
72119W        W38660  23.207   5.281  11.698
72120W        W38661   2.597  29.805   4.609
72121W        W38662  11.190  43.099   3.225
72122W        W38663  20.181  35.331  10.876
72123W        W38664  11.873  18.331  12.485
72124W        W38665  31.405  42.449  12.174
72125W        W38666  23.749  43.303   2.541
72126W        W38667  42.992  37.942  14.910
72127W        W38668  33.289  30.659  12.616
72128W        W38669  44.553   4.343  10.787
72129W        W38670  30.648   2.750   1.996
72130W        W38671  28.531  43.221   1.305
72131W        W38672  23.450  37.008  10.725
72132W        W38673  18.134  41.828   3.180
72133W        W38674  22.490   4.495   1.783
72134W        W38675  24.768   8.687   4.174
72135W        W38676  16.086  23.739   0.448
72136W        W38677  31.891  39.976   0.132
72137W        W38678  27.637  34.291   0.488
72138W        W38679   5.750  38.951   3.780
72139W        W38680  26.619  19.623   1.458
72140W        W38681  23.620  30.114   3.132
72141W        W38682  41.533  31.139  11.538
72142W        W38683  14.083  28.861  10.371
72143W        W38684  33.290   9.372  12.961
72144W        W38685  43.097   4.722   3.275
72145W        W38686  38.418   1.657  14.394
72146W        W38687  17.321   9.277   0.363
72147W        W38688   6.175  11.091  13.322
72148W        W38689   7.789  31.464   4.788
72149W        W38690  21.534  31.152  11.395
72150W        W38691  12.137  35.902  11.659
72151W        W38692  36.569   0.482   1.327
72152W        W38693  35.322  22.748   0.634
72153W        W38694  23.843  14.295   3.783
72154W        W38695  36.040   8.120   0.198
72155W        W38696   2.250  44.360  13.660
72156W        W38697   0.182  12.794  12.141
72157W        W38698  37.576  41.675  11.497
72158W        W38699  16.163  29.226  12.894
72159W        W38700  43.805  20.792   1.044
72160W        W38701   3.007   3.527   2.390
72161W        W38702  43.971  32.343  13.916
72162W        W38703  22.515  11.797  14.248
72163W        W38704  10.586  28.684   3.204
72164W        W38705  19.097  27.151  10.671
72165W        W38706  20.677   8.844   2.837
72166W        W38707   4.976   5.230  10.767
72167W        W38708  11.103  23.015  13.656
72168W        W38709  13.637  21.281  12.397
72169W        W38710  11.160  11.124   2.303
72170W        W38711   7.926  26.182  10.651
72171W        W38712   0.768  25.072  12.715
72172W        W38713  41.298   6.249  12.586
72173W        W38714  36.891  15.728  11.513
72174W        W38715   6.316  13.816   3.830
72175W        W38716  22.309  44.423   1.977
72176W        W38717  15.050  23.122   4.192
72177W        W38718  28.648  12.318   3.513
72178W        W38719  22.051  34.368   0.807
72179W        W38720  29.654   7.323  11.702
72180W        W38721  23.816  21.042   4.597
72181W        W38722  40.771  28.314   3.688
72182W        W38723  32.944  14.304  10.696
72183W        W38724  11.578  11.592   3.110
72184W        W38725   0.393  16.364  12.132
72185W        W38726  37.343  31.829  14.929
72186W        W38727  25.486  20.790  13.881
72187W        W38728   4.817  37.826   3.602
72188W        W38729  41.260   4.751   0.909
72189W        W38730  31.402  27.935  12.996
72190W        W38731  31.528   2.304   5.056
72191W        W38732  23.225  19.998  13.871
72192W        W38733  24.051  13.496   2.195
72193W        W38734  28.369  44.242   0.659
72194W        W38735  16.702  11.879  14.976
72195W        W38736  19.553  25.525  13.781
72196W        W38737  37.485  10.167   0.943
72197W        W38738   4.272   5.319  10.262
72198W        W38739  31.393   2.326  14.007
72199W        W38740  43.427  20.521   0.731
72200W        W38741  44.732  33.857   4.118
72201W        W38742  44.406   5.927  10.576
72202W        W38743  27.034   8.233   0.643
72203W        W38744  36.254  18.662  12.298
72204W        W38745   4.857   2.993   2.264
72205W        W38746  28.182  13.791   1.453
72206W        W38747  29.916   9.678  13.367
72207W        W38748  33.869  11.333   4.345
72208W        W38749  22.121  19.962   0.951
72209W        W38750  19.758  14.693   1.604
72210W        W38751  24.059  38.503  13.952
72211W        W38752  16.900  10.235  14.967
72212W        W38753  25.178  32.997  12.159
72213W        W38754  26.181  24.205   0.879
72214W        W38755  21.155  36.821  11.941
72215W        W38756  22.650  18.725   0.809
72216W        W38757   2.099  18.103  13.039
72217W        W38758  34.493   0.777  14.788
72218W        W38759  35.778  35.427   0.325
72219W        W38760  34.257  42.671  14.949
72220W        W38761  11.870  30.525  11.110
72221W        W38762   2.699  38.923  14.056
72222W        W38763  27.008  23.499   4.483
72223W        W38764  42.636   0.288   4.832
72224W        W38765  12.180   2.384  14.062
72225W        W38766  35.613  12.162   0.942
72226W        W38767  36.772  33.851  14.632
72227W        W38768  30.831  27.672  14.718
72228W        W38769   5.876  23.892   4.087
72229W        W38770  43.435  42.518  14.572
72230W        W38771   7.411   0.862  12.443
72231W        W38772  10.418   2.914  11.103
72232W        W38773   3.429  37.063  14.246
72233W        W38774  11.283  16.063   1.016
72234W        W38775   6.241  38.051   3.586
72235W        W38776   0.834  16.700   1.794
72236W        W38777  43.007  41.405  11.925
72237W        W38778  16.240  28.150  14.806
72238W        W38779   4.796  36.114  11.288
72239W        W38780  35.487   8.089  10.731
72240W        W38781   2.894  29.193   3.629
72241W        W38782  38.349  27.103   2.874
72242W        W38783   4.120  35.527   2.617
72243W        W38784  27.528  43.450  14.206
72244W        W38785  42.463  23.965   1.174
72245W        W38786   3.969   1.374   0.849
72246W        W38787  17.809  37.467  13.901
72247W        W38788  30.837  30.187   2.187
72248W        W38789  25.690  42.274   2.747
72249W        W38790   1.716  19.060  14.873
72250W        W38791  10.448   6.064   2.067
72251W        W38792   6.163  41.482  13.819
72252W        W38793  23.625  42.521  11.569
72253W        W38794  42.804  34.950   1.902
72254W        W38795  44.255  16.944  11.551
72255W        W38796  11.632   0.763  10.618
72256W        W38797  16.536   0.739   2.722
72257W        W38798  33.298  26.690   5.048
72258W        W38799  11.100   2.164  14.712
72259W        W38800  24.338   3.774   4.833
72260W        W38801  40.207   3.238  12.512
72261W        W38802  33.076  33.847  14.314
72262W        W38803   0.200  31.147  11.767
72263W        W38804  31.691  43.274   0.361
72264W        W38805  22.047   2.968  10.703
72265W        W38806  44.312  38.455  10.689
72266W        W38807  24.837  27.449  11.097
72267W        W38808   5.650  44.554  14.378
72268W        W38809  31.003   2.288  10.397
72269W        W38810   8.920  34.601   4.650
72270W        W38811  32.835   7.265   4.447
72271W        W38812   8.004  17.284  11.791
72272W        W38813  40.336   9.035   4.591
72273W        W38814  17.105   9.730   1.279
72274W        W38815  36.537  15.061   4.048
72275W        W38816  14.751  15.370  12.044
72276W        W38817  17.578  38.633  14.678
72277W        W38818   4.403  38.313   1.584
72278W        W38819  12.319   2.743   0.722
72279W        W38820   4.169  37.847   1.484
72280W        W38821   9.856  30.604   4.197
72281W        W38822  12.057   7.522   4.266
72282W        W38823  20.968  15.083  13.954
72283W        W38824  29.391  23.494  10.835
72284W        W38825   1.138   6.916   1.421
72285W        W38826   1.126  13.163  12.100
72286W        W38827   7.545  23.809   0.802
72287W        W38828  31.044  10.333  12.622
72288W        W38829  34.082  24.993  12.045
72289W        W38830  33.912  33.849   0.851
72290W        W38831  23.836  33.061   0.245
72291W        W38832   6.415  22.110   4.556
72292W        W38833   6.688  19.631  14.792
72293W        W38834  15.659   4.266  10.150
72294W        W38835  39.443  43.223   0.971
72295W        W38836  38.961  23.735  10.299
72296W        W38837   0.944  30.566  10.169
72297W        W38838  36.898  20.780  13.901
72298W        W38839  27.102  31.976   1.333
72299W        W38840  33.977   1.237   4.575
72300W        W38841  14.915   0.459  13.295
72301W        W38842   8.680  32.453  13.533
72302W        W38843  18.308  15.380   2.696
72303W        W38844  12.828  30.420   4.691
72304W        W38845   1.289  27.644   1.104
72305W        W38846  11.168  24.769  12.976
72306W        W38847   4.337   2.368   0.798
72307W        W38848  25.243   8.690  10.778
72308W        W38849  36.458  22.722   0.524
72309W        W38850   7.190   5.861  12.177
72310W        W38851  20.743  39.245   1.932
72311W        W38852  21.289  21.703   3.248
72312W        W38853  15.799  30.266   0.366
72313W        W38854  35.364  10.899   3.207
72314W        W38855  23.135   0.131   4.097
72315W        W38856  31.591  35.028  13.290
72316W        W38857  29.345   5.784   0.270
72317W        W38858  19.031  20.854   5.102
72318W        W38859  37.137  18.775  10.768
72319W        W38860   8.385  29.535  11.905
72320W        W38861  35.848  22.279  14.466
72321W        W38862  30.515  27.516  11.655
72322W        W38863  29.211  32.016  13.419
72323W        W38864  24.008   9.394   4.090
72324W        W38865  28.296   9.872   0.243
72325W        W38866   4.234   6.177   0.457
72326W        W38867  17.831  15.733   5.059
72327W        W38868  25.819  35.021   4.198
72328W        W38869  27.246  15.915   0.956
72329W        W38870  33.895  37.434  13.629
72330W        W38871  21.150  38.841  13.025
72331W        W38872  31.449  40.549  13.988
72332W        W38873   4.518  22.662  14.629
72333W        W38874  21.286  28.011  10.945
72334W        W38875  42.031  21.871  14.401
72335W        W38876  38.825   3.703  14.511
72336W        W38877  35.331   8.571  14.307
72337W        W38878   5.901  16.745   4.242
72338W        W38879  39.916  33.713   0.489
72339W        W38880  26.974  31.446  14.450
72340W        W38881  42.265  30.317  10.735
72341W        W38882   7.720  16.088  14.863
72342W        W38883  37.421  37.966   2.171
72343W        W38884  15.892  30.233  13.515
72344W        W38885  37.558  44.282   3.165
72345W        W38886  26.979  36.349   0.818
72346W        W38887  26.425   8.860  12.540
72347W        W38888  41.217   6.924  13.866
72348W        W38889   7.272  24.489   5.386
72349W        W38890  31.825  24.648  12.513
72350W        W38891  23.744   2.832  11.236
72351W        W38892   0.950  19.422   2.103
72352W        W38893  29.540  25.559  14.848
72353W        W38894   8.243  36.124   2.412
72354W        W38895  18.074   9.575  10.691
72355W        W38896  44.261  36.462   2.437
72356W        W38897  42.382  13.244   3.780
72357W        W38898  41.035   2.525   2.704
72358W        W38899  18.513  38.893  10.327
72359W        W38900  36.413   6.141  13.971
72360W        W38901   4.200   5.418  13.641
72361W        W38902  25.361   1.500  11.852
72362W        W38903  31.688  37.270  13.971
72363W        W38904  18.699  15.026  13.353
72364W        W38905   7.314  14.551   4.521
72365W        W38906  10.348   4.680   1.974
72366W        W38907  34.822  24.699   0.615
72367W        W38908  33.368  30.170   0.698
72368W        W38909  12.747  25.549  13.402
72369W        W38910  34.658  18.029   3.561
72370W        W38911  26.668  15.017   2.836
72371W        W38912  30.914   2.481   4.512
72372W        W38913  15.128  22.999  12.418
72373W        W38914   1.442  27.503  14.719
72374W        W38915  44.168   1.343  11.516
72375W        W38916   9.457  36.610   2.332
72376W        W38917  19.635  13.652   9.930
72377W        W38918   6.159  34.547   3.881
72378W        W38919  38.967  27.678   1.843
72379W        W38920   5.716  43.540  14.273
72380W        W38921   6.240   8.804   3.391
72381W        W38922  32.324  23.169   2.699
72382W        W38923   2.692  43.258   0.242
72383W        W38924  18.124  22.040   2.001
72384W        W38925   5.967  20.819  12.961
72385W        W38926  17.938  26.436   9.930
72386W        W38927  17.534   1.346  11.998
72387W        W38928  26.598  26.718   4.574
72388W        W38929  43.568   6.044  14.469
72389W        W38930  37.716   6.769  13.454
72390W        W38931   0.305  26.712   2.180
72391W        W38932   9.165   6.244   2.456
72392W        W38933  31.167  44.904   0.047
72393W        W38934   0.543  28.971   4.606
72394W        W38935  29.581  41.728  13.559
72395W        W38936  32.039  11.858   3.608
72396W        W38937  38.348  40.250   3.174
72397W        W38938  34.076  28.858   1.303
72398W        W38939  30.160  42.347   2.864
72399W        W38940  27.443  39.571  10.899
72400W        W38941  26.069  14.580  13.603
72401W        W38942  27.961   3.488   2.773
72402W        W38943  35.034  24.318  12.064
72403W        W38944  26.669  37.871   1.435
72404W        W38945   5.429  10.473   1.233
72405W        W38946  17.746  40.950  12.896
72406W        W38947  36.534  41.260   4.883
72407W        W38948  32.448  21.281  14.260
72408W        W38949  38.791  11.603  10.805
72409W        W38950  23.109  23.466   1.232
72410W        W38951  18.832  21.449   4.523
72411W        W38952  19.880  29.587   2.743
72412W        W38953   2.408  10.882  11.565
72413W        W38954  25.793  24.546  13.423
72414W        W38955  22.987   1.360   4.852
72415W        W38956  26.197  23.697  14.493
72416W        W38957  10.156  34.876  11.067
72417W        W38958  16.653  35.683  14.310
72418W        W38959  17.679   5.919   4.136
72419W        W38960   6.451  39.009   0.717
72420W        W38961  33.973   3.976   1.393
72421W        W38962   1.015  26.044   1.840
72422W        W38963  26.001  34.316  11.987
72423W        W38964   5.664  23.200  13.379
72424W        W38965  16.201  44.041  11.631
72425W        W38966  42.624  26.751   4.814
72426W        W38967  44.805  17.246  14.843
72427W        W38968  28.206  14.297   1.380
72428W        W38969  30.522  27.639   2.131
72429W        W38970  44.501  30.117   1.324
72430W        W38971   1.826  42.447  13.365
72431W        W38972   8.270   7.940  13.988
72432W        W38973  21.598  38.855  12.736
72433W        W38974  16.698   5.749   1.070
72434W        W38975   3.354   3.502   2.793
72435W        W38976  36.505   4.215   1.841
72436W        W38977  37.911  43.240   2.493
72437W        W38978  12.937  12.234  14.322
72438W        W38979  23.200  44.601   1.344
72439W        W38980  41.805  37.394   0.976
72440W        W38981   2.899   5.875   1.224
72441W        W38982  44.569  26.414   4.167
72442W        W38983  10.827  40.646  11.677
72443W        W38984  26.985  10.341   0.337
72444W        W38985  38.033  19.949   1.295
72445W        W38986  12.803  40.781   4.273
72446W        W38987  24.977  40.990   3.690
72447W        W38988  18.032   4.659   3.160
72448W        W38989   3.622  26.474   1.966
72449W        W38990  14.246   0.029  13.965
72450W        W38991  43.605  38.699  11.149
72451W        W38992   2.456  10.417   2.572
72452W        W38993   7.398  30.431   1.346
72453W        W38994  43.509  44.552   2.418
72454W        W38995  14.123  34.881  13.092
72455W        W38996   2.440  44.946   0.424
72456W        W38997  13.764  37.484  10.678
72457W        W38998  28.059  44.704  13.632
72458W        W38999  44.551   3.350   2.260
72459W        W39000  26.266  10.313  10.181
72460W        W39001  29.585  39.021  11.300
72461W        W39002   5.191  40.884  10.607
72462W        W39003   5.620  13.168  13.782
72463W        W39004  42.719  25.836  14.108
72464W        W39005  42.390   2.988  13.468
72465W        W39006  17.842  41.354   2.213
72466W        W39007  39.729  25.495  11.130
72467W        W39008  42.525   0.830   1.455
72468W        W39009  14.271   5.608  13.525
72469W        W39010  28.906  13.951  13.866
72470W        W39011  29.341  12.468   1.481
72471W        W39012   0.142  39.899   3.121
72472W        W39013  31.372   9.661   1.743
72473W        W39014  19.565   1.951  11.586
72474W        W39015  24.096  33.384   5.069
72475W        W39016  23.664  17.572   2.554
72476W        W39017   1.186   4.895   5.098
72477W        W39018  43.005  13.037  13.327
72478W        W39019  28.932   2.490   0.351
72479W        W39020  22.683   6.238   1.123
72480W        W39021  19.227  28.757   2.185
72481W        W39022  21.948  40.374   3.375
72482W        W39023  27.631  22.160  13.370
72483W        W39024  15.722  11.704   5.023
72484W        W39025  11.151  33.997   1.287
72485W        W39026  16.574  37.282   3.250
72486W        W39027  30.442  15.203  13.450
72487W        W39028   4.794   8.311  13.564
72488W        W39029   8.293  24.502  11.919
72489W        W39030  29.845  16.687  11.194
72490W        W39031  31.633  14.237  14.918
72491W        W39032  44.336  12.697  12.081
72492W        W39033   1.959  42.342   1.077
72493W        W39034  15.834   4.293  11.438
72494W        W39035  27.587  39.956  10.604
72495W        W39036   9.798  32.294  12.482
72496W        W39037  42.694  26.389   0.381
72497W        W39038  28.400  12.501  10.150
72498W        W39039  33.179  14.212   2.939
72499W        W39040   2.677  34.176  11.270
72500W        W39041   5.312   4.803   2.761
72501W        W39042  12.087  13.619   2.588
72502W        W39043  41.232  11.868   0.021
72503W        W39044  25.936  10.188   1.801
72504W        W39045  43.032  42.494   2.826
72505W        W39046  39.493   9.374   3.300
72506W        W39047  35.855  38.609   2.271
72507W        W39048  10.117  31.953  11.468
72508W        W39049  35.414  44.685  14.826
72509W        W39050  30.049  15.567  11.009
72510W        W39051  28.049  31.800  11.110
72511W        W39052  14.681  43.984  11.179
72512W        W39053   1.538  12.845   3.533
72513W        W39054  13.119   7.927  11.929
72514W        W39055  26.082   7.141  14.256
72515W        W39056  16.898  10.692  12.155
72516W        W39057  10.597  24.485   2.330
72517W        W39058  18.175  16.375   2.670
72518W        W39059  23.080  35.887   1.827
72519W        W39060  23.614  19.661   1.195
72520W        W39061   1.386  10.425   3.340
72521W        W39062  41.010  36.031  12.120
72522W        W39063  27.653  22.988  10.776
72523W        W39064  28.937   0.684   4.479
72524W        W39065   3.829  38.888  13.489
72525W        W39066  16.549   8.364  11.120
72526W        W39067  34.581  22.097  14.636
72527W        W39068  13.465  22.799  10.237
72528W        W39069   1.731  12.635  14.882
72529W        W39070   3.498  27.108  13.367
72530W        W39071  20.910  43.368   0.798
72531W        W39072  30.642  15.639   3.833
72532W        W39073  16.562   6.659  11.557
72533W        W39074  18.279  16.875   0.001
72534W        W39075  38.601  21.198   2.224
72535W        W39076  37.676  37.510   2.248
72536W        W39077  43.422  27.955   1.229
72537W        W39078  21.085  35.096   0.857
72538W        W39079  42.370   9.178   0.359
72539W        W39080  27.588   1.395  13.962
72540W        W39081  28.133  39.994   1.748
72541W        W39082  10.633  24.551   0.283
72542W        W39083  27.479  18.913  13.489
72543W        W39084   9.197  33.206  13.002
72544W        W39085  34.611  33.985   3.138
72545W        W39086  29.470   8.556  11.299
72546W        W39087  11.188  19.804  12.595
72547W        W39088   8.443  11.061  14.322
72548W        W39089  44.403  44.786  11.597
72549W        W39090  19.505   4.434   3.324
72550W        W39091  44.978  29.598   3.691
72551W        W39092   2.955  21.556  14.948
72552W        W39093  29.890  25.002  14.006
72553W        W39094   0.958  36.876  10.748
72554W        W39095   4.443  25.785   0.869
72555W        W39096  35.032   1.996  14.879
72556W        W39097  26.126  34.076   3.121
72557W        W39098  25.489  26.214   4.172
72558W        W39099  35.420   6.119  11.621
72559W        W39100  15.817  39.009  14.477
72560W        W39101  40.372  23.155   1.851
72561W        W39102   0.854   0.517  14.353
72562W        W39103  42.096   7.843   2.884
72563W        W39104  44.129  35.538  11.946
72564W        W39105  25.472  12.912  13.962
72565W        W39106  12.196   1.275  10.964
72566W        W39107  35.515  32.010  14.085
72567W        W39108  20.713  42.411   4.480
72568W        W39109  34.713  34.868   4.303
72569W        W39110  25.660  34.649  14.240
72570W        W39111  11.873  18.563  11.028
72571W        W39112  40.983  28.580  14.002
72572W        W39113  36.063  16.774   3.954
72573W        W39114  14.571  15.571   1.247
72574W        W39115  20.141  35.449   2.319
72575W        W39116  26.961  28.632  10.668
72576W        W39117  36.134  11.106  11.620
72577W        W39118  25.734  43.412   0.004
72578W        W39119  23.633  24.924   0.397
72579W        W39120   5.230  43.075   2.936
72580W        W39121   2.391   0.607   4.136
72581W        W39122  32.068  30.894   1.947
72582W        W39123   7.335  31.511   0.275
72583W        W39124  35.340   6.704   2.020
72584W        W39125  15.761  23.715   0.850
72585W        W39126  41.983  15.241  13.460
72586W        W39127  29.584  37.243  12.606
72587W        W39128  26.227   2.293  12.009
72588W        W39129  13.055  24.296  14.856
72589W        W39130  34.542  33.968   4.721
72590W        W39131   5.473  31.626   4.823
72591W        W39132  41.221  23.566  14.301
72592W        W39133  35.094  20.680  10.808
72593W        W39134  15.358  34.592  10.596
72594W        W39135  28.520  26.245   2.308
72595W        W39136  44.998   1.762  12.215
72596W        W39137  23.228  33.579   4.001
72597W        W39138   9.290   0.994   2.331
72598W        W39139   1.462  27.968  11.507
72599W        W39140  15.144  35.015  12.170
72600W        W39141  36.985  33.041  13.991
72601W        W39142  28.113  10.756   4.244
72602W        W39143  25.610  42.545  11.573
72603W        W39144   7.741   6.774  11.547
72604W        W39145  16.954  31.955  11.229
72605W        W39146  11.123  16.321  13.320
72606W        W39147   7.837   0.363  11.118
72607W        W39148  19.683  31.660   0.787
72608W        W39149  14.317   1.986   0.254
72609W        W39150  24.736  16.234   1.786
72610W        W39151  35.606  37.776   0.884
72611W        W39152   2.955  19.667   1.113
72612W        W39153  33.420   4.961   2.320
72613W        W39154  43.247   5.506  14.332
72614W        W39155  41.775  35.910  14.346
72615W        W39156  25.110  31.423  10.712
72616W        W39157  32.888  34.852   0.502
72617W        W39158  25.182  17.478   4.077
72618W        W39159  37.291  40.377   3.342
72619W        W39160   6.421  43.684  14.580
72620W        W39161  10.223  11.562  13.503
72621W        W39162  39.806   9.253   4.878
72622W        W39163  25.189  18.380  13.600
72623W        W39164   6.809  24.055  11.205
72624W        W39165   0.368  37.510  14.681
72625W        W39166   8.394   8.786   2.330
72626W        W39167  37.274  25.977  12.363
72627W        W39168  21.012   6.641   4.124
72628W        W39169  39.524  18.339   2.687
72629W        W39170   8.893   4.999   4.222
72630W        W39171  33.137  25.500  13.024
72631W        W39172  41.116   8.379  12.930
72632W        W39173  32.543  34.373  13.912
72633W        W39174  15.140  34.602   3.912
72634W        W39175  13.146  31.403   2.074
72635W        W39176  43.416  13.323  13.459
72636W        W39177  34.302  13.763  10.663
72637W        W39178   0.682  39.515   0.384
72638W        W39179   1.845   4.229   3.973
72639W        W39180  11.300  25.589   2.675
72640W        W39181  16.393  15.019  14.909
72641W        W39182  30.767  27.484  14.259
72642W        W39183   0.492  36.833  11.156
72643W        W39184  37.335  34.060   0.896
72644W        W39185  17.122  13.628   0.075
72645W        W39186  12.400  21.188   3.897
72646W        W39187  17.620  28.610  13.393
72647W        W39188  36.480  12.824   3.677
72648W        W39189  16.820  16.390   2.293
72649W        W39190  26.147  32.350  11.560
72650W        W39191  38.943   7.740   1.250
72651W        W39192  43.898  22.653   2.093
72652W        W39193  16.244   7.308   5.198
72653W        W39194  44.952  18.640  13.091
72654W        W39195   3.010  37.565   1.372
72655W        W39196  15.654   8.860   3.792
72656W        W39197  34.454  15.560   2.891
72657W        W39198  30.665  17.831  11.642
72658W        W39199   3.869  18.058  10.738
72659W        W39200  22.566  13.682  13.724
72660W        W39201  36.394   3.166   0.197
72661W        W39202   6.255  20.809   4.284
72662W        W39203  16.152  38.309  10.324
72663W        W39204   9.115  41.520   3.746
72664W        W39205  37.882  18.078   1.338
72665W        W39206  44.684  20.538  12.946
72666W        W39207  24.610   8.033   2.908
72667W        W39208  26.134  44.284   0.731
72668W        W39209  23.714  18.074   2.382
72669W        W39210  12.695  28.698  13.267
72670W        W39211  24.107  23.995   1.788
72671W        W39212  38.228  38.953  14.287
72672W        W39213   5.652  13.199   3.130
72673W        W39214   6.815  43.911  14.325
72674W        W39215  24.469   9.866  12.142
72675W        W39216  38.953   2.380  12.660
72676W        W39217  21.216  11.364  14.980
72677W        W39218   3.689  11.607   3.484
72678W        W39219  24.331   3.488  10.698
72679W        W39220   9.314  23.660  12.546
72680W        W39221  12.151  40.687  13.183
72681W        W39222  26.426   4.566   4.163
72682W        W39223  18.509  13.123   0.270
72683W        W39224  30.598   5.532  14.364
72684W        W39225   4.741  11.931  12.800
72685W        W39226  34.964   4.212   5.660
72686W        W39227  15.920  11.602   1.826
72687W        W39228  32.364  39.909  13.839
72688W        W39229   8.820   4.450  13.752
72689W        W39230  26.403  40.994  13.330
72690W        W39231  17.458  42.121   9.918
72691W        W39232  36.464   5.225  12.084
72692W        W39233  44.393  20.789   3.139
72693W        W39234  40.294   3.366  10.868
72694W        W39235  42.814   6.466   1.288
72695W        W39236  11.793  25.471  12.904
72696W        W39237   0.833  14.659  10.493
72697W        W39238  41.539  37.920  13.509
72698W        W39239  34.977  14.706   4.163
72699W        W39240  11.612  27.893   5.212
72700W        W39241  12.040  21.182  12.514
72701W        W39242  16.502  24.246   1.771
72702W        W39243  26.599  15.530   4.486
72703W        W39244  37.116   8.151   2.571
72704W        W39245  34.435  33.062  14.032
72705W        W39246  19.500  42.753  14.249
72706W        W39247  17.979  18.472  12.966
72707W        W39248  34.893   2.361  11.203
72708W        W39249  25.751  40.986   3.353
72709W        W39250  16.218  40.471  13.800
72710W        W39251  29.373  18.645  10.649
72711W        W39252   5.252  36.432  14.815
72712W        W39253  12.175  33.166   2.303
72713W        W39254  25.358  18.404  10.301
72714W        W39255   0.026  36.935   2.246
72715W        W39256  22.598  42.930   4.954
72716W        W39257  32.142   2.503   3.147
72717W        W39258  15.196  14.061  13.468
72718W        W39259   3.958  19.499   3.915
72719W        W39260  27.168   7.962  11.027
72720W        W39261  19.092  29.463  12.243
72721W        W39262  28.927  35.023   0.051
72722W        W39263  11.562  38.487   4.095
72723W        W39264  39.920  31.592   4.083
72724W        W39265  24.890  37.837  14.807
72725W        W39266   4.941  17.168   0.385
72726W        W39267  42.862  37.453  14.903
72727W        W39268  28.725  36.908   2.929
72728W        W39269  31.745   1.852   4.928
72729W        W39270  30.568  13.203  14.124
72730W        W39271  37.787   3.330  10.765
72731W        W39272  38.464   3.327  11.983
72732W        W39273  20.640  25.079   2.386
72733W        W39274  44.499   6.721  12.873
72734W        W39275  32.523  29.018  12.352
72735W        W39276  40.007  14.126   0.806
72736W        W39277   7.247   4.515   1.256
72737W        W39278  18.121  26.111  13.095
72738W        W39279  30.130  38.481  11.572
72739W        W39280   7.181  33.154  12.559
72740W        W39281  31.068  17.144  10.454
72741W        W39282  15.655   0.266  11.590
72742W        W39283  44.394  14.441  12.356
72743W        W39284  42.683   3.386   9.976
72744W        W39285  35.056  13.090   0.764
72745W        W39286  29.723  41.479   3.096
72746W        W39287   7.205  12.663   1.227
72747W        W39288  17.475  29.180   0.287
72748W        W39289   5.402   9.690  14.287
72749W        W39290  26.315  32.117  13.314
72750W        W39291  44.453  39.917  13.109
72751W        W39292   2.798  14.198   3.018
72752W        W39293  18.632  42.966  12.246
72753W        W39294  24.692  43.815  12.440
72754W        W39295  44.238  15.130   1.553
72755W        W39296  23.179  16.001   0.750
72756W        W39297  26.902   4.983  14.977
72757W        W39298   5.650  36.421  14.373
72758W        W39299   5.977  13.866   4.246
72759W        W39300  26.874  11.265   3.866
72760W        W39301  26.565  22.723  12.058
72761W        W39302  26.969  20.600  10.929
72762W        W39303  36.800   0.875  13.370
72763W        W39304  30.560  44.178  11.607
72764W        W39305   8.411  22.481  11.092
72765W        W39306  18.663  24.418  12.630
72766W        W39307  22.622  44.410  12.585
72767W        W39308   1.843  20.101   3.251
72768W        W39309  29.255  14.880  13.860
72769W        W39310  21.054  38.718  13.995
72770W        W39311   9.730  19.482   0.867
72771W        W39312   5.069  40.780  13.531
72772W        W39313  40.752   1.332   4.750
72773W        W39314  28.408  38.538   0.307
72774W        W39315  40.046  38.072   4.756
72775W        W39316  14.667  18.700   1.838
72776W        W39317  26.761  42.901   4.900
72777W        W39318  31.064  16.937  11.534
72778W        W39319  41.406  21.166  13.460
72779W        W39320  11.319  10.889   3.529
72780W        W39321  33.963  39.025  11.810
72781W        W39322   7.243  42.298   2.644
72782W        W39323  15.822  44.989   1.376
72783W        W39324  31.165  29.370   0.790
72784W        W39325  28.003  24.642   1.695
72785W        W39326  19.663  11.819  11.534
72786W        W39327  43.542  43.709  12.535
72787W        W39328   0.470  40.645   0.400
72788W        W39329  38.996  43.875   3.178
72789W        W39330   4.283  33.011  11.224
72790W        W39331   8.387  25.118   0.040
72791W        W39332   3.030   7.940   3.700
72792W        W39333  33.536  17.444   4.675
72793W        W39334  40.268  12.299   2.719
72794W        W39335   6.237  22.726  12.887
72795W        W39336  41.012  28.087   0.821
72796W        W39337  22.467  13.516   4.326
72797W        W39338   1.814  39.522   1.502
72798W        W39339  15.264  44.362  10.740
72799W        W39340   1.409   6.951  10.715
72800W        W39341  18.616  41.384   0.399
72801W        W39342  28.810  37.576  12.362
72802W        W39343   7.282  36.313   0.214
72803W        W39344  16.749  16.627  11.131
72804W        W39345  28.405  13.309  13.134
72805W        W39346  29.078   1.192   1.198
72806W        W39347  10.764  11.931  13.482
72807W        W39348   8.682  22.005   1.557
72808W        W39349  32.091  10.739   4.287
72809W        W39350  32.349  16.782   3.300
72810W        W39351  44.379  18.634   0.229
72811W        W39352  21.108   1.763  10.780
72812W        W39353  18.638  26.049   3.353
72813W        W39354  10.239  11.575   3.804
72814W        W39355  13.834   2.550   0.403
72815W        W39356  37.378  18.344  13.735
72816W        W39357  10.548  27.539  12.602
72817W        W39358  23.747   4.227  14.988
72818W        W39359  16.299   8.364   3.803
72819W        W39360  25.511  40.696   3.694
72820W        W39361  38.281  27.791  12.985
72821W        W39362  21.776  14.534   0.418
72822W        W39363  33.487  10.798  13.406
72823W        W39364   7.037  24.743   1.950
72824W        W39365   4.894  35.969  14.509
72825W        W39366  23.527  36.313   1.317
72826W        W39367  13.944  40.457  12.017
72827W        W39368  17.188   7.716  10.783
72828W        W39369  23.080  36.105  14.044
72829W        W39370   9.168  31.151   4.685
72830W        W39371   2.786  42.351  13.792
72831W        W39372  35.091  41.684   3.559
72832W        W39373  16.217  20.109   1.686
72833W        W39374   0.807  27.487  13.117
72834W        W39375  19.754  18.248   4.573
72835W        W39376  21.762  23.916  12.179
72836W        W39377   1.008  18.590  10.569
72837W        W39378  10.286   8.116   0.002
72838W        W39379  20.628  23.307   1.433
72839W        W39380  35.900  33.070   0.420
72840W        W39381  15.392  18.285  11.936
72841W        W39382   9.274  29.832   0.690
72842W        W39383  10.607   3.025   0.764
72843W        W39384  39.968  27.136   4.673
72844W        W39385  21.410  44.892  12.505
72845W        W39386  42.242  27.676   1.015
72846W        W39387  39.035   7.764  13.543
72847W        W39388  27.133  43.512  12.905
72848W        W39389  44.054  38.115   4.610
72849W        W39390   8.665   3.258  13.430
72850W        W39391  34.405  16.040   1.738
72851W        W39392  27.999  44.324  12.791
72852W        W39393  42.902   5.035   0.990
72853W        W39394  38.733  35.878   4.059
72854W        W39395  32.533  36.524   0.374
72855W        W39396  21.073  13.033   0.849
72856W        W39397   2.617  34.014   4.897
72857W        W39398   9.871   8.798   0.891
72858W        W39399  27.561  13.767   2.378
72859W        W39400  16.533  33.533  10.574
72860W        W39401  10.539  24.230   2.793
72861W        W39402   5.779  32.927  11.250
72862W        W39403  21.665  28.212   0.866
72863W        W39404  24.384  34.006  14.499
72864W        W39405  15.784   1.572  12.103
72865W        W39406  39.434  34.451  12.866
72866W        W39407  41.032  11.249  12.831
72867W        W39408   8.264   9.241   3.911
72868W        W39409   6.654  32.422   5.033
72869W        W39410  38.067  32.280   1.765
72870W        W39411   1.384  42.046  10.734
72871W        W39412   4.293  42.912  13.458
72872W        W39413  27.628   3.346  11.351
72873W        W39414   9.985  12.785  11.502
72874W        W39415  33.427  30.924   1.212
72875W        W39416  13.624  12.078  12.108
72876W        W39417  15.654  10.841  10.899
72877W        W39418  25.663  31.608  12.034
72878W        W39419  38.601  21.558   4.530
72879W        W39420  20.898  36.380  10.914
72880W        W39421   3.459   3.905   4.538
72881W        W39422   4.453  37.051  12.134
72882W        W39423  34.424  37.574   2.232
72883W        W39424  26.034   4.762   3.210
72884W        W39425  10.623  18.170  12.882
72885W        W39426  20.648  29.166   2.743
72886W        W39427   2.274  22.500   2.321
72887W        W39428  34.984  14.347   4.548
72888W        W39429  40.950  42.904  11.449
72889W        W39430  22.066  12.191   4.212
72890W        W39431  26.448   8.328   0.773
72891W        W39432   9.768  35.370  11.997
72892W        W39433  33.695  13.834   1.314
72893W        W39434  32.379  17.330   4.096
72894W        W39435  41.227   4.014  12.828
72895W        W39436  44.223  12.291  10.236
72896W        W39437  31.710  14.457   2.767
72897W        W39438   8.717  23.097  14.882
72898W        W39439  35.607  44.475  12.629
72899W        W39440  30.180  28.578   3.226
72900W        W39441  42.086  26.184  13.080
72901W        W39442  26.967   4.488   0.071
72902W        W39443  37.010  21.529   4.378
72903W        W39444   3.879  14.186  12.561
72904W        W39445  23.856  39.837  10.394
72905W        W39446  11.300  43.215   1.193
72906W        W39447   5.916   5.747  14.320
72907W        W39448  34.383   5.849   2.728
72908W        W39449   7.316  32.100   3.212
72909W        W39450  18.775  31.726   4.300
72910W        W39451  36.976  11.791  12.127
72911W        W39452  17.113  33.015  11.835
72912W        W39453  41.605  26.373  14.349
72913W        W39454  17.382  30.148   4.965
72914W        W39455  14.860  28.127  12.151
72915W        W39456  25.506  42.018  11.603
72916W        W39457  26.471  23.257  14.415
72917W        W39458   1.791  43.156   2.966
72918W        W39459   5.187   8.423  12.947
72919W        W39460  22.875   0.249  13.475
72920W        W39461  44.638   5.573  10.257
72921W        W39462  18.205   1.224   1.309
72922W        W39463   7.289  43.536   0.940
72923W        W39464  28.520   2.449   0.659
72924W        W39465   0.145   0.832  13.842
72925W        W39466  25.765  26.300  13.726
72926W        W39467  31.451   4.815   2.715
72927W        W39468  16.088  22.491   0.330
72928W        W39469  30.397  42.246   2.221
72929W        W39470  22.508  25.076  13.548
72930W        W39471  13.089  22.557  11.949
72931W        W39472  14.745   3.906  11.651
72932W        W39473   3.541  29.559   4.887
72933W        W39474  37.551   3.371   0.290
72934W        W39475  27.709  31.529   0.387
72935W        W39476  40.352  12.899  13.001
72936W        W39477   0.942  34.782  13.410
72937W        W39478  27.887  14.668  12.979
72938W        W39479   1.962   7.371  13.771
72939W        W39480  19.865  25.309  14.237
72940W        W39481  12.366   2.832  14.225
72941W        W39482  37.388   8.935  14.256
72942W        W39483  36.561  30.628  10.750
72943W        W39484  16.698  42.270  12.409
72944W        W39485  24.168   4.931  14.836
72945W        W39486   2.802   7.348  14.552
72946W        W39487   8.234  39.054   3.519
72947W        W39488  19.464  43.122  14.967
72948W        W39489  11.817  15.526  10.246
72949W        W39490  44.298  36.779   0.624
72950W        W39491   6.866  36.389  11.929
72951W        W39492  17.612   1.941  12.594
72952W        W39493  11.254  24.627  11.564
72953W        W39494  42.066  21.158  10.400
72954W        W39495  40.289  24.217  11.396
72955W        W39496  22.694  19.267  11.978
72956W        W39497  10.672   6.700   1.126
72957W        W39498   9.136   0.420   3.349
72958W        W39499   0.364  32.146  11.373
72959W        W39500  32.043  42.291   3.842
72960W        W39501   2.234   0.945   2.754
72961W        W39502  10.796  10.693   3.724
72962W        W39503  31.117   6.056  14.837
72963W        W39504  27.372   5.619  13.147
72964W        W39505  25.107  43.096  12.100
72965W        W39506   2.266  42.292  11.931
72966W        W39507   4.818  25.995  12.088
72967W        W39508  25.441   5.440   4.959
72968W        W39509  20.992   1.039  11.141
72969W        W39510  14.670  36.965  12.433
72970W        W39511  42.852  21.577  13.246
72971W        W39512  39.337  19.031   0.984
72972W        W39513  15.131   8.280  13.785
72973W        W39514  23.740   3.851  12.544
72974W        W39515   4.711  18.742  13.360
72975W        W39516  20.732  32.663  12.591
72976W        W39517  13.903   8.639  14.517
72977W        W39518  43.468   7.359  13.904
72978W        W39519   5.652  20.712  12.543
72979W        W39520  42.328  12.090   1.733
72980W        W39521  29.965  21.097  13.883
72981W        W39522  36.875   5.973   4.215
72982W        W39523  30.300  17.285   2.680
72983W        W39524  34.965   2.246  13.392
72984W        W39525  31.047   5.631  11.574
72985W        W39526  26.450  30.712   1.372
72986W        W39527  24.048  19.953   1.185
72987W        W39528   5.770  18.213   3.603
72988W        W39529  19.291  43.886   3.727
72989W        W39530  21.300  12.318   5.221
72990W        W39531  33.480  21.720   2.294
72991W        W39532  35.032  10.846  11.059
72992W        W39533  35.661  25.154   3.639
72993W        W39534  34.896   4.832  12.562
72994W        W39535  15.115  43.323   0.245
72995W        W39536   0.863  16.287  13.956
72996W        W39537  10.241  34.858  13.384
72997W        W39538   6.685  26.084   1.196
72998W        W39539  36.970  44.427  11.159
72999W        W39540  32.558  16.588   3.766
73000W        W39541  40.906  13.212   3.766
73001W        W39542  25.630  34.351   3.184
73002W        W39543   5.806   3.771  12.517
73003W        W39544  22.564  29.794   4.112
73004W        W39545   0.265  10.449   4.120
73005W        W39546  40.054  11.792  12.351
73006W        W39547  25.206  37.854   3.346
73007W        W39548  43.835  12.578   0.177
73008W        W39549  15.322  24.726  14.381
73009W        W39550  16.174  32.108   0.588
73010W        W39551  21.372  23.729  11.527
73011W        W39552   0.131   0.650   3.114
73012W        W39553   1.996  23.743   0.014
73013W        W39554   8.244   3.563   3.862
73014W        W39555  44.282  15.293  14.004
73015W        W39556  22.784  30.457   2.728
73016W        W39557  40.698  35.506  10.774
73017W        W39558  41.952   6.682  12.900
73018W        W39559  29.354  13.644  13.805
73019W        W39560  44.779   5.643  11.564
73020W        W39561  44.899  17.651   4.044
73021W        W39562  22.503  23.887  12.480
73022W        W39563  42.378  10.894  14.352
73023W        W39564  23.722  12.246   3.306
73024W        W39565   1.047  21.591   2.956
73025W        W39566  25.832  16.012   4.995
73026W        W39567  17.790  14.357  12.284
73027W        W39568  37.295  19.207   4.541
73028W        W39569  35.501  29.132   1.858
73029W        W39570  38.187  24.643  12.531
73030W        W39571  30.499  24.280  14.171
73031W        W39572  21.551  41.725  14.760
73032W        W39573   2.992  23.066  12.413
73033W        W39574   7.690  34.481   9.895
73034W        W39575  14.534  31.637   3.529
73035W        W39576  39.386  44.454  12.472
73036W        W39577  34.745  31.700  12.564
73037W        W39578  35.314  31.297   4.163
73038W        W39579  19.721   4.840   4.172
73039W        W39580  26.307  13.859   1.781
73040W        W39581  20.975  20.367   3.213
73041W        W39582  11.498  41.308   3.217
73042W        W39583  17.132  40.290   4.159
73043W        W39584   0.433  23.977   4.634
73044W        W39585  11.997  31.974  11.199
73045W        W39586  35.446   1.353   3.695
73046W        W39587  42.080  16.328  11.515
73047W        W39588   7.306  25.572  13.002
73048W        W39589  22.722  41.598   4.884
73049W        W39590  37.322  16.243   2.799
73050W        W39591  43.038   9.482   5.040
73051W        W39592  17.344  19.250  12.068
73052W        W39593  26.042  26.499  12.354
73053W        W39594   5.880   9.470  11.834
73054W        W39595   9.077  23.213  12.498
73055W        W39596  31.149  44.925   2.915
73056W        W39597  21.264  42.923   0.510
73057W        W39598  14.778  31.691  12.950
73058W        W39599  21.454  21.648   4.868
73059W        W39600  11.500   4.782  11.752
73060W        W39601   2.455  21.137   0.253
73061W        W39602  37.832   9.595   3.577
73062W        W39603  39.840   0.741   3.681
73063W        W39604   9.977  39.156   2.380
73064W        W39605   2.126   5.374  10.122
73065W        W39606  41.835   1.089  11.186
73066W        W39607  17.587  40.324   0.658
73067W        W39608   3.409  26.925   1.694
73068W        W39609  41.023  44.880  13.443
73069W        W39610  18.303  12.573  14.517
73070W        W39611  19.112  39.061   1.310
73071W        W39612  31.201  42.895   3.176
73072W        W39613  15.459  34.113   1.959
73073W        W39614   3.688   7.330  11.116
73074W        W39615  39.348   8.957  12.411
73075W        W39616  29.156  13.461   4.632
73076W        W39617  21.495   4.827  14.530
73077W        W39618   1.075  20.984  10.241
73078W        W39619  11.246  29.131   4.569
73079W        W39620  40.716  26.054  14.592
73080W        W39621  21.147  19.051  14.999
73081W        W39622  42.327   6.229  13.539
73082W        W39623  40.939  17.228  11.594
73083W        W39624   2.459  36.805   3.675
73084W        W39625  26.011   3.489  14.713
73085W        W39626  41.994   5.322  13.457
73086W        W39627  42.299  16.625  11.181
73087W        W39628  15.216   4.446  13.144
73088W        W39629  29.506   5.450   1.312
73089W        W39630  36.223   5.864   2.296
73090W        W39631  30.377  20.625   3.196
73091W        W39632  26.208   4.298   1.690
73092W        W39633  34.167   9.911   1.190
73093W        W39634  10.799   7.927  14.800
73094W        W39635  27.496  34.053  11.296
73095W        W39636   9.841   1.524  12.641
73096W        W39637   8.452   4.546  10.073
73097W        W39638  22.483  29.387   0.933
73098W        W39639  23.924  15.744  12.973
73099W        W39640  40.630   8.152   3.670
73100W        W39641   4.316   8.111  11.969
73101W        W39642  16.417  11.661   1.927
73102W        W39643   8.397  21.126  12.097
73103W        W39644   7.407  40.537  14.520
73104W        W39645  28.925  28.256  11.126
73105W        W39646  35.763  40.725  11.150
73106W        W39647  44.892  14.140  14.233
73107W        W39648  32.178  16.042   1.746
73108W        W39649   7.778  17.439   2.374
73109W        W39650   9.044  27.562   2.404
73110W        W39651  22.914   9.268  13.591
73111W        W39652  29.925   5.482  13.052
73112W        W39653  44.368  26.690  13.755
73113W        W39654   0.516  34.798   0.801
73114W        W39655  13.828  11.000   1.814
73115W        W39656  38.550  17.504  10.917
73116W        W39657  43.915  43.039   4.627
73117W        W39658  13.248   0.491  12.993
73118W        W39659  44.019   2.530  12.096
73119W        W39660   7.413  26.971   1.703
73120W        W39661   3.292  34.639   3.841
73121W        W39662  39.406  44.530  11.968
73122W        W39663  39.535   0.906  12.248
73123W        W39664   6.189  14.612  13.488
73124W        W39665  37.989  37.908  12.500
73125W        W39666  37.038   9.722  11.515
73126W        W39667  36.153  10.443  10.258
73127W        W39668  35.026   9.811  13.945
73128W        W39669   1.898  23.266   2.089
73129W        W39670  12.893  43.618   1.936
73130W        W39671  18.014  24.990  12.440
73131W        W39672   5.791   3.708   0.864
73132W        W39673  13.179   1.773  12.686
73133W        W39674   9.342  16.236   0.743
73134W        W39675  23.132  20.201  11.469
73135W        W39676  42.088  16.129  14.022
73136W        W39677  40.556  36.383   3.238
73137W        W39678  27.917  20.027   2.707
73138W        W39679  27.676  29.754   4.405
73139W        W39680  24.079   4.703  14.351
73140W        W39681  19.239  37.851   1.768
73141W        W39682   0.828   5.405  12.527
73142W        W39683  32.016  44.783  13.100
73143W        W39684  33.458  16.095   2.749
73144W        W39685  10.100  25.772  14.247
73145W        W39686   8.658  43.341  13.052
73146W        W39687  33.827  41.975   4.268
73147W        W39688  34.198   4.243   0.515
73148W        W39689  15.276  32.899   1.649
73149W        W39690  40.604   0.428  14.040
73150W        W39691  12.662   1.990   4.415
73151W        W39692   8.642   5.296  10.653
73152W        W39693  23.434   2.823  12.917
73153W        W39694  42.038  27.394   2.319
73154W        W39695  24.773   4.093  12.057
73155W        W39696   0.330  22.004   4.065
73156W        W39697  21.161  13.661  13.099
73157W        W39698  24.567  15.080  13.138
73158W        W39699   7.557   2.999  12.650
73159W        W39700  33.108  19.163  12.917
73160W        W39701  32.861   1.944  13.791
73161W        W39702  35.716  24.625  11.454
73162W        W39703   9.915  22.359  12.950
73163W        W39704  15.184  29.950  11.947
73164W        W39705  14.170   3.864  14.221
73165W        W39706   3.394  22.727   3.861
73166W        W39707  27.105   9.579   3.588
73167W        W39708  16.823  26.441  14.054
73168W        W39709  13.299  16.561  14.059
73169W        W39710  17.007  23.891  11.476
73170W        W39711  23.760  41.276  13.887
73171W        W39712  29.635   3.510  12.482
73172W        W39713  14.069  36.408  14.021
73173W        W39714  11.133   9.212  10.715
73174W        W39715  35.008  29.667   3.164
73175W        W39716  12.624  11.264  14.239
73176W        W39717  11.375  31.751  10.541
73177W        W39718  34.807  31.374   4.214
73178W        W39719  13.967   5.426   3.385
73179W        W39720  22.256  38.366   2.913
73180W        W39721  28.611  21.491  13.837
73181W        W39722  19.234  24.152  12.936
73182W        W39723  22.801  40.868  11.643
73183W        W39724  36.913  37.920   2.241
73184W        W39725  22.373  34.137  11.423
73185W        W39726  25.238   0.542   3.279
73186W        W39727  29.456  35.824  10.448
73187W        W39728  10.740  38.085   0.660
73188W        W39729   5.375  39.887  13.942
73189W        W39730   5.295  19.488  12.116
73190W        W39731  33.789  22.166  14.519
73191W        W39732  38.526   4.437  13.044
73192W        W39733  34.435  23.265   3.790
73193W        W39734  26.451   6.286  12.114
73194W        W39735  14.182  23.257  11.600
73195W        W39736  22.433  14.310  12.532
73196W        W39737   0.746   8.171   0.908
73197W        W39738  38.327  15.301  12.465
73198W        W39739  22.134  37.765  12.030
73199W        W39740   3.840  36.942  10.609
73200W        W39741   2.716   9.653   0.671
73201W        W39742  42.612  30.817  11.819
73202W        W39743   8.814   8.769   3.296
73203W        W39744   2.300  22.967  11.978
73204W        W39745  37.016  28.614  11.199
73205W        W39746  21.072  40.282  11.211
73206W        W39747  22.679   4.561   3.608
73207W        W39748  26.509   9.732  14.690
73208W        W39749  37.898  17.311  14.748
73209W        W39750  38.044  35.588  13.945
73210W        W39751  22.992   3.886  13.095
73211W        W39752  35.923  13.220   1.683
73212W        W39753  36.491   4.505   2.702
73213W        W39754  43.729  18.662  12.571
73214W        W39755  12.080  29.077  14.050
73215W        W39756  30.748   6.216   3.124
73216W        W39757   5.501  40.487  13.488
73217W        W39758  32.073  44.022   3.871
73218W        W39759   2.183  38.833  13.348
73219W        W39760   5.037  24.616  13.276
73220W        W39761  20.980  20.537  11.917
73221W        W39762  22.966  25.656   1.848
73222W        W39763  16.287  24.438   4.847
73223W        W39764  24.065  32.123   1.390
73224W        W39765  17.160   3.877   4.734
73225W        W39766  13.859  29.551   0.769
73226W        W39767   8.202   7.455  14.241
73227W        W39768  11.653  40.493   0.812
73228W        W39769   2.504  24.742  14.109
73229W        W39770  26.579  38.454  12.587
73230W        W39771  19.180  34.950   0.788
73231W        W39772   3.995  19.611   3.404
73232W        W39773  16.637  41.738  13.333
73233W        W39774  14.315   0.980  10.659
73234W        W39775   0.826  11.185  11.678
73235W        W39776   4.194  44.450   5.232
73236W        W39777  38.651  28.047  13.454
73237W        W39778  18.077  44.439  14.940
73238W        W39779  23.334  24.068  11.718
73239W        W39780  42.478  35.752  13.341
73240W        W39781  31.940  30.509   0.747
73241W        W39782  37.382   0.308   4.494
73242W        W39783  36.511   0.603   3.173
73243W        W39784   2.321  33.209   5.510
73244W        W39785   0.047  14.760   2.379
73245W        W39786  17.610  37.615  11.338
73246W        W39787   5.255  14.374  14.058
73247W        W39788  12.819  22.644   3.092
73248W        W39789  20.389   7.418  11.210
73249W        W39790   3.203   1.131   0.473
73250W        W39791  44.806  28.398   1.915
73251W        W39792  21.642  35.908  11.816
73252W        W39793  39.404  28.699  10.578
73253W        W39794  23.988   9.360   3.236
73254W        W39795   4.010  24.024  10.910
73255W        W39796  44.047  22.157  14.519
73256W        W39797  32.351  43.370   2.254
73257W        W39798  29.925  38.970  11.671
73258W        W39799  18.954  43.248  11.178
73259W        W39800   9.371  41.821   4.091
73260W        W39801  26.124  15.108   2.688
73261W        W39802  11.616   7.847  12.901
73262W        W39803  16.100   4.277   2.078
73263W        W39804  37.309  28.055   3.727
73264W        W39805  12.494  26.235  14.905
73265W        W39806   5.490  22.231  10.254
73266W        W39807   7.182   7.489  11.504
73267W        W39808   0.348  43.008   1.661
73268W        W39809   0.511  15.721   5.243
73269W        W39810  21.551  10.050   1.904
73270W        W39811  20.178  17.712   3.243
73271W        W39812  30.043   2.291  12.432
73272W        W39813  33.030  14.032  11.144
73273W        W39814   0.631  36.450  10.793
73274W        W39815  38.546  18.291   4.497
73275W        W39816  30.916  23.023   1.869
73276W        W39817  43.508  35.422  10.787
73277W        W39818  38.922  18.149  12.132
73278W        W39819   3.354   7.869   4.115
73279W        W39820  15.157  42.070   3.750
73280W        W39821  25.999  32.959  13.396
73281W        W39822   5.006  26.088   2.575
73282W        W39823  44.834   5.886   1.784
73283W        W39824  30.967   8.435  13.013
73284W        W39825  18.614   5.765   3.835
73285W        W39826  20.557  21.633   0.019
73286W        W39827   8.701   8.842   4.672
73287W        W39828  42.287  40.895   4.329
73288W        W39829   1.843  14.519   4.578
73289W        W39830  10.080   6.209  13.346
73290W        W39831   9.423   3.452   4.084
73291W        W39832  10.823  15.640  12.351
73292W        W39833   5.759  30.013  14.787
73293W        W39834  28.146   6.440  11.139
73294W        W39835  34.260  40.204   0.323
73295W        W39836  29.954  38.359   0.263
73296W        W39837  21.792  11.156   4.050
73297W        W39838  30.966  15.752   2.272
73298W        W39839  44.609  19.996   1.866
73299W        W39840  34.939  34.927  11.620
73300W        W39841   9.619   8.327   0.792
73301W        W39842  41.928  21.370  11.726
73302W        W39843  29.837  30.627   4.065
73303W        W39844  35.773  20.159  12.291
73304W        W39845   5.521   6.407   1.184
73305W        W39846  38.223  37.455  12.573
73306W        W39847   9.558  27.220  10.582
73307W        W39848  15.126  27.908   0.920
73308W        W39849  36.799  38.357   4.228
73309W        W39850   4.323   7.281   1.219
73310W        W39851  15.832  26.306   1.004
73311W        W39852  26.685  35.614  14.809
73312W        W39853  27.651  18.670   4.020
73313W        W39854  11.124  43.398  11.458
73314W        W39855  44.051  21.052   4.542
73315W        W39856  39.559  12.673  10.719
73316W        W39857  31.476  26.000   1.365
73317W        W39858   4.249  16.855   4.208
73318W        W39859  30.881  38.575   2.804
73319W        W39860  25.514  40.065  14.052
73320W        W39861  43.643  33.697   1.539
73321W        W39862   5.806  37.840  12.189
73322W        W39863  35.889   5.468   0.842
73323W        W39864  13.223  11.369   3.217
73324W        W39865  17.991  39.368  12.964
73325W        W39866  43.320   5.212   4.549
73326W        W39867  33.799   8.673  11.908
73327W        W39868   5.435  19.501  13.982
73328W        W39869   4.623  38.045  13.944
73329W        W39870   3.431   0.545  14.370
73330W        W39871   9.186  34.821  10.604
73331W        W39872  23.998   5.193   2.985
73332W        W39873  12.123  38.509   2.370
73333W        W39874  33.298   7.045   3.148
73334W        W39875  36.476  28.594  12.964
73335W        W39876  16.046  14.486   0.753
73336W        W39877  41.725  23.297  14.484
73337W        W39878  24.345  27.490  11.162
73338W        W39879  36.023   3.281  14.306
73339W        W39880  37.046  40.346  10.699
73340W        W39881  29.426  43.206  14.867
73341W        W39882  39.629   7.841  10.785
73342W        W39883   8.894  17.155  14.963
73343W        W39884  40.399  36.134  10.856
73344W        W39885   3.722   4.705   0.778
73345W        W39886  18.277   0.755   0.359
73346W        W39887   1.889  35.954   2.416
73347W        W39888  36.083  38.784   2.735
73348W        W39889  39.314  18.049  13.483
73349W        W39890  25.295   1.984  13.022
73350W        W39891  19.070  25.178  12.025
73351W        W39892   6.544  43.035  12.127
73352W        W39893  12.156  24.930  10.868
73353W        W39894  11.927  37.840   3.629
73354W        W39895   0.044  38.843   2.598
73355W        W39896  14.882  23.206  13.219
73356W        W39897  23.219  32.032   2.489
73357W        W39898  32.401  42.406  11.339
73358W        W39899   0.103   1.899  12.731
73359W        W39900  11.707  14.709  14.019
73360W        W39901   3.745  21.929  10.803
73361W        W39902  16.123  39.890   2.097
73362W        W39903  26.123  19.030   3.013
73363W        W39904  17.136   0.746   2.741
73364W        W39905  40.402  44.133   4.958
73365W        W39906  43.679   8.927  12.092
73366W        W39907  29.103   7.337  11.850
73367W        W39908  17.430  40.634  13.149
73368W        W39909   9.196  20.031  10.530
73369W        W39910  34.788   7.127   4.219
73370W        W39911  27.167  10.232   2.398
73371W        W39912  17.313  16.723  13.057
73372W        W39913   5.365  42.267  11.875
73373W        W39914  38.506  35.594  11.529
73374W        W39915  20.604  20.294   2.832
73375W        W39916  16.251   0.052   0.901
73376W        W39917  35.713  25.923  13.934
73377W        W39918  18.016  13.153  10.669
73378W        W39919  18.469   2.086  14.344
73379W        W39920   9.143  33.333   0.561
73380W        W39921  20.873  40.079   2.268
73381W        W39922   5.248  37.037  11.077
73382W        W39923  30.413  15.616   1.543
73383W        W39924  33.885   3.636  14.844
73384W        W39925   5.791  15.938   1.247
73385W        W39926   4.461   6.183  11.628
73386W        W39927  43.782   3.950  12.874
73387W        W39928   8.862   2.324   0.193
73388W        W39929   1.827  28.218  14.950
73389W        W39930  23.044  26.026   4.316
73390W        W39931  34.605   4.238   3.063
73391W        W39932  41.465  37.084   4.082
73392W        W39933  21.914   7.038   3.164
73393W        W39934   3.392  22.465   4.718
73394W        W39935   1.827  19.240  12.159
73395W        W39936  39.962  33.888  11.482
73396W        W39937  22.195  21.530  10.999
73397W        W39938  27.907  11.705  10.936
73398W        W39939   9.420  30.463   2.625
73399W        W39940  37.483   0.226  12.386
73400W        W39941  25.617  25.094   4.944
73401W        W39942   7.799   2.367  12.400
73402W        W39943   5.199  32.508   2.258
73403W        W39944  28.709  41.521   4.516
73404W        W39945  41.342   9.525   4.942
73405W        W39946  35.871  37.828   4.260
73406W        W39947   0.319   8.687   0.302
73407W        W39948   3.927  24.044   4.149
73408W        W39949  41.877   4.692  14.273
73409W        W39950  40.490  28.915   2.639
73410W        W39951   8.909  13.182  12.615
73411W        W39952  20.284  27.658  12.631
73412W        W39953  29.022  42.300   3.468
73413W        W39954   0.785  35.273  13.446
73414W        W39955  26.412  18.200   4.539
73415W        W39956  25.924   7.737   1.307
73416W        W39957  14.197  23.694  14.255
73417W        W39958  17.571  18.856  11.332
73418W        W39959  16.768   9.541   0.262
73419W        W39960  21.767   6.927  13.890
73420W        W39961  31.483   0.571   2.369
73421W        W39962   4.373   2.765  12.555
73422W        W39963  11.723  43.080  11.126
73423W        W39964  18.233  41.423  11.260
73424W        W39965  16.851  42.697   3.269
73425W        W39966  39.212  37.515   3.684
73426W        W39967  15.536  10.231   0.179
73427W        W39968  31.972   7.181  11.379
73428W        W39969  20.742   5.097   5.397
73429W        W39970  26.768  33.920  12.326
73430W        W39971   2.264  42.333   0.094
73431W        W39972  23.704  22.037  12.726
73432W        W39973  14.193  33.485  13.270
73433W        W39974  30.067  27.624   1.893
73434W        W39975  15.649  40.157  12.115
73435W        W39976  36.543  29.130   4.240
73436W        W39977  18.911  16.047   4.196
73437W        W39978   1.824  10.913  12.929
73438W        W39979  28.895  16.534  13.519
73439W        W39980  11.131  29.719   1.854
73440W        W39981  26.100  44.784  14.336
73441W        W39982  11.732  29.122   2.146
73442W        W39983  26.485  12.838  14.995
73443W        W39984  34.083  14.923  12.053
73444W        W39985   7.699  41.327   1.788
73445W        W39986   9.744  18.014   1.525
73446W        W39987  23.112  33.332  12.239
73447W        W39988   6.131  18.611   4.458
73448W        W39989  30.422  16.681   0.850
73449W        W39990  40.841   5.714  12.971
73450W        W39991  28.205   5.318   4.557
73451W        W39992   1.116   1.858   4.544
73452W        W39993  42.897  24.587   1.262
73453W        W39994   3.799  30.021   4.845
73454W        W39995  41.884   9.674   2.682
73455W        W39996  22.033  15.096   4.611
73456W        W39997  23.758   8.319   2.462
73457W        W39998  15.917  41.283  12.848
73458W        W39999  18.774  35.856   0.334
73459W        W40000   8.376  21.164  14.469
73460W        W40001  35.033  18.754  14.493
73461W        W40002  18.229  15.741  10.259
73462W        W40003  16.820  11.829  13.582
73463W        W40004  39.939   3.306  11.215
73464W        W40005  17.066  43.474  14.842
73465W        W40006  22.186  41.259  11.444
73466W        W40007  29.581   4.854  14.595
73467W        W40008   6.172  12.293   2.535
73468W        W40009  33.220  38.603   3.138
73469W        W40010  42.925  38.163  14.443
73470W        W40011  20.907  28.700  14.556
73471W        W40012  15.959  34.679   2.221
73472W        W40013  22.517  34.624  14.302
73473W        W40014  36.907  21.983  11.709
73474W        W40015   7.964  37.579  12.445
73475W        W40016  14.291  31.189  13.570
73476W        W40017  21.504  24.819   0.591
73477W        W40018   2.026  15.234   0.562
73478W        W40019  40.000  21.152   1.933
73479W        W40020   0.978   1.701   3.641
73480W        W40021  14.050  12.922  14.976
73481W        W40022  17.007  19.156  14.350
73482W        W40023  38.936  30.589  11.177
73483W        W40024  19.134  26.135   0.953
73484W        W40025  38.746   2.549   3.158
73485W        W40026  42.343  16.847   3.220
73486W        W40027  11.826  44.040   4.681
73487W        W40028  35.908  21.096  11.301
73488W        W40029  37.342  35.939  13.172
73489W        W40030  21.286  27.243  11.182
73490W        W40031  11.313  15.657   0.709
73491W        W40032  28.227  17.520   3.479
73492W        W40033  28.058  36.937   0.423
73493W        W40034  30.973  44.274  11.074
73494W        W40035  35.606   0.948   2.326
73495W        W40036  35.937   2.059   2.300
73496W        W40037  44.884  27.554   4.718
73497W        W40038  37.564   7.677   1.678
73498W        W40039  38.963  38.286   4.230
73499W        W40040  20.577  15.651   0.414
73500W        W40041  14.718   9.378  12.508
73501W        W40042  25.117  25.457  14.916
73502W        W40043   2.240  38.496  12.985
73503W        W40044  22.767  39.759   0.240
73504W        W40045  22.767  33.885  10.590
73505W        W40046  28.858  44.885   1.410
73506W        W40047  13.083  24.792  14.039
73507W        W40048   7.848  30.841  11.562
73508W        W40049  24.007  34.270  12.149
73509W        W40050  33.475  36.685   1.198
73510W        W40051   9.810   2.884   1.410
73511W        W40052  31.172  33.027   1.804
73512W        W40053  11.422  34.443   1.241
73513W        W40054  17.566  20.661  12.601
73514W        W40055  16.652   2.696   2.735
73515W        W40056  34.811   1.520  11.543
73516W        W40057  32.412  27.616   3.460
73517W        W40058  40.162   3.413   2.209
73518W        W40059  40.028  20.657   0.406
73519W        W40060  19.075   1.083   3.219
73520W        W40061  18.186  31.633  12.616
73521W        W40062   0.780  28.621  10.513
73522W        W40063  19.038  39.201  13.057
73523W        W40064  35.864  30.144  11.620
73524W        W40065  29.057  15.935  13.528
73525W        W40066   3.026  36.482   4.320
73526W        W40067   9.908  26.590   2.440
73527W        W40068  37.585  29.360  12.437
73528W        W40069   8.316  30.566   2.956
73529W        W40070   0.775  42.549   2.340
73530W        W40071  22.691  32.933  14.834
73531W        W40072  16.236  19.563  14.404
73532W        W40073  24.935  30.593   3.781
73533W        W40074  23.202  28.590   2.982
73534W        W40075  16.256  33.725   2.455
73535W        W40076  19.341  15.257  11.239
73536W        W40077   0.984  38.961   1.629
73537W        W40078   5.046   9.185   4.067
73538W        W40079  22.749  34.618  12.319
73539W        W40080  36.532   3.577   4.127
73540W        W40081   3.376  16.569   2.144
73541W        W40082  28.904  38.648   4.135
73542W        W40083  27.681   9.680   3.017
73543W        W40084   4.214  22.001   1.241
73544W        W40085  16.770  18.963   4.095
73545W        W40086  27.671  24.259  14.872
73546W        W40087  12.656  42.330  14.921
73547W        W40088  33.577  19.681  12.485
73548W        W40089  41.320  44.921   2.633
73549W        W40090  44.115  16.049   0.050
73550W        W40091  32.673  25.984   2.738
73551W        W40092  15.366  19.331   3.232
73552W        W40093  25.851  11.479  13.781
73553W        W40094   7.389  22.455  10.502
73554W        W40095  22.177  22.927   3.245
73555W        W40096  33.524   9.622   0.472
73556W        W40097  44.901  37.011  11.157
73557W        W40098   3.979  22.165  10.414
73558W        W40099  17.242  32.913   3.605
73559W        W40100  36.953   8.638  11.545
73560W        W40101  12.995  39.053  14.543
73561W        W40102   3.999  23.764  12.550
73562W        W40103  34.420  12.682   0.433
73563W        W40104   4.887  26.746  13.080
73564W        W40105   5.968  38.668  14.576
73565W        W40106  23.225   0.175  14.262
73566W        W40107  35.621  22.602  10.580
73567W        W40108  43.466  28.198   4.476
73568W        W40109  44.039   9.695   3.642
73569W        W40110  11.563   9.323   1.114
73570W        W40111  15.139  20.329   4.902
73571W        W40112  42.092  32.966   0.533
73572W        W40113  41.872  11.577  13.920
73573W        W40114  40.800  19.812   3.338
73574W        W40115  10.020  13.050   2.856
73575W        W40116  39.518  19.225  11.163
73576W        W40117  37.435  20.942   3.498
73577W        W40118  37.276  33.636  10.845
73578W        W40119  35.486  11.690  12.787
73579W        W40120  24.578  17.120   4.253
73580W        W40121  28.889  16.707   0.204
73581W        W40122   3.182   6.383   0.835
73582W        W40123  20.172  19.482  14.518
73583W        W40124  28.626  19.232   1.842
73584W        W40125   4.254  27.918   4.071
73585W        W40126  16.809   6.945  13.939
73586W        W40127  44.756   8.720  14.505
73587W        W40128  15.661  44.881  13.324
73588W        W40129  33.921  34.545   3.277
73589W        W40130  30.557  38.063   4.922
73590W        W40131  37.314  43.287   1.715
73591W        W40132  13.587  38.556   0.735
73592W        W40133   0.842   5.518  11.615
73593W        W40134  17.242  44.115  11.737
73594W        W40135  20.985  40.988   3.141
73595W        W40136  33.551  21.942   0.946
73596W        W40137  44.315   2.030   3.104
73597W        W40138  39.964  24.429  14.137
73598W        W40139  29.619  35.355   2.276
73599W        W40140  29.600  19.187   3.341
73600W        W40141   3.644   9.580  10.965
73601W        W40142  30.852  22.124   3.213
73602W        W40143  43.047  40.936  13.486
73603W        W40144   6.440   8.376   2.162
73604W        W40145  23.308  32.209   3.629
73605W        W40146  18.934  35.216  12.080
73606W        W40147  32.590  14.678   2.246
73607W        W40148  26.569  17.317  10.584
73608W        W40149  14.667  30.375  12.506
73609W        W40150  14.654  12.227   4.565
73610W        W40151  21.486  14.284   0.906
73611W        W40152   1.262  32.386   2.728
73612W        W40153  25.028  34.080  13.968
73613W        W40154  24.706  17.892  12.615
73614W        W40155  41.812  38.292   3.297
73615W        W40156   7.806   1.405  12.976
73616W        W40157  35.448  26.945   4.204
73617W        W40158   9.347  29.383   4.057
73618W        W40159  25.581   3.301   4.981
73619W        W40160  28.893  20.832  14.430
73620W        W40161  38.516  31.157  10.697
73621W        W40162  36.511   5.158  11.576
73622W        W40163  29.050  15.775  11.062
73623W        W40164  31.356  41.385  11.514
73624W        W40165  21.238  12.157  13.843
73625W        W40166  30.987  11.782   3.626
73626W        W40167  22.335   8.215  12.488
73627W        W40168  39.497  35.939  14.479
73628W        W40169  36.074  27.320   3.751
73629W        W40170  27.010  44.017   1.521
73630W        W40171  40.452  30.365  10.754
73631W        W40172  24.012  41.977   2.109
73632W        W40173   0.150  20.201   4.164
73633W        W40174  16.513  36.536   2.408
73634W        W40175  40.265  20.008  10.815
73635W        W40176  34.062  19.169  14.048
73636W        W40177   7.672  30.221  12.793
73637W        W40178  37.322   9.127   2.242
73638W        W40179  42.404  24.972  10.613
73639W        W40180  20.760   4.546  11.120
73640W        W40181  20.085   7.903  10.753
73641W        W40182  13.541  16.765   0.368
73642W        W40183   9.568  23.913   0.051
73643W        W40184  33.558   0.922   3.589
73644W        W40185  40.312  29.173  13.544
73645W        W40186  12.145   0.204   3.269
73646W        W40187  31.170  10.413   0.850
73647W        W40188  19.164  29.790  10.589
73648W        W40189  41.354  26.922  12.963
73649W        W40190  36.619  21.216  12.068
73650W        W40191  11.491  17.808  12.539
73651W        W40192  18.043  40.371   0.056
73652W        W40193  40.596  25.856  13.425
73653W        W40194  36.564  10.021   4.029
73654W        W40195  43.003   1.240   0.323
73655W        W40196  34.889  26.440  13.502
73656W        W40197  43.459   3.771   4.722
73657W        W40198  30.139   0.418  10.775
73658W        W40199  21.257   4.426   0.321
73659W        W40200  34.130   8.480  10.602
73660W        W40201  28.929  40.012  12.182
73661W        W40202   8.631  14.287  13.555
73662W        W40203  18.722  15.794   1.344
73663W        W40204   3.109  44.942  10.215
73664W        W40205  23.945   0.507  12.020
73665W        W40206  41.917  27.445   4.673
73666W        W40207   6.104  30.471   4.803
73667W        W40208  18.496  31.809  14.884
73668W        W40209  26.613   1.466   3.650
73669W        W40210  40.353  35.647  13.855
73670W        W40211  37.476   2.187   1.785
73671W        W40212  22.355   2.585  12.385
73672W        W40213  31.108  41.373   0.692
73673W        W40214  36.835  15.807  14.207
73674W        W40215  28.478  36.100  10.796
73675W        W40216  26.798  21.205   1.424
73676W        W40217   4.005  40.375   2.838
73677W        W40218  31.462  16.751  10.986
73678W        W40219  11.333  31.007   2.410
73679W        W40220   3.400  14.132   1.154
73680W        W40221  30.302  36.321  12.536
73681W        W40222  41.549  18.063  13.273
73682W        W40223  23.271  19.376   2.454
73683W        W40224  27.501  39.399  11.856
73684W        W40225  13.699  40.817   1.704
73685W        W40226  27.146  33.098   3.225
73686W        W40227  21.630   8.232  13.363
73687W        W40228  26.658  41.917  12.437
73688W        W40229  18.249   3.414  14.401
73689W        W40230  33.919  44.292   2.164
73690W        W40231  32.371  41.413   0.507
73691W        W40232  37.797  32.869  11.107
73692W        W40233  20.111  44.937  14.900
73693W        W40234  29.462  21.505  10.831
73694W        W40235  14.928  25.237   4.805
73695W        W40236  33.132  14.057   4.157
73696W        W40237  21.190  39.048   2.136
73697W        W40238   1.235  38.239   4.884
73698W        W40239  44.488  30.137  14.898
73699W        W40240  40.461   6.027   1.625
73700W        W40241   2.130   8.440   1.117
73701W        W40242   9.340  42.350   2.701
73702W        W40243  20.263  25.332  10.275
73703W        W40244  41.241  19.627  10.720
73704W        W40245  10.436  13.132   4.667
73705W        W40246  38.910  42.048   1.642
73706W        W40247  34.719  40.056   2.608
73707W        W40248   4.838  20.561   2.585
73708W        W40249  30.040  19.994  12.599
73709W        W40250   7.591   5.962   1.526
73710W        W40251  36.084  16.269  14.471
73711W        W40252  44.361   5.974  10.060
73712W        W40253  17.473  28.212   0.324
73713W        W40254  26.016  26.262   4.585
73714W        W40255  17.081  12.291   4.142
73715W        W40256   2.885  12.785  10.805
73716W        W40257   0.921  20.183  14.863
73717W        W40258  33.013  32.006  13.312
73718W        W40259   4.201  35.457   0.315
73719W        W40260  14.264   6.918  14.030
73720W        W40261  31.202  32.608  12.003
73721W        W40262  24.166   2.294  11.471
73722W        W40263   6.940   0.252  13.890
73723W        W40264  19.602  38.153   0.394
73724W        W40265  25.853  22.587   2.326
73725W        W40266   1.993  12.398   1.828
73726W        W40267  29.122  25.157   4.509
73727W        W40268  21.750   8.736  10.646
73728W        W40269  42.329  37.916   4.417
73729W        W40270  33.644  15.249   4.126
73730W        W40271  30.093  29.135   3.639
73731W        W40272  35.409   7.123   0.713
73732W        W40273   9.533  15.103  14.987
73733W        W40274   6.097  36.421  14.656
73734W        W40275  43.828  21.499   4.362
73735W        W40276  32.408  19.466   2.211
73736W        W40277  31.116  30.468  13.214
73737W        W40278  17.817  20.336   4.645
73738W        W40279  41.245  31.083  11.090
73739W        W40280  38.803  34.799   0.146
73740W        W40281  18.162  12.083   9.798
73741W        W40282  29.660  17.959  11.655
73742W        W40283  26.019  34.761  14.593
73743W        W40284  23.316  30.175   3.730
73744W        W40285  41.087  31.474   1.867
73745W        W40286  11.277  32.632  11.476
73746W        W40287  15.593  25.149  12.380
73747W        W40288  20.272  27.067  13.806
73748W        W40289  18.101  13.120   4.052
73749W        W40290  38.960  10.634  12.079
73750W        W40291   5.438   6.484   1.713
73751W        W40292   7.127   4.486   4.280
73752W        W40293   3.501  22.531  14.515
73753W        W40294  24.214  17.969  10.380
73754W        W40295  42.238  30.007   3.576
73755W        W40296  43.902  28.537   1.903
73756W        W40297  13.332  14.377   1.868
73757W        W40298  28.514  20.544   2.325
73758W        W40299  22.972  24.444   1.463
73759W        W40300  34.748  25.567  12.135
73760W        W40301   5.247   2.442   2.707
73761W        W40302  19.817  29.644  11.045
73762W        W40303   3.243  34.798  13.983
73763W        W40304  32.165   4.022  13.561
73764W        W40305   0.262   9.318   2.614
73765W        W40306  30.585  11.084   0.283
73766W        W40307  40.984  34.522  13.628
73767W        W40308  23.479  17.065   2.720
73768W        W40309  22.514   3.380   2.622
73769W        W40310  33.081  11.458  14.033
73770W        W40311  13.103   7.434   1.316
73771W        W40312  12.865  37.845  12.635
73772W        W40313   9.343  32.625   3.759
73773W        W40314   5.285  39.587  14.396
73774W        W40315   4.242  39.601   2.383
73775W        W40316  11.779   0.029   1.733
73776W        W40317  17.009  14.300   5.215
73777W        W40318  31.528   9.348   4.621
73778W        W40319  37.622  43.494  10.779
73779W        W40320  42.543  37.087   2.479
73780W        W40321  10.678   4.364   3.193
73781W        W40322  23.575   1.968  14.579
73782W        W40323  19.135  44.469  13.565
73783W        W40324  25.308  40.959  11.674
73784W        W40325  12.522  31.197  12.996
73785W        W40326  12.491  40.399   3.295
73786W        W40327   7.887  40.800  13.404
73787W        W40328  41.242  43.016   4.073
73788W        W40329  19.568  13.126  10.078
73789W        W40330  20.657  38.788   5.095
73790W        W40331  35.825  14.648   3.569
73791W        W40332  36.473  36.148  13.065
73792W        W40333   5.639  13.821   4.655
73793W        W40334   2.755  29.265   4.866
73794W        W40335  36.704  17.504   2.795
73795W        W40336  30.035  25.594  14.073
73796W        W40337  30.245  28.368   0.059
73797W        W40338  25.581  38.435  12.338
73798W        W40339  28.950   7.271  14.252
73799W        W40340  33.563  28.897  12.101
73800W        W40341   9.171   3.280   1.223
73801W        W40342  43.749  41.847  11.411
73802W        W40343  23.140  35.045   1.383
73803W        W40344  24.261   9.574   0.215
73804W        W40345  28.574   3.897  14.555
73805W        W40346  32.405   1.253   0.005
73806W        W40347  19.267   8.638  14.420
73807W        W40348  31.163  31.326  14.456
73808W        W40349  36.332  43.349  11.499
73809W        W40350  43.112  31.794   4.294
73810W        W40351  15.512   9.261  14.286
73811W        W40352  23.652  39.394  10.533
73812W        W40353  39.471   2.991  14.386
73813W        W40354  18.005  28.141   0.295
73814W        W40355  22.106  36.463   3.771
73815W        W40356  39.290  36.267  13.872
73816W        W40357  42.589  14.685  14.603
73817W        W40358  39.628  24.910  13.427
73818W        W40359  39.859  37.316   2.963
73819W        W40360   5.737  11.925  13.473
73820W        W40361  22.661   5.849  14.958
73821W        W40362  32.498  38.084   0.343
73822W        W40363   9.918  26.282  11.617
73823W        W40364  38.300  11.769   3.287
73824W        W40365  13.867  36.088  11.194
73825W        W40366  16.526  18.192   4.565
73826W        W40367  11.729  38.048   4.297
73827W        W40368   0.162   9.431   2.121
73828W        W40369  25.911  43.659  12.051
73829W        W40370  40.999  20.755  10.687
73830W        W40371  38.440   1.564   2.903
73831W        W40372  27.680  30.036   3.237
73832W        W40373   7.090  31.209  12.520
73833W        W40374   9.416  32.849   3.297
73834W        W40375  13.760  44.098  11.658
73835W        W40376   2.090  41.391  14.957
73836W        W40377  35.989  15.260  14.348
73837W        W40378  28.687   6.813   2.106
73838W        W40379  43.925  42.199   3.646
73839W        W40380   8.697   4.706  14.889
73840W        W40381  37.026   6.360   2.203
73841W        W40382  33.430  20.746   5.076
73842W        W40383  41.062  28.244  11.071
73843W        W40384  18.151  28.701  14.002
73844W        W40385   9.905  27.892  14.039
73845W        W40386  32.536  15.693   2.915
73846W        W40387   3.925   8.419   2.674
73847W        W40388   1.909   9.040   3.470
73848W        W40389  14.897  28.027  12.736
73849W        W40390  41.880  33.435  11.615
73850W        W40391   6.795  38.554   2.398
73851W        W40392  11.730  29.270   1.311
73852W        W40393  14.967  22.087   3.291
73853W        W40394  14.313  15.539   2.736
73854W        W40395  39.693  19.846   0.742
73855W        W40396  38.969   5.939   1.828
73856W        W40397  29.034  25.744   0.894
73857W        W40398  20.085  21.193  13.906
73858W        W40399  15.874  23.405  12.466
73859W        W40400  22.165  17.337   3.271
73860W        W40401  16.316  41.578  10.705
73861W        W40402  27.280   4.523  11.099
73862W        W40403   2.710   4.007   3.663
73863W        W40404  13.571  36.457   3.250
73864W        W40405  19.532  17.754  11.894
73865W        W40406  11.112  37.509   4.086
73866W        W40407  21.688  25.997  11.317
73867W        W40408  28.682  43.813  12.541
73868W        W40409   0.873  18.318  13.044
73869W        W40410  41.260   2.281  10.715
73870W        W40411  23.262  37.457   2.054
73871W        W40412  15.605  26.499  14.197
73872W        W40413  28.132   9.801   4.893
73873W        W40414  35.404   6.389  14.270
73874W        W40415   6.766  11.670   0.806
73875W        W40416   4.762   9.059  11.298
73876W        W40417  17.150  37.630   0.415
73877W        W40418  10.084  36.926  10.569
73878W        W40419  43.949  42.978  11.931
73879W        W40420   1.820   3.733  14.533
73880W        W40421  30.485  13.943   1.251
73881W        W40422   0.637  22.517  11.030
73882W        W40423  11.229  21.982   1.758
73883W        W40424  19.605  28.803  11.940
73884W        W40425  19.983  35.868   0.916
73885W        W40426  30.632  31.008   4.523
73886W        W40427  23.736  30.020   0.028
73887W        W40428  36.390  33.963  13.405
73888W        W40429   8.203  24.569  10.447
73889W        W40430  12.778  44.312  12.528
73890W        W40431   5.412  38.390  11.080
73891W        W40432  24.069   1.919   3.197
73892W        W40433  43.339  17.207   4.005
73893W        W40434  21.043   5.279  14.698
73894W        W40435  34.813   4.560  10.163
73895W        W40436  39.130   2.780  14.880
73896W        W40437  33.524  18.269   3.960
73897W        W40438  35.302  13.578   0.717
73898W        W40439   6.662  22.246  11.617
73899W        W40440   5.304  31.920   2.620
73900W        W40441  39.371  26.167   0.921
73901W        W40442  30.343   9.250  14.899
73902W        W40443  12.715  29.467  10.722
73903W        W40444  12.370  26.187  11.394
73904W        W40445  11.317  13.063   2.241
73905W        W40446  39.922   6.573   0.179
73906W        W40447  43.076  13.165  14.767
73907W        W40448   6.004  14.563   0.974
73908W        W40449  44.860  27.121   1.117
73909W        W40450   0.962  29.723  13.750
73910W        W40451  24.960  30.539  14.746
73911W        W40452  23.997  16.376  11.180
73912W        W40453  41.826   5.596  10.591
73913W        W40454  13.399  35.412  12.837
73914W        W40455   7.212  12.832   0.346
73915W        W40456  19.205  33.907   1.759
73916W        W40457  25.542  16.585   0.833
73917W        W40458  17.748  41.803  10.682
73918W        W40459  14.223  16.201  11.233
73919W        W40460  44.343  43.313   0.310
73920W        W40461  35.104  43.675   0.416
73921W        W40462   2.588  42.052  13.257
73922W        W40463  29.598  17.163   0.210
73923W        W40464  39.885  33.532   3.130
73924W        W40465   2.946  22.274   3.175
73925W        W40466   9.834  26.384  12.630
73926W        W40467  21.674  14.130   3.655
73927W        W40468   2.664  34.128   4.406
73928W        W40469   1.841  16.977   3.091
73929W        W40470   2.387  36.428  13.565
73930W        W40471  35.629  27.914   0.299
73931W        W40472   8.205  43.296  11.569
73932W        W40473  44.824   0.620   3.647
73933W        W40474  28.078  26.581   5.103
73934W        W40475   6.446  23.055   1.325
73935W        W40476  33.797  39.251  12.233
73936W        W40477  15.540  29.859  12.636
73937W        W40478  27.209  27.443   3.259
73938W        W40479  30.691  32.012   3.748
73939W        W40480  44.040  44.727  14.335
73940W        W40481   5.127   8.114   2.753
73941W        W40482  11.379  39.708   3.581
73942W        W40483  42.534  42.778   3.663
73943W        W40484  42.866   6.932  13.692
73944W        W40485   7.931   6.888  13.436
73945W        W40486  26.294  20.390   4.676
73946W        W40487   4.411  44.729  12.869
73947W        W40488  17.740   1.439  12.486
73948W        W40489  16.536  36.636   0.441
73949W        W40490   7.987  36.496  11.551
73950W        W40491   1.616  38.019   0.284
73951W        W40492  29.543  23.174   0.456
73952W        W40493  21.326  36.339  11.801
73953W        W40494  26.450  39.390   2.307
73954W        W40495   1.453  33.114   2.173
73955W        W40496  19.623  12.401  12.603
73956W        W40497   1.245  29.064  12.293
73957W        W40498  32.909   2.094  12.044
73958W        W40499  25.402  43.869   3.664
73959W        W40500  15.435  36.605  12.940
73960W        W40501  10.490  40.185   4.597
73961W        W40502  25.330  15.200  11.598
73962W        W40503  32.351  19.046   4.081
73963W        W40504  44.772   2.249   1.387
73964W        W40505  28.671  23.101   0.533
73965W        W40506  23.287  42.796  14.054
73966W        W40507  26.633  21.354  13.144
73967W        W40508  32.053  43.479   1.290
73968W        W40509  28.194   0.966  13.762
73969W        W40510   0.676  23.526  11.355
73970W        W40511   2.648  16.961  12.367
73971W        W40512  18.271  42.389   0.455
73972W        W40513  28.174  10.293   4.615
73973W        W40514   8.425  19.960  14.832
73974W        W40515  29.966  36.099   2.652
73975W        W40516  22.470  42.782   2.223
73976W        W40517  28.288  17.718  14.877
73977W        W40518   2.141   9.596  14.937
73978W        W40519  31.039   2.657   3.863
73979W        W40520  43.739  26.118   0.807
73980W        W40521  25.758  25.081   2.228
73981W        W40522  20.032  14.234  11.929
73982W        W40523  10.717  12.780  11.049
73983W        W40524   6.693   7.643   3.590
73984W        W40525  27.478   1.891   1.740
73985W        W40526  44.942  15.117  14.408
73986W        W40527   5.834   9.650   4.705
73987W        W40528  27.638  19.987   3.132
73988W        W40529   9.834  10.691  10.711
73989W        W40530  33.160  18.666   4.093
73990W        W40531   0.331   4.975  11.216
73991W        W40532  31.736  11.655   4.495
73992W        W40533  18.829  34.467   4.450
73993W        W40534  27.282   9.904   0.366
73994W        W40535  38.906  19.717   1.201
73995W        W40536   1.237  10.259   0.381
73996W        W40537  14.216   6.260  12.424
73997W        W40538  12.015  32.835  11.960
73998W        W40539   5.766  18.249  11.932
73999W        W40540  32.153  38.084   4.113
74000W        W40541  30.409  13.192   1.878
74001W        W40542  31.807  12.174   0.816
74002W        W40543   2.765  21.299   1.236
74003W        W40544  43.278  44.785  13.115
74004W        W40545  16.835  11.787   4.092
74005W        W40546  15.013  43.242  13.426
74006W        W40547  15.498  37.567   4.126
74007W        W40548  27.725  40.864  12.069
74008W        W40549  44.397   5.213   1.915
74009W        W40550  20.831  34.932  14.314
74010W        W40551  10.749  22.921  10.693
74011W        W40552  44.274   2.177  14.775
74012W        W40553  34.067  14.590   0.274
74013W        W40554  30.471  30.473   0.092
74014W        W40555   3.749  10.222  13.154
74015W        W40556   4.146   1.257   0.366
74016W        W40557  15.760  33.404   5.188
74017W        W40558  39.895  24.181   4.719
74018W        W40559  24.103  26.096   3.612
74019W        W40560  34.400  38.892   3.258
74020W        W40561  22.478  18.389  12.592
74021W        W40562  41.284  21.342  10.606
74022W        W40563  19.755   6.098  14.796
74023W        W40564   2.659  16.333  12.580
74024W        W40565   2.104   8.292  11.693
74025W        W40566  35.441  34.007   0.980
74026W        W40567  44.007  43.700  14.393
74027W        W40568  16.824   8.432   1.474
74028W        W40569  43.010  37.592   0.825
74029W        W40570  31.982  39.102   0.921
74030W        W40571  16.278  16.567  14.689
74031W        W40572   7.277  39.144   2.659
74032W        W40573  35.518  22.305  11.654
74033W        W40574  24.042  13.870   2.576
74034W        W40575  41.412  11.166   3.539
74035W        W40576   7.298   8.145   3.177
74036W        W40577  15.689  21.829   1.394
74037W        W40578  14.388   5.017  12.348
74038W        W40579  20.255  42.073  11.025
74039W        W40580  16.351  26.984  14.328
74040W        W40581  12.766  21.105   4.999
74041W        W40582   8.056  32.677   0.384
74042W        W40583  40.931   6.713  11.061
74043W        W40584  42.544  33.709   4.096
74044W        W40585  17.330  33.793   0.808
74045W        W40586  22.006   2.959   1.271
74046W        W40587   9.597  28.734   3.433
74047W        W40588  34.146  32.592  14.323
74048W        W40589  12.250  34.992  12.367
74049W        W40590  28.050   6.006   4.146
74050W        W40591  19.172  29.191   3.895
74051W        W40592  12.625   5.446  12.078
74052W        W40593  18.284  11.810   3.747
74053W        W40594   4.518  40.760  12.437
74054W        W40595   8.232  11.181   2.901
74055W        W40596   6.926  14.431   2.650
74056W        W40597   0.738  43.555  13.995
74057W        W40598  40.587   7.244   2.234
74058W        W40599  33.864   9.298  11.519
74059W        W40600  37.255  33.407   0.404
74060W        W40601  13.756   0.463   2.306
74061W        W40602  34.170  27.557   2.825
74062W        W40603   9.612  37.962   0.851
74063W        W40604  16.521  19.326   2.018
74064W        W40605  31.238  21.678  11.264
74065W        W40606  28.253  41.529  14.759
74066W        W40607  32.117   6.418   4.113
74067W        W40608  40.353  32.062   4.621
74068W        W40609  44.430   7.880  13.962
74069W        W40610  39.844  25.213   3.831
74070W        W40611   7.418  30.504   2.331
74071W        W40612  25.988   4.779  10.742
74072W        W40613  24.232  10.828   2.082
74073W        W40614  43.016  37.144   2.229
74074W        W40615  20.985  20.768  12.835
74075W        W40616  11.751  23.044   3.624
74076W        W40617   9.622  34.993   2.140
74077W        W40618   7.278  43.694   3.584
74078W        W40619  31.162  28.464  12.906
74079W        W40620   2.544  34.063   5.394
74080W        W40621  44.835  39.619  12.092
74081W        W40622  10.778   7.666  12.085
74082W        W40623  11.080   0.545   0.758
74083W        W40624   1.935  40.064  14.164
74084W        W40625   9.719  22.700  13.888
74085W        W40626  20.688   6.681   1.360
74086W        W40627  14.806  12.071   3.264
74087W        W40628  15.930   9.221   4.834
74088W        W40629  17.597  36.095   2.817
74089W        W40630  32.665  44.929   0.345
74090W        W40631  18.727  36.539   4.471
74091W        W40632   6.119  15.079  12.856
74092W        W40633  24.481   3.976  13.216
74093W        W40634  42.400  38.134   2.898
74094W        W40635   6.684   6.750  14.972
74095W        W40636   9.791  13.478  14.522
74096W        W40637  23.927   0.956  13.095
74097W        W40638  36.740  34.337  13.494
74098W        W40639  11.217  40.350  12.916
74099W        W40640  19.350  11.763   2.323
74100W        W40641  22.587  34.883  11.488
74101W        W40642  23.158  10.589  12.453
74102W        W40643  43.630  26.222  13.057
74103W        W40644  19.756  11.395  13.307
74104W        W40645  31.597  20.232  12.146
74105W        W40646   6.771  42.587   4.087
74106W        W40647  19.982  22.200   3.057
74107W        W40648   9.398  26.941  12.207
74108W        W40649  25.122  16.640  13.742
74109W        W40650   2.438  20.916  12.483
74110W        W40651  12.312  38.315   2.825
74111W        W40652  41.916  29.515  14.916
74112W        W40653   4.425  21.941  10.273
74113W        W40654  40.404  18.005  12.013
74114W        W40655  36.394  13.980   4.616
74115W        W40656  23.678  35.085  12.008
74116W        W40657  18.175  15.161   1.771
74117W        W40658  14.649  32.695  12.090
74118W        W40659  39.992  43.033   4.986
74119W        W40660  42.407  17.895   3.391
74120W        W40661  43.215  34.592   3.909
74121W        W40662  40.983  29.958   4.941
74122W        W40663   8.689   9.724  11.058
74123W        W40664   2.360  28.221  14.441
74124W        W40665  41.950   2.759  12.933
74125W        W40666  17.345  31.729  12.091
74126W        W40667  10.333  26.655  14.938
74127W        W40668  19.314  17.554  14.544
74128W        W40669  34.143  23.035  13.666
74129W        W40670  31.682  35.864  13.464
74130W        W40671  30.022  27.447   1.380
74131W        W40672  19.452  12.272   1.474
74132W        W40673  42.769   2.519  11.055
74133W        W40674  37.223  38.917   2.199
74134W        W40675   3.602  41.880   4.429
74135W        W40676  38.235   4.903   3.746
74136W        W40677  27.547   9.136  13.983
74137W        W40678   5.375  19.509   1.320
74138W        W40679  14.633  28.497   0.270
74139W        W40680  40.161  12.165   3.213
74140W        W40681  29.969   3.488   1.844
74141W        W40682  29.430  16.031  14.448
74142W        W40683  14.086  15.511  12.693
74143W        W40684   5.369  44.438  12.567
74144W        W40685  27.985  28.141   4.103
74145W        W40686  14.843  20.657  11.167
74146W        W40687   8.289   6.828  12.947
74147W        W40688  10.047  27.639  12.591
74148W        W40689   0.394   9.891   1.235
74149W        W40690  23.272  18.629   3.125
74150W        W40691  17.759   6.389   2.054
74151W        W40692  36.176  39.440   4.626
74152W        W40693  42.000  38.727   1.300
74153W        W40694  28.326  34.286  12.926
74154W        W40695   6.832  33.875   4.928
74155W        W40696  16.143  17.575   0.519
74156W        W40697  17.546  41.959   0.075
74157W        W40698  43.791  22.894   4.598
74158W        W40699   0.028  10.103  14.634
74159W        W40700  24.694   7.229  14.479
74160W        W40701  24.562  24.644  10.745
74161W        W40702  44.702  20.096   1.334
74162W        W40703   9.975  14.589  12.688
74163W        W40704  18.740  20.231   2.347
74164W        W40705  18.229  12.564   2.263
74165W        W40706   6.988   4.398   9.965
74166W        W40707   5.343   6.669  11.512
74167W        W40708   6.397  41.384  14.318
74168W        W40709  20.575  29.698  13.484
74169W        W40710  42.479  18.754   3.107
74170W        W40711  12.136   8.617  14.326
74171W        W40712  15.426  35.528   2.767
74172W        W40713  12.768  26.020   4.804
74173W        W40714  29.480  38.572   4.836
74174W        W40715  26.970   3.205  14.038
74175W        W40716  43.885  22.535   0.182
74176W        W40717   4.966   9.438   1.932
74177W        W40718   9.838  29.198   4.626
74178W        W40719  11.764  30.938  11.403
74179W        W40720  43.747  11.618  12.520
74180W        W40721   7.133  42.690   3.520
74181W        W40722  25.168  16.544  11.228
74182W        W40723  39.269  44.298   3.370
74183W        W40724  20.324  12.614  10.604
74184W        W40725  29.198  12.658   2.602
74185W        W40726  36.002  14.681   2.797
74186W        W40727  23.229  14.959  13.861
74187W        W40728  28.323  22.162   3.019
74188W        W40729  40.355  41.942   2.414
74189W        W40730  32.406  11.493  10.688
74190W        W40731  29.541   4.306   4.641
74191W        W40732  17.652   9.348   0.827
74192W        W40733  43.881   2.545  14.843
74193W        W40734  10.845  14.659  11.465
74194W        W40735  27.143   6.959  11.103
74195W        W40736  36.528  22.682  13.515
74196W        W40737  42.253  35.410  10.598
74197W        W40738  13.167  18.757   0.360
74198W        W40739  37.884   6.668   3.777
74199W        W40740   1.704  13.186   3.177
74200W        W40741   2.020  33.811  12.988
74201W        W40742  22.577  16.393   2.805
74202W        W40743  19.275   8.247   1.493
74203W        W40744   8.953  37.594   1.317
74204W        W40745  40.941   0.623  14.373
74205W        W40746  18.045  29.915   1.273
74206W        W40747  36.885  34.635   4.941
74207W        W40748  40.574  12.715   2.667
74208W        W40749   7.365   9.120   4.692
74209W        W40750   5.157   5.234  11.785
74210W        W40751  15.463  30.087  13.751
74211W        W40752  44.460  41.267  11.454
74212W        W40753   0.369   0.468   1.251
74213W        W40754  27.909  17.721  12.414
74214W        W40755  33.824  27.652  13.949
74215W        W40756  20.156  12.758   0.687
74216W        W40757  43.261  32.491  11.112
74217W        W40758  22.899  38.082  11.084
74218W        W40759  21.887   6.250   0.070
74219W        W40760  10.734   2.019   1.612
74220W        W40761  35.681  16.596  14.377
74221W        W40762  26.077   1.787  12.029
74222W        W40763  39.299  28.076  12.916
74223W        W40764  35.569  29.539  12.439
74224W        W40765  26.554  17.877   2.303
74225W        W40766   3.512  32.696  12.793
74226W        W40767  44.955  15.166   3.291
74227W        W40768  12.968  41.316   9.741
74228W        W40769  29.123  36.992  13.501
74229W        W40770  35.490  23.210   3.634
74230W        W40771  17.656  11.398   0.867
74231W        W40772   8.817  28.623   0.376
74232W        W40773   2.657  11.114   1.260
74233W        W40774  12.117  13.714   5.052
74234W        W40775  11.372  35.293  10.675
74235W        W40776  34.665  33.144  12.587
74236W        W40777  16.627  19.832   2.257
74237W        W40778  18.761  34.356  13.909
74238W        W40779  36.590  40.367   3.985
74239W        W40780  41.147  16.352   5.541
74240W        W40781  38.510   7.771   0.340
74241W        W40782  26.720   7.649  13.875
74242W        W40783  26.912  24.143  10.723
74243W        W40784   4.940  18.543  12.942
74244W        W40785  17.291  19.754  12.659
74245W        W40786  39.368   2.034   1.249
74246W        W40787  13.645   3.495   1.823
74247W        W40788  11.287  41.817   1.537
74248W        W40789  33.847  40.497   1.714
74249W        W40790  32.909  22.589   0.131
74250W        W40791  18.414  40.989   1.817
74251W        W40792   0.454  32.084   3.100
74252W        W40793  30.935  43.281  12.597
74253W        W40794  18.169   4.401  11.577
74254W        W40795  37.805   9.868   1.383
74255W        W40796   3.023  14.249  11.435
74256W        W40797  44.706  40.423   3.974
74257W        W40798  22.619   0.661   1.971
74258W        W40799   8.555  28.086   0.418
74259W        W40800  11.411  41.359   1.305
74260W        W40801  10.289   8.293   1.459
74261W        W40802   8.461  16.755  13.146
74262W        W40803  35.501  39.220  11.166
74263W        W40804  18.759   3.455  12.120
74264W        W40805  23.581  36.692   4.623
74265W        W40806  10.750  21.153  13.409
74266W        W40807   6.078  32.439   2.727
74267W        W40808  34.676  44.104  10.865
74268W        W40809  28.980  22.618   4.564
74269W        W40810  26.961   8.792  13.015
74270W        W40811   2.142  24.458   9.723
74271W        W40812  29.612   3.949  14.524
74272W        W40813   8.097  36.564  12.496
74273W        W40814  44.222  30.969   3.243
74274W        W40815   6.998  23.361   9.828
74275W        W40816  26.721  34.907   3.201
74276W        W40817  12.668  42.801   4.677
74277W        W40818  29.422  36.117   2.794
74278W        W40819  20.653   5.724   3.398
74279W        W40820  19.878   7.439  12.021
74280W        W40821  35.540   4.372   2.701
74281W        W40822  29.241  42.259  14.824
74282W        W40823  27.860  15.965  14.810
74283W        W40824  22.138  32.878  11.003
74284W        W40825  40.044  12.917  10.748
74285W        W40826  17.810  42.275   3.156
74286W        W40827  40.034  30.502  14.247
74287W        W40828  21.044  15.295   4.738
74288W        W40829  39.133  14.892  13.919
74289W        W40830  30.400  18.620   4.897
74290W        W40831   1.789  31.578   1.738
74291W        W40832  41.492   2.928   3.986
74292W        W40833  24.275  28.896   2.281
74293W        W40834  26.565  22.213  12.028
74294W        W40835  29.025  13.876   1.149
74295W        W40836   8.779  27.417  10.909
74296W        W40837   1.444   3.231   5.048
74297W        W40838  43.352   4.638  11.686
74298W        W40839   6.255  13.743  13.516
74299W        W40840  30.109  15.726  14.080
74300W        W40841  22.527  16.781   4.884
74301W        W40842  34.973  31.208  11.414
74302W        W40843   6.033  36.552   3.635
74303W        W40844  27.046  24.457  11.145
74304W        W40845  11.826  16.299   1.717
74305W        W40846  36.644  39.561   1.813
74306W        W40847  22.652   9.029   4.241
74307W        W40848   5.214   0.254  13.847
74308W        W40849  12.960  16.427  12.574
74309W        W40850   1.153  21.066  12.937
74310W        W40851  41.456  22.924  12.009
74311W        W40852  15.169  42.262   1.219
74312W        W40853  44.087  21.556  13.354
74313W        W40854  37.906   2.185   1.478
74314W        W40855   8.635   8.258   0.512
74315W        W40856   9.391  43.298   2.868
74316W        W40857  36.444  27.872   4.494
74317W        W40858   7.662  21.057  13.825
74318W        W40859  17.100  35.153  14.041
74319W        W40860  34.836  17.098   3.199
74320W        W40861  38.327  10.481  11.166
74321W        W40862  21.628   7.328   2.729
74322W        W40863  11.553  28.130   3.190
74323W        W40864   9.649  27.698  12.266
74324W        W40865  22.607  36.084  14.396
74325W        W40866  34.403  14.001   3.109
74326W        W40867  17.731  23.061   4.251
74327W        W40868  21.054  24.128  11.693
74328W        W40869   9.206  42.872  11.996
74329W        W40870  18.557  38.388   4.342
74330W        W40871  18.719  23.956  12.883
74331W        W40872   3.506   0.061  12.543
74332W        W40873  21.299   4.033   0.718
74333W        W40874  20.952   1.807   2.541
74334W        W40875  37.787  38.326  11.599
74335W        W40876   7.846  27.302   3.118
74336W        W40877  39.575  21.468  14.967
74337W        W40878  41.636  16.789  12.193
74338W        W40879  43.295   0.293  14.689
74339W        W40880  31.636  10.847  14.806
74340W        W40881  29.418  39.474  11.130
74341W        W40882  28.888  20.144  13.340
74342W        W40883  21.521  12.719  13.921
74343W        W40884   5.907  32.011  10.148
74344W        W40885  26.642  15.760   1.169
74345W        W40886   8.850  29.911  13.378
74346W        W40887  36.074  26.264  14.198
74347W        W40888   5.015   9.807  13.954
74348W        W40889  30.264  43.871   3.742
74349W        W40890  39.055  44.773   0.202
74350W        W40891  30.143   6.987  13.464
74351W        W40892  41.937   7.894   2.386
74352W        W40893  18.204   1.461   4.292
74353W        W40894  19.041  26.082  12.627
74354W        W40895  41.813  34.758  11.168
74355W        W40896  44.565  43.768   1.086
74356W        W40897  20.961  27.593  10.977
74357W        W40898  36.948   9.130   4.563
74358W        W40899  32.614  39.670   4.153
74359W        W40900   5.852   4.442   1.978
74360W        W40901   5.515  35.946   0.363
74361W        W40902  43.701  26.518  10.919
74362W        W40903  41.063  33.922   0.866
74363W        W40904  33.435  40.718  11.130
74364W        W40905  23.673   7.833   3.194
74365W        W40906  37.039  17.686   3.160
74366W        W40907  18.701  18.067   0.177
74367W        W40908  28.857  19.255  11.453
74368W        W40909   4.016  22.352  11.964
74369W        W40910  14.597  17.863   9.966
74370W        W40911  43.100  16.813   3.745
74371W        W40912  29.977  30.682  13.979
74372W        W40913   5.865   1.125  11.710
74373W        W40914  19.643  10.288   2.901
74374W        W40915  21.193  23.785  12.958
74375W        W40916  13.854  12.960   0.997
74376W        W40917  44.801  27.561  12.034
74377W        W40918  42.818  11.879  13.642
74378W        W40919  34.103  33.899  12.989
74379W        W40920  10.280  35.920   3.786
74380W        W40921  30.084  21.693   2.862
74381W        W40922  19.658  34.660  11.180
74382W        W40923  41.556  36.484   0.287
74383W        W40924  31.049  39.052  14.884
74384W        W40925  32.362   2.411   0.803
74385W        W40926  24.974  30.617  11.024
74386W        W40927  30.229  22.303  13.170
74387W        W40928  10.664   1.656   0.713
74388W        W40929  23.237  38.510   0.176
74389W        W40930  10.643  20.537  13.651
74390W        W40931  21.087  11.921   4.077
74391W        W40932  44.306   1.707   0.750
74392W        W40933  41.443  22.217   2.318
74393W        W40934  33.201   1.447   1.302
74394W        W40935  27.883  24.509  11.101
74395W        W40936  44.138  15.263  10.723
74396W        W40937  27.980  38.024  12.220
74397W        W40938  15.681  14.388   3.562
74398W        W40939  40.018  34.513  12.130
74399W        W40940  14.697   5.884   0.903
74400W        W40941  10.040  21.271  10.728
74401W        W40942   9.254  12.806  12.009
74402W        W40943  37.819  27.229   2.183
74403W        W40944   0.477   7.829  13.926
74404W        W40945  28.870  38.412  12.962
74405W        W40946  37.011  44.837   0.407
74406W        W40947  32.637  36.811  12.066
74407W        W40948   1.090  17.519  14.776
74408W        W40949  38.966  25.114   1.350
74409W        W40950  21.255  10.023   1.217
74410W        W40951   0.504  28.753  12.992
74411W        W40952   9.305  42.933   2.349
74412W        W40953  22.188  11.753  10.715
74413W        W40954  21.478  18.794  10.649
74414W        W40955  44.305   6.256   4.484
74415W        W40956  34.035  36.953  13.809
74416W        W40957   0.487  28.128  13.560
74417W        W40958  22.530  22.217   0.283
74418W        W40959  16.190  36.126   2.431
74419W        W40960  14.996  18.006   2.235
74420W        W40961  34.889   4.990  13.481
74421W        W40962  29.271  39.808  12.523
74422W        W40963  16.131   8.914  14.839
74423W        W40964  20.878   7.415  11.329
74424W        W40965  14.227  24.029   3.120
74425W        W40966  20.345   8.644  14.189
74426W        W40967  28.169  25.554   1.821
74427W        W40968  42.715  12.221   0.758
74428W        W40969  27.396  44.598  14.837
74429W        W40970  34.526   2.644  10.398
74430W        W40971  25.999  21.663   3.949
74431W        W40972   5.987   9.228   1.549
74432W        W40973  15.714  25.661  13.325
74433W        W40974   1.175  19.629   0.532
74434W        W40975  44.307  24.099  13.874
74435W        W40976  20.354  41.458  13.916
74436W        W40977  19.985  12.195  14.345
74437W        W40978  43.833  27.462   4.768
74438W        W40979  26.539  36.328  12.372
74439W        W40980  23.620  10.227  12.097
74440W        W40981  14.755  13.294   2.717
74441W        W40982  37.039   6.235  12.408
74442W        W40983  24.039  34.604   3.268
74443W        W40984  31.580  21.497  14.973
74444W        W40985   9.356  44.569  13.245
74445W        W40986  44.267  42.256   0.228
74446W        W40987  14.701  35.533  13.740
74447W        W40988  39.418   9.934  13.313
74448W        W40989  35.469  36.065   0.131
74449W        W40990   1.488  27.903   4.132
74450W        W40991  33.841  13.869  14.311
74451W        W40992  11.715   6.803  13.542
74452W        W40993  40.048  36.463   3.206
74453W        W40994  41.979   3.989   2.742
74454W        W40995  33.603  23.630  14.543
74455W        W40996  44.592  21.992  11.580
74456W        W40997  28.413  20.087  11.576
74457W        W40998  22.582   9.690   2.578
74458W        W40999  43.706   2.381   4.504
74459W        W41000   1.908  34.078   0.404
74460W        W41001  25.993  34.058  12.469
74461W        W41002   3.294  22.504   1.331
74462W        W41003  41.472  26.491  11.399
74463W        W41004  30.728   0.398   3.804
74464W        W41005  28.431  11.050  10.510
74465W        W41006  18.548   7.517  14.925
74466W        W41007  19.118  39.376  10.732
74467W        W41008  36.327  41.833  12.406
74468W        W41009  40.598  44.298   3.839
74469W        W41010   5.489  25.948   0.058
74470W        W41011  11.877  33.176  13.244
74471W        W41012  15.289  15.093   3.248
74472W        W41013  17.794   6.008   3.252
74473W        W41014  31.877  33.946   2.721
74474W        W41015  27.694  17.563  13.070
74475W        W41016  37.879  15.171   1.725
74476W        W41017  10.688  23.479   4.586
74477W        W41018   2.840  14.739   4.286
74478W        W41019  18.523  39.305  13.021
74479W        W41020  26.218   3.798  10.696
74480W        W41021   7.177  17.093   3.108
74481W        W41022  24.003  15.357   0.695
74482W        W41023  36.817  29.017   3.816
74483W        W41024  41.392  15.611   1.463
74484W        W41025  38.093  18.277  10.935
74485W        W41026   2.979  15.237  13.375
74486W        W41027   7.350  18.939  12.571
74487W        W41028  10.051  21.724   0.411
74488W        W41029  37.972  41.354  11.560
74489W        W41030   6.854  12.692   2.282
74490W        W41031  10.882  24.728  13.423
74491W        W41032  23.140  28.205  14.349
74492W        W41033  23.675  33.686  13.931
74493W        W41034  11.659  28.437   0.335
74494W        W41035  28.463  24.088  13.211
74495W        W41036  26.948   1.265  10.702
74496W        W41037  17.160  20.204   2.846
74497W        W41038  43.343   9.775  14.885
74498W        W41039  22.781  31.936  10.678
74499W        W41040  23.522  23.182   4.146
74500W        W41041  34.116  25.509   3.279
74501W        W41042  40.390   8.285  11.306
74502W        W41043  14.720   3.186   2.147
74503W        W41044  21.518  22.121   0.220
74504W        W41045  29.047  43.000   2.349
74505W        W41046  39.506   7.148   3.089
74506W        W41047  41.696  25.502  11.945
74507W        W41048  25.922  41.815   2.687
74508W        W41049  18.584  42.286   3.621
74509W        W41050  39.957  17.056   1.790
74510W        W41051  31.450  12.638  12.079
74511W        W41052   0.951  18.118  10.343
74512W        W41053   7.138  15.828  10.747
74513W        W41054  10.581  26.191  11.022
74514W        W41055   6.192  11.018  11.031
74515W        W41056  44.740  38.551   1.675
74516W        W41057  42.027  22.667   0.136
74517W        W41058  23.766   5.322  11.744
74518W        W41059  20.760  39.856  11.190
74519W        W41060  13.060  38.071  13.821
74520W        W41061  12.312  13.486   3.502
74521W        W41062  43.638  39.704   0.853
74522W        W41063  44.947  29.698  12.380
74523W        W41064   9.301  43.460   4.803
74524W        W41065   8.535  36.372   1.053
74525W        W41066  38.327   7.920  11.205
74526W        W41067   5.911   5.842  12.607
74527W        W41068  43.952  13.242   4.481
74528W        W41069  35.504   6.694   1.520
74529W        W41070  35.834  28.152   3.547
74530W        W41071  40.823  36.998   4.802
74531W        W41072  16.082  29.539   3.711
74532W        W41073  23.064   8.862   4.518
74533W        W41074  12.163  31.318   2.803
74534W        W41075  22.765  11.386   2.705
74535W        W41076  28.004  20.057  11.077
74536W        W41077  36.940  21.635  12.115
74537W        W41078   6.282  28.589   3.072
74538W        W41079   4.848  26.862   3.689
74539W        W41080  27.990  38.681   2.954
74540W        W41081  17.367  20.414   0.300
74541W        W41082  26.144  23.739   4.109
74542W        W41083  26.674  19.617  11.205
74543W        W41084  34.412  36.392   1.725
74544W        W41085  25.483  10.809  14.461
74545W        W41086  39.159  39.931   2.616
74546W        W41087   8.638  13.327  14.220
74547W        W41088   5.452  23.223  13.854
74548W        W41089  19.171  33.069  12.081
74549W        W41090  34.576  22.758   4.413
74550W        W41091  22.343  36.066   3.472
74551W        W41092  18.684  29.207   3.218
74552W        W41093  25.295  11.274   1.368
74553W        W41094   8.927  35.938   2.807
74554W        W41095  20.529  16.269  14.790
74555W        W41096  13.809   6.846  13.797
74556W        W41097   3.453  21.613   0.843
74557W        W41098   1.826  30.546   5.389
74558W        W41099  15.100  26.092  12.996
74559W        W41100  10.861  24.642   1.280
74560W        W41101  31.934  39.636  11.101
74561W        W41102  35.628   5.960   4.636
74562W        W41103  32.205   8.016  10.556
74563W        W41104   3.311  35.948   1.264
74564W        W41105  43.388   6.218  11.988
74565W        W41106   0.046  43.424   1.483
74566W        W41107  31.491  15.173   3.476
74567W        W41108  37.359  30.052   0.499
74568W        W41109   2.306  44.122  11.437
74569W        W41110  23.470  43.440  10.693
74570W        W41111  20.155   6.923  14.904
74571W        W41112  40.757   4.790   2.841
74572W        W41113  38.946   8.190   0.386
74573W        W41114  34.821  16.555  12.895
74574W        W41115  10.495  40.941   0.169
74575W        W41116  16.645  20.975  13.779
74576W        W41117  23.651  38.279   0.412
74577W        W41118  21.057  18.768  11.821
74578W        W41119  19.459  41.682   0.434
74579W        W41120   7.171   9.162  13.381
74580W        W41121  15.083   3.019  11.739
74581W        W41122   2.449   8.171  13.964
74582W        W41123  10.765  36.344   1.843
74583W        W41124   1.298  10.213   3.809
74584W        W41125  19.591  33.935   4.185
74585W        W41126  26.111  30.833  11.457
74586W        W41127  29.472  38.081   4.596
74587W        W41128  17.339  12.245  12.137
74588W        W41129  42.959  38.038   2.189
74589W        W41130  37.019  42.454  10.754
74590W        W41131  32.399  44.304  13.942
74591W        W41132   2.797  37.330  12.650
74592W        W41133  29.681  36.019  14.443
74593W        W41134   3.157  10.707   1.827
74594W        W41135  22.149  40.013   0.921
74595W        W41136  10.209  27.564   4.155
74596W        W41137   6.951  17.038  12.561
74597W        W41138   5.619  42.174  12.339
74598W        W41139   9.406  16.785   1.620
74599W        W41140  22.717  17.706  11.208
74600W        W41141  37.635  25.966  12.738
74601W        W41142   2.485  38.901   1.810
74602W        W41143  31.507  41.044  12.211
74603W        W41144   9.872   3.564  11.355
74604W        W41145  11.233  18.539   1.526
74605W        W41146  42.044  36.826  11.498
74606W        W41147   0.674  44.676  11.987
74607W        W41148   4.321  15.827   3.734
74608W        W41149  15.072   7.938  14.789
74609W        W41150  30.046  34.836  14.511
74610W        W41151  30.605  42.473   3.794
74611W        W41152  42.412   6.803   0.250
74612W        W41153   9.152  27.767   3.459
74613W        W41154  44.531  37.770   9.966
74614W        W41155  27.088  19.156   3.434
74615W        W41156  32.921   2.350  12.510
74616W        W41157  22.624  34.659   3.128
74617W        W41158  16.870   1.529   0.001
74618W        W41159   7.731  24.527  10.214
74619W        W41160   1.874   3.754   2.075
74620W        W41161  18.190  34.017   3.410
74621W        W41162  11.151  15.824  13.141
74622W        W41163  43.275  31.696  13.874
74623W        W41164  31.162  22.677  14.556
74624W        W41165  41.265  30.536  12.178
74625W        W41166  27.999  39.914  12.073
74626W        W41167   6.243  13.694   2.135
74627W        W41168  42.501   8.274  13.064
74628W        W41169   7.099  35.051   1.446
74629W        W41170  44.221  20.311   3.117
74630W        W41171   4.778  21.827   4.998
74631W        W41172  42.489   5.824  13.023
74632W        W41173  36.139  10.761   4.283
74633W        W41174  39.213  14.802   1.607
74634W        W41175   2.512  37.375   4.105
74635W        W41176  25.542  28.504   0.909
74636W        W41177   9.314  35.982   3.609
74637W        W41178  35.517  25.510   4.802
74638W        W41179  37.433  39.823  11.083
74639W        W41180  34.210   0.027   1.726
74640W        W41181  28.552  21.816  13.434
74641W        W41182  15.357   1.957   3.172
74642W        W41183   5.051  17.148  12.516
74643W        W41184  43.953  41.421  13.657
74644W        W41185  31.634  33.554   3.980
74645W        W41186  41.495  28.668   2.326
74646W        W41187  38.893   7.844   3.431
74647W        W41188  15.816  39.435  11.033
74648W        W41189   2.767  41.390  13.767
74649W        W41190   1.541  26.525  14.867
74650W        W41191   1.386  13.166  14.463
74651W        W41192  20.733  31.946  10.619
74652W        W41193   3.378  39.202   2.466
74653W        W41194  23.666  25.196   1.391
74654W        W41195  33.516  44.006   3.334
74655W        W41196  40.821  22.420  13.397
74656W        W41197  14.398   6.287  12.913
74657W        W41198  30.276  25.055   4.506
74658W        W41199  24.784  10.217   2.737
74659W        W41200  38.403  29.845  13.623
74660W        W41201  36.505  12.227  10.597
74661W        W41202  12.128  34.906   0.012
74662W        W41203  26.813  12.420  10.967
74663W        W41204  17.246  30.393   2.577
74664W        W41205  37.577  23.299  10.593
74665W        W41206   2.851  24.601  12.750
74666W        W41207  36.367  16.817   4.642
74667W        W41208  18.212  16.269   1.740
74668W        W41209  22.217  29.795   0.175
74669W        W41210  22.185  33.301  13.130
74670W        W41211  39.909   7.908   0.327
74671W        W41212   5.080  40.950   3.290
74672W        W41213  38.355  19.431  11.568
74673W        W41214  44.823  24.863  14.801
74674W        W41215  43.045  23.227   2.187
74675W        W41216  44.056   5.332  11.100
74676W        W41217  27.294  11.398   9.693
74677W        W41218  14.042  27.242   4.642
74678W        W41219  25.963  32.194   2.264
74679W        W41220  33.460  11.876   1.766
74680W        W41221  24.593  44.245  10.782
74681W        W41222   0.462  42.721   1.219
74682W        W41223  41.933   2.994  12.428
74683W        W41224  39.975  41.509   2.463
74684W        W41225  35.638  35.867   0.578
74685W        W41226   8.839  39.521  10.343
74686W        W41227   1.802  21.674  11.069
74687W        W41228  27.469  10.453   0.564
74688W        W41229  30.195  10.650  13.798
74689W        W41230  23.994  23.126  13.127
74690W        W41231  26.173   8.139  14.493
74691W        W41232   9.647  28.267   3.184
74692W        W41233   3.262  31.923   1.665
74693W        W41234  24.111  41.407  14.939
74694W        W41235   9.505   4.461   3.134
74695W        W41236  28.492  19.031   4.924
74696W        W41237  11.323  19.669   3.516
74697W        W41238  10.923  38.449  14.496
74698W        W41239  43.473  19.991   0.691
74699W        W41240   0.428  17.498   0.875
74700W        W41241  19.792  32.434   2.886
74701W        W41242   2.032   2.792   0.973
74702W        W41243  35.110  35.762   1.961
74703W        W41244  22.176   8.424   3.770
74704W        W41245   4.290  13.533   3.292
74705W        W41246  38.822  20.711   2.248
74706W        W41247  27.427  18.256   4.273
74707W        W41248  19.394  15.735   4.129
74708W        W41249  28.546  33.325  11.104
74709W        W41250   6.006  39.118  13.907
74710W        W41251  22.613  34.493  11.811
74711W        W41252  24.249   8.766  13.538
74712W        W41253   2.240   1.099   4.023
74713W        W41254  30.548  23.886  14.546
74714W        W41255   5.691  17.685   1.525
74715W        W41256  43.307  40.715   0.016
74716W        W41257  28.944  11.556   1.208
74717W        W41258   6.065  10.641   4.462
74718W        W41259  42.470  28.168   0.878
74719W        W41260  13.072  40.130   3.153
74720W        W41261  37.341  35.027   1.927
74721W        W41262  11.708  22.544   3.711
74722W        W41263  28.014   1.742   4.858
74723W        W41264  11.715   9.461  11.459
74724W        W41265  16.821  27.548   3.721
74725W        W41266  23.163  34.872  12.065
74726W        W41267  44.229  22.689  10.548
74727W        W41268  29.531  16.864   4.420
74728W        W41269  17.937  30.365   1.765
74729W        W41270  35.645  43.714  14.740
74730W        W41271  11.854  36.316  12.710
74731W        W41272  16.379  26.013   2.417
74732W        W41273  17.937  31.891  14.062
74733W        W41274   9.694  30.327  10.643
74734W        W41275  13.324  39.013   3.315
74735W        W41276  13.725  12.137   4.279
74736W        W41277   9.877  20.290  14.988
74737W        W41278  44.700  13.772  11.386
74738W        W41279  32.627  37.679  13.724
74739W        W41280  24.725   7.156   2.414
74740W        W41281  36.406  16.301   0.421
74741W        W41282  29.929  39.595   3.105
74742W        W41283  24.682  42.785  12.116
74743W        W41284  33.401  31.959  12.935
74744W        W41285  13.613  26.497  13.545
74745W        W41286  21.677  27.552  12.777
74746W        W41287  39.571  18.369   3.589
74747W        W41288  37.994  39.658   4.612
74748W        W41289  21.547  17.556   4.460
74749W        W41290  31.814  32.562   2.353
74750W        W41291  19.166   3.758  11.366
74751W        W41292  31.415  37.489  14.372
74752W        W41293  23.055   2.797   4.996
74753W        W41294  34.986  29.472  12.207
74754W        W41295   7.799  18.400   0.488
74755W        W41296  18.959  38.777  12.437
74756W        W41297   5.778  16.969  11.948
74757W        W41298  34.956  22.807  14.593
74758W        W41299  24.077   2.515  12.723
74759W        W41300  14.543  35.493   1.239
74760W        W41301  10.896  23.474  13.886
74761W        W41302  44.418   4.157   4.258
74762W        W41303  42.273   7.761   1.157
74763W        W41304  15.628  22.888   1.167
74764W        W41305  10.760  34.045   0.929
74765W        W41306  39.001  17.519  10.582
74766W        W41307  17.464  19.494   2.842
74767W        W41308  26.630  16.035   2.716
74768W        W41309  36.875   5.737  14.603
74769W        W41310  15.750  39.924   4.432
74770W        W41311  31.854  44.835  12.055
74771W        W41312  40.009   4.711  10.600
74772W        W41313  26.155   5.343   1.889
74773W        W41314  35.081  12.650   1.651
74774W        W41315  23.966  44.794  14.783
74775W        W41316  41.993  21.927   3.113
74776W        W41317  20.513  17.696  13.325
74777W        W41318  17.594   0.828  11.690
74778W        W41319   8.961   2.782   3.857
74779W        W41320  38.279  16.064   0.906
74780W        W41321  24.599  23.536  13.860
74781W        W41322  37.919  34.768  11.221
74782W        W41323  42.378  29.464  12.583
74783W        W41324  28.111  35.183  12.262
74784W        W41325   9.076  28.130   0.419
74785W        W41326  41.401  26.065   0.784
74786W        W41327  32.777  23.151  10.695
74787W        W41328   3.966  31.187  10.367
74788W        W41329   7.867  19.392   0.222
74789W        W41330   5.450   3.739   1.299
74790W        W41331  34.286   6.160  12.109
74791W        W41332   3.497  39.139   4.514
74792W        W41333  34.365  12.078   2.715
74793W        W41334  25.558  29.460   0.996
74794W        W41335  17.690  14.815  14.684
74795W        W41336  34.576  11.165  13.405
74796W        W41337  37.784  43.284  13.896
74797W        W41338  10.821   9.952   0.921
74798W        W41339  18.107  20.778  12.436
74799W        W41340  13.588  15.601  14.873
74800W        W41341  13.424  20.422  14.055
74801W        W41342   6.826   9.750   0.987
74802W        W41343  30.335   5.787  12.065
74803W        W41344  19.204  18.674   4.628
74804W        W41345  21.301  33.692  12.017
74805W        W41346  17.756  33.886   4.704
74806W        W41347  36.294   3.422   2.279
74807W        W41348  43.779  38.655  12.803
74808W        W41349  34.120  33.345  13.012
74809W        W41350  16.805  31.454  12.961
74810W        W41351   9.066   0.803   2.780
74811W        W41352  22.598  28.033   0.070
74812W        W41353   9.919  37.144   0.248
74813W        W41354  37.411  14.114  13.794
74814W        W41355  16.062  18.616   2.503
74815W        W41356  37.285   6.688   1.515
74816W        W41357  43.068   3.152  14.456
74817W        W41358   2.781  33.965  12.155
74818W        W41359  34.012  10.627   2.719
74819W        W41360  41.895  22.657  12.054
74820W        W41361  27.043  33.595   1.737
74821W        W41362  28.474   7.245  11.928
74822W        W41363  10.249  34.621  11.865
74823W        W41364  44.970  30.698  11.942
74824W        W41365  35.828   7.254   0.392
74825W        W41366  25.983  28.157  14.939
74826W        W41367  41.130  16.898   3.895
74827W        W41368   1.388  32.621   1.299
74828W        W41369  25.953  18.335  12.875
74829W        W41370  10.289  43.259   2.807
74830W        W41371  39.894  28.229   0.018
74831W        W41372  38.147  30.104  14.440
74832W        W41373  44.782  37.919  10.691
74833W        W41374  34.037  30.302   1.116
74834W        W41375   6.548   2.158  14.826
74835W        W41376  34.537  23.676   1.248
74836W        W41377  25.539  43.742   3.199
74837W        W41378  36.075  33.817  12.131
74838W        W41379  10.640   4.847   4.556
74839W        W41380  13.636   5.836   1.739
74840W        W41381  11.803  26.185   1.099
74841W        W41382   4.039   5.501   2.073
74842W        W41383  33.089   2.837  12.494
74843W        W41384   0.278  25.096   3.828
74844W        W41385  26.528   3.735   2.654
74845W        W41386  44.788  19.000  13.819
74846W        W41387  36.384   1.048  14.489
74847W        W41388  41.679  10.069  14.332
74848W        W41389  11.176   8.688  10.656
74849W        W41390  14.573  44.654  14.863
74850W        W41391  14.775  17.538  12.985
74851W        W41392  29.521  41.987   3.119
74852W        W41393  40.349  32.311   2.362
74853W        W41394   6.268  16.915  14.942
74854W        W41395  10.681  37.127  13.083
74855W        W41396  18.587  12.469   5.425
74856W        W41397   4.818  42.971  13.616
74857W        W41398  11.362  13.050  13.001
74858W        W41399   6.018  23.553  13.563
74859W        W41400  41.091  28.740  11.076
74860W        W41401   6.841  18.105   3.374
74861W        W41402  20.580  26.514  11.431
74862W        W41403  17.618  44.732   0.792
74863W        W41404  13.581   8.310   3.240
74864W        W41405  34.333  12.633  11.165
74865W        W41406  22.899  39.088   1.394
74866W        W41407   4.790  39.852   4.392
74867W        W41408   5.882  25.078   3.112
74868W        W41409  39.070   7.673   0.383
74869W        W41410  18.586  43.370   0.363
74870W        W41411  11.182  40.887   3.289
74871W        W41412   1.507  34.352  13.675
74872W        W41413  25.689  26.052  14.738
74873W        W41414  40.001   8.078  11.043
74874W        W41415  30.584  18.541   1.728
74875W        W41416   9.417  19.294   4.894
74876W        W41417  12.678   5.772  10.666
74877W        W41418  24.775  39.641  13.812
74878W        W41419  10.822  29.978   3.309
74879W        W41420  30.527  15.369  14.711
74880W        W41421  26.640  38.133  14.384
74881W        W41422   0.339  40.261   1.194
74882W        W41423  30.627  19.653   4.584
74883W        W41424  34.491   0.682   1.213
74884W        W41425  39.921  40.839   1.743
74885W        W41426  42.880  14.227   4.936
74886W        W41427  27.941  13.147  14.027
74887W        W41428  38.015  10.736  14.401
74888W        W41429  10.279  32.573   3.522
74889W        W41430  13.998   0.199  14.398
74890W        W41431  18.644  33.894   3.781
74891W        W41432  36.802  34.057  11.603
74892W        W41433  23.264  16.355   3.244
74893W        W41434   6.880  12.511   1.800
74894W        W41435  22.749  10.838   3.806
74895W        W41436  35.009   4.891   3.642
74896W        W41437  27.897   3.033  14.721
74897W        W41438  15.170  31.864   3.187
74898W        W41439   4.260  33.021   0.194
74899W        W41440   6.841  35.439   2.472
74900W        W41441  24.939  22.299   3.063
74901W        W41442  12.760  15.583  13.302
74902W        W41443  25.558   5.880   2.386
74903W        W41444  24.137  11.992  13.560
74904W        W41445  34.200  36.044   2.184
74905W        W41446  20.965  35.911   1.199
74906W        W41447  36.646  17.742   1.348
74907W        W41448  16.834  27.957   2.290
74908W        W41449  43.366  26.224  12.547
74909W        W41450  10.451  27.557   1.119
74910W        W41451  15.384  39.294   3.394
74911W        W41452  26.205  37.540   4.596
74912W        W41453  30.121  29.887  11.254
74913W        W41454  14.891   6.331   4.627
74914W        W41455  17.662   4.137   3.678
74915W        W41456  28.653  34.550  13.791
74916W        W41457  35.450  16.163   3.747
74917W        W41458   9.704  13.918   1.881
74918W        W41459  16.089  25.420  11.626
74919W        W41460  36.046   3.086  11.050
74920W        W41461  21.329   2.277   5.151
74921W        W41462  15.611  32.811   3.993
74922W        W41463  14.283  11.870   2.824
74923W        W41464   9.684  27.043  14.788
74924W        W41465  43.711  27.803   0.269
74925W        W41466  13.689   4.294  12.567
74926W        W41467  10.660  44.447   4.876
74927W        W41468  11.708  12.618   3.194
74928W        W41469  11.860  40.620  12.465
74929W        W41470  38.985  28.544  11.459
74930W        W41471  21.580  23.455  13.020
74931W        W41472  44.873  17.201   1.343
74932W        W41473  27.835  26.701  13.362
74933W        W41474  30.748   7.684  12.062
74934W        W41475  10.256  35.157   3.300
74935W        W41476  24.129  25.593   2.822
74936W        W41477  38.972  31.432   3.388
74937W        W41478   8.686  38.774  11.993
74938W        W41479  25.600  28.977   2.859
74939W        W41480  24.797   6.465  11.090
74940W        W41481  28.432  41.072   4.542
74941W        W41482  33.596  14.351   0.393
74942W        W41483  37.846   2.689   1.371
74943W        W41484   0.151   7.671  12.618
74944W        W41485  23.229  10.176  10.600
74945W        W41486  42.155   4.335  14.899
74946W        W41487  26.619   0.462  14.005
74947W        W41488  16.624  36.932  13.358
74948W        W41489   4.901  35.874  13.434
74949W        W41490  13.465   3.013  12.392
74950W        W41491  21.454  19.006  13.964
74951W        W41492  15.172  17.533   2.421
74952W        W41493   3.690   4.507   1.264
74953W        W41494  35.565  35.850   1.734
74954W        W41495  13.646  13.372   0.722
74955W        W41496  44.509  42.396  11.840
74956W        W41497  19.773  11.169  11.077
74957W        W41498  26.668   8.414   3.741
74958W        W41499   9.704  34.906  13.548
74959W        W41500  36.837  44.301   3.829
74960W        W41501  10.819  13.829  11.156
74961W        W41502  24.752  32.077  11.585
74962W        W41503  29.449  19.354  14.475
74963W        W41504  14.061  31.158   0.866
74964W        W41505  40.948   4.982  13.916
74965W        W41506  19.205  33.479  11.737
74966W        W41507  27.578  18.210   0.819
74967W        W41508  35.601  12.737  11.029
74968W        W41509  37.929  39.851  14.301
74969W        W41510  28.724  17.068  11.281
74970W        W41511  40.938  14.881  13.918
74971W        W41512  30.126  27.532   3.255
74972W        W41513   6.953  28.303   3.075
74973W        W41514  32.391  16.820   0.358
74974W        W41515  41.861  27.650   1.882
74975W        W41516  26.711  42.115   5.084
74976W        W41517  32.894   8.590   2.769
74977W        W41518  43.043  15.938   2.155
74978W        W41519  14.234  36.930   3.577
74979W        W41520  38.270  25.252  13.065
74980W        W41521  13.391   8.748   3.446
74981W        W41522  44.217  18.123  12.193
74982W        W41523  10.325  36.702   1.307
74983W        W41524  21.245   7.207   4.842
74984W        W41525  28.124  37.610  14.966
74985W        W41526  22.041  26.302  11.090
74986W        W41527  31.043  30.831  10.155
74987W        W41528  34.357   1.762  10.816
74988W        W41529  33.676   6.816  10.366
74989W        W41530  42.135  36.746   2.279
74990W        W41531  15.286   1.316   2.312
74991W        W41532  36.675   6.720   2.161
74992W        W41533  32.968  41.028  11.115
74993W        W41534   2.052  40.828   4.114
74994W        W41535  10.840   9.004  11.728
74995W        W41536  26.435  29.828  13.146
74996W        W41537  40.059   5.163   2.275
74997W        W41538  31.776  40.362  14.383
74998W        W41539  27.677  11.845  13.836
74999W        W41540   7.758   7.846  10.740
75000W        W41541  18.549  37.360  11.159
75001W        W41542   8.646   7.237   0.767
75002W        W41543  38.100   0.847   3.339
75003W        W41544  17.703  39.172  14.902
75004W        W41545  15.337  40.416   4.460
75005W        W41546  10.284  17.804  13.050
75006W        W41547  25.998  15.415   3.107
75007W        W41548  13.674  27.542   2.153
75008W        W41549  23.915  22.559   5.095
75009W        W41550  31.734  36.868  10.843
75010W        W41551  28.637  41.123  14.720
75011W        W41552  33.621  31.069  12.528
75012W        W41553  40.390  31.444   1.251
75013W        W41554   6.777  17.554   0.992
75014W        W41555  39.880   9.126  14.544
75015W        W41556  34.929  28.032  13.792
75016W        W41557  30.902  15.716  14.726
75017W        W41558  42.772  31.458   4.077
75018W        W41559  25.349  37.415  13.721
75019W        W41560  38.272  39.425   2.794
75020W        W41561  23.561  26.543   2.123
75021W        W41562  44.803  43.605  12.085
75022W        W41563   5.243   9.845   2.221
75023W        W41564  12.680  34.627  12.130
75024W        W41565  19.761  31.657  13.416
75025W        W41566  38.650  21.708   2.673
75026W        W41567  13.155  14.819   3.501
75027W        W41568  34.027  34.135  11.214
75028W        W41569  40.493  25.688  11.545
75029W        W41570  10.058  16.964  11.632
75030W        W41571  18.290   5.832   0.109
75031W        W41572   7.216  29.028  13.839
75032W        W41573  22.836  24.104   2.391
75033W        W41574  17.739  41.123  10.763
75034W        W41575   5.384  33.589  14.152
75035W        W41576  25.650  10.664  13.984
75036W        W41577   8.711  28.158  10.704
75037W        W41578  32.977  38.464  11.953
75038W        W41579  34.348  15.043   3.698
75039W        W41580  22.762  29.151  14.595
75040W        W41581  41.546   0.909   0.430
75041W        W41582  17.021   6.402  11.638
75042W        W41583  43.737   0.430   3.240
75043W        W41584  32.080  22.240  14.950
75044W        W41585  42.287  32.565   2.726
75045W        W41586  16.149  26.342   0.038
75046W        W41587   6.805   7.603   0.265
75047W        W41588  24.011  37.300  13.846
75048W        W41589  26.938  18.310   1.450
75049W        W41590  43.778  24.633  13.424
75050W        W41591  10.270  25.014  11.532
75051W        W41592  21.022  15.864   4.993
75052W        W41593   3.842  33.806   2.161
75053W        W41594   4.350  17.705  13.309
75054W        W41595  37.689  42.297  10.778
75055W        W41596  16.661   7.176  11.528
75056W        W41597  21.249  11.379   2.737
75057W        W41598   9.834  36.437  11.162
75058W        W41599  11.912  43.676   1.233
75059W        W41600  27.183  15.377   3.670
75060W        W41601  24.960   0.830  11.941
75061W        W41602   8.379  36.396   1.845
75062W        W41603  15.990  15.960   1.411
75063W        W41604  19.927   1.262  12.094
75064W        W41605   2.528  18.001  12.099
75065W        W41606  12.858   2.655  10.962
75066W        W41607  28.552   6.673  10.719
75067W        W41608  38.027  29.537   1.795
75068W        W41609  38.934  37.165   2.685
75069W        W41610   0.447  38.559   2.739
75070W        W41611  16.062  40.015  12.424
75071W        W41612  38.928  16.486   2.799
75072W        W41613  18.224  12.783  14.965
75073W        W41614   7.948  11.770  12.383
75074W        W41615  43.154  15.710  14.245
75075W        W41616  35.496   9.486  13.029
75076W        W41617  13.619  15.301   0.790
75077W        W41618   7.885  29.885   1.332
75078W        W41619  39.551  14.556  13.844
75079W        W41620  26.629   7.151  10.418
75080W        W41621  16.939   3.957   2.755
75081W        W41622  24.192  19.188   0.005
75082W        W41623  29.619  30.311   3.122
75083W        W41624  13.257  10.336  13.525
75084W        W41625   7.865  29.017   1.675
75085W        W41626   4.503  32.688   3.645
75086W        W41627  26.838  26.822   2.811
75087W        W41628  25.302  12.569  11.062
75088W        W41629  28.118  15.589  12.395
75089W        W41630  36.351  16.295   3.729
75090W        W41631  19.829  13.851  14.836
75091W        W41632  22.007   0.756  12.463
75092W        W41633   2.450   3.564   3.570
75093W        W41634  22.071  36.801   1.220
75094W        W41635  15.345  41.035  12.114
75095W        W41636   3.379  15.731  11.084
75096W        W41637   1.352   5.529  14.109
75097W        W41638  33.534  30.567   2.191
75098W        W41639  27.969  13.064  11.565
75099W        W41640  34.556   5.835  14.497
75100W        W41641   6.418  33.146   3.290
75101W        W41642  31.110   1.218  10.703
75102W        W41643  28.882  11.241  14.989
75103W        W41644   1.414   7.374   0.062
75104W        W41645   4.461  35.007  14.306
75105W        W41646  13.169  44.326  11.217
75106W        W41647   9.117  25.275   4.194
75107W        W41648  32.168  16.271  13.785
75108W        W41649   4.226   4.280   3.295
75109W        W41650  24.718  29.057  11.127
75110W        W41651  10.733  41.651  11.645
75111W        W41652   4.813  29.642   4.220
75112W        W41653  35.920  30.639  13.458
75113W        W41654  30.565   9.693  13.975
75114W        W41655  13.331  42.107   3.214
75115W        W41656  14.150  35.301   4.872
75116W        W41657  44.336  23.178   1.516
75117W        W41658  30.806  33.928  12.018
75118W        W41659  14.373  10.659  11.224
75119W        W41660  21.428  12.218   2.680
75120W        W41661  11.082  44.980  14.424
75121W        W41662  29.252  22.524  12.402
75122W        W41663  19.278  33.031   1.689
75123W        W41664  39.088  13.748   2.303
75124W        W41665  40.796  16.205   1.202
75125W        W41666  17.488   9.530  14.919
75126W        W41667  24.703  38.841  11.580
75127W        W41668  35.616  28.367   1.366
75128W        W41669  35.862  25.617   3.687
75129W        W41670  34.977  27.583  10.740
75130W        W41671  37.317  19.010  14.244
75131W        W41672  21.974  44.391   2.933
75132W        W41673   1.371  31.365  11.642
75133W        W41674  15.448  38.062  14.461
75134W        W41675  26.763  28.980   4.131
75135W        W41676  44.911   8.133  13.394
75136W        W41677  34.592  17.611   3.257
75137W        W41678  31.478  24.895  13.446
75138W        W41679   4.433  21.199   0.801
75139W        W41680  12.789  18.708   1.922
75140W        W41681  27.113  43.280  14.929
75141W        W41682  29.037  13.416   3.578
75142W        W41683  36.632  19.927   4.289
75143W        W41684  18.348  31.438   4.661
75144W        W41685  31.112  34.579   2.813
75145W        W41686  27.018   0.844  12.938
75146W        W41687   2.355   8.159   2.491
75147W        W41688  14.658  35.299  14.707
75148W        W41689  39.939  29.562  14.425
75149W        W41690  28.414   7.894  10.699
75150W        W41691  15.679  18.476   3.268
75151W        W41692  37.309   6.897   4.441
75152W        W41693  22.491   5.019   1.741
75153W        W41694   9.405  19.213   0.534
75154W        W41695  18.306  17.351  14.506
75155W        W41696  21.668   9.373   1.329
75156W        W41697   2.692   7.176  11.143
75157W        W41698  26.564  10.036   0.113
75158W        W41699   8.809  16.461  12.070
75159W        W41700  23.056  10.781  14.191
75160W        W41701   8.399  24.364   3.182
75161W        W41702  20.848  16.820  11.874
75162W        W41703  41.265  38.336   3.613
75163W        W41704  15.486  32.026   0.035
75164W        W41705   4.729  27.993  10.937
75165W        W41706   9.424  26.006  12.073
75166W        W41707  23.118   5.036   1.385
75167W        W41708   9.770  19.112   3.836
75168W        W41709  35.094  18.784   3.122
75169W        W41710  38.949   0.332   0.907
75170W        W41711  20.657  35.569   3.628
75171W        W41712   1.942  12.123  11.027
75172W        W41713  15.841  37.350   2.913
75173W        W41714  32.852  32.102   4.972
75174W        W41715   1.360  43.001   0.827
75175W        W41716  43.230  20.071  14.820
75176W        W41717   4.467  17.642  10.666
75177W        W41718  30.652   5.202  13.946
75178W        W41719  13.779  13.835   0.350
75179W        W41720  11.305  42.213  12.821
75180W        W41721  43.776  37.162   2.613
75181W        W41722  35.371  24.501  11.070
75182W        W41723  23.208   0.335  11.433
75183W        W41724   6.331  43.720  10.729
75184W        W41725  33.512  12.699   4.557
75185W        W41726  41.924  31.517  11.560
75186W        W41727  22.801  37.825   0.647
75187W        W41728   6.901   8.503  10.702
75188W        W41729  43.941  10.243  13.341
75189W        W41730  17.555  17.620  14.960
75190W        W41731  13.713  23.029   2.623
75191W        W41732   5.830  36.808  10.192
75192W        W41733  41.058  38.062   0.844
75193W        W41734  28.438  39.254  13.866
75194W        W41735  21.225  20.069   3.614
75195W        W41736  13.247   2.791   0.334
75196W        W41737   3.624  18.270  13.023
75197W        W41738  28.120  36.117   3.225
75198W        W41739  20.428  30.317  14.827
75199W        W41740  22.408   6.316  14.948
75200W        W41741  39.307  11.565  10.741
75201W        W41742  20.024   3.841  13.782
75202W        W41743  44.847  21.082   1.733
75203W        W41744   1.504   1.987   1.681
75204W        W41745  18.760   2.541  12.234
75205W        W41746  15.379   9.319   2.687
75206W        W41747   4.971  17.108   2.867
75207W        W41748  18.073   2.040   3.216
75208W        W41749   8.632   9.463  14.954
75209W        W41750  33.096   6.864   3.604
75210W        W41751  10.838  16.407  11.902
75211W        W41752  38.074  28.036   3.311
75212W        W41753  38.789   5.883  13.912
75213W        W41754  28.500  43.477  14.317
75214W        W41755  30.611  14.594   4.091
75215W        W41756  30.801  24.800   4.313
75216W        W41757  12.690   4.392   0.391
75217W        W41758  37.642  40.785   0.061
75218W        W41759   1.889  10.846   4.615
75219W        W41760  37.130  27.505   1.263
75220W        W41761   8.111  39.806   4.211
75221W        W41762  24.683   6.938  13.939
75222W        W41763  32.355  29.227  10.532
75223W        W41764  29.165  17.791   2.316
75224W        W41765   6.416  15.996   3.186
75225W        W41766  13.721   9.820   3.086
75226W        W41767  21.691  20.115   1.683
75227W        W41768  37.422  18.143  14.519
75228W        W41769  20.919  35.541   1.791
75229W        W41770  36.920  25.167  12.140
75230W        W41771  18.167  29.843  12.508
75231W        W41772   1.198   9.310   1.342
75232W        W41773   1.941  38.909  11.538
75233W        W41774  29.010  23.729  14.862
75234W        W41775  12.260  17.300   0.265
75235W        W41776  31.415   0.623   2.874
75236W        W41777  19.627  15.208   1.637
75237W        W41778  44.687  31.468   9.922
75238W        W41779  11.625  10.624   1.423
75239W        W41780   9.861   5.872   4.609
75240W        W41781  25.825   3.366   3.061
75241W        W41782  23.725  30.444  13.117
75242W        W41783  11.383  19.635   1.624
75243W        W41784  37.593  41.909  12.303
75244W        W41785   0.891  32.677  14.034
75245W        W41786  39.032  41.516  13.401
75246W        W41787  20.652  33.894  12.832
75247W        W41788  35.063  31.828   4.164
75248W        W41789  13.371   2.139  13.891
75249W        W41790  17.653  42.558   3.602
75250W        W41791  34.369  32.887  13.071
75251W        W41792  22.776  40.576  13.878
75252W        W41793   6.859  31.797  13.760
75253W        W41794   3.182  27.327   2.628
75254W        W41795  35.042  25.545  14.591
75255W        W41796   6.348  28.405   2.166
75256W        W41797  41.446  12.912   1.271
75257W        W41798  21.244  37.915   4.325
75258W        W41799  11.173  12.125   1.429
75259W        W41800  14.683   8.156  11.632
75260W        W41801  11.651  37.912  13.526
75261W        W41802  30.681   6.358  11.803
75262W        W41803  18.742  36.070   1.298
75263W        W41804  17.402   7.156   2.727
75264W        W41805  19.719  32.953   1.971
75265W        W41806  37.703  32.523  11.522
75266W        W41807  37.990  15.658   1.587
75267W        W41808  16.337  40.696   2.614
75268W        W41809  28.420  44.418  14.364
75269W        W41810  28.032  11.260   2.136
75270W        W41811  28.527  41.595   5.002
75271W        W41812  41.269  43.202  11.177
75272W        W41813  39.317  12.065   1.561
75273W        W41814  31.420  42.456   3.335
75274W        W41815   1.089  40.093   0.732
75275W        W41816  33.340  19.695  13.923
75276W        W41817  12.703  31.774  11.620
75277W        W41818  40.003  32.713  10.734
75278W        W41819  21.065  20.984   4.909
75279W        W41820  19.479   6.207   1.729
75280W        W41821   6.816  22.174  13.993
75281W        W41822  42.017   6.782   1.465
75282W        W41823  40.641  41.360  10.581
75283W        W41824   7.947  29.719   0.423
75284W        W41825  19.219  16.959   1.243
75285W        W41826  34.091  20.609  12.810
75286W        W41827  16.645  10.812   3.835
75287W        W41828  39.636  31.992   3.131
75288W        W41829   6.215  37.476   4.593
75289W        W41830   5.816  38.707  10.277
75290W        W41831  27.447  28.410  13.738
75291W        W41832   4.736  15.547   3.860
75292W        W41833  42.939  25.113   0.982
75293W        W41834   0.245  40.407  10.566
75294W        W41835  33.321  19.681  11.486
75295W        W41836  32.411  43.882  10.964
75296W        W41837  22.281  25.229  14.022
75297W        W41838  42.008  27.985  11.153
75298W        W41839  35.474   2.310  14.940
75299W        W41840  23.271  12.836   4.512
75300W        W41841   0.365  35.835  12.115
75301W        W41842   9.074  34.504  13.530
75302W        W41843  33.890  32.343  11.277
75303W        W41844   7.524  21.443   3.227
75304W        W41845   9.304   7.083   4.444
75305W        W41846  25.305  10.018  11.268
75306W        W41847  38.670  34.196  12.933
75307W        W41848  24.933  15.854  13.037
75308W        W41849  43.760  18.381   3.703
75309W        W41850  34.992   0.906   1.423
75310W        W41851  33.746   8.269   0.309
75311W        W41852   6.410   4.874  10.424
75312W        W41853  32.081  25.254  11.973
75313W        W41854  15.100  39.437   4.333
75314W        W41855  36.825  16.029   4.447
75315W        W41856  18.912  24.954   3.347
75316W        W41857   0.376  37.336   3.365
75317W        W41858  38.820  19.276   0.920
75318W        W41859   4.613  22.642  12.914
75319W        W41860  30.824  19.897   2.921
75320W        W41861   1.935  35.578  10.900
75321W        W41862   9.955  40.054  14.221
75322W        W41863  43.975  16.203  11.702
75323W        W41864  44.481   3.364  11.947
75324W        W41865  14.118  39.486   1.927
75325W        W41866   8.316  22.901  13.809
75326W        W41867  20.286  11.178  11.135
75327W        W41868  16.697   4.331  11.729
75328W        W41869  10.928  42.343  14.333
75329W        W41870  31.080   2.852  11.083
75330W        W41871  32.391  26.953  14.957
75331W        W41872  35.840  10.117  11.587
75332W        W41873  35.648  25.462   1.339
75333W        W41874  42.523  38.853   1.338
75334W        W41875  11.810  13.536  10.417
75335W        W41876  41.767  15.727   3.569
75336W        W41877   1.968  14.801   4.148
75337W        W41878  42.467  29.951  13.356
75338W        W41879  10.262   0.020   0.866
75339W        W41880  27.513  16.305  14.970
75340W        W41881  25.295   7.397   0.668
75341W        W41882  38.754   7.796   5.036
75342W        W41883   3.143  24.636  14.928
75343W        W41884   1.971   9.009   0.936
75344W        W41885   8.405   9.199   1.300
75345W        W41886  17.097  15.591  13.824
75346W        W41887  30.373  39.663  12.017
75347W        W41888  42.222  26.010  14.048
75348W        W41889  40.917  34.649  14.406
75349W        W41890   0.973  42.790  13.153
75350W        W41891   0.557  41.363  14.976
75351W        W41892   3.683  20.387  13.622
75352W        W41893  18.288  38.023  12.893
75353W        W41894   1.743  40.468  13.329
75354W        W41895  17.009  13.353   4.704
75355W        W41896   2.224  25.169   1.748
75356W        W41897   0.655  31.003  10.240
75357W        W41898  38.965  15.327  12.169
75358W        W41899  36.617  41.413  13.520
75359W        W41900  40.559  24.762  12.017
75360W        W41901   6.806  10.405  13.498
75361W        W41902  37.516  29.530   1.797
75362W        W41903   1.753  17.908  12.318
75363W        W41904  21.503   1.204   3.256
75364W        W41905  17.750  15.263  14.963
75365W        W41906  18.178   1.973  11.695
75366W        W41907  41.338   3.438  14.373
75367W        W41908   3.654  26.077  13.639
75368W        W41909  42.400  21.242  11.992
75369W        W41910  30.648  23.272   2.567
75370W        W41911  19.331  39.055   3.435
75371W        W41912  15.126   8.874  11.124
75372W        W41913  30.710  31.010  14.448
75373W        W41914  26.310  27.960  13.050
75374W        W41915  12.104  33.102  11.513
75375W        W41916  22.765  14.332  11.277
75376W        W41917  10.445  11.973   4.107
75377W        W41918  28.646  21.991  13.970
75378W        W41919   9.314  41.662   1.663
75379W        W41920  22.998  11.620  14.168
75380W        W41921   9.150  36.996  14.464
75381W        W41922  12.994   1.257  12.659
75382W        W41923  44.004  37.986   3.625
75383W        W41924   1.749  33.422   3.040
75384W        W41925  38.341  34.455  14.869
75385W        W41926  26.585  44.838  11.156
75386W        W41927   6.470   7.182  14.747
75387W        W41928  15.747  28.011   4.443
75388W        W41929  43.905   4.047  12.311
75389W        W41930  41.947  19.666   4.132
75390W        W41931  21.260  14.228   3.957
75391W        W41932  39.109  39.972  14.375
75392W        W41933   1.762  27.322  12.124
75393W        W41934  37.661   5.569  12.867
75394W        W41935   7.835  15.855   3.264
75395W        W41936   2.238   6.257   1.676
75396W        W41937  41.835  20.518   3.902
75397W        W41938  35.574   1.259  14.815
75398W        W41939  25.816  11.724   2.188
75399W        W41940   2.266  21.104  13.743
75400W        W41941  31.907  11.761   2.245
75401W        W41942   0.788   8.901  10.811
75402W        W41943  31.158  38.959   4.235
75403W        W41944  10.881  30.287   5.219
75404W        W41945  28.867  29.234   3.669
75405W        W41946  26.763  18.471  13.427
75406W        W41947   7.127  44.977   1.127
75407W        W41948  26.559  10.245  13.843
75408W        W41949  17.135  30.652  14.603
75409W        W41950   8.825  15.835   3.302
75410W        W41951  41.460  16.510  13.624
75411W        W41952   7.420   3.112   3.186
75412W        W41953   3.636  23.193  11.904
75413W        W41954  15.873   0.035  12.859
75414W        W41955  44.812  29.380  10.553
75415W        W41956  18.701  13.150  13.773
75416W        W41957  14.621  10.730   1.451
75417W        W41958  36.869  10.690   2.643
75418W        W41959  18.211  44.044  13.716
75419W        W41960  33.450  30.777  10.682
75420W        W41961  26.089  38.888   4.549
75421W        W41962  31.421  24.254  10.732
75422W        W41963  15.547   2.158  14.411
75423W        W41964  41.491  41.998  12.597
75424W        W41965  41.769   6.310  11.118
75425W        W41966  28.901   3.221  11.612
75426W        W41967  17.136  24.389  11.482
75427W        W41968  23.446  41.003  14.594
75428W        W41969   7.148  20.153  10.881
75429W        W41970   8.092   5.886   1.567
75430W        W41971   4.586  15.135  11.090
75431W        W41972  43.796  27.474  13.566
75432W        W41973  18.999  31.416  12.498
75433W        W41974  26.469  21.261  13.883
75434W        W41975   3.309  16.513  11.567
75435W        W41976  35.490   4.858   2.898
75436W        W41977   7.790  40.282  13.349
75437W        W41978  10.560   8.687  14.373
75438W        W41979  15.269   4.807   4.809
75439W        W41980  21.682  17.172  14.582
75440W        W41981   0.235  32.926   0.970
75441W        W41982  32.531  18.192  10.549
75442W        W41983   3.914  23.068  12.817
75443W        W41984  41.395  18.630  11.614
75444W        W41985   4.316  38.503   2.649
75445W        W41986  36.318  44.697  13.501
75446W        W41987  34.350  12.365   1.379
75447W        W41988  36.936   5.807  12.166
75448W        W41989  31.916  42.939  13.867
75449W        W41990   4.786  36.327  12.535
75450W        W41991   3.104   5.243   2.985
75451W        W41992   6.739  28.066  12.100
75452W        W41993  14.263  33.222   0.752
75453W        W41994  24.640   7.641   3.233
75454W        W41995  40.380  27.697  11.595
75455W        W41996  29.521  24.625  11.220
75456W        W41997  28.518  33.117   0.429
75457W        W41998  18.972   9.916   0.946
75458W        W41999  17.715  18.731  14.049
75459W        W42000  23.173  35.938  13.015
75460W        W42001   7.817   1.062  12.214
75461W        W42002  20.561   3.544   1.365
75462W        W42003  23.207  40.053   0.289
75463W        W42004   8.690  13.961   3.855
75464W        W42005   4.252  44.046   1.939
75465W        W42006  34.288  44.218   0.002
75466W        W42007   2.219  28.659  10.428
75467W        W42008  33.932  31.132   3.351
75468W        W42009  17.774  42.377   0.996
75469W        W42010   2.810  37.878   4.205
75470W        W42011   3.883  42.237   0.306
75471W        W42012  11.592   7.377   1.009
75472W        W42013  12.564  40.228   1.848
75473W        W42014  31.543  34.085  11.534
75474W        W42015   5.778   5.867  11.608
75475W        W42016  12.603  17.661   2.846
75476W        W42017  32.509   5.686   0.875
75477W        W42018  36.654  42.984   3.210
75478W        W42019  34.068  23.838  12.641
75479W        W42020  35.875  40.681  12.060
75480W        W42021  29.849  19.590   4.145
75481W        W42022   7.996   6.244   4.547
75482W        W42023  14.848  21.122   2.831
75483W        W42024   1.561  43.308  14.325
75484W        W42025  20.058  19.237  12.530
75485W        W42026   6.778  37.772   0.895
75486W        W42027  40.921   3.435  11.536
75487W        W42028  11.912  22.595  11.114
75488W        W42029  33.610  16.014  12.828
75489W        W42030  28.289  31.251  12.559
75490W        W42031   9.109   0.845  13.384
75491W        W42032   5.962  36.503  11.862
75492W        W42033  12.283   3.407   2.232
75493W        W42034  24.715   6.895  12.433
75494W        W42035  44.361   9.170  12.864
75495W        W42036  40.853  12.166  10.281
75496W        W42037   5.443   0.854  11.653
75497W        W42038  29.889   0.280  13.379
75498W        W42039   1.475  25.692   0.407
75499W        W42040  27.476   5.999   4.449
75500W        W42041   8.489  39.485   9.946
75501W        W42042  20.974  30.043  13.353
75502W        W42043  44.790  20.292   0.465
75503W        W42044  33.926  18.698   4.601
75504W        W42045  26.405   8.972  13.052
75505W        W42046  31.938  44.034  11.052
75506W        W42047  26.958  31.068   0.289
75507W        W42048   1.068  14.227  14.856
75508W        W42049   2.064  12.414   0.237
75509W        W42050  33.308  38.552  11.207
75510W        W42051  29.241  23.085  13.607
75511W        W42052   3.878  35.908   3.407
75512W        W42053  21.494  31.097   0.778
75513W        W42054   2.262  14.447   2.397
75514W        W42055  42.831   0.885  12.570
75515W        W42056  39.870  23.696   0.444
75516W        W42057  31.123   5.962  12.922
75517W        W42058  11.288  24.507   3.589
75518W        W42059  30.458  18.324  11.537
75519W        W42060   4.043  26.781   5.047
75520W        W42061  39.783  27.090   2.439
75521W        W42062   1.966  18.111   0.418
75522W        W42063  33.650  19.131   3.841
75523W        W42064  20.042  12.809  13.500
75524W        W42065   0.369   3.377   2.612
75525W        W42066  17.285  27.720   4.656
75526W        W42067  32.322  14.715   1.690
75527W        W42068  30.083  44.049  11.470
75528W        W42069  37.625  10.313  14.311
75529W        W42070   8.198   5.219   4.399
75530W        W42071  34.688  36.664  13.352
75531W        W42072  42.932   7.681   1.819
75532W        W42073  37.823  33.853  11.554
75533W        W42074  15.654  38.083  11.076
75534W        W42075  40.483  40.852   4.065
75535W        W42076   6.492  24.980  11.708
75536W        W42077  39.428  21.507  11.676
75537W        W42078  19.272   7.085   3.647
75538W        W42079   3.278  32.129  13.416
75539W        W42080  16.175  30.752  12.814
75540W        W42081  41.472  40.346   4.540
75541W        W42082  41.011   1.979   1.681
75542W        W42083  18.872  44.837  12.389
75543W        W42084  30.994  35.587   2.836
75544W        W42085  39.306  37.884  11.324
75545W        W42086  16.874  11.857  11.209
75546W        W42087  28.691  31.907  14.900
75547W        W42088  13.249  27.424   3.618
75548W        W42089  40.146  39.997   0.216
75549W        W42090  11.729  23.747   0.946
75550W        W42091   4.261  12.913  13.480
75551W        W42092  17.570  12.191  12.602
75552W        W42093   1.431  12.207  13.129
75553W        W42094   5.317  12.840  14.057
75554W        W42095  34.639   6.756   1.286
75555W        W42096  25.154  34.631  13.072
75556W        W42097  27.190  28.173  10.672
75557W        W42098  34.604  21.395  11.658
75558W        W42099  14.316   0.916  13.865
75559W        W42100  24.023  40.286  10.599
75560W        W42101  14.641  27.618   2.189
75561W        W42102   3.200  42.926  11.750
75562W        W42103  27.435  33.941   1.850
75563W        W42104   5.879  44.305   4.530
75564W        W42105  24.565  18.888  11.125
75565W        W42106   8.862  33.343  14.084
75566W        W42107  29.223  24.804  10.652
75567W        W42108  14.710  12.216  10.608
75568W        W42109  31.492  43.353   3.175
75569W        W42110  32.922   0.266   3.321
75570W        W42111   3.839  12.053   3.700
75571W        W42112  13.029  20.993  13.343
75572W        W42113   4.414  43.248  13.835
75573W        W42114  25.738  10.386  10.417
75574W        W42115  31.983   2.727   0.966
75575W        W42116  34.842  14.341   3.167
75576W        W42117  34.654  44.041  11.356
75577W        W42118   8.279  12.251   1.722
75578W        W42119  41.448   3.870   0.264
75579W        W42120  27.024  34.338   1.142
75580W        W42121  15.074  36.586  13.975
75581W        W42122  35.589   5.288   1.625
75582W        W42123  36.955  34.101  10.656
75583W        W42124  32.020  29.414  14.256
75584W        W42125   1.771  25.137   2.121
75585W        W42126  22.185  14.031   1.922
75586W        W42127  32.774  11.842   4.629
75587W        W42128  16.852   5.694   2.284
75588W        W42129  14.670  15.339   3.745
75589W        W42130  27.670  13.094  13.589
75590W        W42131  35.402   9.748  11.514
75591W        W42132  15.364   3.260  13.861
75592W        W42133  29.494  34.623  13.281
75593W        W42134  22.754  13.021   1.331
75594W        W42135  31.437  44.628   2.546
75595W        W42136  29.764  23.232  14.494
75596W        W42137   0.758  13.180   4.939
75597W        W42138  29.109  34.134  14.480
75598W        W42139   6.662  10.176   3.667
75599W        W42140  25.724   8.512   2.334
75600W        W42141  17.904  25.249  12.864
75601W        W42142  12.544   3.424  10.723
75602W        W42143  27.136  19.779  10.952
75603W        W42144   9.156   0.505  12.982
75604W        W42145  27.520  40.489   2.352
75605W        W42146  41.413   9.348   0.619
75606W        W42147  27.674  14.072  12.168
75607W        W42148  13.642  22.713  13.305
75608W        W42149  10.627   2.784   4.797
75609W        W42150  43.915  21.423   4.893
75610W        W42151   1.571   0.561   1.828
75611W        W42152   4.285   7.113  11.407
75612W        W42153  25.337   3.185  13.431
75613W        W42154  35.929  15.767  14.163
75614W        W42155   1.395  32.919   2.855
75615W        W42156  14.031   9.240  13.634
75616W        W42157  27.973  23.370  14.135
75617W        W42158  17.562  24.612  13.355
75618W        W42159  42.312  11.618  12.489
75619W        W42160   7.380  34.452   4.574
75620W        W42161  12.338   8.377   0.757
75621W        W42162  11.774  38.252   2.754
75622W        W42163  19.119   0.947   4.134
75623W        W42164  40.912  21.188  13.303
75624W        W42165   0.046  11.680  12.322
75625W        W42166  33.511  44.010   2.220
75626W        W42167   6.132  41.005   4.086
75627W        W42168   9.827  19.407   3.180
75628W        W42169  18.467   9.916   1.075
75629W        W42170  40.119  38.951  13.544
75630W        W42171  29.331  40.332  12.550
75631W        W42172  21.233   5.431  13.870
75632W        W42173  36.029  30.357  14.910
75633W        W42174  36.331   1.883   1.390
75634W        W42175   8.815  28.622   3.866
75635W        W42176   5.328  34.323   3.251
75636W        W42177  28.414  27.487   4.760
75637W        W42178  18.527   8.118  11.340
75638W        W42179  44.054  18.798   3.722
75639W        W42180  11.641  29.213  11.888
75640W        W42181  32.512  20.967   2.694
75641W        W42182  23.677  38.885   2.212
75642W        W42183  34.357  12.734  13.034
75643W        W42184   3.783  38.793  14.905
75644W        W42185  38.450  13.176   4.993
75645W        W42186   7.207  36.404   4.558
75646W        W42187  39.785  28.483  14.565
75647W        W42188  42.150  16.144   4.697
75648W        W42189  21.000  31.382  14.664
75649W        W42190  26.912  39.994   0.372
75650W        W42191  36.665   7.951   1.799
75651W        W42192   9.065  25.596  11.549
75652W        W42193   8.333   3.933   2.311
75653W        W42194  36.541  39.147  11.574
75654W        W42195  40.210  12.703   9.903
75655W        W42196  35.385  10.307   0.880
75656W        W42197  21.021  24.890   3.729
75657W        W42198  15.550  22.066   4.226
75658W        W42199   6.353   9.235   3.134
75659W        W42200  30.317   4.650   4.470
75660W        W42201  11.657  25.831   3.818
75661W        W42202   1.689  21.262   2.263
75662W        W42203  22.533  28.155  10.303
75663W        W42204   9.348  23.602  11.684
75664W        W42205   7.948  26.532   3.637
75665W        W42206  42.370  36.677   3.851
75666W        W42207  31.582  38.603   1.227
75667W        W42208  12.113  40.335  12.826
75668W        W42209   1.629  44.529   3.482
75669W        W42210  41.807   4.280   3.229
75670W        W42211   7.644  35.605   3.075
75671W        W42212  32.345  30.573  10.709
75672W        W42213  30.449  35.920  12.135
75673W        W42214  23.652  19.510   1.712
75674W        W42215  18.710  26.293  10.805
75675W        W42216  23.158   7.423   5.408
75676W        W42217  43.336  25.253  13.809
75677W        W42218  35.354   3.481  12.462
75678W        W42219  15.535  33.952  12.754
75679W        W42220  19.657  19.545  11.932
75680W        W42221  11.220  25.668  13.447
75681W        W42222  11.097  29.110   2.734
75682W        W42223   7.363  20.699  11.724
75683W        W42224   7.138  40.457  10.747
75684W        W42225  30.632  33.712   4.144
75685W        W42226  35.210  43.423  14.623
75686W        W42227  35.814  18.075  14.539
75687W        W42228  29.528  11.279   1.802
75688W        W42229  28.285  14.385  11.561
75689W        W42230  25.240  43.454  13.369
75690W        W42231   8.655  40.774  10.822
75691W        W42232  32.118  25.303  11.121
75692W        W42233  19.541  13.889  13.925
75693W        W42234  44.824  20.068   2.336
75694W        W42235  36.446  21.894   4.534
75695W        W42236  26.073  21.898   1.293
75696W        W42237  24.573  42.525  12.813
75697W        W42238  10.593  38.043  14.642
75698W        W42239   7.249  32.623   0.792
75699W        W42240  17.612  13.853  13.551
75700W        W42241  34.059  29.401   2.311
75701W        W42242  23.577  14.291  14.459
75702W        W42243   4.446   9.771   1.139
75703W        W42244  14.611  18.255   3.224
75704W        W42245   8.168  41.942  11.861
75705W        W42246  36.158  37.311  10.352
75706W        W42247  14.309  39.981  12.457
75707W        W42248  44.804  35.421   3.259
75708W        W42249   5.270   5.571  13.165
75709W        W42250  36.207   9.742  11.717
75710W        W42251  27.317  26.320  14.038
75711W        W42252  18.962  30.911   4.021
75712W        W42253   6.659  29.054   0.379
75713W        W42254  32.445  32.085  11.469
75714W        W42255   6.012  29.643   0.027
75715W        W42256  20.301   4.385   3.716
75716W        W42257  13.558  43.367   0.248
75717W        W42258  34.405  32.127  12.535
75718W        W42259  19.232  19.970   4.323
75719W        W42260   3.576  30.654  10.291
75720W        W42261  43.937  34.636  12.007
75721W        W42262  21.197  32.576  10.909
75722W        W42263   9.567   7.640  14.461
75723W        W42264   6.395  26.742   3.696
75724W        W42265  26.947  28.119  14.921
75725W        W42266  44.229   9.444  10.973
75726W        W42267  24.819  33.564   0.188
75727W        W42268   0.565  15.649  11.211
75728W        W42269  12.379  23.604   4.681
75729W        W42270  25.436  29.518  11.602
75730W        W42271  39.545  43.778  11.266
75731W        W42272  40.186  37.652  12.156
75732W        W42273  34.374  44.769   1.296
75733W        W42274  26.575  32.612  14.363
75734W        W42275  42.313   7.851   3.850
75735W        W42276  12.847  39.994   2.710
75736W        W42277  38.407  33.013  14.807
75737W        W42278   7.744   5.373  14.872
75738W        W42279  20.591  13.264   0.816
75739W        W42280  37.542  32.808  14.810
75740W        W42281  20.095  15.756   3.376
75741W        W42282  31.570  32.690   3.341
75742W        W42283  21.425  44.702  10.014
75743W        W42284  22.103  14.852  13.073
75744W        W42285   3.789  38.994  12.233
75745W        W42286  13.220  34.527  12.056
75746W        W42287   0.737  36.062  11.504
75747W        W42288  25.190  39.967  11.475
75748W        W42289  13.504   4.945   1.325
75749W        W42290  26.572  11.828  11.738
75750W        W42291  22.927  11.894  13.337
75751W        W42292  27.518  14.121  11.271
75752W        W42293   8.284  31.935  10.156
75753W        W42294  14.845  40.420   3.653
75754W        W42295  28.149  39.177  10.178
75755W        W42296   3.013  41.320  11.533
75756W        W42297  20.684   1.360   2.694
75757W        W42298  32.349  18.799  11.993
75758W        W42299  29.547  28.403  11.982
75759W        W42300  25.511  25.450  12.517
75760W        W42301  25.129  33.895  10.614
75761W        W42302  38.495   1.185  10.687
75762W        W42303  39.887   7.464   2.855
75763W        W42304  19.156  40.896   1.487
75764W        W42305  38.458   7.698   2.018
75765W        W42306  21.725  23.878   3.698
75766W        W42307  27.097  34.999   4.218
75767W        W42308  20.482   5.435   3.005
75768W        W42309  26.609  23.465   4.127
75769W        W42310  35.167  41.998  14.452
75770W        W42311  40.888  43.353   4.545
75771W        W42312  27.937  26.555   0.224
75772W        W42313  27.519   1.402  12.158
75773W        W42314  20.781  12.247  13.038
75774W        W42315  40.835   3.384  14.239
75775W        W42316  37.096   7.476  13.502
75776W        W42317   0.540  44.830   2.743
75777W        W42318  22.698  26.070   4.690
75778W        W42319  35.058  37.888  14.019
75779W        W42320  15.092  19.498   2.743
75780W        W42321  21.294  25.795   3.102
75781W        W42322   2.406  36.326   1.730
75782W        W42323  28.205  12.789  11.981
75783W        W42324  28.005  27.358   3.531
75784W        W42325  23.034  37.468   4.320
75785W        W42326  36.780   7.130  11.058
75786W        W42327   4.431  31.663  10.179
75787W        W42328  44.312  11.125   3.423
75788W        W42329   3.760   8.138   2.268
75789W        W42330  19.667   7.019   9.649
75790W        W42331  13.157  39.888   0.408
75791W        W42332  25.468  18.316   3.213
75792W        W42333   7.371  14.628   2.845
75793W        W42334   2.781  26.344   1.422
75794W        W42335  24.586  22.713  12.535
75795W        W42336  35.614  14.701  11.183
75796W        W42337  12.354  32.902   1.875
75797W        W42338  22.546  20.619  11.936
75798W        W42339  13.772  26.106   0.292
75799W        W42340   2.433  36.686  11.522
75800W        W42341   9.076  43.706   3.769
75801W        W42342  33.392   0.839   2.135
75802W        W42343  34.016  13.714  11.100
75803W        W42344  20.225  37.999   1.778
75804W        W42345   5.483  27.700  13.142
75805W        W42346  21.984  19.661  10.727
75806W        W42347  21.301  15.599   2.850
75807W        W42348  39.026  42.812  10.757
75808W        W42349  35.941  11.646  13.856
75809W        W42350  41.922  39.016   3.636
75810W        W42351  29.662  24.492  14.803
75811W        W42352   8.239  18.125   0.455
75812W        W42353  20.915  15.782   1.616
75813W        W42354   9.806  28.159   2.334
75814W        W42355  14.081  35.769   4.603
75815W        W42356  25.432  41.217   3.708
75816W        W42357  13.750  33.855  12.583
75817W        W42358  41.369  25.344   1.512
75818W        W42359  35.967  42.115   1.649
75819W        W42360  27.098   8.304  10.635
75820W        W42361  36.697   0.226  10.326
75821W        W42362  22.142   5.361  12.659
75822W        W42363   5.747  17.772  13.487
75823W        W42364  27.125  12.238   1.574
75824W        W42365  43.840  34.876   0.057
75825W        W42366   9.772  24.783  13.417
75826W        W42367   1.134  19.728   2.938
75827W        W42368  24.627  19.150   0.301
75828W        W42369  15.108  42.301   1.780
75829W        W42370  24.464  44.690   1.468
75830W        W42371  14.655  43.663  11.595
75831W        W42372  26.917  28.257  12.008
75832W        W42373   8.985  29.694  12.093
75833W        W42374  24.307   0.938  10.349
75834W        W42375   9.359  26.705   1.644
75835W        W42376  35.376  33.030   4.431
75836W        W42377  17.559  24.693   4.593
75837W        W42378  13.637  13.369   3.738
75838W        W42379   3.020  19.031   0.298
75839W        W42380   4.746  10.220  13.803
75840W        W42381   9.242  22.939  10.713
75841W        W42382   1.798   0.616   2.742
75842W        W42383  12.556  18.084   2.189
75843W        W42384   3.621  13.824   4.660
75844W        W42385  14.041  35.649  12.435
75845W        W42386  43.367   3.094   1.392
75846W        W42387  22.041  11.254  11.946
75847W        W42388  32.016  30.041   0.967
75848W        W42389  43.513  34.432   4.916
75849W        W42390   5.899  44.795  11.059
75850W        W42391  28.179  39.310  10.674
75851W        W42392   5.853  31.445  10.682
75852W        W42393   6.335  10.455  11.752
75853W        W42394  35.293  26.685  14.456
75854W        W42395  23.062  27.639  14.348
75855W        W42396  10.230   0.003   2.359
75856W        W42397  22.411  32.971   2.668
75857W        W42398   2.325  42.403  13.548
75858W        W42399  21.533   0.520   1.243
75859W        W42400  27.427  32.914   2.800
75860W        W42401   1.867  35.552  14.847
75861W        W42402  27.990  28.392   4.564
75862W        W42403  30.399  38.646   2.680
75863W        W42404  21.797  31.488   4.220
75864W        W42405  11.791  10.265  14.576
75865W        W42406  14.991  38.789   0.872
75866W        W42407  10.435  34.501  12.892
75867W        W42408  26.714  25.133  10.087
75868W        W42409  17.494  24.549   3.547
75869W        W42410   5.255  10.800   0.872
75870W        W42411  21.593   7.783   1.797
75871W        W42412  11.877  19.032  11.208
75872W        W42413  39.332   1.723  11.160
75873W        W42414  38.460  10.321   1.678
75874W        W42415  26.392  21.965   3.242
75875W        W42416  23.597   4.282   0.462
75876W        W42417  44.647  42.509   1.495
75877W        W42418  18.245   6.561  13.662
75878W        W42419  12.054  22.655  11.628
75879W        W42420  34.082  34.353   2.281
75880W        W42421  20.622  26.565   3.325
75881W        W42422  39.855  40.071   4.073
75882W        W42423  24.019  42.851   2.403
75883W        W42424  30.014  37.952   3.237
75884W        W42425   6.692   7.835   0.745
75885W        W42426  25.871   0.017   4.405
75886W        W42427  17.351  34.269   0.631
75887W        W42428  35.453  22.687  13.342
75888W        W42429   5.259  32.357   1.301
75889W        W42430  44.493  42.871  11.101
75890W        W42431  35.110   3.481   0.373
75891W        W42432  20.818  30.985  13.503
75892W        W42433  31.667  15.718  12.329
75893W        W42434   1.707  13.756  11.609
75894W        W42435   3.891  33.904  13.327
75895W        W42436   5.305  31.408  11.414
75896W        W42437  31.932   5.194   2.355
75897W        W42438   0.640  29.828   2.271
75898W        W42439  44.747  11.442   3.555
75899W        W42440   5.777  40.670  14.911
75900W        W42441  36.443  33.765  12.499
75901W        W42442  21.189   8.858  14.770
75902W        W42443  42.119  13.865  12.015
75903W        W42444  14.351  18.208   1.651
75904W        W42445  37.324  31.535  14.457
75905W        W42446  14.714  12.382  14.729
75906W        W42447   5.365  43.557  10.726
75907W        W42448   8.479   7.697  10.556
75908W        W42449   8.802  38.253  10.751
75909W        W42450  42.719   1.430   2.675
75910W        W42451  28.488  27.246   2.256
75911W        W42452  14.910  41.402   3.642
75912W        W42453  30.873  44.573  12.939
75913W        W42454  34.891   3.220  13.523
75914W        W42455  32.606  37.081  10.822
75915W        W42456  25.023  36.821   2.187
75916W        W42457  32.521  43.991   4.209
75917W        W42458  11.804  17.597   2.552
75918W        W42459  21.238  35.081   3.091
75919W        W42460  19.282  10.575  13.330
75920W        W42461  39.829  29.012  13.494
75921W        W42462  39.438   3.262  12.038
75922W        W42463  21.332  44.290   0.912
75923W        W42464  11.678  15.489   2.152
75924W        W42465  34.919  12.612   0.602
75925W        W42466  43.420  17.552  14.440
75926W        W42467   2.855   4.068  12.519
75927W        W42468  36.525  44.448  12.354
75928W        W42469  44.941  34.054  13.096
75929W        W42470  19.331  27.169   1.183
75930W        W42471   9.084  20.834  12.246
75931W        W42472  11.872  37.377   2.785
75932W        W42473   9.455  44.082  14.676
75933W        W42474  41.370  29.102   2.589
75934W        W42475  44.290   6.461  12.249
75935W        W42476  34.580   4.694   2.831
75936W        W42477  31.651  17.653   3.821
75937W        W42478  41.812  31.687  13.868
75938W        W42479   2.901  23.441  11.506
75939W        W42480  33.216   2.741   0.338
75940W        W42481  36.427   9.372   2.276
75941W        W42482  19.751  19.043  11.957
75942W        W42483  37.274  39.564   5.120
75943W        W42484  20.918  36.513   4.496
75944W        W42485  26.434  35.001   2.771
75945W        W42486  11.329  37.248  14.196
75946W        W42487  39.896  38.238  14.865
75947W        W42488  40.064  33.229   0.339
75948W        W42489  10.221  27.185  12.451
75949W        W42490  39.084  13.215  13.433
75950W        W42491  33.677  36.396  11.218
75951W        W42492  19.852  42.472   0.833
75952W        W42493  28.808  43.033   0.498
75953W        W42494  43.483  32.044   3.989
75954W        W42495   2.623  24.588   4.709
75955W        W42496  28.105  19.798   4.600
75956W        W42497  15.247   4.709   0.290
75957W        W42498  38.000  10.866   3.319
75958W        W42499  34.893  36.420  13.782
75959W        W42500  28.525  32.539   1.064
75960W        W42501  20.681  34.581   3.109
75961W        W42502  43.800   7.422   4.968
75962W        W42503   3.721   7.763   1.882
75963W        W42504   1.765  10.102   1.682
75964W        W42505  18.314  28.761   2.615
75965W        W42506   7.756  36.058   3.288
75966W        W42507  16.213  18.615   4.566
75967W        W42508  16.503   0.596   4.137
75968W        W42509  23.125  14.319   2.823
75969W        W42510  14.827  38.036   2.270
75970W        W42511  42.403  39.269  14.777
75971W        W42512   3.660  21.116   2.621
75972W        W42513  25.774   9.765  13.512
75973W        W42514  25.220   7.368  11.890
75974W        W42515   4.308  21.150   1.654
75975W        W42516  40.560  17.247   0.320
75976W        W42517  24.836  37.114   1.217
75977W        W42518  41.272  18.207   4.101
75978W        W42519   5.741  41.751   3.661
75979W        W42520  36.998   4.420   1.748
75980W        W42521   3.898  11.123  10.613
75981W        W42522  17.543  42.459   4.571
75982W        W42523  27.141  40.223  10.588
75983W        W42524   4.709  42.113  12.348
75984W        W42525   5.785  33.401  13.921
75985W        W42526   2.778  11.297  12.992
75986W        W42527  42.834  27.915  11.615
75987W        W42528  25.440  31.064   0.282
75988W        W42529  43.399  19.307   0.064
75989W        W42530  42.331  31.577   3.338
75990W        W42531  33.338  39.342   0.838
75991W        W42532  30.628  38.177  12.010
75992W        W42533   0.534  21.486   1.870
75993W        W42534  35.946  20.162  11.193
75994W        W42535  26.999  29.760  14.771
75995W        W42536  31.560  12.271  13.141
75996W        W42537  11.126  24.981   1.951
75997W        W42538  31.557   9.259   2.360
75998W        W42539  32.922   8.166   4.203
75999W        W42540  37.370  11.824   3.087
76000W        W42541  28.854  19.046   2.952
76001W        W42542   1.292  32.024  13.333
76002W        W42543  17.663  42.463  11.892
76003W        W42544   3.249   4.811  12.622
76004W        W42545  19.616  21.987   3.360
76005W        W42546  22.695   3.401  12.577
76006W        W42547  23.039   3.932   1.540
76007W        W42548  40.757   4.429   5.033
76008W        W42549   8.639  32.133  12.127
76009W        W42550  44.475   4.818   2.865
76010W        W42551  30.494  37.146  13.364
76011W        W42552  40.147   0.983   0.952
76012W        W42553  21.909  32.705   1.364
76013W        W42554  11.429  42.420  14.266
76014W        W42555  41.462   4.318  11.666
76015W        W42556   4.700  21.936   3.105
76016W        W42557  26.669   2.328   3.329
76017W        W42558  42.962  32.336  10.078
76018W        W42559   6.358  15.041  14.828
76019W        W42560  43.756  40.258   3.552
76020W        W42561  18.561  10.612   3.600
76021W        W42562  28.150   5.167  12.527
76022W        W42563  21.134  11.730  14.620
76023W        W42564   1.670  35.928  14.485
76024W        W42565  13.132  43.045  12.091
76025W        W42566   8.352  19.138   0.224
76026W        W42567  25.632  11.894  11.463
76027W        W42568  27.586   1.974   3.180
76028W        W42569  35.192   7.095   3.219
76029W        W42570   7.155  20.639  10.586
76030W        W42571  32.332  30.582  14.791
76031W        W42572  44.746  34.868   4.073
76032W        W42573   4.187  43.500  14.231
76033W        W42574  42.873  30.921   1.864
76034W        W42575  32.434  27.660   4.522
76035W        W42576  10.390  38.982   5.230
76036W        W42577  39.105  37.557  10.598
76037W        W42578  36.013  17.397   1.833
76038W        W42579  10.241  18.727   0.632
76039W        W42580  24.210  40.871   4.111
76040W        W42581   8.245  22.796   4.461
76041W        W42582  13.693  19.603   4.296
76042W        W42583  30.879  41.988  13.141
76043W        W42584  24.624   6.345   0.440
76044W        W42585  24.997  25.149  13.418
76045W        W42586  13.555   3.355  14.510
76046W        W42587   6.065  30.711   0.358
76047W        W42588  28.606  27.010  12.583
76048W        W42589  29.493  32.166  10.279
76049W        W42590  39.306  15.240   0.379
76050W        W42591  23.706   8.387   3.862
76051W        W42592  24.052   2.136   1.918
76052W        W42593  16.848  23.101  13.980
76053W        W42594  30.361  21.563   3.764
76054W        W42595  14.737   2.758   2.408
76055W        W42596  18.325   8.771   2.810
76056W        W42597  13.608  34.572   2.781
76057W        W42598   1.315  16.543   1.907
76058W        W42599   1.051  20.577   2.386
76059W        W42600  12.362  37.024  11.253
76060W        W42601  41.995  43.724  13.885
76061W        W42602  22.173  30.335  12.148
76062W        W42603  35.132  11.653  10.730
76063W        W42604   5.724  27.183  12.931
76064W        W42605   3.715  38.909   2.774
76065W        W42606   7.636  43.842  14.037
76066W        W42607  21.617  28.462  11.663
76067W        W42608  29.405   9.307   4.646
76068W        W42609  18.273  23.523  10.735
76069W        W42610  37.339  17.631   4.071
76070W        W42611   9.497  19.634  12.867
76071W        W42612   4.246  31.180  13.411
76072W        W42613  13.693   2.241  11.108
76073W        W42614  39.326  27.024   3.846
76074W        W42615  30.531  40.609   1.481
76075W        W42616  14.157  34.797  13.977
76076W        W42617   1.993  26.445   1.092
76077W        W42618  10.003  35.060  11.643
76078W        W42619   1.985  31.461  10.701
76079W        W42620   4.478  44.532   1.894
76080W        W42621   6.232   7.679  10.492
76081W        W42622  38.425   9.687  11.451
76082W        W42623   3.427  23.148   0.514
76083W        W42624  19.734  42.090  11.111
76084W        W42625  19.714  39.979   0.841
76085W        W42626  44.018  24.543  12.979
76086W        W42627  38.250   5.923   0.166
76087W        W42628  13.530   6.258   4.850
76088W        W42629  44.519  20.691  11.564
76089W        W42630  42.851  22.230   4.524
76090W        W42631  36.221  20.186  12.555
76091W        W42632  27.127   2.354   0.972
76092W        W42633  17.851  24.596  14.393
76093W        W42634  17.007   8.196  12.957
76094W        W42635  34.843   8.596  13.523
76095W        W42636  28.960  44.475  14.319
76096W        W42637  16.397  30.927   2.318
76097W        W42638  27.146  37.792   3.098
76098W        W42639  14.328  21.501  12.485
76099W        W42640  13.210   0.408  14.752
76100W        W42641   3.893  22.899   5.034
76101W        W42642  39.389  21.202  14.358
76102W        W42643   2.458  29.030  13.464
76103W        W42644  10.296  27.053   2.911
76104W        W42645  38.332   5.223   2.778
76105W        W42646  18.793  11.889  12.796
76106W        W42647  17.725  18.137   0.836
76107W        W42648  25.754  16.295  10.646
76108W        W42649   3.294   4.516   0.430
76109W        W42650  17.761  15.488   2.760
76110W        W42651  12.293  23.429   1.851
76111W        W42652   4.251  34.261   2.983
76112W        W42653   2.981  35.483  11.902
76113W        W42654   6.994  23.585  14.020
76114W        W42655  27.890  15.481  14.962
76115W        W42656  32.544  25.220   4.563
76116W        W42657  41.531  18.741  12.109
76117W        W42658   0.792  39.558  14.835
76118W        W42659  40.333  35.100  13.816
76119W        W42660  39.066  27.067  14.406
76120W        W42661  22.065  23.812   4.289
76121W        W42662   4.294  36.838  10.832
76122W        W42663   2.226  43.181   1.471
76123W        W42664  13.155  13.613   0.063
76124W        W42665  25.207   2.747  14.410
76125W        W42666  12.193  16.367  12.183
76126W        W42667   9.714  27.554  11.275
76127W        W42668   8.845  11.434  13.422
76128W        W42669   4.953  26.595   2.206
76129W        W42670   8.715  19.960   1.255
76130W        W42671  16.202   3.054   1.660
76131W        W42672  27.654  40.697   3.895
76132W        W42673   3.866  21.018   1.375
76133W        W42674  40.867   9.616  11.432
76134W        W42675  40.130  25.595   4.023
76135W        W42676   1.446  34.053   0.169
76136W        W42677  16.088  37.022  11.758
76137W        W42678  22.601  43.884   4.004
76138W        W42679  22.187   4.881  12.485
76139W        W42680  10.315   1.763  12.026
76140W        W42681  20.937  10.622   4.149
76141W        W42682   0.164  19.704   4.808
76142W        W42683   6.249  36.109  12.433
76143W        W42684  32.571  26.195   0.424
76144W        W42685   5.291  19.595  13.488
76145W        W42686  23.570   3.403   1.028
76146W        W42687  37.866  34.935   3.262
76147W        W42688  23.715  10.978   1.126
76148W        W42689  35.508  24.589   1.134
76149W        W42690  34.676  13.856  12.531
76150W        W42691  41.676  22.187  13.461
76151W        W42692  10.836  14.609  12.857
76152W        W42693  16.619  13.608  10.511
76153W        W42694   7.682   7.370   3.879
76154W        W42695  23.168   9.926   4.523
76155W        W42696  44.153  23.048  11.787
76156W        W42697  27.582  26.053   0.428
76157W        W42698  32.187  32.985  11.038
76158W        W42699  15.863  18.804  11.169
76159W        W42700  38.879  10.754   2.331
76160W        W42701  15.141   1.331  13.774
76161W        W42702  19.460  42.916   2.169
76162W        W42703   2.724   2.144  11.825
76163W        W42704   4.358   5.200   4.177
76164W        W42705  37.671  37.965   1.697
76165W        W42706   2.864  30.118  12.454
76166W        W42707   6.738  33.085  11.590
76167W        W42708   6.259  31.839  14.001
76168W        W42709   8.760  17.823  14.189
76169W        W42710  23.960  11.710   2.242
76170W        W42711  24.093  38.875   3.447
76171W        W42712  17.198  31.007   1.916
76172W        W42713   3.487  31.087   0.780
76173W        W42714  24.011   6.902  14.925
76174W        W42715   9.960  11.022   2.693
76175W        W42716  18.869  16.927  11.979
76176W        W42717  32.470  24.764   3.128
76177W        W42718   0.292  43.029  13.083
76178W        W42719  34.937  41.306  10.701
76179W        W42720  17.900  12.792  11.059
76180W        W42721  38.512   4.950   0.441
76181W        W42722  33.901  17.140   4.944
76182W        W42723  41.435  27.092   0.913
76183W        W42724   4.703  21.219  14.447
76184W        W42725  11.751  31.570  14.086
76185W        W42726  32.923  31.671   4.681
76186W        W42727  27.902  17.079   0.862
76187W        W42728  39.842  39.333   2.565
76188W        W42729  28.560  28.894   0.718
76189W        W42730   8.584  40.795   3.382
76190W        W42731  13.621  36.538   2.364
76191W        W42732  11.836  13.933   0.345
76192W        W42733  20.785  11.129   2.811
76193W        W42734   8.786  37.951  10.286
76194W        W42735  32.371  26.679  13.444
76195W        W42736  29.488  43.536  11.936
76196W        W42737  24.396  11.511  13.591
76197W        W42738  35.935  37.498  11.764
76198W        W42739  29.044  42.501  13.162
76199W        W42740  37.953  36.828  13.121
76200W        W42741   6.385  40.006  13.602
76201W        W42742   0.883  36.558   0.649
76202W        W42743  16.095   6.228  14.925
76203W        W42744  38.040  23.070  10.514
76204W        W42745  43.457  17.592   3.698
76205W        W42746  18.573  17.202   2.680
76206W        W42747  10.969  13.083   3.703
76207W        W42748   7.713   8.018  12.028
76208W        W42749   5.373  26.812   1.013
76209W        W42750  29.173  37.670   4.992
76210W        W42751  27.193  12.346   3.287
76211W        W42752  13.853   6.684   4.784
76212W        W42753  17.264  36.005  11.949
76213W        W42754  43.407  31.474  11.546
76214W        W42755   4.815  42.190   2.273
76215W        W42756  29.213   3.891   4.645
76216W        W42757  32.127  19.011  11.582
76217W        W42758  26.948  23.617   3.282
76218W        W42759  40.452  32.057   0.940
76219W        W42760  44.246  17.571  12.881
76220W        W42761  30.104  25.739  13.566
76221W        W42762  36.892  17.703  12.979
76222W        W42763  15.159   3.960   2.264
76223W        W42764  17.307  12.751   4.188
76224W        W42765   2.505  33.561   1.050
76225W        W42766  12.583  36.312   0.886
76226W        W42767   9.672   0.628   0.958
76227W        W42768  18.757  41.873  10.834
76228W        W42769   5.643  23.216  11.865
76229W        W42770   6.186  41.055  10.664
76230W        W42771  12.293  23.966  11.819
76231W        W42772  21.711  10.242  11.149
76232W        W42773  34.617  10.373   3.334
76233W        W42774   9.330  19.674   3.552
76234W        W42775  35.111  43.883   3.280
76235W        W42776  40.232  37.055   1.248
76236W        W42777  15.231  23.272   2.439
76237W        W42778  17.329  26.379   2.711
76238W        W42779   9.978  38.465  10.710
76239W        W42780   8.243  13.154  12.393
76240W        W42781   9.173  19.717   1.167
76241W        W42782   9.136  43.665   2.223
76242W        W42783  20.302  14.331   1.410
76243W        W42784  44.579  26.184   3.153
76244W        W42785  11.576  19.930   3.148
76245W        W42786  42.188  31.120   4.088
76246W        W42787   3.690   3.454   3.247
76247W        W42788  16.038  19.827  12.559
76248W        W42789   1.457  31.128   2.361
76249W        W42790  41.228  35.102  12.006
76250W        W42791  23.023   5.495  14.946
76251W        W42792  42.550   7.688  14.738
76252W        W42793  34.949  30.415  13.287
76253W        W42794  37.787  32.153   3.059
76254W        W42795  27.709  23.673  12.054
76255W        W42796  31.115  11.853   2.713
76256W        W42797   7.695  31.822   0.489
76257W        W42798  17.792  13.288   0.702
76258W        W42799   3.185  12.263  11.181
76259W        W42800  26.975  29.053  12.521
76260W        W42801  18.175  18.206   0.434
76261W        W42802  32.861  40.521  12.488
76262W        W42803  39.395  18.904   1.809
76263W        W42804  27.574  11.468  10.650
76264W        W42805  26.947  44.472  10.941
76265W        W42806  35.472  40.227   3.237
76266W        W42807  14.802  20.017   4.612
76267W        W42808  31.146  22.569   3.245
76268W        W42809  37.084   4.907   0.498
76269W        W42810  21.530  25.006   3.802
76270W        W42811  13.055  36.278  14.925
76271W        W42812   5.868  40.148  14.976
76272W        W42813  39.886  37.630  13.012
76273W        W42814  12.167   5.945  14.115
76274W        W42815  36.627  19.741  12.040
76275W        W42816  13.460  44.426  10.804
76276W        W42817  26.531  17.069   5.027
76277W        W42818   9.881  26.137   2.179
76278W        W42819  24.915   4.178   2.365
76279W        W42820  34.354  35.069  11.463
76280W        W42821   7.123  28.108  13.991
76281W        W42822  27.000  22.791   1.453
76282W        W42823  39.568   3.069  13.361
76283W        W42824  42.858  18.070   1.335
76284W        W42825  34.517   5.630  13.989
76285W        W42826   7.773  44.408   2.682
76286W        W42827  39.832   9.386   1.831
76287W        W42828   2.930  15.732  10.119
76288W        W42829  17.191   9.705  10.638
76289W        W42830  24.098  38.675  12.077
76290W        W42831   6.629   5.924  12.802
76291W        W42832  36.857   1.234  10.742
76292W        W42833  31.483  23.994  12.167
76293W        W42834  31.269  16.506   0.857
76294W        W42835  40.140  26.655   3.744
76295W        W42836  17.538  11.477  11.821
76296W        W42837   3.377  26.238  13.131
76297W        W42838  17.274  32.600  12.154
76298W        W42839  44.283   7.941  12.388
76299W        W42840  20.928  30.665  12.609
76300W        W42841  38.952  20.033   2.447
76301W        W42842  15.141  31.967   4.570
76302W        W42843   3.365  12.428   2.894
76303W        W42844  34.370  41.755  14.775
76304W        W42845  26.453   3.306  13.862
76305W        W42846  38.813  38.635   0.702
76306W        W42847  31.600  39.090   0.280
76307W        W42848  15.292  36.556   4.769
76308W        W42849  23.373  38.507  12.212
76309W        W42850  24.242  35.912   1.718
76310W        W42851   0.369  27.612   1.195
76311W        W42852  35.129  27.091  11.533
76312W        W42853  33.897  33.383   3.620
76313W        W42854  25.051   7.132  12.809
76314W        W42855  34.234  43.898  13.877
76315W        W42856   2.764  43.942  11.975
76316W        W42857   7.773   0.251  13.860
76317W        W42858  42.418  39.893   1.861
76318W        W42859   2.729  31.372  12.855
76319W        W42860  44.557   7.149  10.462
76320W        W42861   9.950  32.649   2.236
76321W        W42862  16.361  19.088  13.882
76322W        W42863   2.846  23.721   2.245
76323W        W42864  43.480  13.218  11.599
76324W        W42865  16.268  38.231  14.216
76325W        W42866  11.661  12.330   0.281
76326W        W42867  32.254  28.977  14.887
76327W        W42868  16.247  36.142  11.569
76328W        W42869  26.136   0.837   4.514
76329W        W42870  14.076  41.591   3.252
76330W        W42871   1.771  42.929   4.663
76331W        W42872  26.870  21.738  11.138
76332W        W42873  20.779  36.989  13.932
76333W        W42874  24.737  33.913  10.971
76334W        W42875  33.545  42.215   3.859
76335W        W42876  43.021  19.079  14.747
76336W        W42877  41.759  30.448   3.699
76337W        W42878  20.747  30.990   5.035
76338W        W42879  18.735  23.511   2.174
76339W        W42880  12.996  38.561  10.940
76340W        W42881  16.563  17.887  12.659
76341W        W42882  15.668  13.579   4.619
76342W        W42883  11.293   9.826   2.663
76343W        W42884  35.360  24.554  14.298
76344W        W42885   1.789   6.389   0.871
76345W        W42886  18.758  30.953   3.530
76346W        W42887  15.749   2.928   3.626
76347W        W42888   1.935  36.656   2.900
76348W        W42889   3.718  20.570  12.930
76349W        W42890  41.821  40.437  14.969
76350W        W42891  20.354   7.647   1.359
76351W        W42892  26.199  38.010   1.223
76352W        W42893  33.071  24.379   0.457
76353W        W42894  13.679  33.114  13.017
76354W        W42895   1.070  25.728   2.699
76355W        W42896  20.151  11.291  12.498
76356W        W42897  15.798  35.656   4.198
76357W        W42898   4.689  31.995   9.746
76358W        W42899  25.927  20.096  11.414
76359W        W42900  23.702  34.880  10.957
76360W        W42901   7.083  17.778  11.691
76361W        W42902  34.837  20.051   2.974
76362W        W42903   0.725  25.580   1.668
76363W        W42904  31.079  30.171  10.695
76364W        W42905  36.584  39.780  14.379
76365W        W42906  25.497   0.507  10.352
76366W        W42907  43.558  31.458  14.244
76367W        W42908   0.110  41.601   0.404
76368W        W42909  38.584   5.714   3.192
76369W        W42910  13.107  18.753  12.015
76370W        W42911   3.972  39.277  14.895
76371W        W42912  44.091  25.894   1.875
76372W        W42913   1.757  33.907   1.333
76373W        W42914   3.759  41.857   4.920
76374W        W42915  33.472  20.102  13.125
76375W        W42916  32.614  36.899  14.408
76376W        W42917  26.526   7.875  12.189
76377W        W42918   2.141  13.134   0.815
76378W        W42919  23.300   5.793   2.603
76379W        W42920  32.156  43.334   1.777
76380W        W42921  13.694  13.226  14.656
76381W        W42922  38.861  40.324  10.740
76382W        W42923  29.968  34.457  14.184
76383W        W42924  30.648  42.822  13.520
76384W        W42925  12.755  36.334   4.571
76385W        W42926  42.286  39.089   2.266
76386W        W42927   6.047   4.377  11.499
76387W        W42928  42.395   3.004  11.643
76388W        W42929  34.873  22.806  14.057
76389W        W42930   3.549   6.119  12.541
76390W        W42931  34.404  20.314  11.130
76391W        W42932   0.675  18.268   4.724
76392W        W42933  12.166  16.328  13.543
76393W        W42934  14.705  20.135  13.858
76394W        W42935  41.307  31.017  13.468
76395W        W42936  18.025  20.250  12.532
76396W        W42937  35.842  36.311   1.816
76397W        W42938  38.162  10.307   4.025
76398W        W42939  35.670  28.198  11.569
76399W        W42940   4.112  42.263  13.490
76400W        W42941  33.540  20.075   1.498
76401W        W42942   1.487  44.332   2.772
76402W        W42943  24.930  28.981  14.116
76403W        W42944  16.707  38.525  14.380
76404W        W42945  28.227   2.292   3.616
76405W        W42946   5.347  38.118  12.181
76406W        W42947  34.577  22.628   0.368
76407W        W42948  13.675  24.527   2.199
76408W        W42949   4.674  14.225  11.213
76409W        W42950  17.849   3.958  11.309
76410W        W42951  43.169  18.280  11.423
76411W        W42952  43.052  22.147  10.646
76412W        W42953  31.712  23.250   0.027
76413W        W42954  38.789  24.096  14.312
76414W        W42955  26.256  13.670   2.771
76415W        W42956  11.690  21.767   3.298
76416W        W42957  27.026  11.119  11.470
76417W        W42958  21.544  31.086  13.011
76418W        W42959  20.927  42.220  10.680
76419W        W42960   4.365  30.993   1.744
76420W        W42961   6.305   0.152   1.910
76421W        W42962  37.882   5.620  10.743
76422W        W42963  24.699  20.135   3.380
76423W        W42964   5.646  39.353   0.504
76424W        W42965  41.369  37.506   1.255
76425W        W42966  22.996  36.930  14.526
76426W        W42967   4.968  32.038  12.997
76427W        W42968  37.550  18.806  11.702
76428W        W42969   5.149  42.400  12.327
76429W        W42970   1.483  43.443  10.763
76430W        W42971   5.169  42.894  12.954
76431W        W42972  35.426  24.695  13.358
76432W        W42973  34.576  31.562  14.805
76433W        W42974  11.156  40.480   2.804
76434W        W42975  13.330  15.755   0.810
76435W        W42976  34.207  21.251   2.013
76436W        W42977  35.881  38.546  13.177
76437W        W42978  11.561  34.532  13.507
76438W        W42979  29.128   8.896  11.109
76439W        W42980  23.525   4.767   1.176
76440W        W42981  13.461  39.300  12.226
76441W        W42982  20.077  16.971  12.918
76442W        W42983   3.718  11.755   4.676
76443W        W42984   4.886  17.319  14.416
76444W        W42985  36.991   3.973   0.732
76445W        W42986  25.146  22.569   0.287
76446W        W42987   8.708   8.219  14.155
76447W        W42988  14.099  42.046   0.113
76448W        W42989   8.333   3.860   3.209
76449W        W42990  38.029  36.918   3.310
76450W        W42991  38.852  40.573  13.466
76451W        W42992  18.177  22.600  12.002
76452W        W42993   7.543  39.267  13.449
76453W        W42994  41.117  24.178   3.741
76454W        W42995  36.437  22.552  14.855
76455W        W42996  19.897   9.368  12.484
76456W        W42997  36.780  42.889  10.967
76457W        W42998   9.841  12.357   2.297
76458W        W42999   7.184  38.593  12.899
76459W        W43000  11.302  41.801   2.526
76460W        W43001  41.653  19.642   4.555
76461W        W43002  38.035   0.704   1.439
76462W        W43003   7.523  25.036  14.645
76463W        W43004  15.123  28.323  13.413
76464W        W43005  26.512  17.173   4.521
76465W        W43006  15.466  33.517  11.690
76466W        W43007  30.657  21.826   2.814
76467W        W43008   0.863   9.340   4.483
76468W        W43009  22.094  21.048   3.164
76469W        W43010  23.628   5.952   0.985
76470W        W43011   5.381  42.156   4.905
76471W        W43012  35.993  13.734   0.398
76472W        W43013  40.424   0.696  14.441
76473W        W43014  26.695  27.679   0.975
76474W        W43015   7.303   0.436   1.845
76475W        W43016  39.437  21.199  10.885
76476W        W43017  18.749  30.442   4.742
76477W        W43018  25.088   8.580   3.313
76478W        W43019  35.734   1.394   0.356
76479W        W43020   6.811   2.192   1.345
76480W        W43021   8.371  31.923  10.690
76481W        W43022  17.991  32.436  14.070
76482W        W43023   4.766  32.140   4.708
76483W        W43024  20.659  19.248   2.789
76484W        W43025  32.190  27.603  11.189
76485W        W43026   8.920  14.027   0.369
76486W        W43027  13.763   2.806  10.629
76487W        W43028  33.553   8.078   0.762
76488W        W43029   7.493  13.622   4.405
76489W        W43030  10.974  32.390   0.876
76490W        W43031   0.080  21.847   2.787
76491W        W43032   0.757  27.504   3.753
76492W        W43033  16.075  33.678   3.680
76493W        W43034  37.874  37.300   5.250
76494W        W43035  25.462  27.118   3.864
76495W        W43036  33.304  11.775  12.149
76496W        W43037  43.020  33.481  12.239
76497W        W43038  11.668  29.139   4.894
76498W        W43039  44.313  28.527   2.260
76499W        W43040  38.470   1.875   3.847
76500W        W43041  38.546  20.260  13.870
76501W        W43042  22.915  28.306   3.318
76502W        W43043  14.864  41.478  10.778
76503W        W43044   4.835  24.407  10.896
76504W        W43045  34.429  42.829   4.202
76505W        W43046  17.173   7.102   3.395
76506W        W43047  24.888   0.491  14.781
76507W        W43048   4.133  39.368   3.856
76508W        W43049  16.284  17.230  14.320
76509W        W43050   5.719  35.548   2.991
76510W        W43051  41.450  31.699  14.267
76511W        W43052  27.442  43.919  13.918
76512W        W43053   4.876  38.615   5.557
76513W        W43054  35.217  44.603  12.306
76514W        W43055  25.734  36.869  13.200
76515W        W43056  34.402  41.081  13.436
76516W        W43057  11.753  17.238   0.206
76517W        W43058   7.939  10.666  12.566
76518W        W43059  22.705  23.675   1.537
76519W        W43060  41.822   9.987  12.158
76520W        W43061  26.477  34.810  14.348
76521W        W43062  26.732  30.062   4.650
76522W        W43063   4.041   0.725   0.438
76523W        W43064  25.767  31.461   0.364
76524W        W43065   9.465  27.203  11.524
76525W        W43066  32.173  11.592   1.752
76526W        W43067  44.935  28.816  12.476
76527W        W43068  13.123  16.016  13.313
76528W        W43069  32.679  16.206   2.239
76529W        W43070   4.065  15.610   0.870
76530W        W43071  43.731  25.642   2.157
76531W        W43072  23.004  26.645  13.034
76532W        W43073  42.866   5.523   3.049
76533W        W43074  41.543  29.667  13.684
76534W        W43075  43.286  39.043   0.352
76535W        W43076   9.742  24.650   0.200
76536W        W43077  22.713  42.319   2.296
76537W        W43078  25.742  39.125   2.003
76538W        W43079   6.201  36.453  13.617
76539W        W43080  12.085  18.454  10.570
76540W        W43081   1.973  10.305  10.343
76541W        W43082  27.447  17.555  11.550
76542W        W43083  26.106  13.423   4.602
76543W        W43084  16.187  16.370  13.335
76544W        W43085  36.399  44.919   3.251
76545W        W43086  24.907   3.816   0.364
76546W        W43087  36.499   1.689  13.806
76547W        W43088  10.860   0.968  14.580
76548W        W43089  33.625   7.277  12.581
76549W        W43090   8.363   9.451   1.736
76550W        W43091  41.035   1.750  14.890
76551W        W43092  34.590   8.257  12.491
76552W        W43093  14.194  13.287   3.752
76553W        W43094  12.270  35.457  10.715
76554W        W43095  44.702  23.980   0.581
76555W        W43096   2.296   6.217   1.140
76556W        W43097  43.409  28.691   0.709
76557W        W43098  22.043  37.977  14.823
76558W        W43099  31.005  10.873   1.057
76559W        W43100  15.680   3.843  11.620
76560W        W43101  39.718  13.390   1.677
76561W        W43102  10.798   6.247  10.748
76562W        W43103  19.819  17.662  14.451
76563W        W43104  27.416   8.472  12.971
76564W        W43105  33.280  10.804   1.381
76565W        W43106  22.501  40.313  12.881
76566W        W43107  19.969   8.076  10.258
76567W        W43108  15.190  11.453  10.573
76568W        W43109  28.926  27.479   2.258
76569W        W43110  43.820  25.128  13.599
76570W        W43111  39.436  11.343  10.279
76571W        W43112  19.017   0.768  12.814
76572W        W43113  39.549  22.579   1.943
76573W        W43114  24.533  35.088   1.350
76574W        W43115  29.397  14.419  10.720
76575W        W43116  17.065   6.389  12.617
76576W        W43117  20.945  41.634  10.866
76577W        W43118  38.827  44.424  10.538
76578W        W43119  21.465   6.754   3.382
76579W        W43120  16.788  22.665  14.339
76580W        W43121  15.087  26.584  12.524
76581W        W43122  44.988  22.571  14.511
76582W        W43123   9.205  33.735  12.396
76583W        W43124   2.444  18.496  12.959
76584W        W43125  21.981  13.465  13.478
76585W        W43126  18.427  26.158  11.227
76586W        W43127   6.474   8.744   0.850
76587W        W43128   7.391  11.368   3.891
76588W        W43129  26.012  21.672  12.541
76589W        W43130  38.874   0.000  14.282
76590W        W43131  39.615  29.114  12.423
76591W        W43132  19.292  27.478  11.525
76592W        W43133  12.124  19.205   4.038
76593W        W43134  34.173  40.414   2.157
76594W        W43135   9.447  35.935  10.349
76595W        W43136  35.234  32.053  13.242
76596W        W43137   0.163  21.742   4.527
76597W        W43138  15.482  44.589   4.213
76598W        W43139  37.841  25.178  11.621
76599W        W43140  23.456  42.686  12.028
76600W        W43141  11.828  19.110   0.518
76601W        W43142  42.973  38.103   1.680
76602W        W43143  12.988  32.137   4.115
76603W        W43144   7.621  26.097   1.427
76604W        W43145  20.287  32.970  11.610
76605W        W43146  14.587  29.038   1.909
76606W        W43147  10.736  26.655  11.230
76607W        W43148  30.089  25.773  10.338
76608W        W43149  19.268  16.693   0.789
76609W        W43150  41.974   9.436  13.552
76610W        W43151  39.307   3.264  12.963
76611W        W43152  29.592  11.683  10.811
76612W        W43153  25.458  31.235   2.177
76613W        W43154  12.851  29.873  11.932
76614W        W43155  14.264  42.361   4.777
76615W        W43156  11.612   5.204   3.280
76616W        W43157  25.492   1.872   4.015
76617W        W43158  26.960  16.131   4.089
76618W        W43159  12.368  44.401  10.759
76619W        W43160  23.524  39.062   2.720
76620W        W43161  41.562  34.029   2.116
76621W        W43162  12.748  37.395  10.461
76622W        W43163  38.918  34.816   0.687
76623W        W43164  26.082  41.810   4.505
76624W        W43165  32.027  14.866  14.464
76625W        W43166  43.934  36.149  12.674
76626W        W43167  43.724  39.389   0.358
76627W        W43168   2.227   3.531  13.141
76628W        W43169   5.189  21.742   3.184
76629W        W43170   9.116  36.055  14.932
76630W        W43171  42.053   8.387  12.825
76631W        W43172  39.184  17.677  12.846
76632W        W43173  25.519  16.722  12.369
76633W        W43174   1.778  28.533  12.810
76634W        W43175  24.253  43.807  12.798
76635W        W43176  27.911  44.362  14.546
76636W        W43177  23.323  30.970   3.262
76637W        W43178   2.345  15.994   0.618
76638W        W43179  27.892   6.511  12.131
76639W        W43180  29.636  22.494   3.391
76640W        W43181  44.736  12.888  11.427
76641W        W43182  40.628   9.119  14.280
76642W        W43183   2.808  22.734   1.351
76643W        W43184  10.587  39.272  14.503
76644W        W43185  28.350   6.013   3.743
76645W        W43186  14.336  20.949   1.228
76646W        W43187  18.290   3.718  11.062
76647W        W43188  41.464  18.499  13.550
76648W        W43189  38.514   0.958  13.368
76649W        W43190  29.964  29.715  11.710
76650W        W43191  36.971  10.893   1.609
76651W        W43192  17.695  16.154  13.041
76652W        W43193  24.739  31.719   0.377
76653W        W43194  10.564  12.379  11.601
76654W        W43195  13.277  14.768  11.628
76655W        W43196  29.422  22.588  12.881
76656W        W43197  13.856  14.767  13.773
76657W        W43198   9.941  27.730  13.531
76658W        W43199  18.202  23.570   2.161
76659W        W43200  20.794  19.956   1.531
76660W        W43201  42.097   0.931   3.665
76661W        W43202   8.248  29.071  12.090
76662W        W43203   5.892  13.596  11.076
76663W        W43204  30.883  11.572   4.221
76664W        W43205  38.382   6.811  12.560
76665W        W43206  37.498  10.873  11.245
76666W        W43207  20.087   9.152  12.049
76667W        W43208  41.852   1.885  11.656
76668W        W43209  32.943  44.372  12.093
76669W        W43210  10.618   9.488   2.352
76670W        W43211   7.464  31.660   1.806
76671W        W43212  26.258  22.716  11.631
76672W        W43213  32.271  20.291   1.844
76673W        W43214  33.652  24.205   2.231
76674W        W43215  34.365  23.575   3.081
76675W        W43216  18.484  18.038  14.282
76676W        W43217  19.315  36.473  13.437
76677W        W43218  33.939  21.621   4.315
76678W        W43219   4.202  42.934   4.513
76679W        W43220   8.645  21.169   0.793
76680W        W43221  35.649  16.598  12.354
76681W        W43222  30.071   5.067   3.745
76682W        W43223  37.861  16.027  12.948
76683W        W43224  14.822  27.631  11.967
76684W        W43225  36.913  39.098   1.163
76685W        W43226   4.172  12.190  14.485
76686W        W43227   2.199  15.453   4.733
76687W        W43228  11.453  26.524   5.002
76688W        W43229  20.545  33.447  11.630
76689W        W43230   4.021  29.647  11.070
76690W        W43231  31.602  27.545  14.736
76691W        W43232  20.335  23.714  12.885
76692W        W43233   1.764  18.623   2.224
76693W        W43234   6.718  33.131   2.851
76694W        W43235   0.541  37.404  14.193
76695W        W43236  37.115  13.838   5.024
76696W        W43237  28.480   9.617  14.772
76697W        W43238  18.641  26.713   9.854
76698W        W43239  18.249  13.800   3.673
76699W        W43240  19.468  40.362   3.184
76700W        W43241  42.911  32.326   2.898
76701W        W43242  12.882  24.942  12.392
76702W        W43243  34.794  31.470   1.852
76703W        W43244  12.382  29.481  14.841
76704W        W43245  36.785  11.836   3.705
76705W        W43246  39.865   8.299  11.492
76706W        W43247  14.164  41.313  11.402
76707W        W43248  13.345  42.343  14.397
76708W        W43249  27.418  20.800   0.052
76709W        W43250  40.221  41.101   0.328
76710W        W43251  28.585  12.781   3.290
76711W        W43252  30.523  42.608  11.678
76712W        W43253  37.913  12.866  10.749
76713W        W43254   4.742  44.839  11.004
76714W        W43255  10.709  12.840  13.272
76715W        W43256  15.790  16.180  12.623
76716W        W43257  35.462   4.156   0.674
76717W        W43258  43.129  15.003   0.886
76718W        W43259  38.896  10.053   1.692
76719W        W43260  27.611   8.739   3.132
76720W        W43261  34.743   6.330  10.597
76721W        W43262  29.735  17.464  11.519
76722W        W43263  20.813  44.410  10.459
76723W        W43264   6.495  26.579  14.424
76724W        W43265  38.918  31.703   0.811
76725W        W43266   2.095  17.678  10.857
76726W        W43267  19.608  37.097   3.163
76727W        W43268   3.257  11.187  14.355
76728W        W43269  13.124  12.065  10.116
76729W        W43270  21.267   4.747  12.549
76730W        W43271  33.647   6.900  11.661
76731W        W43272  16.042  31.630  14.790
76732W        W43273  40.910  33.585  13.264
76733W        W43274   2.821  40.310   2.851
76734W        W43275  25.722  39.478   4.228
76735W        W43276  44.078  16.285  13.063
76736W        W43277  36.251  19.219   3.702
76737W        W43278  33.119   1.198   4.265
76738W        W43279   9.009  14.137   1.314
76739W        W43280  22.565   7.672  14.766
76740W        W43281  39.990  37.243   4.993
76741W        W43282  27.411  40.986   1.854
76742W        W43283  20.354   3.364  13.944
76743W        W43284  29.179  38.442  12.543
76744W        W43285   3.496  18.501   2.391
76745W        W43286  22.906  15.828  13.014
76746W        W43287  23.549   4.246  10.748
76747W        W43288  27.209   9.413  13.067
76748W        W43289  26.080   4.455   0.260
76749W        W43290  30.780  32.117   0.005
76750W        W43291  12.682  10.397  14.455
76751W        W43292   4.203   8.403   4.442
76752W        W43293  14.211   8.007  10.747
76753W        W43294  40.977  43.121  14.527
76754W        W43295   0.466  25.641  11.644
76755W        W43296  29.450  35.662  11.660
76756W        W43297  17.236  16.697  11.301
76757W        W43298   7.276   7.107  10.489
76758W        W43299  43.943  16.741   1.218
76759W        W43300  10.213  39.032  12.985
76760W        W43301   0.527   6.945  10.593
76761W        W43302   1.018  40.610   1.964
76762W        W43303  14.512   8.763   4.498
76763W        W43304  38.902  14.102   3.238
76764W        W43305  25.941  24.149   2.255
76765W        W43306   7.120  29.000   2.700
76766W        W43307  15.637   6.791   0.781
76767W        W43308  23.772  35.460   0.541
76768W        W43309  15.617   9.218  12.841
76769W        W43310  27.470  17.480  12.559
76770W        W43311  30.104  18.462  11.165
76771W        W43312   7.645   9.397  13.400
76772W        W43313  15.591  26.093   5.061
76773W        W43314   4.990  44.773  13.834
76774W        W43315   1.003   4.709  10.615
76775W        W43316  24.128   3.064  12.640
76776W        W43317  10.103   3.101  11.456
76777W        W43318  10.427  16.027   1.723
76778W        W43319  21.284  25.048   0.998
76779W        W43320  31.173   2.211   4.138
76780W        W43321   0.977  10.643  13.460
76781W        W43322  18.899  31.195  11.537
76782W        W43323  44.570  39.608   0.986
76783W        W43324  21.572  31.812  14.147
76784W        W43325  22.974  14.582  12.994
76785W        W43326  19.245   2.077   3.351
76786W        W43327   0.974  23.833  10.145
76787W        W43328  37.632   0.817  12.991
76788W        W43329   3.775  43.046   0.705
76789W        W43330  34.524   6.504  12.468
76790W        W43331  17.120   8.864  10.073
76791W        W43332  39.339  30.112  13.531
76792W        W43333  14.166  35.602   3.257
76793W        W43334  14.831  24.748   4.197
76794W        W43335  41.936   6.449  13.798
76795W        W43336  39.914  33.371  11.359
76796W        W43337  13.031  35.901   0.271
76797W        W43338  38.955  44.982   3.712
76798W        W43339  26.142  40.956  13.772
76799W        W43340   7.471  20.547   0.112
76800W        W43341  41.477  37.742   0.808
76801W        W43342  38.740  44.804  14.751
76802W        W43343   7.774  24.028  10.261
76803W        W43344  26.161   2.333  11.028
76804W        W43345  38.648  28.100   1.864
76805W        W43346  42.688  11.400   1.176
76806W        W43347  21.145  44.633  14.246
76807W        W43348  29.941  10.135  12.539
76808W        W43349  10.379   9.013   2.326
76809W        W43350   5.708   6.374  11.862
76810W        W43351  43.264   1.947  11.660
76811W        W43352  16.091  24.973   2.248
76812W        W43353   7.828   0.016  11.553
76813W        W43354  12.535  43.259   1.824
76814W        W43355   7.613   1.934   1.253
76815W        W43356  24.602   9.755   2.878
76816W        W43357  16.194  36.463   2.000
76817W        W43358  38.895  44.919  12.449
76818W        W43359  20.607  34.907  14.784
76819W        W43360  26.092  43.671  11.196
76820W        W43361   4.028  32.957  12.102
76821W        W43362   7.450  20.477  14.293
76822W        W43363  18.730  27.217  11.029
76823W        W43364  32.667  30.409   1.787
76824W        W43365  13.348  21.519  14.700
76825W        W43366  42.189  12.318   4.232
76826W        W43367   4.728  22.961   4.023
76827W        W43368   0.374  12.702   1.306
76828W        W43369  20.017  35.868  14.363
76829W        W43370  39.862   9.368  10.714
76830W        W43371   0.809  26.254  11.074
76831W        W43372  37.048  17.437  13.414
76832W        W43373   6.016  25.326   1.268
76833W        W43374  14.074   5.059   4.454
76834W        W43375  27.978  25.011   2.566
76835W        W43376  25.971   0.938  14.014
76836W        W43377  44.500  17.358   1.694
76837W        W43378  35.854  37.945  11.544
76838W        W43379  38.739  38.842   1.848
76839W        W43380   2.336  13.249  11.855
76840W        W43381  44.914   0.462  11.222
76841W        W43382   4.151  44.942   0.845
76842W        W43383  25.027  41.000  12.097
76843W        W43384   9.989  11.395  11.065
76844W        W43385  20.322   8.298   0.825
76845W        W43386  17.006   7.796  14.062
76846W        W43387  39.395  24.028   4.576
76847W        W43388   7.482  10.408   1.223
76848W        W43389  27.598  15.997  10.531
76849W        W43390  26.723  31.260  13.833
76850W        W43391   1.774  14.606  12.917
76851W        W43392   5.863  40.377  11.199
76852W        W43393  11.748   1.972   4.491
76853W        W43394  21.879  38.843   1.311
76854W        W43395  43.666   2.319  11.777
76855W        W43396  27.261  12.903   1.724
76856W        W43397  31.964  20.778   4.175
76857W        W43398  18.776  35.665   4.041
76858W        W43399  39.137   3.731  14.926
76859W        W43400  28.090   9.315  13.590
76860W        W43401  15.851   2.065  11.127
76861W        W43402  37.529   7.660  14.763
76862W        W43403  13.069  41.627   5.280
76863W        W43404  37.997  33.486  12.641
76864W        W43405   9.559   9.102  13.112
76865W        W43406  44.278  32.524   4.482
76866W        W43407  16.801  38.749   0.254
76867W        W43408   8.849   8.513  12.360
76868W        W43409  33.880   5.421   3.870
76869W        W43410  19.767  23.419   1.811
76870W        W43411  10.031  29.861   2.794
76871W        W43412   9.913   9.753   3.628
76872W        W43413  27.721  27.406   0.756
76873W        W43414  33.859  31.567   1.886
76874W        W43415  41.338  35.016  10.703
76875W        W43416   3.314  28.487   1.786
76876W        W43417  23.291   8.349  14.974
76877W        W43418  38.280  27.616   0.080
76878W        W43419  21.476  10.666  10.987
76879W        W43420  29.245  11.379   2.972
76880W        W43421  23.732  23.594  10.645
76881W        W43422  14.058  16.209  10.699
76882W        W43423  19.278  21.029   3.628
76883W        W43424  31.281  40.643   0.392
76884W        W43425  18.545   7.771  11.900
76885W        W43426  30.849   9.290   3.588
76886W        W43427  29.932  21.627  13.762
76887W        W43428   7.725  12.697  13.407
76888W        W43429  43.854  41.974  12.449
76889W        W43430  25.168   7.821   2.408
76890W        W43431   6.401  39.522   3.771
76891W        W43432   3.356  21.106   3.025
76892W        W43433  43.472  35.720  11.193
76893W        W43434   3.353  33.621   2.069
76894W        W43435  21.609   4.806   5.454
76895W        W43436  29.101  28.905  11.545
76896W        W43437  35.494  14.198   1.764
76897W        W43438  35.098  34.407   3.657
76898W        W43439  20.315  18.051  12.050
76899W        W43440  23.615  40.015  14.489
76900W        W43441  20.200  11.187   0.641
76901W        W43442  40.955  33.108  11.530
76902W        W43443  35.666  44.944   2.491
76903W        W43444  36.952  18.784  14.854
76904W        W43445  34.032  43.244  14.462
76905W        W43446  17.387  10.749   2.203
76906W        W43447  19.169   3.591   4.398
76907W        W43448  44.573  11.347   1.354
76908W        W43449  19.728  36.115   3.787
76909W        W43450  36.390  17.642   0.914
76910W        W43451  44.178  30.327   4.445
76911W        W43452  43.750  14.985   1.600
76912W        W43453  23.527  19.598  13.980
76913W        W43454  25.254  42.481   0.221
76914W        W43455  18.988  34.125   0.254
76915W        W43456  26.527   8.421   4.241
76916W        W43457  26.435  15.709  11.955
76917W        W43458  36.014  12.041  10.676
76918W        W43459  19.826  32.649  11.653
76919W        W43460  25.028  25.650  13.021
76920W        W43461  19.307  11.094  13.319
76921W        W43462   3.943  43.351  12.195
76922W        W43463   9.169  20.531  14.600
76923W        W43464  10.419  20.728  14.893
76924W        W43465   5.170  31.890  13.586
76925W        W43466  22.126   7.671  12.249
76926W        W43467  44.874   8.862  11.202
76927W        W43468  32.535  29.582   0.874
76928W        W43469  16.095   6.463   4.127
76929W        W43470   3.478  44.357  14.086
76930W        W43471   0.315  22.187  13.881
76931W        W43472  19.751  12.055   3.241
76932W        W43473   5.705  11.745  10.767
76933W        W43474  43.227  43.971  13.461
76934W        W43475  21.046   4.612  12.100
76935W        W43476  31.203  39.536  13.352
76936W        W43477  35.262  12.050  12.019
76937W        W43478   2.709  35.042  12.028
76938W        W43479  13.146  12.940  10.301
76939W        W43480  15.586  28.738   2.739
76940W        W43481  21.435  33.917   1.245
76941W        W43482  41.185  19.439   4.355
76942W        W43483  44.421  10.390   4.103
76943W        W43484  37.471  23.184   2.268
76944W        W43485  44.477  26.866  12.476
76945W        W43486  36.570   8.972  11.411
76946W        W43487  11.417   1.842   2.572
76947W        W43488  29.171  42.924  12.332
76948W        W43489  17.984   0.831  12.023
76949W        W43490  44.234  41.379  12.803
76950W        W43491  23.776   8.437   4.922
76951W        W43492  21.272   2.047  10.332
76952W        W43493   4.299  26.570   2.790
76953W        W43494   8.282  10.181   2.424
76954W        W43495  39.796  42.421  11.169
76955W        W43496  38.737  20.549  14.330
76956W        W43497  41.397  11.736   3.283
76957W        W43498   2.865  20.621  12.618
76958W        W43499   0.420  25.046  14.043
76959W        W43500  10.781   0.338  11.364
76960W        W43501  41.412  21.721   1.400
76961W        W43502  42.471  26.690   1.833
76962W        W43503   6.298  12.322  12.060
76963W        W43504  36.333  14.648  10.660
76964W        W43505  39.045  33.684  14.390
76965W        W43506  11.052  29.168  13.006
76966W        W43507  40.975  21.751   3.919
76967W        W43508  30.223  41.313   0.718
76968W        W43509   4.377  31.405  13.927
76969W        W43510  14.148  40.515   4.748
76970W        W43511  17.073  17.455   0.741
76971W        W43512  34.701  43.710   4.228
76972W        W43513  35.337  31.972   2.406
76973W        W43514  13.292  26.554  10.320
76974W        W43515   6.332  11.967   4.456
76975W        W43516  29.185  22.840   2.744
76976W        W43517  21.032  32.544  11.400
76977W        W43518  23.222  26.430   1.422
76978W        W43519  27.658  15.357  12.445
76979W        W43520   2.586  28.502  14.818
76980W        W43521  41.486  17.763  12.853
76981W        W43522  31.431   5.996   3.558
76982W        W43523  16.991   9.730  14.838
76983W        W43524   1.960  12.913   0.363
76984W        W43525  25.581  35.070   1.450
76985W        W43526  37.502  12.688   3.635
76986W        W43527  12.145   5.200  10.292
76987W        W43528   2.796  34.269  11.758
76988W        W43529  25.331   8.607  14.502
76989W        W43530  38.568  18.361  10.742
76990W        W43531  38.787  15.325  11.133
76991W        W43532  41.371  40.525   3.564
76992W        W43533  37.314  32.496   2.416
76993W        W43534  34.928  12.594  12.419
76994W        W43535   0.818  38.285  13.355
76995W        W43536  24.709  11.074   2.043
76996W        W43537  12.008  44.808   2.177
76997W        W43538   4.223  22.219   1.692
76998W        W43539  29.708   7.665  13.655
76999W        W43540   6.010  19.191   2.587
77000W        W43541  30.189  10.971  14.350
77001W        W43542   0.460  36.882  12.083
77002W        W43543  13.225  28.162  14.270
77003W        W43544  40.583  38.585  12.089
77004W        W43545  20.708   3.755   1.907
77005W        W43546   7.713  10.634  14.502
77006W        W43547  36.917  34.520  10.956
77007W        W43548  26.576  33.944   0.413
77008W        W43549  41.991  13.828  13.382
77009W        W43550   9.718  36.233   0.504
77010W        W43551   6.357  31.004   1.625
77011W        W43552  10.794   0.789   1.100
77012W        W43553  44.780   1.250   4.828
77013W        W43554   4.641   7.117   4.638
77014W        W43555  36.767  23.141  13.514
77015W        W43556  32.717   3.402   3.231
77016W        W43557  42.789  39.994  10.992
77017W        W43558  19.802   8.452   2.388
77018W        W43559  22.044  26.745  13.854
77019W        W43560   4.028  22.644  11.541
77020W        W43561  27.616  14.735  11.061
77021W        W43562   6.654  41.026  12.507
77022W        W43563  30.489  17.370  14.950
77023W        W43564  25.968  44.003   1.207
77024W        W43565   5.811  31.416  11.554
77025W        W43566  22.141  10.751  12.084
77026W        W43567  37.917  23.155   3.621
77027W        W43568  14.838  32.891  11.237
77028W        W43569  23.485  31.973  13.836
77029W        W43570  30.466  26.006  13.304
77030W        W43571  40.737  39.576  13.390
77031W        W43572   2.468  41.952  14.317
77032W        W43573  31.671  22.532   3.223
77033W        W43574  21.988  15.295   9.794
77034W        W43575  34.802  15.738  12.410
77035W        W43576  44.882   9.376  11.625
77036W        W43577  30.011  16.864  12.818
77037W        W43578  30.565  41.255   2.319
77038W        W43579  25.910  25.574   2.238
77039W        W43580  22.955  18.261  12.725
77040W        W43581  39.533  44.508   2.500
77041W        W43582  26.617  19.120   4.264
77042W        W43583  16.095  31.581  13.407
77043W        W43584  36.879  19.535   0.963
77044W        W43585   6.683  28.961   1.268
77045W        W43586  33.621  16.754   1.014
77046W        W43587  23.689  43.414   3.538
77047W        W43588  29.561  13.794  11.515
77048W        W43589  22.613  36.386  12.931
77049W        W43590  42.007   2.262   4.756
77050W        W43591  38.086  29.425  14.749
77051W        W43592  28.361  23.359   4.791
77052W        W43593   2.936  27.695   2.889
77053W        W43594  33.150  24.150   3.347
77054W        W43595  30.653  10.642  12.920
77055W        W43596  35.932  17.388   0.865
77056W        W43597   2.257   8.763  10.763
77057W        W43598  15.415  43.471   3.745
77058W        W43599   7.028  24.702   3.642
77059W        W43600  32.695  40.169   0.567
77060W        W43601  28.638  31.730   0.440
77061W        W43602  24.423   9.944  13.050
77062W        W43603  43.711  33.109  13.513
77063W        W43604  39.890   9.156  12.436
77064W        W43605  14.603   9.954   1.837
77065W        W43606  12.375  38.903   4.114
77066W        W43607   3.261   4.782   0.975
77067W        W43608  22.066  24.957   4.551
77068W        W43609  20.314  25.014  12.534
77069W        W43610  10.225  42.476   2.400
77070W        W43611  41.098  21.612  13.998
77071W        W43612  11.123   1.793   0.449
77072W        W43613   0.164  11.561  13.453
77073W        W43614  31.976  30.067  12.874
77074W        W43615  40.937  23.043  14.015
77075W        W43616  26.627  26.706  12.617
77076W        W43617  39.268   5.816   0.265
77077W        W43618  32.664  16.666   1.020
77078W        W43619   0.779  30.691  12.915
77079W        W43620   1.882  32.925  10.307
77080W        W43621  31.507  12.378  12.639
77081W        W43622   8.779  28.007  13.654
77082W        W43623  36.905   3.881  12.000
77083W        W43624   8.386  34.359  10.812
77084W        W43625  23.821  42.257  11.957
77085W        W43626  24.254  36.003   4.260
77086W        W43627  44.382  17.476   0.664
77087W        W43628  38.134  17.303   5.149
77088W        W43629  43.737  44.862   0.741
77089W        W43630  27.970   8.493   0.208
77090W        W43631  38.021  39.687  12.938
77091W        W43632  29.169  10.119  14.408
77092W        W43633   9.906   0.423   4.077
77093W        W43634  15.799   7.973  13.757
77094W        W43635  42.539  21.132  10.077
77095W        W43636  25.748  16.599  11.900
77096W        W43637  31.116  41.605   1.682
77097W        W43638  29.661  26.093  14.900
77098W        W43639  38.831  38.950   3.654
77099W        W43640  36.268  33.656  10.925
77100W        W43641   5.930  21.049  11.678
77101W        W43642  10.771  21.245   3.480
77102W        W43643   1.696  38.290  10.836
77103W        W43644  33.078   2.969   1.239
77104W        W43645   3.742  29.399  14.102
77105W        W43646   1.151  34.248  10.800
77106W        W43647  26.384  12.802   4.544
77107W        W43648  37.396  22.435  12.594
77108W        W43649   3.629  37.050   1.110
77109W        W43650  18.663  28.427   3.695
77110W        W43651  18.752  32.978  13.186
77111W        W43652  36.131  15.500   2.205
77112W        W43653   5.051  34.308  13.726
77113W        W43654  20.015   6.732  13.376
77114W        W43655  42.037  13.165   4.221
77115W        W43656  18.322   5.203  14.017
77116W        W43657  16.197  20.746  14.982
77117W        W43658  27.109  16.663   3.183
77118W        W43659  22.179  41.305   4.192
77119W        W43660  29.585  30.334   4.961
77120W        W43661   9.952  30.345   3.731
77121W        W43662  11.250   6.893  14.258
77122W        W43663  21.230  25.085   3.271
77123W        W43664  39.255  15.044   5.080
77124W        W43665   9.343  38.494  13.205
77125W        W43666  43.255  33.670   2.707
77126W        W43667  26.655  28.563  12.437
77127W        W43668   7.945   8.177  12.478
77128W        W43669  36.561   0.265   4.520
77129W        W43670  34.821  42.504  14.441
77130W        W43671   3.130  33.950  13.769
77131W        W43672  36.011   4.495  13.931
77132W        W43673  37.381   2.662   1.631
77133W        W43674  16.179  37.441   0.319
77134W        W43675  39.748  18.310   1.382
77135W        W43676  12.150  22.173   1.218
77136W        W43677  33.858  26.939  10.793
77137W        W43678  40.657  37.696   1.883
77138W        W43679  34.790  18.308  14.408
77139W        W43680   9.862   9.064  11.046
77140W        W43681  33.971  28.754  13.148
77141W        W43682  10.544  13.276   3.471
77142W        W43683  35.100  28.647  10.550
77143W        W43684  32.595  35.005  13.051
77144W        W43685   7.074  14.787  14.429
77145W        W43686  12.175  11.332   1.023
77146W        W43687  28.582   2.367   1.182
77147W        W43688  15.650  33.518   0.293
77148W        W43689  11.730  33.578   0.571
77149W        W43690  38.619  20.225  12.134
77150W        W43691  28.987  35.898  11.702
77151W        W43692  37.923   2.353   5.823
77152W        W43693   0.481  11.722  13.853
77153W        W43694   4.893  43.559  12.425
77154W        W43695  38.871   3.857  13.436
77155W        W43696   4.326  37.360   1.714
77156W        W43697  35.242  25.639   1.621
77157W        W43698  43.349  41.947  14.579
77158W        W43699   3.285  39.573  13.512
77159W        W43700  12.850  18.714   3.743
77160W        W43701   6.455   3.821  13.556
77161W        W43702  12.796  21.107   1.509
77162W        W43703  42.077  34.051  13.014
77163W        W43704  35.905  38.036  10.683
77164W        W43705   2.353  23.474  12.098
77165W        W43706  12.084  24.641  13.917
77166W        W43707  25.350  40.227   2.152
77167W        W43708  40.914   4.231   4.110
77168W        W43709  40.277  43.832  12.595
77169W        W43710  42.291  36.495  12.661
77170W        W43711  19.540  17.316   2.630
77171W        W43712  36.551   0.698   0.422
77172W        W43713  10.166   1.195   4.451
77173W        W43714  19.006   4.716  10.645
77174W        W43715  17.510   8.340  12.968
77175W        W43716   0.476  28.923   4.105
77176W        W43717  27.443  29.485   0.532
77177W        W43718  13.308  10.292  11.046
77178W        W43719  31.168   0.273  12.425
77179W        W43720   1.375  36.611  14.880
77180W        W43721  10.761  27.806  14.772
77181W        W43722   8.835  30.711  12.962
77182W        W43723  10.344  35.092  14.447
77183W        W43724  11.302  41.288   4.583
77184W        W43725  18.710  11.768  11.798
77185W        W43726  41.887  41.783   2.322
77186W        W43727  16.846  19.818   4.508
77187W        W43728  11.661  39.584   4.904
77188W        W43729  26.033  31.350  10.591
77189W        W43730  10.656  17.555   3.415
77190W        W43731  25.476  38.207   4.617
77191W        W43732   0.676  42.860   4.622
77192W        W43733  23.774   7.359   0.895
77193W        W43734  44.963   4.322   2.231
77194W        W43735   2.771  27.369  12.861
77195W        W43736  35.545  31.912  11.743
77196W        W43737  33.013  16.063  11.572
77197W        W43738  19.483  41.766   2.281
77198W        W43739   3.470  36.783  13.794
77199W        W43740   0.298  34.838  11.604
77200W        W43741  14.746  20.321  14.805
77201W        W43742  44.803  44.964  10.794
77202W        W43743  32.090   5.079   5.013
77203W        W43744  23.234   3.080  12.498
77204W        W43745  26.953  43.814   2.000
77205W        W43746  39.906   8.601   3.669
77206W        W43747  41.514  12.870   2.691
77207W        W43748  33.428  27.483   3.323
77208W        W43749   5.673   4.988  11.930
77209W        W43750   7.877  34.389  13.584
77210W        W43751  20.320  33.919  11.509
77211W        W43752  11.654  10.268  11.970
77212W        W43753  32.868  38.475  11.458
77213W        W43754  29.228  21.664  12.695
77214W        W43755   7.149  18.647  14.925
77215W        W43756  26.250   9.762   0.997
77216W        W43757  24.246   1.789   1.316
77217W        W43758  24.440  28.596   4.959
77218W        W43759  14.852  44.239   1.776
77219W        W43760  25.985   4.208  11.213
77220W        W43761  23.222  21.146  12.507
77221W        W43762   9.063   4.624   3.898
77222W        W43763  39.259   4.777  13.302
77223W        W43764   4.709  37.056  11.052
77224W        W43765  26.989   6.381  12.972
77225W        W43766  39.791  17.182  13.926
77226W        W43767  44.169  19.533  10.897
77227W        W43768  22.891   3.156  13.782
77228W        W43769  20.298  40.835   1.247
77229W        W43770   9.323  35.606  13.869
77230W        W43771   3.890   3.394   0.757
77231W        W43772  12.691  18.734   0.940
77232W        W43773  25.757  19.722  12.750
77233W        W43774  19.954  19.785   3.079
77234W        W43775  16.200  40.135  14.858
77235W        W43776  14.271   2.423   1.860
77236W        W43777  10.925  14.023  10.687
77237W        W43778   7.959   5.458  11.156
77238W        W43779   6.745   5.527   0.766
77239W        W43780  19.593  24.051  14.511
77240W        W43781  39.348  34.354   3.103
77241W        W43782   9.040   5.332  14.527
77242W        W43783  15.921  43.346  11.456
77243W        W43784  13.706  28.942  14.463
77244W        W43785  36.052  32.001  10.420
77245W        W43786   2.240  24.577  14.560
77246W        W43787   5.851  25.778   2.840
77247W        W43788  14.121  34.614  14.861
77248W        W43789  19.165  40.391   4.124
77249W        W43790  44.751  21.157   3.257
77250W        W43791   6.101  21.899   3.209
77251W        W43792  24.991   7.221   0.275
77252W        W43793   3.527  15.347  14.704
77253W        W43794   6.188  36.905  11.395
77254W        W43795   9.146  21.110  11.072
77255W        W43796  13.396   9.322   1.181
77256W        W43797  25.473  26.155   0.742
77257W        W43798  37.997   1.681   1.561
77258W        W43799  26.071  11.319  12.752
77259W        W43800  18.642  29.082  10.629
77260W        W43801  19.508  25.785   0.119
77261W        W43802  21.272  15.468   1.869
77262W        W43803   7.687  17.046  14.474
77263W        W43804   5.585  41.972  13.066
77264W        W43805  12.938  20.817  11.132
77265W        W43806  18.970   4.568  13.673
77266W        W43807  12.711   1.733  10.751
77267W        W43808  39.850  30.494  11.475
77268W        W43809  36.051  28.463   3.188
77269W        W43810  27.434  15.118   0.783
77270W        W43811  33.458   1.281   2.681
77271W        W43812  21.846  28.686  12.054
77272W        W43813  17.528  24.988  12.586
77273W        W43814   4.332  19.430   0.065
77274W        W43815  21.829   3.399  14.098
77275W        W43816  26.607  28.173   3.086
77276W        W43817   7.983   4.351   2.150
77277W        W43818   6.156  17.993   2.274
77278W        W43819  43.795  43.995  14.777
77279W        W43820  29.464  33.395   2.283
77280W        W43821  35.525  40.084   2.747
77281W        W43822  42.027  10.756   2.368
77282W        W43823  23.419  11.756   1.447
77283W        W43824  44.654  18.068  11.902
77284W        W43825  40.830   0.400  11.585
77285W        W43826  22.160   0.272   0.892
77286W        W43827  39.022   1.981   4.977
77287W        W43828  37.640  12.748   0.389
77288W        W43829  24.144  23.196  12.624
77289W        W43830  40.911  20.414  14.840
77290W        W43831  35.559  16.803   0.726
77291W        W43832  42.764  36.186  14.340
77292W        W43833  24.069  11.654   0.268
77293W        W43834  25.331  39.669   3.941
77294W        W43835  32.054  16.994   1.568
77295W        W43836  13.395  39.143  13.138
77296W        W43837  17.180   1.096   4.570
77297W        W43838  44.366  24.590  14.792
77298W        W43839   5.477  29.181  14.367
77299W        W43840  20.286   9.900   3.287
77300W        W43841  27.756  23.061   0.493
77301W        W43842  30.188  17.760   2.496
77302W        W43843   2.713  21.674  11.149
77303W        W43844  15.069  31.407   0.965
77304W        W43845  27.378  11.861   3.336
77305W        W43846  42.034  39.542   1.889
77306W        W43847  38.038   9.873   2.346
77307W        W43848  20.086  23.681   3.116
77308W        W43849  24.354  41.109   0.811
77309W        W43850  37.317  20.993   1.403
77310W        W43851  44.017  43.771   1.915
77311W        W43852  42.221  17.259   2.908
77312W        W43853  28.057   9.862   1.259
77313W        W43854  24.817   7.216  11.572
77314W        W43855  10.746  42.551   3.665
77315W        W43856  41.781  26.651  10.697
77316W        W43857  40.559  30.946   1.339
77317W        W43858  21.591  17.243   3.518
77318W        W43859  34.299   9.639   1.674
77319W        W43860  29.611  19.584   2.109
77320W        W43861  40.714  44.155  14.686
77321W        W43862  29.234  26.996  11.899
77322W        W43863  44.520  33.683   1.870
77323W        W43864  36.013  16.588   2.356
77324W        W43865   1.743  26.459  11.577
77325W        W43866  33.598   4.457   4.028
77326W        W43867   3.670   3.692  11.019
77327W        W43868  11.965  32.046  14.005
77328W        W43869  31.516  23.421  14.204
77329W        W43870  20.627  12.720   1.004
77330W        W43871   7.165  43.213   0.402
77331W        W43872  27.009  23.522  12.833
77332W        W43873   4.520  33.576   4.287
77333W        W43874  12.426  15.893  13.045
77334W        W43875  15.784  32.174   1.852
77335W        W43876  21.660   9.415  10.898
77336W        W43877   5.066   1.811  13.036
77337W        W43878   9.216  35.251   1.228
77338W        W43879  27.083  37.239  14.278
77339W        W43880  30.844  14.101   2.951
77340W        W43881  23.552  42.958   3.334
77341W        W43882  11.221   3.777  10.416
77342W        W43883  43.464   7.885  14.768
77343W        W43884   6.823  25.948  12.926
77344W        W43885  34.094  19.867   3.246
77345W        W43886   2.509  35.973  13.856
77346W        W43887   5.995   0.769  13.956
77347W        W43888   7.478  43.792  13.520
77348W        W43889  16.834  22.514  12.064
77349W        W43890  27.161  43.311   4.310
77350W        W43891  13.241  42.001   1.260
77351W        W43892   8.126   8.338   2.254
77352W        W43893  31.090  10.338  12.104
77353W        W43894  17.494  11.541  14.617
77354W        W43895  33.942  37.807  13.068
77355W        W43896  19.140  21.826   2.789
77356W        W43897  20.242   6.059  12.043
77357W        W43898  43.457   8.394   3.092
77358W        W43899  38.343  11.167   4.302
77359W        W43900  16.723   5.962   4.221
77360W        W43901  15.659   4.684  11.111
77361W        W43902  34.407   5.783  13.061
77362W        W43903  13.365  22.280   1.277
77363W        W43904  42.940  42.338   1.228
77364W        W43905  36.026  28.394   2.095
77365W        W43906   3.408   9.568  14.325
77366W        W43907  43.683  14.700   3.629
77367W        W43908   5.815  23.442   0.728
77368W        W43909  26.189   2.550   0.046
77369W        W43910  20.528  11.511  13.354
77370W        W43911   1.005  25.498  13.883
77371W        W43912  31.117  17.444   1.094
77372W        W43913  34.471  36.360   4.165
77373W        W43914  30.182   3.529  11.904
77374W        W43915  44.194   8.101   2.176
77375W        W43916  33.472  37.422   1.778
77376W        W43917  26.500  22.987  13.508
77377W        W43918  42.413  23.575   2.319
77378W        W43919   3.403  27.442  12.588
77379W        W43920   6.284   8.292   4.132
77380W        W43921  43.933   4.396  14.585
77381W        W43922   2.807   9.347  11.239
77382W        W43923   5.087   2.976   3.139
77383W        W43924  12.558   0.649  11.878
77384W        W43925  43.614  29.190   5.046
77385W        W43926  35.586   2.056   1.515
77386W        W43927  27.956  27.618  11.606
77387W        W43928  30.945  23.846  11.243
77388W        W43929  13.421   5.326  12.453
77389W        W43930  38.564   5.329  12.136
77390W        W43931  29.596  36.157   0.977
77391W        W43932  38.132  26.818   0.381
77392W        W43933  38.916   0.745   1.236
77393W        W43934  10.858   9.461   0.038
77394W        W43935   9.306  24.918   0.241
77395W        W43936   9.582  29.479  13.579
77396W        W43937  42.306  20.868   4.615
77397W        W43938  42.453  44.664   0.560
77398W        W43939   3.156   6.717  13.119
77399W        W43940  34.848  35.314  11.331
77400W        W43941  36.387  37.949  11.596
77401W        W43942  24.209   7.945   1.779
77402W        W43943  37.890  39.144   1.892
77403W        W43944  36.322   4.801   3.102
77404W        W43945  22.583  34.132  14.134
77405W        W43946   0.778  15.834  10.610
77406W        W43947  42.373  37.965   0.317
77407W        W43948  42.016  44.752  11.394
77408W        W43949  38.689  16.192   3.874
77409W        W43950  19.556  40.947  10.331
77410W        W43951  11.351  27.286  12.970
77411W        W43952   4.660   4.777   4.076
77412W        W43953  21.098  30.533   3.739
77413W        W43954  41.751  16.548  14.041
77414W        W43955  32.684   7.448  14.948
77415W        W43956  31.998  42.519  13.573
77416W        W43957   6.638  32.246   4.205
77417W        W43958   1.182  39.681   0.408
77418W        W43959  23.875  44.155  11.925
77419W        W43960  15.461   5.671   3.261
77420W        W43961  10.393  10.115  10.443
77421W        W43962  18.747  35.527  11.501
77422W        W43963  33.040   4.267   2.597
77423W        W43964  35.540  42.487  10.503
77424W        W43965  13.250  37.138   4.793
77425W        W43966   3.801  27.700  12.811
77426W        W43967  43.429  15.486  10.659
77427W        W43968  17.876  25.089   3.137
77428W        W43969  36.298  41.468  11.158
77429W        W43970  15.756  37.233  12.116
77430W        W43971  18.674  11.286  14.081
77431W        W43972  44.683  27.139   2.520
77432W        W43973  10.649  27.875  12.982
77433W        W43974  23.191  30.745  13.916
77434W        W43975  14.696   1.092   3.311
77435W        W43976  25.380  27.081  11.930
77436W        W43977  40.023  41.458   4.335
77437W        W43978  19.745  14.306   2.296
77438W        W43979   3.342   5.422   5.029
77439W        W43980  23.523  27.459   2.385
77440W        W43981   5.366  24.804   1.702
77441W        W43982  22.858  23.941  11.558
77442W        W43983   2.759  11.306  14.464
77443W        W43984  26.169  40.427   1.738
77444W        W43985  18.586  25.842  12.281
77445W        W43986  11.705  36.515   4.570
77446W        W43987  26.171  37.972   4.075
77447W        W43988   4.379  37.051   3.862
77448W        W43989  31.711   8.243   2.358
77449W        W43990  12.614  31.465   4.618
77450W        W43991  28.472  13.364   4.161
77451W        W43992  37.949  29.603   1.188
77452W        W43993  33.125   0.894  11.601
77453W        W43994  34.370  28.988   4.615
77454W        W43995   7.660  37.912   3.140
77455W        W43996  23.766   1.812  10.336
77456W        W43997   8.525  16.983   2.639
77457W        W43998  42.590  15.577   3.418
77458W        W43999   1.043  35.393  12.195
77459W        W44000  32.480  30.455   0.672
77460W        W44001  14.761  15.495   0.757
77461W        W44002  18.196  19.526  13.935
77462W        W44003  18.537  44.865   2.659
77463W        W44004  11.905  35.953  13.546
77464W        W44005  26.936  22.706  13.483
77465W        W44006  43.871  11.262  12.887
77466W        W44007   4.602   3.118   3.196
77467W        W44008  26.415   5.028  12.472
77468W        W44009  36.494  37.400   3.718
77469W        W44010  10.227  31.303  14.252
77470W        W44011  26.422  30.334  13.132
77471W        W44012   3.768  10.762   3.262
77472W        W44013   4.991  26.023  11.118
77473W        W44014  18.998  19.551  14.414
77474W        W44015   0.963  37.447  14.499
77475W        W44016  26.022  42.947  10.691
77476W        W44017  10.963  26.222  11.418
77477W        W44018  30.920  16.325   3.656
77478W        W44019  22.202  14.984   5.443
77479W        W44020  35.430  25.936   4.504
77480W        W44021   8.232  23.534  13.970
77481W        W44022  12.418  13.581   1.649
77482W        W44023  39.496  17.076  12.031
77483W        W44024  18.726   7.905  13.380
77484W        W44025  10.645  24.551  12.115
77485W        W44026   9.492  41.574  13.400
77486W        W44027   5.109   8.704  11.189
77487W        W44028   0.860   8.179  13.203
77488W        W44029  12.646  34.438  10.887
77489W        W44030  22.369   8.220   1.917
77490W        W44031  39.059  23.407   0.838
77491W        W44032  39.534  36.121   2.555
77492W        W44033  42.470  12.887  14.328
77493W        W44034   9.907   1.712   3.094
77494W        W44035  36.138  39.028   2.283
77495W        W44036   7.775  43.300   3.626
77496W        W44037  19.014  31.453  10.711
77497W        W44038  15.398  13.050   4.065
77498W        W44039  26.211  20.693  14.589
77499W        W44040   0.684  20.327   0.394
77500W        W44041   2.668  28.324   4.538
77501W        W44042  29.892  22.036  13.439
77502W        W44043  21.716  41.030   0.411
77503W        W44044  17.847  12.348  12.015
77504W        W44045  24.637  35.093   0.458
77505W        W44046  32.191  32.115   0.540
77506W        W44047  17.565  40.270  14.404
77507W        W44048   8.663  31.637   4.306
77508W        W44049   1.942  31.830   2.158
77509W        W44050   9.306  41.835   4.608
77510W        W44051   8.149  15.366  11.615
77511W        W44052   3.441  12.089   3.353
77512W        W44053  19.279   4.196  14.504
77513W        W44054  31.691  14.983   2.139
77514W        W44055  32.185   3.267  13.083
77515W        W44056  39.749  25.199   0.864
77516W        W44057  28.673  14.370  14.700
77517W        W44058  19.625  37.404   4.172
77518W        W44059  36.143  18.180   2.480
77519W        W44060  39.253  27.468   1.455
77520W        W44061  43.530   3.524  12.970
77521W        W44062   4.660  12.187   2.162
77522W        W44063  25.162  42.369  13.371
77523W        W44064  32.660  38.834   4.599
77524W        W44065   4.367  21.077   3.226
77525W        W44066  15.330  11.218   3.573
77526W        W44067  39.687  40.067  11.158
77527W        W44068  43.895   3.942   3.789
77528W        W44069  36.186  41.551   3.115
77529W        W44070  10.763  11.157  12.415
77530W        W44071  32.164  24.725   4.188
77531W        W44072   9.111  44.477   4.650
77532W        W44073  43.888  24.167  13.572
77533W        W44074  12.192  19.147  13.699
77534W        W44075   4.980  43.532   5.243
77535W        W44076   6.657  17.165   3.111
77536W        W44077   1.422  41.045   3.152
77537W        W44078  14.113  21.661  14.534
77538W        W44079  40.674   6.957   4.092
77539W        W44080  22.127  34.347  13.959
77540W        W44081  36.888   9.503  13.048
77541W        W44082  40.992  27.517  14.004
77542W        W44083  39.903  32.908   0.766
77543W        W44084   1.327  38.981  13.595
77544W        W44085   4.469  26.516  14.442
77545W        W44086   2.320  27.508   1.394
77546W        W44087  11.135  42.946  10.722
77547W        W44088   3.684  32.814   2.266
77548W        W44089   2.329  17.592  12.972
77549W        W44090  37.951   9.492  10.582
77550W        W44091  17.219  26.132   2.278
77551W        W44092  25.660   1.316   2.223
77552W        W44093  27.986  29.531   0.753
77553W        W44094  34.174  34.832  11.943
77554W        W44095  22.558  11.356   1.734
77555W        W44096  15.327  44.772   3.342
77556W        W44097  41.940   6.917   2.319
77557W        W44098  15.025   8.733   1.898
77558W        W44099  38.056  21.031   0.731
77559W        W44100  17.264  11.807  11.543
77560W        W44101  18.377  44.385  14.528
77561W        W44102  31.502  41.248  13.146
77562W        W44103  35.875   5.858  11.005
77563W        W44104   8.037  22.589  13.456
77564W        W44105  15.367   9.087  13.267
77565W        W44106  44.797  34.637   4.548
77566W        W44107  28.497  23.529  13.955
77567W        W44108  22.495  34.105   0.648
77568W        W44109  27.674  12.752  11.894
77569W        W44110  13.414  31.204   3.989
77570W        W44111  42.526   4.056   3.545
77571W        W44112  21.075  30.903   1.879
77572W        W44113  21.041  15.610  13.955
77573W        W44114  25.448   1.293   2.717
77574W        W44115  37.021  14.407   1.289
77575W        W44116  41.417   3.500   2.180
77576W        W44117   7.057  35.922  11.860
77577W        W44118  41.730  21.478  12.709
77578W        W44119   9.084  12.789   4.620
77579W        W44120  32.958   8.862  12.379
77580W        W44121  39.266  44.680   0.795
77581W        W44122  26.386  32.949   3.825
77582W        W44123  11.246  21.794  11.118
77583W        W44124  41.290  32.260  12.919
77584W        W44125  43.409  22.655  13.480
77585W        W44126  42.429  23.037   1.193
77586W        W44127   9.635  37.696   3.126
77587W        W44128  23.685  39.019   3.732
77588W        W44129  11.264  39.907  14.492
77589W        W44130  42.852   5.199   3.446
77590W        W44131   0.319  23.214   0.271
77591W        W44132  22.155   9.617   1.454
77592W        W44133  36.869   5.160   1.390
77593W        W44134  13.806  34.030  10.619
77594W        W44135  40.366  17.078  14.314
77595W        W44136  28.058  44.059   2.815
77596W        W44137  32.134  13.623  12.519
77597W        W44138  28.343  23.156   4.299
77598W        W44139  42.893  26.445  12.594
77599W        W44140   7.848  38.787  11.594
77600W        W44141  25.874  35.540   1.409
77601W        W44142  33.922   9.995   1.630
77602W        W44143  31.096  18.138  14.351
77603W        W44144   8.782  38.626   3.678
77604W        W44145  40.579  23.748  13.538
77605W        W44146   5.426  22.760   3.404
77606W        W44147   3.836   0.820  14.176
77607W        W44148  18.705  36.490   1.601
77608W        W44149  34.411  30.102  12.592
77609W        W44150   3.229  24.738  13.426
77610W        W44151  35.064  13.420   5.036
77611W        W44152   1.846  28.496   4.649
77612W        W44153  35.515  21.009   4.454
77613W        W44154   6.332   9.774   0.809
77614W        W44155  28.118   9.307  14.559
77615W        W44156   4.285  36.721   2.956
77616W        W44157   2.871  44.153  12.887
77617W        W44158  26.991  44.851   4.551
77618W        W44159  25.546  31.153   2.687
77619W        W44160  21.073  12.522   0.811
77620W        W44161  33.939   3.224   1.975
77621W        W44162  12.286   1.947  14.592
77622W        W44163  42.897  26.547   2.880
77623W        W44164  22.025   7.321   1.742
77624W        W44165  30.213  36.296   5.000
77625W        W44166  22.540  21.183  11.190
77626W        W44167  21.516   6.852   1.607
77627W        W44168  34.089   9.887  14.384
77628W        W44169  15.942  43.761  11.170
77629W        W44170  25.421  41.342   3.182
77630W        W44171  34.646   7.530  13.863
77631W        W44172  21.701   7.522  10.674
77632W        W44173  12.078  38.082  12.365
77633W        W44174  29.527  11.994   3.633
77634W        W44175  32.934  37.852   1.175
77635W        W44176  31.764   8.891  14.275
77636W        W44177   3.505  42.996   0.205
77637W        W44178  38.019  25.414   3.310
77638W        W44179  27.020  44.553   0.218
77639W        W44180  13.258  11.482  13.079
77640W        W44181   7.619  18.613  11.037
77641W        W44182  29.392  21.907   4.709
77642W        W44183   8.883  25.712   4.145
77643W        W44184  11.318  18.901   0.099
77644W        W44185  16.863  43.019   4.641
77645W        W44186   5.378  23.491  12.475
77646W        W44187  40.576  11.611  10.728
77647W        W44188  19.624  43.770  12.503
77648W        W44189   1.534  14.885  12.556
77649W        W44190  32.850  41.291  11.550
77650W        W44191   3.300   0.314   2.754
77651W        W44192  40.018  17.600   4.007
77652W        W44193  24.582  25.581  13.992
77653W        W44194  28.055  20.313  12.408
77654W        W44195  28.868  20.303  14.351
77655W        W44196  16.236   1.819   1.066
77656W        W44197  30.621  18.228  13.981
77657W        W44198  20.258  12.225   4.496
77658W        W44199  30.290  11.895  14.237
77659W        W44200  11.185  38.417  11.064
77660W        W44201   5.900  22.139   4.501
77661W        W44202  19.639   4.976  12.106
77662W        W44203  21.346  35.879  13.557
77663W        W44204  34.340  10.758   3.102
77664W        W44205  34.353  37.490   3.188
77665W        W44206  12.533  34.009  11.751
77666W        W44207   6.798  40.347  14.929
77667W        W44208  33.122   9.550  14.544
77668W        W44209  21.639  15.362  13.043
77669W        W44210   9.241  24.577   3.474
77670W        W44211  16.052  31.023  12.079
77671W        W44212  31.849  14.826  13.049
77672W        W44213  41.401  40.325  13.597
77673W        W44214  26.186  15.809  12.433
77674W        W44215  28.327  39.799  13.400
77675W        W44216  30.376  21.278  11.306
77676W        W44217  36.140  14.135  10.698
77677W        W44218  13.458  32.314   2.792
77678W        W44219  44.564  44.743   4.828
77679W        W44220   4.318  38.596  14.864
77680W        W44221   9.302  11.464  11.645
77681W        W44222  37.175  12.216   3.724
77682W        W44223  11.276  14.735   4.624
77683W        W44224  13.600  16.471  10.665
77684W        W44225  27.409   8.875   4.079
77685W        W44226   9.793  40.164  13.532
77686W        W44227   5.912  23.189  12.857
77687W        W44228  20.204  40.493  10.700
77688W        W44229   8.269  36.838  12.092
77689W        W44230   9.473  17.884   4.066
77690W        W44231  28.010  39.540   1.306
77691W        W44232  16.478  37.884   4.642
77692W        W44233  27.597  29.046  10.743
77693W        W44234  14.542   4.189  14.404
77694W        W44235  41.983  40.752  10.814
77695W        W44236  29.772   2.389   2.203
77696W        W44237  12.444  43.772   1.751
77697W        W44238  38.968  29.907  11.519
77698W        W44239  24.879  23.475   4.418
77699W        W44240  37.894  32.047   1.332
77700W        W44241  20.209   0.072  14.420
77701W        W44242  30.083  21.499   3.334
77702W        W44243  25.932  43.938  11.612
77703W        W44244  28.911  36.051   3.170
77704W        W44245  29.444  39.930   1.623
77705W        W44246  37.094  21.248  13.877
77706W        W44247  25.533  15.338  11.139
77707W        W44248  10.875  12.004  12.097
77708W        W44249   8.403   4.217  13.911
77709W        W44250  10.321  31.444  12.570
77710W        W44251  33.948  36.039  14.883
77711W        W44252  37.616  30.227  11.990
77712W        W44253  23.169  38.957  11.124
77713W        W44254  20.146   4.421   2.838
77714W        W44255  28.402  31.998   1.731
77715W        W44256  23.515  32.528  10.399
77716W        W44257  41.395  39.403   0.983
77717W        W44258  21.166  14.662   3.084
77718W        W44259  14.216  43.441  14.018
77719W        W44260  32.722  25.212   3.224
77720W        W44261  21.528  20.517  14.587
77721W        W44262  11.510  25.337  12.489
77722W        W44263  37.452   9.612  10.542
77723W        W44264  16.231   6.335  14.417
77724W        W44265  11.637  43.594  12.075
77725W        W44266  14.353  31.529   3.027
77726W        W44267  40.919  31.203  13.858
77727W        W44268  18.519   5.289   0.927
77728W        W44269  37.366  37.542   1.828
77729W        W44270  18.514  34.591  13.464
77730W        W44271   5.910   7.666   3.167
77731W        W44272  19.099   4.591   0.365
77732W        W44273   0.930   4.129   1.686
77733W        W44274  19.063  37.581  11.156
77734W        W44275  32.362  18.267   1.973
77735W        W44276   4.338  22.039   5.240
77736W        W44277  28.616   4.290   2.869
77737W        W44278  17.066  14.131   3.692
77738W        W44279   9.858   6.822  12.677
77739W        W44280  27.678  11.411   3.300
77740W        W44281  26.484  13.341  14.852
77741W        W44282   4.366  13.882  11.874
77742W        W44283  33.125  16.818   0.981
77743W        W44284   7.318  25.960  14.440
77744W        W44285  29.654  37.634  13.545
77745W        W44286  35.493  20.261  12.691
77746W        W44287  21.490  13.318  10.206
77747W        W44288   4.901   1.328  14.795
77748W        W44289   3.287  35.121  10.896
77749W        W44290  44.310  15.379  13.439
77750W        W44291  11.244   4.665   1.591
77751W        W44292  43.083  26.949  11.448
77752W        W44293  37.121  25.060  14.232
77753W        W44294  10.465  26.136  11.536
77754W        W44295  41.058  22.530  14.976
77755W        W44296  27.799  12.875   0.817
77756W        W44297  17.685  17.709  10.605
77757W        W44298  35.346  10.347  13.015
77758W        W44299  16.706  18.438   4.130
77759W        W44300  32.450  20.270   4.659
77760W        W44301  20.135  12.442  13.902
77761W        W44302   3.906  18.243  12.151
77762W        W44303  17.163  17.631   2.404
77763W        W44304  17.964  42.750   0.671
77764W        W44305   7.414  17.233  11.262
77765W        W44306  20.496  27.817  11.078
77766W        W44307  39.755  30.589   1.132
77767W        W44308  18.117  23.316   4.552
77768W        W44309  36.429   4.923   2.187
77769W        W44310  43.724   3.419   4.048
77770W        W44311  29.652   0.744  13.432
77771W        W44312  31.722   6.338   3.768
77772W        W44313  26.707  41.379   2.312
77773W        W44314  25.327  10.373  14.685
77774W        W44315  27.139  40.023  14.851
77775W        W44316  24.592  26.594   2.212
77776W        W44317  22.485  24.063   0.959
77777W        W44318  31.945  13.611  13.008
77778W        W44319  38.180  19.116   1.757
77779W        W44320  33.015  18.327   2.686
77780W        W44321  29.050  14.123   0.694
77781W        W44322  31.466  18.145   1.034
77782W        W44323  10.381   4.874   0.825
77783W        W44324  18.142  43.212   3.296
77784W        W44325   9.667  20.187  12.402
77785W        W44326   5.661   0.815  14.827
77786W        W44327   4.026   1.298   3.145
77787W        W44328  36.685  12.593   3.198
77788W        W44329   9.759  24.326  14.807
77789W        W44330   3.345  41.055  12.901
77790W        W44331  12.335   3.407   3.733
77791W        W44332  13.750  34.463  13.911
77792W        W44333  19.871   5.847  14.282
77793W        W44334  31.529  10.148   2.848
77794W        W44335  30.845  34.880   1.706
77795W        W44336  22.098   9.127  11.827
77796W        W44337  24.174  38.115  14.367
77797W        W44338  22.498  42.109   0.934
77798W        W44339  43.413  13.846  13.404
77799W        W44340  39.963  20.545  14.054
77800W        W44341  24.042  14.859   0.829
77801W        W44342  20.904   5.390  11.679
77802W        W44343  10.877  18.721  14.888
77803W        W44344  15.538  33.239   0.718
77804W        W44345  28.009  41.583   1.474
77805W        W44346  35.371  15.661   4.421
77806W        W44347  32.018  19.665   2.960
77807W        W44348  23.437   6.241  12.545
77808W        W44349  20.001  17.222   3.142
77809W        W44350   8.307  26.059  14.547
77810W        W44351  19.838  22.135  14.827
77811W        W44352  30.579  43.446   3.840
77812W        W44353  20.140   4.824  14.313
77813W        W44354  35.370  25.115  10.638
77814W        W44355  19.736  12.014   1.064
77815W        W44356  35.961  35.502   2.514
77816W        W44357  33.889  36.080  10.850
77817W        W44358  15.310  23.057   0.389
77818W        W44359  34.891  28.496  13.549
77819W        W44360  25.710  21.616  11.723
77820W        W44361   5.817   4.157  14.840
77821W        W44362  18.710  38.561   2.690
77822W        W44363  19.060   8.140   0.521
77823W        W44364  38.876   3.955   0.343
77824W        W44365  29.408   6.879  11.878
77825W        W44366  22.610  23.533   1.049
77826W        W44367  40.601  35.979  11.646
77827W        W44368  27.707  35.607  10.485
77828W        W44369  35.588  44.043  11.696
77829W        W44370   4.919  24.096  13.119
77830W        W44371   9.568  30.681   1.234
77831W        W44372   1.318  28.180  13.088
77832W        W44373  21.218   4.010  14.349
77833W        W44374  34.681  36.093  12.027
77834W        W44375   1.805  15.599   3.345
77835W        W44376   9.382  13.201  14.750
77836W        W44377  18.112  18.218  13.403
77837W        W44378  26.600  10.740  14.029
77838W        W44379  17.752  34.124   1.555
77839W        W44380  22.777  19.909  11.197
77840W        W44381   4.000  28.805   3.105
77841W        W44382  32.596  41.421  11.088
77842W        W44383  33.949  37.097  14.614
77843W        W44384  44.031  30.824   0.841
77844W        W44385  34.094   9.663  12.429
77845W        W44386  42.368   1.493   2.240
77846W        W44387  36.403  22.429   4.541
77847W        W44388   9.894  40.688  12.631
77848W        W44389  29.628  44.224   0.445
77849W        W44390  43.704  22.570  10.476
77850W        W44391  25.966  17.557  12.349
77851W        W44392  33.140  16.542   1.905
77852W        W44393  12.668  38.920   2.851
77853W        W44394   0.680  35.089  12.401
77854W        W44395   4.920   0.059   1.350
77855W        W44396  38.797  13.748  11.271
77856W        W44397  21.173  32.425   0.749
77857W        W44398   4.235  37.026   3.374
77858W        W44399   7.241  44.047   1.160
77859W        W44400  32.942  32.573   0.571
77860W        W44401   6.239  10.216   2.733
77861W        W44402  42.730  34.890   0.477
77862W        W44403  31.129  42.724  10.552
77863W        W44404  10.513  39.649   4.639
77864W        W44405  17.584   6.782  12.927
77865W        W44406   5.318  32.147  11.191
77866W        W44407  27.241   2.735  12.899
77867W        W44408   6.312   7.172  11.653
77868W        W44409  44.513   7.464   0.350
77869W        W44410  41.853   2.571   3.832
77870W        W44411  23.216  32.413  13.975
77871W        W44412  37.890   0.923  12.528
77872W        W44413  41.206  36.610   1.303
77873W        W44414  16.220  14.662   4.996
77874W        W44415   1.348  43.456  12.600
77875W        W44416  38.552   3.090  14.490
77876W        W44417  29.629  29.461  12.031
77877W        W44418  24.690  15.404  10.765
77878W        W44419  32.648  24.133  12.503
77879W        W44420  41.557  10.248  11.790
77880W        W44421   3.513  43.487   4.643
77881W        W44422  24.299  33.101  13.203
77882W        W44423   4.031  38.851   4.987
77883W        W44424  19.132   7.871   0.961
77884W        W44425  44.705  25.913   4.185
77885W        W44426  29.507  21.407   4.737
77886W        W44427  19.981  10.717  13.730
77887W        W44428  28.072  10.587   3.394
77888W        W44429  33.475  40.794   0.425
77889W        W44430  15.407  19.329  14.063
77890W        W44431   9.642  19.557  13.384
77891W        W44432  39.470  36.441   1.341
77892W        W44433  33.521   5.173   0.788
77893W        W44434  43.700  42.565  11.741
77894W        W44435  13.151  39.839  13.901
77895W        W44436   7.738  37.373  12.884
77896W        W44437  23.572  15.782   4.041
77897W        W44438  15.186  17.987   3.583
77898W        W44439  32.793   4.807  11.987
77899W        W44440  30.184  36.007   3.130
77900W        W44441  16.418  29.961  13.160
77901W        W44442   4.619  42.494   0.837
77902W        W44443   6.941   0.349  14.837
77903W        W44444  39.386  43.204   2.771
77904W        W44445  14.692  34.998  12.456
77905W        W44446  31.507  30.462  12.462
77906W        W44447  33.460  30.219  12.413
77907W        W44448   3.901   4.766  11.983
77908W        W44449  16.839  21.293  10.578
77909W        W44450   3.654  29.590   3.681
77910W        W44451   8.236  15.524   0.210
77911W        W44452  24.229  29.656   1.319
77912W        W44453  15.266  19.790   4.545
77913W        W44454  39.529   6.636   3.043
77914W        W44455  34.137  27.816   3.689
77915W        W44456  34.881   8.956   2.764
77916W        W44457  28.446  18.044  12.857
77917W        W44458  42.635  43.741   1.802
77918W        W44459  13.118  31.021  11.376
77919W        W44460  20.101  32.857   0.934
77920W        W44461  32.510  28.789   1.207
77921W        W44462  12.911   9.080   0.422
77922W        W44463   0.229  40.391   3.891
77923W        W44464  21.995  32.825  11.913
77924W        W44465  27.647  10.005   2.242
77925W        W44466  18.003  14.183  13.462
77926W        W44467  18.255  32.993   0.450
77927W        W44468  33.929  36.458   0.931
77928W        W44469   7.628  23.337   3.178
77929W        W44470  39.461  28.015   4.340
77930W        W44471  41.368  42.319   4.561
77931W        W44472  40.318  10.318  11.762
77932W        W44473  11.659  43.720  14.468
77933W        W44474  27.113  38.074  11.993
77934W        W44475   7.532   2.616   3.184
77935W        W44476  23.218  28.892   2.194
77936W        W44477  32.630  44.041  11.380
77937W        W44478  29.023  30.036  10.465
77938W        W44479  14.209  37.089  11.582
77939W        W44480  42.754  40.602  14.969
77940W        W44481  12.220  15.815  13.538
77941W        W44482  19.180  36.269   2.744
77942W        W44483  31.989  40.149  11.166
77943W        W44484  40.642  25.508   4.559
77944W        W44485  25.956  30.932   0.428
77945W        W44486  40.779  36.363   1.124
77946W        W44487   0.754  30.547   4.580
77947W        W44488  37.552  39.008  10.757
77948W        W44489   8.144  38.064  14.795
77949W        W44490  26.523  20.295  13.029
77950W        W44491  24.507  14.308  11.606
77951W        W44492  23.478  28.488  11.426
77952W        W44493  21.471  42.623   1.756
77953W        W44494  44.918   5.894  13.803
77954W        W44495  18.852  32.900   1.938
77955W        W44496   3.859  21.418  10.891
77956W        W44497  34.074  33.637   0.240
77957W        W44498  37.607   0.767  11.643
77958W        W44499   4.496  11.092  12.867
77959W        W44500  10.735  39.595   2.889
77960W        W44501  16.090  30.524   2.130
77961W        W44502  32.450  35.409  14.943
77962W        W44503  25.468   3.804  11.696
77963W        W44504   6.215  30.121  12.455
77964W        W44505  29.008  23.333  14.021
77965W        W44506  32.204  34.466  14.350
77966W        W44507  27.998  22.412  14.478
77967W        W44508   6.672  12.315   4.658
77968W        W44509  24.152  15.032  13.448
77969W        W44510  40.494  22.205  11.089
77970W        W44511  43.349  22.437  13.960
77971W        W44512   5.679  30.032   2.139
77972W        W44513   3.016  12.822  12.110
77973W        W44514  34.478   0.643  11.925
77974W        W44515  28.449  34.314  12.009
77975W        W44516  35.862  18.341  13.619
77976W        W44517  40.851  21.153  10.367
77977W        W44518   9.253   5.592   1.134
77978W        W44519   0.226  31.426   2.720
77979W        W44520   2.719   5.388   4.619
77980W        W44521  11.549  11.024   0.320
77981W        W44522  40.196  26.446  11.659
77982W        W44523  40.709  34.322  14.022
77983W        W44524   4.312  39.337   0.350
77984W        W44525  24.990  26.158   4.040
77985W        W44526  16.598  17.795   3.635
77986W        W44527  17.549   8.135   2.680
77987W        W44528  38.386  28.999   3.811
77988W        W44529  14.227  19.240  13.080
77989W        W44530   6.350  12.511  12.625
77990W        W44531   0.404  23.013   0.742
77991W        W44532  34.440  27.274   4.564
77992W        W44533  38.897   0.914  11.404
77993W        W44534  30.502  33.346   2.277
77994W        W44535  25.067  42.917   1.205
77995W        W44536  34.242   8.284   0.176
77996W        W44537  10.148  29.387   3.677
77997W        W44538  38.039  19.838  11.540
77998W        W44539  22.693  21.246  12.502
77999W        W44540  44.302  33.206  14.962
78000W        W44541  26.418  27.560   4.261
78001W        W44542  35.502  23.783  13.316
78002W        W44543   1.464  34.849   1.944
78003W        W44544  32.943   9.108   2.679
78004W        W44545  12.156   7.198   2.881
78005W        W44546  40.010   4.818  14.583
78006W        W44547  33.084  20.818   0.912
78007W        W44548  29.509  18.349  11.976
78008W        W44549  27.854   4.288  12.508
78009W        W44550  14.903  44.890   1.187
78010W        W44551  16.068   2.510  13.040
78011W        W44552  40.900  43.190  12.786
78012W        W44553   2.821  16.702  11.610
78013W        W44554   6.734   5.280   1.457
78014W        W44555  14.356  24.174   2.637
78015W        W44556  21.691  21.623   1.493
78016W        W44557  42.738  32.933  13.753
78017W        W44558  22.292   6.162   3.251
78018W        W44559  13.634  41.733  12.963
78019W        W44560  12.779  12.932  11.455
78020W        W44561  26.496  36.077   2.098
78021W        W44562  26.088  31.486  13.501
78022W        W44563  16.309  14.262  14.337
78023W        W44564  13.109  36.540  10.411
78024W        W44565  43.029  24.578  14.534
78025W        W44566   8.911  30.023  11.703
78026W        W44567  36.056  22.584   3.715
78027W        W44568  37.501   1.643   2.818
78028W        W44569  28.470  28.522   3.818
78029W        W44570  38.402  23.497   3.304
78030W        W44571  23.810  13.141   4.224
78031W        W44572   0.846  10.197  13.170
78032W        W44573   2.388  37.633   0.521
78033W        W44574  11.712  20.482   3.651
78034W        W44575   9.942  18.721  12.748
78035W        W44576  21.585  26.122   3.798
78036W        W44577  10.670  23.617   1.933
78037W        W44578  33.197  23.184   1.285
78038W        W44579  44.134  38.894   4.760
78039W        W44580  37.412  34.898  14.524
78040W        W44581  40.952   0.587   1.269
78041W        W44582   4.368  38.149  13.456
78042W        W44583  28.475  40.140  10.475
78043W        W44584   7.923   8.923   4.180
78044W        W44585  42.786  30.642   3.664
78045W        W44586  10.860  13.376   1.381
78046W        W44587  10.804  17.241  14.821
78047W        W44588  43.711  16.539  14.312
78048W        W44589  17.022  11.931   3.221
78049W        W44590   5.400   2.702   9.730
78050W        W44591  44.739  21.599   0.427
78051W        W44592  31.187   7.396  14.981
78052W        W44593   4.081  40.936  13.299
78053W        W44594  21.215  23.977   3.626
78054W        W44595  12.665  33.849   2.297
78055W        W44596   4.145  25.758  13.638
78056W        W44597  42.793  25.917  11.896
78057W        W44598  43.431  41.988   2.036
78058W        W44599   5.327   2.854  11.414
78059W        W44600  12.433  40.426  13.530
78060W        W44601  12.270  36.486  14.364
78061W        W44602  30.422  37.070   1.677
78062W        W44603  26.988  37.316   3.284
78063W        W44604  41.520  18.839   2.239
78064W        W44605  19.349  14.746   0.963
78065W        W44606  28.144  34.610   1.759
78066W        W44607  36.728   1.329   3.645
78067W        W44608  14.685  39.993   0.473
78068W        W44609  26.865   1.947  12.355
78069W        W44610   1.815  13.686   3.304
78070W        W44611  11.429  23.303  10.528
78071W        W44612  36.547   7.816   1.325
78072W        W44613  12.583  37.051   4.991
78073W        W44614  15.271  38.013   1.318
78074W        W44615  37.816  13.823   2.159
78075W        W44616  13.548  40.507  11.693
78076W        W44617  39.295  37.083   3.406
78077W        W44618  21.023   0.688   0.391
78078W        W44619   1.179  21.186  14.399
78079W        W44620  10.778   5.711  11.532
78080W        W44621  32.637   7.790  13.331
78081W        W44622   7.173   2.846   1.485
78082W        W44623  20.125  25.672  10.765
78083W        W44624  17.741   5.178  13.068
78084W        W44625  35.432  43.438  12.497
78085W        W44626  13.741  23.152  13.539
78086W        W44627   6.672  39.376  13.975
78087W        W44628   0.587  22.746   0.309
78088W        W44629  10.342  10.898   3.180
78089W        W44630   9.348   8.264   4.393
78090W        W44631  17.614  40.821  14.397
78091W        W44632  26.217  29.918   4.751
78092W        W44633  10.310   9.718  14.697
78093W        W44634   7.848   5.786   4.369
78094W        W44635  13.738  33.617  13.046
78095W        W44636  43.734  33.587   0.253
78096W        W44637  21.557   7.646   2.310
78097W        W44638  19.006  44.301   3.535
78098W        W44639  41.831   8.410   1.717
78099W        W44640  37.617   1.152   2.721
78100W        W44641  32.994  10.112  11.675
78101W        W44642  30.550  23.185  13.290
78102W        W44643   1.690  35.049   0.002
78103W        W44644  38.401  38.517   1.616
78104W        W44645   1.702  44.084   3.226
78105W        W44646   1.927  23.505  14.545
78106W        W44647   9.563   7.345  10.165
78107W        W44648  21.481  29.391  10.144
78108W        W44649  43.086  43.849   4.379
78109W        W44650  19.262  34.632  12.882
78110W        W44651  17.736  44.930  13.739
78111W        W44652   3.385   4.822   4.579
78112W        W44653  34.347  22.985  13.166
78113W        W44654  14.779  23.791   1.762
78114W        W44655  29.261   4.952  11.430
78115W        W44656  36.878  16.039   3.013
78116W        W44657  25.535   9.922  10.587
78117W        W44658  24.220  33.552  10.590
78118W        W44659  22.193  21.950   3.636
78119W        W44660  38.173   7.601   2.522
78120W        W44661   7.151  16.474  14.825
78121W        W44662  20.745  37.045  14.815
78122W        W44663  41.488   7.283   3.308
78123W        W44664  29.510   9.835   0.965
78124W        W44665  20.033  35.356  14.288
78125W        W44666  35.623  40.294  14.409
78126W        W44667  27.719   2.476   3.144
78127W        W44668  26.491  30.296   2.333
78128W        W44669  31.448   4.902  14.256
78129W        W44670  13.091   7.210  13.774
78130W        W44671  11.828   7.499  12.576
78131W        W44672  42.968  15.273  13.334
78132W        W44673  17.552  40.468  14.869
78133W        W44674  31.438   1.852   0.714
78134W        W44675  40.307  42.963   3.634
78135W        W44676  15.775  18.575   4.269
78136W        W44677  23.113  13.115  14.364
78137W        W44678  17.240  20.731   1.375
78138W        W44679   7.986  16.121   0.289
78139W        W44680  28.044   1.756   0.874
78140W        W44681  16.081   0.564  11.569
78141W        W44682  24.778  22.130   3.531
78142W        W44683  16.414   8.404  12.000
78143W        W44684  30.015  24.266  12.550
78144W        W44685   8.690  10.134   2.107
78145W        W44686  10.179  41.747   2.947
78146W        W44687  20.300  44.774  11.162
78147W        W44688  28.672  11.323   1.685
78148W        W44689  33.531  10.395   4.058
78149W        W44690   4.129  22.638  13.101
78150W        W44691  16.909  10.512  13.576
78151W        W44692  29.347  11.672   4.546
78152W        W44693  24.326  21.181  12.769
78153W        W44694  10.214  35.489   1.833
78154W        W44695  26.986  36.356   3.113
78155W        W44696  11.742  39.846  14.258
78156W        W44697  42.940  29.666  13.348
78157W        W44698  23.809   9.259   4.545
78158W        W44699   4.684  40.840   2.270
78159W        W44700  23.518   3.766   1.389
78160W        W44701  24.532  41.608   0.843
78161W        W44702  28.701  20.599  12.543
78162W        W44703  25.131  44.933   1.011
78163W        W44704  19.187  34.848  12.412
78164W        W44705  36.498  20.828  14.672
78165W        W44706  44.409  11.817  14.237
78166W        W44707  23.011  30.152   1.006
78167W        W44708  30.383  15.401   4.964
78168W        W44709  24.060  22.923  14.143
78169W        W44710  18.113  21.680  12.152
78170W        W44711  16.629  15.667  10.430
78171W        W44712  11.313  20.000   4.655
78172W        W44713  15.578   0.782  12.438
78173W        W44714  26.538   2.982  10.579
78174W        W44715   3.753  14.704  14.986
78175W        W44716   3.224  34.212  12.052
78176W        W44717  33.136  44.241   0.684
78177W        W44718  14.932  39.767  14.119
78178W        W44719  38.406  15.806   1.336
78179W        W44720  38.411  42.515  12.431
78180W        W44721  39.070   7.221  13.510
78181W        W44722  22.440  31.419  11.759
78182W        W44723  34.845  27.574  14.051
78183W        W44724  38.852  42.381   3.160
78184W        W44725   1.673  16.033   3.077
78185W        W44726  32.448   6.805   3.058
78186W        W44727  38.990   9.816  13.589
78187W        W44728   0.732   2.677   4.558
78188W        W44729  44.524   4.863  14.996
78189W        W44730  32.063  24.171  12.495
78190W        W44731   9.759  14.412   2.003
78191W        W44732  15.634  15.871   4.702
78192W        W44733   6.481  14.149   2.153
78193W        W44734  28.818  41.790  11.216
78194W        W44735  12.932   4.315   3.697
78195W        W44736   0.719  12.107   0.551
78196W        W44737  24.714   4.659  12.118
78197W        W44738  22.642   2.444   1.956
78198W        W44739  44.740  41.263   0.447
78199W        W44740  34.333   8.862   4.615
78200W        W44741  19.733   1.319  13.388
78201W        W44742   5.432   8.381   4.175
78202W        W44743  18.304  37.956   4.239
78203W        W44744  27.121  36.137   2.659
78204W        W44745   8.571  33.665   1.837
78205W        W44746  38.586  24.710   4.787
78206W        W44747   1.198  32.581   0.264
78207W        W44748  18.503  12.917  13.074
78208W        W44749  21.204  29.982  13.811
78209W        W44750  17.818   6.008  11.152
78210W        W44751  42.789  20.066  14.512
78211W        W44752  10.115  10.157   4.157
78212W        W44753  43.201  32.855   2.936
78213W        W44754   4.342  40.397   3.251
78214W        W44755  15.361  18.153   0.768
78215W        W44756   9.290  20.530   2.888
78216W        W44757   0.333   2.365   3.657
78217W        W44758   4.139   6.488   0.886
78218W        W44759   5.867  22.934   0.689
78219W        W44760  33.117   8.226  10.420
78220W        W44761  14.284   8.456  13.785
78221W        W44762  35.018  44.153  12.134
78222W        W44763  38.396  42.463  11.082
78223W        W44764  14.883  37.808   0.809
78224W        W44765  33.383  21.739   0.110
78225W        W44766  37.958  35.627   0.418
78226W        W44767   4.380  41.007  12.008
78227W        W44768  33.838  19.758  11.546
78228W        W44769  29.765  35.057   0.998
78229W        W44770  43.091  16.501  12.963
78230W        W44771  34.396  39.617  13.484
78231W        W44772  20.660   6.352   1.841
78232W        W44773  40.740   5.952   3.767
78233W        W44774  24.890  37.897   3.759
78234W        W44775  43.195  41.384   0.373
78235W        W44776  30.303  17.111  12.477
78236W        W44777  26.188  22.091   3.714
78237W        W44778  37.401  44.189  14.823
78238W        W44779  24.832  18.419   4.231
78239W        W44780   7.171  11.306   0.296
78240W        W44781  40.537  14.210  14.936
78241W        W44782   6.214   7.780  13.374
78242W        W44783  27.584   7.640  14.065
78243W        W44784  22.681   4.935  10.204
78244W        W44785  43.834  11.670   4.614
78245W        W44786  21.377   8.349  11.887
78246W        W44787  22.255  35.371  12.159
78247W        W44788   5.814   2.597   3.376
78248W        W44789  36.849   1.729  10.982
78249W        W44790   7.689  26.726  14.596
78250W        W44791  44.226  33.943  10.676
78251W        W44792  10.537   4.834  11.020
78252W        W44793  30.460  41.560   4.213
78253W        W44794  10.216  19.118  12.869
78254W        W44795  42.777   5.841   2.620
78255W        W44796  12.726  14.730  10.525
78256W        W44797  26.124   4.264  13.902
78257W        W44798  43.234  39.350  10.627
78258W        W44799  23.944  27.762   2.374
78259W        W44800  42.925  11.708  14.979
78260W        W44801  43.316   3.407   3.745
78261W        W44802  23.563  18.939  12.614
78262W        W44803  36.866  21.182  14.810
78263W        W44804  31.179  29.239   3.172
78264W        W44805  19.406   5.124  11.615
78265W        W44806   6.250   3.396  13.308
78266W        W44807  39.048   1.480  13.897
78267W        W44808  26.098   7.141  10.765
78268W        W44809  31.191  42.198   1.561
78269W        W44810  16.018  44.477  13.247
78270W        W44811  29.801  31.626  11.454
78271W        W44812  20.244   4.976   1.636
78272W        W44813   2.801  42.544  11.117
78273W        W44814  15.035  20.779  12.463
78274W        W44815  25.900  37.017   9.936
78275W        W44816  40.499  11.867   1.439
78276W        W44817  11.867  38.464  14.284
78277W        W44818  10.069  35.629   3.368
78278W        W44819  27.270  43.485  11.641
78279W        W44820  26.879   4.252  11.602
78280W        W44821  23.793  17.612   4.307
78281W        W44822   8.625  22.829   1.854
78282W        W44823  15.308  37.926  10.711
78283W        W44824   3.720  21.208  14.620
78284W        W44825   5.466  32.437  14.052
78285W        W44826  31.836   3.255  14.505
78286W        W44827  23.965  27.144   4.509
78287W        W44828  20.604  36.849  10.754
78288W        W44829   1.927  15.515  11.193
78289W        W44830   5.344   1.537   0.745
78290W        W44831  15.548   1.869  13.042
78291W        W44832  24.678  43.326   3.147
78292W        W44833  37.885  16.496   1.858
78293W        W44834  17.995  41.941   0.335
78294W        W44835   9.259  41.726   0.738
78295W        W44836   8.402  44.792  11.670
78296W        W44837  22.787  31.336  12.554
78297W        W44838  10.779  10.903   4.182
78298W        W44839  40.391  11.304   0.348
78299W        W44840   6.144  32.822   2.084
78300W        W44841  42.833  37.384   4.714
78301W        W44842  12.751   5.344  11.007
78302W        W44843   9.002  27.081   2.641
78303W        W44844   1.359  39.125  14.092
78304W        W44845  19.638   9.860  13.851
78305W        W44846  14.628  29.529   1.255
78306W        W44847  35.331  40.949   1.806
78307W        W44848  42.960  28.570   3.625
78308W        W44849   6.619  13.888  12.610
78309W        W44850  24.821  17.369  11.116
78310W        W44851  39.896   6.763   2.621
78311W        W44852  26.722   3.784  14.326
78312W        W44853  14.651   2.160  13.300
78313W        W44854  30.871  36.427  13.980
78314W        W44855  15.530   8.745   1.850
78315W        W44856   8.733  41.141   9.947
78316W        W44857  42.194   0.022   4.710
78317W        W44858  33.809  30.532   0.704
78318W        W44859  38.816  24.498  10.736
78319W        W44860  11.109  17.589  12.791
78320W        W44861  12.830  35.958   4.203
78321W        W44862  33.262  10.719   3.268
78322W        W44863  30.643  29.900   3.497
78323W        W44864  17.197   0.265   2.461
78324W        W44865  25.469  18.847   1.228
78325W        W44866  42.352   2.073  11.738
78326W        W44867   8.031  16.298   3.878
78327W        W44868  29.012  17.389  13.965
78328W        W44869  26.195  30.579   1.817
78329W        W44870  15.985   0.074   0.433
78330W        W44871  17.213  40.700  12.065
78331W        W44872  22.070  24.039  10.688
78332W        W44873   0.725  13.075   3.613
78333W        W44874  39.856  41.047  14.518
78334W        W44875   5.841  13.220  14.251
78335W        W44876   3.475   8.024   4.876
78336W        W44877  39.394  29.682   3.881
78337W        W44878  11.638  31.870   1.211
78338W        W44879  28.737  12.326   9.811
78339W        W44880   4.366  22.004   2.121
78340W        W44881  33.926  24.381   0.411
78341W        W44882  33.627   2.427   0.597
78342W        W44883  14.605  41.180  13.999
78343W        W44884  32.193  34.769   4.128
78344W        W44885  26.869  30.558   0.481
78345W        W44886   0.347  18.803  11.620
78346W        W44887  23.556   6.469  12.091
78347W        W44888  36.821  29.223   4.699
78348W        W44889  10.669  15.285  11.043
78349W        W44890  34.473  44.502  13.340
78350W        W44891  23.605   5.382   2.702
78351W        W44892   5.253  44.177   1.466
78352W        W44893  43.063  33.244   0.837
78353W        W44894   3.150  36.369   0.448
78354W        W44895  25.840  27.022  12.143
78355W        W44896   0.038  36.653   0.934
78356W        W44897   3.026   5.026   4.915
78357W        W44898  18.991  33.954  11.912
78358W        W44899  44.432   1.437   1.289
78359W        W44900  32.719   8.304   0.310
78360W        W44901  33.756  16.687   3.625
78361W        W44902  18.683  37.454  13.980
78362W        W44903  13.053   8.372   3.320
78363W        W44904  28.903   7.787  12.535
78364W        W44905  35.606  11.728   0.123
78365W        W44906  32.924   1.276  13.531
78366W        W44907  24.777  31.860  14.868
78367W        W44908  35.411  31.995   4.553
78368W        W44909   2.965  25.070  14.680
78369W        W44910  19.322  13.358   3.730
78370W        W44911  24.295  14.295  14.973
78371W        W44912   2.761   3.955  10.702
78372W        W44913  39.456  18.652   4.415
78373W        W44914  44.299  12.803   1.874
78374W        W44915  31.715  40.570   3.344
78375W        W44916  42.854  19.049   2.681
78376W        W44917  26.713  24.437  11.588
78377W        W44918  39.510   1.266  13.990
78378W        W44919  19.524   2.514  13.846
78379W        W44920  29.446   0.520  13.018
78380W        W44921  24.750  33.354  13.002
78381W        W44922  24.195  34.449   2.216
78382W        W44923  37.426   3.376  11.150
78383W        W44924  11.217  27.451   0.699
78384W        W44925  31.999  28.725   4.433
78385W        W44926  31.423  35.033  10.644
78386W        W44927   7.989  17.156   1.459
78387W        W44928  24.648   6.355   3.952
78388W        W44929  11.150  26.724   1.850
78389W        W44930  34.468  23.909  12.950
78390W        W44931   0.375  39.035  13.860
78391W        W44932  18.666  31.239   1.103
78392W        W44933  44.927  31.291  11.146
78393W        W44934  43.116  16.269  14.756
78394W        W44935  33.814  20.059   1.937
78395W        W44936  35.849  27.696  11.579
78396W        W44937  22.030  43.318  10.422
78397W        W44938  26.904  35.885  13.912
78398W        W44939   9.514  40.585   3.735
78399W        W44940   7.765  12.299   2.998
78400W        W44941  12.252  11.459   1.531
78401W        W44942  22.696  14.238   0.003
78402W        W44943  27.515  43.544  14.720
78403W        W44944  43.916  27.724  12.980
78404W        W44945   1.400  21.579   1.775
78405W        W44946  12.447  20.737   4.129
78406W        W44947  25.840   8.931   2.071
78407W        W44948  29.191   6.765  13.346
78408W        W44949  30.112  15.250  11.838
78409W        W44950  15.846  32.495   2.269
78410W        W44951  18.010  38.616  13.968
78411W        W44952  12.670  28.481  12.322
78412W        W44953  21.672   1.469   3.666
78413W        W44954  34.916  23.576   5.027
78414W        W44955  25.692  24.562  12.479
78415W        W44956   0.186   3.481  13.789
78416W        W44957   0.143  33.870   3.708
78417W        W44958  10.500  12.134  14.342
78418W        W44959  22.037  24.215   3.921
78419W        W44960  15.995  10.263  12.825
78420W        W44961   0.834  26.063  13.344
78421W        W44962  13.879  41.910   4.080
78422W        W44963   1.309  11.564   1.839
78423W        W44964  16.316   9.704  14.502
78424W        W44965  36.075   6.725  14.538
78425W        W44966  24.328  43.980  12.095
78426W        W44967  23.082  34.642  11.627
78427W        W44968  17.625   1.729  10.773
78428W        W44969  26.662   7.580  13.033
78429W        W44970  39.483  20.402  13.786
78430W        W44971   0.972  34.145   1.884
78431W        W44972  35.610  41.970  11.715
78432W        W44973  34.866  43.491   2.184
78433W        W44974  30.821  20.190   1.702
78434W        W44975  33.544  34.886   2.880
78435W        W44976  18.084  10.248   2.424
78436W        W44977   7.662  16.323  11.203
78437W        W44978  41.264  13.577  12.971
78438W        W44979  13.365  35.432  11.911
78439W        W44980  41.074  44.011  12.908
78440W        W44981  41.768   9.616  13.120
78441W        W44982  19.453   5.451   9.690
78442W        W44983  17.635  38.000   3.797
78443W        W44984  36.641  26.191   1.871
78444W        W44985  38.937  12.097   0.800
78445W        W44986  11.063  13.243   1.825
78446W        W44987  31.093   7.673  14.369
78447W        W44988   7.177   2.841  11.759
78448W        W44989  19.168  10.409   0.046
78449W        W44990   4.212  18.760   3.395
78450W        W44991  10.869  40.914   2.879
78451W        W44992  28.448   2.334   0.156
78452W        W44993   5.607   2.885   3.011
78453W        W44994   6.887  18.501   4.028
78454W        W44995   7.357  25.063  13.119
78455W        W44996  18.251  10.297   3.861
78456W        W44997  32.286  25.213   4.045
78457W        W44998  30.750  38.025  14.422
78458W        W44999  36.339  12.959  14.611
78459W        W45000  44.344  40.801  12.146
78460W        W45001  15.023  32.249   2.287
78461W        W45002  42.581  38.526  14.346
78462W        W45003  15.400  13.803  12.528
78463W        W45004  42.084  19.850  14.900
78464W        W45005   9.872  37.882   4.437
78465W        W45006  30.228  31.875  13.564
78466W        W45007  16.354   1.427   0.214
78467W        W45008  11.340  33.433   4.042
78468W        W45009   7.926  14.561   1.265
78469W        W45010  25.266   3.683   4.296
78470W        W45011  39.268  34.342   2.206
78471W        W45012  24.147  38.932   3.996
78472W        W45013  14.084  39.806   3.211
78473W        W45014   7.891   7.355  12.539
78474W        W45015  35.340   5.790   2.811
78475W        W45016  42.850  25.760   4.964
78476W        W45017  41.432  10.765  14.151
78477W        W45018  40.916  23.697   3.640
78478W        W45019  31.720  31.815   3.619
78479W        W45020  30.957  26.924  11.540
78480W        W45021  43.877  30.509  12.010
78481W        W45022  40.485  10.274   2.506
78482W        W45023  18.502  11.247   1.729
78483W        W45024   3.840   8.288  13.050
78484W        W45025  39.027  11.776  12.517
78485W        W45026  11.924  41.807  13.410
78486W        W45027  19.979  10.400  11.581
78487W        W45028  42.075  23.098  10.567
78488W        W45029  18.514  41.560  13.290
78489W        W45030  36.308  29.539   2.165
78490W        W45031  32.481  44.744  14.884
78491W        W45032   9.689  20.655  11.591
78492W        W45033  10.768  24.612   3.562
78493W        W45034   7.855  15.398   0.991
78494W        W45035  44.444   3.880   0.871
78495W        W45036  29.411  17.907  13.384
78496W        W45037  24.691   1.814   2.696
78497W        W45038  15.851  44.072  12.953
78498W        W45039  33.549  33.786   4.500
78499W        W45040  40.711   8.310   0.318
78500W        W45041  17.830  36.978   2.112
78501W        W45042  30.607   4.386  11.860
78502W        W45043   4.682   6.477   9.978
78503W        W45044   9.991  12.255   4.181
78504W        W45045   5.730  36.523  13.817
78505W        W45046  22.856  30.238   4.962
78506W        W45047  23.042   5.152  12.159
78507W        W45048  17.145  39.176  12.028
78508W        W45049   6.767  11.242  13.159
78509W        W45050  19.031  18.642  12.190
78510W        W45051  30.930  32.130   1.962
78511W        W45052  31.681   8.624  13.338
78512W        W45053  43.888   0.015  11.523
78513W        W45054  10.374  36.580  12.016
78514W        W45055  24.263  41.290  14.031
78515W        W45056  43.958   9.188  14.112
78516W        W45057  34.420   3.718   1.279
78517W        W45058   8.755  27.177   2.190
78518W        W45059  37.191  32.432  13.771
78519W        W45060  24.654   0.529   2.680
78520W        W45061  35.745  20.017  11.629
78521W        W45062  36.531  13.738  10.543
78522W        W45063  10.925  28.542   3.597
78523W        W45064  38.248  36.004   4.157
78524W        W45065  41.434  20.213  12.393
78525W        W45066  26.665  14.011  11.608
78526W        W45067  27.120  20.337   1.342
78527W        W45068  40.510   7.060   0.748
78528W        W45069  36.340  26.023   4.782
78529W        W45070   2.097   5.728   3.825
78530W        W45071  30.964  15.630   4.755
78531W        W45072  25.644  43.027   4.012
78532W        W45073  32.561  25.579  14.100
78533W        W45074   3.030  29.944   1.733
78534W        W45075  27.883  29.564  14.210
78535W        W45076  20.185  25.093   1.009
78536W        W45077  34.808  32.638   0.288
78537W        W45078  31.454   6.879   1.253
78538W        W45079  10.976  14.976  13.319
78539W        W45080  30.304  12.145   1.367
78540W        W45081  38.159  19.742  10.844
78541W        W45082  29.220  40.603   1.008
78542W        W45083   9.939  33.035  10.716
78543W        W45084   2.736  36.894  12.381
78544W        W45085  29.547   9.605   4.206
78545W        W45086  34.622  20.560   1.849
78546W        W45087  38.049  32.119   2.270
78547W        W45088  42.961   0.480   0.818
78548W        W45089  40.524   2.434  13.996
78549W        W45090  14.278  17.397  11.435
78550W        W45091  41.504   9.902  10.615
78551W        W45092  27.982  32.560   4.184
78552W        W45093  37.660   4.957   4.000
78553W        W45094  29.157  19.476   4.516
78554W        W45095  30.130  37.942   0.542
78555W        W45096  39.391   7.877   2.258
78556W        W45097  24.068  32.184  11.123
78557W        W45098  27.893  27.885  12.033
78558W        W45099  42.970   5.131  12.467
78559W        W45100  32.059  42.930   2.237
78560W        W45101   9.869  16.542   2.332
78561W        W45102  21.323  17.552  12.451
78562W        W45103  18.333  37.383  11.667
78563W        W45104  34.583  34.897  10.064
78564W        W45105  24.036  31.057   4.691
78565W        W45106   1.127  28.236   3.643
78566W        W45107  28.051   0.731  11.023
78567W        W45108  40.584  29.133   2.165
78568W        W45109   9.332  16.470   1.224
78569W        W45110   0.245   2.915   3.367
78570W        W45111  12.166  12.894   3.145
78571W        W45112  17.124  12.321  11.263
78572W        W45113  24.555  40.179   3.674
78573W        W45114   3.103  42.275   4.772
78574W        W45115  32.506   9.696   3.691
78575W        W45116  30.014  26.152  10.693
78576W        W45117   1.019  15.206   3.595
78577W        W45118  17.523  42.528  11.108
78578W        W45119   9.219   0.305   4.697
78579W        W45120  12.725  16.833   1.964
78580W        W45121  17.710  25.450   1.814
78581W        W45122  13.693   2.046  14.363
78582W        W45123  40.463   0.538   4.328
78583W        W45124  30.846  12.690   0.169
78584W        W45125  31.104  41.291  10.680
78585W        W45126  22.631  43.215   0.304
78586W        W45127  40.581  15.763   0.283
78587W        W45128  17.749  25.551  10.707
78588W        W45129  12.126  14.112  11.591
78589W        W45130  10.816  14.693   1.959
78590W        W45131  30.416  15.738   3.380
78591W        W45132  34.349   4.699   1.305
78592W        W45133  27.551  34.069   2.988
78593W        W45134  19.248   3.421  11.963
78594W        W45135  30.048  16.425   0.116
78595W        W45136   5.822  14.303  11.400
78596W        W45137  22.525  25.953   4.135
78597W        W45138  13.325  26.989   4.258
78598W        W45139  11.228  36.844  12.102
78599W        W45140  34.451  19.299  13.385
78600W        W45141  26.582   1.361  13.019
78601W        W45142   7.265  26.757   2.917
78602W        W45143  13.657  44.770  12.153
78603W        W45144  23.608  11.593   1.890
78604W        W45145  10.196  15.327  13.870
78605W        W45146  24.733  40.931   4.162
78606W        W45147  38.306  16.655   9.890
78607W        W45148  12.141  11.882  12.292
78608W        W45149  11.307   0.812   4.905
78609W        W45150  32.443  32.336   4.760
78610W        W45151  27.189  41.420   3.474
78611W        W45152  35.314  32.048   3.764
78612W        W45153  15.658  21.825  11.189
78613W        W45154  21.924  39.364  11.454
78614W        W45155   5.361  22.861  14.483
78615W        W45156  35.167  15.261  12.844
78616W        W45157  41.768  14.762   1.756
78617W        W45158  37.940   7.904  10.569
78618W        W45159  33.597  33.462   1.860
78619W        W45160  11.296  32.393  11.933
78620W        W45161  29.306  18.815   0.844
78621W        W45162  33.660  16.106  13.770
78622W        W45163  33.550  14.343   4.039
78623W        W45164  32.862  40.647   1.876
78624W        W45165  33.176   4.314  12.853
78625W        W45166   3.326  34.510   2.470
78626W        W45167   8.919  44.276   0.680
78627W        W45168  11.240  40.418  11.942
78628W        W45169  28.079  32.971  11.774
78629W        W45170   9.229  44.231  10.659
78630W        W45171  39.378  28.746   4.195
78631W        W45172  12.096  35.859   3.700
78632W        W45173  20.832  32.071   2.244
78633W        W45174   7.794  30.576   3.833
78634W        W45175  19.742  42.344   0.038
78635W        W45176  23.043  40.767  14.307
78636W        W45177  14.394  36.946   0.911
78637W        W45178  16.222  32.853   2.313
78638W        W45179  24.633   9.598   0.763
78639W        W45180  30.239  39.783  11.231
78640W        W45181   0.826  21.841  11.668
78641W        W45182   3.470  11.081   1.619
78642W        W45183  25.468  28.965  14.046
78643W        W45184  16.505  19.642  12.495
78644W        W45185  37.134  33.726   2.637
78645W        W45186  30.557  12.415   2.279
78646W        W45187  29.561   1.803   3.603
78647W        W45188  14.809  44.299   2.718
78648W        W45189  38.404  33.032   1.649
78649W        W45190   4.940   8.879  13.017
78650W        W45191   5.891  22.477  11.196
78651W        W45192  21.235  29.875  10.881
78652W        W45193  12.403  44.584   0.454
78653W        W45194  19.700  44.239  11.508
78654W        W45195  21.692   0.835   0.861
78655W        W45196  37.366  36.872  11.859
78656W        W45197  36.457  26.439  12.404
78657W        W45198  13.163   7.191  12.447
78658W        W45199   8.943  37.850  12.873
78659W        W45200  17.764  21.041  10.938
78660W        W45201  26.290  20.753   3.799
78661W        W45202  34.440  25.289  13.636
78662W        W45203  33.656  40.131  10.258
78663W        W45204  43.281  41.299   4.954
78664W        W45205  26.123  17.660   4.249
78665W        W45206  28.988  43.103  14.346
78666W        W45207  27.249   1.398  11.715
78667W        W45208  28.936  12.284  13.348
78668W        W45209  35.980  44.479  14.132
78669W        W45210   2.046  22.725   3.720
78670W        W45211   9.902  27.982   2.835
78671W        W45212   0.048   5.875  14.492
78672W        W45213  41.157   8.605  13.458
78673W        W45214  37.628  31.444  12.400
78674W        W45215  33.104  33.718   1.659
78675W        W45216  44.193   9.176   3.643
78676W        W45217  11.071  28.445   3.105
78677W        W45218  43.608  28.249   0.854
78678W        W45219  37.990  21.605  10.823
78679W        W45220   0.822  13.804   0.770
78680W        W45221  34.193  16.743  13.491
78681W        W45222  32.105   6.724  11.595
78682W        W45223  18.266  40.033  11.123
78683W        W45224  40.858  16.341  12.055
78684W        W45225   9.631   7.300  11.965
78685W        W45226  37.279  26.454   3.777
78686W        W45227  16.144  21.222   4.516
78687W        W45228  15.104  12.335  14.124
78688W        W45229   8.090   7.851   2.051
78689W        W45230  34.457  41.530  10.806
78690W        W45231   8.791  34.949   0.378
78691W        W45232  40.190  21.170   5.103
78692W        W45233  11.280  22.046   0.705
78693W        W45234   6.737  13.392   2.747
78694W        W45235  35.125  22.212   2.416
78695W        W45236  20.118  18.737   3.389
78696W        W45237  15.535  31.082  12.005
78697W        W45238   0.824  27.026  12.221
78698W        W45239   4.849   6.980   2.456
78699W        W45240  19.502  19.043  10.608
78700W        W45241   7.946  32.138   0.152
78701W        W45242   0.906   1.927   5.025
78702W        W45243  34.408  14.993   0.139
78703W        W45244  25.658  17.967  12.135
78704W        W45245  36.389  42.096   1.244
78705W        W45246  41.571  33.832   0.870
78706W        W45247  33.391  15.269   4.564
78707W        W45248  12.959  33.699   5.046
78708W        W45249   0.929  27.510  14.523
78709W        W45250   9.129   9.983   0.109
78710W        W45251  25.483  13.138  14.534
78711W        W45252  37.409  26.168   2.462
78712W        W45253  11.333  40.804   4.774
78713W        W45254  12.729  39.390   1.661
78714W        W45255   5.166   8.113  14.870
78715W        W45256   5.177  25.292  12.638
78716W        W45257  28.339  12.558   3.859
78717W        W45258  37.156  10.765   4.756
78718W        W45259   2.668   5.308   0.356
78719W        W45260   0.235  17.277  13.737
78720W        W45261  42.248   9.291   3.574
78721W        W45262  38.697  16.372   0.993
78722W        W45263  21.658  16.692   3.740
78723W        W45264   9.938  11.135   1.219
78724W        W45265  37.116   8.005  13.473
78725W        W45266   5.559   0.706   2.337
78726W        W45267  42.282   0.866   4.886
78727W        W45268  16.894  29.989   3.687
78728W        W45269  14.400  27.031   3.314
78729W        W45270   3.485   4.086   4.070
78730W        W45271  40.726  44.979   3.459
78731W        W45272   2.199   6.738   0.967
78732W        W45273  38.712  43.397  12.484
78733W        W45274  20.100  22.621  11.647
78734W        W45275  29.173   3.812  12.480
78735W        W45276   9.533  33.979   3.191
78736W        W45277  14.701  13.174  14.635
78737W        W45278   3.473  17.087   3.597
78738W        W45279  32.421   5.217   3.336
78739W        W45280  13.564  29.192  13.873
78740W        W45281  38.108  11.653  14.449
78741W        W45282   0.469   5.390   4.119
78742W        W45283  27.636  27.220  11.618
78743W        W45284   2.206  44.939  11.206
78744W        W45285  37.781  14.580   0.765
78745W        W45286  35.841  15.986  12.191
78746W        W45287   4.377  29.099  10.658
78747W        W45288  42.911  37.936  12.229
78748W        W45289  12.395  39.486   0.196
78749W        W45290  39.565  11.236   1.946
78750W        W45291  33.471  26.355  10.266
78751W        W45292   3.547   5.646   3.658
78752W        W45293  20.974   2.320  14.777
78753W        W45294   6.638  41.281  13.875
78754W        W45295   5.697  37.987  11.241
78755W        W45296   7.610  42.400  14.833
78756W        W45297   0.978  11.587  13.796
78757W        W45298   9.823   5.747   2.758
78758W        W45299   0.180  24.968  11.179
78759W        W45300  15.428  24.204   4.660
78760W        W45301   1.364  38.345   2.673
78761W        W45302  24.604  16.114  14.433
78762W        W45303  25.745   2.690   2.922
78763W        W45304   1.919  36.830   0.559
78764W        W45305  35.566   8.064  11.601
78765W        W45306  24.954  23.533   3.607
78766W        W45307  41.005  32.736   2.855
78767W        W45308   5.596  29.879  14.306
78768W        W45309  38.100  15.702  14.199
78769W        W45310  37.080   7.918  14.732
78770W        W45311  17.561  34.840   4.422
78771W        W45312  11.385  39.129  14.915
78772W        W45313  22.827  22.708  10.396
78773W        W45314  34.600  24.689   3.886
78774W        W45315   8.828  10.624   3.326
78775W        W45316  17.488  13.176  10.362
78776W        W45317   5.915  31.287  12.742
78777W        W45318  10.412  36.199   1.448
78778W        W45319  19.159  12.719   4.476
78779W        W45320  12.130  21.211   3.469
78780W        W45321  15.732  33.509  11.226
78781W        W45322   3.227  15.568  13.714
78782W        W45323  29.142  16.215  10.314
78783W        W45324   1.992  40.282   0.194
78784W        W45325  35.390  27.459   4.139
78785W        W45326  44.308  31.936   3.229
78786W        W45327   0.108   7.945   4.702
78787W        W45328   6.360  32.203   9.959
78788W        W45329   2.838  16.747  13.291
78789W        W45330  10.538   6.102  14.899
78790W        W45331  11.254  25.300  13.843
78791W        W45332   6.326  29.002   0.858
78792W        W45333  25.623  12.222   3.752
78793W        W45334  10.175  21.746   2.901
78794W        W45335  29.124  37.937   3.647
78795W        W45336  14.925  12.687  10.681
78796W        W45337  24.437  12.143  10.785
78797W        W45338   7.998   0.305   2.167
78798W        W45339  30.760  18.156   2.562
78799W        W45340  16.716  22.288  11.625
78800W        W45341  40.590  23.240  13.652
78801W        W45342   7.653  44.182   4.134
78802W        W45343  15.763  44.252  10.771
78803W        W45344  11.811  37.619  13.095
78804W        W45345  37.181  27.475   2.894
78805W        W45346  37.134  21.156  11.997
78806W        W45347  24.534  43.859  13.895
78807W        W45348  31.001  26.200   4.835
78808W        W45349   0.115  11.378  14.718
78809W        W45350  39.454   8.956   1.240
78810W        W45351  24.520  14.113   3.194
78811W        W45352  38.990  21.548  12.017
78812W        W45353   3.978  39.111   3.170
78813W        W45354   2.670  28.123   0.472
78814W        W45355  39.386   1.559   1.484
78815W        W45356  13.253  28.653   0.830
78816W        W45357  27.078  14.356   0.504
78817W        W45358   7.744   8.018  14.014
78818W        W45359  38.093  28.378  11.574
78819W        W45360   5.275  44.360   0.756
78820W        W45361  34.036  14.782   3.194
78821W        W45362  13.044  43.548  12.099
78822W        W45363  14.699  33.572   2.434
78823W        W45364   8.995   5.207   0.734
78824W        W45365   6.873   8.826  11.514
78825W        W45366   5.862  20.540   0.280
78826W        W45367  31.516   4.498  11.571
78827W        W45368  33.402   4.937  13.437
78828W        W45369   4.299  20.756  10.748
78829W        W45370  21.986  39.393  11.958
78830W        W45371   9.417   4.342  11.598
78831W        W45372   8.286  12.937  11.458
78832W        W45373   8.848  28.672  10.639
78833W        W45374   1.491  16.886   2.269
78834W        W45375   6.379  23.022   3.546
78835W        W45376  21.764  25.246   3.382
78836W        W45377  32.278  40.731   2.322
78837W        W45378  41.058   2.822  11.010
78838W        W45379  24.699  27.966   4.267
78839W        W45380  29.066  15.334  13.999
78840W        W45381  28.619  16.236  14.359
78841W        W45382  20.294  34.030   3.202
78842W        W45383  22.520   7.960   2.378
78843W        W45384  15.564  34.838  11.021
78844W        W45385  22.244  23.124  11.563
78845W        W45386  27.751  11.781   1.423
78846W        W45387  42.456   2.199   1.686
78847W        W45388  16.410  14.446   5.449
78848W        W45389   5.948  26.058  14.870
78849W        W45390   0.758  34.810   3.956
78850W        W45391  27.485  26.301   2.322
78851W        W45392  24.694  25.433   0.864
78852W        W45393  27.179  27.996  13.502
78853W        W45394  37.364   4.646   2.036
78854W        W45395  15.345  10.703   4.036
78855W        W45396   8.228  40.842  13.020
78856W        W45397  33.227   5.251  10.971
78857W        W45398  28.232  35.293   0.772
78858W        W45399  21.581  13.731   3.233
78859W        W45400  35.963  22.485  11.439
78860W        W45401  24.035  27.101   3.999
78861W        W45402  27.567  42.277   1.280
78862W        W45403  39.070  18.600   2.740
78863W        W45404  30.647  41.397   0.430
78864W        W45405  21.341  30.719   1.104
78865W        W45406  20.921   9.000  12.508
78866W        W45407   2.566  44.472   4.571
78867W        W45408   7.843  32.735  11.927
78868W        W45409  17.740  20.712   1.259
78869W        W45410   5.717  42.828  11.144
78870W        W45411   9.199  40.306   4.040
78871W        W45412  27.581  26.218   1.401
78872W        W45413  20.594  14.196   1.876
78873W        W45414   6.516   3.806  11.127
78874W        W45415  27.209  15.886   3.707
78875W        W45416   3.914  18.725  12.991
78876W        W45417  26.678  37.601  14.317
78877W        W45418  36.336   1.389  10.724
78878W        W45419  39.067  22.893   0.791
78879W        W45420  32.167  26.744   2.229
78880W        W45421  23.590   7.741  12.541
78881W        W45422  39.825   0.175  13.460
78882W        W45423   4.247  37.273  11.724
78883W        W45424  24.799  43.452  13.082
78884W        W45425   2.688  21.997  13.995
78885W        W45426  26.871   4.723   0.702
78886W        W45427  24.773   5.441  13.342
78887W        W45428   3.739  43.768   4.249
78888W        W45429  36.819   9.573   0.616
78889W        W45430   2.335   1.315  13.926
78890W        W45431   3.850  39.320   4.877
78891W        W45432  28.100  10.383  12.000
78892W        W45433   8.448   3.401   2.493
78893W        W45434  31.898  27.909  10.581
78894W        W45435  13.397  17.470  12.951
78895W        W45436  21.715   6.956  14.763
78896W        W45437   4.270  24.489  11.559
78897W        W45438  22.927   6.311  12.456
78898W        W45439  40.548  14.833  12.971
78899W        W45440  44.508  23.215  10.987
78900W        W45441  23.565  41.995  11.597
78901W        W45442  21.749  42.939   0.740
78902W        W45443  12.661   0.790   2.743
78903W        W45444  16.796  30.991  13.845
78904W        W45445  40.806  44.892  13.943
78905W        W45446  17.850  37.569  10.326
78906W        W45447  10.664  13.930   0.465
78907W        W45448   6.912  26.485  12.960
78908W        W45449   1.345  21.778  11.285
78909W        W45450   2.581  12.865   0.641
78910W        W45451  35.286  34.646   0.287
78911W        W45452  15.921  21.347  11.124
78912W        W45453  25.382  34.977   0.960
78913W        W45454   7.801  12.843   2.878
78914W        W45455  42.033  29.565  10.711
78915W        W45456  43.949  17.991  13.843
78916W        W45457  44.468  14.102  10.885
78917W        W45458  35.543   1.750  11.950
78918W        W45459  38.043  40.609  12.016
78919W        W45460   0.557   3.978   4.175
78920W        W45461  25.543  11.857   2.649
78921W        W45462  44.754   9.958  12.489
78922W        W45463  10.163  15.778   3.365
78923W        W45464  33.799  37.599  12.620
78924W        W45465  10.846  18.834  12.135
78925W        W45466   7.128   6.364  12.006
78926W        W45467  23.223   1.028  12.520
78927W        W45468  18.047  23.166   0.311
78928W        W45469  20.202   0.270  11.078
78929W        W45470  10.884  20.235  12.497
78930W        W45471  18.734   2.403   0.601
78931W        W45472  42.761  16.488   3.510
78932W        W45473  31.998   9.759   0.926
78933W        W45474  29.480  33.669  14.755
78934W        W45475  11.180  20.512  13.459
78935W        W45476  44.928  10.915   1.735
78936W        W45477  25.506  42.823  14.250
78937W        W45478  26.059  38.516  12.530
78938W        W45479  11.635  33.442  12.008
78939W        W45480  33.486  12.068   3.629
78940W        W45481  20.007   1.854   2.114
78941W        W45482  14.196  17.108   2.732
78942W        W45483   7.334  33.387  12.120
78943W        W45484  27.310  21.193   2.737
78944W        W45485  43.114  21.948  10.140
78945W        W45486   2.212  15.960   3.536
78946W        W45487  21.652  23.038   4.003
78947W        W45488  18.319   7.968   2.495
78948W        W45489   9.664   8.860  13.610
78949W        W45490  20.195   2.340  12.018
78950W        W45491  31.077  37.473  13.953
78951W        W45492  11.835  31.827  14.537
78952W        W45493  43.043  34.563  14.405
78953W        W45494  17.434  32.053  13.956
78954W        W45495   6.346   9.691   0.283
78955W        W45496   8.006  39.656  11.388
78956W        W45497  13.359   8.314   3.740
78957W        W45498  31.979  16.163  14.937
78958W        W45499  24.622  31.909  10.601
78959W        W45500  23.558  29.860   1.775
78960W        W45501  28.142   3.881   0.462
78961W        W45502   6.523  18.966   0.483
78962W        W45503  12.031   9.632   1.402
78963W        W45504  32.362  26.467  12.468
78964W        W45505  38.763  25.586   1.328
78965W        W45506  38.936  27.868   1.350
78966W        W45507  39.663  22.038   3.290
78967W        W45508  17.049  43.283   1.163
78968W        W45509  35.381  22.028  11.256
78969W        W45510  33.902  26.937  13.418
78970W        W45511   9.166   6.358  13.087
78971W        W45512   3.272  38.810  14.742
78972W        W45513  10.331  29.665   3.195
78973W        W45514  36.025  44.245  11.138
78974W        W45515  16.113  39.882   0.309
78975W        W45516  11.102  18.207  13.829
78976W        W45517  26.719   6.200   4.089
78977W        W45518  27.794  34.427  11.162
78978W        W45519  34.696  14.105   2.698
78979W        W45520  34.664  15.661  14.448
78980W        W45521   0.867  15.293  10.557
78981W        W45522   5.248  38.767   2.677
78982W        W45523  28.501  11.555  13.579
78983W        W45524   0.038  18.513   2.417
78984W        W45525  37.053  27.637  13.533
78985W        W45526  39.105  35.032  13.356
78986W        W45527  36.112  40.547  12.643
78987W        W45528   5.814  36.839   0.484
78988W        W45529  25.515  13.195  11.604
78989W        W45530   4.745  14.600   0.020
78990W        W45531   0.852  33.640   1.843
78991W        W45532   9.897  32.446   2.706
78992W        W45533  27.159   5.124   2.181
78993W        W45534   1.135  37.368  13.487
78994W        W45535  11.231  42.629   3.504
78995W        W45536  18.783   9.064   3.763
78996W        W45537  35.757  28.522   4.353
78997W        W45538  42.469  17.270  11.909
78998W        W45539  44.857   4.260  11.196
78999W        W45540   5.849  16.760   1.606
79000W        W45541  13.834   6.643   3.751
79001W        W45542  25.744   0.805  11.618
79002W        W45543  20.239  42.994  13.927
79003W        W45544  21.121  14.038  11.558
79004W        W45545   3.996  37.580  14.927
79005W        W45546  39.390  26.203  10.718
79006W        W45547  36.551  18.407   3.379
79007W        W45548   6.210   1.732  11.181
79008W        W45549  44.875   7.725  13.061
79009W        W45550  10.889  20.888   3.817
79010W        W45551   3.485  15.949  14.018
79011W        W45552   7.722  24.295  12.942
79012W        W45553  44.181  13.774  13.075
79013W        W45554   9.849   2.103   3.432
79014W        W45555  27.990  38.070  12.730
79015W        W45556  36.888  22.361   2.453
79016W        W45557  11.074  35.433  13.500
79017W        W45558  40.364  16.338   1.447
79018W        W45559   8.866  10.576   2.326
79019W        W45560  13.274  23.335   1.362
79020W        W45561  10.877  37.263   2.810
79021W        W45562  14.716  14.794   4.814
79022W        W45563  35.466   7.096  10.706
79023W        W45564  20.806  23.657   3.679
79024W        W45565  27.917   3.356  12.997
79025W        W45566  38.565  28.265  11.467
79026W        W45567  13.397   0.333  10.777
79027W        W45568   4.506   1.500   2.944
79028W        W45569  29.391  31.491  11.183
79029W        W45570  43.113  40.249   0.069
79030W        W45571  21.345   8.789  12.776
79031W        W45572   3.740  32.097   1.527
79032W        W45573  33.888   4.488   1.422
79033W        W45574  43.915   3.545  12.180
79034W        W45575  29.281  27.578  12.937
79035W        W45576   2.890  36.461  14.936
79036W        W45577  21.254  37.509   3.619
79037W        W45578  41.701   4.512  14.739
79038W        W45579  28.734  29.765  14.143
79039W        W45580  27.626  36.380  12.862
79040W        W45581  39.084   7.732  11.978
79041W        W45582   1.295  10.247  13.417
79042W        W45583  11.408  36.402  11.901
79043W        W45584  28.092  16.640   3.248
79044W        W45585  28.969  28.467   1.429
79045W        W45586   3.309  37.500   1.868
79046W        W45587  25.637   1.605  13.369
79047W        W45588  17.508  24.520   0.341
79048W        W45589  38.612  14.423   4.063
79049W        W45590  35.448  19.208  12.501
79050W        W45591  44.223   5.790   2.703
79051W        W45592  22.302  24.157   0.449
79052W        W45593  26.207  34.368  14.084
79053W        W45594   1.857  19.908   1.631
79054W        W45595  19.620  41.214   3.655
79055W        W45596  22.587  31.717   3.070
79056W        W45597   4.060  22.708   1.762
79057W        W45598  31.807  14.245   3.270
79058W        W45599   9.817  12.405  13.421
79059W        W45600  24.394  36.219  13.530
79060W        W45601  13.058  32.640   4.064
79061W        W45602  22.284  14.517  11.222
79062W        W45603  22.160  38.010  14.292
79063W        W45604  38.182  31.074  12.945
79064W        W45605  42.638  22.699   2.323
79065W        W45606  40.419  40.019   3.199
79066W        W45607  24.942   5.547   3.733
79067W        W45608  34.349  43.678   0.033
79068W        W45609   8.116  21.115   0.734
79069W        W45610   1.707  18.358   0.787
79070W        W45611   8.442  15.377   2.231
79071W        W45612  38.429  15.545   0.866
79072W        W45613  18.563  43.474   1.655
79073W        W45614  11.402  23.938  11.101
79074W        W45615  19.837  33.970  10.613
79075W        W45616   0.316   0.106   5.045
79076W        W45617  24.502  10.805  12.074
79077W        W45618  29.709  37.898  10.984
79078W        W45619  21.599  20.262   2.200
79079W        W45620  42.287  20.610  12.392
79080W        W45621   2.325   8.460   3.309
79081W        W45622  15.893   7.974   0.825
79082W        W45623  11.701  21.548  11.002
79083W        W45624  22.015  11.936   3.731
79084W        W45625  11.769  27.680   4.382
79085W        W45626  14.331  27.044  13.429
79086W        W45627  31.894   1.741  11.057
79087W        W45628  43.509   5.678   1.850
79088W        W45629  10.350  34.581  13.796
79089W        W45630  22.169  34.558   2.253
79090W        W45631  19.204  44.078  12.376
79091W        W45632   8.136  22.207  14.396
79092W        W45633   9.702  37.115  12.068
79093W        W45634  37.914  30.597   3.245
79094W        W45635  40.113  23.467   2.206
79095W        W45636   0.079  21.499  14.950
79096W        W45637  31.064  19.884   4.683
79097W        W45638  34.869  27.330   2.490
79098W        W45639  12.483  11.573   5.149
79099W        W45640   1.314  19.154  11.468
79100W        W45641  10.633  33.034  11.417
79101W        W45642  39.910   0.501  11.562
79102W        W45643  17.159  38.082   0.704
79103W        W45644  17.283  10.289  12.374
79104W        W45645   4.277   0.626  12.936
79105W        W45646  37.300  32.596   2.923
79106W        W45647   1.510  38.081  14.774
79107W        W45648  26.423  22.458  12.461
79108W        W45649  30.501  30.085  12.472
79109W        W45650  21.124  36.469   2.474
79110W        W45651   1.823  22.300   3.991
79111W        W45652  24.618  35.450   3.173
79112W        W45653  10.474  22.418   4.088
79113W        W45654  28.998  35.747  13.729
79114W        W45655  12.832  30.402  10.251
79115W        W45656  32.948  23.803   2.651
79116W        W45657  14.065  36.526  14.963
79117W        W45658  43.230   9.604   4.601
79118W        W45659  18.347  18.594   3.704
79119W        W45660  11.632   4.474  10.384
79120W        W45661  16.530  20.004  13.276
79121W        W45662  16.943  21.128   1.236
79122W        W45663   3.820  23.718   3.640
79123W        W45664  33.947   0.607   9.740
79124W        W45665  43.038  20.692  10.779
79125W        W45666  39.248  10.588   0.718
79126W        W45667  22.382   7.660   9.932
79127W        W45668  31.124  28.337   0.086
79128W        W45669   4.923  37.409   3.208
79129W        W45670  14.189  43.732   3.293
79130W        W45671  11.620   4.217  13.511
79131W        W45672   3.519  39.769   1.751
79132W        W45673  20.664  36.613   0.458
79133W        W45674  27.120  15.355  11.147
79134W        W45675  41.251   4.283  14.469
79135W        W45676  40.943  41.087   0.966
79136W        W45677   9.866  39.788  11.472
79137W        W45678  39.649  11.625   9.898
79138W        W45679  14.164  39.995   1.341
79139W        W45680  14.870  23.484   3.204
79140W        W45681  28.096  11.540   3.018
79141W        W45682  26.949  14.285   5.174
79142W        W45683  20.752  33.657   0.965
79143W        W45684  44.889  13.779   0.814
79144W        W45685   5.942  37.426  13.736
79145W        W45686  14.142  34.931   0.486
79146W        W45687  21.631  26.076  14.359
79147W        W45688  17.104  36.849  14.829
79148W        W45689  30.430  25.354  14.290
79149W        W45690  32.692  38.141   2.869
79150W        W45691  41.550   6.608  11.960
79151W        W45692   9.324  44.046  12.747
79152W        W45693  34.010   6.789  13.713
79153W        W45694  29.278   5.352   2.166
79154W        W45695  26.871  40.438   0.002
79155W        W45696  24.273  12.663   3.582
79156W        W45697  21.673   7.834  12.962
79157W        W45698  10.817  27.379  13.013
79158W        W45699  37.982  19.771   0.284
79159W        W45700  18.765  37.928  14.831
79160W        W45701  28.915  38.930  10.416
79161W        W45702  12.909  29.072  12.912
79162W        W45703  30.343  41.283  13.780
79163W        W45704  12.082   9.956   1.823
79164W        W45705  12.136  32.616  13.036
79165W        W45706  34.999  28.018   0.808
79166W        W45707  17.215  19.174   1.374
79167W        W45708  35.886  18.200   1.395
79168W        W45709   3.511  37.911  14.292
79169W        W45710  25.769  38.060  12.615
79170W        W45711  43.896   3.739   2.474
79171W        W45712  13.105   2.260   2.852
79172W        W45713  27.273  26.118   3.134
79173W        W45714   9.288  18.137  11.571
79174W        W45715   1.507  37.807  10.867
79175W        W45716  15.485  15.592   2.053
79176W        W45717  41.999  39.335  12.970
79177W        W45718  30.079  44.475  13.517
79178W        W45719  41.460  24.808   2.798
79179W        W45720  10.735  27.081  10.467
79180W        W45721  23.754  43.460   4.076
79181W        W45722  35.416  16.072   1.833
79182W        W45723  20.961  35.683  13.318
79183W        W45724  20.329  33.355   3.863
79184W        W45725  24.573  38.956   1.121
79185W        W45726  26.573  34.070   2.786
79186W        W45727  23.342  14.435   3.746
79187W        W45728  20.476  27.753  12.134
79188W        W45729   3.890   1.560   3.581
79189W        W45730  41.842   7.929   0.442
79190W        W45731  39.411  44.275  10.095
79191W        W45732  39.508   0.451   2.274
79192W        W45733  32.864  26.514   4.867
79193W        W45734  40.045   3.647  10.501
79194W        W45735  27.500  20.076   0.429
79195W        W45736   8.985   9.737  14.650
79196W        W45737  34.171  12.801   1.688
79197W        W45738  12.620   2.602  12.833
79198W        W45739   9.074  19.146  11.655
79199W        W45740  26.667  29.258  13.402
79200W        W45741   2.787   4.226   1.737
79201W        W45742  33.435  35.498   2.062
79202W        W45743  44.462  38.116  11.042
79203W        W45744  10.670  21.779   2.668
79204W        W45745  41.716   7.575  11.650
79205W        W45746  43.000  26.175  10.982
79206W        W45747  36.561  17.145   5.008
79207W        W45748  19.774  34.553   0.107
79208W        W45749   1.390  32.107   1.270
79209W        W45750  12.900  18.123  12.451
79210W        W45751  20.720  18.791   0.224
79211W        W45752  23.487  23.543  11.488
79212W        W45753  11.814   9.394   3.813
79213W        W45754  15.623  39.739  14.953
79214W        W45755  16.813  43.333  11.558
79215W        W45756  23.056  18.305  13.211
79216W        W45757  15.123  19.804   4.046
79217W        W45758  18.473  34.589  11.653
79218W        W45759  37.850  26.591   0.008
79219W        W45760  29.551  12.777   1.015
79220W        W45761   4.430   0.013   3.082
79221W        W45762  38.020  34.820   0.783
79222W        W45763  23.296   3.373  14.961
79223W        W45764  15.104   5.800   1.843
79224W        W45765  21.039  27.520   4.722
79225W        W45766  16.316  42.825  13.001
79226W        W45767  21.734   0.063   4.867
79227W        W45768  23.490  24.673   0.900
79228W        W45769   5.402   7.881   1.375
79229W        W45770  34.493  18.783  12.910
79230W        W45771  23.445  12.353   2.348
79231W        W45772   0.457  35.365  13.838
79232W        W45773  19.290   9.803  14.247
79233W        W45774   3.141  44.246  10.626
79234W        W45775   7.258  30.599   4.026
79235W        W45776  28.030  33.503  13.286
79236W        W45777  39.911   6.404   3.701
79237W        W45778  34.697  17.017   2.692
79238W        W45779  23.122  28.143  13.814
79239W        W45780  40.071  36.390  13.441
79240W        W45781  21.208  22.166  12.723
79241W        W45782  23.196  16.314   2.365
79242W        W45783  13.077   3.164   1.931
79243W        W45784  19.024  34.874  14.800
79244W        W45785  40.168   8.186  14.412
79245W        W45786  11.626   6.364   0.914
79246W        W45787  26.695  41.994   0.917
79247W        W45788  27.612  24.994  12.911
79248W        W45789  39.579  35.807   3.725
79249W        W45790   7.129  22.493   2.617
79250W        W45791   2.299  42.020   2.309
79251W        W45792  24.065  13.771   1.103
79252W        W45793  26.962  17.372   2.733
79253W        W45794  44.873  31.611   0.764
79254W        W45795  21.635  39.461   3.582
79255W        W45796  24.678  31.480   1.870
79256W        W45797   7.486  17.203   2.717
79257W        W45798  26.572  18.313   1.063
79258W        W45799  10.591  43.342   0.038
79259W        W45800   2.397  13.789   0.424
79260W        W45801   8.103  30.977   3.568
79261W        W45802  17.311  31.062  14.856
79262W        W45803  29.828   3.613  11.538
79263W        W45804  32.296  35.409  10.720
79264W        W45805  22.251  34.451  12.510
79265W        W45806  42.224  24.274  11.602
79266W        W45807  32.543  43.189   3.621
79267W        W45808  28.473  13.845  10.740
79268W        W45809  13.178  38.901  11.901
79269W        W45810  43.804   9.905   0.893
79270W        W45811   8.316  13.631  13.113
79271W        W45812  28.588  10.381  12.585
79272W        W45813   4.781   7.130  14.563
79273W        W45814  42.525  42.838  12.452
79274W        W45815  37.934  24.878  12.972
79275W        W45816  25.690  10.601   0.452
79276W        W45817  10.322  24.576   1.903
79277W        W45818  29.992  27.677  14.285
79278W        W45819  21.256   9.283   2.710
79279W        W45820  31.383  29.338   3.918
79280W        W45821  33.385  28.209  10.365
79281W        W45822  29.861  28.335   3.614
79282W        W45823  42.413  13.793   3.712
79283W        W45824   4.282  44.493  14.464
79284W        W45825  34.273   2.253  12.958
79285W        W45826  21.627  21.076  11.174
79286W        W45827  14.569  21.462   0.480
79287W        W45828  28.046   3.752   3.984
79288W        W45829  39.806  27.460   0.712
79289W        W45830  24.018  33.267  11.914
79290W        W45831  14.066   8.017  13.345
79291W        W45832  13.788  42.989   3.270
79292W        W45833  25.468  15.816  11.332
79293W        W45834  10.333  14.542   2.675
79294W        W45835  21.570   1.947   1.347
79295W        W45836  33.464   7.776  13.310
79296W        W45837  28.081  37.889  11.576
79297W        W45838  15.889  25.550  12.846
79298W        W45839  12.342  25.255   1.312
79299W        W45840   2.983  13.685  11.320
79300W        W45841   2.257  17.770   0.042
79301W        W45842  39.194  11.235  11.503
79302W        W45843  19.821  13.290  11.696
79303W        W45844  10.235  42.517   0.502
79304W        W45845  37.123   3.222  14.448
79305W        W45846   6.040  43.709   2.206
79306W        W45847   7.307   7.175   4.181
79307W        W45848  29.741  11.546   5.491
79308W        W45849  39.277  29.897   4.840
79309W        W45850   0.262  16.705   0.130
79310W        W45851  22.868  37.304   0.775
79311W        W45852  10.302  30.106   4.757
79312W        W45853   0.368   2.471   3.144
79313W        W45854  10.865  11.477  10.675
79314W        W45855  12.658  43.537  14.390
79315W        W45856  18.627  40.059   1.933
79316W        W45857  21.594  29.871   1.402
79317W        W45858   7.970  26.886  12.044
79318W        W45859  32.994  12.528   1.462
79319W        W45860  11.654  15.782  14.398
79320W        W45861   8.287   6.289  12.885
79321W        W45862  38.767   5.841   2.319
79322W        W45863  29.489  21.660  13.478
79323W        W45864  22.658  28.184  13.634
79324W        W45865   7.618  15.238  14.383
79325W        W45866  22.315  44.841   1.147
79326W        W45867  43.909  32.702   1.739
79327W        W45868  44.464  34.825  11.610
79328W        W45869  40.357  35.731   4.630
79329W        W45870   8.531  36.016  14.816
79330W        W45871   9.109  28.932   2.442
79331W        W45872  14.338  24.336  12.898
79332W        W45873  40.716  44.273   3.250
79333W        W45874   6.427  25.535  14.237
79334W        W45875   8.808  43.685  12.022
79335W        W45876  33.296  24.579   0.897
79336W        W45877  31.254  28.498   1.779
79337W        W45878  33.347   2.503   1.034
79338W        W45879  33.348  24.039   4.334
79339W        W45880  27.546  43.524  10.374
79340W        W45881  23.238  35.094   0.507
79341W        W45882   8.013  31.112   1.780
79342W        W45883  19.112  28.526   3.184
79343W        W45884  19.619  18.179   0.122
79344W        W45885  35.563  24.964  14.548
79345W        W45886  25.990   7.198  12.942
79346W        W45887   5.256  32.262  11.731
79347W        W45888  24.830  33.084   0.464
79348W        W45889  30.509  43.678   1.967
79349W        W45890   4.987  24.758   3.816
79350W        W45891   4.458  34.321   4.247
79351W        W45892  32.987  42.903  12.618
79352W        W45893  13.702   2.804   1.270
79353W        W45894  12.289  20.290   2.403
79354W        W45895  19.011  40.426  11.933
79355W        W45896  31.246  30.489   2.860
79356W        W45897  42.340  30.081   1.751
79357W        W45898   1.328  11.185  11.439
79358W        W45899  43.355   8.014  13.212
79359W        W45900  17.990  29.856  10.967
79360W        W45901  37.030  37.863   4.196
79361W        W45902  22.300  39.034   0.966
79362W        W45903  33.108   4.820  12.867
79363W        W45904  42.430  15.662  11.168
79364W        W45905  26.384  35.466   4.559
79365W        W45906  19.520   6.980   5.557
79366W        W45907  34.799  28.917   3.692
79367W        W45908  38.921  16.703  11.656
79368W        W45909  12.599  21.939   0.839
79369W        W45910  18.179  43.503   1.983
79370W        W45911  24.853  36.957  14.829
79371W        W45912  14.593  42.470   3.358
79372W        W45913  41.351  32.150  11.609
79373W        W45914  22.402  13.696   3.847
79374W        W45915  31.076   3.513  14.719
79375W        W45916   3.215  36.644  14.549
79376W        W45917   2.988  24.503   1.846
79377W        W45918   0.354  19.218  12.576
79378W        W45919  32.012  18.560   2.232
79379W        W45920  27.225   4.361   0.546
79380W        W45921   6.848  17.663   4.703
79381W        W45922  10.587  18.143   1.452
79382W        W45923  30.000  11.146  11.138
79383W        W45924   1.778  42.183  11.157
79384W        W45925  22.144  15.337  13.286
79385W        W45926  35.670  42.400   2.801
79386W        W45927   5.509  21.117   4.718
79387W        W45928   0.477  32.142   1.308
79388W        W45929   8.408  42.990   3.996
79389W        W45930   8.707  43.438  14.921
79390W        W45931  12.454   4.375   1.665
79391W        W45932  12.191  22.265  14.650
79392W        W45933  39.310  11.258  12.474
79393W        W45934  25.210  17.057  10.987
79394W        W45935  15.624  25.600   4.786
79395W        W45936  38.082  28.693   1.213
79396W        W45937  10.308  42.749   2.864
79397W        W45938  23.923  15.250  12.465
79398W        W45939  14.826   8.424  12.625
79399W        W45940   0.494   2.451   1.177
79400W        W45941  33.666  20.498   2.751
79401W        W45942  40.508  35.948   2.842
79402W        W45943  44.360  20.651   4.632
79403W        W45944  38.624  40.864   3.743
79404W        W45945   4.076   3.405  11.198
79405W        W45946  12.208  28.187   1.967
79406W        W45947  36.359  14.573   4.193
79407W        W45948  17.726  21.704  13.772
79408W        W45949  18.797  12.529  14.435
79409W        W45950  19.566  27.597  13.991
79410W        W45951  31.157  38.358  12.831
79411W        W45952  17.488  44.284  12.172
79412W        W45953  39.749  15.754  12.573
79413W        W45954  36.080  23.553   1.788
79414W        W45955  23.745   0.883  12.594
79415W        W45956  13.792  29.874   2.292
79416W        W45957   7.610  31.667  14.444
79417W        W45958   7.660  15.293  11.898
79418W        W45959  41.395  42.291   4.053
79419W        W45960  38.562  40.442  12.054
79420W        W45961  35.984  14.652  13.213
79421W        W45962  34.450  33.168   1.075
79422W        W45963  43.425   4.410   3.978
79423W        W45964  14.879  13.706  12.348
79424W        W45965  16.817  18.814  14.674
79425W        W45966   2.912   2.338  14.595
79426W        W45967  43.810  37.187  10.410
79427W        W45968  44.297  36.202  14.564
79428W        W45969  29.710  10.818  13.594
79429W        W45970   2.204   5.437   4.580
79430W        W45971  21.990  25.810  12.914
79431W        W45972  18.508  21.043  11.620
79432W        W45973  25.373  10.144  12.921
79433W        W45974  20.279  30.177   3.802
79434W        W45975  18.750  43.296   3.729
79435W        W45976  43.060  38.712  14.446
79436W        W45977  20.623  18.995   2.331
79437W        W45978  10.079  30.576  11.564
79438W        W45979   6.182  15.306  14.176
79439W        W45980  34.817  32.568   2.815
79440W        W45981   4.941  29.654   0.901
79441W        W45982   0.423  19.501   3.924
79442W        W45983  32.919  29.892   4.878
79443W        W45984  18.571  35.878   1.776
79444W        W45985  16.300   5.096  11.906
79445W        W45986  30.609  38.423  10.669
79446W        W45987  29.097  33.680   4.609
79447W        W45988  10.688   2.930  10.670
79448W        W45989   4.519  16.621   0.023
79449W        W45990   3.923  34.475   4.175
79450W        W45991  16.378   0.459   3.115
79451W        W45992  40.330  35.879   0.816
79452W        W45993  33.439  15.564  12.551
79453W        W45994  31.572  38.401  14.460
79454W        W45995  26.415  18.704  11.532
79455W        W45996  15.650  23.565  13.341
79456W        W45997  18.688  32.076  10.635
79457W        W45998   3.243  19.693   1.991
79458W        W45999  44.586  41.648  13.065
79459W        W46000  20.319   8.208   1.375
79460W        W46001  17.056  34.325  14.401
79461W        W46002  13.706  14.701  14.729
79462W        W46003  11.422  32.055  11.553
79463W        W46004  32.072   2.152   9.888
79464W        W46005  44.676  23.102  11.995
79465W        W46006  30.953  40.843  13.288
79466W        W46007  32.995  26.991  14.465
79467W        W46008  28.527   6.784   3.215
79468W        W46009  14.321  15.718   1.696
79469W        W46010  27.622  24.627   0.259
79470W        W46011  17.828   6.276  13.825
79471W        W46012  38.966  20.758  11.243
79472W        W46013  35.716   7.163   4.032
79473W        W46014  32.476   0.257  14.870
79474W        W46015   8.281  37.005  14.278
79475W        W46016  41.789   8.287   3.093
79476W        W46017  26.502  34.831   0.358
79477W        W46018  32.699  21.572  13.885
79478W        W46019  17.597  20.737  11.314
79479W        W46020  29.127  11.216   4.606
79480W        W46021  44.212  29.456   4.297
79481W        W46022  21.154  44.132   2.149
79482W        W46023   8.440   2.242  11.839
79483W        W46024  17.240  41.249  12.064
79484W        W46025  15.759  10.124  11.597
79485W        W46026  40.225  23.081  14.592
79486W        W46027  22.582  37.327  11.558
79487W        W46028   4.376  30.933   0.759
79488W        W46029  11.015   2.045   3.739
79489W        W46030  22.105   7.179  13.573
79490W        W46031  36.893   5.178  13.051
79491W        W46032  26.291  39.484   3.248
79492W        W46033  22.364   3.996  13.348
79493W        W46034   2.637  34.860   0.916
79494W        W46035  13.707   3.272  14.996
79495W        W46036  44.760  16.830   0.165
79496W        W46037  41.888  30.026  14.006
79497W        W46038  32.591   6.191   0.939
79498W        W46039  37.432  32.895   2.114
79499W        W46040   5.875  22.595  13.529
79500W        W46041   5.393  28.347   2.840
79501W        W46042  24.682   3.192   4.874
79502W        W46043  29.626   9.387  13.930
79503W        W46044  42.027  23.168   2.182
79504W        W46045   6.694  20.410   0.468
79505W        W46046  36.262  10.977   4.735
79506W        W46047  19.038  11.413  13.031
79507W        W46048  33.357  24.138  11.552
79508W        W46049  23.721  17.264   3.170
79509W        W46050  11.854  22.930   0.253
79510W        W46051   5.421   5.564   0.868
79511W        W46052  33.536  28.712   2.944
79512W        W46053  10.950   3.441   0.746
79513W        W46054  15.173  44.558   2.029
79514W        W46055  16.302  10.679  14.482
79515W        W46056  27.884   2.172  14.463
79516W        W46057  25.259  42.853  14.716
79517W        W46058  30.963   1.653  13.493
79518W        W46059  29.033  30.965   1.018
79519W        W46060  25.765   9.410  12.582
79520W        W46061  20.789  15.174   0.349
79521W        W46062  11.834  43.438  10.764
79522W        W46063  40.906  29.737   3.122
79523W        W46064   2.804  19.172   2.467
79524W        W46065  17.514   6.246   2.812
79525W        W46066  22.276  22.628   5.037
79526W        W46067  10.395  11.207  14.557
79527W        W46068  28.095  38.252  14.007
79528W        W46069  38.233  24.111  13.390
79529W        W46070   9.732  30.825  14.202
79530W        W46071  19.106   0.292  12.973
79531W        W46072  28.029   7.355   0.213
79532W        W46073  21.465  43.085  13.392
79533W        W46074  14.554  43.487  13.329
79534W        W46075  20.572   1.431   4.847
79535W        W46076   7.266   2.076  13.777
79536W        W46077  20.573   0.271  11.474
79537W        W46078  19.854  43.530  12.000
79538W        W46079   8.826  27.645   0.386
79539W        W46080  27.132  19.742   1.589
79540W        W46081  20.072  20.500  12.670
79541W        W46082  40.972  36.008   1.444
79542W        W46083  25.450  44.884  12.941
79543W        W46084  37.028   2.376   4.580
79544W        W46085  34.145  22.911   0.346
79545W        W46086  26.149   7.902  14.953
79546W        W46087  35.600  18.830   2.268
79547W        W46088  25.481  21.204  11.499
79548W        W46089  17.138  18.857   0.855
79549W        W46090   2.434  31.451  11.832
79550W        W46091  24.526  18.046  10.811
79551W        W46092  10.154  19.035   1.753
79552W        W46093  12.934  21.658   2.169
79553W        W46094  37.043  41.159   3.494
79554W        W46095  32.020  17.814  12.007
79555W        W46096  35.612   5.941   5.325
79556W        W46097  27.938  23.974   1.443
79557W        W46098  13.801  19.802   1.835
79558W        W46099  15.221  21.220   3.791
79559W        W46100  10.855   6.352   2.022
79560W        W46101  28.609   9.967  11.616
79561W        W46102  28.917  30.929   4.100
79562W        W46103  32.550  40.422   3.684
79563W        W46104   4.006   8.503   1.314
79564W        W46105  33.863  23.870  13.977
79565W        W46106  41.502  36.483  10.466
79566W        W46107  24.854  37.000  11.738
79567W        W46108   1.305   0.284  12.035
79568W        W46109   0.459   2.819   0.824
79569W        W46110  13.686  14.774   3.619
79570W        W46111   1.308  43.333  13.140
79571W        W46112  11.412  30.912   3.231
79572W        W46113  11.760  34.419   2.671
79573W        W46114   1.687   9.426  14.737
79574W        W46115  40.511  31.422  10.654
79575W        W46116   4.111  30.531   0.510
79576W        W46117   9.639  28.228   1.818
79577W        W46118  19.443  30.131  12.591
79578W        W46119  34.005  30.344  13.500
79579W        W46120  38.777   4.672  14.503
79580W        W46121   7.905   5.853   4.883
79581W        W46122  32.078  35.930   4.253
79582W        W46123   2.771  38.572  12.912
79583W        W46124  40.586  30.627   0.923
79584W        W46125  17.823  31.904  11.803
79585W        W46126  28.636   7.765   0.879
79586W        W46127   9.848  31.898   1.247
79587W        W46128  29.658  32.256   4.558
79588W        W46129  23.558  10.336  13.525
79589W        W46130   6.410  43.021   5.063
79590W        W46131  28.653  39.185   0.985
79591W        W46132  15.604  33.733   1.600
79592W        W46133  27.177  12.217  10.625
79593W        W46134  41.850  11.070   0.306
79594W        W46135  10.174  33.114   1.056
79595W        W46136   9.439  18.779   4.128
79596W        W46137   9.891  17.609  11.024
79597W        W46138  41.780  13.009  11.146
79598W        W46139   4.930  17.627  12.621
79599W        W46140  43.838  19.342   2.963
79600W        W46141   3.922  23.763  13.335
79601W        W46142  21.301  41.006   1.178
79602W        W46143  26.848  44.961   3.649
79603W        W46144   6.998  20.186  13.340
79604W        W46145  25.972  22.683  12.490
79605W        W46146  27.719  34.865  12.425
79606W        W46147  15.244  40.427   1.679
79607W        W46148  11.303   0.530  12.029
79608W        W46149  40.540  36.085   3.716
79609W        W46150  18.680  20.286   0.407
79610W        W46151  26.084  36.523  14.063
79611W        W46152  21.019  23.954  12.484
79612W        W46153  30.687  26.447   1.761
79613W        W46154  41.294  22.638   0.438
79614W        W46155  28.229  35.841   4.488
79615W        W46156  41.973  24.638   4.059
79616W        W46157  43.315  24.021  12.914
79617W        W46158  38.058   8.541   2.613
79618W        W46159   9.403   5.372  14.904
79619W        W46160   6.316  24.750  12.854
79620W        W46161  42.412  24.071  12.956
79621W        W46162  18.040  13.204  11.651
79622W        W46163   3.957  24.068   2.449
79623W        W46164  17.292  24.682  11.093
79624W        W46165  35.304  35.379  11.017
79625W        W46166  10.159  29.100  13.941
79626W        W46167  23.813  44.336   0.877
79627W        W46168  17.156  21.733  12.150
79628W        W46169  28.990  34.431   0.712
79629W        W46170   8.253  43.348  10.683
79630W        W46171  15.171  24.196   4.180
79631W        W46172  22.520  10.022   0.727
79632W        W46173  29.664   1.257  12.730
79633W        W46174  17.902  35.887   3.801
79634W        W46175  13.695  31.138   0.313
79635W        W46176  26.600  31.518   0.864
79636W        W46177   0.931  44.513  12.418
79637W        W46178  42.279  24.540  12.802
79638W        W46179  25.706   3.665  10.721
79639W        W46180  21.650  39.790   1.031
79640W        W46181   6.342   2.049  13.542
79641W        W46182  24.235  17.493  13.473
79642W        W46183   4.378  33.861   1.348
79643W        W46184   5.423   7.150   0.003
79644W        W46185  21.211   0.261  12.145
79645W        W46186  16.731   0.819  14.738
79646W        W46187  25.613   3.733   4.682
79647W        W46188  12.224  14.105  12.478
79648W        W46189  38.445  22.560   0.415
79649W        W46190  12.843   9.302  11.140
79650W        W46191  10.403  13.785   1.371
79651W        W46192   6.963   2.426  12.049
79652W        W46193   2.666  19.223  12.957
79653W        W46194  41.572  17.199   1.810
79654W        W46195  36.893  31.962  10.771
79655W        W46196   2.968   4.103   4.101
79656W        W46197  22.166   8.054  11.890
79657W        W46198  23.709  22.698   4.176
79658W        W46199  16.211  28.207   4.372
79659W        W46200  27.576  25.664   4.546
79660W        W46201  32.131  34.941   2.654
79661W        W46202  15.692  41.416   3.500
79662W        W46203  17.037  16.204   4.612
79663W        W46204  12.872  23.485  13.421
79664W        W46205  41.978  22.134  12.143
79665W        W46206  14.542  15.337   1.964
79666W        W46207  43.816  41.367  13.130
79667W        W46208  12.653  20.328   2.796
79668W        W46209  12.617  34.106  11.256
79669W        W46210  26.982  44.759  11.942
79670W        W46211  33.341   0.841  14.767
79671W        W46212   6.352   9.186   4.191
79672W        W46213  36.468   5.028   2.676
79673W        W46214  39.900  26.662   1.342
79674W        W46215  37.693  24.861  12.538
79675W        W46216  22.607  39.984  14.238
79676W        W46217  41.752  31.511  14.945
79677W        W46218  39.245  16.310  13.989
79678W        W46219   1.376  23.488   2.857
79679W        W46220  10.192   9.021  13.447
79680W        W46221  22.475  39.549  12.088
79681W        W46222   0.460  41.866   2.298
79682W        W46223  41.641  36.587   4.009
79683W        W46224  42.615   1.770   1.395
79684W        W46225  21.366  21.328   2.377
79685W        W46226   0.368  35.758  14.757
79686W        W46227  27.705  16.534  12.123
79687W        W46228   7.466  28.700   1.736
79688W        W46229  38.814  36.358  12.708
79689W        W46230  23.724  22.721  11.944
79690W        W46231  42.511  32.408   3.210
79691W        W46232  32.272  24.649  14.468
79692W        W46233  34.643   3.925   4.337
79693W        W46234  40.421  41.245  14.210
79694W        W46235   0.923  33.117  10.667
79695W        W46236  20.249  39.811   1.271
79696W        W46237  43.145  38.914  11.475
79697W        W46238  39.961  29.231   1.620
79698W        W46239  12.299  36.784  12.093
79699W        W46240  43.966  31.675   1.956
79700W        W46241  13.709  22.508  12.842
79701W        W46242  13.326  17.779  13.346
79702W        W46243  22.752  25.161   0.926
79703W        W46244  14.784   9.698  13.964
79704W        W46245  29.002   4.040   3.681
79705W        W46246   9.580  17.366   4.488
79706W        W46247  14.802  16.859   3.707
79707W        W46248  38.497   2.186  10.593
79708W        W46249  23.085  37.146  14.045
79709W        W46250   1.805   8.711   4.413
79710W        W46251  44.214   3.889  14.880
79711W        W46252  15.338  20.627  14.336
79712W        W46253  19.267  27.702   0.302
79713W        W46254   7.061   1.776  14.189
79714W        W46255  19.184  20.826   2.830
79715W        W46256  11.307  41.102  14.562
79716W        W46257   6.481  31.417  13.817
79717W        W46258   5.698   8.778   0.216
79718W        W46259  29.595  14.305  13.300
79719W        W46260  29.115   9.087  14.302
79720W        W46261  11.534  41.235  10.562
79721W        W46262   6.022  12.367   4.538
79722W        W46263  41.986  22.357   3.533
79723W        W46264   3.870  15.557   2.791
79724W        W46265  22.075  38.925  14.536
79725W        W46266   3.894  17.052  12.266
79726W        W46267  17.034   5.729   9.962
79727W        W46268  25.946  28.159  11.981
79728W        W46269  21.318  13.639   5.062
79729W        W46270   6.685   1.387   0.252
79730W        W46271  15.647   7.554   1.006
79731W        W46272  21.249   0.216  11.014
79732W        W46273  29.588  42.077   4.620
79733W        W46274  23.200  11.896  11.810
79734W        W46275  39.887   2.308  14.800
79735W        W46276  24.170   1.666   2.735
79736W        W46277   5.732  10.189   3.601
79737W        W46278  22.788  19.114  14.244
79738W        W46279  32.913  19.924   2.409
79739W        W46280  33.022  24.852  12.048
79740W        W46281  22.015  10.093   0.196
79741W        W46282  35.143  33.907   1.440
79742W        W46283  41.426   2.519   2.336
79743W        W46284  30.530  36.989   3.263
79744W        W46285  17.624   3.717   4.876
79745W        W46286  35.122  37.258  11.170
79746W        W46287   2.258  35.964  13.406
79747W        W46288   3.189   3.686  14.488
79748W        W46289  15.456   5.731  10.575
79749W        W46290  35.337  34.939   0.923
79750W        W46291  31.968  38.103  11.130
79751W        W46292  39.441  42.027  13.989
79752W        W46293  38.341  21.638   2.211
79753W        W46294  44.127  13.895   3.892
79754W        W46295  43.529  32.980  12.652
79755W        W46296  33.112  26.484  13.875
79756W        W46297  39.487  42.537  10.778
79757W        W46298  24.740   6.694   2.627
79758W        W46299  10.236  29.124  10.464
79759W        W46300  16.528   4.734   3.245
79760W        W46301   1.312  38.794   2.962
79761W        W46302  16.125  34.805   4.182
79762W        W46303  35.538  22.003   1.267
79763W        W46304  40.782   5.627  11.553
79764W        W46305  35.929  29.201   4.784
79765W        W46306  28.400   9.745   3.593
79766W        W46307  39.306  24.211   4.096
79767W        W46308  11.237  30.351  14.882
79768W        W46309  36.135   0.795   2.218
79769W        W46310  42.096   3.401  14.815
79770W        W46311   6.379   8.594  13.445
79771W        W46312  36.425  17.783  13.879
79772W        W46313   3.739  34.162   1.187
79773W        W46314  18.468  29.173   1.856
79774W        W46315  40.276  27.709   0.645
79775W        W46316   3.895  12.892   0.723
79776W        W46317  29.996  23.687   0.787
79777W        W46318  21.055  17.347  13.202
79778W        W46319   1.967  40.497   0.695
79779W        W46320  31.521  32.511   0.649
79780W        W46321   2.782  25.335  13.818
79781W        W46322  36.938  32.457   4.690
79782W        W46323  42.739   9.820   4.743
79783W        W46324   5.693  37.878   4.629
79784W        W46325  13.331  33.103  14.966
79785W        W46326  27.688  30.949   3.516
79786W        W46327  19.437  12.876  13.313
79787W        W46328  35.401   1.332   0.786
79788W        W46329  11.798   3.663   0.192
79789W        W46330  24.481  19.790  11.544
79790W        W46331  31.658  11.349   1.351
79791W        W46332  10.835  32.839  12.628
79792W        W46333  32.089  30.858   0.406
79793W        W46334   9.225  35.996   4.507
79794W        W46335  36.437  21.306  10.261
79795W        W46336  37.413  31.024   2.220
79796W        W46337  21.574  32.105   3.705
79797W        W46338  31.242  27.433   0.580
79798W        W46339  20.123  34.158  14.997
79799W        W46340   4.901  18.530  12.135
79800W        W46341  19.802   9.675   1.112
79801W        W46342   8.343  29.895   3.649
79802W        W46343   5.914  19.012   4.159
79803W        W46344  27.980  36.426   4.561
79804W        W46345  13.269  21.001  13.799
79805W        W46346  19.695   6.493  11.551
79806W        W46347  26.804  35.294  10.959
79807W        W46348  31.252  34.949   2.234
79808W        W46349  41.747  21.585  12.188
79809W        W46350  34.034  12.829  12.022
79810W        W46351  41.715  25.957  14.033
79811W        W46352  29.173  26.425  14.468
79812W        W46353  14.174   2.325  12.059
79813W        W46354  23.983  11.841   4.083
79814W        W46355  17.635  17.154  13.123
79815W        W46356  14.880   2.795   0.359
79816W        W46357  12.044  15.401  14.523
79817W        W46358  27.271  27.203  11.255
79818W        W46359  38.257  30.885  12.023
79819W        W46360  36.081   7.803  10.693
79820W        W46361   4.012  23.388   4.986
79821W        W46362  39.064  36.904   0.532
79822W        W46363  32.053  26.985   4.538
79823W        W46364  27.900  31.025  11.534
79824W        W46365   4.545  10.242   4.908
79825W        W46366  25.108  41.892   0.074
79826W        W46367  32.115  30.572   2.376
79827W        W46368  20.841  36.047  11.550
79828W        W46369  36.495  22.193   0.471
79829W        W46370  20.019  40.753  12.068
79830W        W46371   0.870  39.962  13.123
79831W        W46372   4.548  32.563  12.566
79832W        W46373   1.260  22.411  14.905
79833W        W46374  35.921   9.303  11.641
79834W        W46375  17.928   2.748   2.670
79835W        W46376  35.478   3.190   0.181
79836W        W46377  28.526  41.521   3.687
79837W        W46378  19.347  16.264  12.056
79838W        W46379   9.712  16.221  12.576
79839W        W46380  23.697  32.427   4.571
79840W        W46381  34.857  33.873  14.942
79841W        W46382  23.622  22.906   3.723
79842W        W46383  37.949  26.028   0.760
79843W        W46384  31.712  39.557  13.269
79844W        W46385  31.960  13.320   3.659
79845W        W46386  36.998  42.868   1.573
79846W        W46387  43.820  23.614  10.628
79847W        W46388   8.418  17.290  11.485
79848W        W46389  31.536  14.108  11.996
79849W        W46390   3.848  44.964  13.585
79850W        W46391  44.817   0.185   4.884
79851W        W46392   4.943  41.526  10.594
79852W        W46393   5.880  39.461   3.671
79853W        W46394  44.453  35.652   1.276
79854W        W46395  15.304   0.333  11.945
79855W        W46396  15.207  24.218  14.461
79856W        W46397  36.441   3.868  13.345
79857W        W46398  36.456  17.150  12.690
79858W        W46399   4.360  15.680  14.816
79859W        W46400   4.630  42.754  11.768
79860W        W46401  43.971  31.505   0.802
79861W        W46402  10.313   7.761   3.663
79862W        W46403   0.726   5.972   1.428
79863W        W46404   5.784  37.900   0.490
79864W        W46405  28.713  25.104   2.158
79865W        W46406  42.812   5.335  10.622
79866W        W46407   0.974  43.470  10.542
79867W        W46408  30.974  19.327   4.780
79868W        W46409  25.935   3.251  14.009
79869W        W46410  38.491  37.969  11.886
79870W        W46411  34.350  44.763   2.748
79871W        W46412  29.544  28.959   4.908
79872W        W46413  44.085   8.542  13.567
79873W        W46414  31.520  15.249   0.141
79874W        W46415  30.168  30.583   0.767
79875W        W46416  15.057  41.960   2.412
79876W        W46417  13.017  31.380  13.058
79877W        W46418  44.884  22.105   1.932
79878W        W46419   9.614   4.614  11.993
79879W        W46420  23.002  35.481   3.132
79880W        W46421  44.359  19.518   0.414
79881W        W46422  13.169   6.986   2.286
79882W        W46423  28.460  39.864   0.274
79883W        W46424  15.640  30.649  14.480
79884W        W46425  38.089  10.044  14.152
79885W        W46426  10.672  29.502   3.548
79886W        W46427   0.708  35.568   2.815
79887W        W46428  34.136  24.972  13.380
79888W        W46429  36.479  41.888   3.727
79889W        W46430  16.682  38.843  11.442
79890W        W46431   7.284  38.823   0.240
79891W        W46432   4.752  18.801  14.725
79892W        W46433   7.592  29.418   4.708
79893W        W46434   8.661  27.566  14.367
79894W        W46435  31.042   1.550   4.585
79895W        W46436  32.341  11.070   0.450
79896W        W46437  21.191   3.640   1.750
79897W        W46438  44.301   5.527  12.423
79898W        W46439  12.409  37.531   1.818
79899W        W46440  40.185  29.224  11.258
79900W        W46441  43.737  17.139  13.623
79901W        W46442  15.592  19.460  12.516
79902W        W46443  15.642  23.842  11.617
79903W        W46444  36.048  32.331  10.821
79904W        W46445  43.724  36.648   3.819
79905W        W46446  39.132  38.551   3.822
79906W        W46447  26.741  17.237   3.176
79907W        W46448  42.269  15.905   4.256
79908W        W46449  22.173  23.962  12.926
79909W        W46450  24.961  10.583  12.119
79910W        W46451  24.673  42.875  13.829
79911W        W46452  38.084  18.553   4.502
79912W        W46453  32.034  38.552  12.045
79913W        W46454  35.329   6.254   3.220
79914W        W46455  41.291  25.533  10.995
79915W        W46456  13.838  29.918   3.162
79916W        W46457  38.608  42.734   4.589
79917W        W46458  40.240  18.757   2.162
79918W        W46459   4.639   7.101  12.078
79919W        W46460   4.250  32.493  10.621
79920W        W46461  14.912   3.526  14.936
79921W        W46462   5.865  26.356  13.204
79922W        W46463  30.489  14.498  14.254
79923W        W46464  27.169  19.366  14.371
79924W        W46465  28.115  37.131  11.138
79925W        W46466   0.256  16.553  14.278
79926W        W46467   5.085  43.889   4.562
79927W        W46468  28.582   7.490   4.589
79928W        W46469  13.816  39.124   3.387
79929W        W46470  11.867   7.985   2.860
79930W        W46471  16.756   1.146   3.836
79931W        W46472   8.610   9.612  10.560
79932W        W46473  44.429  13.121   4.353
79933W        W46474  33.978   6.029   0.734
79934W        W46475  25.673  28.586  12.747
79935W        W46476  16.064  35.008   5.397
79936W        W46477  20.702  44.368   0.897
79937W        W46478  20.323  26.989   3.421
79938W        W46479  21.086  39.112  11.642
79939W        W46480   7.455  40.971   3.903
79940W        W46481   0.725  21.371  13.036
79941W        W46482  30.607  44.995   4.115
79942W        W46483  22.676   3.721  10.529
79943W        W46484  44.531  37.422   2.671
79944W        W46485  18.793  24.142   3.876
79945W        W46486  14.407   8.042   0.829
79946W        W46487  38.144  18.698  10.671
79947W        W46488  29.917  31.649   4.188
79948W        W46489  25.660  24.841  14.305
79949W        W46490   1.323  42.027  13.998
79950W        W46491  41.767   5.223   3.256
79951W        W46492  21.073   1.383   4.777
79952W        W46493   6.837  32.788  12.465
79953W        W46494  41.067  14.774  12.989
79954W        W46495  22.682  14.141  12.942
79955W        W46496  32.045  36.508  14.797
79956W        W46497   2.113   2.661  14.875
79957W        W46498  30.836  21.329   2.819
79958W        W46499  22.809   7.021   2.407
79959W        W46500  28.920  38.474   0.427
79960W        W46501  16.504   7.177   2.797
79961W        W46502  42.664   4.354  14.877
79962W        W46503   5.586  12.360   2.439
79963W        W46504   7.602   8.419  11.350
79964W        W46505  18.807  20.700   3.253
79965W        W46506  16.106  30.661  13.307
79966W        W46507   4.304  40.893  11.489
79967W        W46508  10.366  11.246   0.953
79968W        W46509  35.866  40.947  11.598
79969W        W46510  24.701   7.213   1.921
79970W        W46511  19.687   5.268  10.660
79971W        W46512  11.317  16.716  12.976
79972W        W46513  26.497  15.717  14.823
79973W        W46514   3.030  27.225  13.556
79974W        W46515  30.658  25.227  12.108
79975W        W46516  15.106  19.455   1.837
79976W        W46517  13.491  32.271  10.409
79977W        W46518  21.243   0.735   2.403
79978W        W46519  23.057  21.842   1.728
79979W        W46520  10.644  11.014  10.776
79980W        W46521  32.950   2.371  13.433
79981W        W46522   0.162  16.859  10.549
79982W        W46523  41.731  35.372   2.703
79983W        W46524  31.433   2.211  11.975
79984W        W46525  34.100  30.481  11.172
79985W        W46526  33.554  24.763   3.148
79986W        W46527  37.800  22.162   4.062
79987W        W46528  25.192   7.040  12.293
79988W        W46529  19.629  43.291  11.592
79989W        W46530  44.956  17.291  12.397
79990W        W46531  11.860  26.124  10.594
79991W        W46532  34.664  38.531   0.186
79992W        W46533  13.327   3.203  14.028
79993W        W46534   0.754  12.606  14.232
79994W        W46535  19.782  22.898   1.687
79995W        W46536   7.641  27.244  11.896
79996W        W46537  18.105  31.361  13.926
79997W        W46538   0.360  37.099  10.741
79998W        W46539   2.295  39.754  14.396
79999W        W46540  16.334  44.544  11.495
80000W        W46541  24.586  11.485  10.863
80001W        W46542  13.597  28.196   2.749
80002W        W46543  32.764  27.393   3.796
80003W        W46544  18.709  12.757  12.624
80004W        W46545  23.051  36.945  12.951
80005W        W46546  13.372   3.609  11.059
80006W        W46547   1.201  29.054   0.806
80007W        W46548  22.352   7.478   0.331
80008W        W46549  41.954  13.635  12.449
80009W        W46550  30.451  28.156   2.859
80010W        W46551  33.834  41.003   4.096
80011W        W46552  34.371  25.875   4.497
80012W        W46553  23.583  15.711  11.564
80013W        W46554   2.950  39.035   2.189
80014W        W46555  13.344  36.009   3.313
80015W        W46556  27.573  25.814  14.937
80016W        W46557  12.276  38.389  12.016
80017W        W46558  12.361   8.741   4.990
80018W        W46559   0.013   9.889   0.220
80019W        W46560  26.255  10.203  14.499
80020W        W46561  10.129  27.904  13.023
80021W        W46562  34.541  11.211  14.801
80022W        W46563  13.835  38.122  13.970
80023W        W46564  34.474  39.498  14.396
80024W        W46565   8.726   8.348   2.357
80025W        W46566  16.731  17.574  12.108
80026W        W46567  20.860  27.689  13.458
80027W        W46568  39.890   9.214   0.522
80028W        W46569  40.556  22.010   2.780
80029W        W46570  23.049  24.223  13.438
80030W        W46571  20.436  38.557   0.212
80031W        W46572  12.230   0.554  14.108
80032W        W46573  27.138  27.325  12.264
80033W        W46574  16.321  43.840  13.797
80034W        W46575  24.474  27.503  14.069
80035W        W46576  38.989  38.088   2.194
80036W        W46577   7.062   4.208   2.211
80037W        W46578   9.401  12.698   4.223
80038W        W46579   8.979   9.176  14.661
80039W        W46580  23.119  16.044  14.814
80040W        W46581   1.694  26.265   3.140
80041W        W46582  17.255  21.426   2.118
80042W        W46583   0.340  16.805   1.847
80043W        W46584  18.614  11.159   4.251
80044W        W46585  12.053  22.461   1.741
80045W        W46586  27.114  19.078  14.824
80046W        W46587  29.474   6.299  13.167
80047W        W46588  29.063  31.067   4.584
80048W        W46589  41.858  42.100  13.294
80049W        W46590  12.805  12.855  12.894
80050W        W46591  32.601  20.623  13.926
80051W        W46592  22.086  21.067  10.035
80052W        W46593  43.163   3.354  10.192
80053W        W46594   6.628   5.851  11.060
80054W        W46595  10.328  28.323   2.879
80055W        W46596  37.799  26.971   2.623
80056W        W46597  35.581   7.153   1.256
80057W        W46598  36.918  13.372   0.317
80058W        W46599  42.838   2.775  11.512
80059W        W46600   1.851   4.129  10.693
80060W        W46601  43.481  25.615  14.746
80061W        W46602  30.158  35.239   4.822
80062W        W46603  11.274   8.439  11.143
80063W        W46604   1.360   1.737  14.462
80064W        W46605  10.826  12.928   0.398
80065W        W46606  22.542  41.892   4.113
80066W        W46607  12.107  35.934   2.630
80067W        W46608  10.295  10.609   3.586
80068W        W46609  10.873   3.662  14.042
80069W        W46610  16.530  12.053  12.662
80070W        W46611  28.593  36.088  11.952
80071W        W46612   8.496  14.089   4.320
80072W        W46613   1.311   7.094   3.161
80073W        W46614  18.677  17.494   4.404
80074W        W46615  40.063  28.309   2.745
80075W        W46616  24.194   3.265   0.360
80076W        W46617   4.738  42.488   4.579
80077W        W46618  32.103   5.764  10.185
80078W        W46619   0.887  39.411   3.063
80079W        W46620  35.219  36.382  12.079
80080W        W46621  14.149  41.690  11.770
80081W        W46622  33.488  36.349   3.674
80082W        W46623  16.268  38.068   1.484
80083W        W46624   7.364  37.873  10.299
80084W        W46625  43.843  17.316   4.088
80085W        W46626  21.573  21.470  12.482
80086W        W46627  24.433  17.704  13.046
80087W        W46628  18.806  24.224  13.847
80088W        W46629  33.807  21.970   0.445
80089W        W46630  29.873  22.878   5.032
80090W        W46631  17.087  10.236   0.448
80091W        W46632  22.127   1.297   2.889
80092W        W46633  26.522  10.941   2.681
80093W        W46634  25.468   2.011   1.760
80094W        W46635   9.466   9.951  11.430
80095W        W46636   8.652   3.470   3.337
80096W        W46637  40.853   0.346  13.612
80097W        W46638  39.321   3.745   4.656
80098W        W46639  22.492   3.950   3.254
80099W        W46640  41.980   6.893  11.994
80100W        W46641  30.172  22.503   4.182
80101W        W46642  13.251   9.951   0.441
80102W        W46643  35.455   4.205  13.366
80103W        W46644  36.353  17.974   4.183
80104W        W46645  40.961  44.022  11.909
80105W        W46646  24.487  43.255  10.829
80106W        W46647  28.527  30.411  12.470
80107W        W46648   9.815  36.601  12.126
80108W        W46649  10.195  41.542  12.387
80109W        W46650  14.686   6.782   1.203
80110W        W46651  37.008  23.338   2.443
80111W        W46652   4.242   6.272   1.406
80112W        W46653  18.203   1.909   0.861
80113W        W46654  32.659  31.693   2.226
80114W        W46655   8.296  18.231  11.627
80115W        W46656  35.930  43.302  13.458
80116W        W46657  42.357  16.853   1.681
80117W        W46658  26.168   7.503  12.565
80118W        W46659   6.442  24.068  12.589
80119W        W46660  22.468  25.495   2.549
80120W        W46661  19.555  22.137  11.953
80121W        W46662   2.017  41.506  11.644
80122W        W46663   2.652  11.905  13.472
80123W        W46664   8.316   1.118  12.393
80124W        W46665  25.783  39.456   0.793
80125W        W46666  33.659  18.725   4.167
80126W        W46667  16.052  44.996   1.858
80127W        W46668  23.285  25.962  14.735
80128W        W46669  19.208   8.185  12.112
80129W        W46670   9.901  14.630   4.806
80130W        W46671  18.617   6.951   0.757
80131W        W46672  19.049   9.356   4.177
80132W        W46673  26.069   3.488   2.617
80133W        W46674  16.978   0.820  12.345
80134W        W46675  41.837  42.284   2.198
80135W        W46676  16.833  36.407   1.444
80136W        W46677  35.808   6.266   0.338
80137W        W46678   8.799   4.773  13.337
80138W        W46679  11.456  22.793  11.232
80139W        W46680  28.160   7.793   4.572
80140W        W46681  33.106  42.914   4.267
80141W        W46682  29.901  37.547   0.280
80142W        W46683  37.805  19.026   0.891
80143W        W46684  13.628  23.533   4.076
80144W        W46685  40.748   5.461  12.081
80145W        W46686  29.997   2.959   3.066
80146W        W46687   3.240  30.908   1.807
80147W        W46688  36.510  18.198  12.470
80148W        W46689  28.577  36.524   2.568
80149W        W46690  19.112  26.991   1.905
80150W        W46691  25.417  32.613   2.806
80151W        W46692   1.483  25.033   5.425
80152W        W46693  10.154   7.602   3.171
80153W        W46694  41.827  12.934  13.086
80154W        W46695  11.387  18.700   3.897
80155W        W46696  36.052  40.291  13.850
80156W        W46697  27.444  12.404  10.222
80157W        W46698  37.782   1.376   4.822
80158W        W46699  23.187  39.848  14.794
80159W        W46700   8.973  23.070   3.180
80160W        W46701   4.277  29.871  13.994
80161W        W46702  27.086  30.065   0.473
80162W        W46703  29.855   9.214   3.896
80163W        W46704  39.281  42.683   2.825
80164W        W46705  28.201   4.678  14.412
80165W        W46706  34.702  26.889   2.231
80166W        W46707  24.001   2.647   1.944
80167W        W46708   6.585  37.328  12.059
80168W        W46709  26.284  17.721   3.735
80169W        W46710  26.551  21.263   0.438
80170W        W46711  12.339  14.888   3.846
80171W        W46712  18.728   9.138  12.037
80172W        W46713  22.299   4.793  13.417
80173W        W46714  11.265  21.797  14.878
80174W        W46715  21.745   5.301  13.957
80175W        W46716  33.424  17.310  12.043
80176W        W46717  41.164   0.370  11.037
80177W        W46718   4.306  15.860   2.814
80178W        W46719  33.453   8.085  14.455
80179W        W46720  32.480  30.092  14.618
80180W        W46721   9.037  34.890   3.585
80181W        W46722  29.928  35.030  12.474
80182W        W46723  35.086  19.020  14.956
80183W        W46724  10.734  30.737   4.525
80184W        W46725  21.994  29.622   1.155
80185W        W46726  40.517  34.604  11.205
80186W        W46727  10.672  23.411  10.538
80187W        W46728  39.732   2.885  13.892
80188W        W46729  17.447  42.705   0.744
80189W        W46730  15.529  40.325   2.522
80190W        W46731  38.823  20.837  14.778
80191W        W46732  19.722  39.090  14.087
80192W        W46733  34.132  10.922   0.349
80193W        W46734  42.886  12.146   4.727
80194W        W46735  25.757  33.439   2.278
80195W        W46736  14.965  29.335  14.956
80196W        W46737  12.075  13.179  12.485
80197W        W46738  30.278  29.590   2.427
80198W        W46739  22.778   1.759  10.644
80199W        W46740   2.206   9.350   1.254
80200W        W46741  16.159  19.190   1.441
80201W        W46742   1.532  31.204   4.814
80202W        W46743  30.690  29.532   0.724
80203W        W46744  30.887  24.193  13.427
80204W        W46745  10.629   3.369   1.183
80205W        W46746  23.694   5.247  12.579
80206W        W46747  42.427  34.530  11.000
80207W        W46748   6.378  44.608   1.811
80208W        W46749  43.094   3.731  10.703
80209W        W46750   6.999  21.212  13.098
80210W        W46751  12.549   7.240  13.772
80211W        W46752  29.779  34.629   3.634
80212W        W46753  20.603  35.247  12.590
80213W        W46754  21.729  15.016   2.276
80214W        W46755  26.853  15.740  10.157
80215W        W46756  36.284  20.535   4.852
80216W        W46757  18.084  27.010  12.712
80217W        W46758   9.964  15.715   2.201
80218W        W46759  17.863   0.343  13.419
80219W        W46760  36.632  20.145   2.687
80220W        W46761  41.208   5.432  13.892
80221W        W46762  36.079  40.954  13.011
80222W        W46763  42.723  11.254   9.525
80223W        W46764  41.485  24.704  11.618
80224W        W46765   9.748   2.419   4.413
80225W        W46766  42.823   5.647  13.348
80226W        W46767  11.703  40.822   3.221
80227W        W46768   3.899  24.459  11.194
80228W        W46769  12.783  30.942  10.317
80229W        W46770   8.217  24.712   0.397
80230W        W46771  20.449   3.391   0.314
80231W        W46772   3.976  14.077  13.841
80232W        W46773   2.999  15.813   2.455
80233W        W46774   9.635  19.505   4.130
80234W        W46775  32.957  27.146   0.829
80235W        W46776   0.977  38.012  12.783
80236W        W46777  16.348  19.252   4.135
80237W        W46778  10.888   5.859   1.817
80238W        W46779  22.646   2.276  13.952
80239W        W46780   6.276  10.710   3.984
80240W        W46781  28.924   7.323   2.096
80241W        W46782  36.479  35.596  13.067
80242W        W46783  15.249  21.110  14.897
80243W        W46784  35.430  12.844   0.421
80244W        W46785  40.777  18.720  14.996
80245W        W46786  14.746  16.013   2.362
80246W        W46787  33.248   9.715  14.063
80247W        W46788  42.975  16.585  13.871
80248W        W46789   4.727  36.998   0.669
80249W        W46790  22.386  18.777  13.958
80250W        W46791  26.008   5.215   4.554
80251W        W46792  17.196   4.221  11.591
80252W        W46793   3.573   8.910  12.481
80253W        W46794  28.004  39.278  13.552
80254W        W46795  17.302  25.728  13.424
80255W        W46796  26.414   0.026  13.829
80256W        W46797  43.622   0.379  10.714
80257W        W46798  39.582   3.282   3.671
80258W        W46799  18.694  22.954  11.552
80259W        W46800   2.370   4.214  11.459
80260W        W46801  19.387  13.325  12.998
80261W        W46802   4.179  18.240   0.775
80262W        W46803   5.345  26.313  11.346
80263W        W46804  21.583  43.933   1.877
80264W        W46805  27.233  41.356  14.995
80265W        W46806   5.845  39.878  11.388
80266W        W46807  34.192   1.872   4.534
80267W        W46808  22.351  15.675   5.415
80268W        W46809  39.912  19.221   2.566
80269W        W46810  22.291  14.605   3.652
80270W        W46811  20.958  22.526  14.041
80271W        W46812   2.757  11.251   4.825
80272W        W46813   0.082   5.432  11.144
80273W        W46814   7.217  14.063   3.398
80274W        W46815   4.867  41.662  12.558
80275W        W46816  18.335  37.546   4.625
80276W        W46817   8.481  17.165   0.486
80277W        W46818  24.108   7.142   0.375
80278W        W46819  19.391  42.332  14.528
80279W        W46820  24.636   2.287   2.456
80280W        W46821  12.516  44.543   2.182
80281W        W46822  28.096  12.863   3.485
80282W        W46823  15.576  37.323  14.499
80283W        W46824  43.888  26.161   4.785
80284W        W46825  34.360  35.538  13.070
80285W        W46826   9.989   4.679  13.042
80286W        W46827  36.211  20.534   3.577
80287W        W46828  43.326  36.987   3.902
80288W        W46829   5.253   6.009   1.805
80289W        W46830  32.380  20.024   2.284
80290W        W46831  36.844  16.159  13.166
80291W        W46832  44.709   7.689   3.147
80292W        W46833  15.800   3.722   0.777
80293W        W46834  23.205   8.786   1.767
80294W        W46835   4.985  22.002  11.149
80295W        W46836  37.317  22.978  14.424
80296W        W46837  41.911  14.803   3.573
80297W        W46838  18.654  15.545  11.783
80298W        W46839  27.423   7.307  14.445
80299W        W46840  38.386   6.738  11.259
80300W        W46841  38.603   2.168  12.127
80301W        W46842  10.194  27.540  11.135
80302W        W46843  25.965  43.971  13.886
80303W        W46844  43.464  11.802   3.604
80304W        W46845  25.175  11.891  13.500
80305W        W46846  41.252  26.088   3.273
80306W        W46847  29.976  17.568   1.068
80307W        W46848   9.121  23.747   1.910
80308W        W46849  16.319  34.854   1.132
80309W        W46850  13.721   9.164  13.238
80310W        W46851  13.146  34.931   0.979
80311W        W46852  26.788   8.926  14.429
80312W        W46853  11.047  28.216  12.996
80313W        W46854  24.030  17.226  10.749
80314W        W46855  20.040  23.317   4.695
80315W        W46856  32.951   7.360  12.420
80316W        W46857   6.098  16.367  11.610
80317W        W46858  16.856   9.680   3.311
80318W        W46859  23.068  37.174  11.637
80319W        W46860  16.257  17.790  10.438
80320W        W46861  33.022  25.634  11.435
80321W        W46862  25.227  13.672  13.989
80322W        W46863  42.712  31.884  12.128
80323W        W46864  35.260  43.176  13.097
80324W        W46865  43.227  14.622   5.008
80325W        W46866  37.035   0.298   3.849
80326W        W46867  37.783  23.836  13.553
80327W        W46868  33.679  17.580   1.246
80328W        W46869   9.247   3.046  14.042
80329W        W46870  19.540   0.125  11.645
80330W        W46871  41.924  37.117  14.541
80331W        W46872  27.460  24.662  11.350
80332W        W46873  25.463  44.736  13.845
80333W        W46874  22.542  30.892   2.748
80334W        W46875   3.284   0.923  11.107
80335W        W46876  16.564   2.185   2.706
80336W        W46877  31.582  41.809   4.621
80337W        W46878   7.169  38.160   3.124
80338W        W46879  33.514  36.608   2.193
80339W        W46880  13.339  14.825   0.917
80340W        W46881  16.436  28.203  14.335
80341W        W46882  19.717  12.118  13.008
80342W        W46883  29.875  19.502  14.755
80343W        W46884  14.015  13.875  12.462
80344W        W46885  16.208   2.727  14.665
80345W        W46886  15.507  28.698  13.518
80346W        W46887  42.448  20.110   1.590
80347W        W46888   4.412  12.338  14.908
80348W        W46889  16.689   1.648   0.894
80349W        W46890  16.292  27.536  11.945
80350W        W46891  28.093   9.884   0.732
80351W        W46892  26.071   1.875   4.202
80352W        W46893  24.040  32.539  13.546
80353W        W46894  22.537  39.382   1.651
80354W        W46895  25.717  14.294   3.692
80355W        W46896  26.622  11.939   4.601
80356W        W46897  42.471  10.715  11.963
80357W        W46898  29.703  17.842   3.302
80358W        W46899  43.076  44.397   2.189
80359W        W46900  40.448   9.732   3.264
80360W        W46901   8.637  33.128   1.860
80361W        W46902  26.634  42.188  13.914
80362W        W46903  36.352  20.185  10.640
80363W        W46904  19.981  41.676  12.406
80364W        W46905   0.275  39.627  11.199
80365W        W46906  33.914  10.111   2.726
80366W        W46907  43.794  22.740  10.950
80367W        W46908  31.029  33.882   1.446
80368W        W46909  42.977   9.289   2.160
80369W        W46910  22.141  12.741  13.416
80370W        W46911  18.598  28.146  13.490
80371W        W46912  40.830  13.567  12.410
80372W        W46913  33.961  29.217   0.318
80373W        W46914  22.561  34.036   4.185
80374W        W46915  32.589   5.722   3.223
80375W        W46916  21.697   0.903  11.566
80376W        W46917  42.319   4.204   3.094
80377W        W46918  21.912  27.244   2.451
80378W        W46919  37.747  24.301  13.363
80379W        W46920  23.714   5.448  13.068
80380W        W46921   8.823  20.994   4.113
80381W        W46922   6.397  19.135   2.955
80382W        W46923  23.433   5.748  11.695
80383W        W46924  42.738  22.663  11.590
80384W        W46925  16.227  21.451   4.064
80385W        W46926   6.189   7.575   5.101
80386W        W46927  31.802   4.199  13.080
80387W        W46928  10.793  21.711   3.768
80388W        W46929  10.738  26.229   1.283
80389W        W46930  37.051  12.420  10.206
80390W        W46931  35.909   5.584   5.118
80391W        W46932  20.815  22.548   2.207
80392W        W46933  13.355  17.907  14.729
80393W        W46934   2.734   0.766   5.017
80394W        W46935  29.917  19.330  14.232
80395W        W46936  33.222  25.525   0.892
80396W        W46937  16.226   5.276   2.792
80397W        W46938  31.399   3.697  10.072
80398W        W46939  23.729   8.717  13.553
80399W        W46940  10.612   7.773   0.250
80400W        W46941   5.312  28.820  11.121
80401W        W46942  13.629  18.821  12.118
80402W        W46943  10.215   2.777  12.997
80403W        W46944  38.758  39.793  11.500
80404W        W46945  34.527  37.142   3.661
80405W        W46946  38.845  43.502   4.502
80406W        W46947  29.899  19.956   0.012
80407W        W46948  25.559  40.094  13.140
80408W        W46949  26.313   4.023   4.123
80409W        W46950   7.363  27.433  13.193
80410W        W46951  14.586  37.062   1.410
80411W        W46952   0.720  33.375   3.091
80412W        W46953  14.627   0.531  12.470
80413W        W46954  40.218  39.456  13.509
80414W        W46955  34.382   8.343   2.346
80415W        W46956  15.599  12.298  11.188
80416W        W46957  29.427  31.420   4.133
80417W        W46958  13.702  40.262  12.418
80418W        W46959  13.229  32.898   0.484
80419W        W46960  24.218  43.324   1.267
80420W        W46961  31.818  20.132   2.585
80421W        W46962  38.391  43.996   1.732
80422W        W46963  10.175  17.553   0.877
80423W        W46964  41.319  35.701   4.061
80424W        W46965  42.053  10.876   0.751
80425W        W46966  19.812  39.119  12.705
80426W        W46967  36.093   8.042  12.196
80427W        W46968  29.847  14.756   1.877
80428W        W46969  28.383   1.430   4.147
80429W        W46970  10.113  40.113   4.026
80430W        W46971  20.861  21.789   3.518
80431W        W46972  44.108  13.354  14.907
80432W        W46973  40.893  32.802  14.986
80433W        W46974  16.182   9.255   0.688
80434W        W46975  36.854  43.233   1.949
80435W        W46976  34.079  10.448   1.444
80436W        W46977  43.518   2.938  10.385
80437W        W46978   0.639  26.611  11.387
80438W        W46979  28.647  34.362  12.497
80439W        W46980  41.932  38.243   0.419
80440W        W46981   9.128  34.591  12.924
80441W        W46982  18.194   0.390  12.978
80442W        W46983  11.828  14.137   5.075
80443W        W46984   0.933  27.992   2.437
80444W        W46985  11.780  38.450   1.824
80445W        W46986  28.079  16.228   0.216
80446W        W46987  15.578  19.984  12.419
80447W        W46988  36.993  22.724  13.314
80448W        W46989  10.779  20.304   3.645
80449W        W46990  21.233  32.026   4.737
80450W        W46991  10.580  22.982   3.433
80451W        W46992  22.826  28.864  12.482
80452W        W46993   5.837  16.273   4.020
80453W        W46994  20.686  11.279  12.913
80454W        W46995  35.076   8.594  12.142
80455W        W46996  11.632  20.222  12.047
80456W        W46997   9.184  44.951  13.576
80457W        W46998  23.195  18.630   3.638
80458W        W46999  20.548  35.850  14.349
80459W        W47000  10.664   1.563  10.567
80460W        W47001   1.304  43.502   0.662
80461W        W47002  40.898   6.113  14.676
80462W        W47003  28.053  14.085  12.519
80463W        W47004  37.899  12.150   0.403
80464W        W47005  21.732  24.611   4.089
80465W        W47006  17.757  41.334  14.756
80466W        W47007  39.652   1.500   3.802
80467W        W47008  42.056  17.244   0.400
80468W        W47009  31.436  39.035  11.600
80469W        W47010  39.799  17.675  10.216
80470W        W47011   9.372   9.416   2.837
80471W        W47012  33.275  30.456   3.679
80472W        W47013  29.609  38.294  14.068
80473W        W47014   9.890  13.733   4.211
80474W        W47015  40.554  24.636   4.756
80475W        W47016   1.178   6.165   4.337
80476W        W47017  11.704  28.048   1.766
80477W        W47018  17.209  25.468  14.924
80478W        W47019  32.863  27.508   1.856
80479W        W47020  43.529  17.025   1.380
80480W        W47021  28.230  12.399   3.196
80481W        W47022   1.412  19.089  12.820
80482W        W47023  24.422  34.991   3.346
80483W        W47024   8.708  21.349   3.759
80484W        W47025  17.965  11.293  11.591
80485W        W47026  12.268   7.995   2.086
80486W        W47027  20.647  13.684   4.463
80487W        W47028   0.199  17.464  14.522
80488W        W47029  35.253  23.797  11.570
80489W        W47030  10.363  22.167   2.699
80490W        W47031  14.339  14.027   2.167
80491W        W47032  41.916  17.044   5.074
80492W        W47033  33.332  19.629  12.984
80493W        W47034  11.748  38.134   4.822
80494W        W47035  24.396  20.545   3.266
80495W        W47036  44.884  14.128   0.422
80496W        W47037   7.587   6.350  13.344
80497W        W47038   0.148   9.838   0.765
80498W        W47039  30.844  16.544   1.665
80499W        W47040  18.163  38.848   4.591
80500W        W47041  17.184  20.810   4.158
80501W        W47042   4.196  14.827   3.702
80502W        W47043  14.358  44.515  12.512
80503W        W47044  31.654  18.907  13.322
80504W        W47045  21.028  37.141  11.550
80505W        W47046  11.360  29.026  13.392
80506W        W47047  38.333  24.862   0.320
80507W        W47048  28.612  10.313   2.110
80508W        W47049  24.439  27.971   2.269
80509W        W47050   2.617  37.677   2.307
80510W        W47051  17.679  36.387   3.784
80511W        W47052   2.787  38.910   2.644
80512W        W47053  13.617  37.642  14.027
80513W        W47054  41.662  13.962   1.241
80514W        W47055   5.214  13.688  10.772
80515W        W47056  13.349  18.683  12.929
80516W        W47057   4.509  40.516  11.973
80517W        W47058  40.741  14.329   1.308
80518W        W47059  19.650  41.271  10.723
80519W        W47060  12.339   8.407  12.056
80520W        W47061  39.989   9.903  14.890
80521W        W47062  22.601  23.526  14.480
80522W        W47063  35.819   1.080   1.006
80523W        W47064   6.409  43.443   2.467
80524W        W47065  17.837   4.886   1.763
80525W        W47066  10.923  26.327   4.846
80526W        W47067  23.157  13.337  11.593
80527W        W47068  44.466  36.614  12.560
80528W        W47069  20.624  34.122   1.775
80529W        W47070  35.680  22.098  12.087
80530W        W47071  12.783  37.493  13.195
80531W        W47072   3.968  40.038  10.697
80532W        W47073  32.562  18.361   0.491
80533W        W47074  27.003   9.884   4.146
80534W        W47075  44.430   5.308  12.862
80535W        W47076   3.649   8.133   3.268
80536W        W47077  40.416   1.292  12.398
80537W        W47078   9.901  20.275   2.254
80538W        W47079  17.117  28.941  10.630
80539W        W47080  37.602  35.179   1.512
80540W        W47081  40.580  24.859   4.264
80541W        W47082  14.396   2.034  12.413
80542W        W47083  29.480  37.322   3.244
80543W        W47084  44.987  34.009   1.691
80544W        W47085  29.758  12.500  12.096
80545W        W47086  17.706  30.015   2.691
80546W        W47087  30.188  17.749  13.032
80547W        W47088  36.261  30.894  13.754
80548W        W47089   8.823  18.944   1.366
80549W        W47090   0.719  23.186  12.118
80550W        W47091   0.681   4.456  10.965
80551W        W47092   0.409  41.326   2.211
80552W        W47093  14.702   0.157   0.011
80553W        W47094  38.932  18.748   0.800
80554W        W47095   8.424  19.245   4.449
80555W        W47096  27.891  36.044   1.095
80556W        W47097   4.189  40.104  11.996
80557W        W47098   1.041  25.984  12.889
80558W        W47099  33.065   8.777   1.751
80559W        W47100  10.817  39.584   3.901
80560W        W47101  34.547   7.922  10.743
80561W        W47102  27.145   9.619   4.591
80562W        W47103  41.964  42.435   0.714
80563W        W47104  20.245  23.893  10.497
80564W        W47105  35.796  39.700  11.900
80565W        W47106  34.902  39.732  12.548
80566W        W47107  35.575  35.033   3.198
80567W        W47108  17.067  16.723  14.936
80568W        W47109   2.128  11.925   1.635
80569W        W47110   8.901  29.528  11.086
80570W        W47111  37.335   0.664   1.877
80571W        W47112  15.576   4.848  11.591
80572W        W47113   7.430  20.369  12.134
80573W        W47114  17.064   2.849   2.431
80574W        W47115  19.601  29.474  10.605
80575W        W47116  27.105  21.548  13.082
80576W        W47117  28.950  27.760  10.969
80577W        W47118   6.375   5.689  11.904
80578W        W47119  38.776   6.673   3.456
80579W        W47120  43.759   2.205   1.433
80580W        W47121   2.146   4.671  11.679
80581W        W47122  19.037  26.034  14.339
80582W        W47123   8.590  22.128  14.611
80583W        W47124   2.296  25.292  11.657
80584W        W47125  37.113  25.596   3.169
80585W        W47126  24.573  22.995  12.084
80586W        W47127  44.462  34.641   2.050
80587W        W47128  17.139  11.259  12.066
80588W        W47129  14.528  35.529  12.424
80589W        W47130  37.285  17.156   2.254
80590W        W47131   6.291   1.822   2.206
80591W        W47132  20.685   5.423  12.184
80592W        W47133  26.642  12.369  13.817
80593W        W47134  16.018  12.329   4.245
80594W        W47135   5.293  11.250  12.358
80595W        W47136  20.806  14.120   3.725
80596W        W47137  26.869  41.636   4.308
80597W        W47138  26.682  14.725  14.936
80598W        W47139  32.650  38.805   4.069
80599W        W47140   0.467   3.002  11.181
80600W        W47141  35.337  39.282   2.195
80601W        W47142  28.494   1.900  10.918
80602W        W47143  20.907  36.573  11.561
80603W        W47144   3.217  19.193   3.321
80604W        W47145  17.702  13.823   0.517
80605W        W47146  34.291  18.121   3.180
80606W        W47147  27.573  29.405  10.367
80607W        W47148  13.324  26.036   0.555
80608W        W47149   0.266  33.399   3.543
80609W        W47150  37.355  36.907  14.747
80610W        W47151  14.663  34.441   4.081
80611W        W47152   0.518  33.570   3.974
80612W        W47153   6.763   5.002  11.311
80613W        W47154   9.357  18.272   3.712
80614W        W47155  37.617  15.701   4.926
80615W        W47156  40.809   0.872   4.519
80616W        W47157   8.371   0.890   3.345
80617W        W47158   4.275  11.651   0.805
80618W        W47159  16.097  20.812  13.333
80619W        W47160   7.588  30.602  12.457
80620W        W47161  26.613  15.254  11.070
80621W        W47162  32.431   3.673  14.885
80622W        W47163  29.244  21.204  14.424
80623W        W47164   0.055  25.625  14.868
80624W        W47165   0.715  29.036   0.627
80625W        W47166  40.477  44.020  11.641
80626W        W47167  15.416  19.230  11.957
80627W        W47168  41.238   9.000  12.563
80628W        W47169  20.512  40.073  10.805
80629W        W47170  21.155  38.031  10.616
80630W        W47171  44.777  24.841  12.428
80631W        W47172   6.162  24.085   2.831
80632W        W47173  14.209  27.653  11.623
80633W        W47174  37.554  38.819  13.382
80634W        W47175   5.425  11.712  13.104
80635W        W47176   2.913  31.412   2.247
80636W        W47177  18.452  36.690   4.065
80637W        W47178  20.219   3.853  12.746
80638W        W47179  42.282  36.994  13.862
80639W        W47180  40.623  30.978  11.649
80640W        W47181   1.869   1.318   3.743
80641W        W47182  18.640  16.456  11.542
80642W        W47183  34.435  40.494   2.628
80643W        W47184  40.341  27.970   5.019
80644W        W47185  37.329  21.263   0.031
80645W        W47186  28.652  39.271   3.124
80646W        W47187   5.136  30.077  11.587
80647W        W47188   5.163   1.374   3.628
80648W        W47189  14.675   0.904   2.164
80649W        W47190  41.021  14.805   0.409
80650W        W47191  18.741  39.509   1.956
80651W        W47192  26.126   9.703  12.360
80652W        W47193  42.954  26.231  10.422
80653W        W47194  25.179  41.354   4.163
80654W        W47195  14.091  41.134  10.606
80655W        W47196  14.345  15.654  10.549
80656W        W47197   5.916  12.619  12.873
80657W        W47198  33.918  29.367   1.320
80658W        W47199   4.469  44.402  11.128
80659W        W47200  35.652  12.313   1.659
80660W        W47201  37.083   0.456  11.216
80661W        W47202  43.306  10.704  14.945
80662W        W47203  25.788  18.118  11.166
80663W        W47204  14.833   4.106   4.247
80664W        W47205  15.553   2.759  14.057
80665W        W47206  20.289  14.355   3.164
80666W        W47207   9.435  13.234  13.277
80667W        W47208  34.432  31.143  13.573
80668W        W47209  28.940  28.961   3.233
80669W        W47210   9.157  25.558   3.725
80670W        W47211  38.303  28.936  14.799
80671W        W47212  26.655   6.215  14.996
80672W        W47213  36.843  12.134   4.131
80673W        W47214  18.754  10.935  12.483
80674W        W47215   2.414  13.149  13.416
80675W        W47216  37.841  44.959  14.557
80676W        W47217   1.047  38.717  14.835
80677W        W47218  36.439  43.200   4.593
80678W        W47219  40.106   9.702   0.373
80679W        W47220  18.143  38.880  13.076
80680W        W47221  24.715   2.833   4.029
80681W        W47222  17.335  33.964  12.866
80682W        W47223  42.307  10.327  12.913
80683W        W47224  14.251  25.869   4.802
80684W        W47225   4.485  34.567   0.239
80685W        W47226  33.131   0.759  12.550
80686W        W47227  12.358  18.255  11.610
80687W        W47228   2.834  43.558   3.833
80688W        W47229  10.297  26.812  10.482
80689W        W47230  20.725  33.829   4.543
80690W        W47231  23.673   5.162   3.458
80691W        W47232  33.578   9.699   4.436
80692W        W47233  33.046  35.735  12.725
80693W        W47234  30.997  28.877  14.913
80694W        W47235  41.742  13.087   3.123
80695W        W47236  44.430  43.756  12.432
80696W        W47237  37.785  14.268  11.936
80697W        W47238  34.149  29.976  12.110
80698W        W47239   7.751  42.204  11.968
80699W        W47240  18.692  19.585  10.708
80700W        W47241   6.480  17.586  11.884
80701W        W47242   7.789   9.122   0.864
80702W        W47243  11.881   2.265   0.454
80703W        W47244  39.373   6.787   2.570
80704W        W47245  13.537  17.343  14.051
80705W        W47246   3.307  24.921   1.401
80706W        W47247  27.608  21.614   2.634
80707W        W47248   1.361  36.074   4.408
80708W        W47249  42.011  43.005   4.203
80709W        W47250  34.500  39.349  12.497
80710W        W47251  25.435  15.958   2.597
80711W        W47252   7.966  24.081   2.349
80712W        W47253   7.453  20.357   1.207
80713W        W47254  10.106  18.386  11.998
80714W        W47255  13.281  17.027  14.988
80715W        W47256   1.174   2.483  10.734
80716W        W47257  31.533  32.704   3.863
80717W        W47258   0.028  19.837   3.799
80718W        W47259   4.088   9.039  14.504
80719W        W47260  27.280  29.041   0.734
80720W        W47261  27.973  30.932  14.292
80721W        W47262   3.428  20.067   5.070
80722W        W47263  26.393  34.425   4.435
80723W        W47264   1.655  19.682   2.900
80724W        W47265   1.406  29.599   3.685
80725W        W47266  42.783   1.498   0.939
80726W        W47267  35.556  29.693  11.056
80727W        W47268   4.327  40.110   0.848
80728W        W47269  30.003  41.777   4.018
80729W        W47270  22.613   1.551  11.512
80730W        W47271  30.189  16.049  11.138
80731W        W47272  28.892  16.215  13.920
80732W        W47273   4.369  23.252   0.968
80733W        W47274   9.366  30.533  14.827
80734W        W47275  35.976  23.066   3.512
80735W        W47276  34.840  27.147   0.276
80736W        W47277   0.769  32.869   0.106
80737W        W47278  15.996  36.089   4.830
80738W        W47279  11.496  29.113   0.893
80739W        W47280  42.359  40.604  14.299
80740W        W47281  35.446   8.297  12.924
80741W        W47282  29.682  19.793  14.359
80742W        W47283  29.614   0.885  10.694
80743W        W47284  10.129  36.918   0.836
80744W        W47285  42.054  20.077   1.222
80745W        W47286  42.926  22.610   4.155
80746W        W47287   3.907   9.625  14.476
80747W        W47288  25.337   7.142   3.681
80748W        W47289  24.012  21.238   0.808
80749W        W47290  23.808  18.122  12.448
80750W        W47291  21.194   0.753  11.501
80751W        W47292  41.567  33.008  14.340
80752W        W47293  41.939   6.813  11.086
80753W        W47294  20.275  20.180   0.718
80754W        W47295  40.538  23.018  13.202
80755W        W47296  21.883  23.397   1.366
80756W        W47297   1.473  18.873  11.934
80757W        W47298  28.741   5.778  11.132
80758W        W47299  23.482  32.525  13.555
80759W        W47300  41.232  18.712  11.129
80760W        W47301  37.310   7.711   2.380
80761W        W47302   4.636  33.910  11.182
80762W        W47303  29.447  23.961   1.862
80763W        W47304  39.326   9.129   1.803
80764W        W47305  31.915   1.225  12.666
80765W        W47306  43.866  24.443  11.109
80766W        W47307  19.625  43.781   4.658
80767W        W47308   7.435  42.972  11.670
80768W        W47309  21.649  10.768  12.004
80769W        W47310  40.275  14.690  12.553
80770W        W47311  25.665   1.250   1.317
80771W        W47312  19.255   1.510  13.374
80772W        W47313  33.239  34.004   4.129
80773W        W47314  37.510   6.742  13.932
80774W        W47315  15.200  20.054   1.879
80775W        W47316  24.958  40.864  13.636
80776W        W47317   8.337  27.200   4.768
80777W        W47318   0.820   9.469  11.637
80778W        W47319  28.589  39.500   3.590
80779W        W47320  25.530  41.446  13.563
80780W        W47321  44.266  20.077  10.981
80781W        W47322  35.031   9.761   3.231
80782W        W47323  24.827  43.649  10.847
80783W        W47324  31.899  23.188   0.826
80784W        W47325   6.223  23.025  12.470
80785W        W47326  16.957  44.857   1.769
80786W        W47327  33.122  15.214  10.593
80787W        W47328  13.841  26.005  12.681
80788W        W47329  20.680  42.926  11.281
80789W        W47330  35.105  21.018  13.981
80790W        W47331  33.990   0.611  11.164
80791W        W47332  38.455  34.583   0.963
80792W        W47333  31.793   7.266   4.683
80793W        W47334   4.485   4.712   3.209
80794W        W47335  13.868   9.666  13.387
80795W        W47336  15.591  41.353   1.644
80796W        W47337  38.280  19.769   3.711
80797W        W47338  29.535  16.483  11.566
80798W        W47339  20.283  34.704  12.051
80799W        W47340  13.668  32.689   0.252
80800W        W47341  11.887  11.314  13.367
80801W        W47342  25.695  29.122  14.539
80802W        W47343   6.240  19.610   2.859
80803W        W47344  35.458   1.327   2.687
80804W        W47345  28.785  28.781  11.168
80805W        W47346  33.347   5.259   3.702
80806W        W47347   0.779  14.396   2.778
80807W        W47348  21.677  26.581   0.116
80808W        W47349  30.176  12.779   2.328
80809W        W47350  24.719   6.049  12.294
80810W        W47351  19.478   7.189   0.870
80811W        W47352  29.888   9.976   2.299
80812W        W47353  39.109  34.430   0.379
80813W        W47354  34.849  31.444  13.442
80814W        W47355  42.267  40.149   4.121
80815W        W47356  11.611  33.078  11.641
80816W        W47357  11.520  38.744   9.710
80817W        W47358  24.988   2.199   1.727
80818W        W47359  15.298  43.544  12.508
80819W        W47360  15.187  44.746  13.552
80820W        W47361  25.822  38.597   3.056
80821W        W47362  15.163  36.803   3.797
80822W        W47363  36.891  41.682   1.946
80823W        W47364  34.530  38.101   2.200
80824W        W47365   0.919  41.016   4.806
80825W        W47366  34.840  40.562  11.266
80826W        W47367  26.741  15.814  13.968
80827W        W47368  24.553  10.347  12.353
80828W        W47369  26.465  32.040  11.897
80829W        W47370  20.036  41.749  11.372
80830W        W47371  20.626  43.214  13.229
80831W        W47372  33.127   0.726   4.504
80832W        W47373  18.482   4.909   0.167
80833W        W47374   6.628  12.311  10.707
80834W        W47375  10.988   3.752   1.205
80835W        W47376  19.737   9.386  13.660
80836W        W47377  10.673  12.274   1.715
80837W        W47378  41.278  30.405   1.385
80838W        W47379  22.096  16.621   4.619
80839W        W47380  29.783  33.626  14.204
80840W        W47381  28.700   3.429   3.078
80841W        W47382  12.904  16.398  14.867
80842W        W47383  12.678  14.552  10.995
80843W        W47384   0.531  35.370   0.531
80844W        W47385   3.781  20.991   3.978
80845W        W47386  33.963  42.974   2.769
80846W        W47387  35.940  40.946   4.217
80847W        W47388  31.991  44.777   3.366
80848W        W47389  43.368   8.375  10.784
80849W        W47390  37.340  29.745  11.162
80850W        W47391  19.092  44.819   1.802
80851W        W47392  15.703   2.536  12.040
80852W        W47393   3.505  18.642  14.026
80853W        W47394  30.538  44.597   4.582
80854W        W47395  38.113  40.614   2.899
80855W        W47396  18.401  25.042   3.204
80856W        W47397  43.360  14.573   0.751
80857W        W47398  12.373  43.449   1.341
80858W        W47399   5.686  36.631  12.837
80859W        W47400  24.489  22.974  12.985
80860W        W47401  43.383  11.412   4.526
80861W        W47402  24.891   1.979  10.751
80862W        W47403  34.633  15.084   4.230
80863W        W47404  22.897   0.597  12.499
80864W        W47405  11.555  42.793  10.110
80865W        W47406  39.999  25.775   2.608
80866W        W47407   9.306  17.678   3.098
80867W        W47408  35.622  11.607   4.918
80868W        W47409  35.159   8.339  14.765
80869W        W47410   0.426  44.306  12.467
80870W        W47411  43.051   4.546   0.753
80871W        W47412   6.699  23.014   1.778
80872W        W47413  33.933  32.790  14.941
80873W        W47414  43.682  43.346   1.709
80874W        W47415  40.567  15.592  14.804
80875W        W47416   1.969  22.173  11.099
80876W        W47417  17.123   1.930   0.918
80877W        W47418  10.506  41.625   4.890
80878W        W47419  19.222  20.933  10.244
80879W        W47420   0.429  23.026  12.520
80880W        W47421  28.547   1.022  12.138
80881W        W47422  38.419  10.740  12.451
80882W        W47423  21.432  36.525   4.551
80883W        W47424  35.332   1.574  11.503
80884W        W47425  37.605  40.374   0.896
80885W        W47426  43.097  41.793  13.960
80886W        W47427   6.914  15.702   0.257
80887W        W47428   1.655   4.488   3.110
80888W        W47429  15.272  16.513  10.997
80889W        W47430   9.143  39.940  13.812
80890W        W47431  38.872  15.319   1.945
80891W        W47432  28.886  22.009   2.324
80892W        W47433  18.314  35.941  11.968
80893W        W47434  12.755   0.784  13.999
80894W        W47435  39.887  23.220   4.692
80895W        W47436  35.381  36.355   2.622
80896W        W47437  22.632  23.552  12.041
80897W        W47438   5.715  39.637   2.737
80898W        W47439  35.273  35.953  14.629
80899W        W47440   5.171  33.559  13.322
80900W        W47441  27.202  18.251  13.925
80901W        W47442  42.293   2.391  14.290
80902W        W47443  29.652   5.851  11.497
80903W        W47444  40.306  15.141  11.155
80904W        W47445   0.665   1.987   5.479
80905W        W47446  34.867   9.927   2.774
80906W        W47447  17.557  14.669  14.035
80907W        W47448  23.757  18.573   2.190
80908W        W47449  24.399   4.758   0.582
80909W        W47450  24.647  41.998   3.324
80910W        W47451  13.503  19.908   1.412
80911W        W47452  13.400  38.027   4.729
80912W        W47453  37.959   7.383  14.736
80913W        W47454  29.387   8.833   0.327
80914W        W47455  41.954  33.417   0.342
80915W        W47456  27.498  35.509   3.397
80916W        W47457  26.714  23.699   2.287
80917W        W47458  17.332  13.680  11.534
80918W        W47459  11.509  32.030   3.150
80919W        W47460  19.303  27.105  14.850
80920W        W47461   5.141  16.615  11.101
80921W        W47462   1.648   4.245  14.691
80922W        W47463  10.647   0.887   2.243
80923W        W47464  40.772  42.476  11.141
80924W        W47465  23.853  33.225  13.994
80925W        W47466  28.968  44.224   3.585
80926W        W47467  30.527  24.967  14.696
80927W        W47468  32.895  27.835  10.747
80928W        W47469   2.842  16.715   4.012
80929W        W47470   5.469   8.618  11.647
80930W        W47471  17.007  25.406   0.433
80931W        W47472  11.752   7.365   0.403
80932W        W47473  41.325  35.913   2.394
80933W        W47474  38.086  28.817  13.939
80934W        W47475  24.949  36.588  11.411
80935W        W47476  38.825  13.428  13.042
80936W        W47477  35.990   2.223   4.111
80937W        W47478  33.951  16.829   0.659
80938W        W47479   2.482  20.177  14.956
80939W        W47480  29.542   8.926   2.740
80940W        W47481  25.267  17.054  14.128
80941W        W47482  15.912  19.335  13.430
80942W        W47483  36.480  43.253  13.432
80943W        W47484  40.429  15.233   0.205
80944W        W47485  18.596  18.050  13.395
80945W        W47486  16.032  12.475   0.785
80946W        W47487  10.752   1.261   2.659
80947W        W47488  34.751  20.560  13.077
80948W        W47489   4.436  40.796   3.995
80949W        W47490  12.790  30.892   3.295
80950W        W47491  29.045  35.064   3.584
80951W        W47492  24.023  30.662  11.040
80952W        W47493  10.305  43.586  12.343
80953W        W47494  40.469   4.608  12.541
80954W        W47495  15.680  37.657   0.401
80955W        W47496  25.502  18.160  10.742
80956W        W47497  20.219  19.982   2.654
80957W        W47498  22.809  11.640  11.567
80958W        W47499   8.881  25.703   2.334
80959W        W47500  25.184  15.273  14.856
80960W        W47501  41.448  36.716   0.834
80961W        W47502  41.948  10.422   0.992
80962W        W47503   6.946   1.672  12.492
80963W        W47504  39.474  14.061  13.966
80964W        W47505  12.554  34.542  13.495
80965W        W47506  41.237  42.774   0.984
80966W        W47507   4.206  18.620  13.392
80967W        W47508  36.200  19.225   2.352
80968W        W47509  37.958  42.260  13.899
80969W        W47510  31.130  26.649  11.116
80970W        W47511  20.190  20.260   4.318
80971W        W47512  26.489  10.337   0.518
80972W        W47513  41.417   6.500  10.724
80973W        W47514  14.992  37.741   4.200
80974W        W47515  35.584  20.706  10.629
80975W        W47516  44.737  18.530  13.585
80976W        W47517   3.448   9.653  12.097
80977W        W47518  24.237   8.028  11.844
80978W        W47519  22.017  38.361   4.577
80979W        W47520  37.018  43.889  12.953
80980W        W47521   3.501  10.212   4.522
80981W        W47522  37.433  38.756  11.190
80982W        W47523  28.770  38.771   1.251
80983W        W47524  27.330  44.240   2.853
80984W        W47525  41.467  41.524   2.641
80985W        W47526  38.099  22.323  14.745
80986W        W47527  21.493   4.318  13.380
80987W        W47528  14.108  37.371   0.823
80988W        W47529  29.379  13.909  10.671
80989W        W47530  28.763   7.321   4.076
80990W        W47531  21.592   1.417  11.624
80991W        W47532  28.022  28.385   3.597
80992W        W47533  16.704   3.606   3.855
80993W        W47534   7.305  18.418  12.614
80994W        W47535  44.171  37.451  12.149
80995W        W47536   3.872   7.022  12.483
80996W        W47537  29.659   7.408   1.329
80997W        W47538  30.842  39.921   4.640
80998W        W47539  34.791  25.149  14.384
80999W        W47540  38.365  29.349  13.479
81000W        W47541   9.388  10.404  14.903
81001W        W47542  21.175  36.572  13.312
81002W        W47543  14.246  36.117   1.247
81003W        W47544  19.564   7.874   1.292
81004W        W47545  33.416  37.423  13.477
81005W        W47546  44.314  19.088  10.632
81006W        W47547  35.509   4.200  11.544
81007W        W47548   4.434  22.495   3.825
81008W        W47549   4.930  32.564  12.153
81009W        W47550  27.865  36.977   1.868
81010W        W47551  34.471  23.136  14.045
81011W        W47552   8.587  40.454   0.325
81012W        W47553  30.609  41.826  14.541
81013W        W47554  10.416  40.401   0.237
81014W        W47555  39.521  26.706  14.105
81015W        W47556  37.712   9.255   1.924
81016W        W47557  21.817  10.620   4.651
81017W        W47558   2.193  44.919   2.897
81018W        W47559  15.164  44.034   2.147
81019W        W47560  24.459   7.155  14.943
81020W        W47561  26.819  33.556   4.899
81021W        W47562  17.191  18.075  11.233
81022W        W47563  31.971  41.136   2.553
81023W        W47564  11.899  10.793   1.872
81024W        W47565  37.590  29.203   2.239
81025W        W47566  39.261  15.847  12.608
81026W        W47567   3.272  40.244  14.341
81027W        W47568  18.993   3.792  13.909
81028W        W47569  21.235  30.210   1.246
81029W        W47570   0.590  29.351   3.314
81030W        W47571  20.230  32.503  12.533
81031W        W47572  29.488  34.343  13.977
81032W        W47573  36.116  22.269   3.277
81033W        W47574   0.576  41.533  12.911
81034W        W47575  13.485  27.950  11.119
81035W        W47576  41.380  29.113   4.282
81036W        W47577   4.922  19.680  13.868
81037W        W47578   1.709  32.507  14.292
81038W        W47579   6.103  42.323  11.425
81039W        W47580  20.186  29.769   1.790
81040W        W47581  25.615  34.479   1.221
81041W        W47582  18.092  33.177  14.418
81042W        W47583  30.605  14.367  14.993
81043W        W47584  37.286   2.443  10.583
81044W        W47585   0.921  20.222   3.645
81045W        W47586  24.563   1.942  14.636
81046W        W47587  21.254  11.736   3.181
81047W        W47588   2.850  29.952   0.346
81048W        W47589  16.718  35.106  13.289
81049W        W47590  17.270  42.463   0.332
81050W        W47591   4.832  12.393   0.804
81051W        W47592   4.991  38.873   1.034
81052W        W47593  23.593  24.200  15.000
81053W        W47594   8.095  36.439   0.782
81054W        W47595  36.883  24.468   2.494
81055W        W47596  32.109  11.760   2.722
81056W        W47597  17.540  37.390   4.997
81057W        W47598  35.941  34.901  10.692
81058W        W47599  41.768  20.830  14.563
81059W        W47600  24.947  20.887   0.784
81060W        W47601  30.677  40.989  14.602
81061W        W47602  26.917  19.148  12.911
81062W        W47603  42.335   1.043   4.281
81063W        W47604   3.386   7.736  10.944
81064W        W47605  41.865  12.480  10.507
81065W        W47606  11.317  39.336   4.596
81066W        W47607  22.566   3.441  10.076
81067W        W47608  32.976   1.423   2.844
81068W        W47609   9.952   2.771  13.434
81069W        W47610  26.154  22.313   0.971
81070W        W47611  11.579  23.477  11.011
81071W        W47612  39.474  34.700  11.771
81072W        W47613  28.521   9.119   2.859
81073W        W47614  33.511  31.700  11.999
81074W        W47615  11.137  28.051   3.488
81075W        W47616   2.078   7.207   2.716
81076W        W47617  35.683  22.879   3.975
81077W        W47618   0.010  16.825  13.867
81078W        W47619  15.289  40.584   3.943
81079W        W47620  20.032  14.364   2.729
81080W        W47621  37.315  19.563  11.210
81081W        W47622  39.380  41.358  13.005
81082W        W47623   3.680  34.113  12.879
81083W        W47624  11.766  36.428   2.037
81084W        W47625   3.181   6.575   4.903
81085W        W47626   4.211  15.670   1.890
81086W        W47627  43.310  33.466   1.875
81087W        W47628  27.534  20.455  13.486
81088W        W47629  10.360  38.547  12.887
81089W        W47630  10.931  25.247  13.389
81090W        W47631   4.430  32.441   1.800
81091W        W47632   9.893  34.482  13.219
81092W        W47633  38.443  34.937   0.486
81093W        W47634  20.252  37.236   4.780
81094W        W47635  32.638  16.315   1.736
81095W        W47636  35.392  15.662   3.835
81096W        W47637   8.700  40.629   5.112
81097W        W47638   7.421  11.457  11.564
81098W        W47639  26.638  24.071  14.850
81099W        W47640  17.608  36.951   3.054
81100W        W47641   4.416  33.219   1.677
81101W        W47642  36.603   5.356   4.570
81102W        W47643  40.832  20.848   0.107
81103W        W47644   9.629  37.850  14.790
81104W        W47645  44.709  43.339  14.863
81105W        W47646   6.345  37.391  11.374
81106W        W47647   9.745  15.764  14.052
81107W        W47648  25.754   6.419   5.036
81108W        W47649  31.910   3.333  12.033
81109W        W47650  11.148  20.241   0.315
81110W        W47651  19.571  27.454  10.703
81111W        W47652  27.998  38.420  13.536
81112W        W47653   5.937  14.336   4.535
81113W        W47654   0.408   4.170   4.634
81114W        W47655   1.009   4.683  14.797
81115W        W47656  12.905  34.659  11.669
81116W        W47657   7.219   7.876   2.252
81117W        W47658   2.662   8.639  12.700
81118W        W47659  21.193  42.782   4.557
81119W        W47660  25.105  32.194   2.803
81120W        W47661  34.495  38.106  12.011
81121W        W47662  12.370   7.359   3.899
81122W        W47663  43.018  35.722  14.274
81123W        W47664  20.626  12.376   2.279
81124W        W47665   0.823  36.504  12.163
81125W        W47666  37.251   0.440  14.966
81126W        W47667  38.953   9.791   2.151
81127W        W47668  20.658  24.545   3.145
81128W        W47669  17.509  34.548  14.284
81129W        W47670  20.634  28.977   2.251
81130W        W47671  33.640  23.965  12.384
81131W        W47672  32.118  10.199   1.729
81132W        W47673  25.583  15.727  12.410
81133W        W47674  10.644  33.847   1.401
81134W        W47675  38.471  37.859   4.579
81135W        W47676  15.031   0.538  14.254
81136W        W47677   8.857  27.934  14.949
81137W        W47678  38.511  27.575   1.529
81138W        W47679  33.092  25.932  13.922
81139W        W47680  37.178  24.049   2.250
81140W        W47681  14.131  30.405   1.489
81141W        W47682  16.533  21.968  12.900
81142W        W47683   2.265  28.236   1.760
81143W        W47684  15.763  20.822   2.913
81144W        W47685  26.625  34.311   0.777
81145W        W47686  25.535  15.807   3.549
81146W        W47687  32.708  29.802  11.171
81147W        W47688   6.479  17.013   3.681
81148W        W47689  28.566  13.604   2.380
81149W        W47690  17.007   8.781   1.150
81150W        W47691  15.695  16.358  13.545
81151W        W47692  22.500  35.650   0.086
81152W        W47693   7.707  15.793  12.034
81153W        W47694  14.906  23.971   4.553
81154W        W47695  41.320  24.064   3.222
81155W        W47696  39.818  11.237  14.006
81156W        W47697  42.127  15.715   2.634
81157W        W47698   1.371  32.345  11.624
81158W        W47699  17.487  24.555   1.748
81159W        W47700  37.627  31.968  14.513
81160W        W47701  44.443  18.339  12.606
81161W        W47702   3.166  31.937  12.137
81162W        W47703  27.169  38.277  10.535
81163W        W47704  23.045  31.675   2.837
81164W        W47705  26.123   0.429  14.911
81165W        W47706  33.357  26.261   3.231
81166W        W47707  25.095   3.831   3.330
81167W        W47708  25.934  40.980   3.840
81168W        W47709  17.784  19.119   3.113
81169W        W47710  11.725  36.571  11.036
81170W        W47711  33.083   2.612  12.967
81171W        W47712  43.505  29.675  10.751
81172W        W47713  24.494  19.973  12.040
81173W        W47714  35.760  27.118   0.257
81174W        W47715  10.776   3.209   0.310
81175W        W47716  29.527  23.431   1.905
81176W        W47717  13.542  36.407  14.046
81177W        W47718  27.599  40.483   0.775
81178W        W47719  30.542  29.238   2.141
81179W        W47720  33.804   6.338   0.343
81180W        W47721   2.419  20.278  11.157
81181W        W47722  40.454  42.905   0.555
81182W        W47723  20.335  14.302  13.748
81183W        W47724  30.105  19.433   1.905
81184W        W47725  16.278  41.559  11.567
81185W        W47726  19.555   3.823  12.093
81186W        W47727  39.392  10.761  11.791
81187W        W47728  18.600  23.095   2.978
81188W        W47729  24.494   1.223  13.889
81189W        W47730  10.696  35.546  13.111
81190W        W47731  22.054  34.225  11.000
81191W        W47732   6.657  21.148  12.727
81192W        W47733   4.939  14.641   4.161
81193W        W47734  30.043  42.330   4.669
81194W        W47735  19.659  39.184   0.495
81195W        W47736   7.672  41.075  13.802
81196W        W47737  42.407   2.463   1.243
81197W        W47738  24.178  34.979   2.883
81198W        W47739  11.978   1.204   4.927
81199W        W47740  10.410  25.445   4.187
81200W        W47741  35.804  39.832  12.411
81201W        W47742  19.380  20.140   3.718
81202W        W47743  41.414  24.526   0.509
81203W        W47744  26.121  29.993  10.360
81204W        W47745  41.481  11.121  14.498
81205W        W47746  23.233  33.119  11.125
81206W        W47747  19.308   7.370   3.204
81207W        W47748  16.343   4.427  14.224
81208W        W47749  21.101  42.320   2.458
81209W        W47750   9.330  37.692   4.319
81210W        W47751  15.264  38.337   2.238
81211W        W47752  40.407  12.598   4.853
81212W        W47753  28.508  19.526  10.877
81213W        W47754  22.375  22.528   3.698
81214W        W47755  35.352  41.934   0.892
81215W        W47756  17.754  26.189   2.356
81216W        W47757  19.995  16.197   3.134
81217W        W47758  17.137  41.560   2.725
81218W        W47759  19.252   4.300   4.663
81219W        W47760  38.533  27.195  14.941
81220W        W47761  41.868  20.806   4.332
81221W        W47762  11.262  12.430  14.860
81222W        W47763  33.906  30.039  12.550
81223W        W47764  24.701  22.440  12.112
81224W        W47765   4.883  27.135   9.829
81225W        W47766  34.408  41.416  11.317
81226W        W47767  23.207  14.116  13.004
81227W        W47768  20.640  27.200  13.430
81228W        W47769   1.631  27.111  10.551
81229W        W47770  17.366  10.622   2.735
81230W        W47771  39.803  14.284   1.657
81231W        W47772  30.050  17.840   3.691
81232W        W47773  14.370   9.920  14.260
81233W        W47774  43.267  16.657  12.355
81234W        W47775  38.107   7.230   3.275
81235W        W47776  36.359   3.256   0.688
81236W        W47777  14.997   4.349  11.099
81237W        W47778  39.603  20.935   0.803
81238W        W47779  12.421  19.167   1.399
81239W        W47780  25.036  33.177  11.191
81240W        W47781  25.748  20.574   3.821
81241W        W47782  26.141  13.133   3.739
81242W        W47783  22.494  16.502  12.907
81243W        W47784  17.943   2.803   4.114
81244W        W47785  18.720   0.987   1.297
81245W        W47786  33.816  19.612   4.571
81246W        W47787   2.934  36.325  10.717
81247W        W47788  35.994   5.376   2.407
81248W        W47789  25.133  41.033  11.216
81249W        W47790  23.149  32.279   0.178
81250W        W47791   5.148  40.079  14.404
81251W        W47792  16.336  44.057   2.652
81252W        W47793  19.246  36.872  11.537
81253W        W47794  36.659  25.050   1.965
81254W        W47795  29.128  32.668   3.225
81255W        W47796  25.966  31.886   3.244
81256W        W47797  13.421  25.718   1.805
81257W        W47798  44.685  19.700   4.615
81258W        W47799  14.672  29.159  11.116
81259W        W47800  26.921   6.207   2.299
81260W        W47801  15.098  40.418   2.761
81261W        W47802   2.707  20.505   1.703
81262W        W47803  27.943  25.614   0.276
81263W        W47804  20.974  22.325   1.737
81264W        W47805  14.012  21.529  12.884
81265W        W47806   8.748  38.286   2.485
81266W        W47807  14.816  28.019   1.857
81267W        W47808  16.219  32.417  14.064
81268W        W47809   4.782  30.826  12.231
81269W        W47810  31.009  25.885   2.583
81270W        W47811  43.996  44.475  10.298
81271W        W47812  21.094   0.745   1.918
81272W        W47813  10.209  42.021   4.770
81273W        W47814  14.926   1.170  13.332
81274W        W47815  37.660  37.696  12.060
81275W        W47816   5.139  15.538   3.167
81276W        W47817  42.326  32.791  11.265
81277W        W47818  36.168  24.421  11.215
81278W        W47819   3.653   0.043   0.792
81279W        W47820  41.168  33.025   4.103
81280W        W47821  29.905  14.307   1.430
81281W        W47822  37.322  37.323  12.122
81282W        W47823  23.090  44.974   3.244
81283W        W47824  24.148  19.173  10.374
81284W        W47825  17.672   8.669   4.018
81285W        W47826   5.801   7.980  10.515
81286W        W47827  38.897  28.872  14.874
81287W        W47828  17.765   6.861  12.428
81288W        W47829  43.889   0.866  10.812
81289W        W47830  34.992  26.692  11.243
81290W        W47831   0.783  42.026  13.995
81291W        W47832  15.061  38.346   3.160
81292W        W47833  25.411   2.506   1.852
81293W        W47834  22.562  21.217  10.194
81294W        W47835   9.382  30.860   0.717
81295W        W47836  28.089  11.771  14.997
81296W        W47837  14.916  36.853   1.015
81297W        W47838  38.360   5.935   3.611
81298W        W47839  39.264  37.272  14.347
81299W        W47840  24.704  40.065   4.532
81300W        W47841   4.209   8.264  11.262
81301W        W47842  42.778  41.207  11.482
81302W        W47843  18.600   5.819  13.201
81303W        W47844   1.635   1.802  14.007
81304W        W47845   2.225  24.944   2.345
81305W        W47846  41.902   8.880   1.946
81306W        W47847  13.300  23.707   4.570
81307W        W47848  31.677  30.883   3.149
81308W        W47849  34.055  37.894   2.359
81309W        W47850  10.887  28.301  14.746
81310W        W47851  44.172  33.360   1.663
81311W        W47852  33.000  24.732  13.223
81312W        W47853  19.717  32.688  14.273
81313W        W47854  33.088  12.599  12.638
81314W        W47855  24.198  19.554  11.914
81315W        W47856  24.524  34.068   3.309
81316W        W47857   9.506  39.557  11.176
81317W        W47858   6.877   4.388   0.012
81318W        W47859  16.235  42.388  14.721
81319W        W47860  41.776  36.858   4.413
81320W        W47861  30.594   7.193   1.180
81321W        W47862  23.725   6.275   0.550
81322W        W47863  15.632  42.736  14.995
81323W        W47864  35.907   2.370   0.273
81324W        W47865  24.775  11.289   1.249
81325W        W47866  10.342   4.857  11.525
81326W        W47867  28.123  16.195   3.538
81327W        W47868  43.017  25.083  14.933
81328W        W47869  14.692  20.461   3.644
81329W        W47870  38.772  24.017  13.353
81330W        W47871  40.066  19.802  14.428
81331W        W47872  41.801  42.005   0.944
81332W        W47873  12.683  11.249   0.258
81333W        W47874  42.922   7.484  13.720
81334W        W47875  44.260  38.062   0.401
81335W        W47876  19.198   1.775  13.836
81336W        W47877  16.193  21.855  14.026
81337W        W47878  26.542  30.540  13.576
81338W        W47879  13.342  13.202   0.329
81339W        W47880   0.053  31.730  14.397
81340W        W47881  34.601  34.853  11.061
81341W        W47882  17.916  37.365  13.399
81342W        W47883  39.362   6.230   4.852
81343W        W47884  12.369  41.283   3.656
81344W        W47885   3.032  20.488   3.167
81345W        W47886  36.141  22.956   0.191
81346W        W47887  14.975  34.776   0.850
81347W        W47888   7.439  10.296  11.622
81348W        W47889  35.431  24.946  12.216
81349W        W47890  29.572  25.516   0.790
81350W        W47891   2.325  12.912  14.299
81351W        W47892   7.758  33.056   1.713
81352W        W47893   0.226  18.062   0.230
81353W        W47894  27.609   3.230   1.451
81354W        W47895   2.512  31.413  12.359
81355W        W47896   6.646  10.092  11.944
81356W        W47897  29.670  14.798  11.549
81357W        W47898  17.481   8.268  14.382
81358W        W47899  16.353  22.364  14.190
81359W        W47900  21.267  20.681  11.503
81360W        W47901  25.406  36.647  11.035
81361W        W47902  41.915  19.226  11.001
81362W        W47903  20.151  12.165   2.265
81363W        W47904  41.554  37.939   2.361
81364W        W47905  13.014  37.237  11.772
81365W        W47906  33.394   8.797   1.350
81366W        W47907  32.164  27.790   0.909
81367W        W47908  13.701   4.250   0.046
81368W        W47909   5.911  21.622  13.434
81369W        W47910  24.842  14.738   4.666
81370W        W47911  36.924  27.063   2.736
81371W        W47912  29.412  28.081  11.118
81372W        W47913  30.018  34.044   2.551
81373W        W47914  28.710  37.927   3.967
81374W        W47915   4.702  33.435  13.505
81375W        W47916  34.823  17.251  14.232
81376W        W47917   6.887   4.296   3.599
81377W        W47918   3.444  13.369   3.817
81378W        W47919  28.560  34.364   1.953
81379W        W47920  13.581  24.244  11.174
81380W        W47921  38.112   4.358  11.128
81381W        W47922   6.697  32.914  14.444
81382W        W47923  37.848  36.995  11.778
81383W        W47924  27.668  15.033   1.236
81384W        W47925  18.301   6.434   0.009
81385W        W47926  18.079  37.254   0.723
81386W        W47927  40.808  19.735  12.958
81387W        W47928   4.560   9.098  11.760
81388W        W47929   4.478  23.937  13.406
81389W        W47930  24.547   9.158  14.333
81390W        W47931   1.751   8.113   0.964
81391W        W47932   9.817   4.226   0.750
81392W        W47933   8.507   5.407   3.565
81393W        W47934   8.773  41.367   5.532
81394W        W47935  28.167  18.549   3.773
81395W        W47936  33.039  19.654  13.438
81396W        W47937  28.184   0.471   3.793
81397W        W47938  15.884  14.066  11.124
81398W        W47939  34.581  42.259  12.541
81399W        W47940  26.674  39.839  10.920
81400W        W47941  23.544  30.607  12.174
81401W        W47942   7.958  23.989   4.109
81402W        W47943  21.722   4.969   0.003
81403W        W47944   9.897  29.181   1.229
81404W        W47945  37.270  18.576   2.881
81405W        W47946  26.292  41.464   2.732
81406W        W47947  37.771   4.660   3.584
81407W        W47948  31.179  40.305   4.597
81408W        W47949   4.371  31.608   1.470
81409W        W47950  42.304   1.244  11.914
81410W        W47951  20.960  15.525   3.220
81411W        W47952  28.111  24.961  11.184
81412W        W47953  35.455  11.363   1.251
81413W        W47954  25.027   9.958   3.989
81414W        W47955  35.553  22.075   2.715
81415W        W47956  22.869  32.975  13.943
81416W        W47957   2.697  26.596   3.785
81417W        W47958  21.981  37.510   2.343
81418W        W47959  42.488  10.254   0.935
81419W        W47960  16.148  13.209   4.555
81420W        W47961  32.666   5.762  12.001
81421W        W47962  29.490  22.071   0.301
81422W        W47963  23.404  17.031  13.101
81423W        W47964  14.167  26.203  14.475
81424W        W47965   3.904  26.455   0.996
81425W        W47966  22.551   3.663  12.996
81426W        W47967  32.560  36.574   1.272
81427W        W47968  41.019   8.825  11.977
81428W        W47969   0.561   4.221   9.729
81429W        W47970  22.069  25.102   5.073
81430W        W47971  41.266  23.768  12.459
81431W        W47972  25.441  18.489  11.135
81432W        W47973  11.604  35.800   3.652
81433W        W47974  25.486   1.149  13.156
81434W        W47975   2.505  30.012   4.145
81435W        W47976   3.772  11.479   2.779
81436W        W47977  37.562  23.650   1.497
81437W        W47978  40.641  39.942  10.760
81438W        W47979   2.409   1.156   4.896
81439W        W47980  19.293   0.501  13.428
81440W        W47981  12.351  20.435  12.894
81441W        W47982  25.714   2.355   1.443
81442W        W47983  28.560  24.597   4.937
81443W        W47984  10.873  44.912  12.873
81444W        W47985  44.412  12.116   3.286
81445W        W47986  15.939  41.673  11.964
81446W        W47987   7.304   3.262  10.570
81447W        W47988   8.756  34.981   2.316
81448W        W47989  19.421  33.048  13.981
81449W        W47990  41.970  28.917  14.849
81450W        W47991  29.593  25.226  12.228
81451W        W47992   3.404  23.597   1.766
81452W        W47993  18.321  43.468  14.493
81453W        W47994  10.266  26.618  10.967
81454W        W47995  10.181  34.017   1.590
81455W        W47996  34.125  28.044  12.002
81456W        W47997  17.034  13.290   3.285
81457W        W47998  30.495  41.533  12.553
81458W        W47999  13.706   2.875  13.266
81459W        W48000  30.507  25.719  13.890
81460W        W48001  34.222   6.503  14.086
81461W        W48002  30.931  35.806  14.794
81462W        W48003  23.461  44.672  14.969
81463W        W48004  17.039   3.676  14.253
81464W        W48005   1.854  18.108   2.237
81465W        W48006  43.419  19.667   4.904
81466W        W48007  27.020  23.112   3.152
81467W        W48008  35.901  25.446  14.030
81468W        W48009  11.105   0.828  10.584
81469W        W48010  39.880  29.905   3.715
81470W        W48011  43.608  19.583  11.480
81471W        W48012  38.052  44.863  10.874
81472W        W48013  27.100  37.100   0.369
81473W        W48014  27.501  21.153  10.997
81474W        W48015  32.925  27.013   1.706
81475W        W48016  17.216  11.268  13.080
81476W        W48017  42.866  34.483  13.553
81477W        W48018  18.800  13.600  11.666
81478W        W48019  14.078  10.164  13.880
81479W        W48020   4.805  37.308   3.718
81480W        W48021  30.293  39.446  13.395
81481W        W48022   7.958  43.368   4.108
81482W        W48023  37.354  21.147  13.410
81483W        W48024  18.655  10.571  12.871
81484W        W48025  26.266  35.595  12.377
81485W        W48026  36.874  15.307  14.255
81486W        W48027   0.929  23.452   3.203
81487W        W48028  11.485   5.669  14.829
81488W        W48029  35.809  24.558   2.948
81489W        W48030  15.786  14.649  14.376
81490W        W48031  30.160  21.345  12.813
81491W        W48032  23.214  23.263   2.378
81492W        W48033  18.483  32.988  11.456
81493W        W48034  13.121  36.377  11.408
81494W        W48035  23.480  28.975   0.394
81495W        W48036  18.074   5.091   3.412
81496W        W48037  32.998  40.975   0.604
81497W        W48038  13.065  21.725   3.004
81498W        W48039  35.074  21.265  12.187
81499W        W48040   6.250  25.558  14.712
81500W        W48041  20.676   5.850   1.164
81501W        W48042  25.532  18.580  11.994
81502W        W48043  35.684  41.936  14.485
81503W        W48044  38.439  24.847   0.828
81504W        W48045  11.621  13.230   0.890
81505W        W48046  35.925  29.440  13.988
81506W        W48047  11.307   5.724   1.547
81507W        W48048  38.119  27.573  10.463
81508W        W48049  35.590  14.338  11.559
81509W        W48050  23.375  35.420   1.812
81510W        W48051  37.619  30.807   0.957
81511W        W48052  28.359  43.276   0.335
81512W        W48053  10.112  29.656   4.612
81513W        W48054   4.029  21.214   2.244
81514W        W48055  31.583   5.220   0.080
81515W        W48056  40.267  30.412   2.659
81516W        W48057  42.282  12.750  13.265
81517W        W48058  26.166  39.498  10.769
81518W        W48059   9.916  10.331  14.880
81519W        W48060   8.290  18.291  14.607
81520W        W48061   1.106   7.861   3.643
81521W        W48062   3.734  13.174   2.161
81522W        W48063  31.241  34.018  14.471
81523W        W48064  34.499  38.594  14.399
81524W        W48065   8.240  29.686   1.668
81525W        W48066  43.861   3.203  13.466
81526W        W48067   9.825   0.390  10.922
81527W        W48068  29.038  14.337  12.058
81528W        W48069  42.905  39.011   1.730
81529W        W48070  28.973  33.452  12.880
81530W        W48071  30.588   9.129  12.989
81531W        W48072  22.898  19.848  12.584
81532W        W48073  13.966  34.536  10.614
81533W        W48074   2.246  24.272  11.536
81534W        W48075   0.467   3.657  14.388
81535W        W48076  22.811  17.824   4.035
81536W        W48077  10.450   4.145  12.028
81537W        W48078  41.416  43.040   3.587
81538W        W48079  25.025  33.227   3.771
81539W        W48080  35.150  24.605   0.212
81540W        W48081  37.378   3.103  12.892
81541W        W48082   7.467  20.763   1.533
81542W        W48083   4.308  37.210   4.951
81543W        W48084   8.855  35.142   0.856
81544W        W48085  29.401  11.235  12.166
81545W        W48086   5.245  26.298   0.966
81546W        W48087  15.858  32.051  13.978
81547W        W48088  10.192  41.929   2.435
81548W        W48089  35.494  12.234  10.709
81549W        W48090  27.023  16.411   4.510
81550W        W48091  12.796  20.544  11.570
81551W        W48092  40.377  23.636   3.699
81552W        W48093   1.970  36.591   3.848
81553W        W48094   2.392  18.418  10.325
81554W        W48095  22.578  13.321   1.730
81555W        W48096  19.209  26.616  11.444
81556W        W48097  17.874  42.997   2.654
81557W        W48098  12.717  13.934  12.496
81558W        W48099  15.197  31.164   5.010
81559W        W48100  22.987  10.609  12.973
81560W        W48101  12.993  18.867  13.915
81561W        W48102  34.316  43.822   1.518
81562W        W48103  41.385  37.478  11.274
81563W        W48104   0.839  30.567   1.705
81564W        W48105  41.925  28.216  10.662
81565W        W48106  33.185  41.984   2.388
81566W        W48107  43.030  38.459  14.882
81567W        W48108  31.555  40.084   4.228
81568W        W48109  20.721  40.132  13.736
81569W        W48110   2.053   4.855   3.800
81570W        W48111  41.295  19.571  11.572
81571W        W48112  25.652  28.638   2.222
81572W        W48113   1.244  13.783  14.566
81573W        W48114  16.103  31.201  12.563
81574W        W48115  42.968  25.548  12.672
81575W        W48116   6.724  39.613   3.264
81576W        W48117   5.320  21.669  14.508
81577W        W48118  12.374  33.473   1.265
81578W        W48119  40.445  25.046   0.076
81579W        W48120  35.620   9.268  11.204
81580W        W48121   3.546  14.761  13.591
81581W        W48122  21.690   4.156   0.358
81582W        W48123  35.018  14.582   1.803
81583W        W48124  17.147  39.074   3.053
81584W        W48125  16.725  12.379   0.194
81585W        W48126   1.991  34.873   4.107
81586W        W48127   6.194  19.426  14.887
81587W        W48128  20.108   0.675   0.457
81588W        W48129   7.787  38.857  14.969
81589W        W48130  34.338  30.728   1.236
81590W        W48131  31.095  32.010  11.146
81591W        W48132  37.813  32.582   1.326
81592W        W48133  24.058  39.072   0.420
81593W        W48134  21.004  10.653  13.105
81594W        W48135  25.495  38.473  10.843
81595W        W48136  22.147  22.687  13.913
81596W        W48137  32.494   1.022  14.398
81597W        W48138  31.458   0.553  11.585
81598W        W48139  36.905  15.255  13.359
81599W        W48140  29.170  33.852   2.322
81600W        W48141   1.415   6.606  11.531
81601W        W48142  17.809  23.292   2.343
81602W        W48143  34.417  32.423   3.723
81603W        W48144  35.068  28.876   1.726
81604W        W48145   2.428  11.306   2.374
81605W        W48146  36.989   8.834   0.879
81606W        W48147  25.472  10.600   3.228
81607W        W48148  10.449  36.774  13.390
81608W        W48149   2.715   8.733  14.010
81609W        W48150  32.449  37.685   2.758
81610W        W48151  35.886  44.064   2.776
81611W        W48152   5.414  42.494  14.299
81612W        W48153  33.628  19.494  11.126
81613W        W48154  44.930   4.707  14.703
81614W        W48155  31.670  30.956  12.530
81615W        W48156  21.986  26.208   1.347
81616W        W48157  17.301  13.021   1.855
81617W        W48158  38.097  13.326   9.587
81618W        W48159  40.870  25.049   4.664
81619W        W48160  24.548  12.230   3.709
81620W        W48161  39.324   4.162  12.481
81621W        W48162  40.508  30.847  12.517
81622W        W48163  42.566  20.011   1.093
81623W        W48164  11.807  20.708  10.762
81624W        W48165   8.212  38.333  14.046
81625W        W48166  20.390  28.512   0.503
81626W        W48167   2.976   9.835  14.443
81627W        W48168  30.795  25.300   4.391
81628W        W48169  17.401   6.347   0.338
81629W        W48170  20.260   2.567  13.451
81630W        W48171  23.281   5.143  13.041
81631W        W48172  32.363   0.795  12.948
81632W        W48173  12.788   9.252   2.881
81633W        W48174   2.496  15.418  13.467
81634W        W48175   2.760  35.376   3.741
81635W        W48176  26.991  41.783  14.484
81636W        W48177  43.471   9.938  10.960
81637W        W48178  44.027   4.349  11.502
81638W        W48179  26.251  30.785   4.118
81639W        W48180  18.586   4.141  14.797
81640W        W48181  41.012  33.480   3.309
81641W        W48182   3.469  30.469  14.866
81642W        W48183  44.906  34.615  12.301
81643W        W48184  31.900   0.460   2.856
81644W        W48185  43.519  35.838  13.401
81645W        W48186  15.257   5.296   3.607
81646W        W48187  11.422  40.090   9.919
81647W        W48188  38.438  27.671   1.011
81648W        W48189   0.530  16.548   4.936
81649W        W48190  44.858  22.099   4.290
81650W        W48191  43.674  37.115   3.548
81651W        W48192  33.802  42.502  12.386
81652W        W48193  20.647  37.920  12.118
81653W        W48194   2.959   1.400   3.327
81654W        W48195  44.932  26.669   0.802
81655W        W48196  24.373   5.276   2.592
81656W        W48197  40.934   7.777  11.903
81657W        W48198  44.372   7.711  14.849
81658W        W48199  30.460   9.331   3.235
81659W        W48200  41.868  28.432  13.374
81660W        W48201   6.188  30.127  13.483
81661W        W48202  29.102  24.551   2.247
81662W        W48203  35.130  39.403  12.992
81663W        W48204  12.240  25.632  14.113
81664W        W48205  41.840  28.715  10.473
81665W        W48206  22.570  12.085  11.539
81666W        W48207  33.602  35.867   1.635
81667W        W48208  37.349  24.045  12.538
81668W        W48209  19.758  36.701   1.408
81669W        W48210   5.302  38.634   9.733
81670W        W48211  35.230  27.626   2.836
81671W        W48212  42.909  32.998   0.124
81672W        W48213   0.724  23.917  11.709
81673W        W48214  12.442  12.640  11.676
81674W        W48215  41.346  38.902  11.263
81675W        W48216   5.679   5.845  13.057
81676W        W48217  25.675   8.355  13.311
81677W        W48218  30.962  40.651   1.768
81678W        W48219   9.610  28.753   1.683
81679W        W48220  20.603  17.126  13.118
81680W        W48221  30.977  25.002   2.167
81681W        W48222  40.424  20.944   2.692
81682W        W48223  28.150  21.030  14.805
81683W        W48224  37.098  28.176  13.601
81684W        W48225   7.433  37.467  12.474
81685W        W48226  13.957  26.081   3.198
81686W        W48227  14.305  30.543   0.892
81687W        W48228  27.704   8.835   3.628
81688W        W48229  27.279  17.758   0.801
81689W        W48230  37.925   2.323  12.312
81690W        W48231  35.870  17.131  10.650
81691W        W48232   2.219  10.274  12.701
81692W        W48233   3.090  18.294  13.049
81693W        W48234  10.296   9.604  11.626
81694W        W48235  44.329  41.053   0.897
81695W        W48236  33.190  34.082   3.251
81696W        W48237  29.990  34.915   1.988
81697W        W48238  24.972  23.238   2.255
81698W        W48239   8.876   2.716  11.117
81699W        W48240  10.726  15.648  12.859
81700W        W48241   0.769  44.022   2.396
81701W        W48242  41.726  18.575  11.180
81702W        W48243  16.066  43.965   2.215
81703W        W48244  11.904   4.796   3.408
81704W        W48245  42.839   0.315   9.600
81705W        W48246  22.497  42.802  14.955
81706W        W48247  41.943  31.053   1.835
81707W        W48248  35.851  36.086  10.743
81708W        W48249   0.834  34.596   2.880
81709W        W48250  44.264  44.368   4.613
81710W        W48251  19.170  16.758  13.381
81711W        W48252  34.821   0.860   3.192
81712W        W48253  30.925  27.664  10.401
81713W        W48254   9.697  24.169   2.751
81714W        W48255  15.845  17.467  14.488
81715W        W48256  21.618  14.777  12.352
81716W        W48257  23.015  25.990   1.228
81717W        W48258  38.070  33.060   3.936
81718W        W48259  41.169  42.406  12.439
81719W        W48260  28.176   1.238   2.751
81720W        W48261  41.503  33.895   4.526
81721W        W48262  39.471   2.349   0.538
81722W        W48263  22.702  14.285  14.468
81723W        W48264  21.007   3.756  10.944
81724W        W48265  19.320  34.702  10.794
81725W        W48266  26.400  42.822  12.466
81726W        W48267  12.145  13.352  13.335
81727W        W48268  24.995  41.918  14.525
81728W        W48269  40.038  23.424   0.874
81729W        W48270   4.323  14.963   3.176
81730W        W48271  22.264  44.028   0.299
81731W        W48272  44.814   9.666  12.905
81732W        W48273  24.133  37.359   1.874
81733W        W48274  16.746  10.168   3.703
81734W        W48275  12.156  41.255  14.511
81735W        W48276  35.079  38.731   2.740
81736W        W48277  36.386  15.979  13.991
81737W        W48278  43.741   3.966   2.039
81738W        W48279   4.734  36.775   3.574
81739W        W48280  13.158  43.016   1.034
81740W        W48281  23.991  41.950   1.199
81741W        W48282   8.402  12.103  12.965
81742W        W48283  38.358  18.020   2.322
81743W        W48284  37.731  15.242   0.422
81744W        W48285   6.646  21.272  14.074
81745W        W48286  17.885  26.700   0.805
81746W        W48287  37.606  19.186  14.627
81747W        W48288  13.700  37.717  13.488
81748W        W48289  23.995  24.369   4.422
81749W        W48290  40.242  10.769  11.489
81750W        W48291  25.271  11.279   4.700
81751W        W48292  19.419  32.147  14.912
81752W        W48293  26.498   6.355  14.269
81753W        W48294  33.787  16.844  10.693
81754W        W48295   4.505  25.248  14.831
81755W        W48296  16.488  19.952   4.925
81756W        W48297   5.041  19.203  14.590
81757W        W48298  15.328   8.583   2.298
81758W        W48299  13.800   1.494  13.496
81759W        W48300  14.479  38.750   0.894
81760W        W48301  34.536  28.734  14.367
81761W        W48302  11.221  12.875  12.069
81762W        W48303  41.882  41.572   4.198
81763W        W48304  27.952  14.355  11.174
81764W        W48305  31.255   3.592   2.889
81765W        W48306   1.685   1.839  10.366
81766W        W48307  15.271   9.692   1.693
81767W        W48308  32.177  40.268   4.549
81768W        W48309  27.621  14.633   4.692
81769W        W48310   3.318   9.188   2.616
81770W        W48311  36.586  23.512  12.147
81771W        W48312  40.132  35.103   3.693
81772W        W48313  17.286   3.760   0.125
81773W        W48314  43.877  17.318  14.497
81774W        W48315  25.780   6.423  11.163
81775W        W48316  41.760  15.505  11.739
81776W        W48317   9.236   1.308  14.749
81777W        W48318  16.657  18.362   0.985
81778W        W48319  40.844  34.803   4.124
81779W        W48320  43.298  37.674  11.954
81780W        W48321  37.937  12.057   1.402
81781W        W48322  32.904  30.009  11.587
81782W        W48323  16.792  10.585  13.080
81783W        W48324  26.134  35.013   0.050
81784W        W48325  19.759  39.375   3.288
81785W        W48326  43.431  11.667  14.819
81786W        W48327  11.486  14.146   0.859
81787W        W48328  27.908   8.846  12.918
81788W        W48329  36.477  38.497   3.802
81789W        W48330  22.952  36.019   0.419
81790W        W48331  34.599  11.826  12.570
81791W        W48332   0.788   9.712  13.012
81792W        W48333  12.176  16.615  11.688
81793W        W48334  43.529  12.434   1.430
81794W        W48335  41.534  33.575   3.256
81795W        W48336  30.224  38.763   0.068
81796W        W48337   5.014   9.152  13.478
81797W        W48338   6.196  39.772   0.395
81798W        W48339  24.234  38.906  13.127
81799W        W48340  43.300  44.507   1.542
81800W        W48341  38.385   6.303  11.551
81801W        W48342  41.111  10.680  12.331
81802W        W48343  43.256  39.889  14.747
81803W        W48344   9.277  39.865   3.113
81804W        W48345  27.500   7.086  11.451
81805W        W48346  35.071  15.291  12.330
81806W        W48347   1.934  33.633   2.629
81807W        W48348   8.339  33.905  10.582
81808W        W48349  26.964  11.939  11.042
81809W        W48350  19.029  13.816  14.491
81810W        W48351  12.132  37.806   4.097
81811W        W48352  40.846  37.873   2.735
81812W        W48353   0.981   7.824  12.844
81813W        W48354   7.529  41.204  14.275
81814W        W48355  15.613  30.151  12.173
81815W        W48356  25.753  12.547   2.166
81816W        W48357  10.902  42.062   9.990
81817W        W48358  11.418  19.106   4.623
81818W        W48359  30.968  11.798  14.830
81819W        W48360  29.141  30.450  14.461
81820W        W48361  17.691  30.140  10.678
81821W        W48362  20.796  25.235   0.979
81822W        W48363  28.355   1.466  11.169
81823W        W48364  28.491  42.478   3.427
81824W        W48365  37.746  14.327  13.058
81825W        W48366   4.820  31.617  10.636
81826W        W48367  38.161  41.244   0.893
81827W        W48368  16.177  25.670  10.639
81828W        W48369  18.394  26.658   5.100
81829W        W48370  29.421   0.375  11.988
81830W        W48371  37.835  39.973   0.653
81831W        W48372  13.752  23.284   3.646
81832W        W48373   5.158  11.307   0.811
81833W        W48374  20.093  10.735   2.495
81834W        W48375  14.710  31.691   1.315
81835W        W48376  23.326   5.564  10.380
81836W        W48377  10.482  41.271  12.000
81837W        W48378   1.268  27.666  13.759
81838W        W48379  17.591  26.899   3.721
81839W        W48380  25.502  13.819   3.818
81840W        W48381  36.541  39.482   0.250
81841W        W48382  38.990   0.690   4.122
81842W        W48383  37.543  42.427  13.644
81843W        W48384  18.330  28.252   2.438
81844W        W48385   9.360  10.415   2.125
81845W        W48386   5.124  20.376  11.999
81846W        W48387  37.429   8.856   3.229
81847W        W48388  33.965   7.326   3.646
81848W        W48389   5.394  34.467  12.513
81849W        W48390  27.001  32.495  12.082
81850W        W48391  35.863  16.355   1.890
81851W        W48392  10.283   4.697   3.312
81852W        W48393  31.101  31.726  14.790
81853W        W48394  41.711  32.552  14.216
81854W        W48395  11.186  19.092  13.295
81855W        W48396  43.403   0.675   4.541
81856W        W48397   2.224  29.214  14.311
81857W        W48398   7.173  33.381   2.842
81858W        W48399  13.846   0.768  10.694
81859W        W48400  32.472  39.941   0.979
81860W        W48401  12.341  28.573  10.548
81861W        W48402  27.182  39.092  14.300
81862W        W48403  30.087  38.512   3.298
81863W        W48404  21.171  15.054   0.746
81864W        W48405  13.070  19.675  11.879
81865W        W48406  35.591  22.534  11.101
81866W        W48407  35.349  32.527   4.583
81867W        W48408  12.458  33.396  12.524
81868W        W48409  12.929  35.388  13.767
81869W        W48410   1.157  20.122   0.332
81870W        W48411  25.090  44.094  11.882
81871W        W48412  18.195  40.611   5.036
81872W        W48413   8.927  42.795  13.745
81873W        W48414   0.487  30.395  11.243
81874W        W48415  23.050   7.345  10.667
81875W        W48416  28.867  32.391  14.858
81876W        W48417   6.281   7.666  11.905
81877W        W48418  15.838   1.171   3.950
81878W        W48419  40.306  39.850   4.166
81879W        W48420  41.601  12.864   4.381
81880W        W48421  33.093  39.005  11.186
81881W        W48422  21.540  10.546   2.010
81882W        W48423   3.504  19.599   3.238
81883W        W48424  18.027  22.994   1.337
81884W        W48425   3.433  37.583  14.960
81885W        W48426  13.157  16.621   2.183
81886W        W48427  20.676   9.226  12.917
81887W        W48428  30.137  23.312  11.171
81888W        W48429  17.074  24.196  11.018
81889W        W48430  35.348   6.207  12.944
81890W        W48431  34.900  34.586   2.686
81891W        W48432  32.861  25.422  14.487
81892W        W48433   2.261  18.834  14.635
81893W        W48434  33.103  37.243   9.925
81894W        W48435   6.702  22.630  13.768
81895W        W48436  27.732  26.057   3.322
81896W        W48437  11.092  18.647  13.550
81897W        W48438   1.442  23.282  12.367
81898W        W48439  36.060  25.509   0.390
81899W        W48440  40.685  23.869  10.909
81900W        W48441  15.048   0.006   0.719
81901W        W48442   5.966   7.122   2.350
81902W        W48443   9.039  43.416  14.510
81903W        W48444  32.158   2.182  13.960
81904W        W48445  44.050  42.359   2.858
81905W        W48446   9.729  36.789  13.869
81906W        W48447  21.424   1.204   1.961
81907W        W48448  13.304  16.266   0.406
81908W        W48449  27.968  34.391   2.701
81909W        W48450  19.560  12.361   2.873
81910W        W48451  16.086  29.011   1.694
81911W        W48452  40.618   1.729  13.016
81912W        W48453  44.679   8.572  12.027
81913W        W48454  37.098  25.085   1.212
81914W        W48455   2.351  16.977   3.168
81915W        W48456  18.614  42.893  14.442
81916W        W48457  18.797  37.054   4.214
81917W        W48458  38.032   0.493   0.400
81918W        W48459  28.202  32.092   2.198
81919W        W48460  44.539  21.071   4.324
81920W        W48461  28.503  41.797  13.456
81921W        W48462  26.569   2.774   0.303
81922W        W48463  31.546  11.616  12.148
81923W        W48464  33.046  26.432  10.850
81924W        W48465  21.827  13.759  14.192
81925W        W48466   4.299  40.252  13.985
81926W        W48467  12.357  40.969   2.075
81927W        W48468  20.542   5.385   2.509
81928W        W48469  19.242  32.983   1.166
81929W        W48470   9.819  14.605  11.731
81930W        W48471  19.315   7.845   0.177
81931W        W48472  23.698  20.642  14.013
81932W        W48473  39.443  26.595   5.147
81933W        W48474  39.608   5.120  14.734
81934W        W48475   7.626   0.929   3.689
81935W        W48476   1.821  26.226  12.479
81936W        W48477   1.301  43.924  11.634
81937W        W48478  24.091  25.697   0.860
81938W        W48479  16.485  10.307  10.703
81939W        W48480  43.060   8.316   3.713
81940W        W48481  16.380  16.314   1.416
81941W        W48482   4.783   7.549  14.243
81942W        W48483  24.733   2.479  10.667
81943W        W48484  12.999   2.920  12.222
81944W        W48485  14.646  19.214   2.742
81945W        W48486   0.792  22.666  14.809
81946W        W48487   4.011  41.228  11.751
81947W        W48488   3.777   7.634   2.390
81948W        W48489  20.172  22.508   1.025
81949W        W48490  42.472  13.602  13.220
81950W        W48491   3.832  42.895   2.219
81951W        W48492  36.626   7.794  13.524
81952W        W48493  23.535   7.442   3.749
81953W        W48494  28.478  44.314  12.572
81954W        W48495   1.485  40.424   0.886
81955W        W48496  32.088  28.281   0.828
81956W        W48497   7.859  17.772  12.961
81957W        W48498  16.069   2.314   2.787
81958W        W48499   4.855  28.973   2.603
81959W        W48500   9.190  36.987  13.879
81960W        W48501  35.246  16.834  14.214
81961W        W48502  38.081   9.361   2.290
81962W        W48503  34.163  34.858   2.343
81963W        W48504  40.352   8.964  14.674
81964W        W48505  15.120  17.829  10.569
81965W        W48506   1.648   0.928   4.471
81966W        W48507   9.300   2.319  10.705
81967W        W48508  16.552  15.669  12.547
81968W        W48509  18.854  14.827   1.217
81969W        W48510   2.494  16.197  10.885
81970W        W48511   1.997  29.745   2.424
81971W        W48512   1.838  21.297   4.081
81972W        W48513  39.152  23.761  12.507
81973W        W48514  29.024  22.824  13.995
81974W        W48515  42.968  27.416  10.695
81975W        W48516   9.053  26.511  14.720
81976W        W48517  17.669  44.236  12.642
81977W        W48518  44.937  13.675  12.384
81978W        W48519  21.048  24.580   4.684
81979W        W48520  36.598  43.979   2.384
81980W        W48521  38.487  18.782  12.041
81981W        W48522  37.050   2.012  13.876
81982W        W48523   9.558   3.095   3.338
81983W        W48524  11.217  43.343  11.941
81984W        W48525   5.264  44.893   0.725
81985W        W48526  43.234  33.337  13.536
81986W        W48527  19.345  24.213  12.061
81987W        W48528  43.255   5.395  13.245
81988W        W48529  12.459  35.264  14.786
81989W        W48530  29.988  29.632  10.814
81990W        W48531  15.216  24.582   3.851
81991W        W48532  26.638  36.806   4.157
81992W        W48533   4.448  35.919   0.357
81993W        W48534  33.512   3.101  11.580
81994W        W48535   7.435  30.816  14.372
81995W        W48536  14.338  39.627   0.934
81996W        W48537  11.371  31.741   1.845
81997W        W48538  17.100  42.511   2.852
81998W        W48539   9.470  44.414   4.298
81999W        W48540   0.255  11.285  10.365
82000W        W48541   9.922  22.209  13.870
82001W        W48542  21.899  44.309   1.674
82002W        W48543  22.491  23.112  14.804
82003W        W48544  34.031  30.637   3.282
82004W        W48545  43.345  39.871   3.550
82005W        W48546  35.109  11.917   2.231
82006W        W48547  14.660  18.095  14.484
82007W        W48548  30.717  27.119  13.916
82008W        W48549  11.401  10.882   1.833
82009W        W48550  35.156  11.725   2.693
82010W        W48551  20.700  12.102  10.815
82011W        W48552  24.074  30.801   3.403
82012W        W48553   5.264   7.151  12.513
82013W        W48554  36.324  29.542  12.969
82014W        W48555  13.044  19.783   0.676
82015W        W48556   9.974  14.337   2.975
82016W        W48557  39.095  11.121  11.999
82017W        W48558  19.225  32.408  12.440
82018W        W48559  17.665   5.505  11.176
82019W        W48560  10.216  29.291  11.343
82020W        W48561  30.063   9.842  11.167
82021W        W48562  37.803  36.876   1.008
82022W        W48563  28.298  30.573  14.433
82023W        W48564  19.586  29.133  12.347
82024W        W48565  31.091   0.056  12.910
82025W        W48566   2.080  27.959   1.353
82026W        W48567  11.859   0.553   1.893
82027W        W48568  37.024  37.784  14.692
82028W        W48569  23.240  10.132  11.108
82029W        W48570  10.985  21.164   2.366
82030W        W48571  21.541   1.564  14.025
82031W        W48572  14.027   8.853   2.822
82032W        W48573  28.617   3.312  12.369
82033W        W48574  43.305  43.745  13.007
82034W        W48575  33.957  21.102  11.454
82035W        W48576  44.881  11.637  14.354
82036W        W48577  36.228  11.622  14.282
82037W        W48578  28.084  39.765   4.628
82038W        W48579  22.170  29.345   2.150
82039W        W48580  13.280  37.053   3.740
82040W        W48581  39.251  23.732  13.992
82041W        W48582  26.972   3.046   1.202
82042W        W48583  40.833  18.276   3.275
82043W        W48584  28.508  35.293  14.905
82044W        W48585  43.323   7.319  11.066
82045W        W48586   5.759  19.535  12.356
82046W        W48587  10.333  33.121  14.958
82047W        W48588  14.382  42.358   1.302
82048W        W48589   6.769  44.889   0.682
82049W        W48590  14.288   8.416  11.052
82050W        W48591  12.954  20.160  13.983
82051W        W48592  14.341  43.990   4.237
82052W        W48593  23.420  14.052   3.417
82053W        W48594  23.156  26.113   2.616
82054W        W48595   4.830  33.770  10.742
82055W        W48596  21.053  33.432   2.152
82056W        W48597  44.952   0.731   1.417
82057W        W48598  18.585  12.032   5.095
82058W        W48599  10.079   0.075  12.445
82059W        W48600  13.608  10.271   0.925
82060W        W48601  22.733  27.222  13.513
82061W        W48602   9.908  20.137  14.500
82062W        W48603  39.467  26.842  13.619
82063W        W48604   0.252  10.809  11.153
82064W        W48605  35.036  41.365  12.632
82065W        W48606  29.139  34.384  13.561
82066W        W48607  10.689   6.405  14.002
82067W        W48608  24.984   2.269   3.966
82068W        W48609  10.307  34.599   2.276
82069W        W48610  30.862  36.519  10.810
82070W        W48611   3.224  41.095   0.737
82071W        W48612  25.699  44.360   1.989
82072W        W48613  17.291  21.317   4.143
82073W        W48614   4.387   4.943  14.921
82074W        W48615  30.400  28.050   0.758
82075W        W48616   6.819  38.504  14.049
82076W        W48617  28.614  42.008   3.604
82077W        W48618   2.636  40.625  11.091
82078W        W48619   1.396  24.564   1.969
82079W        W48620  26.153  15.753   4.639
82080W        W48621  37.327   3.208   4.579
82081W        W48622  40.280  23.550  10.772
82082W        W48623   9.780  19.940   2.759
82083W        W48624   4.194   3.897  11.029
82084W        W48625  11.258  32.340   2.714
82085W        W48626  11.804  18.814  13.851
82086W        W48627  19.761  27.111  12.994
82087W        W48628  35.924  31.903  14.736
82088W        W48629  35.589  16.617  11.376
82089W        W48630  19.523   9.275   0.906
82090W        W48631  27.071  22.311  10.267
82091W        W48632  16.368  17.105   0.601
82092W        W48633   5.852  25.311   0.399
82093W        W48634  44.771   7.201   2.892
82094W        W48635  21.272  36.710  13.883
82095W        W48636  30.904  43.558  13.042
82096W        W48637   4.385  22.184  13.034
82097W        W48638  37.583   9.244  13.878
82098W        W48639  17.175  38.371  12.418
82099W        W48640  25.723  36.493   1.222
82100W        W48641  19.573  36.925  12.610
82101W        W48642  37.468  28.466  10.726
82102W        W48643  17.602  35.470   3.633
82103W        W48644  18.625  14.088  14.261
82104W        W48645   5.278  42.090   2.804
82105W        W48646  33.422  20.675   3.199
82106W        W48647  19.477  22.196   2.906
82107W        W48648  17.713  18.504  13.564
82108W        W48649  27.660  11.311  11.143
82109W        W48650  39.643  32.472  11.458
82110W        W48651  12.780   9.753   2.564
82111W        W48652  10.840  22.724   3.857
82112W        W48653  37.062  13.564  12.173
82113W        W48654   8.224  25.619   1.899
82114W        W48655  43.366  41.270  12.924
82115W        W48656  22.541  22.487  12.128
82116W        W48657  38.609  43.644   0.945
82117W        W48658   5.302  21.940   3.670
82118W        W48659   2.268   9.885  10.438
82119W        W48660  14.768  10.540  14.578
82120W        W48661  19.430  14.161  14.657
82121W        W48662  20.998  33.803   0.497
82122W        W48663  22.458  26.461  12.497
82123W        W48664  26.218  14.245  11.587
82124W        W48665  36.292  39.839   1.497
82125W        W48666  34.218   0.736   2.363
82126W        W48667  40.974  28.568   4.583
82127W        W48668  43.410  34.143   4.060
82128W        W48669  21.750  39.842   2.819
82129W        W48670  23.022  28.710  14.577
82130W        W48671   4.615   2.755  10.206
82131W        W48672  30.644   4.806  10.563
82132W        W48673  39.790  36.327  13.888
82133W        W48674  19.118   0.969  14.920
82134W        W48675  25.198   7.941   0.745
82135W        W48676  33.114   9.851  13.083
82136W        W48677  21.090  34.590   0.861
82137W        W48678   3.363  44.530  14.562
82138W        W48679  41.852   7.450   0.240
82139W        W48680  23.909  28.615  14.840
82140W        W48681  24.178  27.616   2.805
82141W        W48682  44.436  35.440  10.688
82142W        W48683   4.913  25.628   2.811
82143W        W48684  33.890   3.838  13.086
82144W        W48685   1.666  20.133   0.305
82145W        W48686  32.717   0.307  12.091
82146W        W48687  23.779  16.663  11.550
82147W        W48688  10.281  20.665   2.301
82148W        W48689   5.148  28.984   1.733
82149W        W48690  23.961   4.327   4.503
82150W        W48691  12.106  16.177  12.656
82151W        W48692  34.291   2.680  10.855
82152W        W48693   9.886  22.524   1.308
82153W        W48694  30.604  29.630   0.189
82154W        W48695   6.767  13.759  13.457
82155W        W48696  39.582  36.416  14.813
82156W        W48697  18.285  14.602   1.508
82157W        W48698  38.502  17.438  10.414
82158W        W48699  24.464  16.216   4.615
82159W        W48700  36.683   2.233  12.032
82160W        W48701  37.052  17.162   4.221
82161W        W48702  28.508  35.798  14.930
82162W        W48703  23.263  39.952   3.183
82163W        W48704  26.643  42.565  10.695
82164W        W48705   0.844   5.094   1.839
82165W        W48706  25.137  34.225  11.028
82166W        W48707  28.254  16.113   2.249
82167W        W48708   3.788  15.724   3.689
82168W        W48709  39.304  36.807   0.048
82169W        W48710   2.609  13.714   3.714
82170W        W48711  26.973  24.565   2.791
82171W        W48712  43.542  14.652  12.910
82172W        W48713  15.359  11.110   2.644
82173W        W48714  34.712  17.098   3.973
82174W        W48715  37.497   9.364   4.861
82175W        W48716   9.883  22.256   1.771
82176W        W48717  32.308  39.868  12.059
82177W        W48718   1.833  32.434  14.867
82178W        W48719  29.762  22.467   3.887
82179W        W48720  13.675   4.165   3.332
82180W        W48721  33.395  32.191  11.978
82181W        W48722  32.527  33.320  11.259
82182W        W48723  43.148  33.978  12.434
82183W        W48724  32.435  20.756  12.822
82184W        W48725  34.403  13.805   3.747
82185W        W48726   7.641  19.104  13.769
82186W        W48727   8.597  33.032   4.459
82187W        W48728  27.498  21.470   2.141
82188W        W48729   8.125  30.420  11.503
82189W        W48730   5.635  13.298  11.572
82190W        W48731  22.568  39.519   2.654
82191W        W48732  17.700   0.207   0.937
82192W        W48733  15.122  10.407  10.388
82193W        W48734  15.358  44.648  11.623
82194W        W48735   8.977   3.958   1.144
82195W        W48736  35.479   4.813   2.385
82196W        W48737   6.417   3.130  14.511
82197W        W48738   0.960  26.944  14.428
82198W        W48739   9.793  11.349   4.514
82199W        W48740  25.156  27.194   2.580
82200W        W48741  28.652  31.539  12.387
82201W        W48742  21.684  24.794   4.884
82202W        W48743   7.996  25.715  13.878
82203W        W48744  37.422  22.727   2.009
82204W        W48745  24.163  37.736  13.488
82205W        W48746  20.534   8.347   4.648
82206W        W48747  36.980   2.284   5.583
82207W        W48748  40.071  39.032   3.191
82208W        W48749  15.923   3.688   5.197
82209W        W48750   5.054  10.725   4.590
82210W        W48751  33.759  16.697   0.206
82211W        W48752   7.682  17.083  10.331
82212W        W48753  16.559  20.663  11.690
82213W        W48754  22.815  18.889   1.840
82214W        W48755  16.141  11.164  14.605
82215W        W48756  41.067  37.298   0.082
82216W        W48757  11.862  35.141  10.741
82217W        W48758  23.947  19.867  12.799
82218W        W48759  12.591  16.062  12.572
82219W        W48760   1.367  16.599  11.545
82220W        W48761  13.395  30.984  13.063
82221W        W48762  16.648  18.740  10.776
82222W        W48763   4.222  15.368  12.958
82223W        W48764  17.370  29.049   2.790
82224W        W48765  33.626  24.496   2.662
82225W        W48766  15.771   0.307  10.711
82226W        W48767   9.820  44.502  13.451
82227W        W48768   1.785  21.678  11.955
82228W        W48769   5.902  12.901  13.330
82229W        W48770  22.678  18.534   0.262
82230W        W48771  42.237   4.451   1.070
82231W        W48772   3.538  21.249   3.485
82232W        W48773   1.431   6.412  10.663
82233W        W48774   4.538  12.707  13.112
82234W        W48775  20.779  32.285   4.409
82235W        W48776  25.653  28.212   4.133
82236W        W48777  28.499  34.789  14.823
82237W        W48778  42.494  44.023  11.378
82238W        W48779  42.032  38.134  11.911
82239W        W48780  42.289   4.930   2.817
82240W        W48781  18.672  29.037  12.520
82241W        W48782   9.406  17.851  11.972
82242W        W48783  10.432   9.742   0.654
82243W        W48784  27.512   9.687  14.865
82244W        W48785  12.038  24.092  12.808
82245W        W48786   5.873  41.456  14.288
82246W        W48787  25.698  26.685   3.984
82247W        W48788  37.002  35.780   3.916
82248W        W48789  17.221  32.383  13.576
82249W        W48790  16.842  33.100   1.176
82250W        W48791   6.673  30.578   2.865
82251W        W48792   4.295  26.505   1.383
82252W        W48793  32.988  13.070   0.287
82253W        W48794   9.138  13.648   3.340
82254W        W48795   1.385  30.591  10.451
82255W        W48796  17.741  21.527  11.074
82256W        W48797  37.174   5.657  13.072
82257W        W48798   3.792  43.680  10.616
82258W        W48799  44.970  38.577   4.510
82259W        W48800  23.669  24.805  13.635
82260W        W48801   2.613  25.185   2.091
82261W        W48802  32.508   8.597   1.823
82262W        W48803  23.982  12.568   1.694
82263W        W48804  34.010  36.484   2.984
82264W        W48805   4.774  22.627   9.937
82265W        W48806  18.090  15.728  11.846
82266W        W48807  20.747   3.466  11.273
82267W        W48808  15.197  30.211  11.500
82268W        W48809   3.756  14.764   1.956
82269W        W48810   7.279  42.811  13.609
82270W        W48811  31.581   3.687   5.294
82271W        W48812  26.185  30.383  10.701
82272W        W48813  43.376   0.831   0.935
82273W        W48814  28.507  42.048   0.907
82274W        W48815  44.491  21.016  12.851
82275W        W48816  18.097  29.562   4.332
82276W        W48817  20.782  23.719   1.694
82277W        W48818  29.461  40.602   3.788
82278W        W48819  44.731  20.718  12.036
82279W        W48820   6.244  38.770   0.300
82280W        W48821  10.755  44.223   3.918
82281W        W48822  43.676   1.328  11.464
82282W        W48823  21.693  14.300  12.995
82283W        W48824  14.078  18.241   2.111
82284W        W48825  21.684   9.917  11.689
82285W        W48826  38.708  28.664   2.610
82286W        W48827  14.944  23.715   0.883
82287W        W48828  26.125  39.453   1.231
82288W        W48829  32.883  16.208  13.369
82289W        W48830   2.874  30.128   2.212
82290W        W48831   8.891  15.101   4.616
82291W        W48832   2.862   7.801  12.519
82292W        W48833  13.785  39.284  13.496
82293W        W48834   8.017   9.361  10.696
82294W        W48835  36.329  23.136  10.930
82295W        W48836   6.643  41.357  14.772
82296W        W48837   4.332  43.823   2.411
82297W        W48838   5.635  14.339   1.889
82298W        W48839  40.550  18.137   3.663
82299W        W48840  23.144  36.630  13.948
82300W        W48841   3.083  29.363  12.837
82301W        W48842  13.917  38.520   0.220
82302W        W48843  20.278   4.287  13.930
82303W        W48844  34.901   1.489  12.981
82304W        W48845  23.954   6.289  12.362
82305W        W48846   6.367  40.578   2.657
82306W        W48847  16.815  13.287  13.436
82307W        W48848  15.718  24.921   1.854
82308W        W48849   0.692  22.674   4.540
82309W        W48850  27.483  37.575   4.128
82310W        W48851  40.289   3.091   4.071
82311W        W48852   7.024  28.409  11.142
82312W        W48853  35.662  19.348   2.374
82313W        W48854  13.287  17.639   4.584
82314W        W48855   3.916   9.251   4.827
82315W        W48856  35.605  11.150  11.608
82316W        W48857  34.015  27.145  12.347
82317W        W48858   2.840  15.357   3.959
82318W        W48859  11.529  25.074   0.066
82319W        W48860  43.504   6.474   0.832
82320W        W48861  17.713  19.528  13.321
82321W        W48862  11.004  23.445  11.753
82322W        W48863  27.897  38.516  12.509
82323W        W48864   0.319  35.695   1.600
82324W        W48865   4.460   3.778   1.261
82325W        W48866  15.172  29.955   0.764
82326W        W48867  12.145   6.893  13.862
82327W        W48868   9.883  18.516   0.933
82328W        W48869  14.925  27.005  12.784
82329W        W48870  32.496  40.219  11.120
82330W        W48871   3.592  12.330  10.895
82331W        W48872   1.469  41.530  13.849
82332W        W48873  37.117  22.741  13.991
82333W        W48874   4.242  31.354   2.625
82334W        W48875  32.926   7.339   2.949
82335W        W48876   8.426   6.494  12.431
82336W        W48877  16.348  43.032   3.022
82337W        W48878   8.980   8.133   0.152
82338W        W48879   3.366   6.677   0.449
82339W        W48880  15.160  13.471   3.857
82340W        W48881  34.363   3.910   1.765
82341W        W48882  28.651  33.358  14.984
82342W        W48883  11.240  31.212  12.733
82343W        W48884  44.051   6.267  10.425
82344W        W48885   7.885  22.433  11.172
82345W        W48886  26.031  39.049   1.533
82346W        W48887  22.405  32.539  11.787
82347W        W48888  32.170  18.617   1.258
82348W        W48889  23.356  15.394   2.812
82349W        W48890  35.567  22.018  14.849
82350W        W48891  31.049  12.568  13.786
82351W        W48892   4.319  29.897   4.194
82352W        W48893   7.910  35.371   3.929
82353W        W48894  19.247   3.452  12.866
82354W        W48895  28.336  18.056   4.672
82355W        W48896  14.163  12.252  10.628
82356W        W48897  21.287  22.078   3.610
82357W        W48898  28.622  23.584   1.443
82358W        W48899  32.407  24.094  12.946
82359W        W48900  44.874  16.221   1.384
82360W        W48901  33.485  43.239   4.093
82361W        W48902  37.109  10.788   1.122
82362W        W48903  44.386   9.918  11.116
82363W        W48904  13.709  12.981  14.105
82364W        W48905   0.793  28.179   3.268
82365W        W48906  31.821  20.093  11.692
82366W        W48907  34.311  37.824  10.682
82367W        W48908  11.352   8.158   2.318
82368W        W48909  37.177   5.130   4.022
82369W        W48910  36.507  43.806   0.273
82370W        W48911   3.557  23.586   0.853
82371W        W48912   1.853   8.027   2.463
82372W        W48913  44.624  13.056  14.063
82373W        W48914  36.591  24.350  11.957
82374W        W48915  26.383   6.788  12.039
82375W        W48916  36.052   4.393  12.987
82376W        W48917  18.079  12.108  10.732
82377W        W48918  14.578  41.023   2.304
82378W        W48919  35.332  27.805  14.872
82379W        W48920  10.953  32.375  14.447
82380W        W48921  30.834   9.371  14.813
82381W        W48922  28.548  31.594   1.460
82382W        W48923  11.750  38.277   0.284
82383W        W48924   4.783  11.167  12.435
82384W        W48925   4.845  23.909   9.857
82385W        W48926   4.122  27.236   2.384
82386W        W48927  11.293  22.809   3.561
82387W        W48928   7.115  17.189   4.477
82388W        W48929  23.698  31.906   1.746
82389W        W48930  34.423  29.751   2.466
82390W        W48931   7.939  22.040   0.535
82391W        W48932  39.457   4.460   0.487
82392W        W48933  39.885  35.824  14.021
82393W        W48934  25.269  42.170   3.209
82394W        W48935  32.533  24.861   1.260
82395W        W48936  35.885   0.767   4.066
82396W        W48937  34.401  30.251  14.021
82397W        W48938  28.868   8.206   1.757
82398W        W48939  24.253  33.041  13.725
82399W        W48940  18.980  40.145   3.208
82400W        W48941  29.035  21.817  10.849
82401W        W48942   6.213  36.009   4.567
82402W        W48943  36.223  16.616  11.001
82403W        W48944  32.510  23.341   4.594
82404W        W48945   4.877  12.112  13.673
82405W        W48946  12.850  10.284   4.389
82406W        W48947  13.147  38.841   0.855
82407W        W48948   8.803  31.152  10.476
82408W        W48949   1.053   8.448  14.081
82409W        W48950  28.582  35.705   3.835
82410W        W48951  13.237  16.043   2.855
82411W        W48952  35.514   4.825   1.294
82412W        W48953  43.972  28.121  14.941
82413W        W48954  13.257   4.461   4.636
82414W        W48955  11.247  28.727   4.169
82415W        W48956  42.463  30.396  12.904
82416W        W48957  29.278  27.003  13.448
82417W        W48958  16.148  42.791  13.962
82418W        W48959  10.727  18.611  11.570
82419W        W48960   7.055   0.434  10.764
82420W        W48961  40.102  34.190   0.547
82421W        W48962  31.933   1.287  11.283
82422W        W48963  21.794  24.472  10.767
82423W        W48964  30.927   1.509   1.357
82424W        W48965   8.553  35.402   1.198
82425W        W48966   4.497  22.672  11.736
82426W        W48967  12.389   0.347   2.821
82427W        W48968  40.135   3.806   1.848
82428W        W48969  30.954  32.412   5.072
82429W        W48970   2.441   4.129   4.098
82430W        W48971  42.857  41.520   3.313
82431W        W48972   3.187   3.895   1.800
82432W        W48973  24.193  34.504   0.008
82433W        W48974  30.237  41.124  13.293
82434W        W48975   7.661  20.273   3.836
82435W        W48976   6.950  24.024  14.344
82436W        W48977  40.163   0.979  10.402
82437W        W48978  13.974   7.283  14.251
82438W        W48979  16.162   9.612   2.397
82439W        W48980  12.579  22.463   1.768
82440W        W48981   3.008  17.188   3.805
82441W        W48982  42.816  40.501   3.173
82442W        W48983  36.499  14.798   2.681
82443W        W48984  19.615  30.044   2.675
82444W        W48985  12.591   8.253  12.502
82445W        W48986   2.279  32.619   1.288
82446W        W48987  39.437  37.490  11.990
82447W        W48988  35.567  13.092   0.874
82448W        W48989   7.598   7.743   1.925
82449W        W48990   1.247   5.892   1.312
82450W        W48991  39.511   4.554   1.498
82451W        W48992   3.771   3.333  12.148
82452W        W48993  28.149  30.763  12.439
82453W        W48994  28.375   6.823  11.649
82454W        W48995   2.796  32.606  12.647
82455W        W48996   8.931  38.531   0.441
82456W        W48997  11.433  10.268   4.467
82457W        W48998  27.060   9.770  13.383
82458W        W48999   7.657   8.540   0.199
82459W        W49000  34.550  40.333   3.279
82460W        W49001   0.418  24.260   1.257
82461W        W49002  42.032  43.011   3.680
82462W        W49003  17.747  37.545  10.837
82463W        W49004  21.212  38.514  10.782
82464W        W49005  28.108  39.353   2.289
82465W        W49006  20.873   2.268  14.259
82466W        W49007  15.865  10.324  13.318
82467W        W49008  44.353  11.617   4.704
82468W        W49009  27.604  29.853   3.718
82469W        W49010  28.504  21.185  10.822
82470W        W49011  27.369  44.309  14.393
82471W        W49012  33.762  14.347   2.350
82472W        W49013  15.300  21.808   4.589
82473W        W49014  15.169   4.886  14.027
82474W        W49015   8.143  40.848  13.852
82475W        W49016  31.455   0.458  10.522
82476W        W49017  28.976  22.537  14.415
82477W        W49018  40.773   3.444   2.940
82478W        W49019  35.068   6.750  10.677
82479W        W49020   6.172  29.176  12.831
82480W        W49021  35.788  25.936  11.898
82481W        W49022  34.601  37.679  10.281
82482W        W49023  10.729  15.834  14.851
82483W        W49024  14.774   7.296   0.880
82484W        W49025   8.912  16.901   0.402
82485W        W49026  35.414   9.205  12.422
82486W        W49027   3.802  28.523  11.665
82487W        W49028  13.036  27.054   4.718
82488W        W49029  42.839  20.231  13.558
82489W        W49030  39.114  41.304   3.892
82490W        W49031  13.797  14.233   4.761
82491W        W49032  29.945  40.980  14.890
82492W        W49033  38.338  33.549  11.550
82493W        W49034  23.974  11.249  11.566
82494W        W49035  11.305  32.048   2.279
82495W        W49036  23.579  43.503   0.804
82496W        W49037  19.936  42.885   4.217
82497W        W49038   4.914  16.289   0.180
82498W        W49039  14.922  43.868  11.973
82499W        W49040  16.000   3.571   2.796
82500W        W49041   5.351  21.758   0.498
82501W        W49042  43.240   9.907   3.281
82502W        W49043  24.131  26.060  11.222
82503W        W49044  26.609   4.255   3.782
82504W        W49045  37.693  42.866   4.345
82505W        W49046  15.141  12.896   1.414
82506W        W49047  33.295   6.307   0.262
82507W        W49048  35.635  10.063   2.334
82508W        W49049   7.141  43.913  13.902
82509W        W49050  10.359   5.381  13.916
82510W        W49051  27.117  43.504   2.377
82511W        W49052  31.439  44.936  10.569
82512W        W49053  37.943  20.736   0.292
82513W        W49054  36.341  23.983  14.898
82514W        W49055  39.915  23.709   4.921
82515W        W49056   9.207  31.361   2.498
82516W        W49057   5.653  41.899   0.470
82517W        W49058   9.693  33.951  12.478
82518W        W49059   0.849  42.832  10.301
82519W        W49060  30.404  24.542   1.646
82520W        W49061  28.019  26.531   1.407
82521W        W49062  15.115  32.695   4.010
82522W        W49063  10.388  21.936  13.774
82523W        W49064  44.279   3.113  14.354
82524W        W49065   1.365  18.718   0.077
82525W        W49066  41.368   0.833  11.204
82526W        W49067  29.555  42.376  13.871
82527W        W49068   5.797  30.345   3.343
82528W        W49069   8.804  11.852  14.885
82529W        W49070  14.336  42.338  13.305
82530W        W49071   5.931  23.056  13.795
82531W        W49072  10.346  23.203   2.042
82532W        W49073  11.038  35.857   5.061
82533W        W49074  25.355   2.821   2.259
82534W        W49075  23.662  40.263  12.208
82535W        W49076  28.144  12.142  10.799
82536W        W49077  38.924  32.559  11.928
82537W        W49078   5.445  23.487   0.358
82538W        W49079  32.041  36.348  12.934
82539W        W49080   7.982  29.106  14.937
82540W        W49081  13.385  29.431  10.993
82541W        W49082   0.536   6.849  12.916
82542W        W49083  28.470  27.744   2.159
82543W        W49084  33.407  11.881  10.943
82544W        W49085  31.533  36.469   4.737
82545W        W49086   5.939  24.369   2.451
82546W        W49087  32.944  18.561  14.831
82547W        W49088  27.186   1.820  13.355
82548W        W49089  42.274  39.412   2.741
82549W        W49090  26.064  23.930  13.705
82550W        W49091  13.880  14.471  13.314
82551W        W49092  30.598  27.035  11.887
82552W        W49093  43.374  17.737   4.733
82553W        W49094  33.440   0.682  10.982
82554W        W49095  28.670   8.617  11.115
82555W        W49096  19.100  16.338  12.892
82556W        W49097  11.846   5.744  11.442
82557W        W49098  32.668  23.657   0.874
82558W        W49099   7.186  26.012  13.906
82559W        W49100  38.139  21.811   2.657
82560W        W49101  19.876  35.472   1.809
82561W        W49102  35.415  21.734   2.341
82562W        W49103  13.501  21.459  12.857
82563W        W49104  40.044  14.108  11.926
82564W        W49105  42.672  42.396   4.031
82565W        W49106  31.104  10.156   1.776
82566W        W49107  31.911  36.880   0.128
82567W        W49108   8.227  22.243  11.514
82568W        W49109  21.682   8.923  14.026
82569W        W49110  15.612  29.069  11.586
82570W        W49111  21.086   1.471   4.170
82571W        W49112  30.877   6.603   2.362
82572W        W49113  10.454  27.674  13.436
82573W        W49114  15.816  12.432  14.438
82574W        W49115  28.106  43.880  10.371
82575W        W49116  25.356  10.994  11.314
82576W        W49117  33.476  37.313  14.398
82577W        W49118  18.728  25.589   4.583
82578W        W49119  33.792  14.615  10.738
82579W        W49120  14.273   9.091  12.498
82580W        W49121   1.114  22.915   1.466
82581W        W49122  37.822  11.651   0.409
82582W        W49123  23.236  43.885  13.764
82583W        W49124  18.875  20.299  11.108
82584W        W49125  10.360   2.484   2.696
82585W        W49126  27.090  30.575  13.690
82586W        W49127  10.417  21.047  14.380
82587W        W49128  21.151  31.214  11.883
82588W        W49129  20.076   2.678   2.137
82589W        W49130   2.508  30.471  12.565
82590W        W49131   5.875  28.702   0.791
82591W        W49132  22.107  21.939   3.099
82592W        W49133  27.609  18.737   2.615
82593W        W49134  41.439  25.077  13.096
82594W        W49135  29.905  11.310  11.987
82595W        W49136  13.828   4.272   4.314
82596W        W49137  43.963  29.130   2.618
82597W        W49138  14.541  36.572   3.126
82598W        W49139  21.626  19.130  11.475
82599W        W49140  12.793  31.069   1.907
82600W        W49141  15.149   9.182   0.749
82601W        W49142  20.660  15.136  14.409
82602W        W49143  18.055  33.572  12.644
82603W        W49144   8.208  26.440  12.019
82604W        W49145   9.690  10.755   1.880
82605W        W49146  16.230   1.831   2.918
82606W        W49147  21.439  17.650  11.581
82607W        W49148  38.544  29.557  10.508
82608W        W49149  29.918  37.686  10.543
82609W        W49150  34.996   5.631  14.346
82610W        W49151  43.496  27.229   3.713
82611W        W49152  16.662  14.301   1.752
82612W        W49153  11.562   6.465   3.652
82613W        W49154  38.040   3.691   2.882
82614W        W49155  33.045  20.816   1.434
82615W        W49156  37.847   4.297  14.427
82616W        W49157  35.844  24.765  12.431
82617W        W49158  24.375   9.465   2.363
82618W        W49159   7.721  19.573   2.645
82619W        W49160  18.128   1.757  12.634
82620W        W49161   9.789  13.358  12.146
82621W        W49162   5.939   8.790  14.207
82622W        W49163   5.874  38.979  12.900
82623W        W49164  34.189  41.111   2.827
82624W        W49165  19.617   2.290   4.611
82625W        W49166   7.435  23.021   4.617
82626W        W49167  43.225  41.543   2.459
82627W        W49168   6.747  20.085  11.475
82628W        W49169  12.120   8.739   3.668
82629W        W49170  41.879   6.794   0.583
82630W        W49171   7.801  11.830  14.820
82631W        W49172  25.245  16.509  11.739
82632W        W49173  31.124  27.132  13.593
82633W        W49174  13.143  24.906  12.955
82634W        W49175   8.732  36.126  10.777
82635W        W49176   6.718  19.894   0.476
82636W        W49177  30.842   4.500   4.319
82637W        W49178  31.482  41.043   4.256
82638W        W49179  28.257  40.394   0.336
82639W        W49180  44.989  16.813   3.667
82640W        W49181  21.410  22.091   0.758
82641W        W49182   0.292   2.932   2.358
82642W        W49183  36.884  26.992  10.701
82643W        W49184   0.764   6.936   3.621
82644W        W49185   4.354  10.765   2.802
82645W        W49186   8.839  26.494   1.796
82646W        W49187  42.872  11.598   2.785
82647W        W49188  33.865  37.762   1.494
82648W        W49189  18.467  29.122   0.208
82649W        W49190  35.918  17.665  10.671
82650W        W49191  17.091  26.887   3.589
82651W        W49192   9.234  29.849   2.142
82652W        W49193   9.275   1.864   3.840
82653W        W49194   2.943  14.486  12.602
82654W        W49195   1.894  44.655  10.890
82655W        W49196  22.042  26.665  11.471
82656W        W49197  25.532  43.737  13.717
82657W        W49198  10.912   7.889  10.710
82658W        W49199  29.382  28.976  12.909
82659W        W49200  17.660  38.222   1.570
82660W        W49201  26.932  44.975  13.894
82661W        W49202  10.618  38.371   4.058
82662W        W49203   7.315  31.197   0.699
82663W        W49204  27.072   1.321   2.917
82664W        W49205  14.821  16.382   0.512
82665W        W49206   7.849  41.490  10.866
82666W        W49207   9.403  10.335   0.421
82667W        W49208  14.757   4.383   1.244
82668W        W49209  17.619  29.477  14.826
82669W        W49210   5.762   5.398  14.948
82670W        W49211   0.802  18.991   3.343
82671W        W49212  23.584  40.259  13.550
82672W        W49213   5.751   3.204   0.992
82673W        W49214  32.907   8.835   0.299
82674W        W49215  23.498  42.833   2.369
82675W        W49216  37.050   3.888   2.754
82676W        W49217  40.981  11.107  11.154
82677W        W49218  29.023  21.841  13.648
82678W        W49219  19.787   8.585  10.329
82679W        W49220  12.852  13.073   2.736
82680W        W49221  39.620   1.838  14.849
82681W        W49222  34.197  13.158   4.797
82682W        W49223  37.358  23.401  11.717
82683W        W49224  31.161  43.411   1.518
82684W        W49225  18.271   9.725   0.243
82685W        W49226  42.965   4.217   2.604
82686W        W49227  41.012  19.270  13.066
82687W        W49228   0.351  29.893  12.079
82688W        W49229  21.173  34.278  13.305
82689W        W49230   0.530  20.033  10.547
82690W        W49231   0.412  30.705   2.317
82691W        W49232   7.861   3.007  10.005
82692W        W49233   5.466  26.808   0.481
82693W        W49234   0.442  25.267   2.494
82694W        W49235  24.572   8.241  14.486
82695W        W49236   7.968  44.471  10.255
82696W        W49237  28.233  24.630  13.857
82697W        W49238   1.900  19.754   3.715
82698W        W49239  24.188  22.779   0.038
82699W        W49240   8.696  12.942   4.971
82700W        W49241  12.673  36.289  14.594
82701W        W49242  31.911  19.151   0.397
82702W        W49243  10.612  10.292  11.283
82703W        W49244  39.629  12.055  13.657
82704W        W49245  23.612   1.162  11.072
82705W        W49246  19.160   2.284   4.306
82706W        W49247  25.380  42.659  12.569
82707W        W49248   0.245  43.346   4.790
82708W        W49249   0.353  34.370  12.093
82709W        W49250  16.066  19.596   1.791
82710W        W49251   3.514  41.034  12.423
82711W        W49252  10.711  15.232   2.200
82712W        W49253  31.748  13.290  12.542
82713W        W49254  34.659   1.021   2.371
82714W        W49255  28.604  24.276   3.822
82715W        W49256  36.267  30.116   1.076
82716W        W49257  42.857  22.432   2.692
82717W        W49258  18.466  11.529  14.508
82718W        W49259  10.789  21.690   1.166
82719W        W49260  14.708  27.837  10.739
82720W        W49261  39.875   6.225  13.110
82721W        W49262  11.432   2.942  13.876
82722W        W49263  16.193  12.684  12.442
82723W        W49264  28.603  30.752   4.494
82724W        W49265  13.860  38.604   2.279
82725W        W49266  18.324  12.083  12.908
82726W        W49267   5.822  44.062  14.318
82727W        W49268   2.445   8.083   4.274
82728W        W49269  39.087   2.940   3.220
82729W        W49270  30.182  30.889  14.419
82730W        W49271  29.674   8.661  11.989
82731W        W49272  11.181  24.160  10.643
82732W        W49273   8.889  36.963   2.343
82733W        W49274  25.134   1.374   1.317
82734W        W49275  19.025  19.921   0.325
82735W        W49276  14.790  37.323  11.620
82736W        W49277  21.306  26.155   2.619
82737W        W49278  33.888  38.399   3.827
82738W        W49279   4.079  12.402  13.322
82739W        W49280  36.390  41.925  13.846
82740W        W49281  32.861  10.363   2.340
82741W        W49282  38.827   8.748   3.330
82742W        W49283  21.006  33.311   0.685
82743W        W49284  30.615  42.788  11.218
82744W        W49285  30.716  11.320  14.790
82745W        W49286  13.372  37.164  10.998
82746W        W49287  25.113  33.775  13.388
82747W        W49288  37.966   3.430  11.235
82748W        W49289   3.345  34.911   1.469
82749W        W49290  28.376  44.928   1.172
82750W        W49291  24.286  16.877   3.368
82751W        W49292  35.569  40.952   2.272
82752W        W49293  26.483  13.792  12.009
82753W        W49294  30.459  26.393   0.925
82754W        W49295  22.581  29.694   2.282
82755W        W49296  14.606  38.130   3.171
82756W        W49297   7.118   4.929   1.523
82757W        W49298  31.557  13.326   1.732
82758W        W49299  19.727  38.973   4.183
82759W        W49300  42.983  11.890   2.371
82760W        W49301  34.442  35.304   0.911
82761W        W49302  10.134  23.915   2.786
82762W        W49303  36.268  30.851  12.089
82763W        W49304   7.349  13.107  14.915
82764W        W49305  23.598  14.521   2.721
82765W        W49306  17.229   2.928  12.007
82766W        W49307   7.837  15.546   4.077
82767W        W49308  18.226  20.825   2.896
82768W        W49309  18.097  22.789   4.542
82769W        W49310  10.725   4.662   0.263
82770W        W49311  44.011  12.706  10.032
82771W        W49312  37.669   2.458  13.382
82772W        W49313  36.908  36.530   0.761
82773W        W49314   1.553  25.700  10.996
82774W        W49315  14.372  33.084  11.131
82775W        W49316  23.924  23.323   0.756
82776W        W49317  26.916   9.271   4.970
82777W        W49318   4.743  20.477   2.089
82778W        W49319  17.291  13.848   2.323
82779W        W49320  24.045   1.138   3.751
82780W        W49321  41.950  18.009   2.768
82781W        W49322   7.455   7.970  11.574
82782W        W49323  36.701  15.118   0.096
82783W        W49324  12.992  28.007   0.767
82784W        W49325   5.516  37.349  13.420
82785W        W49326  12.850  28.015   4.348
82786W        W49327  16.133  35.002  14.431
82787W        W49328  37.526  38.208  12.041
82788W        W49329  29.109  21.309   0.893
82789W        W49330  39.645  22.618   0.011
82790W        W49331   9.786  35.133  14.449
82791W        W49332  36.520  44.223  11.315
82792W        W49333  26.163  11.824  13.470
82793W        W49334  36.016  36.132  11.654
82794W        W49335   0.733   7.318  12.137
82795W        W49336  43.038  36.148  12.451
82796W        W49337  20.173  33.432   4.826
82797W        W49338  29.597  42.854   3.632
82798W        W49339  16.269  37.377  11.408
82799W        W49340  42.508  25.514  10.677
82800W        W49341   4.240  17.737   3.765
82801W        W49342  16.974  42.846   0.546
82802W        W49343  12.676  33.849   4.481
82803W        W49344   9.581  38.200   3.131
82804W        W49345  22.192   6.216  12.100
82805W        W49346  37.116  42.862  11.475
82806W        W49347  32.336  42.716   3.692
82807W        W49348   1.489  12.034  11.244
82808W        W49349  18.077  34.515   1.662
82809W        W49350  13.311  30.577   2.576
82810W        W49351  42.946  39.803   0.248
82811W        W49352  31.796  25.112   4.227
82812W        W49353  21.189  27.610  14.236
82813W        W49354  24.303  21.183  13.476
82814W        W49355  29.590  33.179   3.581
82815W        W49356   1.635  32.935  13.987
82816W        W49357  23.758   9.872   0.043
82817W        W49358  12.684  17.597  13.516
82818W        W49359  21.648  11.520   1.697
82819W        W49360  20.512  31.895  12.986
82820W        W49361  38.870  16.158  14.698
82821W        W49362  36.523  42.789  14.997
82822W        W49363  16.925  26.227   1.224
82823W        W49364  10.126  14.512  14.327
82824W        W49365  33.404  40.980  13.770
82825W        W49366  32.895  23.508   2.219
82826W        W49367  34.650   8.803   2.308
82827W        W49368  17.807  40.660   3.873
82828W        W49369  17.948  35.027  12.065
82829W        W49370   8.457   8.500   5.016
82830W        W49371  42.418  22.762  14.064
82831W        W49372  38.483   3.858   4.799
82832W        W49373  32.570  15.320   0.337
82833W        W49374  12.086  15.654  10.681
82834W        W49375  28.951   4.988  12.165
82835W        W49376  25.951   0.110   2.179
82836W        W49377  30.055  26.596  14.968
82837W        W49378  39.577  19.294  12.880
82838W        W49379   2.457  19.029  10.458
82839W        W49380  11.989  33.857  13.912
82840W        W49381   1.232  19.047   3.976
82841W        W49382  22.956  32.479  11.654
82842W        W49383   2.996  20.643   2.685
82843W        W49384  31.469  10.277   5.035
82844W        W49385  32.508  42.376   3.350
82845W        W49386  39.066  29.823   0.336
82846W        W49387  44.833  32.689   2.771
82847W        W49388  22.126   5.610  14.289
82848W        W49389  28.468  31.389   3.239
82849W        W49390  10.672  30.568  13.905
82850W        W49391  35.200   6.302  10.372
82851W        W49392  26.475  32.685  12.920
82852W        W49393  16.163  43.497   3.270
82853W        W49394   5.028  28.099   3.156
82854W        W49395   8.325   9.188   4.413
82855W        W49396  44.003   7.549  11.502
82856W        W49397  26.778  25.729  11.176
82857W        W49398  43.003  15.749   2.664
82858W        W49399  24.732  29.380  12.990
82859W        W49400  15.201  34.409   1.611
82860W        W49401  38.344  16.179  12.950
82861W        W49402  19.771  11.332   1.848
82862W        W49403  28.703  28.963   4.313
82863W        W49404   4.230  36.882   0.439
82864W        W49405  37.854  14.606   3.225
82865W        W49406  33.083  13.932  14.934
82866W        W49407   1.884  35.479  11.451
82867W        W49408   8.258   9.195   0.389
82868W        W49409   7.759  13.317   0.708
82869W        W49410  41.798  36.139   3.257
82870W        W49411  36.574  44.687  14.712
82871W        W49412  33.345  39.030   2.110
82872W        W49413  15.213  22.606  13.367
82873W        W49414  31.631  25.262   0.949
82874W        W49415  27.084  44.962   0.541
82875W        W49416  26.601  19.413  12.143
82876W        W49417   7.754  18.648  12.384
82877W        W49418  26.691  38.437   4.334
82878W        W49419  33.787   5.271  11.133
82879W        W49420  19.164   2.325   3.788
82880W        W49421  19.760  38.949   0.947
82881W        W49422  18.771  17.283   3.700
82882W        W49423   0.846  30.467   3.548
82883W        W49424  11.868  11.778   2.709
82884W        W49425   2.977  24.161  14.740
82885W        W49426  21.213  12.170  10.799
82886W        W49427   9.900  34.627  10.700
82887W        W49428  26.662  16.233  13.612
82888W        W49429  30.411  29.185   0.428
82889W        W49430  34.991  11.219   4.447
82890W        W49431  19.152  30.169  10.923
82891W        W49432  17.127  17.429  13.889
82892W        W49433  26.993  26.088  13.321
82893W        W49434  11.284  10.659   3.996
82894W        W49435  26.875  25.478  14.367
82895W        W49436  16.705  22.792  14.854
82896W        W49437  25.179   1.978   2.606
82897W        W49438  25.233  17.221   3.089
82898W        W49439  13.854  37.461  11.682
82899W        W49440  14.695  15.041   4.162
82900W        W49441  29.603  37.968   0.429
82901W        W49442  30.501  16.666   3.665
82902W        W49443  43.634  13.298  14.692
82903W        W49444  13.099   6.705  11.607
82904W        W49445  28.107  26.215   1.007
82905W        W49446   3.942  17.795  13.010
82906W        W49447  41.753  39.382  12.516
82907W        W49448  35.923  34.432  11.032
82908W        W49449  21.619  12.578   3.360
82909W        W49450  36.761  21.937   0.861
82910W        W49451  34.821   7.629   4.080
82911W        W49452  10.565  37.016  10.737
82912W        W49453  42.402  41.549  10.730
82913W        W49454   2.300  35.430   0.101
82914W        W49455  41.415  11.930   4.190
82915W        W49456   2.034  44.607  14.252
82916W        W49457  25.604   3.384  13.024
82917W        W49458  37.362  25.485  12.099
82918W        W49459   9.344  24.970   2.405
82919W        W49460  17.250  24.414  11.976
82920W        W49461  41.885  10.790  12.478
82921W        W49462  28.679  30.163  13.779
82922W        W49463  26.230  15.235  12.958
82923W        W49464   4.161  29.999  10.633
82924W        W49465   5.453  16.209  11.181
82925W        W49466   6.435  29.117   4.900
82926W        W49467  15.836  39.686  11.963
82927W        W49468  23.225  44.634  12.649
82928W        W49469  40.465  16.053  12.234
82929W        W49470  36.788  19.324   3.724
82930W        W49471   2.837  28.394  14.368
82931W        W49472  25.131  31.212  13.370
82932W        W49473  33.659  37.553  12.115
82933W        W49474  36.997  31.645  12.950
82934W        W49475  16.273  38.293   4.146
82935W        W49476   2.013  29.192   3.235
82936W        W49477  30.422  41.909   0.427
82937W        W49478   9.600  41.509  14.869
82938W        W49479   8.367   2.328  14.992
82939W        W49480  19.550  40.632  14.148
82940W        W49481  38.255  25.598   1.289
82941W        W49482  22.581  25.738  13.077
82942W        W49483  34.061   8.283  11.353
82943W        W49484   8.112  37.288  11.149
82944W        W49485  44.262  13.333  12.806
82945W        W49486  27.261  29.075   1.764
82946W        W49487  19.399   4.354  11.893
82947W        W49488  12.912  31.621   4.134
82948W        W49489  37.548   3.147   1.658
82949W        W49490  27.445  35.981  13.217
82950W        W49491  25.448  20.323  10.684
82951W        W49492   2.604  13.401   0.753
82952W        W49493  20.116  25.235   1.953
82953W        W49494  39.266   3.481  13.429
82954W        W49495  32.534  41.388   0.980
82955W        W49496  42.685   4.381   2.142
82956W        W49497   9.794  22.978  11.096
82957W        W49498  15.317   6.401   1.693
82958W        W49499  29.374  14.047   0.284
82959W        W49500   2.178   3.887  11.845
82960W        W49501   8.392  20.540  12.730
82961W        W49502  26.273  18.704   4.630
82962W        W49503  25.222  35.804   3.886
82963W        W49504   8.248  18.434  12.506
82964W        W49505   6.950  20.616  11.046
82965W        W49506   6.824  35.056   0.476
82966W        W49507  13.778  29.785  14.950
82967W        W49508   5.893  22.670   0.244
82968W        W49509  22.602   4.286  10.470
82969W        W49510  14.638  16.311   2.793
82970W        W49511  24.940   6.866   3.953
82971W        W49512  40.315  41.552  12.025
82972W        W49513  17.809   4.491  11.216
82973W        W49514   5.628   6.343   0.679
82974W        W49515   4.786  29.011   3.577
82975W        W49516  20.670  37.845  14.653
82976W        W49517  22.174  42.317   1.283
82977W        W49518  39.292   4.429   3.248
82978W        W49519   9.250  11.886  12.984
82979W        W49520  32.001  23.642  13.601
82980W        W49521   0.962   1.332   4.028
82981W        W49522  26.057  20.848  10.603
82982W        W49523  21.647  35.931  12.825
82983W        W49524  13.631  37.973   2.840
82984W        W49525  44.775  19.716  11.498
82985W        W49526  28.681  25.017   0.730
82986W        W49527  41.355  41.071   2.870
82987W        W49528  26.045  38.665   1.886
82988W        W49529  27.215  30.010   1.301
82989W        W49530  10.566  10.533  11.750
82990W        W49531  27.664  38.908   1.788
82991W        W49532  32.986   7.245  13.891
82992W        W49533  36.966   9.898   1.836
82993W        W49534  20.119  33.399  13.622
82994W        W49535  30.010  18.769   3.977
82995W        W49536  23.489   1.681   0.047
82996W        W49537   5.221  22.076   2.293
82997W        W49538   5.173   6.422  11.906
82998W        W49539  43.018  32.818  14.667
82999W        W49540  43.101  35.955  13.046
83000W        W49541  25.042  26.049  13.350
83001W        W49542   3.397  14.730   4.165
83002W        W49543  12.536  38.898  11.362
83003W        W49544  35.542  42.013  10.766
83004W        W49545  35.158  36.465  11.573
83005W        W49546   6.970  27.089  11.737
83006W        W49547   8.175  25.942   2.281
83007W        W49548  10.748  20.385   4.511
83008W        W49549   8.963  43.336  12.644
83009W        W49550  19.466  24.221  10.666
83010W        W49551   4.316  29.385   4.223
83011W        W49552  35.322  23.002  12.957
83012W        W49553   3.463  23.819  12.589
83013W        W49554  29.257  35.975   3.573
83014W        W49555  32.867  35.645   4.312
83015W        W49556   8.363  10.752   3.166
83016W        W49557   1.987   4.509   1.170
83017W        W49558  15.574   6.487  13.532
83018W        W49559   3.308  30.713  13.226
83019W        W49560  19.675  16.081   2.170
83020W        W49561  43.048  18.947   0.249
83021W        W49562  35.006  23.584   2.277
83022W        W49563   1.387  29.853   1.908
83023W        W49564  22.224  11.312  14.233
83024W        W49565   6.907  36.897  12.919
83025W        W49566  29.978   5.680   3.165
83026W        W49567  32.025  43.679   9.867
83027W        W49568  38.059  27.960  14.746
83028W        W49569  33.111  31.048  14.896
83029W        W49570  22.110  36.926   4.604
83030W        W49571  23.497  12.669  12.036
83031W        W49572  10.375  16.584  10.727
83032W        W49573  15.161  43.945   3.746
83033W        W49574  11.066   6.667   1.473
83034W        W49575  19.580  39.589  10.813
83035W        W49576  17.839   9.833  12.596
83036W        W49577  29.670  25.309   2.199
83037W        W49578   1.080  29.749   4.578
83038W        W49579  11.235  26.187   1.793
83039W        W49580  28.891  37.932  10.634
83040W        W49581  17.608  44.206  14.918
83041W        W49582   3.590   3.086  14.358
83042W        W49583  40.534  32.776   2.583
83043W        W49584   3.253  33.395   3.046
83044W        W49585  42.805  38.187   5.143
83045W        W49586   6.174  17.785   2.790
83046W        W49587  28.847  22.151   3.068
83047W        W49588  21.141  11.582   3.678
83048W        W49589   1.413  31.089   1.460
83049W        W49590   5.787  18.342   2.155
83050W        W49591   9.302  30.693  12.120
83051W        W49592  26.193  11.174  14.570
83052W        W49593   0.066  39.380  14.115
83053W        W49594   1.503  25.658  11.507
83054W        W49595  31.418  18.755   4.616
83055W        W49596   2.478  18.691  13.793
83056W        W49597  26.044  38.236  13.009
83057W        W49598  23.701  16.536   1.427
83058W        W49599  37.239   7.752   4.375
83059W        W49600  25.604  43.060   0.963
83060W        W49601  25.038   4.680   2.335
83061W        W49602   5.919   4.772   0.766
83062W        W49603  33.829  20.759   0.941
83063W        W49604   3.320  37.104  14.772
83064W        W49605   3.119   3.626  11.783
83065W        W49606  17.395  43.277  12.058
83066W        W49607   7.852  14.522  14.961
83067W        W49608  23.645  22.182   4.143
83068W        W49609   5.228  23.527   2.877
83069W        W49610  18.102  16.584   3.269
83070W        W49611  35.913   8.905   4.735
83071W        W49612  15.807  39.715   4.896
83072W        W49613  22.546  23.026   4.869
83073W        W49614   8.647   3.510  14.300
83074W        W49615  34.001  35.413  13.849
83075W        W49616   1.870  22.351  14.034
83076W        W49617  14.637  33.506   0.534
83077W        W49618  31.147  20.165  13.538
83078W        W49619  13.777  37.506   1.423
83079W        W49620  28.135  15.455   4.736
83080W        W49621  12.835  14.337   1.739
83081W        W49622  37.635  13.059   2.392
83082W        W49623  31.007  18.993   4.408
83083W        W49624  43.589  44.895  13.495
83084W        W49625  11.306  40.827  11.598
83085W        W49626  12.774  43.865   0.828
83086W        W49627  24.142  39.573   0.453
83087W        W49628   4.158  37.534  10.151
83088W        W49629  35.891  20.235   2.761
83089W        W49630   1.933  16.847   0.674
83090W        W49631  20.912  30.565   1.429
83091W        W49632  12.877  12.643   0.683
83092W        W49633  21.307  43.209   4.201
83093W        W49634  25.617  38.488   0.927
83094W        W49635   0.302  17.962  14.318
83095W        W49636   3.853  39.061   0.372
83096W        W49637  32.392  20.518   0.320
83097W        W49638  33.709  44.863   3.633
83098W        W49639   9.632  31.444   1.236
83099W        W49640  39.496  25.718  14.485
83100W        W49641  44.358   7.436   4.637
83101W        W49642  11.644  22.298  11.965
83102W        W49643  21.593  23.637  11.076
83103W        W49644   8.857  31.058   2.155
83104W        W49645  11.366  13.328   5.036
83105W        W49646  31.393   5.828  11.887
83106W        W49647  34.829  36.825   4.022
83107W        W49648  41.767  26.659   3.550
83108W        W49649  21.835  30.560   2.341
83109W        W49650   2.922  39.729  13.947
83110W        W49651  13.062  41.972  11.268
83111W        W49652   5.740   4.493   0.264
83112W        W49653  10.899  23.658   4.154
83113W        W49654  22.485   4.099   4.905
83114W        W49655  43.054  19.933   0.343
83115W        W49656   6.652  18.622   4.477
83116W        W49657  41.766   7.817  14.873
83117W        W49658   9.658  36.677  10.741
83118W        W49659   8.218  13.886   3.665
83119W        W49660  39.610   3.294   4.572
83120W        W49661  25.772  42.736   1.309
83121W        W49662  21.326   6.167  11.865
83122W        W49663   4.265  24.037   4.538
83123W        W49664   1.288  19.777   4.850
83124W        W49665  14.006   5.833  10.331
83125W        W49666  27.652   6.163   1.368
83126W        W49667  15.567  23.913   2.000
83127W        W49668   3.284  42.059   0.989
83128W        W49669  34.579  11.241   3.113
83129W        W49670  20.490  32.838   2.747
83130W        W49671  13.798   6.913  11.958
83131W        W49672  23.498  10.242   0.964
83132W        W49673  13.491  24.923  11.447
83133W        W49674  14.792  33.592   1.540
83134W        W49675  13.110  42.541   0.771
83135W        W49676   8.727  28.707   1.769
83136W        W49677  10.238  22.291   0.883
83137W        W49678   4.293  18.446   1.453
83138W        W49679  34.517  23.050   0.041
83139W        W49680  42.470  34.809  14.785
83140W        W49681  32.549  32.993  10.669
83141W        W49682  15.446  43.721   1.792
83142W        W49683  28.696  37.525  12.989
83143W        W49684  18.725  12.926  14.769
83144W        W49685  28.988  43.469  11.066
83145W        W49686   7.123   7.917   3.610
83146W        W49687   4.506   0.446   1.828
83147W        W49688  29.448  30.725   1.189
83148W        W49689  37.989  44.410   0.958
83149W        W49690  24.541  39.093   3.558
83150W        W49691  36.437   0.182  13.643
83151W        W49692  25.048   5.420   4.598
83152W        W49693  11.770   0.898  12.438
83153W        W49694  20.774   3.865  13.339
83154W        W49695  34.386  11.583  10.991
83155W        W49696  39.784  22.602  13.408
83156W        W49697   3.813   1.857   2.225
83157W        W49698  14.792  19.794   1.017
83158W        W49699  13.098  34.907   2.745
83159W        W49700  22.181  35.293  13.658
83160W        W49701  37.067  40.217  12.105
83161W        W49702   8.437  16.652   0.382
83162W        W49703  14.836  38.143  12.596
83163W        W49704  31.991  21.021   3.714
83164W        W49705  29.370  19.445   4.049
83165W        W49706   9.258  29.934   4.922
83166W        W49707   2.541  32.967   0.213
83167W        W49708   4.496  17.533  14.745
83168W        W49709  11.333  40.388   0.406
83169W        W49710  42.290   1.283   2.903
83170W        W49711  36.709  29.927  12.060
83171W        W49712  39.480  37.763   0.106
83172W        W49713   0.972  40.122   1.782
83173W        W49714  29.122   5.346   4.633
83174W        W49715  15.728   0.739   0.796
83175W        W49716  18.836  38.118  12.932
83176W        W49717  23.709  23.698  14.878
83177W        W49718  40.970  22.313   3.790
83178W        W49719  20.840  27.211  14.422
83179W        W49720   5.857  43.976   2.599
83180W        W49721  39.608  42.447   0.331
83181W        W49722  36.894  37.767  14.211
83182W        W49723  16.088  11.888  13.877
83183W        W49724   6.813  30.938  10.725
83184W        W49725  40.478  18.216   1.758
83185W        W49726   2.454  42.917   3.286
83186W        W49727  41.012   2.825   1.237
83187W        W49728  17.733  24.099  14.487
83188W        W49729  30.326  24.084   3.253
83189W        W49730  12.761  34.570  10.384
83190W        W49731   1.169  29.956  14.170
83191W        W49732  14.061   5.827  12.642
83192W        W49733  24.670  39.499  12.025
83193W        W49734   0.821  40.798  10.661
83194W        W49735   1.017   9.489   0.791
83195W        W49736  40.582  30.330  12.516
83196W        W49737  28.871  37.033  14.543
83197W        W49738   2.938  11.779  13.032
83198W        W49739  21.772  33.000  12.880
83199W        W49740  33.931  18.760  12.928
83200W        W49741  17.343   4.256  10.598
83201W        W49742  16.205  13.412  12.988
83202W        W49743   7.775   4.941  11.424
83203W        W49744  31.158  14.572  13.238
83204W        W49745  26.286   5.876   3.193
83205W        W49746  23.319  31.683  13.418
83206W        W49747  32.446  39.370   0.937
83207W        W49748  43.442  17.833  13.982
83208W        W49749   3.228  44.869   1.752
83209W        W49750  30.181  12.054  12.878
83210W        W49751   1.729   1.420  14.701
83211W        W49752   1.913  24.253  10.146
83212W        W49753  22.500  36.857   3.171
83213W        W49754  44.300   9.679  12.957
83214W        W49755  42.273   7.345   4.030
83215W        W49756   1.847  31.676  11.172
83216W        W49757  26.577  39.098  14.262
83217W        W49758  44.904  14.829   4.135
83218W        W49759  12.382  11.918   4.634
83219W        W49760  17.829  34.905  12.996
83220W        W49761  17.142  17.265  13.028
83221W        W49762  26.682  23.732  12.094
83222W        W49763  18.813  14.454   1.581
83223W        W49764   5.994  26.685  13.903
83224W        W49765  20.245  38.506   4.986
83225W        W49766   8.889  35.168  11.723
83226W        W49767  14.747  23.497   2.460
83227W        W49768  35.104  24.064  11.148
83228W        W49769  42.915   9.159   3.156
83229W        W49770  28.562  32.927  12.611
83230W        W49771  11.285   4.761   3.394
83231W        W49772  13.195  43.728   3.662
83232W        W49773  43.681  26.204  13.949
83233W        W49774  27.891   9.509  11.856
83234W        W49775  40.528  22.065   3.670
83235W        W49776   4.909  24.598   1.836
83236W        W49777  10.922  12.647  12.408
83237W        W49778  24.648  38.635  11.108
83238W        W49779   6.164  37.564   1.806
83239W        W49780  19.315  17.646  10.955
83240W        W49781  43.340  42.065   1.535
83241W        W49782  39.214  19.030  11.572
83242W        W49783  36.130  19.801   4.182
83243W        W49784  31.427  24.520  12.182
83244W        W49785  28.849   5.227  14.383
83245W        W49786   7.937   2.947  11.701
83246W        W49787   8.946  13.146   0.137
83247W        W49788  24.675  29.460   2.792
83248W        W49789  12.226   9.858   0.688
83249W        W49790  37.401  26.163   4.346
83250W        W49791   6.833  10.413   9.892
83251W        W49792   9.192  37.572  11.037
83252W        W49793   8.357   9.715   1.265
83253W        W49794  10.888  25.254   4.123
83254W        W49795  36.060   6.681  12.489
83255W        W49796  31.011   9.962  13.973
83256W        W49797  38.824  27.035  11.244
83257W        W49798   8.762   3.685  14.766
83258W        W49799  14.905  37.926   1.766
83259W        W49800   7.379  40.572  13.030
83260W        W49801   0.114  13.331  12.872
83261W        W49802   1.746  43.894  10.638
83262W        W49803  21.290  21.182  10.620
83263W        W49804  44.138  44.087   1.074
83264W        W49805  19.017   6.507  10.679
83265W        W49806  29.392   7.147  10.130
83266W        W49807   7.938  23.710  11.554
83267W        W49808  36.921  26.632  13.919
83268W        W49809  24.487  42.836   0.344
83269W        W49810  20.009  44.050  10.692
83270W        W49811  13.499   7.384   0.203
83271W        W49812   1.134  31.354   0.805
83272W        W49813   1.313   7.599  11.659
83273W        W49814  18.158  31.967   0.248
83274W        W49815   5.998  37.772   4.223
83275W        W49816  33.613   2.757   3.146
83276W        W49817  22.995  35.641  12.605
83277W        W49818  27.900  37.104   0.888
83278W        W49819  31.637  30.597  13.454
83279W        W49820  19.655  31.602   2.605
83280W        W49821  40.757  14.338  13.087
83281W        W49822   2.323  11.913   1.154
83282W        W49823  36.662  30.600  12.956
83283W        W49824  40.577  39.857  14.320
83284W        W49825   3.216   6.598  14.966
83285W        W49826  30.512  34.312   5.087
83286W        W49827  17.550  20.128   1.990
83287W        W49828  39.228  42.763   4.070
83288W        W49829  25.147   3.340   1.722
83289W        W49830  26.067  17.255  10.680
83290W        W49831  36.120  17.174  14.877
83291W        W49832  34.981  39.475   0.406
83292W        W49833   9.618  30.990  14.681
83293W        W49834  43.825  23.436  11.127
83294W        W49835   9.767  23.678   4.858
83295W        W49836  15.955  36.610   3.304
83296W        W49837  25.422  28.386   1.773
83297W        W49838  28.571  28.764   1.219
83298W        W49839  24.442  35.863  13.951
83299W        W49840   6.263  20.052  10.642
83300W        W49841   6.375  33.451  12.163
83301W        W49842  13.401   6.513  12.029
83302W        W49843  28.248  36.563   2.131
83303W        W49844  42.524  24.474   2.371
83304W        W49845  10.045  19.539  10.757
83305W        W49846  11.438  13.401   0.031
83306W        W49847  27.021   1.461  11.198
83307W        W49848  10.364   1.654   1.818
83308W        W49849  33.591  12.061   5.181
83309W        W49850  38.940  32.854  11.487
83310W        W49851  17.263  22.675  12.979
83311W        W49852  20.095  42.051   1.734
83312W        W49853  21.603  30.654  11.526
83313W        W49854   0.225  24.505  13.427
83314W        W49855  16.105  28.728   2.778
83315W        W49856  15.362  23.418   3.072
83316W        W49857  11.552  20.263  10.768
83317W        W49858  16.298  20.319   2.307
83318W        W49859   0.702  33.595   4.468
83319W        W49860  40.575   6.913  12.903
83320W        W49861  39.346  34.509   0.830
83321W        W49862  31.860  22.061  12.066
83322W        W49863   7.760  15.049  14.997
83323W        W49864   6.333  32.174  13.159
83324W        W49865  38.794  36.135   3.586
83325W        W49866  19.180  38.909  11.506
83326W        W49867   5.220  36.439   1.202
83327W        W49868   5.458  26.700  14.491
83328W        W49869  11.308   9.848   3.526
83329W        W49870  10.243  19.601   0.573
83330W        W49871  30.064  44.890   3.723
83331W        W49872  14.511  24.450  14.070
83332W        W49873  43.580   0.751  13.015
83333W        W49874   4.465  23.560  12.400
83334W        W49875   5.145  29.875  14.056
83335W        W49876  31.494  29.098  11.107
83336W        W49877  13.841  17.291   1.925
83337W        W49878  41.202  38.238   2.584
83338W        W49879  27.058   0.864   3.671
83339W        W49880   9.185  12.284   3.488
83340W        W49881  33.998   2.357  14.358
83341W        W49882  34.277  39.378  12.028
83342W        W49883  24.115  20.706  10.546
83343W        W49884  42.457  38.941   2.897
83344W        W49885   4.237  35.810   1.164
83345W        W49886   1.104  22.673  13.738
83346W        W49887  16.107  28.996  14.944
83347W        W49888  35.321  20.210  10.644
83348W        W49889  13.048  15.829   1.255
83349W        W49890  31.852  14.074  12.417
83350W        W49891  30.148  14.642   2.831
83351W        W49892  34.878  24.210  11.592
83352W        W49893  18.836  28.172  13.968
83353W        W49894  39.980  39.476   4.110
83354W        W49895  25.025  37.392   4.668
83355W        W49896   3.439  38.573  13.676
83356W        W49897  15.140  27.380   4.806
83357W        W49898  23.998  16.328   1.862
83358W        W49899  43.812  43.677  11.279
83359W        W49900   0.963  23.665   1.072
83360W        W49901  44.172  21.025   3.543
83361W        W49902   3.673  12.503  14.157
83362W        W49903  36.583   5.248   3.176
83363W        W49904  18.181  30.792  13.247
83364W        W49905   3.536  42.565  11.586
83365W        W49906  44.362   9.452   0.372
83366W        W49907  40.050  15.518  14.689
83367W        W49908  11.670   6.756  14.593
83368W        W49909   7.781  34.564  11.683
83369W        W49910  16.404  35.875   5.065
83370W        W49911   0.946  17.136  12.107
83371W        W49912  44.686  44.509  12.000
83372W        W49913  35.852  13.297  12.040
83373W        W49914  39.456  40.890  10.711
83374W        W49915  34.204   6.373   4.199
83375W        W49916  12.673  16.217   1.307
83376W        W49917  42.002  23.838   9.636
83377W        W49918  16.598  24.033  14.043
83378W        W49919  12.059  35.392   1.263
83379W        W49920  25.930  29.079   1.838
83380W        W49921   4.175  22.124  12.558
83381W        W49922   2.414   0.852   0.285
83382W        W49923  10.897  28.755   1.694
83383W        W49924   1.458   3.393  12.186
83384W        W49925  23.282  11.534  13.204
83385W        W49926  31.865  20.503   0.365
83386W        W49927  12.169  38.811   2.778
83387W        W49928  16.169   3.924  13.998
83388W        W49929   9.286  11.852  13.956
83389W        W49930  18.026  42.832   3.890
83390W        W49931  34.423  21.743   4.218
83391W        W49932  18.599   0.200  14.931
83392W        W49933  26.523   7.425  14.325
83393W        W49934  33.118  38.836  10.693
83394W        W49935  30.876   4.682   0.376
83395W        W49936  17.864   5.757  14.360
83396W        W49937  18.312  28.655   0.422
83397W        W49938  17.201   8.708  10.601
83398W        W49939   4.951  43.145  11.583
83399W        W49940   7.323  17.125  14.046
83400W        W49941  33.110  43.323   0.359
83401W        W49942   8.661  37.394   0.044
83402W        W49943  13.424  16.495  14.949
83403W        W49944  40.463  24.955   1.344
83404W        W49945  23.410  15.390   2.283
83405W        W49946  16.520  22.567   3.675
83406W        W49947  23.404  44.581  14.034
83407W        W49948  30.241  38.006  14.404
83408W        W49949  28.438  23.271   2.412
83409W        W49950  28.993  13.902   3.782
83410W        W49951  27.223  24.000   0.762
83411W        W49952  35.723  27.748   4.796
83412W        W49953   3.680  22.830   1.299
83413W        W49954   6.216   1.972  11.622
83414W        W49955  19.264  31.575   0.377
83415W        W49956   2.218  11.419  14.403
83416W        W49957  16.560  35.003   1.571
83417W        W49958  44.059  39.380   4.582
83418W        W49959  29.309  15.250   2.732
83419W        W49960  23.235  35.300   2.697
83420W        W49961   2.235  43.950   4.523
83421W        W49962  24.571  41.272  12.947
83422W        W49963  37.469  32.234  12.606
83423W        W49964  13.502  20.683  11.200
83424W        W49965  22.473  36.362   3.060
83425W        W49966  30.892  33.273  11.593
83426W        W49967  42.984   4.274   3.664
83427W        W49968  29.209  19.958   3.253
83428W        W49969   7.227  16.286  10.946
83429W        W49970  33.463  35.822  10.657
83430W        W49971  42.894  33.444   1.280
83431W        W49972  10.255   1.709   4.520
83432W        W49973   2.001  21.037   5.049
83433W        W49974  17.827  37.222  14.388
83434W        W49975  17.504   6.782  11.931
83435W        W49976  36.581  15.499  13.844
83436W        W49977  34.648  34.074   0.401
83437W        W49978  42.491  25.742  14.893
83438W        W49979   2.490  39.569   2.246
83439W        W49980  13.066  30.839   3.894
83440W        W49981  16.225  43.973  13.288
83441W        W49982  20.803  13.665   2.679
83442W        W49983  22.269   3.711   3.664
83443W        W49984  39.149  39.915   3.637
83444W        W49985  32.424  29.262  13.932
83445W        W49986  24.521  13.174  12.925
83446W        W49987  38.217  25.198   4.684
83447W        W49988   5.209   2.715  14.844
83448W        W49989  31.446  29.979   3.291
83449W        W49990   3.263  29.103   5.006
83450W        W49991   2.705   3.689   1.803
83451W        W49992   1.434  22.174  10.435
83452W        W49993  18.858  32.954  11.077
83453W        W49994  16.466  12.739   0.745
83454W        W49995  44.843   0.500   0.461
83455W        W49996   4.768   4.322  13.811
83456W        W49997  19.946   6.691  12.869
83457W        W49998  38.963  41.478   0.597
83458W        W49999   4.890  23.644   1.635
83459W        W50000  14.513  31.844  14.855
83460W        W50001   6.724   0.830   0.978
83461W        W50002   8.679  37.402  10.291
83462W        W50003  27.035  26.168  10.437
83463W        W50004   4.682  37.387   4.618
83464W        W50005  10.866   8.115  11.182
83465W        W50006  12.559  22.022  11.612
83466W        W50007  10.090  39.823  10.939
83467W        W50008   9.071  25.634  13.358
83468W        W50009  12.699  21.751  12.998
83469W        W50010  33.902  38.017   1.033
83470W        W50011  15.875  32.900   3.552
83471W        W50012   6.676   1.508   4.189
83472W        W50013   4.186  22.430  13.574
83473W        W50014  19.333  35.823   4.651
83474W        W50015   0.298  10.381  10.360
83475W        W50016  34.626   5.126   1.279
83476W        W50017   2.171  18.146   0.909
83477W        W50018  18.205  12.564   3.209
83478W        W50019  12.892  14.004   2.724
83479W        W50020  12.913  31.004  13.369
83480W        W50021  11.283  43.373  10.980
83481W        W50022  21.007  35.535  10.641
83482W        W50023  25.041   4.431  10.696
83483W        W50024  22.472  39.415   4.208
83484W        W50025   7.579  40.975  14.741
83485W        W50026  34.660   4.766   1.727
83486W        W50027  41.503  28.666  14.860
83487W        W50028  24.225  43.484  13.701
83488W        W50029  18.459  12.718  13.541
83489W        W50030  27.014  33.637  14.341
83490W        W50031  12.830  23.309   0.248
83491W        W50032  11.798  10.375   3.983
83492W        W50033  32.441  34.556   0.542
83493W        W50034   1.975  11.186  11.568
83494W        W50035   9.313  30.101   0.208
83495W        W50036  31.085  16.365   4.994
83496W        W50037  36.585  24.710   4.701
83497W        W50038   9.153   4.835   2.229
83498W        W50039  14.669  43.283  11.973
83499W        W50040  44.986  15.859  13.012
83500W        W50041   3.219  18.775  10.874
83501W        W50042  33.047   0.271  14.401
83502W        W50043  13.342  36.501   2.793
83503W        W50044  15.991  37.714  11.156
83504W        W50045   7.705  15.311  12.918
83505W        W50046  39.148   9.101   3.618
83506W        W50047  34.011  36.071   2.680
83507W        W50048   3.719  23.724   2.149
83508W        W50049  17.536  38.393   3.492
83509W        W50050  22.628  29.411   4.499
83510W        W50051  21.562  14.790   2.732
83511W        W50052  20.003   1.968   3.659
83512W        W50053  19.009  44.936   0.831
83513W        W50054   5.008  23.127  11.218
83514W        W50055  41.982  44.021  13.445
83515W        W50056  39.251  34.192   4.400
83516W        W50057  21.428  14.645  11.885
83517W        W50058   3.693  37.402  14.551
83518W        W50059   9.177  22.965  12.056
83519W        W50060  19.846   2.019  11.151
83520W        W50061   6.221  30.997   3.545
83521W        W50062  17.147  12.877  10.690
83522W        W50063  42.324  15.215  13.913
83523W        W50064  15.629  35.645   4.684
83524W        W50065  44.533  19.985   3.666
83525W        W50066  38.905   6.989  12.546
83526W        W50067   5.342  44.996   3.259
83527W        W50068  38.516  29.624   0.296
83528W        W50069  16.956   7.404  13.753
83529W        W50070  35.606  11.843   1.421
83530W        W50071  20.329  13.962  14.731
83531W        W50072  20.271  22.182  11.456
83532W        W50073   8.585  12.308  13.451
83533W        W50074  44.703  15.044  14.864
83534W        W50075  33.326   9.023   4.938
83535W        W50076  31.472   3.409   0.461
83536W        W50077  34.545   4.959  13.917
83537W        W50078  16.709  17.888   0.038
83538W        W50079  15.394   6.945  10.731
83539W        W50080   4.733  44.973   1.811
83540W        W50081   9.018  22.313  13.496
83541W        W50082  33.604  25.665  12.918
83542W        W50083  27.092  26.855  11.597
83543W        W50084  38.071  22.078  12.981
83544W        W50085  28.051  26.401   3.094
83545W        W50086   6.037   3.110   3.356
83546W        W50087  14.162  37.039  13.133
83547W        W50088   3.787   6.020   1.250
83548W        W50089  42.291  14.750   3.226
83549W        W50090   2.003  44.952  11.691
83550W        W50091  12.617  12.231  12.944
83551W        W50092  44.211  43.794   3.244
83552W        W50093  34.476  23.460  14.701
83553W        W50094  16.739  18.079  14.510
83554W        W50095  32.996  38.800  14.530
83555W        W50096  16.598   9.380  14.781
83556W        W50097   7.909  42.496  11.171
83557W        W50098  22.281  19.248  14.264
83558W        W50099  33.235  27.062   3.633
83559W        W50100  18.319   8.816  12.054
83560W        W50101  24.547   4.478  13.360
83561W        W50102  11.907  25.468   4.083
83562W        W50103  11.113  33.493   3.069
83563W        W50104  44.537  14.395   1.017
83564W        W50105  16.701  34.466   1.422
83565W        W50106  26.109  44.568   0.278
83566W        W50107  39.412  18.446   0.373
83567W        W50108   3.178  39.343   1.541
83568W        W50109   3.064   1.225   9.919
83569W        W50110  20.659  28.177  13.419
83570W        W50111   4.208  38.371   4.239
83571W        W50112  25.008  19.329  14.953
83572W        W50113   9.198   3.454   3.167
83573W        W50114  31.499   9.692  13.925
83574W        W50115  31.501  25.346  14.658
83575W        W50116  13.830   8.176   4.089
83576W        W50117   7.636  24.288   9.774
83577W        W50118   1.403   8.820  13.338
83578W        W50119   1.202   2.541   0.046
83579W        W50120  13.781  14.983  13.306
83580W        W50121  31.554   4.658   4.472
83581W        W50122   2.328  26.675  13.483
83582W        W50123   4.734  24.737   2.315
83583W        W50124  36.541  23.451  13.885
83584W        W50125  17.330  19.891   2.464
83585W        W50126  19.030  10.965   0.827
83586W        W50127  24.847  27.638   2.313
83587W        W50128  27.047  15.085   0.014
83588W        W50129  11.997  37.144  13.078
83589W        W50130  10.123  29.606   1.923
83590W        W50131  22.670  35.312  11.226
83591W        W50132  27.324  31.586   2.472
83592W        W50133  17.390   6.537  13.957
83593W        W50134   1.841  39.149   2.831
83594W        W50135  41.665  38.775  12.516
83595W        W50136   4.299  11.316   0.285
83596W        W50137  12.723  44.385   0.122
83597W        W50138   3.952  42.863   3.272
83598W        W50139   9.248   9.203   1.071
83599W        W50140  26.685  30.521  10.727
83600W        W50141  36.352  30.000   4.501
83601W        W50142  16.075  25.207  14.563
83602W        W50143  16.186  27.668   0.482
83603W        W50144  36.907   7.126   3.357
83604W        W50145  11.180  36.392  14.685
83605W        W50146  16.041   6.627  11.176
83606W        W50147  15.056  33.202  13.788
83607W        W50148  44.935  43.298   1.990
83608W        W50149  29.510  43.495   4.123
83609W        W50150   9.084  42.327  13.872
83610W        W50151  24.982   1.666   0.889
83611W        W50152   3.491  31.868   3.880
83612W        W50153  35.076  37.187   3.739
83613W        W50154  36.193   6.846   4.027
83614W        W50155  16.175   4.739  12.646
83615W        W50156  29.731  39.856  11.243
83616W        W50157  43.657  24.107  12.539
83617W        W50158  12.258  10.169   4.850
83618W        W50159   5.258  27.766   0.199
83619W        W50160  14.572  43.545  12.818
83620W        W50161  13.298  37.411   9.867
83621W        W50162  33.219  10.082   4.343
83622W        W50163   9.401  40.512  12.531
83623W        W50164   9.708   2.730   0.773
83624W        W50165  27.976  35.254  13.814
83625W        W50166   6.043  12.437   1.226
83626W        W50167  12.512  32.699   2.748
83627W        W50168  21.900  33.013   2.645
83628W        W50169  24.183   8.991  11.623
83629W        W50170  42.293  28.108  12.472
83630W        W50171   7.959  29.759  10.901
83631W        W50172   0.128  24.262   0.436
83632W        W50173   9.135  26.909  11.772
83633W        W50174  23.048   2.218   1.752
83634W        W50175   1.274   5.108   2.817
83635W        W50176  25.024  30.100  12.718
83636W        W50177  41.551  28.967  11.178
83637W        W50178   5.923  30.168   3.858
83638W        W50179  36.610  36.530   3.304
83639W        W50180   0.986  13.882   2.707
83640W        W50181  31.577  36.430   0.071
83641W        W50182  43.030  36.918  11.478
83642W        W50183   9.651  43.928   3.112
83643W        W50184  33.967   6.428  12.394
83644W        W50185   4.003   4.293   2.826
83645W        W50186  33.454  28.877  13.040
83646W        W50187  27.582  13.322   1.717
83647W        W50188   6.349  12.767   2.379
83648W        W50189  20.073  16.323   1.196
83649W        W50190   4.729  27.910   1.604
83650W        W50191  17.779   2.029   0.520
83651W        W50192  34.288  26.180  13.184
83652W        W50193  41.782  41.374   3.713
83653W        W50194  12.962   1.001   3.134
83654W        W50195  25.952  42.815  13.330
83655W        W50196  17.694  21.179   2.265
83656W        W50197  27.690  33.131   3.189
83657W        W50198  27.914  32.139   1.728
83658W        W50199  38.022  17.714   2.910
83659W        W50200  40.313  23.669   1.764
83660W        W50201  35.060   2.504   1.234
83661W        W50202   6.498  16.642  10.503
83662W        W50203  41.575  21.239  14.872
83663W        W50204  30.850  44.102   0.798
83664W        W50205  12.537   7.408  11.908
83665W        W50206   7.750  37.824  13.158
83666W        W50207   2.644  18.258   0.760
83667W        W50208  37.931  25.430   4.329
83668W        W50209  32.222  22.674   4.162
83669W        W50210  21.585  38.282   1.757
83670W        W50211  39.661  29.914  11.020
83671W        W50212  36.294   3.497   4.597
83672W        W50213  27.001   3.898   2.769
83673W        W50214  42.007   3.218   4.589
83674W        W50215  43.275  25.447   0.388
83675W        W50216  37.706   1.568  11.018
83676W        W50217  11.393   3.661  14.826
83677W        W50218   5.684  20.672  13.369
83678W        W50219  41.453   1.943   0.512
83679W        W50220  17.472   3.728  10.773
83680W        W50221  29.275   7.467  14.959
83681W        W50222  16.943  34.065   4.118
83682W        W50223  16.732  14.687   5.042
83683W        W50224  37.749  28.309  13.533
83684W        W50225  36.512   1.876  10.640
83685W        W50226  42.069  19.656  11.279
83686W        W50227  22.108  11.265   3.073
83687W        W50228  25.709  43.533   1.462
83688W        W50229  26.973  34.409   3.102
83689W        W50230  42.761  38.722   4.593
83690W        W50231  24.953  35.254  11.790
83691W        W50232  21.250  41.536  11.671
83692W        W50233   0.811  24.193  12.704
83693W        W50234   7.329   5.342  12.558
83694W        W50235  16.190  28.022  12.502
83695W        W50236  30.111  28.969   1.356
83696W        W50237  10.294  33.819   3.060
83697W        W50238  11.947  42.860   3.949
83698W        W50239  31.355  44.585  11.307
83699W        W50240  42.895   7.787   2.883
83700W        W50241  35.029  21.466   1.012
83701W        W50242  44.035   5.196   1.531
83702W        W50243  10.505  14.825  10.589
83703W        W50244  35.559  15.279  14.065
83704W        W50245  28.476  26.275   1.373
83705W        W50246  13.948  21.464   2.155
83706W        W50247   4.377  22.949  10.083
83707W        W50248  31.659  36.017   3.434
83708W        W50249  19.317  40.912  11.549
83709W        W50250  32.907   2.930  14.767
83710W        W50251   9.425  31.753  11.201
83711W        W50252  19.324  27.881   4.090
83712W        W50253  26.452  14.800   2.405
83713W        W50254  16.533  39.637   0.094
83714W        W50255  31.351  32.958   0.808
83715W        W50256  35.518   3.841   2.904
83716W        W50257  41.931  21.949  12.612
83717W        W50258  32.917  12.064  11.939
83718W        W50259   9.864  21.583   4.514
83719W        W50260  10.042  11.147   3.524
83720W        W50261  10.422  29.387  14.557
83721W        W50262  38.016  13.393   2.408
83722W        W50263   9.724  13.907   0.717
83723W        W50264  37.800  38.954   1.406
83724W        W50265  44.372   2.902   2.487
83725W        W50266   1.895  25.759  10.624
83726W        W50267  36.572  44.836  14.025
83727W        W50268  30.420  35.593  10.784
83728W        W50269   8.436  27.720   1.331
83729W        W50270  36.234  44.389  10.187
83730W        W50271  10.281  20.512  12.335
83731W        W50272  18.984   8.565   4.591
83732W        W50273  37.205  35.305   1.199
83733W        W50274   9.951  42.089  13.806
83734W        W50275  15.744  43.783  12.526
83735W        W50276  22.356  13.270   3.032
83736W        W50277  30.220  10.313  12.958
83737W        W50278  43.526  23.729  14.126
83738W        W50279  29.131  12.609   3.132
83739W        W50280  13.856   1.915   1.165
83740W        W50281  28.318  29.114   3.975
83741W        W50282  12.202  11.946   1.348
83742W        W50283  34.867  19.287  10.410
83743W        W50284  18.812  26.705  12.137
83744W        W50285  16.272  15.922  11.571
83745W        W50286  15.348   2.173  13.428
83746W        W50287  42.695  20.737  13.852
83747W        W50288  26.217  17.605  13.416
83748W        W50289  41.274  14.299  12.266
83749W        W50290  43.410  43.071   1.357
83750W        W50291  25.018  10.381  12.602
83751W        W50292   2.517  29.996  12.826
83752W        W50293  29.411  16.301   2.792
83753W        W50294  41.294  37.830  14.458
83754W        W50295   4.417   7.817  12.398
83755W        W50296  27.134  41.094  12.885
83756W        W50297  32.508  13.380   3.605
83757W        W50298   6.650  23.864   4.506
83758W        W50299  28.957  20.072  12.837
83759W        W50300   7.296  36.092   1.948
83760W        W50301  43.419   1.793   3.042
83761W        W50302  36.836  40.903  14.149
83762W        W50303  23.616  28.038  13.618
83763W        W50304  17.120  31.562   3.644
83764W        W50305  28.368  39.091   0.023
83765W        W50306  25.877  23.278   0.700
83766W        W50307  23.676   7.426  10.171
83767W        W50308  17.993  20.212   1.772
83768W        W50309  27.972  26.322  13.077
83769W        W50310  43.757  17.450   0.216
83770W        W50311   3.112  28.124  13.184
83771W        W50312  44.980  44.796   3.481
83772W        W50313  36.545  17.566  11.264
83773W        W50314  30.951  29.144   3.654
83774W        W50315  38.704   9.258  14.437
83775W        W50316  29.432  23.900  14.601
83776W        W50317   2.167  11.583  12.356
83777W        W50318  23.996  14.721  13.055
83778W        W50319  12.146   3.969  12.055
83779W        W50320  11.568   1.859  11.488
83780W        W50321  41.566  14.227  14.855
83781W        W50322  11.235  41.805   1.036
83782W        W50323  13.383  34.038  11.986
83783W        W50324  27.390  30.630  11.039
83784W        W50325  25.922  27.005   3.613
83785W        W50326  13.377  23.405   3.319
83786W        W50327  14.088  29.662  12.520
83787W        W50328  15.420   0.361  13.300
83788W        W50329  20.242  11.183   2.698
83789W        W50330  31.034  39.073   1.861
83790W        W50331   7.705  42.742   4.645
83791W        W50332  13.824  32.785  14.334
83792W        W50333  41.820  22.808  12.855
83793W        W50334  14.627   7.905  12.083
83794W        W50335  35.084  34.365  10.379
83795W        W50336   0.788  19.250   4.225
83796W        W50337  44.829   0.818  14.281
83797W        W50338  18.263  39.378  11.571
83798W        W50339  38.113  43.661   1.411
83799W        W50340  36.098  21.225   4.128
83800W        W50341  24.411  41.193  12.455
83801W        W50342  41.067   1.277  13.600
83802W        W50343  37.461  36.985   5.145
83803W        W50344   4.339  17.184   4.613
83804W        W50345  27.862  16.782  10.948
83805W        W50346  24.555  24.688   1.371
83806W        W50347  39.459  28.510   0.050
83807W        W50348  44.681  42.985   3.051
83808W        W50349  40.861  33.087  14.551
83809W        W50350  30.178  34.366  13.341
83810W        W50351  17.789   5.398   4.102
83811W        W50352  42.325  13.307  14.006
83812W        W50353  14.734  27.211  12.344
83813W        W50354  12.169   7.136  11.640
83814W        W50355   0.404   2.431  10.186
83815W        W50356  44.550  32.373  12.911
83816W        W50357  30.143   4.723   3.333
83817W        W50358   7.551   8.674   1.102
83818W        W50359   2.403  29.055  10.737
83819W        W50360  22.444  15.654   0.302
83820W        W50361  25.782  16.122   0.843
83821W        W50362  22.951  27.701  10.993
83822W        W50363  21.552  18.263  10.569
83823W        W50364  23.748  27.012   1.325
83824W        W50365  15.714  38.223  13.986
83825W        W50366  20.754  34.372  12.989
83826W        W50367   9.572  10.268   1.702
83827W        W50368  32.519  38.224   3.359
83828W        W50369  25.101  28.002  14.111
83829W        W50370   7.276  24.538  13.809
83830W        W50371   6.601  19.716   4.585
83831W        W50372  19.245  24.025   4.116
83832W        W50373  26.632   5.499   3.211
83833W        W50374  31.414  10.295  11.677
83834W        W50375   4.195  36.610  13.399
83835W        W50376  41.611  44.829   1.218
83836W        W50377  38.604   9.416   2.221
83837W        W50378  20.018  36.105  13.870
83838W        W50379   4.899   7.200  12.924
83839W        W50380  11.234  17.946  12.078
83840W        W50381  14.276   8.172   3.678
83841W        W50382  15.739  17.790   0.254
83842W        W50383  27.833  27.259   2.684
83843W        W50384  15.322  29.179   2.859
83844W        W50385  14.561  25.620   1.845
83845W        W50386  39.579  10.541   4.072
83846W        W50387  42.215  36.937   3.430
83847W        W50388   4.955   8.713   3.627
83848W        W50389  33.410  13.313   1.897
83849W        W50390  21.260  33.633  14.900
83850W        W50391  30.434  14.343   1.570
83851W        W50392  44.019   0.257  14.380
83852W        W50393   4.262  41.829   3.315
83853W        W50394  23.082   7.314  13.546
83854W        W50395  34.516  22.092   1.188
83855W        W50396   3.473  15.348  12.475
83856W        W50397   4.777  17.765   4.481
83857W        W50398  27.586  20.433   2.219
83858W        W50399  29.197  19.796   2.366
83859W        W50400  12.662  39.977  11.242
83860W        W50401   8.386   0.383  13.271
83861W        W50402  18.675   8.049  14.937
83862W        W50403   6.558  31.887  10.608
83863W        W50404  42.700  10.831  12.410
83864W        W50405  20.577  24.514  12.611
83865W        W50406  26.986  39.936  11.951
83866W        W50407  44.451  42.508   1.967
83867W        W50408  20.760  23.288   0.005
83868W        W50409  28.642  12.497   1.022
83869W        W50410  41.781  31.475   2.168
83870W        W50411  33.984  34.596   1.376
83871W        W50412  27.632   2.425   0.945
83872W        W50413  14.489  41.283   2.772
83873W        W50414  38.927  23.979  10.753
83874W        W50415  17.784  10.227  13.826
83875W        W50416  41.953  37.807   3.129
83876W        W50417  29.927  40.460   2.173
83877W        W50418  28.718  30.433  11.592
83878W        W50419  10.582  18.668  13.408
83879W        W50420  39.979  10.628  14.372
83880W        W50421  11.336  21.567   0.882
83881W        W50422   7.916  39.961  14.845
83882W        W50423  30.069  43.789  12.861
83883W        W50424  41.766  21.220  10.815
83884W        W50425  36.443  24.488   3.664
83885W        W50426  17.581   8.609   0.341
83886W        W50427  40.090  11.844  10.687
83887W        W50428  27.863  14.158  14.850
83888W        W50429   6.183  33.804   1.164
83889W        W50430   7.774  25.945   3.712
83890W        W50431  18.209  15.078  13.414
83891W        W50432  41.468  23.280  11.635
83892W        W50433  24.077  25.891  10.729
83893W        W50434  33.136  28.348   3.113
83894W        W50435   1.245  29.485   4.154
83895W        W50436  17.594  14.184  13.149
83896W        W50437  12.650  25.488   3.649
83897W        W50438   6.839  43.424   3.578
83898W        W50439  30.416  19.778  13.862
83899W        W50440  12.115  10.602   3.591
83900W        W50441  12.746   3.224   2.317
83901W        W50442   9.008  24.625  13.980
83902W        W50443  21.290  19.499  11.230
83903W        W50444  12.501  15.724   3.087
83904W        W50445  39.382   6.696   0.221
83905W        W50446  31.089  31.334  12.419
83906W        W50447   8.774  38.356   1.982
83907W        W50448   5.679  12.013   2.089
83908W        W50449  32.028  26.576  14.379
83909W        W50450  10.488  11.458  11.048
83910W        W50451   1.367  43.177   1.329
83911W        W50452   3.259  38.869  12.902
83912W        W50453   7.973  32.959  13.676
83913W        W50454   3.775  41.985  12.541
83914W        W50455  21.957  41.444   3.692
83915W        W50456  44.300  12.542   1.063
83916W        W50457   5.423   2.176  12.868
83917W        W50458  12.722   8.665   4.648
83918W        W50459  25.051  32.031   2.309
83919W        W50460  25.245   0.810   3.770
83920W        W50461  38.418  35.404   0.250
83921W        W50462  26.222  23.061   1.711
83922W        W50463  27.141  13.335   3.498
83923W        W50464  13.337   1.288   2.912
83924W        W50465  28.914   7.798   0.434
83925W        W50466   4.764  39.426   4.704
83926W        W50467  29.873  16.219  13.421
83927W        W50468  13.861  10.132   2.292
83928W        W50469  25.173  33.622  12.837
83929W        W50470  35.412  16.586   1.732
83930W        W50471  29.487  33.109   2.707
83931W        W50472  38.361  44.413  14.194
83932W        W50473  35.397  43.298  11.986
83933W        W50474  32.114  27.437  12.926
83934W        W50475  21.541  37.971  14.936
83935W        W50476  14.303  23.217   2.375
83936W        W50477  22.908  35.390  14.140
83937W        W50478  22.234  16.012  12.564
83938W        W50479  25.437  15.060   2.993
83939W        W50480  23.055   0.723  13.366
83940W        W50481  23.522  24.656  11.720
83941W        W50482  15.711  17.345  14.997
83942W        W50483  10.593  35.871   1.819
83943W        W50484   6.182  43.894   4.484
83944W        W50485  14.562   5.772  10.698
83945W        W50486  36.925  36.349  13.856
83946W        W50487   9.162   0.711  10.726
83947W        W50488  30.616  38.407  13.961
83948W        W50489  23.090  38.947  10.615
83949W        W50490  24.362  17.140  11.139
83950W        W50491  10.814  38.074  12.799
83951W        W50492  41.956   5.151  12.587
83952W        W50493  13.762  14.578  11.579
83953W        W50494  24.852  36.411  13.469
83954W        W50495   2.290  30.512  10.517
83955W        W50496   6.341  13.721  10.802
83956W        W50497  26.548  32.454   1.880
83957W        W50498  24.192   9.838  14.766
83958W        W50499  30.819   4.139   3.902
83959W        W50500  35.732  14.342   1.328
83960W        W50501  12.254  37.957  14.221
83961W        W50502  43.789  25.647  14.304
83962W        W50503  23.863  39.352  12.492
83963W        W50504  10.831  26.044   3.794
83964W        W50505  36.378  27.908  13.808
83965W        W50506  18.647   2.036   2.698
83966W        W50507  18.497   2.848   1.790
83967W        W50508  21.556  41.846   4.861
83968W        W50509   5.688  36.717  14.841
83969W        W50510  10.687  27.476  12.115
83970W        W50511  28.459  42.942   3.221
83971W        W50512  44.270  43.253   3.849
83972W        W50513  17.252  12.551   3.716
83973W        W50514   1.591  32.882   3.759
83974W        W50515   1.914  10.346   3.150
83975W        W50516  13.408  14.023   2.878
83976W        W50517  13.101  11.919  10.654
83977W        W50518  13.747  44.481   2.732
83978W        W50519   9.254  19.569  10.962
83979W        W50520  14.087  36.490   2.143
83980W        W50521  43.306  10.125  12.401
83981W        W50522  19.478   4.398  11.373
83982W        W50523  24.499  37.529  11.769
83983W        W50524   8.714  38.253  13.989
83984W        W50525  12.424  23.045  11.652
83985W        W50526  23.190   0.471  12.896
83986W        W50527   8.835  37.361  12.013
83987W        W50528  44.788  18.926  10.413
83988W        W50529  43.485  25.951   0.357
83989W        W50530  24.226  31.296   3.362
83990W        W50531  41.868  13.273  10.697
83991W        W50532  19.012  42.696   0.496
83992W        W50533  21.080  20.093   4.535
83993W        W50534  23.147  42.317  11.636
83994W        W50535  26.485  19.217   2.177
83995W        W50536  30.634  13.822  12.933
83996W        W50537  17.696  34.663   0.793
83997W        W50538  24.241  44.327   1.835
83998W        W50539  37.514   3.774  10.274
83999W        W50540  39.572  25.486   2.583
84000W        W50541  11.996  11.682   5.024
84001W        W50542  12.710  11.186   3.196
84002W        W50543  38.298  10.272   2.154
84003W        W50544   3.968  12.881   1.776
84004W        W50545  14.207  21.572   1.732
84005W        W50546  11.727  42.540   2.694
84006W        W50547  41.770  23.965   4.554
84007W        W50548  42.886   7.152  14.979
84008W        W50549  39.668   9.694   4.110
84009W        W50550  44.049  10.810   0.537
84010W        W50551  34.066  19.735  11.058
84011W        W50552  31.503  34.441  11.931
84012W        W50553  16.005  28.396  14.108
84013W        W50554  39.051  34.512   1.672
84014W        W50555   2.464  16.619   4.617
84015W        W50556  26.001   8.338   4.520
84016W        W50557  19.523   4.624   1.223
84017W        W50558  11.938  41.001  12.849
84018W        W50559   9.927  42.643   3.758
84019W        W50560  35.568   5.187   3.639
84020W        W50561  34.525   3.961  13.724
84021W        W50562  40.204   7.222  11.031
84022W        W50563   7.632  38.052   1.830
84023W        W50564  37.556  35.588   2.794
84024W        W50565   3.257  13.137  13.003
84025W        W50566  18.807  42.394  13.822
84026W        W50567  33.587  32.962   1.697
84027W        W50568  42.672  25.469   1.246
84028W        W50569  32.019  27.752  14.969
84029W        W50570  37.503  28.453   4.604
84030W        W50571  18.069  24.300  11.380
84031W        W50572  32.847  42.917   5.128
84032W        W50573   2.406  31.104   2.885
84033W        W50574  16.073  17.199   4.627
84034W        W50575  44.389  35.452   2.655
84035W        W50576   7.443   6.811  13.553
84036W        W50577  20.083  23.288   0.261
84037W        W50578  40.907  16.301  14.433
84038W        W50579  24.752   8.853  11.619
84039W        W50580   3.385   5.984   1.984
84040W        W50581  44.789  31.912   2.319
84041W        W50582  37.912  21.320   2.243
84042W        W50583  12.103  31.381  13.308
84043W        W50584  10.374  39.338   3.155
84044W        W50585  12.061   4.890  14.888
84045W        W50586  29.059   6.426   1.666
84046W        W50587  36.517  18.674  13.749
84047W        W50588  12.884  20.400  12.898
84048W        W50589  22.556  24.694  11.183
84049W        W50590  36.989  17.092  12.118
84050W        W50591  44.382  10.438   0.353
84051W        W50592  42.511  14.121  12.796
84052W        W50593  28.454  40.892  12.454
84053W        W50594  44.461  13.939  12.223
84054W        W50595   9.680   2.799  13.881
84055W        W50596   6.231  27.585   4.382
84056W        W50597  42.008  24.731  14.328
84057W        W50598   3.680  44.308  10.671
84058W        W50599  17.261   7.191   4.653
84059W        W50600  23.737  40.360   1.282
84060W        W50601  39.030   4.453   0.182
84061W        W50602  12.230   1.276   4.181
84062W        W50603  29.081  42.034   3.899
84063W        W50604   7.782  11.388  14.034
84064W        W50605  32.932  41.996   1.512
84065W        W50606   1.253   3.856  10.388
84066W        W50607   7.156  19.301  12.884
84067W        W50608  31.091  33.085  12.539
84068W        W50609  41.063  34.262   1.258
84069W        W50610  37.216  41.528  12.376
84070W        W50611  16.933  19.847  13.918
84071W        W50612   0.396  39.744   1.352
84072W        W50613  23.185  29.102  14.242
84073W        W50614  39.040   6.460  14.875
84074W        W50615  34.107   8.372   0.682
84075W        W50616  43.688  14.810  10.139
84076W        W50617  17.108  41.492  12.512
84077W        W50618  41.363  15.775   4.387
84078W        W50619  12.012  12.445   1.225
84079W        W50620   9.636   7.684   3.210
84080W        W50621  16.081   9.348   1.720
84081W        W50622  43.686  13.340  12.077
84082W        W50623  25.085  15.119  14.350
84083W        W50624  17.694  44.063   1.705
84084W        W50625   3.290  23.701   0.374
84085W        W50626  20.823  42.678  12.585
84086W        W50627  27.086   7.526  12.189
84087W        W50628  15.190  38.949  12.817
84088W        W50629   5.361   9.859   0.325
84089W        W50630  14.172   1.907  13.329
84090W        W50631  17.091   1.900   3.350
84091W        W50632   6.793   9.082  14.062
84092W        W50633  34.766  42.807  14.876
84093W        W50634  33.495  44.167   1.363
84094W        W50635  26.969  34.444  10.812
84095W        W50636   8.697  26.612   3.958
84096W        W50637  13.206  35.251   2.377
84097W        W50638  30.040   2.516   3.312
84098W        W50639   7.713  26.505   5.041
84099W        W50640  19.215  32.671   3.579
84100W        W50641  31.394  21.009  14.964
84101W        W50642  31.645  15.333  12.956
84102W        W50643  31.678  19.939  12.577
84103W        W50644  25.281  10.759  11.767
84104W        W50645  43.546   4.172  11.610
84105W        W50646  21.270  25.578   4.515
84106W        W50647   3.032   6.222   4.142
84107W        W50648  36.116  12.817  13.277
84108W        W50649   3.104   9.333   4.955
84109W        W50650  20.692  20.623  13.799
84110W        W50651  37.455   3.751  10.786
84111W        W50652  34.110  25.827   2.856
84112W        W50653  42.591   2.702   0.435
84113W        W50654   2.392  24.449  12.527
84114W        W50655  11.676  32.493  13.922
84115W        W50656   3.227  28.105  14.538
84116W        W50657  19.611  42.542  12.101
84117W        W50658  43.217  15.108  12.731
84118W        W50659  17.801  41.894   2.762
84119W        W50660  15.267   6.838  13.052
84120W        W50661  43.895  14.585  13.438
84121W        W50662  36.149  29.037  12.979
84122W        W50663  15.090  35.145  11.151
84123W        W50664  32.607  18.510  11.649
84124W        W50665  13.456  29.877  10.748
84125W        W50666   5.459  36.838  13.471
84126W        W50667  20.527  27.238  12.500
84127W        W50668  30.269  22.498   0.219
84128W        W50669  36.645  34.119   1.194
84129W        W50670  35.147   6.899  14.154
84130W        W50671  43.934  37.687  14.007
84131W        W50672  11.387  31.490   3.282
84132W        W50673  40.945  15.768  14.480
84133W        W50674  22.215  35.896   4.374
84134W        W50675  40.219  26.425   4.407
84135W        W50676  18.891   9.073   4.591
84136W        W50677  18.183  43.790  12.834
84137W        W50678  44.426  21.532  12.970
84138W        W50679  32.326  16.949  11.136
84139W        W50680  34.678  19.181   2.178
84140W        W50681  41.977  38.837   5.394
84141W        W50682  32.154  44.423   0.635
84142W        W50683  11.628  34.850  13.930
84143W        W50684   1.317   9.802  13.149
84144W        W50685   3.812  19.364  11.633
84145W        W50686  27.979   8.449  13.671
84146W        W50687  40.381   6.781   2.323
84147W        W50688  31.240  14.350  10.508
84148W        W50689  31.621  23.650   0.846
84149W        W50690  36.396  11.076  14.923
84150W        W50691   3.082  28.560   4.271
84151W        W50692  33.182   9.422  12.467
84152W        W50693  44.424  44.387  14.117
84153W        W50694  38.518  23.240   4.851
84154W        W50695  31.676  26.474   1.316
84155W        W50696  26.497  28.710  10.910
84156W        W50697  44.355   2.652  11.459
84157W        W50698   4.284  21.217   4.073
84158W        W50699  19.949  24.445  11.265
84159W        W50700  22.252  24.205  13.928
84160W        W50701  43.016  24.202   2.605
84161W        W50702  27.787   8.461  11.155
84162W        W50703  24.588  23.064   1.901
84163W        W50704  13.154  41.080   3.246
84164W        W50705  22.135   0.472  12.889
84165W        W50706  12.587  44.354  12.037
84166W        W50707  12.800  26.570   3.642
84167W        W50708  43.273  34.739  11.193
84168W        W50709  40.728  44.318  11.144
84169W        W50710  12.466  15.182   1.336
84170W        W50711  34.656  13.146   0.430
84171W        W50712  23.504  30.643   4.501
84172W        W50713   7.969  36.542   3.312
84173W        W50714  25.768  20.757  11.432
84174W        W50715   7.936  36.021  11.827
84175W        W50716  21.165  19.855  13.038
84176W        W50717  21.086   2.992  13.579
84177W        W50718  12.652  24.027  14.556
84178W        W50719  29.949  18.396  11.661
84179W        W50720  31.909   9.394  12.095
84180W        W50721   2.523  21.172  12.032
84181W        W50722  40.727  25.187  14.306
84182W        W50723  16.643  16.616   2.719
84183W        W50724   8.254  38.798   4.478
84184W        W50725  41.656  10.922   3.927
84185W        W50726   0.942  17.635  13.871
84186W        W50727   2.877   2.702   1.659
84187W        W50728  29.590  30.835   3.214
84188W        W50729  15.708  14.048   4.390
84189W        W50730   7.887  41.546   4.112
84190W        W50731  17.138  23.270  11.046
84191W        W50732  40.196  23.338  10.311
84192W        W50733  30.155   5.764   0.782
84193W        W50734  27.604  34.271   3.866
84194W        W50735  37.402   4.250   1.478
84195W        W50736  17.228  40.365   0.260
84196W        W50737  22.476  18.106   3.731
84197W        W50738   9.802  15.553  13.051
84198W        W50739   6.145  39.488  12.859
84199W        W50740  42.419  34.327   3.265
84200W        W50741  13.130   5.360  13.264
84201W        W50742   3.929  14.092  13.080
84202W        W50743  10.336  31.435   1.645
84203W        W50744   6.656  40.306  13.993
84204W        W50745  10.662  38.309  13.859
84205W        W50746  44.984  15.836   1.760
84206W        W50747   6.698  17.118  10.688
84207W        W50748  44.286  26.014  12.549
84208W        W50749   4.354  37.043   2.505
84209W        W50750  43.350  38.186  11.991
84210W        W50751   0.288  20.951   0.852
84211W        W50752   5.006  12.704  13.430
84212W        W50753  10.854  33.192  14.808
84213W        W50754  41.605  16.571   0.938
84214W        W50755  36.072  13.075  10.652
84215W        W50756  22.149  28.622   2.871
84216W        W50757  18.735  22.610   1.694
84217W        W50758  37.919  37.849  10.522
84218W        W50759  35.365   0.373  10.975
84219W        W50760  14.245  33.912   2.394
84220W        W50761  21.518   2.248  13.003
84221W        W50762  14.083  22.617   4.724
84222W        W50763  39.764  25.002   1.890
84223W        W50764  44.455  33.635   2.382
84224W        W50765  18.454   8.804   1.770
84225W        W50766  19.511   7.260  11.094
84226W        W50767  41.455  37.412  12.928
84227W        W50768  28.702   6.022  13.179
84228W        W50769  17.034  25.169  12.672
84229W        W50770  43.426  10.183   0.667
84230W        W50771  20.669   1.348  13.861
84231W        W50772  13.231   0.262  11.260
84232W        W50773  24.289  29.604  13.102
84233W        W50774  42.890   8.995  11.112
84234W        W50775  23.648   3.509  11.805
84235W        W50776  26.012  43.975   3.144
84236W        W50777  27.642   5.688   2.571
84237W        W50778  18.535  31.598  11.421
84238W        W50779   5.462   1.511  13.599
84239W        W50780  13.853   6.921   0.828
84240W        W50781   3.845   5.710  10.294
84241W        W50782  25.698  42.210   3.610
84242W        W50783  22.628   7.432  13.841
84243W        W50784   3.679   4.839   5.011
84244W        W50785   9.413  30.166   1.150
84245W        W50786  13.385  35.113   3.238
84246W        W50787  11.130   5.755  12.692
84247W        W50788  16.529  17.249  10.060
84248W        W50789  34.350  21.086   2.756
84249W        W50790  40.600  15.330   4.568
84250W        W50791  42.440  28.948  12.426
84251W        W50792  43.119   5.997  14.132
84252W        W50793   7.556   1.786   4.608
84253W        W50794  26.619  11.404   3.430
84254W        W50795  25.882  38.498   2.547
84255W        W50796  36.132  29.203  11.659
84256W        W50797   8.238  16.971  13.958
84257W        W50798   6.414  42.473   3.718
84258W        W50799  30.665  32.050  12.438
84259W        W50800  10.372  30.857  13.498
84260W        W50801  44.309  19.139   0.078
84261W        W50802  33.881  10.901  10.707
84262W        W50803  30.516  16.000   2.421
84263W        W50804   2.984  31.856   2.891
84264W        W50805   4.048   4.170  12.645
84265W        W50806   4.381  26.688  13.948
84266W        W50807  43.010   1.897  14.931
84267W        W50808   5.562   0.252   2.603
84268W        W50809  17.336  32.687   1.788
84269W        W50810  11.825  41.752   3.200
84270W        W50811   1.331  39.603   3.250
84271W        W50812   5.912   8.660  13.694
84272W        W50813  32.012  38.896  13.514
84273W        W50814   8.664   4.643  12.499
84274W        W50815  19.110  38.845  13.451
84275W        W50816  25.931  13.703  14.407
84276W        W50817  13.295  19.186   3.051
84277W        W50818   7.049  22.437  12.585
84278W        W50819   1.789   1.789   3.980
84279W        W50820  14.855  28.492  14.773
84280W        W50821   2.049  42.499  11.514
84281W        W50822  25.595  17.070  13.157
84282W        W50823  35.969  28.738   3.633
84283W        W50824  29.016  23.549   3.700
84284W        W50825  29.781  17.735  12.463
84285W        W50826  10.251  30.716   3.442
84286W        W50827  28.247  25.264  12.085
84287W        W50828  27.734  20.958  13.489
84288W        W50829  21.963  22.976   1.080
84289W        W50830  33.623  22.877  13.833
84290W        W50831  13.370  10.317   1.421
84291W        W50832  14.079  23.464  12.440
84292W        W50833  36.981  20.269  13.904
84293W        W50834  12.677  20.563   3.706
84294W        W50835  36.926  35.845   1.858
84295W        W50836  30.155  22.473  11.586
84296W        W50837  42.260   1.413  10.508
84297W        W50838  32.624  34.536   2.687
84298W        W50839  19.558  12.864  11.689
84299W        W50840   6.154  20.620   0.955
84300W        W50841  41.399   7.984   0.194
84301W        W50842  10.996   1.147   1.923
84302W        W50843  26.613   1.535  12.520
84303W        W50844  30.931  31.593   0.250
84304W        W50845  12.660  34.166   3.538
84305W        W50846  19.441  30.183   1.437
84306W        W50847  16.434  34.110   1.747
84307W        W50848  40.808  32.398  14.652
84308W        W50849  29.396  31.215   1.428
84309W        W50850   8.415  42.332   1.139
84310W        W50851  17.719  27.700   2.486
84311W        W50852  36.355   5.415   1.381
84312W        W50853   4.422  37.103  13.403
84313W        W50854  34.461  37.679   0.298
84314W        W50855  33.526  11.820  13.008
84315W        W50856  23.725  42.989  10.704
84316W        W50857   7.900  39.284  13.076
84317W        W50858   8.737  34.384  14.145
84318W        W50859  32.203  25.104  14.934
84319W        W50860   7.242  41.095   0.959
84320W        W50861   5.441   0.739  13.852
84321W        W50862  14.372  19.624  11.489
84322W        W50863  23.689  12.699  14.505
84323W        W50864  41.793  10.128  13.072
84324W        W50865  16.400   3.284  13.065
84325W        W50866   7.029  26.336  12.136
84326W        W50867  26.046   2.116   2.376
84327W        W50868  27.693  33.155   2.292
84328W        W50869  27.665   6.829  12.447
84329W        W50870  22.198  21.605   1.379
84330W        W50871  38.712  20.982   2.681
84331W        W50872  35.280  29.828   3.653
84332W        W50873   2.815  13.387   1.233
84333W        W50874   1.194  39.122   3.367
84334W        W50875  11.696  11.357   0.714
84335W        W50876  14.140  31.803  14.483
84336W        W50877  22.190   2.469  10.708
84337W        W50878   2.045  25.418   9.819
84338W        W50879   5.243  21.512   2.291
84339W        W50880  31.098   7.937  12.973
84340W        W50881  17.209  36.550  10.253
84341W        W50882  12.584  44.062  14.336
84342W        W50883   1.379  44.663   1.341
84343W        W50884   3.640  43.438  14.860
84344W        W50885  27.004  15.159   3.236
84345W        W50886  11.183  18.614   0.498
84346W        W50887  12.795  31.565   1.683
84347W        W50888  43.312   2.561   1.442
84348W        W50889   4.808  29.794   9.852
84349W        W50890  39.532  43.277  11.429
84350W        W50891  38.731  22.606   4.729
84351W        W50892  33.769  28.597   0.938
84352W        W50893  35.153   3.884  11.357
84353W        W50894  13.057  28.498   0.384
84354W        W50895  22.016  18.932  11.962
84355W        W50896  11.332  12.929   3.376
84356W        W50897  15.135  18.988   2.654
84357W        W50898  12.238  24.237   3.999
84358W        W50899  24.505   3.180  10.271
84359W        W50900  39.551   7.144   2.217
84360W        W50901  16.701  16.727   1.406
84361W        W50902   4.416  26.995   9.652
84362W        W50903  30.572  21.020   0.298
84363W        W50904  21.069   6.620   1.703
84364W        W50905  12.941  20.085   4.452
84365W        W50906  17.670  11.026   2.717
84366W        W50907  29.672  19.598   2.610
84367W        W50908   7.474  39.404   1.675
84368W        W50909  38.964  14.782  11.416
84369W        W50910  21.083   8.762  10.680
84370W        W50911  29.489  29.725   4.152
84371W        W50912  43.673  24.471   3.703
84372W        W50913  26.189  37.201   1.288
84373W        W50914  20.449  25.246  14.251
84374W        W50915  30.370  26.562   4.226
84375W        W50916   2.503  13.981  14.863
84376W        W50917   3.733  34.891  11.042
84377W        W50918  18.960  30.423  10.492
84378W        W50919   2.154   8.701  12.554
84379W        W50920  28.582  12.444  14.557
84380W        W50921  34.964  10.613  13.477
84381W        W50922  42.755  16.185   4.419
84382W        W50923  12.411   4.808  10.565
84383W        W50924   7.846  13.885  13.845
84384W        W50925  21.828  11.622  11.093
84385W        W50926   1.192   1.233   3.560
84386W        W50927  27.597  40.439  10.363
84387W        W50928  11.347  26.097  10.574
84388W        W50929  43.080   9.743  13.298
84389W        W50930   1.244  33.896  11.943
84390W        W50931  38.209   1.471  11.031
84391W        W50932  37.360  28.693   2.089
84392W        W50933   3.379   7.836   1.256
84393W        W50934  35.743  39.894   0.202
84394W        W50935  31.619  34.396   0.193
84395W        W50936  38.149   5.419   3.241
84396W        W50937  37.425  18.453  12.794
84397W        W50938  36.103  20.141   0.105
84398W        W50939  41.938  23.901   2.825
84399W        W50940  36.398  41.235   4.339
84400W        W50941   9.358  39.075  11.297
84401W        W50942   5.761   1.756   2.231
84402W        W50943  41.014  11.093   4.514
84403W        W50944  14.565  41.884  13.487
84404W        W50945  15.834  27.118   2.139
84405W        W50946  17.500   4.960   3.204
84406W        W50947   4.691  42.635  12.265
84407W        W50948   5.726  32.847   2.714
84408W        W50949  38.347  16.844   5.065
84409W        W50950  23.013   8.353  14.403
84410W        W50951   4.679  40.523   1.740
84411W        W50952  12.631  28.963   3.287
84412W        W50953  28.114  21.638  13.968
84413W        W50954  20.469  32.609  14.988
84414W        W50955  27.994  44.505   3.412
84415W        W50956  42.675  12.830  12.907
84416W        W50957  37.486  25.042  11.263
84417W        W50958  42.811  15.064  13.788
84418W        W50959  29.632  11.840   4.127
84419W        W50960   6.784  37.021   3.369
84420W        W50961  27.717  42.032   3.120
84421W        W50962  17.517  25.462   0.332
84422W        W50963  19.404  38.785  12.699
84423W        W50964  29.731  13.297  13.600
84424W        W50965  12.700  36.789   2.875
84425W        W50966   7.292   2.444  14.912
84426W        W50967   6.379  10.273   4.251
84427W        W50968  11.772  14.148  11.160
84428W        W50969  38.956  23.113  12.908
84429W        W50970   3.383  40.904   1.647
84430W        W50971  16.854  20.954  12.015
84431W        W50972  24.378  19.738  13.423
84432W        W50973  37.544  36.935   3.612
84433W        W50974  21.222  26.610   1.666
84434W        W50975  36.346  42.922   0.948
84435W        W50976  43.461  42.781   4.611
84436W        W50977   4.953  33.436   4.044
84437W        W50978  37.784  37.362   4.351
84438W        W50979  34.122   9.177   2.905
84439W        W50980  40.544  15.808  13.058
84440W        W50981  22.109  44.344   4.543
84441W        W50982  42.484  18.612  10.630
84442W        W50983  19.762  25.521   4.919
84443W        W50984   6.715  40.118   3.180
84444W        W50985  34.161  17.841  10.851
84445W        W50986  11.600  31.145   4.507
84446W        W50987  18.529   6.179  14.557
84447W        W50988  18.492  33.721  12.035
84448W        W50989   9.529   9.730  14.508
84449W        W50990  42.092   9.845   2.229
84450W        W50991  27.789  21.955  11.099
84451W        W50992   0.682  40.838   2.913
84452W        W50993  22.650  23.421  12.704
84453W        W50994  38.538  43.331   0.185
84454W        W50995  32.963  22.613   0.633
84455W        W50996  15.292  44.109   4.254
84456W        W50997   0.718  20.665   4.695
84457W        W50998  42.264  20.984  14.381
84458W        W50999  37.322  27.698  14.017
84459W        W51000  20.274  13.940  12.987
84460W        W51001  33.513  33.144  12.153
84461W        W51002  19.870   7.578  12.503
84462W        W51003  21.062  25.149   1.896
84463W        W51004  21.429  24.833   2.803
84464W        W51005  13.241  13.861  10.493
84465W        W51006  38.489  19.361   2.768
84466W        W51007  43.272   9.083   4.814
84467W        W51008  27.344   8.935   0.347
84468W        W51009  38.861  26.001   0.197
84469W        W51010  25.237  24.415  14.695
84470W        W51011   9.104  31.310   4.205
84471W        W51012  11.826  36.339  13.235
84472W        W51013  15.556  43.315  14.032
84473W        W51014  15.243  24.673   2.617
84474W        W51015  41.540  43.536  11.790
84475W        W51016   4.847   2.766   9.715
84476W        W51017  33.595  41.758   2.581
84477W        W51018  30.149   0.975  10.754
84478W        W51019  26.561  43.028   0.902
84479W        W51020  42.350   1.140  13.750
84480W        W51021  22.282   0.570  14.537
84481W        W51022  41.823  11.802   3.595
84482W        W51023  36.429  24.675   2.236
84483W        W51024   5.589  11.688   3.631
84484W        W51025   1.395  40.737   1.368
84485W        W51026  29.364  17.412  12.487
84486W        W51027  34.527   6.827  13.368
84487W        W51028   0.405  30.720  10.789
84488W        W51029  19.936  43.953  14.750
84489W        W51030  22.179  28.843   2.323
84490W        W51031  43.557  38.807   1.239
84491W        W51032  14.458  36.592  13.139
84492W        W51033   6.102  35.294  11.586
84493W        W51034  18.334  14.058   2.193
84494W        W51035   1.393  24.024   2.784
84495W        W51036   9.174  21.085   3.682
84496W        W51037  25.504  28.705  11.300
84497W        W51038  19.453  41.330   1.371
84498W        W51039  16.062  33.075  11.169
84499W        W51040  29.373  20.131   3.735
84500W        W51041   1.761  11.163   1.402
84501W        W51042  31.974  23.735   2.614
84502W        W51043   6.176  20.757  12.470
84503W        W51044  38.329   0.297   3.640
84504W        W51045  43.469  30.678  11.731
84505W        W51046  26.555   1.524  10.950
84506W        W51047  28.367  17.040   4.840
84507W        W51048  20.212   2.404   3.417
84508W        W51049  25.109  25.420   2.863
84509W        W51050  15.410  26.220  11.600
84510W        W51051  33.477  18.561  14.939
84511W        W51052  24.207  18.749  13.919
84512W        W51053  36.883  40.949   0.819
84513W        W51054  42.523  11.161   1.896
84514W        W51055  11.708  16.322   1.198
84515W        W51056  22.727  15.602   3.804
84516W        W51057  39.355  26.630   4.167
84517W        W51058  34.890   9.673   0.461
84518W        W51059  26.686  24.986   1.169
84519W        W51060   8.288  41.786  14.054
84520W        W51061   8.838   2.217   0.685
84521W        W51062  22.087   1.797   2.215
84522W        W51063  40.388  16.547  11.957
84523W        W51064  15.225  15.060  13.460
84524W        W51065  38.314  25.784  13.003
84525W        W51066  43.660  39.997   1.307
84526W        W51067   5.769  21.180   4.245
84527W        W51068  33.526   7.710   3.577
84528W        W51069  44.237  35.523   4.026
84529W        W51070   2.948  18.621  13.992
84530W        W51071  26.002  10.353  11.670
84531W        W51072  11.421  40.190  10.965
84532W        W51073  38.472  23.058   2.376
84533W        W51074   2.822  33.177  14.745
84534W        W51075  15.016  35.616  10.938
84535W        W51076  27.144  32.974   0.954
84536W        W51077  39.580  23.576  14.981
84537W        W51078  31.350  33.119   4.135
84538W        W51079  36.468  21.637   2.269
84539W        W51080  30.662  15.607  12.367
84540W        W51081  26.313  22.450   4.924
84541W        W51082  17.055  25.561   2.721
84542W        W51083  36.402  27.568   0.908
84543W        W51084  28.462   3.398   4.538
84544W        W51085  32.725  37.512  11.080
84545W        W51086  31.500   1.817   1.725
84546W        W51087   9.786   5.347   4.604
84547W        W51088  13.047   5.688  12.456
84548W        W51089  17.546  39.350   2.243
84549W        W51090  12.410  37.009   0.219
84550W        W51091  16.597   7.647  11.842
84551W        W51092  25.148  30.992  12.886
84552W        W51093  24.079  11.905   4.577
84553W        W51094  28.579   6.184   0.489
84554W        W51095  31.431  16.722   5.015
84555W        W51096  14.319   4.712   2.808
84556W        W51097  41.864  44.230  10.169
84557W        W51098  33.214  15.535   4.146
84558W        W51099   9.930  40.634  13.351
84559W        W51100  44.963  25.127   1.844
84560W        W51101   7.066  32.594  11.008
84561W        W51102  37.073  24.631   4.917
84562W        W51103   4.066  18.736  12.013
84563W        W51104  32.848   3.478   1.982
84564W        W51105   4.338   6.327  10.650
84565W        W51106  37.280  43.563  13.794
84566W        W51107  39.239  14.386  12.162
84567W        W51108  18.625  18.612  14.998
84568W        W51109   9.462  30.846   1.793
84569W        W51110  39.514  33.455  14.516
84570W        W51111  11.714   9.476   0.623
84571W        W51112  36.606  22.465  13.037
84572W        W51113  38.421   9.448   2.717
84573W        W51114  17.798  13.743   1.419
84574W        W51115   1.955  34.478   4.447
84575W        W51116  37.037  20.169   4.605
84576W        W51117  12.652  16.711   3.799
84577W        W51118   8.539  22.135  14.089
84578W        W51119  32.234  28.143   2.256
84579W        W51120  26.204   3.522   4.163
84580W        W51121  41.426  30.285   4.805
84581W        W51122  20.839   8.154   1.274
84582W        W51123  15.121  19.531   0.724
84583W        W51124  42.870   7.995  13.789
84584W        W51125  30.826  14.765   0.687
84585W        W51126  18.729  30.896  14.494
84586W        W51127  30.496   7.400   4.599
84587W        W51128  43.267  21.018  14.761
84588W        W51129  34.641   0.210  13.981
84589W        W51130  43.410  29.761   2.754
84590W        W51131  10.866  11.325  14.720
84591W        W51132  24.077  17.754   3.480
84592W        W51133  35.344  18.086  14.336
84593W        W51134  27.000  16.794  11.625
84594W        W51135  26.008   2.976  11.494
84595W        W51136   7.262  34.604  12.674
84596W        W51137  24.008  44.915  13.795
84597W        W51138  32.368  11.897  12.406
84598W        W51139  20.065  17.507  11.997
84599W        W51140  12.530  39.674  12.157
84600W        W51141   9.344  10.573   0.896
84601W        W51142  24.762   1.454   4.134
84602W        W51143  39.368  33.341   3.331
84603W        W51144  32.085  23.223  14.301
84604W        W51145  17.406   6.353   3.317
84605W        W51146  37.155   9.813  13.347
84606W        W51147  38.604   3.379   0.340
84607W        W51148  30.922  39.043  11.652
84608W        W51149  26.086  21.237  14.837
84609W        W51150   1.846  23.946   4.590
84610W        W51151   1.458  44.489  12.379
84611W        W51152  20.989  21.610  10.688
84612W        W51153   6.180  35.549  14.984
84613W        W51154  28.235  33.495  11.556
84614W        W51155   0.291  10.915   3.201
84615W        W51156  32.703   7.573   0.749
84616W        W51157  43.725  21.678   0.311
84617W        W51158  33.959  18.276   4.230
84618W        W51159   7.633  36.863   3.080
84619W        W51160   4.322  14.386   2.293
84620W        W51161  44.762   2.996   3.602
84621W        W51162  38.470  24.817   3.836
84622W        W51163  38.374  33.154   3.057
84623W        W51164  20.477  14.323  13.264
84624W        W51165   3.968  14.677  12.398
84625W        W51166   4.009  22.689  14.512
84626W        W51167  16.798  42.820  11.568
84627W        W51168   9.716  43.007  12.023
84628W        W51169  21.208   7.875  11.724
84629W        W51170  12.532   6.634  13.603
84630W        W51171  41.410  31.318  12.041
84631W        W51172  14.651  37.585  13.503
84632W        W51173  44.580  26.276   3.675
84633W        W51174  15.617  32.830  11.085
84634W        W51175   0.121  30.438   5.147
84635W        W51176   6.695  36.318  10.978
84636W        W51177  10.224  36.069  13.872
84637W        W51178  33.019  37.387   1.469
84638W        W51179  43.504  39.774  12.785
84639W        W51180  26.211  28.640  14.374
84640W        W51181  44.852  27.376   1.977
84641W        W51182  21.997  18.167   1.880
84642W        W51183  36.097  22.084  14.905
84643W        W51184  38.766  17.221  13.927
84644W        W51185  16.268  36.631   0.886
84645W        W51186   0.631  17.186   4.657
84646W        W51187   7.167   7.432   3.754
84647W        W51188  31.200  20.600   0.968
84648W        W51189  12.555  16.045  10.601
84649W        W51190  41.558  18.290   1.180
84650W        W51191   3.339  10.122  13.428
84651W        W51192  43.222   9.133   3.583
84652W        W51193   8.676  18.223  12.888
84653W        W51194  17.024  30.416  10.297
84654W        W51195  22.646  21.328   1.337
84655W        W51196  11.599  30.497  10.673
84656W        W51197   3.875  10.477   2.847
84657W        W51198  17.810  43.353  14.464
84658W        W51199  41.961  12.975   3.578
84659W        W51200  29.959   5.516  14.953
84660W        W51201  43.968  31.533   0.267
84661W        W51202  20.855  12.553   3.791
84662W        W51203  37.693  37.801  12.928
84663W        W51204  28.839   8.498   4.275
84664W        W51205  37.403  36.461   0.915
84665W        W51206  16.298  31.492   1.847
84666W        W51207  32.661  10.574  11.612
84667W        W51208  37.469  28.124   2.802
84668W        W51209  41.331  18.939   3.680
84669W        W51210   4.242   3.842   3.568
84670W        W51211  38.451  30.802  13.345
84671W        W51212  25.920  38.436   4.815
84672W        W51213  43.425  36.860   2.987
84673W        W51214   8.452  11.598   0.581
84674W        W51215   8.080  20.200   0.417
84675W        W51216  24.949  10.818  14.370
84676W        W51217  13.647  19.732  13.482
84677W        W51218   8.903   6.739   0.281
84678W        W51219  32.565  30.913   1.754
84679W        W51220  41.186   6.247  12.032
84680W        W51221  43.604   6.646   1.761
84681W        W51222   9.361   2.195   0.276
84682W        W51223  10.936  34.914  10.664
84683W        W51224  14.309  33.689   3.967
84684W        W51225  36.844  30.590  12.464
84685W        W51226  28.471  38.883   4.767
84686W        W51227   0.888  43.940   0.390
84687W        W51228  12.231  37.282  12.145
84688W        W51229  22.185   5.933  14.699
84689W        W51230  15.835  19.083  13.883
84690W        W51231   8.868  43.924   1.862
84691W        W51232  43.411  26.709   3.715
84692W        W51233  13.452   2.692  11.024
84693W        W51234   8.409   5.183   1.658
84694W        W51235  21.738  12.228   0.789
84695W        W51236  22.182  24.624   4.909
84696W        W51237   3.165  23.018   3.242
84697W        W51238  30.926  31.330   4.879
84698W        W51239  30.481  10.184  13.851
84699W        W51240   1.569   3.305  10.211
84700W        W51241  21.019  14.823  13.507
84701W        W51242  34.450  35.151  13.813
84702W        W51243  10.382  18.813  11.946
84703W        W51244   7.978   5.804  11.571
84704W        W51245  36.370   5.914  10.886
84705W        W51246  11.808  30.943   0.396
84706W        W51247  29.239   1.849   2.274
84707W        W51248   1.243  43.340   3.484
84708W        W51249  20.087  41.256  12.031
84709W        W51250  37.208   9.056  13.528
84710W        W51251  31.627  35.959   4.011
84711W        W51252  33.401  30.541   2.708
84712W        W51253   6.376  34.283   1.385
84713W        W51254  39.939  30.257   4.120
84714W        W51255  19.008  19.117  11.507
84715W        W51256  21.172  10.245   0.756
84716W        W51257   7.463  33.940   4.516
84717W        W51258  15.192  30.679  11.703
84718W        W51259  35.128   5.411   1.864
84719W        W51260  41.735  23.987  12.461
84720W        W51261   6.579   3.860  12.130
84721W        W51262  33.324  33.369   0.884
84722W        W51263   1.157  25.089   4.748
84723W        W51264  42.376   6.150   1.329
84724W        W51265  25.975  26.659  11.313
84725W        W51266  39.876  36.913  11.478
84726W        W51267  25.704  38.087   1.304
84727W        W51268   7.101   4.306  13.429
84728W        W51269  26.651   9.396  14.317
84729W        W51270  21.958  26.863  12.950
84730W        W51271  27.609  37.735  12.891
84731W        W51272   6.790  34.416   1.064
84732W        W51273  15.612  16.666   3.063
84733W        W51274  15.829   4.709   3.617
84734W        W51275   3.765  42.203  14.317
84735W        W51276   8.190  17.429  12.364
84736W        W51277  37.518   2.740  11.558
84737W        W51278  42.913  12.659  14.936
84738W        W51279   8.870  11.051  10.441
84739W        W51280  27.991   7.242   1.707
84740W        W51281   1.027   3.159  12.592
84741W        W51282  25.946  41.724  14.342
84742W        W51283  20.277  35.464   0.786
84743W        W51284  38.607  15.146   3.078
84744W        W51285  44.035   7.852   4.797
84745W        W51286  36.501   4.961  10.706
84746W        W51287  29.707  38.724  14.973
84747W        W51288  15.902  20.287  12.100
84748W        W51289  16.768  17.722   4.586
84749W        W51290  19.327  44.929   3.497
84750W        W51291  25.694   8.137  14.766
84751W        W51292  37.646   8.881  13.248
84752W        W51293   7.746  32.552   1.502
84753W        W51294  17.203  36.987   4.315
84754W        W51295  32.399  25.036   2.220
84755W        W51296  35.048  42.030   0.303
84756W        W51297  22.737   4.492  13.385
84757W        W51298  13.369   8.693  10.724
84758W        W51299   1.501  27.467   2.783
84759W        W51300  18.668   4.305   2.468
84760W        W51301  43.718  32.159  12.073
84761W        W51302  21.041  18.802   4.153
84762W        W51303   4.077  28.993  14.488
84763W        W51304   8.694   7.954   2.713
84764W        W51305  11.100  22.968  11.947
84765W        W51306  43.053  29.631  14.296
84766W        W51307   2.982  38.312  11.155
84767W        W51308  12.367   5.972   4.200
84768W        W51309  29.003  20.290   0.280
84769W        W51310  26.437  25.790   0.416
84770W        W51311  35.798   0.916   0.143
84771W        W51312   7.981  10.760   0.418
84772W        W51313  13.722  12.406  12.527
84773W        W51314  24.608  36.587   3.631
84774W        W51315  40.751   6.236  10.912
84775W        W51316  34.852  29.183  11.373
84776W        W51317  41.533  21.702   2.259
84777W        W51318  27.078  35.342   3.774
84778W        W51319  11.086  13.224   2.683
84779W        W51320  12.132  43.229   4.247
84780W        W51321   9.629  38.082  13.419
84781W        W51322  39.942  11.872  14.877
84782W        W51323  28.698  42.460   2.695
84783W        W51324  42.232  44.386  11.112
84784W        W51325  41.945  43.849   4.517
84785W        W51326  44.460  31.815  13.403
84786W        W51327  21.476  43.999   1.341
84787W        W51328  37.105  29.581  12.529
84788W        W51329  25.977  38.556  11.066
84789W        W51330  31.593  29.109   2.730
84790W        W51331  21.624  26.473  13.981
84791W        W51332  36.110  10.120  14.326
84792W        W51333  39.416  43.335   0.457
84793W        W51334  32.449  15.174   3.630
84794W        W51335   2.302  19.941  10.769
84795W        W51336  29.679  24.023   0.034
84796W        W51337  14.633  26.609   4.313
84797W        W51338  11.285  38.434   2.743
84798W        W51339  29.371  12.496   3.690
84799W        W51340  13.303  11.922  11.660
84800W        W51341  37.310  43.262   2.251
84801W        W51342  40.858  10.593   2.680
84802W        W51343  24.478  12.830   1.844
84803W        W51344  43.398   7.912   1.184
84804W        W51345  23.555  23.227  11.959
84805W        W51346  15.181  15.653  12.420
84806W        W51347   7.811   3.017   0.888
84807W        W51348  36.063  19.796  10.809
84808W        W51349  40.996  18.146   1.870
84809W        W51350  29.716  32.537   4.065
84810W        W51351   9.568  15.075  11.909
84811W        W51352  14.534  10.304   1.136
84812W        W51353  24.083   7.637  11.519
84813W        W51354  44.141  36.903   3.544
84814W        W51355  29.662  10.115   0.534
84815W        W51356  39.067   4.507   1.221
84816W        W51357  43.339   7.148  12.992
84817W        W51358   7.285  21.298   0.665
84818W        W51359  31.888  44.416   2.708
84819W        W51360  32.629   6.792  13.848
84820W        W51361  12.175   6.116   1.429
84821W        W51362   5.259  29.609   1.306
84822W        W51363  14.668   4.795  11.251
84823W        W51364   6.235  37.308   2.275
84824W        W51365  37.814  39.232  13.101
84825W        W51366  16.839  22.775   3.308
84826W        W51367  23.470   9.703  12.146
84827W        W51368  42.984   3.755  11.741
84828W        W51369  44.496  39.437  12.906
84829W        W51370  20.288  42.250  11.823
84830W        W51371  17.200  31.077   0.894
84831W        W51372  44.206  44.820  14.938
84832W        W51373   4.486   0.918  11.579
84833W        W51374  39.781  27.075  11.216
84834W        W51375  34.904  15.817   4.608
84835W        W51376  44.877  40.415   0.996
84836W        W51377  22.308  10.798   4.559
84837W        W51378  27.539  25.111  10.680
84838W        W51379  30.084  24.564  14.499
84839W        W51380  39.574  17.574  12.482
84840W        W51381   1.839  42.686  14.391
84841W        W51382  44.237  13.144  11.176
84842W        W51383  27.769  26.766   2.829
84843W        W51384  43.263  15.001   3.715
84844W        W51385  27.277  35.581   1.200
84845W        W51386  31.424   2.960   1.376
84846W        W51387  31.145  16.147   1.411
84847W        W51388  25.533  20.423  13.495
84848W        W51389  14.136  37.091  14.519
84849W        W51390   9.271   7.830  14.863
84850W        W51391  10.803  39.597  13.015
84851W        W51392   3.903   2.154   1.029
84852W        W51393  44.073  24.684   0.535
84853W        W51394  38.825  13.576  14.371
84854W        W51395  27.250  43.105  11.258
84855W        W51396   4.227   2.293  13.419
84856W        W51397  29.175   3.382  14.201
84857W        W51398  22.997   7.771   4.121
84858W        W51399  31.945  12.674   0.779
84859W        W51400  19.337  43.986   3.214
84860W        W51401  20.646  15.510  13.635
84861W        W51402  41.264  29.465   1.487
84862W        W51403  22.800  24.950   1.423
84863W        W51404  22.001   8.440   2.204
84864W        W51405  10.443   2.952   2.874
84865W        W51406   1.224  40.555  14.918
84866W        W51407  16.516   4.170   2.362
84867W        W51408  13.689  35.354   4.672
84868W        W51409  34.525  31.581   2.392
84869W        W51410  27.252  21.481  11.655
84870W        W51411  20.961  20.035  13.492
84871W        W51412  30.764  41.959   0.020
84872W        W51413  39.796  20.493  12.564
84873W        W51414  21.223  10.801  11.730
84874W        W51415   0.268  30.996   4.139
84875W        W51416  13.113  26.826   0.848
84876W        W51417   2.201   1.939   3.044
84877W        W51418  23.164  32.418   0.661
84878W        W51419  27.227   3.422  10.292
84879W        W51420   5.397  22.768  13.534
84880W        W51421  40.988  26.009   1.678
84881W        W51422  17.753   5.200   1.321
84882W        W51423  13.164   8.762   3.914
84883W        W51424  37.099  40.932  11.549
84884W        W51425  31.464  41.341  14.507
84885W        W51426  14.520   3.670  14.621
84886W        W51427  25.633  39.808  14.531
84887W        W51428   4.651  38.350  10.615
84888W        W51429  36.347  40.523   3.556
84889W        W51430  31.669  28.721  12.740
84890W        W51431   7.743  21.410   0.922
84891W        W51432   3.497  25.078  11.621
84892W        W51433   5.631  30.988  13.544
84893W        W51434  26.695  12.048  10.608
84894W        W51435  23.227  14.838   3.447
84895W        W51436   0.719  41.619  10.334
84896W        W51437  23.745  21.147  12.654
84897W        W51438   2.698  34.402   0.637
84898W        W51439   3.887  21.931   0.853
84899W        W51440  30.266  39.998  12.583
84900W        W51441  15.623  20.729  12.077
84901W        W51442  32.144   6.253  10.970
84902W        W51443  41.143  36.677   4.107
84903W        W51444  37.522  33.617   4.607
84904W        W51445  33.596  14.792   4.379
84905W        W51446  27.160  37.942  10.995
84906W        W51447  25.166   4.239   3.665
84907W        W51448  33.063  14.204   0.379
84908W        W51449  12.828  26.505  12.424
84909W        W51450  18.195  32.078   2.305
84910W        W51451  42.363  16.775   5.015
84911W        W51452  18.749  38.763  14.289
84912W        W51453  43.755  38.639  12.090
84913W        W51454  21.529  39.233  13.119
84914W        W51455  25.627  44.749  10.835
84915W        W51456  11.908  34.642  10.682
84916W        W51457  23.975  18.727  14.796
84917W        W51458  38.274  44.823   4.924
84918W        W51459  27.772  24.274  11.577
84919W        W51460  41.103  27.106  14.558
84920W        W51461   4.829  16.155   4.541
84921W        W51462  39.121  19.373  13.908
84922W        W51463  26.581   8.179  14.813
84923W        W51464  18.645  14.867  12.549
84924W        W51465   1.914  12.692   3.215
84925W        W51466   6.806   1.493  10.059
84926W        W51467   3.772   4.298  12.229
84927W        W51468  37.891  33.355   0.850
84928W        W51469  24.065  35.851   2.681
84929W        W51470  13.793  30.092   4.618
84930W        W51471   4.822  35.505  12.162
84931W        W51472   3.450   7.688   0.735
84932W        W51473  44.362   0.913   0.409
84933W        W51474  32.054   0.869   4.567
84934W        W51475  16.606   3.665   4.700
84935W        W51476  44.771   6.256   4.172
84936W        W51477   2.013  21.708   2.264
84937W        W51478  41.401  44.500  10.862
84938W        W51479  34.847   5.923  10.268
84939W        W51480  17.827  31.545   2.697
84940W        W51481  14.612   4.227   3.237
84941W        W51482  34.494  43.911  13.396
84942W        W51483  27.234  27.883   1.786
84943W        W51484   1.031   3.799  13.807
84944W        W51485  20.502  25.241  13.377
84945W        W51486  21.691   4.983  11.612
84946W        W51487  18.923  35.527  13.395
84947W        W51488  30.037  38.346  12.804
84948W        W51489  22.678  32.496   1.933
84949W        W51490  19.550  20.612   4.606
84950W        W51491   6.484  15.010  13.230
84951W        W51492  26.442  14.853  11.937
84952W        W51493  38.447  30.218   3.971
84953W        W51494  33.833  27.013  14.857
84954W        W51495  17.834  30.764   5.469
84955W        W51496   8.301  28.086   2.261
84956W        W51497  44.183  41.450   2.785
84957W        W51498  40.353  13.957  13.121
84958W        W51499  18.962  36.417  14.785
84959W        W51500  19.002  24.737   2.367
84960W        W51501  39.285  24.268  14.248
84961W        W51502  42.113   8.024   3.396
84962W        W51503  27.607  39.532  12.356
84963W        W51504   1.477  30.590   1.331
84964W        W51505  26.159  41.198   0.033
84965W        W51506  28.881  14.316   2.667
84966W        W51507  29.506   3.347   0.736
84967W        W51508   8.380  38.842   3.974
84968W        W51509  20.279  22.383  13.171
84969W        W51510  15.390  43.121  13.040
84970W        W51511  17.314   5.827  11.043
84971W        W51512  28.504  25.244   2.612
84972W        W51513  25.009  14.247   2.588
84973W        W51514  40.274  28.271  14.670
84974W        W51515  10.235  43.725  13.441
84975W        W51516   0.462   3.233   0.346
84976W        W51517   1.732   5.256   3.644
84977W        W51518   9.238   4.802  12.333
84978W        W51519  11.012  12.653  12.910
84979W        W51520  41.259   0.351  11.871
84980W        W51521  28.882  33.042  12.208
84981W        W51522  16.587  16.683   0.347
84982W        W51523  37.774   0.026   1.790
84983W        W51524  24.001   9.143  14.376
84984W        W51525  16.618  22.553   2.405
84985W        W51526  36.948  29.096  12.533
84986W        W51527  24.688  44.851  13.412
84987W        W51528  34.726  20.241   1.189
84988W        W51529  33.945  32.105  13.347
84989W        W51530  33.958  36.548   2.470
84990W        W51531  20.113  17.973   2.796
84991W        W51532  15.695  33.669  10.703
84992W        W51533   5.376  29.679  12.913
84993W        W51534  15.887  13.222   4.078
84994W        W51535  38.962  26.422  10.518
84995W        W51536  31.162   4.700   0.870
84996W        W51537  39.015  34.076   3.411
84997W        W51538  11.734   5.206  14.291
84998W        W51539   8.522   2.006  11.357
84999W        W51540   2.113  37.454   4.410
85000W        W51541   1.774  23.983  10.564
85001W        W51542  40.878  39.431   4.990
85002W        W51543   9.679  32.581   4.203
85003W        W51544   4.193   0.786   2.774
85004W        W51545  33.521  42.501   3.439
85005W        W51546   1.735  13.886  13.448
85006W        W51547  20.554  18.636  13.272
85007W        W51548  13.087  26.920   2.873
85008W        W51549   4.272  25.128  14.306
85009W        W51550  22.315  38.965  11.209
85010W        W51551   9.785  42.943  13.502
85011W        W51552   4.835   6.940  10.744
85012W        W51553   0.932  29.580   1.943
85013W        W51554  33.761  12.411   5.606
85014W        W51555  19.742  14.791   2.094
85015W        W51556  28.455  14.363  10.679
85016W        W51557  28.757   5.736   2.826
85017W        W51558   3.815  11.719  11.573
85018W        W51559  28.188  19.855  10.635
85019W        W51560  36.741   5.294  13.526
85020W        W51561  30.503  16.656  14.141
85021W        W51562  35.033  30.068   1.318
85022W        W51563  13.820  30.262  11.137
85023W        W51564  42.502  42.525   1.478
85024W        W51565   2.318  16.764   2.274
85025W        W51566  32.993   7.275   2.398
85026W        W51567   8.269  44.310   1.760
85027W        W51568  41.367  16.755  10.922
85028W        W51569  25.768  41.960   3.167
85029W        W51570  39.091   2.457  13.543
85030W        W51571   2.799   6.864  13.474
85031W        W51572  33.595  14.079  14.929
85032W        W51573  34.070   4.676   0.211
85033W        W51574   3.529   7.361  10.108
85034W        W51575  17.597  28.448  10.909
85035W        W51576  10.338  29.373   1.465
85036W        W51577  33.098  13.973  12.065
85037W        W51578  22.281  26.364   2.774
85038W        W51579  18.514  13.678   0.856
85039W        W51580  18.146  31.002  10.397
85040W        W51581  13.537  39.899  10.704
85041W        W51582  30.367   6.800  13.943
85042W        W51583  27.137   3.788  10.677
85043W        W51584   6.013  44.780   2.139
85044W        W51585  13.566  13.831  12.770
85045W        W51586  14.344  34.499  14.364
85046W        W51587  18.749  22.029  12.454
85047W        W51588  38.836  20.928  13.412
85048W        W51589  25.176   9.744   4.516
85049W        W51590  34.063  26.323   4.390
85050W        W51591  39.906   6.208   1.437
85051W        W51592  38.017  33.989  10.604
85052W        W51593  20.608  22.254   0.850
85053W        W51594  44.040  33.486  13.336
85054W        W51595   9.772   0.053   1.157
85055W        W51596  22.244  30.750  10.581
85056W        W51597  20.752  23.395  12.117
85057W        W51598   7.390  19.240   0.460
85058W        W51599   0.045  38.634   4.005
85059W        W51600  39.327  41.354   3.178
85060W        W51601  42.770  34.134  14.507
85061W        W51602   3.918  43.956   2.738
85062W        W51603   0.885  40.998   1.224
85063W        W51604  43.152   5.814   2.258
85064W        W51605  32.501  19.390   5.004
85065W        W51606  34.077  24.709   3.702
85066W        W51607  29.985  44.589  12.337
85067W        W51608  11.195  42.781   1.981
85068W        W51609  39.869  30.116   2.759
85069W        W51610   3.396  10.314   2.142
85070W        W51611  38.442  15.871  13.826
85071W        W51612  39.809  24.301  12.107
85072W        W51613  28.545  33.886  14.971
85073W        W51614   7.371  24.016  10.612
85074W        W51615  11.069  23.973   2.829
85075W        W51616  27.742  12.110   9.913
85076W        W51617  33.876   5.522   0.590
85077W        W51618  20.950  12.389  11.227
85078W        W51619  24.983  39.006   3.234
85079W        W51620  40.014  16.013   1.608
85080W        W51621  21.062   5.251  13.416
85081W        W51622  43.190  39.491  13.495
85082W        W51623   3.512  26.254   2.674
85083W        W51624   9.354  43.266   1.835
85084W        W51625  21.528  20.328   0.190
85085W        W51626  37.381  31.003  14.576
85086W        W51627  31.112  38.262  10.630
85087W        W51628  43.513  36.429   0.824
85088W        W51629   4.332   6.811   2.340
85089W        W51630  28.724   4.279   0.842
85090W        W51631   7.166  23.453   4.419
85091W        W51632  21.610  38.041   3.676
85092W        W51633  36.797  16.212  10.793
85093W        W51634   5.892   4.974  13.835
85094W        W51635   7.224  38.012  13.956
85095W        W51636   8.713  13.726  13.834
85096W        W51637  11.874  37.909  11.058
85097W        W51638  30.592   0.892  12.400
85098W        W51639   1.472  42.862   0.329
85099W        W51640  12.059  42.372  12.019
85100W        W51641  22.683   3.416  11.524
85101W        W51642  22.311   8.073   9.408
85102W        W51643  37.627   2.465   3.640
85103W        W51644  44.601  12.277  14.913
85104W        W51645  32.972  25.687  13.480
85105W        W51646  23.411   9.939   2.273
85106W        W51647  26.555  20.999  10.492
85107W        W51648  37.596   8.363   0.710
85108W        W51649  25.783   5.743   3.199
85109W        W51650  11.617   1.676   1.330
85110W        W51651  19.583  44.237  12.950
85111W        W51652  23.957   3.177  10.458
85112W        W51653  28.589  39.952  11.335
85113W        W51654  24.006   1.271   2.399
85114W        W51655  36.059   1.185  11.130
85115W        W51656  14.056  27.481  11.164
85116W        W51657   6.621  32.593  13.318
85117W        W51658  23.493  17.160   0.921
85118W        W51659  11.150  32.247  12.915
85119W        W51660  34.423   3.814   2.806
85120W        W51661  31.545  29.191  14.188
85121W        W51662  35.595  30.410   0.276
85122W        W51663  36.456  28.142   2.164
85123W        W51664  37.076   8.409   1.643
85124W        W51665  37.793  14.679   1.639
85125W        W51666  26.774  43.977   3.543
85126W        W51667  23.944  43.697   3.011
85127W        W51668  43.060  38.817  12.648
85128W        W51669   2.262  30.373   1.874
85129W        W51670  40.084  24.649   4.499
85130W        W51671  43.450   2.231  14.751
85131W        W51672   4.163  33.246   2.158
85132W        W51673  16.173  35.887  14.479
85133W        W51674  39.747  44.966  14.893
85134W        W51675  44.462  13.493   0.746
85135W        W51676  21.266  22.733   1.930
85136W        W51677  44.896   4.908   4.868
85137W        W51678  24.533   0.191  12.118
85138W        W51679  17.479  12.322  11.629
85139W        W51680   3.950   6.286  13.426
85140W        W51681  14.191   6.476  11.062
85141W        W51682  39.141  30.018   2.373
85142W        W51683  33.106  26.434  13.100
85143W        W51684  24.431   0.567   2.175
85144W        W51685  44.748  19.098   4.154
85145W        W51686  27.432  30.208  11.332
85146W        W51687  23.613  36.327  13.047
85147W        W51688  44.731  26.965  14.012
85148W        W51689  38.506  12.900   4.575
85149W        W51690  12.420  40.541  11.833
85150W        W51691  43.922  18.506  14.000
85151W        W51692  33.616  27.517   0.751
85152W        W51693   1.427  31.604   1.360
85153W        W51694  23.494  28.615  14.430
85154W        W51695  19.202   0.035   3.019
85155W        W51696  36.205  26.919   0.416
85156W        W51697  12.298  13.247   1.189
85157W        W51698  35.307  21.639   2.853
85158W        W51699   6.342  26.956  14.747
85159W        W51700  32.984  22.034  13.919
85160W        W51701   8.503  41.574  12.003
85161W        W51702  38.489  14.326   2.739
85162W        W51703   2.440  41.839  11.742
85163W        W51704   5.937  12.726   1.658
85164W        W51705  30.003  35.887  10.610
85165W        W51706  21.566  38.852   3.184
85166W        W51707  28.110  22.678  10.643
85167W        W51708  38.918  29.835  10.795
85168W        W51709  35.046  10.286   4.216
85169W        W51710  34.711  27.937  11.069
85170W        W51711  39.911  19.807   2.388
85171W        W51712  25.137   4.211   0.621
85172W        W51713  37.454   1.233  12.409
85173W        W51714  15.178  32.608  10.975
85174W        W51715  28.358  40.440   1.249
85175W        W51716  34.424  28.601  13.340
85176W        W51717  26.036  41.002  11.135
85177W        W51718  26.289  43.010  13.882
85178W        W51719   3.978  40.460  11.190
85179W        W51720  41.154  41.472  13.517
85180W        W51721   6.490  18.289  11.127
85181W        W51722  12.061  21.793  14.856
85182W        W51723   6.636  18.933   2.179
85183W        W51724   7.622   3.699  12.033
85184W        W51725  12.616   5.385   0.412
85185W        W51726   0.731  13.506  12.154
85186W        W51727  33.917  13.981  10.132
85187W        W51728  15.220  29.734  13.468
85188W        W51729  10.266   4.807  12.522
85189W        W51730  22.966   4.989   0.016
85190W        W51731   9.804   1.206  14.036
85191W        W51732  39.364   0.492  12.511
85192W        W51733  33.410   4.737   0.453
85193W        W51734  18.141  18.923  11.103
85194W        W51735   6.617  19.339  11.961
85195W        W51736  44.511  42.745  12.501
85196W        W51737  28.400  31.092  11.542
85197W        W51738   5.981  39.411  10.048
85198W        W51739  21.270   4.934   0.452
85199W        W51740   4.158   9.263   3.827
85200W        W51741  21.812  27.975  13.985
85201W        W51742   5.505   4.285  11.465
85202W        W51743   6.259  26.586   3.232
85203W        W51744  20.609   3.190  13.160
85204W        W51745  14.168  16.639  14.369
85205W        W51746   1.933   5.158  10.617
85206W        W51747   0.856  30.710  13.951
85207W        W51748  13.531   9.593   1.631
85208W        W51749   0.866  16.615   3.260
85209W        W51750  38.623  13.184  12.669
85210W        W51751   2.253  15.064   3.302
85211W        W51752  28.571   0.315  10.730
85212W        W51753   2.181   6.227   3.737
85213W        W51754  28.937   7.913  10.779
85214W        W51755  42.701   5.849  10.704
85215W        W51756   0.370  16.145  12.616
85216W        W51757  44.827  11.119   0.057
85217W        W51758  39.964  31.035   1.291
85218W        W51759  41.947  39.084  11.325
85219W        W51760  30.891  26.110  12.002
85220W        W51761  15.059  42.610   3.543
85221W        W51762  20.877  25.902   2.793
85222W        W51763  37.170   3.961  13.865
85223W        W51764  25.522  34.591   4.226
85224W        W51765  32.453  31.004  14.064
85225W        W51766  25.156   0.974  11.001
85226W        W51767  10.771  18.730   0.871
85227W        W51768   8.834   5.645  13.240
85228W        W51769  39.918  17.893   2.324
85229W        W51770  17.755  18.664  12.500
85230W        W51771  20.519  21.178  13.121
85231W        W51772  38.628  40.586   2.874
85232W        W51773  14.764   5.443   3.700
85233W        W51774  42.350  23.180  14.350
85234W        W51775   4.154  26.226  12.668
85235W        W51776   8.293  36.454  10.113
85236W        W51777  44.856  29.093  12.060
85237W        W51778   4.826  39.765   0.442
85238W        W51779  13.531  37.769   0.065
85239W        W51780   5.978  43.484   3.713
85240W        W51781   6.851  43.377   1.735
85241W        W51782  43.020   7.197  14.119
85242W        W51783  16.224   8.250   4.419
85243W        W51784   5.051  34.055   2.687
85244W        W51785  22.998  41.286  14.365
85245W        W51786  36.645  11.727  10.335
85246W        W51787  35.462  22.644  14.552
85247W        W51788   7.951   4.898   0.666
85248W        W51789  18.230  40.504  12.388
85249W        W51790  33.698   3.920   4.715
85250W        W51791  20.466  44.977  13.796
85251W        W51792  37.781  24.527   1.312
85252W        W51793  26.236  25.186   2.440
85253W        W51794  31.419   8.217   1.896
85254W        W51795   5.757  21.415  14.360
85255W        W51796  40.500   2.786  12.491
85256W        W51797   5.666   9.069   0.654
85257W        W51798  43.893  41.866  10.434
85258W        W51799  40.413  20.048   4.036
85259W        W51800  20.605  43.398   1.208
85260W        W51801  31.180  39.299   2.294
85261W        W51802  26.083   7.231   1.331
85262W        W51803   6.462  29.605  12.926
85263W        W51804  35.919   3.618   4.979
85264W        W51805  31.543  34.362  12.452
85265W        W51806  32.036   2.438   1.415
85266W        W51807   6.160   0.992  12.123
85267W        W51808  27.410  39.902   0.316
85268W        W51809  43.095  40.678   4.066
85269W        W51810  40.456  32.589  10.990
85270W        W51811   7.384  36.014  10.076
85271W        W51812   2.967   4.225  13.358
85272W        W51813  18.686  28.755  12.013
85273W        W51814  29.464  44.398  14.392
85274W        W51815  11.355  36.891   4.750
85275W        W51816   6.759   4.680   3.925
85276W        W51817  23.160  41.909  14.017
85277W        W51818  36.136  11.105  12.897
85278W        W51819  25.752  22.006   0.868
85279W        W51820   5.767  23.464   1.642
85280W        W51821  18.757  14.339  13.811
85281W        W51822  36.868  23.749  12.954
85282W        W51823  13.089   3.439  13.365
85283W        W51824   9.259   8.256   1.184
85284W        W51825  35.941  31.364  14.745
85285W        W51826  19.624  27.884  14.440
85286W        W51827  42.675  24.295   0.820
85287W        W51828  43.543  31.506   4.287
85288W        W51829   4.528  23.501   4.905
85289W        W51830   1.844  10.257   4.080
85290W        W51831   6.426  42.460   1.396
85291W        W51832  34.917  21.776   1.435
85292W        W51833  27.020  16.316  11.453
85293W        W51834   5.361  31.989  12.638
85294W        W51835  10.183  20.634  13.918
85295W        W51836  20.110  41.025  10.706
85296W        W51837  39.568  25.604   4.447
85297W        W51838   0.710  10.707  10.917
85298W        W51839  10.143  11.350   3.036
85299W        W51840  24.521  21.822   2.240
85300W        W51841   7.296  38.801  13.395
85301W        W51842  29.862   8.516  12.431
85302W        W51843  29.529   4.588  10.668
85303W        W51844  23.631  44.458  14.521
85304W        W51845  17.312  17.823   1.584
85305W        W51846  13.706   1.332   3.270
85306W        W51847  20.046  38.841   0.378
85307W        W51848  27.833  28.009   2.916
85308W        W51849   7.419  30.465   0.026
85309W        W51850   8.629   8.194  13.650
85310W        W51851  41.050  14.193  14.918
85311W        W51852  38.131  15.085   3.320
85312W        W51853  26.154   4.144   1.214
85313W        W51854   4.211  29.525   1.903
85314W        W51855  37.416  18.009   3.257
85315W        W51856   9.679  32.994  13.011
85316W        W51857  15.897  12.142   0.399
85317W        W51858  39.841   0.719   0.071
85318W        W51859  23.244  34.862  10.716
85319W        W51860  26.976  27.765  12.445
85320W        W51861   5.680   8.348   0.529
85321W        W51862   4.379  38.716  10.832
85322W        W51863  38.784  16.890   2.385
85323W        W51864   9.692  40.984  13.022
85324W        W51865  38.543  30.924   0.669
85325W        W51866  39.184  24.672   2.762
85326W        W51867   2.167  18.995  14.130
85327W        W51868  43.262  38.460  10.819
85328W        W51869  28.640   9.350   2.403
85329W        W51870   5.243  19.039  14.094
85330W        W51871  10.644  35.903  10.759
85331W        W51872   2.454  11.407  13.435
85332W        W51873   8.217  27.444  13.135
85333W        W51874  13.331  18.843  14.820
85334W        W51875  37.423  41.578   0.453
85335W        W51876  43.646   8.181   2.242
85336W        W51877  18.101  15.577   3.137
85337W        W51878  35.182  10.740   4.538
85338W        W51879  36.315  13.321   2.016
85339W        W51880  11.314  12.058  13.565
85340W        W51881  13.081   8.201  10.749
85341W        W51882  36.069   2.770   1.133
85342W        W51883   6.725  25.437   0.455
85343W        W51884  39.572  44.743  13.277
85344W        W51885  17.785  33.050   4.358
85345W        W51886  31.563  17.709   1.298
85346W        W51887  22.139   5.925   1.628
85347W        W51888  13.547  37.854  11.512
85348W        W51889  27.821  23.692  10.748
85349W        W51890  31.817   4.763   0.292
85350W        W51891  41.807  30.572  10.767
85351W        W51892  14.800  28.539  12.964
85352W        W51893  29.674  41.915  10.671
85353W        W51894  43.793   8.972   3.336
85354W        W51895   8.698  12.241  12.535
85355W        W51896   8.025  42.466  10.683
85356W        W51897   8.707   0.743  13.039
85357W        W51898  26.603  36.929   0.422
85358W        W51899  39.956  31.341   4.652
85359W        W51900  28.041  31.625   2.360
85360W        W51901  34.949   3.773  12.285
85361W        W51902  18.347  17.083  11.917
85362W        W51903  28.703   7.693  12.060
85363W        W51904  39.022   0.957  13.983
85364W        W51905  25.748  32.406  12.331
85365W        W51906  42.735  34.948   2.740
85366W        W51907   3.264   5.191  13.373
85367W        W51908  21.459  39.016   2.696
85368W        W51909   0.381  41.878  11.110
85369W        W51910  33.985  41.259  14.380
85370W        W51911  19.703  35.694   0.485
85371W        W51912  20.089  19.623  14.005
85372W        W51913  23.006  19.702   2.740
85373W        W51914  37.427  17.328   4.608
85374W        W51915  23.650  37.629   4.198
85375W        W51916   7.294  28.004  10.490
85376W        W51917  16.780  32.612  12.392
85377W        W51918  15.187  22.094   3.795
85378W        W51919  26.928  34.684  12.973
85379W        W51920  30.729  31.618  12.721
85380W        W51921  12.655  21.752  14.394
85381W        W51922  23.602  18.641   1.176
85382W        W51923  29.998  33.358  12.058
85383W        W51924  18.637  15.738   2.320
85384W        W51925   5.925  37.576  13.240
85385W        W51926  36.557  43.350  14.292
85386W        W51927  42.421  42.928  10.707
85387W        W51928  20.064   1.120  14.546
85388W        W51929   6.320  44.179   1.495
85389W        W51930   3.446  30.042   3.514
85390W        W51931   8.609   5.916   1.342
85391W        W51932  26.050  24.441   2.711
85392W        W51933  30.372  36.672  10.841
85393W        W51934  31.629  42.848  13.383
85394W        W51935  21.451  24.460   3.660
85395W        W51936  22.721  26.706  14.380
85396W        W51937  28.721  28.944  12.082
85397W        W51938  37.348   8.932  11.612
85398W        W51939  25.931  44.509  13.886
85399W        W51940   9.734   8.135  11.406
85400W        W51941   1.057   3.131  13.112
85401W        W51942  40.330   4.152   4.146
85402W        W51943   0.397  25.110  10.637
85403W        W51944  16.527   2.764  13.056
85404W        W51945  29.049  38.872  12.798
85405W        W51946   7.686  34.643   1.905
85406W        W51947  31.027  13.294  11.179
85407W        W51948   6.787  37.833  13.264
85408W        W51949  15.848  30.133  14.474
85409W        W51950  21.172  32.936   1.997
85410W        W51951   7.692  20.263  10.700
85411W        W51952  17.022   7.743  12.142
85412W        W51953  22.584  32.948   1.674
85413W        W51954  20.771  25.258  11.921
85414W        W51955  22.762  32.301   4.229
85415W        W51956  22.261  16.384   4.179
85416W        W51957   1.870  11.941  12.996
85417W        W51958  25.154  44.341  11.456
85418W        W51959  24.171  15.560  13.401
85419W        W51960  38.822   2.276   1.308
85420W        W51961  31.612  13.535   0.737
85421W        W51962  44.403   5.803   3.658
85422W        W51963  27.360  10.596   4.875
85423W        W51964  25.659  31.324   3.649
85424W        W51965   5.235  43.974  13.492
85425W        W51966  35.850  21.135  10.789
85426W        W51967  40.619  22.692  11.935
85427W        W51968  14.768  43.076   1.508
85428W        W51969  13.300   4.999   3.882
85429W        W51970  17.777  15.726  14.751
85430W        W51971   3.272  40.791  14.361
85431W        W51972  16.723  40.016  11.145
85432W        W51973   3.753   1.865  14.856
85433W        W51974   8.765  21.738  10.744
85434W        W51975  20.882  21.084   0.817
85435W        W51976  15.754   3.422   4.334
85436W        W51977  10.913  19.548  13.302
85437W        W51978  41.521  37.984   2.894
85438W        W51979  44.773  31.395   2.395
85439W        W51980  27.026  43.286   0.861
85440W        W51981  28.306  25.745   4.153
85441W        W51982  44.766   6.733  10.688
85442W        W51983   7.242  26.395  13.425
85443W        W51984  44.812  35.682   2.813
85444W        W51985  33.536  38.984  13.517
85445W        W51986   5.360   4.414   3.756
85446W        W51987   2.347  32.116   1.229
85447W        W51988  43.602  11.817  12.012
85448W        W51989  40.050  12.328  13.504
85449W        W51990  18.606  14.746  14.763
85450W        W51991  37.457  11.933  13.273
85451W        W51992  43.811   9.432  12.173
85452W        W51993  11.758   3.313   2.283
85453W        W51994  35.423  34.976   2.709
85454W        W51995  16.522   1.597  12.073
85455W        W51996  19.270  33.557  14.437
85456W        W51997  30.292  20.011  11.583
85457W        W51998  12.716  43.486   2.959
85458W        W51999  32.533  35.660   2.993
85459W        W52000  14.755  13.241   0.211
85460W        W52001  32.346  32.494  11.167
85461W        W52002  24.552  40.685   3.744
85462W        W52003   1.435  14.853   4.719
85463W        W52004   1.445  40.384   1.772
85464W        W52005  35.351   0.473  14.389
85465W        W52006  18.014   0.380   2.882
85466W        W52007  34.559  40.278   4.450
85467W        W52008  12.356   3.968  13.054
85468W        W52009  28.062   0.473  10.586
85469W        W52010   0.489  34.932  14.164
85470W        W52011  11.204  36.848  14.476
85471W        W52012  42.807  31.779   5.142
85472W        W52013   8.663  32.321  10.770
85473W        W52014  43.494  20.735   1.931
85474W        W52015  14.560  13.769  13.330
85475W        W52016  12.314  23.484  12.045
85476W        W52017   1.378  11.897  10.701
85477W        W52018   1.400  12.719   4.008
85478W        W52019  28.048   8.025  11.950
85479W        W52020  43.961   6.876   2.080
85480W        W52021  10.468  33.866  11.529
85481W        W52022  30.249  27.024   3.320
85482W        W52023  13.494  43.311   3.902
85483W        W52024   7.718  13.801   2.645
85484W        W52025   2.995   9.373  11.740
85485W        W52026  42.939  21.839  11.486
85486W        W52027  31.093  43.810   2.739
85487W        W52028  15.752  43.732   4.098
85488W        W52029  28.096  20.869  10.178
85489W        W52030  34.972  41.759   2.186
85490W        W52031  29.329   0.463  10.245
85491W        W52032   2.468   7.896   0.311
85492W        W52033  25.192  44.477   2.156
85493W        W52034  42.775  41.029   4.248
85494W        W52035   1.881  39.552   0.982
85495W        W52036  24.319   7.159  11.462
85496W        W52037   0.012  26.034   1.401
85497W        W52038  35.843  36.872  13.940
85498W        W52039  16.790  10.355   5.102
85499W        W52040  38.486   7.627   1.489
85500W        W52041   9.287  27.446  10.985
85501W        W52042  31.063   4.013   4.325
85502W        W52043  10.906  21.469  13.785
85503W        W52044  40.085  29.493   3.362
85504W        W52045  30.835  43.824  11.822
85505W        W52046   7.392   5.840   4.152
85506W        W52047   2.935  33.466  12.941
85507W        W52048  13.597  20.660   2.138
85508W        W52049  41.509   2.537  14.805
85509W        W52050  23.670  39.016   4.741
85510W        W52051  38.614  20.463   0.596
85511W        W52052   9.687  16.100   4.053
85512W        W52053  18.291  22.155   4.601
85513W        W52054   8.971  23.869   3.221
85514W        W52055  36.693   1.985   4.440
85515W        W52056  25.169  26.964  10.205
85516W        W52057  31.105  27.713   3.305
85517W        W52058  31.950  28.953   5.042
85518W        W52059  20.430   3.341   3.634
85519W        W52060  38.789  44.391   4.738
85520W        W52061  40.756  21.494  12.450
85521W        W52062  34.383  19.049  12.484
85522W        W52063  40.892  18.072  12.199
85523W        W52064  32.174  20.656   0.932
85524W        W52065  31.117  23.818   3.080
85525W        W52066  33.153  42.906  10.606
85526W        W52067  42.181  28.947  11.805
85527W        W52068   5.574   4.955  12.957
85528W        W52069   8.913  22.501  11.175
85529W        W52070  43.430  37.358  12.744
85530W        W52071   1.656  15.394   4.911
85531W        W52072  30.611  22.100   1.779
85532W        W52073  24.074  22.052  14.520
85533W        W52074  41.881  13.132   4.735
85534W        W52075  36.171  24.219   2.222
85535W        W52076  44.212  26.686   4.436
85536W        W52077  20.460  28.219   3.689
85537W        W52078  24.942  37.706  13.899
85538W        W52079   6.286   0.271  14.607
85539W        W52080  13.544  42.203   0.802
85540W        W52081  26.178   6.991   2.786
85541W        W52082   4.640  43.558  11.442
85542W        W52083  20.394  42.343  14.377
85543W        W52084  16.620  32.165  12.186
85544W        W52085  39.989  20.303  14.507
85545W        W52086  21.833  23.536  10.644
85546W        W52087  33.815   7.075   0.795
85547W        W52088  12.685  43.681   3.689
85548W        W52089  42.575  11.888   1.331
85549W        W52090   1.459  19.778  14.432
85550W        W52091   2.757   9.341  13.470
85551W        W52092  17.206  16.452  12.531
85552W        W52093  26.930  14.645  14.415
85553W        W52094  40.434   2.968   4.552
85554W        W52095   8.147   9.271  13.522
85555W        W52096  42.006   7.125  10.671
85556W        W52097  22.680  41.296  12.583
85557W        W52098  16.256  11.247  13.185
85558W        W52099  42.080  38.595  12.184
85559W        W52100  16.880   9.283  12.112
85560W        W52101  13.678  27.414   1.505
85561W        W52102   9.047  21.996  11.125
85562W        W52103  30.141  23.836  12.253
85563W        W52104  38.452  22.458   1.853
85564W        W52105  22.627  32.985  10.074
85565W        W52106  18.121  39.838   2.874
85566W        W52107  31.365  38.356   4.366
85567W        W52108   7.869  11.897  11.273
85568W        W52109  24.352  13.593   4.871
85569W        W52110  26.634  16.627  13.965
85570W        W52111   3.421  22.740   0.859
85571W        W52112   2.871  33.552   1.917
85572W        W52113  44.850   4.462   1.727
85573W        W52114  23.054  32.992  14.445
85574W        W52115  14.083   9.975   0.988
85575W        W52116   1.437  38.391  12.497
85576W        W52117  13.559  31.443  14.315
85577W        W52118  34.361   8.292  14.635
85578W        W52119  31.524   6.169   0.143
85579W        W52120  18.383  39.498   0.309
85580W        W52121  34.911  34.018  11.628
85581W        W52122   0.350  42.521  13.000
85582W        W52123  32.581   6.476  11.079
85583W        W52124  34.600  32.670   0.977
85584W        W52125  31.461  11.198  13.557
85585W        W52126   9.001  27.139  11.304
85586W        W52127  23.015  38.230  12.556
85587W        W52128  23.382  26.938  11.923
85588W        W52129  37.184  35.311   3.689
85589W        W52130  16.136   0.937   1.969
85590W        W52131   0.398  13.866   1.971
85591W        W52132  11.332  32.031   0.809
85592W        W52133  23.628  43.991   0.404
85593W        W52134  27.002  38.585  11.976
85594W        W52135  24.017  21.041  14.005
85595W        W52136  44.387   6.774   0.668
85596W        W52137  33.600  27.149   4.008
85597W        W52138  44.909   5.468   1.493
85598W        W52139  34.170  13.128   0.302
85599W        W52140  20.250  44.427   4.885
85600W        W52141   9.994  34.351  14.080
85601W        W52142   0.430  40.141   1.702
85602W        W52143  27.513   7.600  12.696
85603W        W52144  29.335  40.404  14.405
85604W        W52145  13.926  27.796   1.743
85605W        W52146  22.427   1.999   0.992
85606W        W52147  41.829  27.067  13.148
85607W        W52148  34.003  15.661   3.618
85608W        W52149   0.181  27.169   2.367
85609W        W52150  40.504  16.177   2.925
85610W        W52151  17.328  17.890   1.074
85611W        W52152  30.530  28.915  14.368
85612W        W52153  35.042  31.424   2.326
85613W        W52154  30.035  20.469  14.962
85614W        W52155  41.108  28.078   1.868
85615W        W52156  10.532   6.218   1.069
85616W        W52157  42.479   2.970  11.123
85617W        W52158  15.172  16.668  13.721
85618W        W52159  23.686   1.338  12.828
85619W        W52160  37.033  37.984  11.206
85620W        W52161  44.866  42.585   3.832
85621W        W52162   3.563  23.943  10.288
85622W        W52163   3.733  43.723  14.411
85623W        W52164  37.776   2.968  11.153
85624W        W52165  44.487  36.408  13.820
85625W        W52166  34.666   7.523   0.887
85626W        W52167  25.998  21.251  11.485
85627W        W52168  13.579  21.959  14.046
85628W        W52169  11.434  14.159   0.107
85629W        W52170  44.712  27.482  13.968
85630W        W52171  39.963  31.825  12.761
85631W        W52172   1.464  19.690   1.961
85632W        W52173   4.882  28.809   1.148
85633W        W52174   6.217  36.976  11.908
85634W        W52175   6.830  15.218  14.983
85635W        W52176  36.396  42.512   2.318
85636W        W52177  17.680  17.329   0.390
85637W        W52178   2.271  23.177   3.569
85638W        W52179  34.033  43.417  10.759
85639W        W52180  34.860   0.505  13.035
85640W        W52181  22.198  15.858   2.395
85641W        W52182  38.577  33.463  14.476
85642W        W52183  15.566  43.268  10.670
85643W        W52184  10.156   1.052   2.255
85644W        W52185  31.632   6.445   1.064
85645W        W52186  43.719  26.421   0.373
85646W        W52187   7.175  28.523   3.501
85647W        W52188  14.575  28.898  13.888
85648W        W52189   4.231   0.248  10.764
85649W        W52190  25.642   2.810  14.738
85650W        W52191  19.047  20.509   0.723
85651W        W52192  34.225  40.945  12.956
85652W        W52193  15.067  34.923   5.025
85653W        W52194  11.325   7.764   4.572
85654W        W52195  34.783  15.183   0.488
85655W        W52196  25.590   9.707  12.142
85656W        W52197  42.428  30.992  14.883
85657W        W52198  40.811   7.215   4.959
85658W        W52199  26.248  44.207   4.645
85659W        W52200   6.279   6.228   2.335
85660W        W52201  28.170   3.550  13.389
85661W        W52202   7.645  16.201   0.703
85662W        W52203  36.586   0.787   4.563
85663W        W52204   9.196  28.163   1.306
85664W        W52205   3.932   0.795   9.771
85665W        W52206  41.862  11.865   1.728
85666W        W52207  35.327  31.315   2.820
85667W        W52208  44.477  16.755  13.863
85668W        W52209  42.754   2.745  14.348
85669W        W52210  19.244   8.677  11.878
85670W        W52211   1.951  29.672  10.342
85671W        W52212   5.825  22.819  14.766
85672W        W52213  11.024  28.255   1.850
85673W        W52214  35.092   0.467  13.931
85674W        W52215  16.914  23.702  15.000
85675W        W52216   8.856  17.145  11.257
85676W        W52217  27.453   1.664   2.704
85677W        W52218  13.216  33.929  12.462
85678W        W52219  37.798   3.291   3.095
85679W        W52220  35.019   9.481   3.680
85680W        W52221   3.416   2.437   1.727
85681W        W52222  31.758   7.277   1.976
85682W        W52223  12.592  33.454   2.654
85683W        W52224  28.658  29.766   4.642
85684W        W52225   5.823  43.601   0.782
85685W        W52226  11.812   6.684  11.582
85686W        W52227  38.887  44.409  12.591
85687W        W52228  17.351  44.233  14.412
85688W        W52229  11.604  44.596  12.189
85689W        W52230  26.999  22.628   0.981
85690W        W52231  33.897  36.288  13.467
85691W        W52232  13.692  35.298  14.361
85692W        W52233   1.844   9.722   2.625
85693W        W52234  32.582  41.602   4.418
85694W        W52235  24.985  29.139  10.687
85695W        W52236  29.518  22.633   2.373
85696W        W52237   2.660  26.178  10.642
85697W        W52238  17.547   2.839  13.007
85698W        W52239  34.373   2.351  11.217
85699W        W52240  19.325  38.496   3.259
85700W        W52241  11.122   7.783   0.247
85701W        W52242   6.646  15.729   2.743
85702W        W52243  27.180  11.454  11.029
85703W        W52244   8.128   0.806   3.802
85704W        W52245  29.694  41.378   4.970
85705W        W52246  25.952  13.629  13.333
85706W        W52247  26.121  17.377  11.711
85707W        W52248  44.455  13.368  14.467
85708W        W52249  44.972   8.440  11.501
85709W        W52250  34.101  36.947  12.828
85710W        W52251  36.131  43.229   3.925
85711W        W52252  42.201   8.113   1.989
85712W        W52253   6.651  38.064  14.269
85713W        W52254  19.603  16.217  13.944
85714W        W52255  14.233  25.930   0.498
85715W        W52256  21.056  37.638   0.792
85716W        W52257  15.051  34.135  11.276
85717W        W52258  10.876   0.852   4.126
85718W        W52259   5.870  22.366  12.065
85719W        W52260  19.064   3.926  12.015
85720W        W52261   0.315  14.323  11.987
85721W        W52262   6.363  18.371  13.292
85722W        W52263   1.322  33.820  14.302
85723W        W52264  36.336  36.872  12.477
85724W        W52265  25.692  29.829   4.846
85725W        W52266   7.354  39.893   1.802
85726W        W52267  16.229  22.609  10.970
85727W        W52268   0.499   4.851  13.526
85728W        W52269  23.571  13.770  12.967
85729W        W52270  34.401  37.056   2.273
85730W        W52271   0.404  25.726   2.232
85731W        W52272  30.637  20.669  10.757
85732W        W52273   8.324   3.698  12.715
85733W        W52274  20.089  33.398   0.958
85734W        W52275   0.281  15.378  13.547
85735W        W52276  35.154  25.145   1.824
85736W        W52277  23.060  37.159   2.416
85737W        W52278   1.427  38.785  14.488
85738W        W52279  32.106  15.581  13.561
85739W        W52280  20.805  12.720   0.029
85740W        W52281  28.370  30.080  11.538
85741W        W52282  14.036  40.774  11.601
85742W        W52283  44.470  19.961  11.885
85743W        W52284  34.646  42.064   1.914
85744W        W52285  43.423  44.029  11.451
85745W        W52286  43.423  17.329  13.015
85746W        W52287   2.358  28.722  11.675
85747W        W52288   4.936  42.764  14.091
85748W        W52289  41.953   8.311  13.847
85749W        W52290  28.685  31.315  13.630
85750W        W52291  11.688  38.076   1.493
85751W        W52292  41.369  17.180   4.233
85752W        W52293   0.286  34.870   4.608
85753W        W52294  42.300  14.260  14.289
85754W        W52295  40.780  20.217   3.676
85755W        W52296  17.534  20.158  12.484
85756W        W52297  12.702   2.453   4.212
85757W        W52298  40.512  35.716   1.280
85758W        W52299  23.561  28.046  11.657
85759W        W52300   8.854   0.801   4.211
85760W        W52301  19.179  43.461   4.582
85761W        W52302  27.815  32.982  14.994
85762W        W52303  22.524   3.866  11.191
85763W        W52304  20.785  41.510   2.771
85764W        W52305  23.595  35.903  13.325
85765W        W52306  33.687   1.415   0.310
85766W        W52307   9.448  43.557  12.616
85767W        W52308  28.026  20.853  14.316
85768W        W52309  44.359  26.561   2.847
85769W        W52310  37.167  42.886   0.626
85770W        W52311  15.085   0.870   4.328
85771W        W52312  21.206  40.064   3.197
85772W        W52313  41.308  17.054  12.942
85773W        W52314  34.732  24.881  10.360
85774W        W52315   9.771   2.263  13.380
85775W        W52316  21.934   1.197   1.872
85776W        W52317  18.461  35.017  12.117
85777W        W52318  16.523  14.532   4.588
85778W        W52319   8.506   9.226  14.467
85779W        W52320  15.892  34.326  11.573
85780W        W52321  34.576  17.493  10.760
85781W        W52322  19.660  26.702  10.263
85782W        W52323  33.104   8.217  10.934
85783W        W52324  35.163  40.440  12.488
85784W        W52325  26.640  14.247  13.281
85785W        W52326  14.266  13.798   3.518
85786W        W52327   5.838  32.102  11.127
85787W        W52328   7.923  10.641  13.653
85788W        W52329  16.519  42.925   4.195
85789W        W52330  41.464  28.999   1.589
85790W        W52331   4.855   1.782  12.140
85791W        W52332   0.579   5.877   2.222
85792W        W52333   7.429  25.098   0.140
85793W        W52334  43.324  10.263  14.645
85794W        W52335  41.822  10.749  13.816
85795W        W52336  15.733  27.812  12.529
85796W        W52337  19.058  11.020   4.533
85797W        W52338  41.013  18.270  13.643
85798W        W52339  13.631  13.768   3.400
85799W        W52340   2.900  34.422  13.885
85800W        W52341   1.771  23.446  13.056
85801W        W52342  44.186   3.724  12.611
85802W        W52343  35.356  44.567  10.367
85803W        W52344  40.105  16.253   4.475
85804W        W52345  31.470   9.317  11.632
85805W        W52346   8.455  22.488  12.940
85806W        W52347  40.396  20.843   3.205
85807W        W52348  32.599  37.841   4.252
85808W        W52349  21.723  10.260  13.639
85809W        W52350   4.489  44.452  12.035
85810W        W52351  12.051  43.428   1.783
85811W        W52352  20.426  10.836   0.971
85812W        W52353  15.931  27.028  12.596
85813W        W52354  28.557   0.008  11.985
85814W        W52355   5.121  42.238  11.369
85815W        W52356  22.651  15.727  14.829
85816W        W52357  37.801   6.550   0.886
85817W        W52358   2.263  26.473  14.504
85818W        W52359  26.584  23.843  12.983
85819W        W52360  38.275  28.448  13.613
85820W        W52361  41.436   0.237   4.945
85821W        W52362   7.479  22.543   4.186
85822W        W52363  19.829  41.674   3.644
85823W        W52364  18.110   8.410  11.305
85824W        W52365   4.895  30.970   1.828
85825W        W52366   7.056  18.282   1.481
85826W        W52367   9.765  21.830   4.059
85827W        W52368  36.471  33.094  14.017
85828W        W52369  10.895  41.882   0.355
85829W        W52370  38.560  14.857   3.666
85830W        W52371  18.069  40.896   2.201
85831W        W52372  37.511  14.758   4.757
85832W        W52373  24.653  16.708  13.986
85833W        W52374  35.491  37.867   3.057
85834W        W52375  25.741  10.447   4.620
85835W        W52376  21.688   4.431   3.181
85836W        W52377  41.298  32.335   3.648
85837W        W52378  19.951   3.426   2.821
85838W        W52379   8.702  36.709  14.388
85839W        W52380  22.555  36.635  10.531
85840W        W52381  40.677  39.534   2.912
85841W        W52382  10.816  42.385  12.416
85842W        W52383  34.367  19.602   3.588
85843W        W52384  26.266  10.437   0.006
85844W        W52385  28.339  21.072   2.808
85845W        W52386  19.009   4.778   3.191
85846W        W52387  28.347  44.235  14.849
85847W        W52388   8.738  42.388  12.369
85848W        W52389   8.617  15.509  11.977
85849W        W52390  16.738  13.423   3.679
85850W        W52391  23.057  39.863   0.940
85851W        W52392  44.975  36.173   2.776
85852W        W52393   6.256  28.211  11.958
85853W        W52394   7.495  16.358   0.238
85854W        W52395   9.793  26.993  13.381
85855W        W52396   1.773  10.408  12.929
85856W        W52397  26.132  22.954   0.368
85857W        W52398  19.002  30.592  14.814
85858W        W52399  38.668  12.024  11.075
85859W        W52400  34.657  42.764  12.492
85860W        W52401  21.633  42.336  14.049
85861W        W52402  12.096  33.066   1.414
85862W        W52403  26.637  25.044   2.126
85863W        W52404  13.198  43.903   5.060
85864W        W52405  32.242  38.836  11.307
85865W        W52406  23.419  34.566  12.982
85866W        W52407  29.461  17.589   0.487
85867W        W52408   7.760   0.690   4.499
85868W        W52409  39.065  19.244   1.383
85869W        W52410  44.838   8.807   0.509
85870W        W52411   7.683  41.792   0.546
85871W        W52412   2.199   2.864  14.385
85872W        W52413  10.674   2.854   2.411
85873W        W52414  28.428  27.593   3.723
85874W        W52415  25.098  25.793   1.795
85875W        W52416  25.198  31.397   3.407
85876W        W52417  13.650  17.213  12.148
85877W        W52418  15.272  24.603  13.376
85878W        W52419  36.126  10.404   3.180
85879W        W52420  39.079  14.604  12.794
85880W        W52421  40.323   7.111   5.062
85881W        W52422  42.491   9.645   2.608
85882W        W52423  36.410   6.445   1.427
85883W        W52424  36.726  15.468   5.476
85884W        W52425  19.808  44.289   0.925
85885W        W52426  12.591   7.287   2.632
85886W        W52427   3.737  38.360   2.318
85887W        W52428   1.866  15.859   4.949
85888W        W52429   4.208  24.047   3.707
85889W        W52430  39.513  35.502   4.123
85890W        W52431   7.679  38.866  14.443
85891W        W52432  29.430  28.010   3.833
85892W        W52433  37.037  10.311  13.367
85893W        W52434  24.077  33.879   4.945
85894W        W52435  41.687  23.690   0.367
85895W        W52436   5.902   0.309   1.304
85896W        W52437   2.816   8.961  13.107
85897W        W52438  40.369  10.710  10.518
85898W        W52439  22.052   9.840  14.754
85899W        W52440  21.279  30.941  12.301
85900W        W52441   0.010  14.664   3.258
85901W        W52442  27.331  41.459   4.458
85902W        W52443  41.542  17.221   0.316
85903W        W52444  44.966  19.047   2.306
85904W        W52445  17.349  26.550  11.917
85905W        W52446  13.894  11.236   3.872
85906W        W52447  41.202  43.911   3.862
85907W        W52448  36.789  27.718   4.149
85908W        W52449  43.844   2.061   0.046
85909W        W52450  38.419  19.513  10.444
85910W        W52451  10.436  24.707  11.141
85911W        W52452  40.443  14.354  11.700
85912W        W52453   0.400  27.014  12.496
85913W        W52454   3.430  18.542  11.296
85914W        W52455  18.594  11.793   1.250
85915W        W52456  42.044  20.540   1.588
85916W        W52457  12.706   1.920  12.461
85917W        W52458  27.437  42.219   0.413
85918W        W52459  20.460  13.205   0.269
85919W        W52460   7.180  35.411   0.714
85920W        W52461  36.706  44.547  10.372
85921W        W52462  13.091   6.144   2.583
85922W        W52463  38.315  10.344  13.750
85923W        W52464  42.946  40.949  12.945
85924W        W52465  32.309  21.677   3.232
85925W        W52466  13.623  22.182   2.678
85926W        W52467  15.088  14.721   4.104
85927W        W52468  26.092   3.463   0.252
85928W        W52469   7.322  43.791   2.614
85929W        W52470  15.855  11.182   3.682
85930W        W52471   5.409   1.387  11.761
85931W        W52472  19.851  37.463  12.464
85932W        W52473  37.018   7.274   2.360
85933W        W52474  28.160  20.286   1.173
85934W        W52475  24.990   2.341  11.109
85935W        W52476  23.954   6.924  13.541
85936W        W52477  25.846  13.649   0.371
85937W        W52478  36.899  36.683  11.651
85938W        W52479  36.510  17.550   1.792
85939W        W52480  19.356  26.830   4.237
85940W        W52481  28.949   7.606  11.443
85941W        W52482  43.260  13.741   4.170
85942W        W52483  44.845   8.916   1.907
85943W        W52484  18.583   6.813  12.831
85944W        W52485  43.261   4.857   4.177
85945W        W52486   5.715  10.345  12.829
85946W        W52487   6.923  10.365  10.445
85947W        W52488   7.512  30.996   1.809
85948W        W52489  33.120  19.330   1.654
85949W        W52490  34.437  30.629  13.491
85950W        W52491   4.651   0.459   2.704
85951W        W52492  44.939  37.110  14.886
85952W        W52493  27.881  14.068  11.646
85953W        W52494  33.427  18.242  11.547
85954W        W52495  33.183  37.967   2.124
85955W        W52496  10.566  25.519  10.802
85956W        W52497  31.928   9.414  13.083
85957W        W52498  40.769   0.519  10.726
85958W        W52499   5.334  29.193   0.248
85959W        W52500  22.895  40.583  14.782
85960W        W52501  30.007   3.515   0.040
85961W        W52502  41.143  42.981   2.244
85962W        W52503  14.840  32.929  12.502
85963W        W52504  25.142  11.052  12.198
85964W        W52505  13.250  37.860   3.252
85965W        W52506  41.272  42.912  13.038
85966W        W52507  20.484  33.838   3.649
85967W        W52508  20.524  23.570  11.219
85968W        W52509   3.049   4.295  11.045
85969W        W52510  42.102  24.698   2.195
85970W        W52511  12.831  36.347   0.424
85971W        W52512   4.196  39.287   1.267
85972W        W52513  10.178   9.803   4.547
85973W        W52514  19.334  17.581   0.412
85974W        W52515   8.502   3.370  12.086
85975W        W52516  38.612  40.822   1.585
85976W        W52517   4.532  10.652   4.600
85977W        W52518  13.287  33.537   0.247
85978W        W52519   6.895  38.765  14.841
85979W        W52520  26.826  13.862   1.831
85980W        W52521  24.293  39.656  12.410
85981W        W52522   1.703  10.801   2.420
85982W        W52523  36.055  41.772   0.383
85983W        W52524  15.406  22.287  14.418
85984W        W52525  19.644   2.894  13.492
85985W        W52526  35.919  14.813  14.589
85986W        W52527   3.510  34.403  11.113
85987W        W52528  26.726  35.423   3.270
85988W        W52529   7.812  35.395  10.507
85989W        W52530  32.182   1.499   0.401
85990W        W52531  31.588  37.620  11.531
85991W        W52532  37.358  25.029   0.489
85992W        W52533  28.729  32.599   2.782
85993W        W52534  24.563  19.756  10.796
85994W        W52535  10.775  12.856   3.278
85995W        W52536  14.286   0.962   1.687
85996W        W52537  15.578  19.290   2.775
85997W        W52538  27.969  11.126  12.933
85998W        W52539  40.330  43.820  13.424
85999W        W52540  11.851  30.129   2.274
86000W        W52541  17.354   9.667   3.479
86001W        W52542  43.533  18.297  14.287
86002W        W52543   4.053  31.756  14.870
86003W        W52544  28.189  24.934   1.268
86004W        W52545  24.551  41.999  10.551
86005W        W52546  31.849   4.682  10.258
86006W        W52547  35.840  39.352  12.277
86007W        W52548  40.084  12.401  10.728
86008W        W52549  14.542   7.743   3.453
86009W        W52550  17.784  37.831   0.012
86010W        W52551  29.872  38.753   2.896
86011W        W52552   7.071  44.795  13.243
86012W        W52553  25.115  15.177   1.706
86013W        W52554  13.635  40.592  11.199
86014W        W52555  24.745  24.678   3.257
86015W        W52556  22.141   3.797  13.817
86016W        W52557   7.962  30.721  14.340
86017W        W52558   3.195  41.368   1.719
86018W        W52559   7.883  44.503  11.296
86019W        W52560  26.760  13.936  10.842
86020W        W52561   0.653  14.901   2.737
86021W        W52562  11.840  27.039  12.927
86022W        W52563  39.980  27.035  12.562
86023W        W52564  34.280   5.828  11.729
86024W        W52565   0.787  20.323  13.112
86025W        W52566  41.456  40.717  12.409
86026W        W52567   0.808  21.864  13.172
86027W        W52568  16.182  15.400  11.642
86028W        W52569   5.282  28.750   0.486
86029W        W52570  16.741   5.205   3.707
86030W        W52571  44.327  20.190  12.853
86031W        W52572  32.114   2.850  14.406
86032W        W52573  10.205  13.978   1.805
86033W        W52574   9.193   6.523   3.456
86034W        W52575  16.531   2.859   4.157
86035W        W52576  32.686  39.331   2.262
86036W        W52577  21.128  25.679  12.404
86037W        W52578  36.703  16.772  10.755
86038W        W52579  26.009  32.618  11.965
86039W        W52580  35.466  19.038  14.302
86040W        W52581  39.140  29.028  12.663
86041W        W52582  39.272  29.154  10.389
86042W        W52583   9.154  20.075  12.569
86043W        W52584   5.323  41.568  14.297
86044W        W52585  16.751  41.574  14.565
86045W        W52586  14.965  37.416  11.154
86046W        W52587  23.672  33.128   3.812
86047W        W52588  30.047  43.928  14.880
86048W        W52589  26.613  24.712  11.133
86049W        W52590  40.022  14.202  14.933
86050W        W52591  38.581   5.483  12.992
86051W        W52592   1.704  23.273  14.090
86052W        W52593   6.717   3.394  13.548
86053W        W52594  13.019  28.626   2.248
86054W        W52595  14.623  33.646  13.013
86055W        W52596  23.142  35.581   1.372
86056W        W52597  28.689  27.418   1.779
86057W        W52598  39.581  38.458  11.922
86058W        W52599   1.463  35.614  11.111
86059W        W52600  29.025   9.059   3.202
86060W        W52601  44.390   7.128   2.423
86061W        W52602  17.901  36.971   4.046
86062W        W52603  19.101  28.486  14.918
86063W        W52604  35.617   6.194   4.106
86064W        W52605  21.725  31.350  14.343
86065W        W52606  16.902  38.719   0.750
86066W        W52607  30.515  32.425   2.629
86067W        W52608  10.101  35.550  14.410
86068W        W52609  42.427  22.874  11.221
86069W        W52610  11.108  19.085   4.142
86070W        W52611  28.195   9.382  11.027
86071W        W52612  16.067  14.302   4.637
86072W        W52613  18.688   2.452   2.409
86073W        W52614   2.997   0.725   4.564
86074W        W52615  24.130  11.704   1.737
86075W        W52616  25.470  44.746   4.625
86076W        W52617   3.050   8.508  13.063
86077W        W52618  26.165  23.488  12.036
86078W        W52619  34.043  27.595  12.615
86079W        W52620  44.311   1.906   4.492
86080W        W52621   9.326  25.934   2.187
86081W        W52622  13.449  17.681  12.013
86082W        W52623   9.048  24.912  14.414
86083W        W52624  19.900  28.604   0.367
86084W        W52625  41.496  39.720   3.257
86085W        W52626  20.677  21.510   4.409
86086W        W52627  25.323   1.946  13.953
86087W        W52628   7.226  19.915  12.636
86088W        W52629   6.762  30.072   2.840
86089W        W52630   3.860  17.590  13.502
86090W        W52631  34.499  16.197  13.674
86091W        W52632  18.981  34.371  14.781
86092W        W52633  26.601  33.324   0.982
86093W        W52634  28.097  33.417   3.388
86094W        W52635   8.625  33.388  14.940
86095W        W52636  21.833  18.104  13.672
86096W        W52637  27.300   5.763   0.500
86097W        W52638  14.153  44.205   2.212
86098W        W52639  22.919  19.207   2.862
86099W        W52640   2.210  28.116  12.603
86100W        W52641  42.488  42.050  10.638
86101W        W52642   8.424  18.670  12.918
86102W        W52643   6.757   0.042   4.039
86103W        W52644  32.978  19.476   3.387
86104W        W52645  22.402   7.646  14.253
86105W        W52646  36.984  44.387  12.109
86106W        W52647  15.604  35.860  14.846
86107W        W52648   5.112   1.137   2.328
86108W        W52649  44.209   6.031   1.256
86109W        W52650  37.397  44.005   0.297
86110W        W52651  37.996  32.775   4.792
86111W        W52652   7.497   7.150  11.281
86112W        W52653  27.046   8.873   1.887
86113W        W52654  42.878   8.237   4.730
86114W        W52655  12.935   5.367   3.724
86115W        W52656  23.580  23.603   1.387
86116W        W52657  15.103  16.811   4.150
86117W        W52658  25.941  23.604  12.474
86118W        W52659   5.906  33.013   1.670
86119W        W52660  25.063  16.344   3.385
86120W        W52661  17.834  20.802  14.091
86121W        W52662  41.009  23.533  11.204
86122W        W52663  25.156  44.993   2.396
86123W        W52664  18.708  27.056   2.205
86124W        W52665  42.388  24.931   0.323
86125W        W52666  43.352  27.764   4.133
86126W        W52667  29.538  25.493   4.630
86127W        W52668   5.602  41.643  14.724
86128W        W52669  17.575  27.121   0.844
86129W        W52670  42.001  42.369  14.260
86130W        W52671   1.733  15.288   1.444
86131W        W52672   4.499  10.409   3.198
86132W        W52673  15.071   3.895   4.717
86133W        W52674  40.387  37.623  10.429
86134W        W52675  31.685   7.838  13.659
86135W        W52676  19.547  15.051  14.418
86136W        W52677  14.845   3.608   4.124
86137W        W52678  28.420  17.528  11.396
86138W        W52679  25.573  37.405   3.574
86139W        W52680  44.958  37.620   1.756
86140W        W52681  22.217   0.353   4.780
86141W        W52682  37.475  18.358  10.779
86142W        W52683   0.632   4.830  14.009
86143W        W52684   2.828   5.459   3.780
86144W        W52685   4.840   0.916   4.424
86145W        W52686  27.136  18.238   3.408
86146W        W52687   3.926  12.832   3.416
86147W        W52688   4.457  39.249  11.676
86148W        W52689  36.251  19.882   2.873
86149W        W52690  19.014   0.507   0.799
86150W        W52691   6.758  13.165  13.784
86151W        W52692  33.929  36.424   1.448
86152W        W52693  23.065  33.801   3.563
86153W        W52694   4.680  43.944  10.991
86154W        W52695  21.671  10.244   1.004
86155W        W52696  18.274  31.585   2.411
86156W        W52697   3.665  27.416  14.821
86157W        W52698  44.472   4.647  12.720
86158W        W52699  25.316  36.747  11.750
86159W        W52700   7.308   1.934  12.750
86160W        W52701  32.067  36.322   1.322
86161W        W52702  31.471  14.719   0.068
86162W        W52703   7.783  42.983  10.034
86163W        W52704  20.533  24.749   3.606
86164W        W52705  18.844  32.336   0.008
86165W        W52706  37.029   1.399   0.516
86166W        W52707  18.019  17.082  14.080
86167W        W52708  37.019  14.644   4.952
86168W        W52709  31.627   5.812  14.788
86169W        W52710  11.276  22.926  13.143
86170W        W52711  39.001  43.220  13.969
86171W        W52712  39.199  11.557  14.256
86172W        W52713  34.054  11.213   1.447
86173W        W52714  40.045   0.807  12.991
86174W        W52715  33.635   9.042  11.113
86175W        W52716  18.325  43.771   1.250
86176W        W52717  19.203  13.164   1.027
86177W        W52718  35.600  44.984   3.790
86178W        W52719  39.635   4.168  11.982
86179W        W52720  41.301   9.900  13.990
86180W        W52721   2.429   0.498  14.399
86181W        W52722  33.443  29.195   2.093
86182W        W52723  39.118  26.636   3.568
86183W        W52724  42.064   2.761   0.410
86184W        W52725  34.991  20.150  12.740
86185W        W52726  11.529  40.779  14.228
86186W        W52727  44.830   6.081   2.264
86187W        W52728  17.355  41.182  11.172
86188W        W52729  33.096  38.851   1.374
86189W        W52730  42.513  29.641  14.298
86190W        W52731  27.162  40.722   0.820
86191W        W52732   1.749  11.129   2.838
86192W        W52733  27.945  43.009  13.547
86193W        W52734   7.168  30.396  12.719
86194W        W52735  35.998  39.493   0.418
86195W        W52736  31.782  39.937  11.941
86196W        W52737  36.093   1.546  13.321
86197W        W52738   8.201  31.687  11.382
86198W        W52739  24.208  31.700   1.722
86199W        W52740  10.331  12.111   0.291
86200W        W52741  16.344  30.614  11.974
86201W        W52742  40.422  17.543  12.255
86202W        W52743   9.894  29.981  13.474
86203W        W52744   9.331  10.231  11.868
86204W        W52745  36.434   4.144   3.628
86205W        W52746  11.128  17.093  11.587
86206W        W52747  44.468  39.844   1.539
86207W        W52748  15.555  40.486   1.233
86208W        W52749  28.558  13.919   2.820
86209W        W52750  40.888  34.355   3.877
86210W        W52751  16.950  13.117  13.901
86211W        W52752   4.964  20.108   4.415
86212W        W52753   5.459  21.236   0.821
86213W        W52754  10.440  44.322  11.148
86214W        W52755   5.121  27.548   5.030
86215W        W52756  14.077  44.298  12.042
86216W        W52757  33.425  13.541  14.939
86217W        W52758  28.950  27.293   0.715
86218W        W52759  12.373  11.920  13.296
86219W        W52760  44.555  14.707   1.537
86220W        W52761   4.684  31.548  11.224
86221W        W52762  35.059  16.215  12.525
86222W        W52763  33.617  42.667   0.680
86223W        W52764  42.687  39.440  13.432
86224W        W52765  33.992  17.295  14.863
86225W        W52766  20.527  19.059   3.264
86226W        W52767   4.746  27.689   4.065
86227W        W52768  10.812  16.788   2.950
86228W        W52769  18.575  39.998   0.336
86229W        W52770   1.399  40.900  11.752
86230W        W52771   4.774  18.350   3.693
86231W        W52772  15.037   7.836  11.092
86232W        W52773   2.957  26.624   0.853
86233W        W52774   0.419  44.681  11.550
86234W        W52775  23.507  23.125   1.971
86235W        W52776   2.739  18.673   2.311
86236W        W52777  43.345   3.922   3.838
86237W        W52778  41.029  17.506  12.954
86238W        W52779  28.889  12.528   1.751
86239W        W52780   9.330   8.760   0.733
86240W        W52781  25.624  20.236  12.621
86241W        W52782  44.439  27.890   0.953
86242W        W52783   5.800  15.912   2.674
86243W        W52784   2.088   1.725  10.677
86244W        W52785  11.254  39.313   2.211
86245W        W52786  44.003  27.154  14.441
86246W        W52787  12.767  14.353  14.948
86247W        W52788  21.502  42.891  11.606
86248W        W52789   3.639  26.023   0.856
86249W        W52790  22.703   8.066   9.795
86250W        W52791  23.256  30.444   3.290
86251W        W52792  24.670  16.943  12.444
86252W        W52793  27.984  32.049   2.696
86253W        W52794  33.104  32.885   0.942
86254W        W52795  35.167  22.648  10.834
86255W        W52796  34.048   2.277  11.647
86256W        W52797  10.413  12.861  12.295
86257W        W52798  31.687  12.823  11.665
86258W        W52799   6.896  41.556   1.509
86259W        W52800  12.440  15.016  14.479
86260W        W52801   2.965  27.645  12.455
86261W        W52802  19.965  35.346  11.337
86262W        W52803  42.340  25.674  14.411
86263W        W52804   1.940  36.481   2.393
86264W        W52805  23.281  43.591   1.249
86265W        W52806  37.846  44.933   3.270
86266W        W52807   8.233   6.674   1.987
86267W        W52808  44.746   1.169  13.898
86268W        W52809   2.787  28.038   3.259
86269W        W52810  23.214   3.950  12.602
86270W        W52811  38.598   7.902   2.460
86271W        W52812  12.831   0.983   1.770
86272W        W52813  20.867  33.930   2.283
86273W        W52814  13.232  35.592   1.970
86274W        W52815   6.847  12.719   3.297
86275W        W52816  11.383   2.224   0.561
86276W        W52817  16.092  33.809  14.819
86277W        W52818  27.084  21.588   2.470
86278W        W52819   6.816   3.862   0.058
86279W        W52820   3.050  35.943  13.974
86280W        W52821  14.221  21.612   3.045
86281W        W52822  21.540  35.303   3.546
86282W        W52823  35.739  31.034  13.820
86283W        W52824  29.101  10.610  11.911
86284W        W52825  21.661   0.751   1.856
86285W        W52826  23.052  41.795  12.405
86286W        W52827  19.803  15.510  14.372
86287W        W52828  23.514  12.430  10.606
86288W        W52829  43.681  30.431   0.927
86289W        W52830  37.711  42.813  13.354
86290W        W52831  26.120   8.147   4.058
86291W        W52832  13.399  32.945   1.889
86292W        W52833   4.565  18.917  11.953
86293W        W52834  19.701  38.473   3.847
86294W        W52835  43.038  40.534  12.639
86295W        W52836  44.315  37.584   1.811
86296W        W52837  10.863   2.436  10.750
86297W        W52838   8.999  37.558  12.453
86298W        W52839  13.272  42.979   0.027
86299W        W52840  26.250  42.837   3.313
86300W        W52841  33.164  28.061   3.918
86301W        W52842  16.036  42.351   1.246
86302W        W52843  36.528   8.584  14.952
86303W        W52844   6.248  44.972  11.859
86304W        W52845  41.778  16.303   2.014
86305W        W52846   2.036  32.678   3.899
86306W        W52847   2.206   0.456  10.547
86307W        W52848  13.850  13.190  11.534
86308W        W52849   7.018  13.184   3.125
86309W        W52850  10.056   3.168   3.150
86310W        W52851  35.497  35.347   1.789
86311W        W52852   6.137  21.402  12.996
86312W        W52853  40.499  21.178   9.927
86313W        W52854  21.333  21.954  14.773
86314W        W52855  32.075   0.691  14.314
86315W        W52856  34.620  42.895   4.684
86316W        W52857  19.222  42.199  13.418
86317W        W52858   3.853  17.652  14.026
86318W        W52859  10.577   7.775   2.208
86319W        W52860  23.043  14.348   4.170
86320W        W52861  10.375  19.711  11.954
86321W        W52862   2.176  38.044   0.275
86322W        W52863  24.885  32.634   0.979
86323W        W52864  12.849  37.063   0.912
86324W        W52865  25.645  43.066   1.657
86325W        W52866   9.131  13.606   4.695
86326W        W52867  25.362  12.615  12.095
86327W        W52868  41.423  32.439  13.452
86328W        W52869   8.488  14.677  11.163
86329W        W52870  42.465  10.750   3.218
86330W        W52871  22.075   2.246  13.103
86331W        W52872  30.723  34.984   2.280
86332W        W52873  11.285  33.585  11.001
86333W        W52874  36.612  41.814  14.309
86334W        W52875  29.705  43.579   0.781
86335W        W52876  12.380  11.407  13.159
86336W        W52877   7.859  32.515  12.874
86337W        W52878  30.153  22.882  13.367
86338W        W52879  13.553  19.695  12.074
86339W        W52880  38.385  25.191   3.018
86340W        W52881  39.565  23.960   3.730
86341W        W52882   6.100  29.400   4.629
86342W        W52883  24.734  16.872  12.956
86343W        W52884  16.121  16.117   3.170
86344W        W52885  30.870  36.634  11.542
86345W        W52886  35.364  14.250  11.090
86346W        W52887  16.426  20.288   3.417
86347W        W52888  42.031  42.630   2.896
86348W        W52889   1.542  26.219   5.006
86349W        W52890   5.364  30.684   2.141
86350W        W52891  36.047   2.762  11.465
86351W        W52892   5.769  20.564   3.114
86352W        W52893  35.209  36.047   4.022
86353W        W52894  24.786   5.834   3.201
86354W        W52895   3.261   2.464  12.512
86355W        W52896  10.860  19.732  11.772
86356W        W52897  43.646  38.295   0.703
86357W        W52898   0.605   1.187   0.522
86358W        W52899  16.244  35.846  12.003
86359W        W52900  17.211   4.902   2.770
86360W        W52901  31.022   4.848  13.933
86361W        W52902  23.926  43.910  12.391
86362W        W52903  13.666  32.403  14.808
86363W        W52904  40.527   6.112   4.224
86364W        W52905   3.954   7.405   0.424
86365W        W52906  35.291  29.980   2.690
86366W        W52907  44.742   4.289   3.139
86367W        W52908  42.420  30.474   3.353
86368W        W52909  42.873  25.946   1.200
86369W        W52910  15.914   1.215  13.590
86370W        W52911  16.884  29.052   1.354
86371W        W52912  19.222   6.340  12.407
86372W        W52913  42.477  16.792   2.185
86373W        W52914  29.671  30.726  11.603
86374W        W52915  30.559  22.659  13.079
86375W        W52916  38.366  15.333  13.445
86376W        W52917  36.771   6.288   3.344
86377W        W52918   2.819  12.147   2.534
86378W        W52919  43.926   8.736   3.789
86379W        W52920   2.297  22.450  11.901
86380W        W52921  31.110   8.594   4.195
86381W        W52922  13.437   5.428   3.625
86382W        W52923  41.396  19.621  13.402
86383W        W52924  23.075   7.860  10.649
86384W        W52925  38.421  14.859  14.374
86385W        W52926  19.186  23.036   4.082
86386W        W52927  12.521  10.776   0.421
86387W        W52928   9.919  28.501   0.439
86388W        W52929   5.632  42.102  10.077
86389W        W52930  20.190  20.693  13.969
86390W        W52931   2.343  26.253  12.840
86391W        W52932  26.350   9.534  10.551
86392W        W52933   2.606  39.778   3.695
86393W        W52934  23.760  22.285  14.858
86394W        W52935   7.594  15.674   4.582
86395W        W52936  26.106   5.438  11.548
86396W        W52937  19.944  43.432   0.970
86397W        W52938  39.585  35.398  12.895
86398W        W52939   2.182   8.489   4.100
86399W        W52940   3.997  38.378   3.795
86400W        W52941  39.084   2.979  13.530
86401W        W52942  16.004  22.662   1.510
86402W        W52943  15.359  29.693  14.913
86403W        W52944  30.585  12.707   1.848
86404W        W52945   3.478  41.758  13.526
86405W        W52946   7.351  28.334  13.507
86406W        W52947  27.949  16.377   2.592
86407W        W52948  31.539   4.638   9.628
86408W        W52949  41.479   3.023   4.536
86409W        W52950  28.359  13.765   1.929
86410W        W52951   7.396  35.857   0.920
86411W        W52952  37.174  38.701   0.250
86412W        W52953   3.456  43.888   4.985
86413W        W52954  29.958   0.349   3.497
86414W        W52955  18.546   3.519   1.563
86415W        W52956  23.919  40.633   3.151
86416W        W52957  25.417   2.898   1.519
86417W        W52958  44.107  18.522  11.492
86418W        W52959  19.853   0.827   3.836
86419W        W52960  14.346  25.239  10.712
86420W        W52961  29.065  12.182  14.775
86421W        W52962  10.187  32.638   4.020
86422W        W52963  41.891  14.259   0.305
86423W        W52964   7.946  25.691   3.250
86424W        W52965  10.506  39.488   5.136
86425W        W52966  41.878  43.238  11.521
86426W        W52967  42.243   1.412  11.031
86427W        W52968  18.981  12.662  10.111
86428W        W52969   9.470  19.632   1.725
86429W        W52970   3.844  41.867   0.683
86430W        W52971   9.120   4.364  12.551
86431W        W52972   8.122  10.242   1.933
86432W        W52973  27.580  37.875   0.446
86433W        W52974  40.468  11.543   1.009
86434W        W52975  37.619  19.036   0.148
86435W        W52976  12.156   7.650  11.666
86436W        W52977  18.821  14.314  11.189
86437W        W52978  28.504  33.516   4.279
86438W        W52979  20.171  19.811   3.544
86439W        W52980   0.688  18.203   3.821
86440W        W52981  20.719   4.939  11.440
86441W        W52982   4.355  15.372   2.642
86442W        W52983  31.145  28.465  10.689
86443W        W52984   2.042  12.263   4.282
86444W        W52985  29.968   9.237   2.829
86445W        W52986  28.506  13.623   1.047
86446W        W52987   0.941   1.928  11.525
86447W        W52988  22.500  27.436   0.556
86448W        W52989  44.873   2.753   4.578
86449W        W52990   6.197  10.201   1.828
86450W        W52991  10.322  43.496  14.036
86451W        W52992  16.245  40.091  12.918
86452W        W52993  28.442  40.486  13.906
86453W        W52994  25.706  18.056  14.990
86454W        W52995  41.343  37.231   0.782
86455W        W52996  32.398  14.287   1.963
86456W        W52997   9.219  14.722   0.867
86457W        W52998   7.451  19.170  14.949
86458W        W52999   0.982   4.894  12.502
86459W        W53000  14.780   7.591  12.985
86460W        W53001   9.749  30.264  12.447
86461W        W53002  11.308   7.097   1.343
86462W        W53003  25.768  27.489   3.724
86463W        W53004  36.132  43.095   1.829
86464W        W53005  41.377  13.409   2.608
86465W        W53006  31.933  23.944   4.570
86466W        W53007   4.842  24.641   3.238
86467W        W53008   1.721  29.065   0.731
86468W        W53009  19.034  36.675   0.663
86469W        W53010  25.177  35.938   0.657
86470W        W53011  40.908  10.655  13.418
86471W        W53012   7.176  15.007  11.067
86472W        W53013  36.133  22.264   2.386
86473W        W53014  41.298  23.490  10.779
86474W        W53015   4.195  17.077   1.716
86475W        W53016  10.235   0.194  10.657
86476W        W53017  36.727  11.896   1.497
86477W        W53018   8.129  28.983  14.433
86478W        W53019  15.506   3.019   4.089
86479W        W53020   9.132  19.344   2.628
86480W        W53021  15.773   0.547  12.005
86481W        W53022  37.285   6.929   4.970
86482W        W53023  11.440  44.062  12.931
86483W        W53024  42.533  28.524   1.256
86484W        W53025  38.737  36.083  13.402
86485W        W53026  44.460  15.749  13.815
86486W        W53027   6.470  27.064   3.192
86487W        W53028  13.912  37.648   1.917
86488W        W53029  40.018  24.308  12.606
86489W        W53030  30.944  28.958  12.366
86490W        W53031  14.869  33.097  13.294
86491W        W53032  10.122  26.134  13.008
86492W        W53033  20.064  22.895   3.692
86493W        W53034  35.453  37.190   1.356
86494W        W53035  21.353  37.505  13.588
86495W        W53036  33.979  34.467   0.090
86496W        W53037  37.110  14.000  12.457
86497W        W53038  13.297  34.814   4.492
86498W        W53039  28.834  26.754  12.129
86499W        W53040  13.115  34.465  14.733
86500W        W53041   9.099  40.982  13.932
86501W        W53042  34.146  38.362  13.878
86502W        W53043   9.797  11.887  13.640
86503W        W53044   0.570   1.519  12.683
86504W        W53045  31.543   7.138   0.316
86505W        W53046  38.849  36.374   4.042
86506W        W53047  33.122   4.995   1.900
86507W        W53048  27.211  34.491   4.110
86508W        W53049  43.313   5.960  11.030
86509W        W53050  21.592  17.575   3.945
86510W        W53051  22.556  26.909  13.899
86511W        W53052   2.306   7.508  11.247
86512W        W53053  30.263  18.831  13.842
86513W        W53054  27.293   7.817   2.674
86514W        W53055  40.873  14.069  11.538
86515W        W53056  29.167  35.387  13.380
86516W        W53057  13.670   7.480   3.544
86517W        W53058  12.568   6.171   3.783
86518W        W53059   4.860  44.012   5.009
86519W        W53060  25.181  12.238   0.453
86520W        W53061  29.976  30.428   0.317
86521W        W53062  31.708  23.218   1.301
86522W        W53063   6.358  12.776  11.655
86523W        W53064   5.100  37.353  12.546
86524W        W53065   9.860   1.522  12.115
86525W        W53066   5.403  32.074  10.250
86526W        W53067   2.410  35.563  13.084
86527W        W53068  27.723  18.656   1.697
86528W        W53069  31.922  27.521  11.636
86529W        W53070  13.648  41.263   3.287
86530W        W53071  31.878  24.528  13.470
86531W        W53072  30.097   3.553   1.328
86532W        W53073  41.669  14.805   2.576
86533W        W53074  35.448   0.435  13.538
86534W        W53075  24.465  23.421   0.860
86535W        W53076   7.862   4.673  14.718
86536W        W53077   5.451  32.363   9.577
86537W        W53078  16.092  31.011   3.384
86538W        W53079   7.742  40.976  10.834
86539W        W53080  20.850  10.436  11.824
86540W        W53081  41.372  41.590   2.157
86541W        W53082   0.909  25.027  10.653
86542W        W53083  32.379  35.528   4.187
86543W        W53084  29.591  32.894   3.156
86544W        W53085   5.786  12.186  14.861
86545W        W53086   7.366  14.491  13.719
86546W        W53087  28.619  15.182   1.414
86547W        W53088   8.906  15.652   1.996
86548W        W53089  23.544  44.474  13.027
86549W        W53090   9.229  40.892   2.627
86550W        W53091  31.654  25.493  12.746
86551W        W53092  11.178  22.701  12.645
86552W        W53093  37.569  38.044   3.190
86553W        W53094  15.315  15.830  14.197
86554W        W53095  42.862  11.382  11.665
86555W        W53096  34.946  31.080   4.625
86556W        W53097  11.932  22.516  12.709
86557W        W53098   8.241  12.672  12.860
86558W        W53099  39.537   1.985   3.614
86559W        W53100  44.865  43.469   2.514
86560W        W53101   2.455  41.032  14.921
86561W        W53102  19.013  23.960  11.206
86562W        W53103  41.537  14.524   2.175
86563W        W53104   1.420  23.429   3.371
86564W        W53105   1.447  37.894  12.995
86565W        W53106  38.233   4.717  13.602
86566W        W53107  17.989   0.835  13.103
86567W        W53108   4.836   0.983   3.565
86568W        W53109  22.516  23.024   4.345
86569W        W53110  29.549  28.012   0.737
86570W        W53111  27.949  24.061   4.356
86571W        W53112  41.849  41.042   4.105
86572W        W53113  25.758  11.600  10.638
86573W        W53114  42.301  34.163  14.284
86574W        W53115  11.470  15.060   2.393
86575W        W53116  10.100  35.016  12.147
86576W        W53117  11.364  20.822   2.236
86577W        W53118   5.239   2.642   2.207
86578W        W53119  20.839  29.138   4.464
86579W        W53120  23.027  29.148   0.964
86580W        W53121  14.006  35.407   1.336
86581W        W53122  24.600   1.429   1.141
86582W        W53123  34.654  41.635   3.285
86583W        W53124  24.927  38.406   3.743
86584W        W53125  25.205   7.845  14.004
86585W        W53126   3.777  43.474  13.908
86586W        W53127  42.694  19.563   2.795
86587W        W53128  28.442   7.160  12.493
86588W        W53129  35.659   1.791   0.764
86589W        W53130  33.833  14.237  13.785
86590W        W53131  40.169   0.904   2.439
86591W        W53132   3.397  30.329  13.997
86592W        W53133  35.392  30.428   1.183
86593W        W53134  43.873  12.836  11.030
86594W        W53135  11.406  17.661  10.985
86595W        W53136   3.874   7.946   3.914
86596W        W53137  30.115  41.348   4.683
86597W        W53138  18.090  23.426   1.653
86598W        W53139  34.428   3.256   2.176
86599W        W53140  44.787  38.328   2.135
86600W        W53141   8.443   6.922   2.389
86601W        W53142  37.307  29.317  12.022
86602W        W53143  22.643   2.956   1.810
86603W        W53144  19.275  33.098   2.234
86604W        W53145  43.976  21.254  12.006
86605W        W53146  16.995  15.421  12.512
86606W        W53147   0.662  41.661   1.871
86607W        W53148  10.389  15.391  12.549
86608W        W53149   3.004  10.799   3.754
86609W        W53150  28.689   1.127   3.097
86610W        W53151  14.511   8.716   2.703
86611W        W53152  10.865  28.945  12.556
86612W        W53153  44.545  38.918  10.640
86613W        W53154   0.512  21.477  12.466
86614W        W53155  43.861  28.411   3.890
86615W        W53156   7.207   1.708   9.770
86616W        W53157  40.123  37.424  12.600
86617W        W53158  19.298  35.789   3.717
86618W        W53159  24.347  25.668   2.312
86619W        W53160  18.999  43.889  14.971
86620W        W53161  15.481  39.332  12.692
86621W        W53162  11.712  24.624   3.323
86622W        W53163  37.276   7.203  13.909
86623W        W53164  28.883  11.308   4.160
86624W        W53165  17.116   0.273  11.090
86625W        W53166  29.063  32.966  12.677
86626W        W53167   4.356  28.081   1.254
86627W        W53168   8.180  32.213   0.591
86628W        W53169   1.397  13.632  13.094
86629W        W53170  18.747   6.121  12.284
86630W        W53171   3.295  37.959   1.213
86631W        W53172  42.842  15.689   4.528
86632W        W53173  25.859   1.769   2.004
86633W        W53174  34.868  35.985   0.970
86634W        W53175   4.748  32.819   1.563
86635W        W53176  36.426   2.224  10.268
86636W        W53177  10.362  12.680   1.901
86637W        W53178  17.559   8.977  10.336
86638W        W53179  33.796  16.791   4.137
86639W        W53180   1.168  35.853  12.430
86640W        W53181  23.623  32.386   1.408
86641W        W53182  39.994  14.888  14.525
86642W        W53183   5.682  38.979   9.859
86643W        W53184  21.273   4.774  13.483
86644W        W53185  36.458  19.121  13.477
86645W        W53186  16.143  41.396   3.748
86646W        W53187   3.743  28.614  10.247
86647W        W53188   0.675  20.366  11.328
86648W        W53189  33.846  14.800  13.054
86649W        W53190  18.263  40.897   3.177
86650W        W53191   1.257   1.191  12.148
86651W        W53192  22.566  33.763   1.028
86652W        W53193  10.605  24.134  11.841
86653W        W53194  37.276  17.838   0.431
86654W        W53195   6.200  33.939  12.095
86655W        W53196  38.793  10.765   2.852
86656W        W53197  34.860  42.524   3.441
86657W        W53198  18.207  25.552   3.190
86658W        W53199  16.061  20.738  11.821
86659W        W53200   5.810   5.218   1.009
86660W        W53201   1.302   8.438  12.965
86661W        W53202   1.864   0.924   0.280
86662W        W53203  15.297  42.936  13.738
86663W        W53204  18.705  19.493  12.428
86664W        W53205  36.867  26.765   4.106
86665W        W53206  38.214  12.715   3.189
86666W        W53207  26.269  25.015  12.905
86667W        W53208  26.483  18.414  11.925
86668W        W53209  23.471  42.525  10.636
86669W        W53210  15.426  41.476   2.543
86670W        W53211  24.004  10.541  11.199
86671W        W53212   1.037  36.556   2.854
86672W        W53213  11.701  15.103   1.168
86673W        W53214  41.043  13.118  12.481
86674W        W53215  21.653  44.486  10.724
86675W        W53216  27.646   7.095   2.308
86676W        W53217  10.687  36.014  12.884
86677W        W53218  33.525  26.972  12.151
86678W        W53219  29.944   6.861  12.924
86679W        W53220  30.197  19.208   4.208
86680W        W53221   9.574   4.882  13.952
86681W        W53222  31.302  31.033   1.276
86682W        W53223  32.880   9.495   2.136
86683W        W53224  32.502  14.630   1.099
86684W        W53225  44.342  36.596  11.585
86685W        W53226  37.038  24.738  12.921
86686W        W53227  27.153  22.340   4.617
86687W        W53228  13.587   5.746   3.247
86688W        W53229  31.658  37.095   3.163
86689W        W53230  37.993  35.480  14.915
86690W        W53231  20.113  42.637  12.099
86691W        W53232  42.519  13.955   9.927
86692W        W53233  23.227  42.078  14.837
86693W        W53234  44.836  36.115  13.041
86694W        W53235   5.244   7.964   3.931
86695W        W53236  21.046  17.582   0.217
86696W        W53237  31.098   0.007  11.145
86697W        W53238  10.157  24.739  12.964
86698W        W53239  33.870  21.583  12.751
86699W        W53240  17.273   7.201  12.928
86700W        W53241  42.969   8.224   3.174
86701W        W53242  27.795  32.291   4.620
86702W        W53243  14.655   8.193  14.050
86703W        W53244   4.248  30.439   1.020
86704W        W53245  34.390  39.855   4.703
86705W        W53246  23.154  28.208   0.829
86706W        W53247   0.804   5.476   3.706
86707W        W53248  26.916   7.847  11.832
86708W        W53249  23.671  11.153  12.343
86709W        W53250  34.287  13.321  14.835
86710W        W53251  15.774  29.705  13.534
86711W        W53252  41.971  15.285   4.856
86712W        W53253  20.149  25.292   2.507
86713W        W53254  19.280  25.653   1.139
86714W        W53255  11.637  44.935  13.991
86715W        W53256  20.521  44.098   2.786
86716W        W53257   8.937   6.855  13.503
86717W        W53258  14.446  18.759  13.779
86718W        W53259   4.708  25.276   0.316
86719W        W53260  34.483  20.080  12.661
86720W        W53261   9.060  27.369   3.777
86721W        W53262  16.838  20.346  13.019
86722W        W53263  20.319   1.193   2.323
86723W        W53264   4.902  33.605  14.342
86724W        W53265  23.376  12.790  10.944
86725W        W53266  36.839  12.301   0.272
86726W        W53267  28.638   4.981  10.861
86727W        W53268  39.990  31.206  10.814
86728W        W53269   1.924   4.320   1.637
86729W        W53270  16.705  40.726  11.556
86730W        W53271  30.294   3.802   4.854
86731W        W53272  34.636  28.201   0.328
86732W        W53273  37.503  25.952   0.001
86733W        W53274  10.720  25.233  13.868
86734W        W53275  44.301  27.692  11.935
86735W        W53276   0.514  14.657   3.177
86736W        W53277  12.180  39.371   2.164
86737W        W53278  10.740  42.850  11.031
86738W        W53279   1.248  16.245   4.330
86739W        W53280  35.041  24.175   2.063
86740W        W53281  27.879  37.805  10.646
86741W        W53282  27.006  15.443   1.490
86742W        W53283  37.545   4.827  10.624
86743W        W53284  21.333  21.279   0.212
86744W        W53285  40.977  43.037  13.996
86745W        W53286  37.819   1.929   0.424
86746W        W53287   6.407  18.864  11.577
86747W        W53288  15.286   2.538  14.873
86748W        W53289  33.399  12.200  11.771
86749W        W53290  33.314   1.370  10.734
86750W        W53291  34.822  30.575   1.265
86751W        W53292  29.155   0.500  14.565
86752W        W53293  44.969  19.018  11.378
86753W        W53294  33.483   5.654   3.389
86754W        W53295  37.835   8.693  14.360
86755W        W53296  14.094  12.095  12.384
86756W        W53297  14.281  43.295  14.530
86757W        W53298  13.333  34.504  12.954
86758W        W53299  13.090   0.372   2.179
86759W        W53300  25.481  29.068  12.745
86760W        W53301  27.554   2.658   2.678
86761W        W53302  22.317  41.590  11.085
86762W        W53303  25.577  13.743   4.336
86763W        W53304  38.004  36.431  14.445
86764W        W53305  41.584   8.444  10.782
86765W        W53306   6.390  34.255  11.662
86766W        W53307  26.754  27.181  11.249
86767W        W53308   9.706  12.221  10.699
86768W        W53309  28.731   7.426  12.865
86769W        W53310  31.314  20.168   1.867
86770W        W53311  25.471  30.380   4.090
86771W        W53312   8.722  31.382   3.881
86772W        W53313  44.306  39.846  12.133
86773W        W53314  29.900  21.019   1.180
86774W        W53315  39.351   5.332   0.429
86775W        W53316  39.962  37.427   0.972
86776W        W53317  21.728  16.189  12.494
86777W        W53318  16.786  34.077  13.661
86778W        W53319  15.667  23.715   3.355
86779W        W53320   9.891   1.315  11.660
86780W        W53321  29.108  10.165   1.959
86781W        W53322  23.489  38.320   1.294
86782W        W53323  27.472  29.188  12.652
86783W        W53324  42.987  22.695  14.779
86784W        W53325   1.845  22.462  10.674
86785W        W53326  41.926  13.851   3.197
86786W        W53327  22.780  38.875   0.931
86787W        W53328  33.133  39.489  10.406
86788W        W53329   8.785  14.421   0.063
86789W        W53330  44.278  28.896   4.451
86790W        W53331  23.381  37.569   2.556
86791W        W53332  29.157  42.132  11.385
86792W        W53333  42.107   5.453   3.767
86793W        W53334  40.656   7.019  14.924
86794W        W53335  13.881  38.121   2.106
86795W        W53336  43.908  41.425  11.646
86796W        W53337  10.957   0.223  12.337
86797W        W53338   8.688  24.702   2.244
86798W        W53339  27.511   5.876  14.526
86799W        W53340  11.415  29.615  12.112
86800W        W53341  21.454  16.332  12.903
86801W        W53342  22.624  15.578   2.425
86802W        W53343  30.897  10.255  11.634
86803W        W53344   9.841   2.013  11.920
86804W        W53345  24.289   5.987   4.076
86805W        W53346  42.602  42.891  14.545
86806W        W53347   3.948  26.863  11.353
86807W        W53348  35.338  32.891   1.477
86808W        W53349  32.636  28.291  14.297
86809W        W53350  27.442   4.398   1.066
86810W        W53351  30.471   6.281  12.261
86811W        W53352  15.809  21.042   4.159
86812W        W53353   7.469  24.651  11.996
86813W        W53354  29.742   0.304   0.592
86814W        W53355  27.500  38.698   4.029
86815W        W53356  44.036  10.289   3.135
86816W        W53357  29.925  29.380   1.113
86817W        W53358  28.053   4.438  12.964
86818W        W53359   9.164  19.355  12.103
86819W        W53360  36.541   1.702  13.005
86820W        W53361  44.307  21.602  11.774
86821W        W53362  25.126   0.832  13.408
86822W        W53363  11.338  37.489  12.430
86823W        W53364  31.932   1.917   2.291
86824W        W53365  37.381  43.822  13.334
86825W        W53366  40.332  32.438   1.306
86826W        W53367   1.916  42.170  14.228
86827W        W53368  10.353   5.605  14.409
86828W        W53369  32.562  18.216   3.626
86829W        W53370   2.540  30.529   2.278
86830W        W53371   5.654  17.559  14.909
86831W        W53372  30.215   0.553  12.582
86832W        W53373  39.824  37.225  12.220
86833W        W53374   6.220  17.585   4.555
86834W        W53375  33.496   8.382  14.021
86835W        W53376  21.279  28.893  11.087
86836W        W53377  37.343   2.747   5.350
86837W        W53378  14.004  31.956  12.309
86838W        W53379  31.909  26.226  11.153
86839W        W53380   7.769  27.690   0.043
86840W        W53381  15.141  12.011   0.958
86841W        W53382  11.822  20.701  14.330
86842W        W53383  20.722  26.061   3.271
86843W        W53384  21.062  40.600  10.809
86844W        W53385   0.769  30.087   4.851
86845W        W53386  25.278   1.315  13.606
86846W        W53387  29.863   1.988  12.934
86847W        W53388  26.581  11.738   1.836
86848W        W53389  33.135  34.351  12.487
86849W        W53390  12.197  43.323  13.233
86850W        W53391  38.853  30.442   3.579
86851W        W53392  13.520  13.263  11.134
86852W        W53393  22.181  43.786  14.836
86853W        W53394   8.213  37.626   0.026
86854W        W53395  31.237  17.556  13.082
86855W        W53396  29.660  22.448  10.995
86856W        W53397  14.111   6.184   1.627
86857W        W53398   2.866  28.337  11.958
86858W        W53399  15.175   6.739   3.323
86859W        W53400  29.008  34.743   3.171
86860W        W53401  11.587  25.630  11.577
86861W        W53402  18.635   1.395   1.624
86862W        W53403  18.219  31.119   2.160
86863W        W53404  38.835  34.968   2.946
86864W        W53405  18.135  19.786  13.459
86865W        W53406  31.003  25.741   1.359
86866W        W53407   6.966  13.166   0.716
86867W        W53408  30.138  32.529   1.778
86868W        W53409  39.483   8.747  11.156
86869W        W53410  33.422  25.233   1.488
86870W        W53411  39.963  34.106   3.909
86871W        W53412  40.956  15.092   3.366
86872W        W53413  28.696  37.823   1.841
86873W        W53414  23.491  18.168   1.857
86874W        W53415  24.885   2.350   2.892
86875W        W53416  15.559  29.073  10.310
86876W        W53417   3.988  23.599   1.154
86877W        W53418  26.197   2.468  13.053
86878W        W53419  29.440  16.597   3.805
86879W        W53420  41.398  27.414   1.937
86880W        W53421   4.140  38.842  11.772
86881W        W53422  32.357   6.262  10.141
86882W        W53423  26.214  20.464   0.485
86883W        W53424  33.333   3.661   1.952
86884W        W53425  23.564  29.626   2.243
86885W        W53426   0.407  42.928   2.667
86886W        W53427  13.600   9.473   3.937
86887W        W53428  25.446   7.221  13.530
86888W        W53429  29.249  28.878   4.047
86889W        W53430  10.776  43.282   4.342
86890W        W53431  24.562  36.103   3.845
86891W        W53432  14.788   4.936   3.681
86892W        W53433  26.221  41.195   0.967
86893W        W53434  18.737  40.857  12.732
86894W        W53435  36.526  21.729  13.660
86895W        W53436  18.145  20.984   4.186
86896W        W53437  16.595   4.541  12.908
86897W        W53438  42.117  36.150  12.016
86898W        W53439  39.453  12.151  11.582
86899W        W53440  27.161  44.735  13.473
86900W        W53441  32.685  26.969  11.648
86901W        W53442  22.509   4.849  12.056
86902W        W53443  13.307  11.851   3.392
86903W        W53444   4.958  23.969  13.615
86904W        W53445  28.431  12.603  13.292
86905W        W53446   2.767  22.442  11.649
86906W        W53447  33.348  29.335   0.232
86907W        W53448  36.354  20.885   4.451
86908W        W53449  20.220   3.460   4.811
86909W        W53450  11.667  20.743  13.387
86910W        W53451  32.001   8.981   2.450
86911W        W53452  20.222   3.998  13.259
86912W        W53453   1.460   5.081  13.783
86913W        W53454  33.585  42.591  10.590
86914W        W53455  21.948  17.596  10.828
86915W        W53456   2.992   8.878   1.548
86916W        W53457  20.323   2.935  10.676
86917W        W53458  10.438  19.199   4.598
86918W        W53459   8.280   3.826  11.510
86919W        W53460  32.460  25.947  12.432
86920W        W53461  36.932   3.540  14.089
86921W        W53462   3.955  28.456  13.010
86922W        W53463  21.651  21.233   4.580
86923W        W53464  27.019  40.598  13.010
86924W        W53465  11.861  15.083   3.790
86925W        W53466   3.957   3.304   1.912
86926W        W53467  25.490  34.514   0.212
86927W        W53468  30.524  39.044   1.781
86928W        W53469  28.064  21.801   1.398
86929W        W53470   1.339   5.267  12.428
86930W        W53471  10.893   8.308   1.710
86931W        W53472  14.999   0.980  14.572
86932W        W53473  42.256   7.277   1.424
86933W        W53474  42.130   6.204  11.466
86934W        W53475  12.884  29.853   2.191
86935W        W53476  11.251  13.383  13.407
86936W        W53477   7.861  36.495  12.042
86937W        W53478  26.914  40.911  14.295
86938W        W53479  17.402  38.943   0.848
86939W        W53480  29.666  14.676  13.644
86940W        W53481  10.620  37.536   2.418
86941W        W53482  44.355   9.322   2.186
86942W        W53483   0.811  15.689   0.818
86943W        W53484  18.202  44.233  12.572
86944W        W53485  16.321  18.829  13.426
86945W        W53486  35.993  31.061  12.492
86946W        W53487  40.945  26.253   0.639
86947W        W53488  27.442  27.233   1.142
86948W        W53489  16.206  14.522   1.276
86949W        W53490  23.516  10.704   0.710
86950W        W53491  28.944  12.004  10.194
86951W        W53492  32.041  27.620  12.431
86952W        W53493  41.814  17.615  12.483
86953W        W53494  16.572  10.808  13.912
86954W        W53495  19.492  18.046  14.360
86955W        W53496  33.903  11.575  12.065
86956W        W53497  27.164  33.028  13.051
86957W        W53498   0.738  29.427  13.363
86958W        W53499   7.744  13.561   1.170
86959W        W53500   3.595   1.231  10.039
86960W        W53501  34.663  10.942   4.071
86961W        W53502  42.350  43.708   4.233
86962W        W53503  29.483  23.581   5.036
86963W        W53504  13.426  15.705  12.456
86964W        W53505  34.475  24.403   2.426
86965W        W53506  41.429  41.199  12.185
86966W        W53507  32.661  32.036   0.065
86967W        W53508  33.444  20.234  10.715
86968W        W53509  30.967  27.925   2.822
86969W        W53510  40.268   9.772  13.034
86970W        W53511  23.985  42.098  14.389
86971W        W53512  34.437   2.304   4.383
86972W        W53513  38.539   3.848  12.113
86973W        W53514  34.341  13.845  14.393
86974W        W53515  17.082  38.596   3.312
86975W        W53516  39.122  42.037   2.869
86976W        W53517  17.254  17.791   4.784
86977W        W53518   4.955  20.397  14.813
86978W        W53519  44.444   3.437   3.300
86979W        W53520  36.950  16.127   2.427
86980W        W53521  19.345  12.572   4.022
86981W        W53522  36.643  42.994   4.171
86982W        W53523   6.652  31.190  11.142
86983W        W53524  17.833   0.560   4.195
86984W        W53525  43.378  40.371   4.379
86985W        W53526  15.303  32.226  10.636
86986W        W53527  21.608   6.961   1.116
86987W        W53528   4.446  33.486   0.988
86988W        W53529   0.784  25.446  12.043
86989W        W53530  18.250  12.655  14.015
86990W        W53531  21.150  31.192  11.017
86991W        W53532  33.026  40.461  14.759
86992W        W53533  18.790  19.651   3.233
86993W        W53534  42.651  19.807  14.973
86994W        W53535  37.392  38.738  14.723
86995W        W53536  42.240  23.633   1.817
86996W        W53537  35.025  18.964  14.011
86997W        W53538   1.249  30.344   1.946
86998W        W53539   8.399   3.199  13.926
86999W        W53540  41.992  42.736  11.577
87000W        W53541  33.325  13.249   5.183
87001W        W53542  22.542  32.830   0.698
87002W        W53543  16.258  23.095  10.576
87003W        W53544   1.289  30.265   2.723
87004W        W53545  26.991  23.908   4.806
87005W        W53546   0.761   7.156  13.962
87006W        W53547  28.151  15.114   1.646
87007W        W53548  39.037   8.807   1.488
87008W        W53549  26.196  10.763   0.428
87009W        W53550  22.976  40.869  12.541
87010W        W53551   7.675  35.644  13.348
87011W        W53552   1.767  31.443  13.030
87012W        W53553   8.613  36.340   2.758
87013W        W53554  28.387  22.207   1.427
87014W        W53555  23.549  29.553  14.279
87015W        W53556  43.031   9.308  11.649
87016W        W53557   2.984  22.484   0.927
87017W        W53558   5.287  35.592   3.284
87018W        W53559  22.331   1.776   4.515
87019W        W53560  42.987   0.866  10.830
87020W        W53561  24.582  15.718   4.053
87021W        W53562  16.912   6.721  11.191
87022W        W53563  20.671  44.601  12.078
87023W        W53564  41.865  12.773  13.557
87024W        W53565   8.804  10.923  13.506
87025W        W53566  44.972  42.678  11.173
87026W        W53567  11.114  10.731  13.457
87027W        W53568  27.369  27.959  12.003
87028W        W53569  19.769  21.081   4.528
87029W        W53570  29.242  42.815   2.813
87030W        W53571  31.365  28.096   1.439
87031W        W53572  40.209   0.268   0.235
87032W        W53573  27.236  42.057   4.216
87033W        W53574  30.537  42.612  12.681
87034W        W53575  42.000  26.631   2.090
87035W        W53576  28.078  25.479   1.297
87036W        W53577  43.413  28.523   2.122
87037W        W53578  20.548  18.804   3.699
87038W        W53579  37.951  21.483   0.965
87039W        W53580   5.126  16.777   3.636
87040W        W53581  26.188  24.994  11.159
87041W        W53582  22.666   6.651  11.615
87042W        W53583  33.036  13.457  12.010
87043W        W53584  14.186   8.333  14.862
87044W        W53585  37.211  23.742   1.108
87045W        W53586  15.780   5.830   1.538
87046W        W53587   8.258  36.076  12.593
87047W        W53588  12.002  32.157   3.224
87048W        W53589  25.736  35.346  12.176
87049W        W53590  42.781  32.937  12.371
87050W        W53591   2.917  25.518  12.857
87051W        W53592  12.762  42.925  12.854
87052W        W53593  18.829  21.059  14.424
87053W        W53594   9.614  20.958   0.801
87054W        W53595  28.418  27.977  11.970
87055W        W53596  36.308   4.300   3.153
87056W        W53597  15.391  17.193  12.502
87057W        W53598  40.618   9.675   0.275
87058W        W53599   6.782  10.030   4.577
87059W        W53600  38.394  24.485   1.818
87060W        W53601  20.639  37.890   3.525
87061W        W53602  20.713   1.505   2.174
87062W        W53603  25.829  22.110  14.803
87063W        W53604  10.206  16.661   4.511
87064W        W53605   4.816   7.721   2.815
87065W        W53606  24.984  29.622  11.339
87066W        W53607  28.634  29.580   1.882
87067W        W53608  20.485  35.390  14.601
87068W        W53609  19.749  43.539   3.747
87069W        W53610   6.839   7.544   1.162
87070W        W53611   9.871  16.238   3.601
87071W        W53612  12.608  32.124   5.002
87072W        W53613  31.528  14.916  13.852
87073W        W53614   1.204  13.080  13.020
87074W        W53615  26.760  32.660   2.382
87075W        W53616   8.347   3.975  14.939
87076W        W53617  15.647  40.966   2.446
87077W        W53618   7.907  27.802  13.898
87078W        W53619  35.632  18.341   3.238
87079W        W53620  11.957  17.960  10.729
87080W        W53621   0.885  43.209   0.857
87081W        W53622   3.266  14.107  12.412
87082W        W53623  25.578  30.258   1.226
87083W        W53624  26.915  28.098   1.439
87084W        W53625  10.065  35.288  13.616
87085W        W53626  27.930  16.626   0.571
87086W        W53627   5.313  26.091  13.343
87087W        W53628  27.755  40.876  12.992
87088W        W53629  32.582  12.689   1.199
87089W        W53630  10.807  35.873  13.535
87090W        W53631  19.698  44.460  10.625
87091W        W53632  36.794  39.940   1.363
87092W        W53633  23.173  43.760   0.245
87093W        W53634   1.607  20.488   2.364
87094W        W53635  24.255  35.363  13.641
87095W        W53636  40.811  24.118   3.333
87096W        W53637  39.834  42.641  12.539
87097W        W53638  11.708  43.239   3.307
87098W        W53639  35.497  44.493   4.015
87099W        W53640  23.998  21.587  14.322
87100W        W53641  38.471  43.561   3.655
87101W        W53642  19.773   0.820   2.296
87102W        W53643  35.331  43.779   0.923
87103W        W53644   1.805  25.449  11.842
87104W        W53645   1.263  27.637  12.764
87105W        W53646  10.691   8.415   3.774
87106W        W53647  21.903  19.577  12.568
87107W        W53648  28.198   1.523  11.686
87108W        W53649  38.452  30.119  10.673
87109W        W53650  14.702  44.464   2.227
87110W        W53651  33.907   8.362  14.348
87111W        W53652   8.431   4.325   3.870
87112W        W53653  38.060  25.716  14.927
87113W        W53654  27.973  13.252   3.168
87114W        W53655  33.547   5.773   0.942
87115W        W53656  15.822  30.051   3.016
87116W        W53657  43.360  28.058  14.990
87117W        W53658  16.531  25.078  12.898
87118W        W53659  14.424   9.498  13.389
87119W        W53660   2.269  19.039  12.330
87120W        W53661   6.475  40.485  13.501
87121W        W53662   3.448  21.026  11.249
87122W        W53663  25.632  29.923   2.863
87123W        W53664  14.951   3.965  14.633
87124W        W53665  37.370  42.402   0.011
87125W        W53666  42.893   4.792   3.751
87126W        W53667  33.588  27.172   1.258
87127W        W53668  37.638  16.556  10.416
87128W        W53669   4.026  30.056   2.871
87129W        W53670  41.819   8.733   2.853
87130W        W53671  23.209  44.248   1.734
87131W        W53672   4.040  27.609  10.028
87132W        W53673  13.331  11.452  10.914
87133W        W53674  35.356  22.038  13.378
87134W        W53675  24.227  24.593  11.138
87135W        W53676  20.287  38.600  11.850
87136W        W53677  29.365  41.949   0.249
87137W        W53678   9.618   9.919  14.995
87138W        W53679   7.419  25.003  13.624
87139W        W53680  12.326  10.177  11.670
87140W        W53681  37.264   1.706  14.448
87141W        W53682  23.187  18.758   0.331
87142W        W53683  20.541  19.634  11.961
87143W        W53684   4.592  38.614  12.788
87144W        W53685  32.880  19.845  14.860
87145W        W53686  23.752  20.878   2.108
87146W        W53687  30.478  43.223   2.275
87147W        W53688   6.445  35.796   0.544
87148W        W53689  41.482  43.737  14.102
87149W        W53690   9.824  11.620  12.142
87150W        W53691  29.188  43.012  11.331
87151W        W53692  36.904  15.360  10.178
87152W        W53693  28.579  15.703   0.463
87153W        W53694  15.847   1.269   1.696
87154W        W53695  32.702  23.252   3.587
87155W        W53696  24.470  30.487  14.906
87156W        W53697  36.825  29.427  12.121
87157W        W53698   1.424  24.898   3.298
87158W        W53699   0.665  33.041   3.524
87159W        W53700  43.749  42.307   4.137
87160W        W53701  20.591  19.311   1.896
87161W        W53702  10.399  21.521  11.459
87162W        W53703  38.946  36.856   3.100
87163W        W53704  28.139  14.277   3.263
87164W        W53705  30.757  10.349  14.263
87165W        W53706  35.170  23.114   1.886
87166W        W53707  25.058  39.821   2.036
87167W        W53708  22.578  21.157   2.833
87168W        W53709   9.914  12.793   4.224
87169W        W53710  39.908  18.080  12.559
87170W        W53711   5.561  24.103   1.266
87171W        W53712   7.030   6.238   4.840
87172W        W53713  31.960  33.154   4.739
87173W        W53714  40.425  41.495   2.140
87174W        W53715   6.195  23.209   3.094
87175W        W53716  26.028  30.408   3.174
87176W        W53717  41.865  37.225   4.843
87177W        W53718   3.407  43.003  14.710
87178W        W53719  24.682   6.249   2.896
87179W        W53720  35.936  17.911  13.917
87180W        W53721  15.028  25.767  12.527
87181W        W53722  18.763  28.914   2.816
87182W        W53723  31.653  33.272   2.567
87183W        W53724  21.535  42.496   3.210
87184W        W53725  44.218  23.968   1.921
87185W        W53726   6.935  28.558  12.094
87186W        W53727  37.569  37.473   4.817
87187W        W53728  13.168  35.117  14.118
87188W        W53729  34.416  15.216  11.167
87189W        W53730  19.201   5.822  11.232
87190W        W53731   0.732  25.501  14.320
87191W        W53732  29.616  42.968   4.548
87192W        W53733  39.210  12.786   5.398
87193W        W53734  17.797   7.280   3.695
87194W        W53735   1.067  31.417  12.082
87195W        W53736  27.990  26.566  11.055
87196W        W53737  35.743   3.192  11.480
87197W        W53738   6.257  29.672   2.234
87198W        W53739  19.952  27.635  13.064
87199W        W53740   5.728   2.387  14.398
87200W        W53741  44.414  31.772   0.921
87201W        W53742  14.791  11.835   2.771
87202W        W53743  15.084   1.521  14.790
87203W        W53744  39.944  19.661   0.316
87204W        W53745   3.977  32.209   0.297
87205W        W53746  41.372  42.673   4.924
87206W        W53747  36.126  11.626  11.622
87207W        W53748  16.747  25.304   0.907
87208W        W53749  42.753  10.754   4.553
87209W        W53750  24.307   0.456  11.536
87210W        W53751  24.989  22.063   0.381
87211W        W53752   5.108   5.693   1.300
87212W        W53753   9.625  37.410   0.654
87213W        W53754   2.160   5.011   2.011
87214W        W53755  39.987  41.871  13.545
87215W        W53756  23.076  14.750   1.474
87216W        W53757  29.523  36.895   0.508
87217W        W53758   3.343  16.020   2.111
87218W        W53759  28.376  31.135  14.018
87219W        W53760  17.765   8.678   3.512
87220W        W53761  17.510  20.292   1.488
87221W        W53762   3.929  16.996   3.383
87222W        W53763   7.801   9.362  13.896
87223W        W53764  40.079  41.348  11.616
87224W        W53765  35.966  22.749   2.310
87225W        W53766  26.163   4.069  12.068
87226W        W53767  24.999  18.153  10.634
87227W        W53768  19.574  36.331   1.930
87228W        W53769  15.044  10.706  13.467
87229W        W53770  14.596   9.865   3.554
87230W        W53771  12.634  23.129  14.288
87231W        W53772  30.036   7.480  13.303
87232W        W53773  13.284   7.434  13.327
87233W        W53774   4.747  30.295   1.482
87234W        W53775   0.813  26.936  11.727
87235W        W53776  43.784  33.764  11.154
87236W        W53777  44.457   3.094  13.840
87237W        W53778   4.131  22.599   2.700
87238W        W53779  12.191   4.550  13.612
87239W        W53780  33.031  41.446  13.397
87240W        W53781  12.093  34.946   3.617
87241W        W53782  31.580  34.814  11.075
87242W        W53783   6.341  33.752   1.638
87243W        W53784  23.976   0.400   0.019
87244W        W53785  33.819  34.938  11.570
87245W        W53786  37.892  14.203   1.805
87246W        W53787   2.923  14.854  14.347
87247W        W53788  24.997   1.737  14.396
87248W        W53789   2.891  22.198   1.349
87249W        W53790  20.298   7.803   2.038
87250W        W53791  22.738  29.610   5.018
87251W        W53792  23.788  20.800  11.437
87252W        W53793  24.906  43.977   3.748
87253W        W53794   7.807  35.248   4.412
87254W        W53795   2.915   7.864   2.761
87255W        W53796  13.730  20.524   3.979
87256W        W53797  35.102  12.928  11.053
87257W        W53798  40.022  20.073  14.972
87258W        W53799  30.010  11.653  10.018
87259W        W53800   1.858  12.311   2.788
87260W        W53801   5.549  12.386  11.502
87261W        W53802  26.512  26.089   4.561
87262W        W53803  27.772  11.619  14.297
87263W        W53804  36.061   4.064  10.852
87264W        W53805  26.351   0.120   3.563
87265W        W53806   7.203   8.921   3.658
87266W        W53807  27.125  14.672  12.518
87267W        W53808  26.494   5.858  14.641
87268W        W53809  38.476  10.155  12.461
87269W        W53810  11.004  25.205  12.587
87270W        W53811  13.044  44.067  12.123
87271W        W53812  40.620  31.894  10.301
87272W        W53813  30.350  21.770  11.304
87273W        W53814  18.332  13.271  14.800
87274W        W53815  10.405  40.350  13.400
87275W        W53816  13.057   3.416  10.677
87276W        W53817  39.894  12.240  12.598
87277W        W53818   3.400  33.144   4.055
87278W        W53819  17.988  35.771   2.805
87279W        W53820  35.106   0.477   4.514
87280W        W53821  18.285  42.732  11.907
87281W        W53822  11.532  21.203  12.491
87282W        W53823   5.337  31.647   3.773
87283W        W53824   3.460  20.165   1.883
87284W        W53825   6.512  10.918   4.417
87285W        W53826  27.458   7.630  10.763
87286W        W53827  42.695  22.547   1.808
87287W        W53828   1.433  36.431   1.642
87288W        W53829  42.453  43.045   1.330
87289W        W53830  24.299  24.476  14.736
87290W        W53831  37.987  41.498   0.454
87291W        W53832  36.603  12.737  11.964
87292W        W53833  31.336   8.504  11.066
87293W        W53834  31.423  41.565  11.017
87294W        W53835  38.846  12.252  12.572
87295W        W53836   4.239  11.012  11.445
87296W        W53837  29.969   9.603   1.864
87297W        W53838  18.296  20.712   3.381
87298W        W53839  14.603  36.593  14.906
87299W        W53840  35.944  42.430   4.162
87300W        W53841   7.253  17.918  12.471
87301W        W53842  40.115  21.831  12.887
87302W        W53843  44.812  21.166  14.674
87303W        W53844  17.294  43.819   1.906
87304W        W53845  17.521  15.062  11.678
87305W        W53846  36.047  26.817   0.902
87306W        W53847   4.295   8.967   1.965
87307W        W53848   4.215  27.733   2.330
87308W        W53849  12.757  11.120   2.231
87309W        W53850  29.912  10.030  11.755
87310W        W53851   0.235  23.481  14.408
87311W        W53852  26.983  40.775   4.888
87312W        W53853  40.354  18.081  10.429
87313W        W53854  19.229  27.839   3.290
87314W        W53855  16.724  11.187   2.687
87315W        W53856  30.004   3.816  13.363
87316W        W53857  31.122  30.131   3.680
87317W        W53858  23.258  25.555  12.281
87318W        W53859   2.265  26.591  12.460
87319W        W53860  44.044  21.991  11.557
87320W        W53861  37.536   0.487   4.036
87321W        W53862  20.276  37.272  10.744
87322W        W53863  37.056  39.464   1.531
87323W        W53864  30.113   1.202   0.254
87324W        W53865  13.519  36.774  12.866
87325W        W53866  11.206  11.300   0.935
87326W        W53867  29.390  15.309  12.572
87327W        W53868  29.107  15.247  10.840
87328W        W53869  18.351  15.752  12.737
87329W        W53870   0.271  35.094  14.587
87330W        W53871  22.174  20.075   1.477
87331W        W53872  39.929  11.686   2.172
87332W        W53873  35.074  36.487   0.900
87333W        W53874  20.688  34.436   2.171
87334W        W53875  21.530  17.504   3.063
87335W        W53876  41.853   3.484  12.572
87336W        W53877  27.177  14.785   2.803
87337W        W53878  29.877  34.427  12.929
87338W        W53879  42.533  22.584   0.049
87339W        W53880  39.443   5.211  11.431
87340W        W53881   2.622  10.238  12.121
87341W        W53882  30.105  33.070  12.486
87342W        W53883  12.491  32.113  13.945
87343W        W53884  10.505   2.945  13.399
87344W        W53885  33.986  30.662   4.284
87345W        W53886   6.677  34.110  12.097
87346W        W53887  27.250  25.177  14.554
87347W        W53888  25.987  17.774  13.848
87348W        W53889  31.023  42.246   4.762
87349W        W53890  27.970  37.443   0.451
87350W        W53891  25.249  12.822   2.855
87351W        W53892  40.804  34.103   1.692
87352W        W53893  17.880   6.511   3.156
87353W        W53894  10.876  10.734   2.811
87354W        W53895  19.096  25.480  13.453
87355W        W53896  34.628  17.080   0.517
87356W        W53897  21.811  34.156   2.175
87357W        W53898   2.755  37.999  13.940
87358W        W53899  38.574  13.350  13.463
87359W        W53900  24.061  44.465  12.283
87360W        W53901  27.828  23.104   2.724
87361W        W53902  18.987  25.882   3.794
87362W        W53903  33.614  12.524   0.795
87363W        W53904  29.416  26.275   2.411
87364W        W53905  30.957   8.696  14.380
87365W        W53906  31.559  42.375   1.903
87366W        W53907  40.735   7.617  14.909
87367W        W53908  40.001  11.561  11.095
87368W        W53909   5.701  16.188  10.730
87369W        W53910  42.741   8.533  12.046
87370W        W53911   1.534  20.608   3.317
87371W        W53912  21.424  30.761  11.051
87372W        W53913  42.792  29.754   0.919
87373W        W53914  30.930  23.435   5.165
87374W        W53915  10.060  24.330  11.195
87375W        W53916  39.982   0.258   2.293
87376W        W53917  40.284  43.821   2.616
87377W        W53918  27.912  39.098  14.767
87378W        W53919   6.641   2.755   1.412
87379W        W53920  34.680  23.385  13.054
87380W        W53921  18.034   4.867  12.782
87381W        W53922  17.255  26.244  13.480
87382W        W53923  17.478  19.597   1.989
87383W        W53924  30.896  14.623  11.643
87384W        W53925  40.402  33.470   3.239
87385W        W53926  26.173  27.041  12.538
87386W        W53927   8.978  12.307   4.287
87387W        W53928  37.048  29.685  10.738
87388W        W53929  18.167  30.216   2.744
87389W        W53930  10.719   8.096  13.006
87390W        W53931  25.891   2.487  13.453
87391W        W53932   9.733  12.675   1.228
87392W        W53933  39.467  30.183   0.329
87393W        W53934  24.680   9.766   4.320
87394W        W53935  44.233  11.231   0.268
87395W        W53936   8.360  39.096  14.580
87396W        W53937  40.789   3.904   3.158
87397W        W53938   9.108  39.505   0.191
87398W        W53939  32.481  20.459   2.578
87399W        W53940   7.187   2.892  12.280
87400W        W53941  33.916  28.255   4.576
87401W        W53942   1.574  40.046  14.961
87402W        W53943  32.936  17.160  14.779
87403W        W53944  31.590  33.434   4.485
87404W        W53945  27.505  39.594   2.977
87405W        W53946  19.112   1.577   3.309
87406W        W53947   3.282  11.813   2.296
87407W        W53948  36.630  12.272  12.802
87408W        W53949  16.304  24.538  11.331
87409W        W53950  14.785  15.593   3.223
87410W        W53951   8.903  13.147  13.834
87411W        W53952  39.395  26.286  13.824
87412W        W53953  13.099  34.469   0.746
87413W        W53954  22.160  38.930   4.711
87414W        W53955   4.422   2.569  13.934
87415W        W53956  16.140   5.821   2.838
87416W        W53957   0.481  33.431  13.755
87417W        W53958   6.114  41.486  14.756
87418W        W53959  41.007  19.565   1.909
87419W        W53960   7.488  13.340  11.171
87420W        W53961  17.481   7.828   1.497
87421W        W53962  24.212  42.920  10.524
87422W        W53963  27.999  43.450  13.303
87423W        W53964  40.452  17.369  13.896
87424W        W53965  28.500  28.047   4.040
87425W        W53966  12.442   1.548   4.603
87426W        W53967   7.160  28.367   1.480
87427W        W53968  15.020  19.273   4.060
87428W        W53969  18.968   4.816   4.664
87429W        W53970  32.881   6.888  12.189
87430W        W53971  44.905  35.918   1.327
87431W        W53972   0.938  10.881   4.899
87432W        W53973  32.832  31.737   2.871
87433W        W53974  18.839   4.322  10.349
87434W        W53975  40.778  16.671   5.355
87435W        W53976  43.259  14.701  11.407
87436W        W53977  22.152  32.883   4.162
87437W        W53978   3.450  40.572   2.720
87438W        W53979  16.184   1.897  12.973
87439W        W53980  44.804  10.232   0.610
87440W        W53981   1.053  41.029  12.554
87441W        W53982  16.051  33.482  10.389
87442W        W53983  42.352  21.050   2.132
87443W        W53984  28.964  23.306   2.626
87444W        W53985  19.047   2.163  10.757
87445W        W53986  25.450  23.430  10.707
87446W        W53987  22.823   9.310  11.231
87447W        W53988  31.431  18.105  10.724
87448W        W53989  16.722  28.463  13.013
87449W        W53990  16.514   5.041  12.989
87450W        W53991   5.465  11.123   3.732
87451W        W53992  18.170  25.279   0.927
87452W        W53993  21.531  14.692  11.087
87453W        W53994  43.422  31.158  11.947
87454W        W53995  19.842  11.522   4.122
87455W        W53996  18.305  37.114   4.331
87456W        W53997  38.872  37.083   0.091
87457W        W53998  29.448   7.137  13.641
87458W        W53999   8.180   4.283   1.010
87459W        W54000   3.149  18.375   0.709
87460W        W54001  40.121   3.516   0.022
87461W        W54002   9.217   5.291  12.480
87462W        W54003  20.353  10.390  11.953
87463W        W54004  11.746  39.476  12.897
87464W        W54005  41.704  41.544  12.451
87465W        W54006   0.894  29.330   1.472
87466W        W54007   4.234  24.699   3.269
87467W        W54008  10.436  34.752  10.612
87468W        W54009  21.867  31.875   2.259
87469W        W54010   3.234  33.513   2.556
87470W        W54011  29.448  29.222   2.451
87471W        W54012  25.000  39.901   3.616
87472W        W54013  11.816  27.925  11.648
87473W        W54014   8.606  37.533   3.693
87474W        W54015  16.361  14.124  12.596
87475W        W54016  13.358   9.848   1.173
87476W        W54017  34.395  17.581   3.752
87477W        W54018  30.129  25.241  13.626
87478W        W54019  30.109  25.164  12.316
87479W        W54020  13.079  13.227   4.391
87480W        W54021  36.920  21.551  14.453
87481W        W54022  33.675   8.221  11.677
87482W        W54023  35.086  30.930   2.442
87483W        W54024  39.699  32.055  12.014
87484W        W54025  31.828  24.939  14.612
87485W        W54026  19.955  23.612  13.659
87486W        W54027  25.148  25.195   0.861
87487W        W54028  39.478   6.407  10.764
87488W        W54029  23.318   3.238   4.119
87489W        W54030   1.560  24.608  13.825
87490W        W54031  25.025  30.913  14.314
87491W        W54032   1.184  15.190   0.774
87492W        W54033  14.865  22.302  11.091
87493W        W54034  44.398  22.066  14.920
87494W        W54035  12.656   5.366   2.873
87495W        W54036   3.757   2.646   1.007
87496W        W54037  15.147  26.343   4.503
87497W        W54038  41.167  25.483   4.586
87498W        W54039  35.216   1.206   4.133
87499W        W54040  35.348   0.909   3.331
87500W        W54041  16.078  14.227  11.622
87501W        W54042  32.202  44.894  11.078
87502W        W54043  41.584  21.741  14.161
87503W        W54044   6.812   1.912  12.030
87504W        W54045  14.311  17.646  14.479
87505W        W54046   6.863   7.542  13.884
87506W        W54047  39.750  30.093   1.823
87507W        W54048   8.839  23.061   1.260
87508W        W54049   6.303  24.106   0.437
87509W        W54050  43.271  16.608   0.487
87510W        W54051  38.781  13.884   3.678
87511W        W54052  23.485  18.211   3.342
87512W        W54053  10.346   8.121  12.630
87513W        W54054  32.388  12.426  12.556
87514W        W54055  14.281  11.216   3.537
87515W        W54056  26.272  22.232   0.063
87516W        W54057  38.924  39.857   1.699
87517W        W54058  10.268   3.266   9.878
87518W        W54059  42.927   5.650  14.718
87519W        W54060  23.225  44.494  11.657
87520W        W54061  33.847  32.162  10.794
87521W        W54062  20.962  31.395  12.318
87522W        W54063  44.889   5.890   3.852
87523W        W54064  24.281  20.773  13.094
87524W        W54065   9.876  20.687  12.608
87525W        W54066  30.730  12.046   4.002
87526W        W54067  27.152  44.129   4.913
87527W        W54068  32.977   4.569  12.442
87528W        W54069  19.196  44.672   0.399
87529W        W54070  13.809  36.317  10.737
87530W        W54071   9.569   4.237   0.278
87531W        W54072  44.239  36.803  11.072
87532W        W54073  34.574  33.555   0.284
87533W        W54074  15.661  42.818  14.079
87534W        W54075  36.146  40.476  10.879
87535W        W54076  21.160  44.871   1.692
87536W        W54077  14.142  10.880   3.164
87537W        W54078  25.238  27.542   0.834
87538W        W54079  21.758  12.233  13.915
87539W        W54080   1.380   8.145  12.538
87540W        W54081  44.311  40.996  11.033
87541W        W54082  20.279   1.520   3.665
87542W        W54083  20.119  40.503   1.722
87543W        W54084  39.494  12.964   1.902
87544W        W54085  17.649  36.962   0.806
87545W        W54086  11.347  40.906   4.256
87546W        W54087   1.295  24.649   3.726
87547W        W54088  23.020  12.323   0.807
87548W        W54089  28.443  28.393  11.223
87549W        W54090  24.939  26.403  10.912
87550W        W54091  41.619  21.262   4.259
87551W        W54092  31.808  32.213   0.959
87552W        W54093  33.529  18.300  13.552
87553W        W54094  29.698  23.432   3.196
87554W        W54095   0.531   3.676   4.646
87555W        W54096  17.394  26.037   1.468
87556W        W54097  35.339   9.508   4.142
87557W        W54098  23.605  28.008   0.686
87558W        W54099  33.484  12.256  11.279
87559W        W54100  32.807   1.610  10.640
87560W        W54101  22.276  14.173  10.830
87561W        W54102   0.305  33.680   1.443
87562W        W54103   5.546  12.540   1.959
87563W        W54104  13.053  28.096  12.916
87564W        W54105  29.171  36.288   4.144
87565W        W54106  33.400  19.913   4.511
87566W        W54107   8.697  10.216  11.170
87567W        W54108  22.606  29.677  14.842
87568W        W54109  12.568  19.254   4.295
87569W        W54110  11.354  15.257  10.986
87570W        W54111   0.570   3.346  14.822
87571W        W54112  38.260  28.460   2.464
87572W        W54113  29.056  39.527   0.899
87573W        W54114   1.524   3.465   1.379
87574W        W54115  12.582  31.636   3.683
87575W        W54116  32.893  13.330  11.513
87576W        W54117  12.127   1.448   1.302
87577W        W54118  43.580  11.146  14.805
87578W        W54119  37.558  24.096   1.882
87579W        W54120  19.937  18.483  13.451
87580W        W54121  19.303  25.045   0.360
87581W        W54122  31.045  14.931  14.061
87582W        W54123  39.310  27.517  12.951
87583W        W54124  15.611  21.519  14.922
87584W        W54125  30.098  24.793  14.971
87585W        W54126   7.237  10.738  14.368
87586W        W54127   1.825   6.314  12.461
87587W        W54128  44.322   7.300  11.859
87588W        W54129  32.380  32.446  12.417
87589W        W54130  15.581   7.822   3.837
87590W        W54131  29.524  12.085   0.507
87591W        W54132  13.376  16.710   3.625
87592W        W54133  42.852  16.313  11.575
87593W        W54134  34.145  38.138   2.824
87594W        W54135  17.039   1.514  12.018
87595W        W54136  21.534  24.459   4.532
87596W        W54137  27.186  29.713   4.652
87597W        W54138  25.687  42.369  13.510
87598W        W54139  24.257  32.619   0.282
87599W        W54140  23.632  33.407   1.257
87600W        W54141  33.612  17.603  14.710
87601W        W54142  43.228  12.586  14.009
87602W        W54143  12.167  35.911   1.719
87603W        W54144  13.364  29.012   2.366
87604W        W54145  28.574  16.119  13.461
87605W        W54146  20.327  22.806   4.540
87606W        W54147  21.539  19.253   3.636
87607W        W54148  44.608   1.338  14.385
87608W        W54149  13.200   6.420   3.306
87609W        W54150  25.728  29.017   4.385
87610W        W54151  25.974  25.804   4.818
87611W        W54152  19.086  15.710   4.541
87612W        W54153  41.723  38.329  10.732
87613W        W54154  18.643  25.745  11.040
87614W        W54155  39.100  35.430  13.027
87615W        W54156  16.671  12.675   1.199
87616W        W54157  34.628  44.873   2.321
87617W        W54158  23.731  11.794  14.870
87618W        W54159  16.290   2.370   0.474
87619W        W54160   1.830  32.870   1.294
87620W        W54161  18.540   8.613   1.305
87621W        W54162  43.261  18.205   2.900
87622W        W54163   5.594  44.658  13.481
87623W        W54164   5.689  43.017  14.455
87624W        W54165  32.521   8.791  12.104
87625W        W54166   2.946  16.329   2.325
87626W        W54167   6.352  41.908  12.604
87627W        W54168  43.735  36.960  12.508
87628W        W54169   2.862  20.994   1.802
87629W        W54170  34.379  31.711  12.205
87630W        W54171   3.222  12.871  11.648
87631W        W54172  30.454   8.911  14.323
87632W        W54173  38.790  40.170   4.386
87633W        W54174  21.585  38.362  12.533
87634W        W54175  43.805  12.777   4.685
87635W        W54176  17.064  36.066  11.186
87636W        W54177   6.509   1.310   4.646
87637W        W54178  33.433  44.512   3.275
87638W        W54179  15.398  17.516   3.433
87639W        W54180  43.547   3.116  14.246
87640W        W54181  35.162  26.903   2.465
87641W        W54182  13.761  19.713  14.972
87642W        W54183   5.185  11.236   0.283
87643W        W54184  15.513   0.644  14.454
87644W        W54185  39.525  28.757  14.190
87645W        W54186  24.204  36.643  14.370
87646W        W54187  44.769  12.286   1.938
87647W        W54188   4.005   0.418  13.378
87648W        W54189  32.425  33.164  11.978
87649W        W54190  40.536  25.943  10.691
87650W        W54191  27.749  26.992   4.387
87651W        W54192  38.561  34.702  13.482
87652W        W54193  42.903   6.022   3.156
87653W        W54194  31.871  43.811   1.913
87654W        W54195   9.698   9.860   4.135
87655W        W54196  23.096  36.097   2.328
87656W        W54197  21.759  14.220   4.684
87657W        W54198  17.058  22.034  10.773
87658W        W54199  12.653  29.690   5.032
87659W        W54200   1.633   4.147   1.033
87660W        W54201   8.643  44.687  11.237
87661W        W54202   2.984  39.951   0.381
87662W        W54203   3.192   0.278   9.821
87663W        W54204  22.533   6.840  11.172
87664W        W54205   1.311  32.020   3.302
87665W        W54206  33.508  21.365  14.779
87666W        W54207   6.505  40.659  10.726
87667W        W54208  31.519  21.599  10.801
87668W        W54209  20.030  43.388   5.005
87669W        W54210  26.526  23.486   1.839
87670W        W54211   7.882  24.986   1.699
87671W        W54212  41.794   5.877  11.619
87672W        W54213   7.754  12.380  12.884
87673W        W54214  32.716   1.716  11.138
87674W        W54215   9.021  40.605   3.596
87675W        W54216  21.942  44.753  11.682
87676W        W54217  19.675   0.788   3.283
87677W        W54218  14.638  39.881  13.157
87678W        W54219  38.489  27.147  10.446
87679W        W54220  29.938  16.153  14.316
87680W        W54221  11.771  19.821   1.361
87681W        W54222  38.354   0.720   1.888
87682W        W54223   6.545  38.570   1.593
87683W        W54224  15.339  35.842  12.295
87684W        W54225   3.449  34.119   3.364
87685W        W54226  14.917   3.478  11.421
87686W        W54227  36.868  10.371   0.879
87687W        W54228  38.587  25.450  14.408
87688W        W54229  25.107  24.909  14.801
87689W        W54230  26.321   0.401  12.137
87690W        W54231  27.528   9.195  11.706
87691W        W54232   0.779  36.152   0.961
87692W        W54233  44.041  39.634  10.880
87693W        W54234   1.914  38.819  14.690
87694W        W54235   1.379   3.150  13.510
87695W        W54236  25.863  26.021   2.530
87696W        W54237  37.576  30.497  14.694
87697W        W54238  42.369  41.379   0.665
87698W        W54239  28.416  40.559   4.509
87699W        W54240  35.958  10.280  13.828
87700W        W54241   5.914  38.152  10.257
87701W        W54242  31.086  17.224   2.377
87702W        W54243   0.554  36.654   1.026
87703W        W54244  28.135  24.416   1.255
87704W        W54245   5.487  33.619  12.902
87705W        W54246  14.743   1.891   0.553
87706W        W54247  35.189  40.466   1.990
87707W        W54248  14.249  15.146   0.270
87708W        W54249  40.081   9.620   2.218
87709W        W54250  26.615  17.697  10.905
87710W        W54251  40.851  11.649  14.752
87711W        W54252  44.795  42.180   4.221
87712W        W54253   7.743  31.152  13.103
87713W        W54254  11.724  19.735  13.302
87714W        W54255  11.140  14.207  13.640
87715W        W54256  19.955  28.309  11.586
87716W        W54257  24.086  41.548  12.626
87717W        W54258  24.780  42.691  14.909
87718W        W54259  22.532  28.911   2.709
87719W        W54260  37.611  34.492   0.920
87720W        W54261  37.460   5.938   3.792
87721W        W54262  27.667  31.571   2.867
87722W        W54263  27.976   7.283   4.640
87723W        W54264  10.141  30.191   3.202
87724W        W54265  28.045  33.865  14.797
87725W        W54266  11.714   8.306  13.137
87726W        W54267  14.923  43.230   4.753
87727W        W54268  29.162  11.862  14.241
87728W        W54269  16.698   1.735  13.820
87729W        W54270   9.412  27.819   3.027
87730W        W54271  12.116   9.840  12.013
87731W        W54272  15.295  29.590   3.206
87732W        W54273  44.976  33.465  12.393
87733W        W54274   9.319  10.998  11.411
87734W        W54275  10.023  15.219   2.762
87735W        W54276  10.687   6.141  11.246
87736W        W54277  30.691  19.351   4.181
87737W        W54278  12.525  32.602  10.187
87738W        W54279   2.205  17.592   4.035
87739W        W54280  29.074  23.425   1.218
87740W        W54281  36.296  35.784  13.953
87741W        W54282  33.800  22.873   4.126
87742W        W54283  15.439  21.193  11.245
87743W        W54284   5.198  26.174  12.396
87744W        W54285   6.090   5.376  11.524
87745W        W54286  17.846  23.853   2.434
87746W        W54287  40.396  20.472  13.777
87747W        W54288  44.278   9.246   4.542
87748W        W54289  18.014  35.837   1.785
87749W        W54290   1.917  40.581  14.334
87750W        W54291  39.738  31.148   1.809
87751W        W54292  29.852  19.160   2.863
87752W        W54293  22.519  11.082  13.046
87753W        W54294  39.422  28.515   0.566
87754W        W54295   7.099  30.004  11.477
87755W        W54296  40.973  43.812  10.416
87756W        W54297  25.223  20.686   2.253
87757W        W54298  42.314  11.586   1.691
87758W        W54299   5.009  10.361   0.920
87759W        W54300  36.358  24.676  14.454
87760W        W54301  21.646  21.677  13.879
87761W        W54302  19.415  25.253  14.912
87762W        W54303  36.816  31.441   1.657
87763W        W54304  23.389  22.651  11.547
87764W        W54305  40.020  28.146   0.516
87765W        W54306   5.193  30.188   2.260
87766W        W54307  20.283   5.232  13.905
87767W        W54308  41.269  30.517   0.279
87768W        W54309  44.735  36.920   1.308
87769W        W54310  44.782  10.746   4.230
87770W        W54311   4.358   4.474   5.364
87771W        W54312  18.457  44.109   4.215
87772W        W54313  43.529  16.298   4.267
87773W        W54314  34.019  14.220   1.913
87774W        W54315  32.088  42.420   0.058
87775W        W54316  40.884  11.922  11.614
87776W        W54317   6.729  41.721  11.670
87777W        W54318  12.248  44.873   0.843
87778W        W54319  42.182  39.311  13.446
87779W        W54320   5.709   3.960   1.797
87780W        W54321  18.745   9.796   0.025
87781W        W54322  37.858  21.276   4.262
87782W        W54323  28.884  20.252   1.752
87783W        W54324  43.851  42.806  13.008
87784W        W54325   6.581  30.430  10.705
87785W        W54326  20.755  42.356  13.862
87786W        W54327   4.234  43.932  14.506
87787W        W54328  26.178  20.057   3.215
87788W        W54329   3.510  10.294   3.166
87789W        W54330  34.117  16.896   1.829
87790W        W54331  23.023  42.724   1.110
87791W        W54332   1.032  14.085   3.630
87792W        W54333  44.782   2.394  11.589
87793W        W54334  27.552   9.645  13.955
87794W        W54335  22.881  26.489  13.892
87795W        W54336  21.322  37.945  13.294
87796W        W54337  44.696  24.023   3.267
87797W        W54338  35.113  24.737  12.928
87798W        W54339  13.886  23.021   2.140
87799W        W54340   0.564  34.550  12.538
87800W        W54341  30.933  31.209  14.906
87801W        W54342  14.113  30.371  14.588
87802W        W54343  40.870  20.061   1.915
87803W        W54344  33.851   2.716   1.813
87804W        W54345  11.757  44.866   4.106
87805W        W54346  41.281  12.909   3.973
87806W        W54347  30.947  11.380  13.755
87807W        W54348  19.312  33.293  10.743
87808W        W54349  26.588   8.692  14.841
87809W        W54350  14.894  30.177   5.515
87810W        W54351  16.007  14.206   5.141
87811W        W54352  15.587  42.659  13.158
87812W        W54353  44.049  23.139  13.054
87813W        W54354  43.041   5.680   3.538
87814W        W54355  37.237  17.034   0.772
87815W        W54356   6.671  20.690   0.898
87816W        W54357  38.104  21.558  14.448
87817W        W54358   6.912  11.981   1.800
87818W        W54359   1.826  28.820   3.626
87819W        W54360  42.266  15.238  12.998
87820W        W54361   8.255  38.405  11.683
87821W        W54362   6.732  18.094   4.405
87822W        W54363  32.578  20.036   4.185
87823W        W54364  14.634  10.414  13.382
87824W        W54365  16.247   0.937   1.459
87825W        W54366  28.001  21.188  10.604
87826W        W54367  41.553  29.808  14.621
87827W        W54368  26.935  10.364   3.942
87828W        W54369  40.211   9.552  14.456
87829W        W54370  14.069   9.674   2.721
87830W        W54371  16.049  10.153  13.846
87831W        W54372  21.673  21.007  11.677
87832W        W54373  19.323   3.933  13.047
87833W        W54374   7.664  34.881  10.490
87834W        W54375  27.573   4.410   1.614
87835W        W54376   9.664   1.164   0.842
87836W        W54377   3.291   3.936  10.752
87837W        W54378  26.770   2.955  11.072
87838W        W54379   3.039   6.919  10.627
87839W        W54380  11.870  20.255  11.619
87840W        W54381  40.556   1.022   2.080
87841W        W54382  27.059  38.318  12.427
87842W        W54383  19.249   7.257  14.570
87843W        W54384  26.825  30.938  13.448
87844W        W54385  12.163  17.277   0.921
87845W        W54386  42.007  37.397  10.730
87846W        W54387   8.468  20.939   4.489
87847W        W54388   4.325  13.246   1.926
87848W        W54389  15.916   9.390  11.146
87849W        W54390  36.889  26.036  10.675
87850W        W54391  28.232  22.844  12.403
87851W        W54392  26.175  33.529  13.766
87852W        W54393  22.474  34.551   2.659
87853W        W54394  33.083  43.708   2.193
87854W        W54395  40.128  14.847  11.581
87855W        W54396  23.764  28.549  12.389
87856W        W54397  20.452   6.514  12.931
87857W        W54398   0.238   2.876   1.849
87858W        W54399  10.718  34.690  12.121
87859W        W54400  28.513  15.180   3.790
87860W        W54401  11.362  31.580  12.358
87861W        W54402   6.252  15.834   2.454
87862W        W54403  23.483  41.972  14.409
87863W        W54404  32.615   3.750  13.494
87864W        W54405  42.839  22.823  13.285
87865W        W54406   9.673  42.043  12.866
87866W        W54407  25.619  38.426   0.013
87867W        W54408  37.334  14.811  14.395
87868W        W54409  35.457  21.210   0.340
87869W        W54410  26.948  39.563   0.022
87870W        W54411  39.691   8.376  14.347
87871W        W54412   7.533   5.431  10.868
87872W        W54413  10.617  11.836   3.211
87873W        W54414  29.478   7.283  12.206
87874W        W54415  10.905  22.311  14.411
87875W        W54416  11.205  15.192   4.358
87876W        W54417  10.146  27.959   3.815
87877W        W54418   9.615  26.723   0.425
87878W        W54419  44.567  22.284  14.457
87879W        W54420  33.438  37.597   4.416
87880W        W54421  10.620  16.500  13.387
87881W        W54422  11.403  40.070  10.459
87882W        W54423   5.643  18.874  11.146
87883W        W54424   9.468  14.547   4.502
87884W        W54425  39.521  41.742   2.671
87885W        W54426  32.212   3.824  10.606
87886W        W54427  44.293  28.453   4.176
87887W        W54428  25.907   1.303  12.048
87888W        W54429  36.323  29.466   4.568
87889W        W54430   3.460   3.888  12.115
87890W        W54431  37.546  31.354   0.928
87891W        W54432   3.769  22.721   2.205
87892W        W54433  37.337   5.301   1.589
87893W        W54434  41.056  25.147   4.174
87894W        W54435  22.555  26.668  12.033
87895W        W54436  34.411  44.155   4.262
87896W        W54437  15.491  38.466   0.023
87897W        W54438  18.977  30.938   4.570
87898W        W54439  21.648  17.197  10.142
87899W        W54440  34.366  25.128   0.162
87900W        W54441  23.893   4.823  13.876
87901W        W54442  29.512   9.801  14.197
87902W        W54443  25.760  12.188   4.428
87903W        W54444   4.311  38.043   3.485
87904W        W54445  23.201  17.800   0.200
87905W        W54446  24.164  11.689  13.989
87906W        W54447  29.678  19.080   4.264
87907W        W54448  40.550  18.655   3.078
87908W        W54449  13.188  13.725  13.142
87909W        W54450  41.612  20.368   1.325
87910W        W54451  28.731  43.140   9.795
87911W        W54452   5.947  17.282  13.480
87912W        W54453  12.221  40.451   4.312
87913W        W54454  17.070  15.355  11.634
87914W        W54455  19.619  19.576   3.455
87915W        W54456  24.141   5.837   0.851
87916W        W54457  27.344  16.610  10.721
87917W        W54458  32.223  42.387   2.930
87918W        W54459  34.633  17.570   1.384
87919W        W54460  28.420  19.150   2.711
87920W        W54461  35.793  39.812   1.625
87921W        W54462  32.529  42.599   4.872
87922W        W54463   7.315   7.347   2.612
87923W        W54464  13.566  13.793   1.039
87924W        W54465  22.061  37.042  11.493
87925W        W54466  44.460  44.670  12.478
87926W        W54467  10.950  38.258   5.273
87927W        W54468  14.517  19.263   0.911
87928W        W54469  42.774  13.587  14.924
87929W        W54470  22.562  22.106   3.329
87930W        W54471   0.752  21.144   0.717
87931W        W54472   6.174  19.657   1.742
87932W        W54473   1.797  29.460  13.462
87933W        W54474  29.572  42.420   2.105
87934W        W54475  17.384  10.134   3.820
87935W        W54476  29.253   2.932   0.963
87936W        W54477   8.706  42.227   3.320
87937W        W54478  31.658  37.727   0.226
87938W        W54479  15.110  36.820  12.060
87939W        W54480  29.110   9.373  13.852
87940W        W54481  40.159  43.166   2.353
87941W        W54482  23.147   6.159   4.088
87942W        W54483  10.736  44.622   4.263
87943W        W54484  10.253   8.637  12.579
87944W        W54485   5.006  15.658  10.291
87945W        W54486  29.473  16.347  12.104
87946W        W54487  31.593  37.780   0.751
87947W        W54488  10.091   3.947  13.450
87948W        W54489  37.612  25.389  12.547
87949W        W54490  26.573  33.467  11.987
87950W        W54491  21.314   4.692   4.749
87951W        W54492   1.216  12.310   1.763
87952W        W54493   3.368  15.672   0.880
87953W        W54494  35.600   0.709   1.322
87954W        W54495   8.829  21.087  13.573
87955W        W54496  33.925  10.537  12.148
87956W        W54497   5.681  40.976   0.337
87957W        W54498  36.316  27.450  14.072
87958W        W54499  35.724  20.763   3.515
87959W        W54500   5.190  32.644  14.469
87960W        W54501   3.352  30.546  11.836
87961W        W54502  32.746  15.712   4.295
87962W        W54503  31.797  28.574   2.937
87963W        W54504  15.487   2.930  14.572
87964W        W54505   2.141   1.274   2.035
87965W        W54506   1.854   5.410   2.151
87966W        W54507  36.825  37.460  12.060
87967W        W54508   2.673  16.047  12.154
87968W        W54509  22.955  44.897  11.475
87969W        W54510  21.745  39.651  13.368
87970W        W54511  38.477  16.542  11.879
87971W        W54512  17.279   4.277   4.187
87972W        W54513  38.779  14.361   0.348
87973W        W54514  29.093  39.915  13.938
87974W        W54515  17.180   9.619  11.131
87975W        W54516   6.350  30.450   0.726
87976W        W54517  29.248   4.265   0.901
87977W        W54518  10.160  20.333   0.458
87978W        W54519  16.482  25.415  11.986
87979W        W54520  36.624  25.271   4.971
87980W        W54521  21.208  28.517   1.720
87981W        W54522  16.504  23.000  11.271
87982W        W54523  36.349  39.507   2.836
87983W        W54524  27.948  40.979   3.008
87984W        W54525   6.496   2.854   5.000
87985W        W54526  26.089  29.749  13.820
87986W        W54527   4.118  11.185   3.716
87987W        W54528  27.478  36.701   0.054
87988W        W54529   6.961   1.144  12.475
87989W        W54530   4.410  41.560   2.818
87990W        W54531  44.332  16.890  13.367
87991W        W54532  30.941  43.608   0.722
87992W        W54533  24.372  36.707  10.884
87993W        W54534  42.716  15.953  14.912
87994W        W54535   7.623  30.356  14.547
87995W        W54536   2.136  34.078   5.026
87996W        W54537  37.145  18.950  12.064
87997W        W54538  22.944  32.591  10.435
87998W        W54539  24.678   4.651  11.245
87999W        W54540  42.296   1.316  12.814
88000W        W54541  35.532  26.950  14.057
88001W        W54542  29.172  41.977  10.888
88002W        W54543  18.098  13.657  13.490
88003W        W54544   0.750  22.670  13.347
88004W        W54545   6.967  35.426  13.910
88005W        W54546  28.947  25.634  11.211
88006W        W54547   0.722  21.177   0.190
88007W        W54548  19.291  21.341   2.750
88008W        W54549  25.764  20.920  14.579
88009W        W54550   9.304  20.280  11.549
88010W        W54551  24.683  27.573  12.092
88011W        W54552   5.693   6.810   2.019
88012W        W54553  19.662  32.350   1.603
88013W        W54554  32.400   7.359   0.391
88014W        W54555  26.106   8.239  13.060
88015W        W54556  26.677   3.941  10.452
88016W        W54557   1.294  43.067  10.447
88017W        W54558  43.999  32.141  12.522
88018W        W54559   0.231  33.420  10.804
88019W        W54560  32.063  22.564  12.045
88020W        W54561  23.089  39.903   1.880
88021W        W54562  37.524  34.670   1.409
88022W        W54563  35.409  34.749  11.539
88023W        W54564  17.172  34.762   2.846
88024W        W54565  31.491  44.841   4.534
88025W        W54566  22.848  11.250   1.308
88026W        W54567  11.964  30.001  14.943
88027W        W54568   7.439  30.471  13.667
88028W        W54569  31.961   0.001   1.438
88029W        W54570  18.551  37.874   1.329
88030W        W54571  28.473  10.421   1.593
88031W        W54572  16.545   5.412   1.911
88032W        W54573  42.008  32.436   2.236
88033W        W54574  30.557  24.410  14.662
88034W        W54575  36.880  13.130  12.957
88035W        W54576   8.284  13.200   4.398
88036W        W54577  23.626  16.043   1.596
88037W        W54578  13.284  44.391   4.860
88038W        W54579  22.694  35.826  13.826
88039W        W54580  11.853  10.032   2.293
88040W        W54581  25.535   3.897   3.751
88041W        W54582  26.030   6.901  10.311
88042W        W54583  10.164  25.705  13.320
88043W        W54584  13.284   0.420   4.772
88044W        W54585  11.705  19.545   0.756
88045W        W54586   7.291  25.555   1.217
88046W        W54587  32.956   5.730   4.490
88047W        W54588  32.511  23.845   3.373
88048W        W54589  32.396   8.435   4.146
88049W        W54590   5.358   0.672   0.211
88050W        W54591   5.546  10.521   4.445
88051W        W54592  39.587  30.686   3.078
88052W        W54593  27.090  44.760  14.370
88053W        W54594  10.360   1.820   1.319
88054W        W54595  20.818  19.301  11.134
88055W        W54596  15.109  17.084  13.440
88056W        W54597  20.842   4.277   0.601
88057W        W54598   7.201  42.741   4.418
88058W        W54599  31.424  24.230  14.997
88059W        W54600  16.609  24.178  13.425
88060W        W54601  11.147  28.951  14.343
88061W        W54602   6.777  19.562  11.470
88062W        W54603  27.089   1.800   3.213
88063W        W54604  29.435  22.095   1.449
88064W        W54605  37.517  19.577   1.874
88065W        W54606  15.218   3.783  11.867
88066W        W54607  10.587  31.867   2.264
88067W        W54608  39.503  18.006   1.028
88068W        W54609  27.921  25.699  12.043
88069W        W54610  26.103  39.590  14.371
88070W        W54611   6.444   7.479   4.660
88071W        W54612  25.024   2.794  11.564
88072W        W54613   3.737  39.024  11.524
88073W        W54614  35.168   4.389   2.328
88074W        W54615  27.872  36.471   0.333
88075W        W54616   7.815  19.765   0.588
88076W        W54617  27.395  30.223  13.911
88077W        W54618  18.371   1.713   1.310
88078W        W54619  25.114  16.138  10.938
88079W        W54620   5.722   2.966   5.425
88080W        W54621   9.312   0.385  11.633
88081W        W54622  13.058  33.227  11.618
88082W        W54623  18.085   4.243  13.930
88083W        W54624  26.234  41.728   0.906
88084W        W54625  29.168  37.477  13.283
88085W        W54626  35.669  21.541  12.658
88086W        W54627  23.945  27.435  12.574
88087W        W54628   6.445  17.340  13.441
88088W        W54629  25.724  18.854   0.392
88089W        W54630   1.849   7.340  14.784
88090W        W54631  34.973  14.588   0.838
88091W        W54632  22.006  43.420   1.646
88092W        W54633  29.450  35.377   0.623
88093W        W54634  19.422  28.930  11.438
88094W        W54635   8.752  43.756  11.119
88095W        W54636  42.041  18.349  12.540
88096W        W54637  36.094   1.947  12.053
88097W        W54638   9.089  19.730   2.179
88098W        W54639  43.388  14.157  10.671
88099W        W54640   1.906  40.843   3.206
88100W        W54641  15.551  12.157   2.234
88101W        W54642  41.517  40.848  14.812
88102W        W54643  16.057  14.811   3.748
88103W        W54644   3.932  13.330   3.631
88104W        W54645  40.352  20.512   3.607
88105W        W54646  31.101  33.470  11.994
88106W        W54647  27.075   8.906  13.989
88107W        W54648  42.431  32.122  12.542
88108W        W54649  38.214   2.496   3.231
88109W        W54650  37.879  26.614  14.051
88110W        W54651  33.011  42.890  11.639
88111W        W54652  16.722  40.991  12.862
88112W        W54653  29.385  24.599  13.017
88113W        W54654   1.379   5.717  10.723
88114W        W54655   4.577  32.954  13.697
88115W        W54656   1.022  34.268  13.547
88116W        W54657   5.887  38.830   3.269
88117W        W54658  39.955  33.645  13.290
88118W        W54659  21.239   9.828  12.624
88119W        W54660  32.483   8.271  11.982
88120W        W54661  35.005  18.815   1.397
88121W        W54662   7.779  30.337  14.052
88122W        W54663  39.812  12.356   0.807
88123W        W54664  30.007  31.160   3.278
88124W        W54665  16.970  35.903   1.760
88125W        W54666   9.159  33.743  10.669
88126W        W54667   5.190  17.185   1.854
88127W        W54668  10.541  39.582  10.154
88128W        W54669  29.996   2.155  11.906
88129W        W54670  16.277  40.855   1.641
88130W        W54671  20.771   2.225   1.750
88131W        W54672   1.745  25.547  14.343
88132W        W54673  30.335  17.082  14.468
88133W        W54674  20.801  23.976   0.441
88134W        W54675  36.958  43.749  10.424
88135W        W54676   5.532  32.161   0.868
88136W        W54677  27.929  42.926   0.948
88137W        W54678  34.071  24.788   2.749
88138W        W54679  23.191  38.980  12.129
88139W        W54680  10.868  17.106   4.180
88140W        W54681  43.989  29.609  12.476
88141W        W54682  21.490   7.007   2.356
88142W        W54683  44.077  29.609   0.830
88143W        W54684  10.772  32.922   3.834
88144W        W54685   8.387   4.354  10.616
88145W        W54686  26.698   7.794   3.413
88146W        W54687  39.833  15.294  14.249
88147W        W54688  10.606   7.698  11.082
88148W        W54689  29.761  44.512  13.945
88149W        W54690  18.543  34.449   4.890
88150W        W54691  11.694  40.966   1.607
88151W        W54692  42.249  27.682   2.685
88152W        W54693  36.158  32.667  11.495
88153W        W54694   7.788  16.118  13.477
88154W        W54695   5.407  34.089  14.018
88155W        W54696  37.961  22.160   3.578
88156W        W54697   8.429   2.170   0.968
88157W        W54698  16.696  10.154  11.473
88158W        W54699  39.818   3.340   1.293
88159W        W54700  27.593  39.402   1.600
88160W        W54701   3.667  12.081  14.442
88161W        W54702  11.373  33.777   2.680
88162W        W54703  39.019  11.189  11.008
88163W        W54704  30.831   0.513  12.861
88164W        W54705  29.343   1.392   3.857
88165W        W54706  31.188  42.941   1.785
88166W        W54707   6.854  31.903  14.729
88167W        W54708   9.363  29.770  11.739
88168W        W54709   5.233   4.259  11.883
88169W        W54710   8.321  40.459   5.527
88170W        W54711  38.340   0.344  13.553
88171W        W54712  16.449  18.913   3.267
88172W        W54713  15.895  23.930   4.571
88173W        W54714  41.422  26.700   1.463
88174W        W54715  18.154  29.758  11.621
88175W        W54716   3.574  18.558   4.990
88176W        W54717  12.088  19.976  12.932
88177W        W54718  18.599  12.268  12.511
88178W        W54719  40.932  31.531  11.926
88179W        W54720  29.062  17.117   2.883
88180W        W54721  41.264  38.475   4.788
88181W        W54722  12.136  39.327   2.687
88182W        W54723  33.883   6.233   5.000
88183W        W54724  30.847  15.758  12.852
88184W        W54725   5.764  29.340  12.480
88185W        W54726   1.524   0.300   3.169
88186W        W54727   6.399  43.310   1.501
88187W        W54728  12.621  28.088   1.649
88188W        W54729   1.479  27.031  14.448
88189W        W54730  21.760  35.588   2.256
88190W        W54731  41.902  11.157   2.726
88191W        W54732  26.697  29.923   0.148
88192W        W54733  32.896  19.771  11.219
88193W        W54734  27.368  30.521   0.390
88194W        W54735  26.460  40.005   1.948
88195W        W54736  37.582  33.450  11.268
88196W        W54737   0.922   5.023  13.012
88197W        W54738  35.802  10.556  12.857
88198W        W54739  42.950  40.107   2.784
88199W        W54740  37.437  18.852  13.762
88200W        W54741  13.883  36.279  14.507
88201W        W54742  31.093  35.799   0.758
88202W        W54743  25.391  27.484   4.560
88203W        W54744   6.771  44.914   1.659
88204W        W54745  32.667   6.812  13.321
88205W        W54746   7.394   8.192  13.035
88206W        W54747  22.907   3.292  12.134
88207W        W54748   9.999  34.173   3.257
88208W        W54749   0.323  21.545   2.361
88209W        W54750  16.630   4.024  12.944
88210W        W54751  12.522  15.606  14.343
88211W        W54752   4.405   5.705  11.896
88212W        W54753  18.855  16.040   0.526
88213W        W54754   2.318  32.526  11.865
88214W        W54755   0.993  16.334  10.618
88215W        W54756  36.005  44.441  14.648
88216W        W54757   7.300  37.658  12.952
88217W        W54758  32.714  12.050  13.916
88218W        W54759   0.031  21.550   1.902
88219W        W54760  12.370  35.444  11.598
88220W        W54761   7.392  31.443  11.500
88221W        W54762  31.716  36.532   2.108
88222W        W54763  19.653   3.006   1.469
88223W        W54764  34.362  33.575  14.810
88224W        W54765  37.039  25.697  13.399
88225W        W54766  13.383  34.469  11.572
88226W        W54767  44.792   1.714  14.074
88227W        W54768  37.602  41.521   1.718
88228W        W54769  38.607  27.158   4.227
88229W        W54770  33.604   3.420  12.930
88230W        W54771  42.004  20.583   1.069
88231W        W54772  39.194  37.962  10.293
88232W        W54773  41.268  39.940  14.922
88233W        W54774  17.168   4.973  13.749
88234W        W54775  12.385  35.665  12.901
88235W        W54776  13.069   8.271   4.679
88236W        W54777  33.160  15.760   4.592
88237W        W54778  37.538   4.915  12.819
88238W        W54779  13.861  31.501  12.524
88239W        W54780   1.852  38.064  12.609
88240W        W54781  38.015   5.420  13.940
88241W        W54782  37.562  33.944  11.144
88242W        W54783  42.489  30.714  10.456
88243W        W54784  39.478   9.664  13.746
88244W        W54785  22.810  37.331  11.083
88245W        W54786  12.630   6.898   3.210
88246W        W54787  19.665  44.396  13.872
88247W        W54788  15.147  39.393  13.786
88248W        W54789  16.288  31.433  14.379
88249W        W54790  28.391  11.650  10.793
88250W        W54791  28.433   6.686   1.310
88251W        W54792  17.153  29.265  14.011
88252W        W54793  30.338  42.875   0.314
88253W        W54794  27.897  40.632   1.165
88254W        W54795  21.140  19.276   1.812
88255W        W54796   4.644   3.233  12.603
88256W        W54797  34.556  24.515  12.072
88257W        W54798  18.799  34.824  13.046
88258W        W54799   5.453  21.533   4.006
88259W        W54800  30.504  10.093  11.137
88260W        W54801   9.240  37.154  12.294
88261W        W54802  36.685   6.260  10.025
88262W        W54803  33.622  18.758  10.695
88263W        W54804   4.982  12.741   2.575
88264W        W54805  39.402  23.994  12.012
88265W        W54806   8.381   2.502   4.006
88266W        W54807  34.571  23.547   0.196
88267W        W54808  17.154  22.307   2.298
88268W        W54809  31.852  17.217   4.025
88269W        W54810   4.151  40.843   3.033
88270W        W54811  27.196   0.376  10.699
88271W        W54812  32.394  39.901   0.072
88272W        W54813  43.704   8.203  13.574
88273W        W54814   8.089  30.291  12.471
88274W        W54815  39.593   5.404   1.405
88275W        W54816  27.523  18.474   2.158
88276W        W54817  33.134  33.586  12.007
88277W        W54818   9.912  32.996  12.544
88278W        W54819  24.244  24.619   3.178
88279W        W54820   7.942  39.291   1.898
88280W        W54821  38.877  24.616  14.549
88281W        W54822   2.374  34.814   1.907
88282W        W54823  17.101   6.212  10.180
88283W        W54824   8.537   9.391  12.041
88284W        W54825  23.186   8.257  12.765
88285W        W54826  10.823  39.568  12.453
88286W        W54827  20.091  15.371  10.429
88287W        W54828  16.291   8.296   4.976
88288W        W54829  19.391  12.715  10.433
88289W        W54830  39.712  25.070   4.519
88290W        W54831  12.169  20.745   3.695
88291W        W54832  14.983   5.724   0.458
88292W        W54833   1.559  23.017   4.192
88293W        W54834  23.132  42.907   3.734
88294W        W54835  14.995  31.387  14.807
88295W        W54836   1.414   9.758  12.198
88296W        W54837  10.783  36.969  13.988
88297W        W54838  16.495  23.533   2.207
88298W        W54839  11.259  37.059   0.006
88299W        W54840  15.763  40.341   4.762
88300W        W54841  22.193  39.768  13.995
88301W        W54842  39.240   2.897   3.712
88302W        W54843  44.393  18.630   2.951
88303W        W54844  22.047  38.570  12.391
88304W        W54845  33.506  19.495   1.200
88305W        W54846  34.355  19.883  11.438
88306W        W54847  11.406   9.628   4.024
88307W        W54848  32.830   6.870   2.700
88308W        W54849  35.919  30.115   3.117
88309W        W54850  20.440  15.059  13.951
88310W        W54851  27.742  33.432  10.524
88311W        W54852  25.218  33.378  10.720
88312W        W54853  23.707  17.109   0.419
88313W        W54854  34.515   5.646   1.352
88314W        W54855  32.642  17.236   4.512
88315W        W54856   6.000  11.156   4.475
88316W        W54857  25.631  42.530   3.202
88317W        W54858  10.933  14.347   4.724
88318W        W54859  40.727  33.543   0.975
88319W        W54860  42.162  13.286   9.852
88320W        W54861  40.507  10.833  11.065
88321W        W54862  40.319  22.554  14.511
88322W        W54863  44.247  31.130   0.448
88323W        W54864  34.582   2.052   1.582
88324W        W54865  21.115  35.027   4.959
88325W        W54866  33.448   6.384  11.654
88326W        W54867  41.556  34.494   4.477
88327W        W54868  40.466   3.849  10.764
88328W        W54869  26.413  38.603  14.347
88329W        W54870  22.264  18.332   4.777
88330W        W54871  40.346  39.407   1.427
88331W        W54872  31.012  14.782   5.120
88332W        W54873  23.617   7.960   4.959
88333W        W54874  42.869  17.355  10.704
88334W        W54875  34.975  29.003   0.399
88335W        W54876   4.430   1.148   4.673
88336W        W54877  12.879   9.648  12.398
88337W        W54878   5.502  14.121  14.997
88338W        W54879   9.249  41.524   9.875
88339W        W54880  19.855  37.668   3.260
88340W        W54881  20.800  25.633  11.564
88341W        W54882  44.929  11.317   4.102
88342W        W54883  29.164  26.505   2.822
88343W        W54884  15.027  38.748   0.070
88344W        W54885  39.603  43.705   1.078
88345W        W54886  17.809   9.604   3.750
88346W        W54887  24.646   8.073   0.903
88347W        W54888  16.235  15.166  13.832
88348W        W54889  37.148  37.756  13.776
88349W        W54890  16.246  24.676  12.332
88350W        W54891  14.757  26.633   0.779
88351W        W54892  37.969  13.425  12.135
88352W        W54893  15.086  41.812  14.401
88353W        W54894  20.103   5.941   3.642
88354W        W54895  39.415  25.717   3.045
88355W        W54896  30.377   5.444  11.305
88356W        W54897  31.130  40.449  14.942
88357W        W54898  25.032  36.784   0.836
88358W        W54899  23.943  12.736  10.742
88359W        W54900   8.183   2.935  14.321
88360W        W54901  28.630  12.413   0.496
88361W        W54902  17.068   0.806  10.926
88362W        W54903  23.460  38.542   3.648
88363W        W54904  27.395  15.483   4.141
88364W        W54905  36.846  15.532   3.212
88365W        W54906  18.743  12.349   0.989
88366W        W54907  32.830  26.301  12.638
88367W        W54908  23.588  34.019  12.016
88368W        W54909  14.128  22.441  12.160
88369W        W54910  44.821  39.916   4.719
88370W        W54911   5.731   6.817   1.454
88371W        W54912  27.960   9.014  11.976
88372W        W54913  20.235   8.203   3.897
88373W        W54914  40.294  36.929  12.602
88374W        W54915  19.338  22.276   2.406
88375W        W54916  34.505  14.626  12.100
88376W        W54917  12.625   2.480   1.038
88377W        W54918  31.429  14.115  13.371
88378W        W54919  16.925  40.585  13.120
88379W        W54920  38.567  18.143   0.438
88380W        W54921  15.056  22.054  12.675
88381W        W54922  42.664  22.145   4.057
88382W        W54923  21.662  32.056   0.414
88383W        W54924  36.583  34.467  13.990
88384W        W54925  25.250   4.419  13.964
88385W        W54926   0.119  17.303   2.721
88386W        W54927   6.196  26.844  11.971
88387W        W54928  19.705   0.824  13.598
88388W        W54929  28.632   6.858   0.854
88389W        W54930  13.547  14.089  10.138
88390W        W54931  44.614  27.003   3.015
88391W        W54932   2.349  10.736  12.072
88392W        W54933   7.254  10.922   4.725
88393W        W54934  25.928  39.943   4.992
88394W        W54935  32.152  14.674  13.440
88395W        W54936  40.483  28.622   4.832
88396W        W54937   0.444  44.266   1.315
88397W        W54938  30.495  31.943   2.854
88398W        W54939  30.993   0.383   2.091
88399W        W54940   2.947   6.805   2.778
88400W        W54941  21.902  22.766   3.637
88401W        W54942  11.233   3.530   2.760
88402W        W54943  21.733  12.838  14.405
88403W        W54944   4.381   8.990  13.895
88404W        W54945  32.731  26.124  10.557
88405W        W54946  29.893  10.707  12.852
88406W        W54947  23.405   7.868   5.437
88407W        W54948  38.797  15.477   1.434
88408W        W54949  20.536  25.731   2.437
88409W        W54950  11.926  15.476   5.066
88410W        W54951  15.304  19.637  12.969
88411W        W54952  31.052  33.557   3.212
88412W        W54953  41.358   1.020   3.228
88413W        W54954  16.172  29.150   2.173
88414W        W54955  12.478   2.954   2.654
88415W        W54956  18.792  35.299   3.053
88416W        W54957  24.257  36.117   1.215
88417W        W54958  39.806  16.572  11.160
88418W        W54959  24.009   7.710   1.380
88419W        W54960   8.176  28.133   3.268
88420W        W54961   3.895   4.479  14.497
88421W        W54962   8.216  12.695   2.605
88422W        W54963   1.889  29.463   2.828
88423W        W54964  41.496  15.271  12.492
88424W        W54965  24.781  36.328   2.724
88425W        W54966   3.282  18.164  12.598
88426W        W54967   8.105  31.096  13.985
88427W        W54968   7.390  15.146  12.504
88428W        W54969  40.748   3.391  10.640
88429W        W54970   3.351  10.276  12.813
88430W        W54971  15.870  19.137  12.162
88431W        W54972  39.697  22.706  11.988
88432W        W54973   3.068  23.912  12.286
88433W        W54974   0.009  37.851   2.232
88434W        W54975  27.204  33.465   0.732
88435W        W54976  32.841   4.298   3.075
88436W        W54977   1.387  11.267  12.439
88437W        W54978  28.250  23.700   2.148
88438W        W54979  36.397  16.458   4.227
88439W        W54980  38.535  38.258   0.427
88440W        W54981  13.404  35.339   3.719
88441W        W54982  25.516  27.288  13.333
88442W        W54983  44.728  39.332  11.416
88443W        W54984  13.871   5.883   1.267
88444W        W54985  35.781  40.312   1.439
88445W        W54986  44.465  39.270   3.791
88446W        W54987   1.369  30.339   0.452
88447W        W54988  37.468  14.251  14.772
88448W        W54989  18.979   8.912   1.694
88449W        W54990   6.123  26.537   1.849
88450W        W54991  19.832  10.233  10.724
88451W        W54992  18.569  34.310   0.531
88452W        W54993   7.827  34.443  14.614
88453W        W54994  14.816  16.549  12.623
88454W        W54995   6.423  28.446  14.990
88455W        W54996  12.561  32.788  11.070
88456W        W54997  26.658   6.997   4.339
88457W        W54998  27.802   7.844   2.691
88458W        W54999   6.455   0.705   1.813
88459W        W55000   1.294  37.389   2.161
88460W        W55001  41.552  16.610   0.006
88461W        W55002  39.612   3.823   1.859
88462W        W55003  26.140  24.646  14.986
88463W        W55004  15.333  26.117   4.075
88464W        W55005   2.285  27.178   3.113
88465W        W55006  34.737  29.713  12.649
88466W        W55007   7.097   9.924   3.844
88467W        W55008  26.570  34.120   1.265
88468W        W55009  30.858  19.144  13.043
88469W        W55010  16.213   1.886   3.430
88470W        W55011   1.506  20.553  12.653
88471W        W55012  14.586   3.347   2.855
88472W        W55013  42.948  18.945   3.801
88473W        W55014  23.849  26.997  12.815
88474W        W55015  29.109  26.218  10.631
88475W        W55016  26.871  18.134   1.925
88476W        W55017  28.606  39.811   1.747
88477W        W55018  12.517  23.227  11.170
88478W        W55019  17.716   0.180  12.951
88479W        W55020  29.844  19.097  12.810
88480W        W55021  13.346  29.076  11.990
88481W        W55022  24.655  18.554  10.730
88482W        W55023   5.797  34.526   3.162
88483W        W55024  36.640  35.459   3.145
88484W        W55025   5.948  16.900  12.456
88485W        W55026  30.924  19.838  13.972
88486W        W55027   7.218   1.669  10.315
88487W        W55028  43.961  30.081   2.391
88488W        W55029  23.701  26.751   4.235
88489W        W55030  38.850  27.081   2.690
88490W        W55031  37.625  14.872   2.470
88491W        W55032  43.819  40.273   4.092
88492W        W55033   6.723  29.056  12.108
88493W        W55034  19.848   3.662  13.083
88494W        W55035  41.445  40.845   4.375
88495W        W55036  20.858  37.434  14.367
88496W        W55037  24.855  31.746   2.734
88497W        W55038   7.644  42.022   3.165
88498W        W55039  33.622  32.946  11.277
88499W        W55040  20.478  28.716  14.267
88500W        W55041   2.822  40.315  13.992
88501W        W55042  11.446  29.518  13.121
88502W        W55043   7.060  37.035   3.858
88503W        W55044  33.024  33.547  13.825
88504W        W55045  18.770  34.501   2.826
88505W        W55046  29.494  16.617   0.708
88506W        W55047   7.805  12.112   1.541
88507W        W55048  41.390   9.170  12.100
88508W        W55049   5.024  11.245   4.673
88509W        W55050   1.730  32.604   1.734
88510W        W55051  37.583  35.008   1.000
88511W        W55052  21.630   8.735   0.112
88512W        W55053  16.982   3.715  11.587
88513W        W55054  23.481  41.886   0.249
88514W        W55055  17.171   3.785   2.259
88515W        W55056  18.801  25.875   1.447
88516W        W55057  35.021  23.543  13.419
88517W        W55058  25.284  33.308  13.237
88518W        W55059  24.624  24.006  11.694
88519W        W55060   3.410   6.847  11.877
88520W        W55061  35.461  13.429  13.474
88521W        W55062  42.543  26.056  10.769
88522W        W55063  24.174  40.181  12.473
88523W        W55064   3.438  38.900   1.429
88524W        W55065   5.659  13.680  14.410
88525W        W55066  12.167   7.406  13.439
88526W        W55067  15.820   6.016   4.173
88527W        W55068  12.319  12.683  12.906
88528W        W55069  22.603   3.473   1.766
88529W        W55070  36.771  26.009  12.441
88530W        W55071  18.357  18.274  10.913
88531W        W55072  28.019   1.202  14.640
88532W        W55073  14.398   9.418   0.383
88533W        W55074   8.315  17.625  13.951
88534W        W55075  35.461  28.116   4.528
88535W        W55076  37.087  15.050   3.284
88536W        W55077  13.394  25.573   0.799
88537W        W55078  30.329  36.462   3.314
88538W        W55079  27.928  44.348  10.546
88539W        W55080  40.048  18.975   4.228
88540W        W55081   6.207  23.543   4.250
88541W        W55082  17.842  31.674  10.389
88542W        W55083  26.554  16.156  12.625
88543W        W55084  14.419  11.946  10.968
88544W        W55085  21.146  16.281   4.425
88545W        W55086  24.142   2.401   2.374
88546W        W55087  24.154   6.903  14.067
88547W        W55088  31.868   9.382  10.659
88548W        W55089  26.184   4.475   2.784
88549W        W55090  41.894  31.201   0.332
88550W        W55091  36.068  17.486  11.126
88551W        W55092   0.923   3.985   4.541
88552W        W55093  21.023  17.021   0.938
88553W        W55094  24.087  14.474  12.602
88554W        W55095  26.205  30.416   0.947
88555W        W55096  15.577  31.396  13.802
88556W        W55097  37.364   8.847   4.607
88557W        W55098  23.025  29.576  14.461
88558W        W55099   4.774   5.868   4.047
88559W        W55100   1.516  13.765   2.854
88560W        W55101  13.100   5.745   1.740
88561W        W55102  20.790  21.245   2.671
88562W        W55103  24.231   3.997  12.763
88563W        W55104   9.335  22.782  11.195
88564W        W55105  42.348  24.562  13.795
88565W        W55106  44.298  35.970  10.416
88566W        W55107  19.885  40.494   9.781
88567W        W55108  37.060  29.153   4.240
88568W        W55109  24.717   4.401  12.890
88569W        W55110  40.440  27.407  13.342
88570W        W55111  12.280   5.959   3.392
88571W        W55112   3.264  28.638  12.037
88572W        W55113  35.653  39.240   3.358
88573W        W55114  34.147   0.536   0.194
88574W        W55115  12.210  13.824  11.122
88575W        W55116  21.250  36.330   1.147
88576W        W55117   2.167  13.605  13.359
88577W        W55118  40.057  12.122  13.962
88578W        W55119  33.071  18.358  10.720
88579W        W55120  35.416  31.218  11.188
88580W        W55121  24.164  23.197   4.808
88581W        W55122   2.290   4.009   1.832
88582W        W55123  40.795  27.073  12.107
88583W        W55124   9.215   8.662   4.741
88584W        W55125   7.655  32.372   0.509
88585W        W55126   0.178  34.585   0.434
88586W        W55127  42.089   4.023  11.437
88587W        W55128  18.692   6.351  13.279
88588W        W55129  12.889  41.856  10.762
88589W        W55130  13.114   3.802   0.534
88590W        W55131  19.275   8.383   4.172
88591W        W55132   4.470   2.512  13.012
88592W        W55133  14.677  19.374  14.544
88593W        W55134  10.119  25.605   1.906
88594W        W55135  41.080  16.176   4.614
88595W        W55136  16.001   8.648   4.152
88596W        W55137  31.671  37.607  10.393
88597W        W55138  39.138  29.328  14.799
88598W        W55139   8.362  28.350  13.219
88599W        W55140  10.876  33.635  13.051
88600W        W55141  14.127  10.865   1.411
88601W        W55142  33.957  36.466   1.957
88602W        W55143   6.459   0.315   0.071
88603W        W55144  33.676  26.859   1.787
88604W        W55145  30.266  11.062  11.580
88605W        W55146  37.404  39.122   4.627
88606W        W55147  11.204  12.317   2.767
88607W        W55148  36.593  41.686   4.194
88608W        W55149  41.059  39.338  11.211
88609W        W55150   0.985  12.650  12.103
88610W        W55151  37.483  40.135  11.481
88611W        W55152  40.789  42.730   1.304
88612W        W55153  27.470   0.787  14.733
88613W        W55154  23.922  36.833   4.235
88614W        W55155  16.203   4.212  11.887
88615W        W55156   8.436  42.029   0.678
88616W        W55157  25.470  32.811  12.526
88617W        W55158   9.631  19.111   1.748
88618W        W55159  26.123  40.724  10.708
88619W        W55160  33.348  10.101  11.262
88620W        W55161   5.213  20.310  11.451
88621W        W55162   6.710  21.673   4.613
88622W        W55163  27.183  38.384   4.291
88623W        W55164  42.127  19.556   3.675
88624W        W55165   6.819  36.223   3.768
88625W        W55166  39.783   6.417   4.609
88626W        W55167  24.597  15.123   3.442
88627W        W55168  32.068  22.523  12.584
88628W        W55169  43.212  16.230  11.221
88629W        W55170  21.540  20.769   4.782
88630W        W55171  13.763  12.696  13.439
88631W        W55172   2.997  38.845   1.709
88632W        W55173  10.892  26.292   4.304
88633W        W55174  30.843  31.454   4.372
88634W        W55175  31.642  15.571   3.792
88635W        W55176   7.173   7.238  13.290
88636W        W55177  39.833  25.618   2.132
88637W        W55178  39.141  25.344  11.245
88638W        W55179  11.643  14.276  13.765
88639W        W55180  16.344   2.481  13.466
88640W        W55181  43.111  15.002   2.238
88641W        W55182   5.400  35.802  10.714
88642W        W55183  40.779  35.865   4.354
88643W        W55184  14.653  21.146  14.095
88644W        W55185  30.927  15.326   9.746
88645W        W55186  37.532  32.997  11.539
88646W        W55187  15.144   5.802   3.660
88647W        W55188   4.882  42.110  13.589
88648W        W55189  10.938  24.435   0.755
88649W        W55190   5.763  14.162  10.916
88650W        W55191   1.733  36.864  14.565
88651W        W55192  31.560   5.722  12.794
88652W        W55193  16.230   0.449  12.886
88653W        W55194   2.867  34.563  14.766
88654W        W55195  40.041  19.166   1.250
88655W        W55196   2.394  35.120   2.346
88656W        W55197  22.675  23.927   2.865
88657W        W55198  11.260  34.930   0.788
88658W        W55199  40.596   4.938   5.099
88659W        W55200  15.745  27.994  13.023
88660W        W55201  23.967  42.360   2.737
88661W        W55202  32.373   5.410  11.199
88662W        W55203  41.084  39.516  14.217
88663W        W55204   5.222   7.464  13.915
88664W        W55205  27.657  40.075  14.871
88665W        W55206  35.825  23.215  14.904
88666W        W55207  34.868  20.738   4.074
88667W        W55208  16.168  30.970   1.857
88668W        W55209  12.028  14.155   0.827
88669W        W55210  34.026  14.334   0.736
88670W        W55211   6.967  10.336   1.196
88671W        W55212  23.346  13.092   3.306
88672W        W55213   7.668  32.870   3.073
88673W        W55214  29.481  35.114  11.604
88674W        W55215  26.042  44.037   0.284
88675W        W55216   3.773   9.225  14.140
88676W        W55217  39.336  10.343   0.127
88677W        W55218   2.872  15.626   2.935
88678W        W55219  18.839   5.205   1.356
88679W        W55220  33.404   9.485   2.128
88680W        W55221  40.156  43.124   3.163
88681W        W55222   8.719  28.510  11.533
88682W        W55223  38.533   0.489  11.008
88683W        W55224  22.196  33.807  10.622
88684W        W55225  36.316  30.619   0.859
88685W        W55226  35.501  26.527   0.330
88686W        W55227  17.862  23.799  10.878
88687W        W55228   9.170  35.263   2.179
88688W        W55229  40.701  26.452  14.251
88689W        W55230  37.264  22.431  14.406
88690W        W55231  24.187  13.240  13.979
88691W        W55232  44.828  10.281  11.688
88692W        W55233  26.555  33.545   4.483
88693W        W55234  39.786  38.388   0.757
88694W        W55235  43.266  26.514  11.259
88695W        W55236   8.653  37.468   4.623
88696W        W55237  35.983   0.338   2.403
88697W        W55238   7.145  14.110  10.508
88698W        W55239  31.965  21.550   1.216
88699W        W55240  26.043  40.819   4.364
88700W        W55241  12.261  19.526   1.893
88701W        W55242  41.908  21.277  13.588
88702W        W55243  20.537  39.463   1.004
88703W        W55244  33.015  44.915  10.664
88704W        W55245  35.410  40.291  13.022
88705W        W55246  17.946  25.269   1.394
88706W        W55247  18.555   8.304   2.783
88707W        W55248  28.864  32.556   4.482
88708W        W55249  17.181  28.956   0.941
88709W        W55250   9.236   3.260   2.591
88710W        W55251   6.751   7.718  13.347
88711W        W55252  30.560  19.684   1.179
88712W        W55253  29.497  14.962   1.105
88713W        W55254   5.398  26.139   2.907
88714W        W55255  42.219  34.606  13.952
88715W        W55256  39.715  27.650  13.850
88716W        W55257  17.175  38.377   4.338
88717W        W55258  34.970  35.445  11.818
88718W        W55259  42.319   1.968   4.028
88719W        W55260  43.937  43.820  12.194
88720W        W55261  27.243  30.079  14.415
88721W        W55262  21.757   3.393  10.792
88722W        W55263  28.044  36.662  10.253
88723W        W55264   4.027  22.136   3.830
88724W        W55265  38.667  37.899   1.841
88725W        W55266   9.462  27.352  14.403
88726W        W55267   8.266  11.694   3.830
88727W        W55268   4.883  22.697  13.365
88728W        W55269  16.830  16.161   0.353
88729W        W55270   6.746  17.324  14.439
88730W        W55271  15.754  33.406   1.180
88731W        W55272   6.251   4.651   1.707
88732W        W55273   6.883  43.993   2.381
88733W        W55274  35.937  36.573  12.511
88734W        W55275  28.061  14.614  12.486
88735W        W55276  17.778   8.913   2.207
88736W        W55277  13.448  23.260  13.948
88737W        W55278  42.447  36.334   2.113
88738W        W55279  21.628  34.635  14.595
88739W        W55280   5.764   9.686   3.334
88740W        W55281  10.612  30.863  14.341
88741W        W55282  42.381   3.496  11.266
88742W        W55283  39.537   2.473   1.041
88743W        W55284  35.863  33.777   3.677
88744W        W55285  17.255   8.953   4.208
88745W        W55286  33.852  40.898  13.388
88746W        W55287  38.134  43.958   3.547
88747W        W55288   4.398  21.271  10.603
88748W        W55289  28.456  20.432  12.087
88749W        W55290  26.014  21.511  13.927
88750W        W55291  34.042  41.365  12.740
88751W        W55292  13.022   7.437  12.008
88752W        W55293  28.566  24.751   3.368
88753W        W55294  35.146  26.627  10.209
88754W        W55295  12.400  22.556   2.800
88755W        W55296  23.967  13.592  10.982
88756W        W55297  30.500   2.227  11.592
88757W        W55298  14.705  29.935  13.535
88758W        W55299  20.189  14.844  13.140
88759W        W55300  41.501  28.428  11.226
88760W        W55301  42.978  30.945  14.037
88761W        W55302  12.145  19.286   3.453
88762W        W55303  17.752  30.062  11.699
88763W        W55304   3.400   9.362   3.117
88764W        W55305  17.567  34.002  10.710
88765W        W55306  40.405  10.673  12.689
88766W        W55307   7.716  41.205  12.001
88767W        W55308  20.017  30.154   2.155
88768W        W55309  33.403  37.777  10.616
88769W        W55310  21.839  13.198  14.032
88770W        W55311   3.818  27.012  11.882
88771W        W55312   7.245   6.787  11.701
88772W        W55313  14.160  43.292   2.542
88773W        W55314  18.636  24.569   4.608
88774W        W55315  44.242  12.864  11.609
88775W        W55316  10.360  13.289   1.262
88776W        W55317  29.502  19.683  10.736
88777W        W55318  14.702   6.149   0.405
88778W        W55319  37.573  42.355   1.024
88779W        W55320  13.165  21.493  12.395
88780W        W55321  30.260  11.575   5.514
88781W        W55322  37.827  17.958  10.643
88782W        W55323  23.523  35.653   0.972
88783W        W55324  38.724  21.998  11.906
88784W        W55325  39.243  21.203   4.201
88785W        W55326  20.352  32.191  13.804
88786W        W55327   9.220  35.053  12.598
88787W        W55328  12.846  14.652  11.899
88788W        W55329  10.892  20.580   3.165
88789W        W55330  39.342  43.018   1.448
88790W        W55331  18.754  36.998   3.696
88791W        W55332   7.658  25.567   4.047
88792W        W55333   7.797  23.185  14.465
88793W        W55334  37.391  36.058   4.153
88794W        W55335  37.447  24.322  14.759
88795W        W55336  43.974  30.607   2.385
88796W        W55337  27.877  24.031   3.414
88797W        W55338   9.404  32.804  10.739
88798W        W55339  44.385  37.943  13.856
88799W        W55340  40.953   9.933   3.215
88800W        W55341  31.158  29.146  13.478
88801W        W55342  18.091  22.493  10.695
88802W        W55343  35.073  26.277  11.557
88803W        W55344  11.722  42.519   0.932
88804W        W55345  44.337  13.625  11.039
88805W        W55346  11.556  40.514  14.917
88806W        W55347  33.172  32.705   1.957
88807W        W55348  29.524  22.243   9.795
88808W        W55349   4.039   2.497  12.082
88809W        W55350  40.929  20.210  14.359
88810W        W55351  15.597  11.571  11.393
88811W        W55352  21.479  19.646  11.686
88812W        W55353  28.143  11.257  14.233
88813W        W55354  32.858   4.618   0.405
88814W        W55355  36.071  21.758   4.131
88815W        W55356  16.013  20.627   3.669
88816W        W55357   2.762  35.849   2.443
88817W        W55358   0.416  12.056  13.439
88818W        W55359  36.910  32.968   4.806
88819W        W55360  37.019  30.366   3.202
88820W        W55361  15.162  25.001   1.215
88821W        W55362   3.518   6.891  10.392
88822W        W55363   5.292  16.360  13.902
88823W        W55364  42.140   9.645   0.454
88824W        W55365  20.874   7.571   1.355
88825W        W55366   7.419  37.968  12.562
88826W        W55367   9.390  28.685   2.952
88827W        W55368  44.671  26.199  12.078
88828W        W55369  21.875  33.617  13.560
88829W        W55370   9.718  21.813   3.127
88830W        W55371   3.464  31.409  13.982
88831W        W55372  25.707   0.029  11.256
88832W        W55373  13.199  38.778   2.852
88833W        W55374  41.864   2.939  14.903
88834W        W55375  39.955  16.526   1.770
88835W        W55376  26.716   6.967  12.387
88836W        W55377   9.288  34.791   0.500
88837W        W55378  24.166  10.766   2.588
88838W        W55379  22.838  15.241  14.059
88839W        W55380  19.841  11.464   2.857
88840W        W55381  25.673  11.636  14.255
88841W        W55382  21.099   8.732  11.692
88842W        W55383  20.743  26.138  11.722
88843W        W55384  20.101  37.066   3.443
88844W        W55385  30.421  25.508  10.650
88845W        W55386  25.764  25.456  13.432
88846W        W55387  22.028  24.571  11.223
88847W        W55388  28.634   5.348   1.389
88848W        W55389  42.092  32.967   4.340
88849W        W55390  11.098  34.582   3.190
88850W        W55391   0.143   1.495  11.762
88851W        W55392  24.477  39.660   3.613
88852W        W55393   5.198   9.683   4.212
88853W        W55394  21.155   6.108   1.880
88854W        W55395   1.730   4.959   1.277
88855W        W55396  41.680  10.481  10.605
88856W        W55397  35.465  14.992   3.428
88857W        W55398   8.128  36.356   1.373
88858W        W55399  23.539  36.881   2.241
88859W        W55400  42.859  22.746   3.140
88860W        W55401  41.798   1.250  11.929
88861W        W55402  34.566  39.206   1.362
88862W        W55403  23.255  41.075   1.775
88863W        W55404  15.949  20.507   1.001
88864W        W55405   1.153  11.331   4.599
88865W        W55406   0.475  24.032   2.627
88866W        W55407  19.241  14.623   3.252
88867W        W55408  39.042  27.406   4.017
88868W        W55409  32.940  37.965  11.750
88869W        W55410  22.729  34.060  13.607
88870W        W55411  41.564   9.180  13.354
88871W        W55412  21.190   0.681  10.762
88872W        W55413  34.057   1.341   1.811
88873W        W55414   1.080  11.825   3.688
88874W        W55415  39.280   4.980   1.349
88875W        W55416  33.858   1.953  13.022
88876W        W55417  13.311   3.274   1.334
88877W        W55418  11.768  33.443  12.840
88878W        W55419  12.315  35.010  13.325
88879W        W55420  22.583  17.604   4.458
88880W        W55421  28.902  14.349   3.580
88881W        W55422  16.753  18.977   2.869
88882W        W55423  22.118  19.588  13.840
88883W        W55424  41.255  26.541   9.882
88884W        W55425  24.296   5.443  11.783
88885W        W55426  23.623  34.849   1.432
88886W        W55427   0.050  38.790  10.605
88887W        W55428   9.776  43.427   3.194
88888W        W55429  44.268  38.982   3.326
88889W        W55430  29.593  18.917  14.264
88890W        W55431  19.330   3.911   1.845
88891W        W55432  35.838  23.043  14.432
88892W        W55433  39.696  11.054  12.137
88893W        W55434  23.023  19.778   4.941
88894W        W55435  36.534  31.118  12.436
88895W        W55436  12.362  33.116   2.988
88896W        W55437  31.555   6.031   2.159
88897W        W55438  23.391  34.117  12.463
88898W        W55439  33.253  13.892  10.653
88899W        W55440  40.344  37.950   1.406
88900W        W55441  11.911   5.377  14.768
88901W        W55442  21.310  41.883  11.133
88902W        W55443   7.118  30.144  13.456
88903W        W55444   9.587  14.347  11.310
88904W        W55445  14.101  11.649   1.827
88905W        W55446   9.311   7.371   1.808
88906W        W55447  44.668   1.073  12.628
88907W        W55448  23.613   3.824  13.908
88908W        W55449  26.899  18.125   4.386
88909W        W55450  23.072   8.170  11.046
88910W        W55451   4.828  15.580  13.807
88911W        W55452  30.630   1.573  13.075
88912W        W55453  17.442  34.431  12.510
88913W        W55454  23.259  19.985  11.011
88914W        W55455  23.092  44.238   2.961
88915W        W55456  36.963   3.737  13.431
88916W        W55457  35.038  43.465   4.591
88917W        W55458  33.479  31.262   0.293
88918W        W55459  24.664  32.648   4.595
88919W        W55460   5.758  44.720   4.257
88920W        W55461  21.583  32.174   3.143
88921W        W55462  19.048  23.429  13.519
88922W        W55463  39.909  30.433  13.229
88923W        W55464  39.235  31.367  14.805
88924W        W55465  12.235  39.237   1.144
88925W        W55466  40.736   1.138  14.326
88926W        W55467  28.539   6.199  11.399
88927W        W55468  26.953  30.875   3.114
88928W        W55469   8.950  17.414   0.457
88929W        W55470  23.072  33.607   0.161
88930W        W55471  43.449   9.129   1.967
88931W        W55472  41.466   4.778   3.602
88932W        W55473  19.776  21.534   1.954
88933W        W55474  17.500  18.173  10.719
88934W        W55475  33.657  20.677  11.583
88935W        W55476  38.852  36.067   0.243
88936W        W55477  21.774  33.563  12.167
88937W        W55478  43.210  13.395  11.144
88938W        W55479  23.044  16.273  13.245
88939W        W55480  14.778   3.619   2.435
88940W        W55481  26.522  30.172   0.579
88941W        W55482  18.045   4.778  13.818
88942W        W55483  39.394   8.394   4.486
88943W        W55484  26.824   7.740  11.329
88944W        W55485  39.075  26.131  13.435
88945W        W55486  39.399  30.559  13.270
88946W        W55487   8.633   2.288  12.912
88947W        W55488  42.803  35.027  14.427
88948W        W55489  39.988  14.844  12.951
88949W        W55490  22.671  27.204   3.530
88950W        W55491  34.807  25.210   2.253
88951W        W55492  10.100  28.383  14.080
88952W        W55493  12.610  23.538   3.794
88953W        W55494   8.348  20.524  14.003
88954W        W55495  35.638   3.294  13.378
88955W        W55496   5.352  40.613   2.948
88956W        W55497  10.044  39.783   3.644
88957W        W55498  41.017  11.126  10.270
88958W        W55499  42.024  37.485   1.819
88959W        W55500  20.123  30.151   4.292
88960W        W55501  27.585  29.686  12.640
88961W        W55502  38.643  30.037   2.475
88962W        W55503  13.868   6.615   2.813
88963W        W55504  42.930  23.587  12.103
88964W        W55505   4.266  43.551  10.452
88965W        W55506  33.666  13.050   2.866
88966W        W55507  31.724  25.214   0.101
88967W        W55508  16.232  11.352  11.065
88968W        W55509   0.979  24.660  12.351
88969W        W55510  13.336  12.710  12.668
88970W        W55511  36.688   6.660   0.284
88971W        W55512  36.156  15.415   4.158
88972W        W55513   0.298  27.524   2.707
88973W        W55514  26.779   8.710  10.656
88974W        W55515  43.949  33.296   3.050
88975W        W55516  38.724  26.949  13.108
88976W        W55517   4.923  22.577  14.291
88977W        W55518   0.430   3.359  13.336
88978W        W55519  39.890  24.222   0.448
88979W        W55520  37.316  41.038  12.403
88980W        W55521  25.719   7.145   4.136
88981W        W55522  14.102   4.512  14.835
88982W        W55523  33.456  39.487  11.937
88983W        W55524   8.134  10.953  11.551
88984W        W55525  22.281   3.296   0.025
88985W        W55526  26.221  16.504  13.584
88986W        W55527  27.029  37.599   0.401
88987W        W55528  27.741  30.175   4.693
88988W        W55529  19.048  27.045   0.735
88989W        W55530  17.055   1.962   2.327
88990W        W55531   1.658   8.662  12.382
88991W        W55532  32.052   2.476  13.536
88992W        W55533  37.235   1.283   4.891
88993W        W55534  25.287  22.663   3.179
88994W        W55535  35.745  14.766  12.369
88995W        W55536  29.880  18.318   3.208
88996W        W55537   7.984  13.687   4.538
88997W        W55538  18.674  40.362  12.610
88998W        W55539  27.116  40.955   3.263
88999W        W55540   4.847  27.509  10.168
89000W        W55541  42.848  14.119   0.450
89001W        W55542  14.677  42.576  13.000
89002W        W55543  37.161  41.609   4.196
89003W        W55544  16.032  11.321  11.545
89004W        W55545  28.365   4.344  14.823
89005W        W55546  35.862  13.368  13.964
89006W        W55547  33.549  22.267  12.909
89007W        W55548  13.758  31.631  12.017
89008W        W55549   7.499  37.461   0.335
89009W        W55550  21.666  10.212   3.918
89010W        W55551   0.823  33.139   1.793
89011W        W55552  24.508   4.925  12.937
89012W        W55553   6.390  38.018  10.043
89013W        W55554  26.383  32.075   3.562
89014W        W55555  21.164  37.522  10.627
89015W        W55556  44.463   2.730  12.423
89016W        W55557  38.985   5.390   3.162
89017W        W55558  31.448  18.668   1.754
89018W        W55559  41.882   0.421  12.881
89019W        W55560   8.331  23.537  10.643
89020W        W55561  38.612  20.040   0.294
89021W        W55562  20.155  20.243  10.759
89022W        W55563  21.573  30.671   3.596
89023W        W55564  23.710  29.718  12.325
89024W        W55565   1.281  41.222  12.118
89025W        W55566  27.249  38.900  11.616
89026W        W55567  27.496  42.459  12.108
89027W        W55568  35.171  10.123   0.453
89028W        W55569   6.776  16.728   1.180
89029W        W55570  34.335  21.605   2.887
89030W        W55571   8.625  18.234   3.167
89031W        W55572   8.610  19.082  11.973
89032W        W55573   3.729  22.990  14.801
89033W        W55574   9.282  14.072  10.995
89034W        W55575   7.443  21.028   4.761
89035W        W55576  18.938  34.381  11.637
89036W        W55577  12.747   2.448  13.992
89037W        W55578  20.138  38.604   4.114
89038W        W55579  34.284  22.070   2.644
89039W        W55580  27.942  22.006   0.434
89040W        W55581  34.414  27.738   3.249
89041W        W55582   4.021  21.784  11.224
89042W        W55583  32.961  23.686   3.166
89043W        W55584   1.391   5.548  11.640
89044W        W55585  14.177  30.174  12.563
89045W        W55586  27.866   8.048   1.714
89046W        W55587  35.261  42.441  13.619
89047W        W55588  26.973  15.551   2.384
89048W        W55589  26.658  35.920  14.385
89049W        W55590  13.180  18.974   1.013
89050W        W55591  20.276  19.898   1.425
89051W        W55592  38.377  22.028  14.429
89052W        W55593  31.445  16.037  11.496
89053W        W55594   3.329  38.795  11.265
89054W        W55595   2.934   8.690   1.080
89055W        W55596   3.685   3.864   0.881
89056W        W55597  27.014  17.986  13.466
89057W        W55598  39.275  25.717   0.373
89058W        W55599  29.565  39.149   3.703
89059W        W55600   1.714   5.298  13.349
89060W        W55601  16.206  12.408  10.339
89061W        W55602  41.258  15.353  12.929
89062W        W55603   5.755  26.447  11.830
89063W        W55604  31.056  37.836  11.056
89064W        W55605   2.156   4.470  11.063
89065W        W55606  29.909  35.939   1.353
89066W        W55607  42.955   8.680  10.718
89067W        W55608  34.268  44.705  11.148
89068W        W55609  19.489  31.294   3.258
89069W        W55610   0.498  31.379   0.214
89070W        W55611  35.956  34.688   3.300
89071W        W55612  30.153  26.300   2.912
89072W        W55613  27.505  36.074   1.962
89073W        W55614  21.544  41.808  13.764
89074W        W55615   7.372  29.659  12.103
89075W        W55616  28.313   8.411  13.093
89076W        W55617  41.567   8.983   0.972
89077W        W55618  37.595  12.387   0.747
89078W        W55619  39.184  19.954   4.848
89079W        W55620  19.321  21.237  10.696
89080W        W55621  20.982   3.469   0.430
89081W        W55622   3.088   7.776  14.444
89082W        W55623   7.294  10.200  13.633
89083W        W55624  13.745  25.428  14.509
89084W        W55625  44.254  26.058   0.738
89085W        W55626  18.765  31.568   2.629
89086W        W55627  35.240  14.797  12.569
89087W        W55628  28.187   0.716  14.773
89088W        W55629  11.723  29.781   1.355
89089W        W55630  24.713  43.776   4.183
89090W        W55631  36.655  10.347  10.366
89091W        W55632  11.867  40.729   2.110
89092W        W55633   7.370  21.518  13.463
89093W        W55634  32.809  41.603   2.353
89094W        W55635  44.652  34.496   0.372
89095W        W55636  30.668  22.264  13.454
89096W        W55637  17.969  23.179  12.584
89097W        W55638  33.512   4.469   4.534
89098W        W55639  25.258   5.021  10.063
89099W        W55640  25.153  31.251   0.937
89100W        W55641  24.215  39.347  12.869
89101W        W55642  27.244   3.827  14.365
89102W        W55643  11.363   7.071   0.575
89103W        W55644  27.983   3.833  10.518
89104W        W55645  17.347  18.166  12.941
89105W        W55646   7.834   1.311  14.466
89106W        W55647  38.555  21.204   4.918
89107W        W55648  23.211  20.257  12.381
89108W        W55649  26.943  36.402  13.968
89109W        W55650  19.159  30.609   0.306
89110W        W55651   2.979  22.501   1.788
89111W        W55652  30.345  13.462   1.394
89112W        W55653  15.614  13.345  12.469
89113W        W55654  19.322   7.698  14.308
89114W        W55655  29.949  25.318   4.890
89115W        W55656  32.858  31.486  12.575
89116W        W55657   6.438  17.167   2.630
89117W        W55658   2.341  26.816   2.752
89118W        W55659   8.701  22.106   3.285
89119W        W55660  19.088  27.892  13.055
89120W        W55661  40.196   1.459   4.660
89121W        W55662  12.051  33.911  14.815
89122W        W55663   0.717  38.626   3.783
89123W        W55664  38.402  17.955   1.296
89124W        W55665  28.223  41.372   1.920
89125W        W55666   6.604  31.816  11.598
89126W        W55667  32.110  34.849  12.942
89127W        W55668  36.033  44.000  14.938
89128W        W55669  39.114   4.020  11.943
89129W        W55670  40.539  10.207  12.850
89130W        W55671  18.907  17.253  10.589
89131W        W55672  31.901  41.588   2.835
89132W        W55673  42.347  28.933  13.479
89133W        W55674  11.754  10.874   3.850
89134W        W55675  28.885  39.256  14.787
89135W        W55676  41.411  27.182  13.917
89136W        W55677  24.309  41.557   2.230
89137W        W55678  40.181   8.454   3.243
89138W        W55679  37.468  25.946  14.039
89139W        W55680  23.469  36.591   3.158
89140W        W55681  36.072  39.963   0.631
89141W        W55682  30.914  24.215   1.207
89142W        W55683  39.382   1.449   4.245
89143W        W55684   6.849  26.557  11.432
89144W        W55685  43.783   6.885   3.475
89145W        W55686  16.323  37.842   1.963
89146W        W55687  18.002  20.259   1.267
89147W        W55688  28.190  43.692  12.056
89148W        W55689   5.876  10.380   4.048
89149W        W55690  13.243  27.608  10.783
89150W        W55691  29.313  39.063  14.977
89151W        W55692  17.109  13.253  11.664
89152W        W55693  41.783  11.573   4.096
89153W        W55694  41.840  30.251  14.482
89154W        W55695  10.574   7.605  13.020
89155W        W55696  21.216  17.144   0.459
89156W        W55697  28.488  21.066  14.150
89157W        W55698  27.767  42.291  13.071
89158W        W55699  38.489   1.496   1.492
89159W        W55700  44.837   0.027  12.577
89160W        W55701   5.817   0.204   3.084
89161W        W55702  25.938  11.093   4.066
89162W        W55703  29.190   7.717  14.456
89163W        W55704  37.030  24.695   4.384
89164W        W55705  21.315  34.354  13.873
89165W        W55706  13.386   5.944   0.453
89166W        W55707  42.662   2.323  13.263
89167W        W55708  18.323  42.324   3.163
89168W        W55709  22.776  36.079  14.915
89169W        W55710  30.363  15.884   4.272
89170W        W55711  29.399  40.094   3.751
89171W        W55712   5.761   8.118   2.253
89172W        W55713  34.404  17.931   4.127
89173W        W55714  36.026   5.829   0.191
89174W        W55715   9.618  32.018   2.644
89175W        W55716   1.959  14.730  14.289
89176W        W55717  26.193   9.405  11.078
89177W        W55718  31.878  17.156  14.661
89178W        W55719   5.393  15.534  14.938
89179W        W55720   7.690  42.488   4.163
89180W        W55721  34.600  42.558  13.974
89181W        W55722  14.761   8.432   3.637
89182W        W55723  34.057  18.297   1.876
89183W        W55724  35.410  22.590  12.099
89184W        W55725   9.016  13.566   3.827
89185W        W55726  35.443  14.786   4.418
89186W        W55727  13.689  12.038   0.962
89187W        W55728  11.279   0.987  12.289
89188W        W55729  25.191  11.012   4.165
89189W        W55730  19.511  40.568  12.142
89190W        W55731  35.088  44.943  13.878
89191W        W55732   6.299  28.899  13.298
89192W        W55733   5.756  24.492   1.542
89193W        W55734  22.685  42.316   1.402
89194W        W55735   7.768  23.764  12.993
89195W        W55736  38.531  21.830  13.010
89196W        W55737   7.812   1.037   4.148
89197W        W55738   9.579  40.990  14.818
89198W        W55739  14.114   2.435   0.009
89199W        W55740   6.946  25.381   2.739
89200W        W55741  18.778  27.659  13.505
89201W        W55742  42.100  30.550  14.936
89202W        W55743   5.838   6.301   2.035
89203W        W55744  12.293   9.915   3.107
89204W        W55745  10.735  16.825  13.798
89205W        W55746  12.534   4.504  13.073
89206W        W55747   1.165  28.403   1.810
89207W        W55748  31.644  17.984  13.848
89208W        W55749  44.135   2.699   4.244
89209W        W55750  41.856  30.469   2.342
89210W        W55751  25.411  11.176  10.556
89211W        W55752  29.100  27.855  13.337
89212W        W55753  37.292  17.102   3.781
89213W        W55754  39.325  12.347  13.371
89214W        W55755  25.733  24.531   1.351
89215W        W55756  42.442  22.255  13.878
89216W        W55757  19.975  38.312   1.437
89217W        W55758  31.007  14.334  11.221
89218W        W55759  43.550  27.125  11.620
89219W        W55760  34.883  27.687  12.576
89220W        W55761  26.157  10.728   1.322
89221W        W55762  31.558   0.985   2.049
89222W        W55763  18.285   4.249   2.900
89223W        W55764   8.477  19.024  11.083
89224W        W55765   2.044  25.112  10.262
89225W        W55766  38.978   3.260  11.201
89226W        W55767  41.519  35.641  13.422
89227W        W55768  10.433  24.731   2.763
89228W        W55769  27.472  10.615   1.097
89229W        W55770  11.621  34.032  12.507
89230W        W55771   7.894  27.504   0.596
89231W        W55772   0.271  35.772   2.585
89232W        W55773  38.106  16.744   1.456
89233W        W55774  36.518   6.976  12.376
89234W        W55775   9.559   6.881   3.608
89235W        W55776   9.788  17.526   1.317
89236W        W55777  32.992  11.127   1.680
89237W        W55778   8.812   9.258   3.064
89238W        W55779  10.795  41.156  13.684
89239W        W55780   3.918   3.634  13.391
89240W        W55781  20.693  27.762   2.791
89241W        W55782   8.734  18.787   0.148
89242W        W55783  20.230  29.013   0.516
89243W        W55784  15.195  34.053  11.769
89244W        W55785  34.056   4.271  12.434
89245W        W55786  20.750   0.884   4.117
89246W        W55787  11.952   3.693  12.465
89247W        W55788   0.788  28.505  13.342
89248W        W55789  35.516  29.151  14.533
89249W        W55790  25.239  32.421   0.643
89250W        W55791   4.083   1.693   1.245
89251W        W55792  41.026   9.188  13.512
89252W        W55793  24.764  31.583  11.702
89253W        W55794  41.416  28.545  11.696
89254W        W55795   7.305  21.536   2.263
89255W        W55796  26.063  40.866   1.414
89256W        W55797  34.358  25.235  12.429
89257W        W55798  34.792  27.246  11.864
89258W        W55799  41.653  44.431  14.392
89259W        W55800  19.918  42.024   2.242
89260W        W55801  13.042  15.826   0.395
89261W        W55802   0.235   4.281   3.243
89262W        W55803  38.250  19.189  14.323
89263W        W55804   7.413  22.102   2.885
89264W        W55805  37.917  43.086   4.783
89265W        W55806  44.992  39.042   4.749
89266W        W55807   8.651  38.494  12.530
89267W        W55808  13.268   6.744  11.131
89268W        W55809  31.885  26.609  13.854
89269W        W55810   8.344   4.993   3.312
89270W        W55811  16.214  11.283   2.790
89271W        W55812  25.899  17.025  13.589
89272W        W55813  10.749  29.120   4.827
89273W        W55814  41.628  17.707  11.893
89274W        W55815  39.748   5.936   3.862
89275W        W55816  27.665  35.368  12.547
89276W        W55817  13.833  36.686  13.288
89277W        W55818  24.998  37.468  11.530
89278W        W55819  25.491  10.835   2.766
89279W        W55820  32.359   4.439  11.400
89280W        W55821  20.631   5.882   4.937
89281W        W55822  42.288  43.928   3.292
89282W        W55823  15.011  38.160  13.108
89283W        W55824  24.056  43.718   0.304
89284W        W55825  44.146  42.517  11.031
89285W        W55826  25.291   9.932  13.387
89286W        W55827  44.942  29.741   2.191
89287W        W55828  40.837  44.177   4.611
89288W        W55829  25.194   0.667   1.295
89289W        W55830  27.109  23.827  14.794
89290W        W55831  30.487   8.456   2.749
89291W        W55832  30.698  10.915  14.277
89292W        W55833  16.050  42.970   4.008
89293W        W55834  15.179  39.463  14.831
89294W        W55835  41.805  32.083  12.928
89295W        W55836  36.864  23.046  10.687
89296W        W55837  15.596  13.307  14.210
89297W        W55838  36.727  32.867  14.419
89298W        W55839  12.944   6.949   2.786
89299W        W55840   3.337  31.591  11.760
89300W        W55841   5.061   7.392   4.772
89301W        W55842   0.298   2.031  10.962
89302W        W55843   9.811  32.124   1.703
89303W        W55844  15.749  35.309  11.113
89304W        W55845  34.390  43.766   0.968
89305W        W55846  20.286   7.668  13.615
89306W        W55847  38.760  15.640  13.487
89307W        W55848  25.626  32.667   0.886
89308W        W55849  20.861   5.131  12.963
89309W        W55850  18.883  41.246  12.448
89310W        W55851  19.680  13.118  10.591
89311W        W55852   3.775  44.117   4.631
89312W        W55853  21.079  21.241  14.206
89313W        W55854   8.313  18.249  10.725
89314W        W55855  26.106  19.728   3.650
89315W        W55856  38.639  26.887   0.346
89316W        W55857  34.390   0.286  13.159
89317W        W55858  31.364   0.647  12.088
89318W        W55859   5.203   2.409  14.408
89319W        W55860  44.547  38.546   4.173
89320W        W55861  22.295  14.489  13.845
89321W        W55862  28.362  29.596  14.445
89322W        W55863   3.161   9.232  12.203
89323W        W55864  11.297  19.301  14.769
89324W        W55865  40.096   7.640  10.757
89325W        W55866  40.641  32.959   4.144
89326W        W55867   6.222  31.000  14.942
89327W        W55868  13.285  33.687  11.621
89328W        W55869  32.413  18.081  11.376
89329W        W55870   4.587  23.084  12.148
89330W        W55871   8.652  41.540  12.479
89331W        W55872  10.782  17.833  14.822
89332W        W55873  28.832  17.687  12.603
89333W        W55874  43.827   1.353  13.151
89334W        W55875  16.016  37.770   4.866
89335W        W55876   2.665  28.049   2.581
89336W        W55877  13.612  18.281   0.452
89337W        W55878  24.202  22.682   4.667
89338W        W55879   2.335   5.273   3.693
89339W        W55880  24.195   0.479  13.042
89340W        W55881  24.245   2.335   1.463
89341W        W55882   3.387  35.991   0.747
89342W        W55883   2.534   0.647  13.176
89343W        W55884   8.384  35.126  13.028
89344W        W55885  20.777  40.613   0.521
89345W        W55886  37.814  19.797  13.769
89346W        W55887  34.651   1.795   3.632
89347W        W55888   2.963  38.014   2.169
89348W        W55889  19.804   8.320   0.825
89349W        W55890  40.474  25.036  13.027
89350W        W55891  10.873  32.166  11.593
89351W        W55892   2.442  37.331   3.585
89352W        W55893  28.606  32.392   3.241
89353W        W55894  41.490  22.207  12.551
89354W        W55895  23.959  16.320  12.335
89355W        W55896   7.239  23.260   0.068
89356W        W55897  21.253  12.878  13.482
89357W        W55898  18.935  26.218  11.262
89358W        W55899  14.622  25.222   3.261
89359W        W55900  25.751   6.477  10.246
89360W        W55901  25.121  21.966   2.704
89361W        W55902  34.159   2.851   0.551
89362W        W55903  16.063  36.561  12.539
89363W        W55904   6.670  11.211   1.249
89364W        W55905   4.755  31.132   3.275
89365W        W55906   7.100  14.661   2.145
89366W        W55907  32.005   3.744  12.395
89367W        W55908  23.223  12.638   3.621
89368W        W55909  20.301  30.571   1.976
89369W        W55910  24.185  43.843   2.164
89370W        W55911   9.151  21.450   0.116
89371W        W55912  20.108  30.126  11.833
89372W        W55913   0.848  30.376  14.885
89373W        W55914  28.706  13.759   1.536
89374W        W55915   1.790  16.572   0.243
89375W        W55916  35.612   3.953   2.414
89376W        W55917  36.742  41.424  14.005
89377W        W55918   1.255  32.954  11.031
89378W        W55919  43.276  43.440  10.608
89379W        W55920  19.742  37.598  10.807
89380W        W55921   3.950   5.937   3.475
89381W        W55922  36.745  23.439  11.624
89382W        W55923  42.839   6.785   2.426
89383W        W55924  42.824  21.777  10.943
89384W        W55925   5.784  38.869  10.784
89385W        W55926  20.172  22.583   1.536
89386W        W55927  13.222   0.181   3.069
89387W        W55928  10.537   1.790  14.208
89388W        W55929  11.828   3.962  14.773
89389W        W55930  21.161   6.189  12.358
89390W        W55931   5.345  40.338  14.917
89391W        W55932  28.448  19.169   3.911
89392W        W55933  22.214  39.835  14.527
89393W        W55934  17.778   6.907   4.090
89394W        W55935  33.589  35.530  12.059
89395W        W55936  23.693  42.252  12.946
89396W        W55937  12.767  44.885   2.885
89397W        W55938  30.911  14.868  12.099
89398W        W55939  19.796  35.601  12.167
89399W        W55940  22.521  43.284  13.451
89400W        W55941  34.277  44.791  12.963
89401W        W55942  44.305  21.083  13.324
89402W        W55943  12.138  24.456  10.669
89403W        W55944  24.261   5.314   0.875
89404W        W55945  42.722  42.098   2.652
89405W        W55946  25.550  39.648   2.131
89406W        W55947  23.475  23.135   3.293
89407W        W55948  34.742  41.525  13.483
89408W        W55949   1.470  38.792   0.869
89409W        W55950  37.750   6.799   4.750
89410W        W55951  14.563  43.209  10.914
89411W        W55952  32.024  32.030  13.494
89412W        W55953  43.770  24.973  11.161
89413W        W55954  26.268  36.906  13.175
89414W        W55955  16.471  13.328  13.860
89415W        W55956  23.789  14.316  10.530
89416W        W55957  14.929  13.387   9.948
89417W        W55958   0.397  18.481   1.815
89418W        W55959  30.765  23.610  13.472
89419W        W55960  29.032  36.609  12.828
89420W        W55961  44.579  43.418   4.827
89421W        W55962  31.324  15.549   4.196
89422W        W55963  11.109  27.767   0.272
89423W        W55964  40.105   8.882   2.694
89424W        W55965  37.570  27.726   3.161
89425W        W55966  42.343  35.844  11.117
89426W        W55967  10.179  30.999  12.216
89427W        W55968  15.704  34.420  12.043
89428W        W55969  24.930  14.959  10.757
89429W        W55970  38.205  44.048  11.154
89430W        W55971   4.552   6.732   2.810
89431W        W55972  18.956  22.825  11.971
89432W        W55973  14.710  38.292  12.089
89433W        W55974  23.802  34.688   0.975
89434W        W55975   8.284   8.944   1.785
89435W        W55976  33.102  16.711  14.597
89436W        W55977  24.964  35.406   1.800
89437W        W55978  37.541  22.578  13.081
89438W        W55979  25.394  21.754   4.155
89439W        W55980  22.645  14.823   1.790
89440W        W55981  25.729   2.912  13.685
89441W        W55982  19.872  15.240  12.622
89442W        W55983  23.108   9.905  11.847
89443W        W55984  12.990  30.753   9.884
89444W        W55985  42.577  24.008  10.698
89445W        W55986  31.884  43.244   0.856
89446W        W55987   1.641   6.644  14.882
89447W        W55988  36.089   1.373  14.778
89448W        W55989  35.962  24.070   3.823
89449W        W55990   7.705  32.561  14.998
89450W        W55991  11.117  16.832  14.917
89451W        W55992  31.371  31.018  13.574
89452W        W55993  12.728  11.616  13.508
89453W        W55994  19.542   1.693  12.972
89454W        W55995   9.642  35.970   1.749
89455W        W55996  44.518  26.099   0.242
89456W        W55997  33.546  42.006   4.721
89457W        W55998  35.278  22.691   3.631
89458W        W55999   3.568   3.677  13.003
89459W        W56000  24.617  16.549   3.601
89460W        W56001  41.802  25.535   2.717
89461W        W56002  41.929  40.058   4.562
89462W        W56003  28.834   8.921   2.181
89463W        W56004  35.270   5.027  12.867
89464W        W56005   5.142  18.376  11.361
89465W        W56006   2.964  34.821  10.604
89466W        W56007  36.620  20.688   4.043
89467W        W56008  37.515  43.346   5.079
89468W        W56009  27.429   6.663  10.711
89469W        W56010  36.787  30.147  10.767
89470W        W56011  17.890  42.785   3.138
89471W        W56012  11.757  43.030   0.834
89472W        W56013   9.055  22.545  10.424
89473W        W56014  10.091  18.017  11.324
89474W        W56015  25.642   2.434  12.986
89475W        W56016   1.398  36.457  13.501
89476W        W56017  34.472  30.468   4.137
89477W        W56018  17.400  23.619   2.311
89478W        W56019   5.009  29.480   1.752
89479W        W56020  19.314  18.662  12.630
89480W        W56021  33.687  11.812   4.439
89481W        W56022  41.895  28.801   4.866
89482W        W56023  10.393  42.970  14.016
89483W        W56024  30.905  26.235   1.267
89484W        W56025  34.170   5.279   4.602
89485W        W56026  23.027   4.792   0.491
89486W        W56027   4.126  14.221   0.913
89487W        W56028  29.973  18.223   0.794
89488W        W56029  20.246  24.019  11.247
89489W        W56030  15.773  29.879  10.705
89490W        W56031  12.176  29.743   3.452
89491W        W56032   6.626  15.738  10.776
89492W        W56033  38.608  19.527  10.966
89493W        W56034  41.953   7.408  12.079
89494W        W56035  15.688   7.010  11.155
89495W        W56036  20.072  26.924  13.358
89496W        W56037  23.493  34.271   0.775
89497W        W56038  11.278  30.930  11.235
89498W        W56039  35.064   4.914   2.059
89499W        W56040  37.898  24.702  13.875
89500W        W56041  33.507  13.793  11.090
89501W        W56042  36.535   2.882  13.654
89502W        W56043  27.537  41.230   1.298
89503W        W56044  25.503  11.094   0.455
89504W        W56045   5.809  28.073   2.782
89505W        W56046  25.018  18.202  12.907
89506W        W56047  16.020  18.128   4.693
89507W        W56048  37.321   0.218  13.347
89508W        W56049  29.943  29.489   4.010
89509W        W56050  26.163  29.617  10.702
89510W        W56051   9.882  21.970  14.448
89511W        W56052  18.699  44.615   4.337
89512W        W56053   6.341  15.988  12.945
89513W        W56054  39.322   6.693   2.050
89514W        W56055  32.318   1.493  14.534
89515W        W56056  31.106  20.446  12.445
89516W        W56057  39.347  26.976  13.140
89517W        W56058   3.453  21.965   4.693
89518W        W56059   6.356  10.945   3.521
89519W        W56060  22.253  33.036  12.667
89520W        W56061  19.582  11.879  14.372
89521W        W56062  35.285   1.174   0.264
89522W        W56063  30.185  11.770  12.015
89523W        W56064   9.567  44.919   2.720
89524W        W56065  30.205  19.328  13.754
89525W        W56066  22.935   0.422   3.031
89526W        W56067  14.647  14.282   3.470
89527W        W56068  21.022  24.665   0.773
89528W        W56069   5.496  14.022   2.697
89529W        W56070   0.692   7.254   0.788
89530W        W56071   4.290  14.697  14.809
89531W        W56072  23.664  20.513   1.745
89532W        W56073  19.207  37.134  12.059
89533W        W56074  21.910  13.116   0.715
89534W        W56075  43.434  20.140  12.449
89535W        W56076  30.420  15.340  11.293
89536W        W56077  34.493  14.281   0.100
89537W        W56078  41.499  12.804  14.757
89538W        W56079  27.572   7.439  11.809
89539W        W56080  34.015  42.015   3.797
89540W        W56081  20.525  17.646   2.839
89541W        W56082  22.634  14.570  11.716
89542W        W56083  26.895  35.962   1.148
89543W        W56084  42.502  37.766  13.709
89544W        W56085  15.859  12.334   1.300
89545W        W56086  30.080  13.311  11.880
89546W        W56087   1.026  38.110   3.230
89547W        W56088  14.304  11.122   2.726
89548W        W56089  23.714  38.652   4.092
89549W        W56090   2.736  42.259   2.438
89550W        W56091  38.902   8.341   4.226
89551W        W56092   3.499  44.963   1.302
89552W        W56093   6.303  34.084   3.672
89553W        W56094  34.489  31.145   2.126
89554W        W56095  37.903   7.329   0.964
89555W        W56096  44.907  10.127  13.632
89556W        W56097  26.656   1.067   1.007
89557W        W56098  16.879  19.373   3.171
89558W        W56099  10.214  38.756   4.214
89559W        W56100  38.040  15.088   2.213
89560W        W56101  15.449   0.547   4.123
89561W        W56102  12.412  13.212  12.873
89562W        W56103   5.931  28.701  13.989
89563W        W56104   0.868  23.166   1.040
89564W        W56105  11.174   2.232   2.816
89565W        W56106  31.589  19.503   2.681
89566W        W56107   8.863  32.783  10.788
89567W        W56108  14.211  19.723  12.298
89568W        W56109   2.112  17.324  11.614
89569W        W56110   1.809  43.309  12.379
89570W        W56111  42.746  37.085  12.197
89571W        W56112   2.201  30.045   1.482
89572W        W56113   8.754   2.099  13.373
89573W        W56114  20.434  36.496  11.692
89574W        W56115  16.151  18.702  10.580
89575W        W56116  35.662  11.692  10.851
89576W        W56117   7.155  15.185  11.935
89577W        W56118   3.874   5.491  11.545
89578W        W56119  11.748  19.187   0.013
89579W        W56120  20.026  18.906  10.590
89580W        W56121  18.714  31.740   1.188
89581W        W56122  24.173  18.149   2.699
89582W        W56123  43.307  44.764  14.749
89583W        W56124  35.641  16.869   3.154
89584W        W56125   6.956   9.034  10.779
89585W        W56126  26.202   2.318  13.832
89586W        W56127  41.399   7.626  12.118
89587W        W56128  22.594  24.441   2.853
89588W        W56129   7.887  33.417  12.966
89589W        W56130  10.263  36.063   2.404
89590W        W56131   1.268   3.853   4.176
89591W        W56132  28.328   0.233  12.445
89592W        W56133   9.158  31.861   2.824
89593W        W56134  30.960  26.910   1.790
89594W        W56135  38.410  41.491  11.768
89595W        W56136   2.770  34.975  13.805
89596W        W56137  25.545   8.624  11.189
89597W        W56138  43.951  15.859   1.737
89598W        W56139  22.247  30.194   0.505
89599W        W56140  15.452  13.245  13.687
89600W        W56141  43.477  37.914  11.555
89601W        W56142  34.825  32.390  11.066
89602W        W56143  13.815  33.722   2.927
89603W        W56144  21.049  34.083   0.932
89604W        W56145  28.111  19.794  12.381
89605W        W56146  18.608   9.360  14.756
89606W        W56147  13.494  18.504  11.775
89607W        W56148  32.777  27.701  12.077
89608W        W56149  16.655   2.103   3.531
89609W        W56150  22.038  13.600  11.112
89610W        W56151  40.972   4.807   1.351
89611W        W56152  25.210   8.484  13.473
89612W        W56153  44.559   7.024   9.945
89613W        W56154  29.842  27.150  13.444
89614W        W56155  42.275  35.455  11.491
89615W        W56156  21.108   5.739  12.587
89616W        W56157  33.553  11.225  12.561
89617W        W56158  33.966  20.249  11.401
89618W        W56159  27.030  19.752   0.526
89619W        W56160  14.604  42.401  14.832
89620W        W56161  29.108  16.744  11.459
89621W        W56162  10.091  23.502   3.733
89622W        W56163  16.459  30.844  12.405
89623W        W56164  43.983  37.513  11.374
89624W        W56165  20.594  24.470   4.040
89625W        W56166  12.184  38.249   1.425
89626W        W56167  36.972  25.731   2.701
89627W        W56168  34.598  10.586  10.977
89628W        W56169  42.940  28.440   0.857
89629W        W56170   7.875  40.708   4.070
89630W        W56171  21.153  40.305   3.977
89631W        W56172  15.841  21.250   0.753
89632W        W56173  21.170   8.599  13.741
89633W        W56174  18.241  12.788  11.443
89634W        W56175  25.361   6.615   1.110
89635W        W56176  23.340   8.941   2.261
89636W        W56177  23.568  32.961  10.698
89637W        W56178   9.109  14.204  11.465
89638W        W56179   4.733  32.142  11.860
89639W        W56180  25.052  17.052   4.467
89640W        W56181  33.915  43.810   3.071
89641W        W56182  37.413  33.966  13.476
89642W        W56183  10.328  11.318   4.765
89643W        W56184  26.923  20.599   0.040
89644W        W56185  44.328  21.500   4.567
89645W        W56186  20.806  28.166   3.328
89646W        W56187   0.308  37.928  12.858
89647W        W56188  34.640  20.776  11.064
89648W        W56189   2.314  42.993   3.886
89649W        W56190  31.556   4.293  12.049
89650W        W56191  29.528   9.349  14.486
89651W        W56192  26.633  38.983   4.591
89652W        W56193  39.788  28.726  12.057
89653W        W56194  40.249  35.978   3.295
89654W        W56195  34.644  11.080   2.101
89655W        W56196  36.787   3.716   3.618
89656W        W56197  42.401   7.285   0.056
89657W        W56198   7.334  26.092  12.979
89658W        W56199  30.080  36.579  12.147
89659W        W56200   1.994  44.505  14.779
89660W        W56201  23.229  33.525   4.509
89661W        W56202   4.706   3.268   0.158
89662W        W56203  22.219  16.040   0.957
89663W        W56204  35.163  40.113   2.373
89664W        W56205   1.331  35.346  11.528
89665W        W56206  34.802  28.095   1.289
89666W        W56207  28.939   5.284  11.203
89667W        W56208  18.300  38.761   4.091
89668W        W56209   2.032  43.300  11.886
89669W        W56210  43.764  38.440   2.824
89670W        W56211  33.272  20.183   2.881
89671W        W56212  11.483  20.453   3.156
89672W        W56213  37.400  19.683   0.892
89673W        W56214   8.516  12.715  12.409
89674W        W56215   3.336  11.241   2.633
89675W        W56216  24.764  23.637   2.518
89676W        W56217  44.135  14.110  10.467
89677W        W56218  19.798  12.630  10.774
89678W        W56219  19.051  29.520  13.430
89679W        W56220   0.330  34.147   1.243
89680W        W56221  23.988  30.155   1.798
89681W        W56222  43.295  19.671  11.881
89682W        W56223  14.513  23.795   4.059
89683W        W56224  19.976  17.868  11.643
89684W        W56225  42.870  42.450   0.223
89685W        W56226  17.069  23.589   0.493
89686W        W56227  12.296  42.500   3.782
89687W        W56228  23.244  33.750   4.972
89688W        W56229   3.566  12.375  13.603
89689W        W56230  40.751   8.383   3.226
89690W        W56231  42.361   0.312   1.546
89691W        W56232   7.014  33.074   2.405
89692W        W56233   2.874  18.774  13.066
89693W        W56234  34.835  36.261  13.005
89694W        W56235   5.206  44.004   3.328
89695W        W56236   5.268  23.721   3.859
89696W        W56237  12.439   7.105  11.083
89697W        W56238  12.786  16.254  13.026
89698W        W56239  15.819   3.894  12.645
89699W        W56240  32.116   9.356   3.730
89700W        W56241  25.515   0.288   1.074
89701W        W56242  40.312  30.747   0.492
89702W        W56243  22.768   7.335   5.055
89703W        W56244  18.646  18.636   0.945
89704W        W56245  18.338   7.699  12.374
89705W        W56246  26.190  24.352  12.385
89706W        W56247  24.421  28.540  14.054
89707W        W56248  16.370   9.306  12.115
89708W        W56249  26.321  29.024   0.966
89709W        W56250  21.983  11.714   0.856
89710W        W56251  11.701  32.620   4.014
89711W        W56252  16.961  25.969  13.793
89712W        W56253   3.959   7.514   1.490
89713W        W56254   1.377  28.956   4.329
89714W        W56255  44.536  25.661  14.913
89715W        W56256  19.885   3.798   1.322
89716W        W56257  28.144  19.358  14.513
89717W        W56258   0.920  24.735  14.646
89718W        W56259  42.259  36.039  14.161
89719W        W56260  37.165  43.041   3.327
89720W        W56261  12.707  27.328   2.950
89721W        W56262   6.784  26.028  10.190
89722W        W56263  25.870  25.573  14.572
89723W        W56264  11.272   5.827  11.748
89724W        W56265  22.772   1.950  13.531
89725W        W56266  41.404  41.783   4.834
89726W        W56267   9.297  38.508   3.812
89727W        W56268  24.181  40.074   1.227
89728W        W56269  33.564  12.007   0.779
89729W        W56270  26.124  13.273   1.171
89730W        W56271  34.095  18.881  11.558
89731W        W56272   1.713  36.327  13.073
89732W        W56273  33.279  10.279   2.662
89733W        W56274   1.058  23.487  14.179
89734W        W56275   8.464  43.393   2.714
89735W        W56276   5.415  19.398   3.037
89736W        W56277  43.495  17.624   0.640
89737W        W56278  38.747   4.201  14.306
89738W        W56279  11.720  38.050   3.212
89739W        W56280  29.164  22.398   1.136
89740W        W56281  18.033  20.312   3.042
89741W        W56282  31.312  35.539  11.532
89742W        W56283  21.975   4.068   4.895
89743W        W56284  16.638  15.704  10.941
89744W        W56285  22.677  29.976  14.339
89745W        W56286  38.356  12.707   0.969
89746W        W56287  11.367   2.818  12.838
89747W        W56288  13.905  11.466   2.678
89748W        W56289   6.479  39.355   2.016
89749W        W56290   8.052  16.128  14.378
89750W        W56291   2.290  37.122  12.277
89751W        W56292  29.321  16.234  14.928
89752W        W56293  20.122  34.888  11.170
89753W        W56294  40.778  20.783   2.300
89754W        W56295  33.435  29.558   1.198
89755W        W56296  10.837  43.991  12.512
89756W        W56297  43.361  33.633   4.083
89757W        W56298  35.338  33.372  13.641
89758W        W56299  28.268  12.028  12.983
89759W        W56300   1.336  24.246  10.631
89760W        W56301  40.003  20.197   0.998
89761W        W56302   7.194  19.810   2.827
89762W        W56303  22.381  21.593  12.741
89763W        W56304  36.418  23.608  11.237
89764W        W56305  26.426  15.737  11.043
89765W        W56306  31.687  16.543  12.254
89766W        W56307  15.633  30.544  13.116
89767W        W56308   3.978  36.292   3.043
89768W        W56309  23.456  25.622   3.284
89769W        W56310  13.309  32.393  11.492
89770W        W56311  21.518  39.536   1.999
89771W        W56312  22.234  20.362  13.108
89772W        W56313   9.484   1.702   0.335
89773W        W56314  22.073  13.886  13.738
89774W        W56315  22.572  40.787   1.474
89775W        W56316  23.121  16.616  12.346
89776W        W56317  20.701   2.367   3.172
89777W        W56318   6.282  16.334   4.255
89778W        W56319  23.465  20.671   3.595
89779W        W56320  35.301  37.341   1.861
89780W        W56321   5.297  20.227  10.442
89781W        W56322  24.265  44.999  10.745
89782W        W56323   3.669  37.988  13.794
89783W        W56324  20.022  31.995   2.675
89784W        W56325   8.403  33.445   2.722
89785W        W56326   8.883  17.126  13.594
89786W        W56327  28.621  40.107   2.174
89787W        W56328   6.747   1.588   5.575
89788W        W56329  33.443  34.857  13.356
89789W        W56330   5.332  42.959  13.455
89790W        W56331   0.710   2.172   4.614
89791W        W56332  18.099  30.195  11.337
89792W        W56333  37.986  28.665  13.245
89793W        W56334  23.170  27.774   2.124
89794W        W56335  11.112  39.453  11.599
89795W        W56336  10.206  37.072  11.929
89796W        W56337  36.620  29.637   0.971
89797W        W56338  29.376  16.341  13.481
89798W        W56339   9.874  19.308  14.602
89799W        W56340  10.575  14.615   1.031
89800W        W56341  43.481  17.991  14.729
89801W        W56342  27.502  42.063  10.517
89802W        W56343   8.450  22.984   2.970
89803W        W56344  15.874  20.506   1.552
89804W        W56345   9.752   6.805   4.284
89805W        W56346  23.856   3.778  14.359
89806W        W56347  21.255  21.246  11.517
89807W        W56348  34.890  22.108  11.551
89808W        W56349   5.617  13.701  11.994
89809W        W56350  21.580  43.401  12.531
89810W        W56351  16.697  28.122   1.783
89811W        W56352   8.263  20.730  13.198
89812W        W56353  31.409   1.947   3.728
89813W        W56354   9.680  43.742  11.526
89814W        W56355  34.445   8.007   0.881
89815W        W56356   8.754  28.941  13.824
89816W        W56357  19.748  32.007   2.045
89817W        W56358   4.057   2.186  12.951
89818W        W56359  22.083   7.702  14.964
89819W        W56360   8.279  26.745  13.895
89820W        W56361  28.121  40.502  12.103
89821W        W56362  15.895  26.037   4.098
89822W        W56363  20.170  16.679  12.481
89823W        W56364   9.255   7.116   1.292
89824W        W56365  34.520  17.684  11.229
89825W        W56366   3.766  25.727   0.423
89826W        W56367  28.375  18.249   0.002
89827W        W56368  42.458  40.895  10.601
89828W        W56369  43.477   5.425   2.327
89829W        W56370  41.600   3.530   4.555
89830W        W56371  21.181  11.615  14.094
89831W        W56372  14.708  20.198   3.154
89832W        W56373  24.552  29.434  14.022
89833W        W56374  15.670  23.627  14.786
89834W        W56375  25.610   0.431  14.550
89835W        W56376  41.935  21.853   3.614
89836W        W56377  33.388  30.216  11.028
89837W        W56378  11.071  36.970  10.742
89838W        W56379  37.556   1.962   3.618
89839W        W56380  29.542  20.432  11.667
89840W        W56381  12.592  24.991   1.686
89841W        W56382  31.486  23.178   1.800
89842W        W56383   9.402  43.826   1.814
89843W        W56384   8.072  44.775   1.850
89844W        W56385  33.783  34.495  13.430
89845W        W56386  13.759  41.928  12.498
89846W        W56387   2.839  33.911   3.905
89847W        W56388   0.683  15.170   0.831
89848W        W56389  13.284   7.003  11.974
89849W        W56390   1.311  18.180  12.509
89850W        W56391  16.267  44.488   3.377
89851W        W56392  36.344  10.646  12.762
89852W        W56393  26.096   8.004   2.715
89853W        W56394  13.354   1.185  13.508
89854W        W56395  37.695  23.845   2.883
89855W        W56396  16.727  30.416   0.388
89856W        W56397  16.783  11.385   1.657
89857W        W56398  19.153  15.612   0.579
89858W        W56399  26.271  17.790   1.781
89859W        W56400  27.525  33.383   1.734
89860W        W56401  19.092  40.489  12.890
89861W        W56402  37.478   4.471  11.388
89862W        W56403  28.893   3.063   3.676
89863W        W56404   0.883  35.977  12.002
89864W        W56405  31.472   3.932   1.324
89865W        W56406  30.144  20.153   0.930
89866W        W56407  12.453   9.199  14.109
89867W        W56408  36.458  37.966  14.032
89868W        W56409  29.825  16.067  14.816
89869W        W56410  40.797  31.056  14.340
89870W        W56411   9.815  44.367   3.386
89871W        W56412  16.383  26.483  14.545
89872W        W56413  33.074  34.358  14.219
89873W        W56414  15.171  18.201   1.288
89874W        W56415  32.699  19.091  14.975
89875W        W56416  12.252  30.896  11.557
89876W        W56417  37.589  21.440   1.367
89877W        W56418  31.190   5.721  14.455
89878W        W56419   5.896   2.746  12.290
89879W        W56420   9.991  15.557  11.524
89880W        W56421  22.810  30.106   3.749
89881W        W56422  34.081  35.783  13.441
89882W        W56423  22.055  16.988   4.986
89883W        W56424   4.828   8.003   2.301
89884W        W56425  33.498  13.855  13.001
89885W        W56426  29.597  43.262  13.392
89886W        W56427   7.032  39.265  13.393
89887W        W56428  28.168  11.202   0.742
89888W        W56429  35.061  31.626  11.139
89889W        W56430  24.753  34.145   2.853
89890W        W56431  19.068  24.989  13.619
89891W        W56432  41.847   1.896   5.091
89892W        W56433  23.950   8.664   4.465
89893W        W56434  22.657  20.415   3.814
89894W        W56435   4.361  41.863  10.724
89895W        W56436  23.126  20.070  14.371
89896W        W56437  26.088  43.285   3.501
89897W        W56438  37.419  32.317  14.863
89898W        W56439  12.192   3.900  11.542
89899W        W56440  33.448  26.202   1.185
89900W        W56441   9.339  23.043  12.915
89901W        W56442   4.394  43.766   3.453
89902W        W56443  24.597  24.753  13.339
89903W        W56444  30.190  10.638   1.028
89904W        W56445  16.158  40.516  12.416
89905W        W56446  23.259   2.972   4.555
89906W        W56447  22.733  24.451  13.826
89907W        W56448  30.011  19.159   4.683
89908W        W56449   1.958  26.005   2.725
89909W        W56450  39.518  38.999   3.345
89910W        W56451  18.153  22.558   1.012
89911W        W56452   7.283  43.330   4.478
89912W        W56453  40.042  42.352   4.883
89913W        W56454  34.535   4.856  11.891
89914W        W56455  35.880  11.885   3.960
89915W        W56456  35.001  11.909  13.809
89916W        W56457  22.544  21.596  10.611
89917W        W56458   1.269  36.495  13.982
89918W        W56459   0.783   5.439  14.321
89919W        W56460   1.350  35.772   5.719
89920W        W56461   3.640  15.364  10.149
89921W        W56462  25.580  32.892  13.055
89922W        W56463  29.976  13.249   3.226
89923W        W56464  30.902  15.311  10.617
89924W        W56465  24.385   7.821  13.214
89925W        W56466   9.129  27.520   4.265
89926W        W56467  44.604  10.253   3.322
89927W        W56468  44.901  44.616   3.979
89928W        W56469  36.568  12.749   1.389
89929W        W56470  18.724  44.940   0.374
89930W        W56471  11.848  23.817  11.364
89931W        W56472  22.719  18.207  12.174
89932W        W56473  44.554  27.165  13.566
89933W        W56474  18.143   6.461   2.403
89934W        W56475  11.742  43.767   2.083
89935W        W56476  16.555   5.925   1.932
89936W        W56477  26.592  17.391   1.452
89937W        W56478   9.072  11.740   0.864
89938W        W56479  35.802  19.507  12.262
89939W        W56480  42.976   7.977  14.651
89940W        W56481  21.383  16.852  11.003
89941W        W56482  12.327  17.151   1.891
89942W        W56483  23.553  31.464  11.122
89943W        W56484  42.678  40.346   1.928
89944W        W56485  44.049  42.985   0.651
89945W        W56486  39.324  27.408  11.986
89946W        W56487   6.970  37.925  10.707
89947W        W56488  23.716  10.318   0.323
89948W        W56489   7.953  43.377  12.434
89949W        W56490   0.615   0.549   3.211
89950W        W56491  44.896  37.557   0.853
89951W        W56492  29.201  29.510   0.589
89952W        W56493  43.221  29.682  12.922
89953W        W56494  32.715  40.615   0.879
89954W        W56495  35.273   8.236  13.884
89955W        W56496  27.277  13.680  12.241
89956W        W56497  15.784   1.056  14.345
89957W        W56498  15.204   3.905  11.369
89958W        W56499  34.548  28.303  11.413
89959W        W56500  37.018  25.470   1.859
89960W        W56501   0.184  12.329  14.035
89961W        W56502   9.282  15.848   1.680
89962W        W56503  23.972  41.750   3.896
89963W        W56504  27.202  39.813   2.037
89964W        W56505  10.502  26.488   4.576
89965W        W56506   4.742  40.409   3.619
89966W        W56507  13.263  13.806   4.591
89967W        W56508  43.627  14.252  12.578
89968W        W56509   1.318   3.953   1.387
89969W        W56510   4.252  17.910  13.823
89970W        W56511   8.855   8.165  14.653
89971W        W56512  10.061   0.829   1.792
89972W        W56513  29.968   0.435  14.926
89973W        W56514  38.848  42.119  14.828
89974W        W56515  17.117   1.012  11.892
89975W        W56516  18.789   6.889  11.919
89976W        W56517   4.214   4.096   0.387
89977W        W56518   1.152  34.413   4.286
89978W        W56519  10.354  40.893  13.525
89979W        W56520  41.543  31.884   3.748
89980W        W56521   4.209   7.427   4.623
89981W        W56522  20.173  23.372   3.514
89982W        W56523  12.298  34.366  10.529
89983W        W56524  28.067  32.587  11.311
89984W        W56525  19.814  29.181   2.153
89985W        W56526   4.314  28.018  10.637
89986W        W56527  19.087  38.001   2.267
89987W        W56528  24.802  10.139  11.153
89988W        W56529  15.086  23.500   4.631
89989W        W56530  15.355  42.339  13.522
89990W        W56531  40.431  40.892  10.470
89991W        W56532  19.018  27.663   3.727
89992W        W56533  30.246  28.334   1.775
89993W        W56534   0.509  34.038  13.075
89994W        W56535  29.356  30.025   1.661
89995W        W56536  34.291   9.394  10.711
89996W        W56537   7.948  14.682  11.161
89997W        W56538  35.738  30.845   1.132
89998W        W56539  26.506  36.099  10.409
89999W        W56540  44.185  15.152  14.935
90000W        W56541  40.973  33.852   4.492
90001W        W56542  38.728  14.973   1.562
90002W        W56543  36.907  26.341  11.079
90003W        W56544  41.039  17.804   2.245
90004W        W56545  35.083   1.610   3.429
90005W        W56546  18.158  39.007  10.691
90006W        W56547  42.307  16.244   2.093
90007W        W56548  20.213  42.436  11.364
90008W        W56549   2.400  15.718  10.114
90009W        W56550   0.104  32.905   2.291
90010W        W56551   2.762  32.783   3.253
90011W        W56552  40.445  19.402  14.399
90012W        W56553  35.007  14.063   1.824
90013W        W56554  36.520  29.129   0.956
90014W        W56555  27.204  39.691   0.779
90015W        W56556  24.264  30.543   2.748
90016W        W56557  16.628  35.169  14.254
90017W        W56558  29.590  27.322   0.169
90018W        W56559  37.656  36.476  12.040
90019W        W56560  35.918   4.959   3.363
90020W        W56561  26.512  12.116  14.264
90021W        W56562  12.478  27.983  11.161
90022W        W56563   9.157   7.423   3.298
90023W        W56564  35.473  23.502   2.729
90024W        W56565  41.808  40.539   3.827
90025W        W56566  27.867  38.370  11.458
90026W        W56567  17.942  41.588   1.192
90027W        W56568  31.839  32.396  12.556
90028W        W56569  38.674  27.912  11.124
90029W        W56570  22.743  34.864   0.486
90030W        W56571  32.596  20.515  13.267
90031W        W56572  14.121  19.743  13.293
90032W        W56573   5.801  22.830  10.456
90033W        W56574   8.981  41.389  12.086
90034W        W56575  43.823  44.852  13.011
90035W        W56576  34.553  32.054   0.007
90036W        W56577   0.319  11.864   4.404
90037W        W56578  29.609  16.511  14.492
90038W        W56579  18.092  11.390   3.513
90039W        W56580   1.968   5.453   5.083
90040W        W56581  14.117   7.976   3.243
90041W        W56582   7.345  44.098   1.655
90042W        W56583  31.458  14.194   3.639
90043W        W56584  44.961  33.519  13.811
90044W        W56585   7.717  10.262  13.345
90045W        W56586   2.115   1.387  12.745
90046W        W56587  29.565  32.878  13.783
90047W        W56588   8.309   3.291   2.987
90048W        W56589  19.990  28.942   1.366
90049W        W56590  27.122  40.525   4.155
90050W        W56591  27.505  29.261   4.496
90051W        W56592  38.959   3.516  12.022
90052W        W56593  44.273  43.761   2.514
90053W        W56594  10.355  25.059   3.243
90054W        W56595  40.933   4.323  12.452
90055W        W56596  23.138  11.176  12.377
90056W        W56597  17.692   0.202   4.580
90057W        W56598  43.026  19.241  13.706
90058W        W56599  26.966  14.146  11.999
90059W        W56600  43.304  43.233   0.877
90060W        W56601  17.241   2.939   4.820
90061W        W56602  33.920  43.402   3.797
90062W        W56603  25.312  17.685   2.762
90063W        W56604  22.813  36.600   2.758
90064W        W56605  22.194  14.540  14.346
90065W        W56606  36.570  41.925  12.997
90066W        W56607  30.740   1.780  11.702
90067W        W56608  27.234  25.129  12.136
90068W        W56609   8.609  25.390  11.463
90069W        W56610   7.627  12.212   4.729
90070W        W56611  42.919  29.683   4.540
90071W        W56612   6.738  23.184  12.462
90072W        W56613  43.722  29.367  12.079
90073W        W56614   5.270   5.261  14.865
90074W        W56615  42.565   3.250  14.620
90075W        W56616  11.890  13.721  12.407
90076W        W56617  41.355  31.012   3.428
90077W        W56618  32.183  19.455   1.437
90078W        W56619  14.730  35.142   3.172
90079W        W56620  19.691  15.599  13.242
90080W        W56621  11.159  34.142   2.304
90081W        W56622   6.777  35.484  11.909
90082W        W56623   9.866  11.634   1.369
90083W        W56624  35.844  34.967   1.827
90084W        W56625  31.456  23.944  14.505
90085W        W56626  27.028   7.800   2.254
90086W        W56627  34.008  16.131   1.354
90087W        W56628   9.268   3.417   4.597
90088W        W56629  43.466   6.767  12.014
90089W        W56630  31.472  23.620   2.763
90090W        W56631  22.306  42.359   4.126
90091W        W56632  30.185  27.646   4.043
90092W        W56633  12.090   8.155  11.653
90093W        W56634  39.719  21.868  11.949
90094W        W56635  43.561  36.182  11.566
90095W        W56636   1.727   1.051   1.824
90096W        W56637   2.788  11.613   1.243
90097W        W56638  26.112  11.561  14.897
90098W        W56639  34.946   0.214   4.119
90099W        W56640  18.286   7.667  11.463
90100W        W56641  42.359  40.080  14.350
90101W        W56642  36.425  11.817  12.945
90102W        W56643  41.506   9.603   1.350
90103W        W56644  21.174  31.167   0.377
90104W        W56645  22.501  35.488   2.998
90105W        W56646   1.970   7.768  14.497
90106W        W56647  40.096  24.089   3.755
90107W        W56648  32.647  36.830   0.826
90108W        W56649  23.929   9.883   4.950
90109W        W56650   9.679  26.072  10.821
90110W        W56651  44.236  16.077  10.404
90111W        W56652   2.495  11.235  12.545
90112W        W56653  12.059   8.308   4.917
90113W        W56654  36.064  14.873  11.024
90114W        W56655  29.994  21.599   4.168
90115W        W56656  27.572  32.407   1.986
90116W        W56657   3.471   0.825   3.843
90117W        W56658  42.038  25.159   3.940
90118W        W56659  13.989   9.045   5.095
90119W        W56660   6.692  27.648  14.230
90120W        W56661  43.223   1.278   1.762
90121W        W56662  32.962  30.907  13.961
90122W        W56663   3.296  36.604   4.789
90123W        W56664  44.896  34.887   1.397
90124W        W56665  26.493  37.331  12.936
90125W        W56666  16.232  43.962  10.805
90126W        W56667  22.607   7.612  10.748
90127W        W56668  23.323  22.188  13.520
90128W        W56669   8.411   0.800  14.065
90129W        W56670  16.307   7.222   3.678
90130W        W56671   5.781   4.920   2.192
90131W        W56672  30.936  36.524   1.927
90132W        W56673   8.972  23.436  12.018
90133W        W56674  42.999  33.025   1.565
90134W        W56675  35.877  35.092   1.003
90135W        W56676   5.237  36.565  13.080
90136W        W56677  31.344   8.154  10.685
90137W        W56678  20.655   7.301   4.691
90138W        W56679  13.006  34.134  11.638
90139W        W56680  18.145   7.945   1.963
90140W        W56681  21.706  39.434  12.682
90141W        W56682  14.336  25.055   0.267
90142W        W56683  32.189  33.464  11.633
90143W        W56684  44.831  15.117  11.160
90144W        W56685  37.746   1.805   5.490
90145W        W56686  17.823  32.679  10.371
90146W        W56687  43.694  23.990   1.859
90147W        W56688  26.700   4.467  10.355
90148W        W56689  40.360   0.202   0.728
90149W        W56690  43.550  40.113   2.181
90150W        W56691   8.913   8.764  11.427
90151W        W56692   3.465  15.462  14.176
90152W        W56693  32.639  28.969  11.494
90153W        W56694  10.850  36.780  14.866
90154W        W56695   2.040  20.330   4.854
90155W        W56696  39.943  38.560   4.908
90156W        W56697  10.708  44.865   2.146
90157W        W56698   2.477  29.927  13.769
90158W        W56699  20.242  17.208   2.233
90159W        W56700  34.049  41.182  13.835
90160W        W56701  21.121  22.181   1.242
90161W        W56702  38.369  22.705  10.754
90162W        W56703   7.734  31.360   2.136
90163W        W56704  40.726  37.336  13.401
90164W        W56705  35.507   6.697   3.400
90165W        W56706  23.162  27.805  12.421
90166W        W56707   2.297   0.367   0.782
90167W        W56708  42.223   7.470  12.557
90168W        W56709   7.404  15.598   3.156
90169W        W56710   9.657  11.175  10.727
90170W        W56711  11.991  14.728  14.465
90171W        W56712   5.320  29.126   2.219
90172W        W56713   7.845   7.115  12.978
90173W        W56714  42.927  16.231  10.797
90174W        W56715  37.058  22.542   2.903
90175W        W56716  25.079  23.074  13.469
90176W        W56717  28.549  17.368  13.568
90177W        W56718   7.903  38.282   2.696
90178W        W56719  39.446   0.452   0.851
90179W        W56720  35.504   8.894  14.686
90180W        W56721   9.353  15.743   0.902
90181W        W56722  41.341  23.135   0.495
90182W        W56723   0.287  42.336  12.054
90183W        W56724  38.899  35.846   3.157
90184W        W56725  29.049  23.404   4.220
90185W        W56726  30.859  35.750   9.876
90186W        W56727  23.997  36.845   1.743
90187W        W56728  30.504   2.789  10.734
90188W        W56729  25.773   2.878   1.949
90189W        W56730   4.282  13.958   0.127
90190W        W56731   3.086  14.326   1.571
90191W        W56732  22.161   7.963   0.424
90192W        W56733  20.793  22.232  11.477
90193W        W56734  13.266  32.460   4.497
90194W        W56735  14.660  25.178  11.856
90195W        W56736  12.923  26.469   5.021
90196W        W56737  26.800  43.849  12.021
90197W        W56738   7.081  34.899  13.043
90198W        W56739   7.697   0.178  12.075
90199W        W56740   9.512  26.444   3.808
90200W        W56741  11.672   7.858   1.262
90201W        W56742  26.530  26.219  14.086
90202W        W56743  40.279  39.485   2.330
90203W        W56744  17.848  35.972   0.462
90204W        W56745  24.154  37.942  11.513
90205W        W56746  26.404  41.937  11.488
90206W        W56747  34.350  28.045   2.798
90207W        W56748  40.436  43.522  14.955
90208W        W56749  17.216  42.586   1.936
90209W        W56750  44.628  36.574   2.778
90210W        W56751   5.173  37.919  11.244
90211W        W56752   6.783   5.955  11.544
90212W        W56753  43.471   8.414   4.042
90213W        W56754  28.382  16.830   0.854
90214W        W56755  23.072  42.614  13.013
90215W        W56756  37.328  38.923   3.229
90216W        W56757  41.236   2.385   3.225
90217W        W56758  29.517  38.239   0.860
90218W        W56759  43.128  40.859  11.332
90219W        W56760   4.725  15.650   1.894
90220W        W56761  30.424  26.433  13.624
90221W        W56762  37.934  36.500   3.614
90222W        W56763  15.414  38.829   5.048
90223W        W56764  37.091   8.735   4.178
90224W        W56765  30.919  14.651   1.195
90225W        W56766  10.782  17.738  13.137
90226W        W56767  27.998  43.475  11.108
90227W        W56768   1.950  21.173   4.565
90228W        W56769  36.856  42.528   4.160
90229W        W56770  38.502  18.521   3.221
90230W        W56771  20.349  16.893   1.717
90231W        W56772  26.107  34.375   1.383
90232W        W56773  16.760  21.780   3.235
90233W        W56774  26.675   3.841   4.622
90234W        W56775  39.389  38.025   2.727
90235W        W56776  12.041  31.046  10.101
90236W        W56777  25.105  14.634  14.548
90237W        W56778  15.335  30.604  12.182
90238W        W56779   8.220  28.497   0.420
90239W        W56780  29.755  28.114  12.358
90240W        W56781  34.415  11.654  12.090
90241W        W56782  25.477   5.824  12.888
90242W        W56783  38.431  40.228   0.495
90243W        W56784  13.107  10.732   2.230
90244W        W56785  34.208  22.888  10.505
90245W        W56786   0.997  44.806  13.131
90246W        W56787  28.997  32.025   2.574
90247W        W56788  34.728  44.539  11.171
90248W        W56789   9.208  19.657   4.556
90249W        W56790  30.768  39.979  12.068
90250W        W56791   2.476   9.791  11.856
90251W        W56792  36.806   8.717  11.055
90252W        W56793  38.600   2.238   0.480
90253W        W56794  31.412  29.551  14.539
90254W        W56795   8.813  15.679  14.016
90255W        W56796  37.042  12.928  10.379
90256W        W56797   8.486  44.287   3.966
90257W        W56798   6.478  24.162   4.100
90258W        W56799  19.111  30.202   1.009
90259W        W56800  15.361  40.528   0.754
90260W        W56801  38.497  14.335  12.730
90261W        W56802  25.666  40.250   4.661
90262W        W56803  34.731   7.283  12.620
90263W        W56804  29.791  29.185  11.607
90264W        W56805  20.712  44.435  12.556
90265W        W56806  22.437   1.659   2.660
90266W        W56807   3.343  12.749  11.120
90267W        W56808  28.990  17.515  11.151
90268W        W56809  34.362  20.259  14.895
90269W        W56810   6.047  24.022   5.345
90270W        W56811  40.978  12.435  10.735
90271W        W56812  20.534  27.206   2.267
90272W        W56813  35.837  26.951  12.822
90273W        W56814   8.627  18.556  11.896
90274W        W56815  27.373  34.695   5.104
90275W        W56816   5.188  14.809   2.574
90276W        W56817  15.369  28.033  14.320
90277W        W56818   0.328   0.760  11.222
90278W        W56819   8.151  28.368   3.738
90279W        W56820   4.743  44.361   0.725
90280W        W56821   6.311   5.510  12.642
90281W        W56822  37.091  26.547   4.514
90282W        W56823   7.005  29.663   0.991
90283W        W56824  22.021  38.042   3.265
90284W        W56825  30.441  40.481   2.850
90285W        W56826  11.643  34.367  11.021
90286W        W56827  32.382  12.796   0.344
90287W        W56828  30.778  30.703   1.929
90288W        W56829  11.442   3.736  12.551
90289W        W56830  31.522  28.894  13.215
90290W        W56831  34.535   1.162   1.473
90291W        W56832  28.090  24.490  12.488
90292W        W56833  23.986  11.393   4.374
90293W        W56834  31.741   4.224   3.827
90294W        W56835  38.673  38.897   4.656
90295W        W56836  38.043  16.256  12.011
90296W        W56837  13.664   6.768   2.360
90297W        W56838  36.834  29.876   3.136
90298W        W56839  42.875  10.784  14.570
90299W        W56840  20.469  31.371  12.958
90300W        W56841   2.216  26.031   3.166
90301W        W56842  19.345  15.095  10.746
90302W        W56843  44.553  26.274  14.378
90303W        W56844  12.912  35.606  12.857
90304W        W56845  23.719  20.989   0.319
90305W        W56846  44.939  30.019   4.868
90306W        W56847  34.539  42.850  11.995
90307W        W56848  31.878  24.210  10.966
90308W        W56849  17.704  43.779   3.059
90309W        W56850  14.303  10.719  12.658
90310W        W56851  17.183  29.695  14.987
90311W        W56852  28.653  31.405   0.011
90312W        W56853  39.340   2.438  13.078
90313W        W56854  33.675  10.804   2.311
90314W        W56855  13.663  21.488  14.282
90315W        W56856  44.086  23.644   4.609
90316W        W56857  27.062  14.370   1.764
90317W        W56858   8.606   1.823   0.026
90318W        W56859  28.058  22.300   0.947
90319W        W56860  14.560   5.886  12.598
90320W        W56861   0.922   7.599   4.094
90321W        W56862  22.483  39.571   2.133
90322W        W56863  32.523  11.662   3.644
90323W        W56864  37.625  34.397  13.258
90324W        W56865  12.855   7.403  10.985
90325W        W56866   0.088  29.517  14.243
90326W        W56867   3.378  23.025  11.478
90327W        W56868  33.565   9.893   2.404
90328W        W56869   4.681  26.623  14.922
90329W        W56870  43.913   0.959   2.654
90330W        W56871  31.739  10.107  14.494
90331W        W56872  43.022   5.890  12.866
90332W        W56873   2.928  13.701   0.455
90333W        W56874  17.033  18.343   2.290
90334W        W56875  44.812  32.206  14.377
90335W        W56876  41.519  32.133   1.381
90336W        W56877  28.681  42.190  10.906
90337W        W56878  25.845   7.748  10.260
90338W        W56879   1.430  38.998   1.909
90339W        W56880  28.679  40.307   3.242
90340W        W56881  39.738  17.543  11.162
90341W        W56882  17.300  29.717   1.828
90342W        W56883  25.818   1.229   4.574
90343W        W56884   6.687  27.158   4.627
90344W        W56885   3.819   5.881   0.299
90345W        W56886   4.836  30.684   0.858
90346W        W56887  26.631  34.073   3.304
90347W        W56888  24.901   2.692   0.943
90348W        W56889  27.897  43.875   1.852
90349W        W56890  18.175  27.081  12.178
90350W        W56891  25.196  29.401   1.391
90351W        W56892  23.051  44.542  10.821
90352W        W56893  13.573  31.830   1.209
90353W        W56894  31.907   0.366  11.313
90354W        W56895  40.782  17.279  10.723
90355W        W56896  22.292  31.189   0.336
90356W        W56897  43.428  16.123   2.986
90357W        W56898  28.692   4.137   4.097
90358W        W56899  24.004   7.430  14.953
90359W        W56900   1.824  34.586   0.761
90360W        W56901  16.692  13.528  14.292
90361W        W56902  11.021  16.833  13.377
90362W        W56903  18.248  27.078   1.422
90363W        W56904   3.925  41.185   3.755
90364W        W56905  31.190  28.125   4.617
90365W        W56906  14.765   6.339  12.497
90366W        W56907   5.567   9.861  12.781
90367W        W56908  19.613   3.501   1.657
90368W        W56909  37.784  38.009   4.567
90369W        W56910  18.243  37.521  10.733
90370W        W56911  27.707  27.420  11.111
90371W        W56912  30.431   0.677  14.990
90372W        W56913  14.739  42.801  10.237
90373W        W56914  30.525  10.737   9.746
90374W        W56915   1.473  32.860   0.851
90375W        W56916  44.133  39.354  11.410
90376W        W56917  39.047  25.549  12.775
90377W        W56918  11.811  13.723  11.446
90378W        W56919   9.846  39.653   0.158
90379W        W56920   8.022  21.508   3.349
90380W        W56921  23.189   2.391  10.597
90381W        W56922  38.604  18.295   0.949
90382W        W56923  10.354  35.564  13.959
90383W        W56924  14.885  24.032   3.790
90384W        W56925  32.053  33.168  10.587
90385W        W56926   8.494  39.791  11.219
90386W        W56927  24.701  28.701  10.691
90387W        W56928   5.894  18.155  13.160
90388W        W56929  22.323  40.346   1.409
90389W        W56930  29.037  11.294  11.270
90390W        W56931   3.868  39.108  11.047
90391W        W56932  42.556  35.834  10.659
90392W        W56933   6.219  28.017   1.827
90393W        W56934  42.354  15.529   4.602
90394W        W56935  10.055   7.727   0.283
90395W        W56936  32.692  35.936  12.374
90396W        W56937  40.569  43.858  14.259
90397W        W56938   1.406   7.632  12.562
90398W        W56939   3.394  36.811   2.891
90399W        W56940  24.253  34.717  14.544
90400W        W56941  44.659  32.206   2.738
90401W        W56942  32.506  12.448   0.729
90402W        W56943   7.724   7.185   0.941
90403W        W56944  35.939  43.066   4.792
90404W        W56945  11.172  26.614   0.902
90405W        W56946  41.328  28.230   4.147
90406W        W56947  41.806  38.992  14.416
90407W        W56948  29.430   3.808  12.941
90408W        W56949   4.082  35.595   3.960
90409W        W56950  17.308   3.918  11.208
90410W        W56951  31.631   7.950   0.003
90411W        W56952  19.390  26.042  12.173
90412W        W56953   4.254  42.896  12.435
90413W        W56954  17.945  33.446  13.762
90414W        W56955  13.687  29.430   3.246
90415W        W56956  15.107  37.637  13.005
90416W        W56957  35.273   7.227  14.605
90417W        W56958  38.790  41.315  10.931
90418W        W56959  21.573  18.210  14.552
90419W        W56960  44.815  37.475  10.970
90420W        W56961   7.970  22.493   4.135
90421W        W56962  14.692  11.569   2.262
90422W        W56963  35.903  42.004  14.961
90423W        W56964  39.293  28.904   3.147
90424W        W56965  33.367   8.779  12.116
90425W        W56966  31.449  34.713   3.694
90426W        W56967  18.093  37.580  11.215
90427W        W56968  39.956   3.849   1.305
90428W        W56969  23.603   1.818   3.993
90429W        W56970  22.048  24.760   1.415
90430W        W56971  44.267  42.117   1.683
90431W        W56972  26.583  18.933  13.271
90432W        W56973  17.997   6.675  12.016
90433W        W56974   0.894  11.308   1.550
90434W        W56975   6.393  23.909  13.467
90435W        W56976  31.372  24.945  14.330
90436W        W56977   1.363   8.061  13.902
90437W        W56978   8.253  21.585   3.848
90438W        W56979   5.470  32.601   3.576
90439W        W56980  24.975   1.896   3.148
90440W        W56981  19.566   9.599  12.827
90441W        W56982  18.886  40.041   2.424
90442W        W56983  39.885  13.897   2.777
90443W        W56984  20.340  13.278   3.677
90444W        W56985  17.172  29.366  11.595
90445W        W56986  28.459  40.130  11.951
90446W        W56987  29.011  31.563  13.324
90447W        W56988  44.316  13.632   4.351
90448W        W56989  34.939  44.278   1.698
90449W        W56990  16.640   0.894  11.185
90450W        W56991  10.754   9.721   1.906
90451W        W56992  25.159   9.368   2.162
90452W        W56993  26.917   5.665   2.267
90453W        W56994   1.790  39.418  14.997
90454W        W56995  12.708  31.512  11.130
90455W        W56996   7.653  43.271   1.327
90456W        W56997   0.766   5.010  11.641
90457W        W56998  28.368  10.178  13.450
90458W        W56999  16.008   7.284  12.513
90459W        W57000  33.778   9.445  10.821
90460W        W57001  10.235   5.622  10.771
90461W        W57002  15.745  16.634   2.562
90462W        W57003  12.356  18.719  13.941
90463W        W57004   8.149  32.377  10.780
90464W        W57005  36.507   2.885  11.209
90465W        W57006  43.635  43.678  13.536
90466W        W57007  37.557  24.664   0.160
90467W        W57008  24.664  24.797  14.509
90468W        W57009  17.090  26.252  10.982
90469W        W57010  17.805  26.241   2.929
90470W        W57011  38.987  34.862  11.621
90471W        W57012  14.249  40.515  14.810
90472W        W57013   7.817  22.255  10.696
90473W        W57014  22.023  24.308   4.454
90474W        W57015   5.624  44.852  14.855
90475W        W57016  10.188  23.109  11.928
90476W        W57017   4.560  30.653  10.456
90477W        W57018  38.994  30.293   0.513
90478W        W57019  23.596  12.855  12.511
90479W        W57020  43.585  41.782  14.143
90480W        W57021  13.707  23.006  10.647
90481W        W57022   9.404  20.462  10.741
90482W        W57023  17.919  16.235   4.111
90483W        W57024  13.166  20.508  13.328
90484W        W57025  24.795  42.019   1.649
90485W        W57026  17.175  24.225   1.202
90486W        W57027  13.268  42.339   3.802
90487W        W57028   1.193  19.244  14.236
90488W        W57029  31.170  17.112  13.375
90489W        W57030  34.134  23.923  14.453
90490W        W57031  28.690  41.560   3.189
90491W        W57032  31.941   4.718   2.173
90492W        W57033  15.771  17.590  10.437
90493W        W57034  35.936  27.391   2.376
90494W        W57035  19.225  11.235   4.050
90495W        W57036  21.721   3.838  14.377
90496W        W57037  12.983  44.612  14.370
90497W        W57038  44.506  29.781   4.663
90498W        W57039  34.523   8.671   3.685
90499W        W57040  40.341  25.102   4.710
90500W        W57041  44.253  20.712   4.117
90501W        W57042  38.959  31.119   0.365
90502W        W57043  43.324  34.915  12.521
90503W        W57044   7.867  25.270   4.963
90504W        W57045  24.035   8.294  13.468
90505W        W57046  18.631  26.025   4.302
90506W        W57047  36.624  44.367  13.767
90507W        W57048  28.617  11.885   0.408
90508W        W57049  36.045  30.589   4.406
90509W        W57050  12.878   9.305  11.984
90510W        W57051   9.288  17.747  14.080
90511W        W57052  30.417   4.583   2.159
90512W        W57053  24.032   2.970  14.956
90513W        W57054  42.014  42.366  11.966
90514W        W57055  17.455  40.609  12.637
90515W        W57056  31.188  36.225   3.228
90516W        W57057  43.668  39.539  11.200
90517W        W57058   4.124  24.231  11.964
90518W        W57059  34.674  33.556  12.218
90519W        W57060  22.298  12.773   1.374
90520W        W57061  19.330  24.741  12.067
90521W        W57062   8.210  22.581  10.641
90522W        W57063  21.011  22.414  11.932
90523W        W57064  17.622  33.965  11.997
90524W        W57065   3.926  20.935   0.588
90525W        W57066   7.402  34.447   3.592
90526W        W57067  31.591  11.740  11.640
90527W        W57068   8.639  14.154   2.297
90528W        W57069  31.687  39.177  12.567
90529W        W57070  17.012  14.101  11.510
90530W        W57071   7.978  29.663   2.257
90531W        W57072  41.005  36.513   2.306
90532W        W57073   4.756  27.038   0.517
90533W        W57074  29.637  25.410   3.707
90534W        W57075   0.945  17.694   0.243
90535W        W57076  16.586   0.707   1.823
90536W        W57077  36.469  12.377   4.423
90537W        W57078  44.115  35.817   4.856
90538W        W57079  24.619  21.698  14.477
90539W        W57080  30.504   8.384  14.340
90540W        W57081  18.508  28.982  11.582
90541W        W57082  42.006   3.457   0.784
90542W        W57083  16.975  16.640  13.495
90543W        W57084  27.004  31.006  12.941
90544W        W57085  20.460  37.371   2.210
90545W        W57086  32.868  32.249   2.861
90546W        W57087  25.091  15.660  11.645
90547W        W57088  44.109   4.207   2.302
90548W        W57089  41.733  30.775  14.421
90549W        W57090   0.899  37.045   2.971
90550W        W57091   5.912  42.242  13.411
90551W        W57092   5.495  39.042  13.887
90552W        W57093  42.794  33.735   0.838
90553W        W57094  15.399  30.173  14.747
90554W        W57095  42.499  32.978   2.458
90555W        W57096  30.423   8.715  10.815
90556W        W57097  37.263  12.182  11.970
90557W        W57098   2.725  36.927   0.968
90558W        W57099   2.244  25.589  10.280
90559W        W57100  39.891   1.450   3.173
90560W        W57101   6.328   2.488  13.276
90561W        W57102   3.907  13.777   0.467
90562W        W57103  26.156  41.790  10.668
90563W        W57104  36.923  17.387  12.546
90564W        W57105  17.495  42.061   3.770
90565W        W57106  29.940  11.585   3.245
90566W        W57107   9.589   9.088   2.118
90567W        W57108  32.832   3.331  14.436
90568W        W57109  21.806  19.511   0.717
90569W        W57110   0.332   5.348  11.593
90570W        W57111  35.343  17.325   3.135
90571W        W57112  15.700   5.936  13.437
90572W        W57113   9.645   9.042  12.081
90573W        W57114  44.938  25.235  13.340
90574W        W57115  20.499  15.999   1.918
90575W        W57116  32.366  31.150  11.182
90576W        W57117  29.693  28.950  10.997
90577W        W57118  17.194   6.330  14.479
90578W        W57119  15.812   8.821   3.278
90579W        W57120  11.623  20.321  13.984
90580W        W57121   9.027   5.733   2.390
90581W        W57122  12.335  28.182  11.603
90582W        W57123  15.698  24.466  14.129
90583W        W57124  13.328  25.165  12.559
90584W        W57125  20.972   1.494  12.967
90585W        W57126  22.510  10.096   3.357
90586W        W57127  17.596   4.709  14.995
90587W        W57128   8.323  21.496  11.102
90588W        W57129   3.752  42.024   1.708
90589W        W57130  40.434  34.373  14.471
90590W        W57131  14.370  22.222  13.439
90591W        W57132  24.131  26.982   3.477
90592W        W57133  26.580   5.621   1.889
90593W        W57134  20.561  38.709  13.541
90594W        W57135  43.580  16.390  13.023
90595W        W57136  27.104  33.245  11.723
90596W        W57137  28.087  29.209  11.584
90597W        W57138  37.955  21.279  11.585
90598W        W57139  21.557   0.437  11.359
90599W        W57140  18.184  20.801   4.671
90600W        W57141   9.467  31.451  14.861
90601W        W57142  15.356  29.445   0.732
90602W        W57143  17.755  33.180  10.288
90603W        W57144  42.592   0.904   2.741
90604W        W57145  33.190   1.296   2.240
90605W        W57146   3.259  11.726  10.403
90606W        W57147  11.665   4.744   0.732
90607W        W57148  35.413  18.672   2.731
90608W        W57149  26.144  16.011  14.472
90609W        W57150  37.890  18.324   2.318
90610W        W57151  39.183  20.630  10.762
90611W        W57152  22.530  11.553   3.130
90612W        W57153   4.164  34.900  13.886
90613W        W57154  30.558   1.878   1.350
90614W        W57155  29.144   8.823   4.551
90615W        W57156  42.482  26.843   3.701
90616W        W57157   4.012  39.592  10.980
90617W        W57158   5.206  37.185  13.772
90618W        W57159   7.262  20.208  13.798
90619W        W57160  27.007  12.520  12.606
90620W        W57161  10.802  29.477  12.444
90621W        W57162   4.593  25.966   3.490
90622W        W57163   4.249   7.927  14.892
90623W        W57164  37.536  15.215   2.110
90624W        W57165   6.167  16.619   3.824
90625W        W57166  12.455  23.659  12.529
90626W        W57167  13.163  30.606   5.032
90627W        W57168  16.269  26.065  10.960
90628W        W57169  26.666  17.075  12.587
90629W        W57170  19.563  41.905  13.793
90630W        W57171  43.745   0.931  13.472
90631W        W57172   1.319  18.833  14.570
90632W        W57173  27.240  17.745   1.829
90633W        W57174  12.430  44.000  14.896
90634W        W57175  11.115  19.514   4.499
90635W        W57176   6.704  16.686   4.719
90636W        W57177   1.942  40.532   1.779
90637W        W57178  12.934  23.304  13.896
90638W        W57179  11.962   6.422  11.988
90639W        W57180  34.187  16.677  10.969
90640W        W57181  12.797   2.086   2.423
90641W        W57182   4.817   6.161  13.036
90642W        W57183  44.951  29.019  14.122
90643W        W57184  16.157  40.506   4.342
90644W        W57185  16.759   5.941   2.865
90645W        W57186   9.332  37.068   2.589
90646W        W57187   2.187  37.625   2.040
90647W        W57188  12.332  41.189   0.883
90648W        W57189  38.491   1.208   3.316
90649W        W57190  30.475  43.092  12.447
90650W        W57191  36.266  21.720  10.965
90651W        W57192  42.897  39.554   2.751
90652W        W57193   1.266  37.224   0.662
90653W        W57194  25.098   4.942   2.877
90654W        W57195  29.944   0.783   2.738
90655W        W57196  36.518   7.690  14.998
90656W        W57197  38.475  25.678   3.218
90657W        W57198  34.626   4.115   5.298
90658W        W57199  40.943   7.809   0.386
90659W        W57200  27.937  19.811  11.509
90660W        W57201  12.073  16.282   3.598
90661W        W57202  26.722  37.511   4.585
90662W        W57203  16.304  34.211   2.249
90663W        W57204  21.253  39.708  11.137
90664W        W57205  17.798  19.778   4.678
90665W        W57206   4.938  34.078   3.560
90666W        W57207   4.864  13.367   4.731
90667W        W57208  33.877  43.938  12.973
90668W        W57209   3.192  18.860   2.587
90669W        W57210  35.501  41.926   1.402
90670W        W57211  24.479  31.437  13.925
90671W        W57212  42.667  26.606  10.170
90672W        W57213   1.827  31.343   3.541
90673W        W57214  20.817  32.407  13.876
90674W        W57215  44.499  26.208  11.050
90675W        W57216  15.440  23.800   4.345
90676W        W57217  41.656  20.595   2.656
90677W        W57218  25.285  31.909  14.886
90678W        W57219  26.208  43.779  13.440
90679W        W57220  21.519  32.808   2.925
90680W        W57221  29.453  16.594   1.805
90681W        W57222  43.479  29.870   2.259
90682W        W57223   8.358   7.312  12.764
90683W        W57224  15.392  20.827   2.159
90684W        W57225  34.889   4.697   0.653
90685W        W57226  30.593  19.550   1.674
90686W        W57227  43.965   0.889  11.324
90687W        W57228  18.075  38.018   1.233
90688W        W57229  30.601  32.951  12.487
90689W        W57230  18.301  41.281  14.798
90690W        W57231   3.698   6.216   0.778
90691W        W57232  44.283  31.067  10.585
90692W        W57233   8.216  39.944   3.262
90693W        W57234  12.241  35.686   2.194
90694W        W57235  26.691  27.592  12.876
90695W        W57236  39.963   0.274  12.936
90696W        W57237  38.314  27.208   3.405
90697W        W57238  44.537  34.074  10.265
90698W        W57239  39.982  15.079  13.807
90699W        W57240  27.704  18.691   3.509
90700W        W57241   7.142  16.702  13.809
90701W        W57242  38.501   3.440  11.119
90702W        W57243  44.378  14.192   0.185
90703W        W57244  31.597  18.810  14.495
90704W        W57245  13.046  14.163   2.246
90705W        W57246  30.692  34.556   4.183
90706W        W57247   6.919  38.740   0.661
90707W        W57248   4.225  11.696   3.889
90708W        W57249  16.217  23.174   1.536
90709W        W57250  20.664  30.112  12.667
90710W        W57251   4.414  35.289  14.786
90711W        W57252   1.361  38.290   1.123
90712W        W57253  12.876  20.980   3.940
90713W        W57254  15.607  10.995  12.582
90714W        W57255   7.777  17.595   4.717
90715W        W57256  10.925  13.754  14.333
90716W        W57257   4.068   7.673  12.039
90717W        W57258  37.924  28.222   1.382
90718W        W57259  40.072  26.896  10.794
90719W        W57260   0.297  23.071   2.091
90720W        W57261  26.096  22.210   4.211
90721W        W57262  21.731  36.561   0.432
90722W        W57263  37.562  35.350  11.469
90723W        W57264  20.202   8.641   4.173
90724W        W57265  15.290  25.622  14.345
90725W        W57266  35.810   9.473  12.633
90726W        W57267   5.149  43.471  13.379
90727W        W57268  20.007   3.884   0.718
90728W        W57269  39.845  38.046   0.359
90729W        W57270  39.966   4.435  13.651
90730W        W57271   1.417  37.828   3.458
90731W        W57272  20.149  14.815   3.380
90732W        W57273  35.442  13.257   1.856
90733W        W57274  35.029  11.653  14.297
90734W        W57275  25.361  24.960  12.506
90735W        W57276   9.379  29.918  12.370
90736W        W57277  30.073  43.302   0.495
90737W        W57278  28.881  40.879   4.351
90738W        W57279   2.217  35.146  11.154
90739W        W57280  42.422  34.243   1.574
90740W        W57281   5.682  40.298  12.559
90741W        W57282   6.188  40.961  12.713
90742W        W57283   6.333  40.512   0.881
90743W        W57284  20.295  43.387   2.203
90744W        W57285  20.703  41.434  13.512
90745W        W57286  44.210  21.559   3.548
90746W        W57287  13.780  17.770   2.881
90747W        W57288  27.733  28.357   2.388
90748W        W57289  19.189  25.978  10.870
90749W        W57290   9.233  32.346   2.467
90750W        W57291  28.535  35.156   1.167
90751W        W57292  27.915  38.529   1.180
90752W        W57293   6.902  39.274   0.721
90753W        W57294   9.782  41.299  11.512
90754W        W57295  19.160  12.626  11.909
90755W        W57296  13.711  12.001  11.265
90756W        W57297  21.245  33.181  12.198
90757W        W57298   9.568  29.317   0.538
90758W        W57299  19.120  13.587  12.630
90759W        W57300  43.192  26.352   1.185
90760W        W57301  32.129  26.247   4.007
90761W        W57302  25.522  44.830   3.737
90762W        W57303   6.185  42.104   4.554
90763W        W57304  43.908  28.798  11.590
90764W        W57305  30.337  22.004   4.074
90765W        W57306  26.027  39.804  12.090
90766W        W57307  31.433   0.088   2.193
90767W        W57308  34.637  35.982   0.442
90768W        W57309  42.005  34.280  11.188
90769W        W57310  25.778   3.769  14.314
90770W        W57311  15.285  29.193   4.122
90771W        W57312  34.927  43.858   3.756
90772W        W57313   4.713   6.241   2.712
90773W        W57314  32.940  27.422  11.672
90774W        W57315  44.945   8.059   2.358
90775W        W57316  33.592  23.190   3.325
90776W        W57317  29.671   7.642   3.176
90777W        W57318  15.888   2.122  13.345
90778W        W57319  38.064   2.779  12.478
90779W        W57320  21.162  43.411   0.346
90780W        W57321  31.044   1.371  12.429
90781W        W57322  33.488   5.813   4.400
90782W        W57323  25.770  19.737  12.234
90783W        W57324  14.817  35.982  11.417
90784W        W57325   8.705   3.157   0.970
90785W        W57326  15.945  16.684   4.695
90786W        W57327  21.796  40.473  12.426
90787W        W57328  26.060  34.492   3.437
90788W        W57329  22.026  31.908  12.899
90789W        W57330  20.257  10.664  13.290
90790W        W57331  44.029  31.067  13.486
90791W        W57332   5.384   5.111  13.988
90792W        W57333  32.079  39.450  13.784
90793W        W57334  13.377  10.462   0.472
90794W        W57335  12.655  39.823   2.277
90795W        W57336  26.341   1.511   1.922
90796W        W57337  40.469  37.496   1.169
90797W        W57338  33.598   1.816  14.871
90798W        W57339  27.454  28.134   1.398
90799W        W57340  36.926  35.311  12.109
90800W        W57341  28.206  31.563   0.211
90801W        W57342  23.688   0.501   4.188
90802W        W57343  42.605  42.537  10.420
90803W        W57344  31.426   1.070   2.564
90804W        W57345   9.267  24.915  12.082
90805W        W57346  17.589   1.598  12.960
90806W        W57347  44.341  34.990   0.057
90807W        W57348   3.916  15.241  14.348
90808W        W57349  32.090   5.216   0.215
90809W        W57350  22.107  22.294  14.332
90810W        W57351  20.410   2.666   4.279
90811W        W57352  34.332  36.903  14.901
90812W        W57353  26.179   1.531   3.296
90813W        W57354   1.298  30.632   2.380
90814W        W57355   1.227  41.100  14.870
90815W        W57356  29.936  12.953   1.916
90816W        W57357   1.422  29.556  11.548
90817W        W57358  30.068  14.262   3.511
90818W        W57359  18.141  44.098  11.542
90819W        W57360  13.719  41.576  14.364
90820W        W57361   0.819  39.795  10.756
90821W        W57362  44.006  27.023  11.311
90822W        W57363   1.879  34.109   0.897
90823W        W57364  28.156   4.515   2.867
90824W        W57365  44.631  40.190  14.964
90825W        W57366   8.804   1.165   2.441
90826W        W57367  30.493  15.153  12.163
90827W        W57368  15.589  36.862  14.255
90828W        W57369  31.571  12.823  13.831
90829W        W57370   8.988  15.942  14.433
90830W        W57371  26.154  36.989  11.264
90831W        W57372   0.563  42.506   0.755
90832W        W57373  36.010  21.061   2.762
90833W        W57374  18.769  18.108   3.163
90834W        W57375  30.583  22.011   3.635
90835W        W57376  35.370  43.933  14.374
90836W        W57377  25.643  15.324   1.060
90837W        W57378  19.491  30.384  12.112
90838W        W57379  21.852  43.036  11.257
90839W        W57380  29.373  34.824  13.775
90840W        W57381   9.422  13.980   0.319
90841W        W57382  30.891  23.424  12.549
90842W        W57383  33.924  15.864   1.781
90843W        W57384  36.495  35.007   9.862
90844W        W57385   2.501   8.544   2.845
90845W        W57386  34.150  36.734  13.307
90846W        W57387  23.249  36.560  10.957
90847W        W57388  10.235  39.448  11.276
90848W        W57389  37.027  39.379  11.645
90849W        W57390  42.533  33.161   4.105
90850W        W57391  16.352   2.811  10.943
90851W        W57392  14.597   6.274   3.315
90852W        W57393   5.709  19.541  11.811
90853W        W57394   0.333  31.882   1.795
90854W        W57395   4.866   6.172   3.623
90855W        W57396  32.198  38.669  13.041
90856W        W57397  20.511  13.706   2.130
90857W        W57398  38.322  14.524  12.176
90858W        W57399  24.784  24.769   4.120
90859W        W57400  13.179  13.349  12.068
90860W        W57401  41.814  19.106   3.567
90861W        W57402  19.742   8.815   4.333
90862W        W57403  29.793  31.600  14.488
90863W        W57404  33.104  20.278   0.147
90864W        W57405  13.385  13.215  12.531
90865W        W57406  16.045  33.418  13.949
90866W        W57407  37.235  37.429   4.437
90867W        W57408   7.920  24.544   4.111
90868W        W57409  37.136  33.330  12.181
90869W        W57410  18.803  39.621  14.200
90870W        W57411  13.803  12.496   0.724
90871W        W57412  21.272  24.771  13.404
90872W        W57413  11.284  37.178  10.307
90873W        W57414  30.568   6.093  13.597
90874W        W57415  10.898  24.054  11.039
90875W        W57416  21.669  12.055   4.512
90876W        W57417  18.251  31.518   0.952
90877W        W57418   1.504  25.543  13.851
90878W        W57419  44.071  38.884  12.418
90879W        W57420  38.025  41.994  12.558
90880W        W57421  27.091  34.126  11.596
90881W        W57422  25.608  38.208  14.538
90882W        W57423  39.849   8.095   2.339
90883W        W57424  18.529  33.061   1.074
90884W        W57425   4.932  27.541   1.890
90885W        W57426  28.131  39.240   0.894
90886W        W57427  43.409  31.688  12.018
90887W        W57428  18.538  42.924   4.022
90888W        W57429  24.026  26.008  12.490
90889W        W57430  11.070  30.067   4.236
90890W        W57431   8.427   0.126  12.516
90891W        W57432  44.804  16.228   4.920
90892W        W57433  11.816  36.210  12.185
90893W        W57434  39.079  21.173   2.366
90894W        W57435  44.533  14.572  13.791
90895W        W57436   1.990  27.539  11.688
90896W        W57437   7.346  30.877  12.847
90897W        W57438   4.268   2.292   2.233
90898W        W57439  13.725  36.299   3.720
90899W        W57440  33.618  33.148  12.658
90900W        W57441  38.143  17.756  12.104
90901W        W57442   9.425  25.668   3.290
90902W        W57443  11.903   6.197  12.912
90903W        W57444  31.386  18.201   3.912
90904W        W57445  41.928  35.661  11.957
90905W        W57446  24.457  33.289  11.658
90906W        W57447  21.658  44.024  10.926
90907W        W57448   9.166  20.946   5.018
90908W        W57449   1.492  18.367   2.627
90909W        W57450  12.860  22.646  13.349
90910W        W57451  14.672  18.033  11.579
90911W        W57452  33.850  16.252  12.191
90912W        W57453  28.681  21.933  11.447
90913W        W57454  33.668   3.344  13.798
90914W        W57455  39.821  15.978   2.469
90915W        W57456  41.680   8.693  13.530
90916W        W57457  11.111  14.206  11.412
90917W        W57458   5.149  27.603   3.284
90918W        W57459  29.246  42.712  14.116
90919W        W57460  23.509  14.130   1.005
90920W        W57461   6.931   9.827  12.818
90921W        W57462  30.878   2.974  11.561
90922W        W57463  30.469  31.583   2.064
90923W        W57464  19.213  38.490  10.741
90924W        W57465  16.668   1.690  13.074
90925W        W57466  43.469  15.562   3.883
90926W        W57467  24.358  20.063  11.137
90927W        W57468  35.611  21.581  13.506
90928W        W57469   4.862   6.027   2.218
90929W        W57470  10.198  23.784   0.801
90930W        W57471  37.658  23.261   4.089
90931W        W57472  26.759   5.710   2.765
90932W        W57473  39.635  11.248  13.013
90933W        W57474  41.764  39.940  14.749
90934W        W57475  16.003  40.305   2.703
90935W        W57476  35.838   7.888  13.001
90936W        W57477  17.843  27.654   4.628
90937W        W57478  38.509   7.811   3.762
90938W        W57479  30.702  26.744   2.221
90939W        W57480   8.590  44.362   4.505
90940W        W57481  37.466   0.866   4.654
90941W        W57482  23.658  25.180  10.942
90942W        W57483  28.039  44.132  11.829
90943W        W57484   2.687  23.909   3.882
90944W        W57485   5.662  35.671  14.937
90945W        W57486  36.135  15.462  12.927
90946W        W57487  11.201  39.519  12.099
90947W        W57488  14.782   5.408   1.323
90948W        W57489   8.162  37.443   9.866
90949W        W57490  18.737   9.016   1.047
90950W        W57491  23.737  39.418  13.829
90951W        W57492  13.550  22.565   4.817
90952W        W57493   9.487  23.382  12.117
90953W        W57494   8.456  26.524   3.513
90954W        W57495   9.375   1.192   1.290
90955W        W57496  22.278  42.494  11.557
90956W        W57497   1.514  44.983   3.819
90957W        W57498  28.365   2.763   1.437
90958W        W57499  13.806   1.221   0.748
90959W        W57500  44.889  17.666  11.053
90960W        W57501  28.722  22.611   1.334
90961W        W57502  21.165   0.768   4.829
90962W        W57503   2.806  34.463   5.056
90963W        W57504  43.697  40.316  14.993
90964W        W57505  24.077  10.156  12.468
90965W        W57506  25.617   8.633   3.229
90966W        W57507  15.383  30.655   4.092
90967W        W57508   4.907  33.294   1.391
90968W        W57509  13.210  19.694   4.702
90969W        W57510   9.655  25.416   3.716
90970W        W57511  19.684  35.355   3.126
90971W        W57512  20.522  19.576   3.262
90972W        W57513  15.081  28.256   0.170
90973W        W57514  41.234  18.697   4.591
90974W        W57515  19.588  38.969  12.247
90975W        W57516  27.396  40.007  13.595
90976W        W57517   0.140  35.390  11.291
90977W        W57518  24.203  31.924  10.129
90978W        W57519  27.095  10.593  12.358
90979W        W57520  12.403  17.232  14.756
90980W        W57521  32.156  12.727   2.636
90981W        W57522  30.001  33.507   2.195
90982W        W57523  13.624   8.846  11.155
90983W        W57524  35.516  39.553  10.770
90984W        W57525  19.633  30.388   4.709
90985W        W57526  20.988  32.267  11.868
90986W        W57527  33.618  25.784   3.198
90987W        W57528  26.260  25.497  13.619
90988W        W57529  25.581  28.550  10.814
90989W        W57530  22.240  20.227  12.060
90990W        W57531  23.379  24.014  14.578
90991W        W57532  12.041  21.143  14.011
90992W        W57533  42.531  32.469   2.245
90993W        W57534  29.849  17.650  13.395
90994W        W57535   8.705  15.576   2.864
90995W        W57536  26.961   2.496   4.309
90996W        W57537  21.753  37.829  13.561
90997W        W57538   3.844  26.015  12.322
90998W        W57539   4.628  27.022   2.841
90999W        W57540  30.601   3.934   3.274
91000W        W57541  43.256  36.167  11.127
91001W        W57542   9.437  29.950   1.626
91002W        W57543  27.466   2.958  10.524
91003W        W57544   0.631  31.354   0.940
91004W        W57545  36.263  39.050   3.675
91005W        W57546  20.374  38.520  14.697
91006W        W57547   7.861  27.044   3.555
91007W        W57548   6.459   7.837   4.301
91008W        W57549  37.015   9.575  10.816
91009W        W57550  25.964  31.089   1.449
91010W        W57551  10.430  36.832   4.191
91011W        W57552  30.699  39.752  13.322
91012W        W57553  36.285   4.970  11.168
91013W        W57554  26.286  14.927  10.822
91014W        W57555   3.463  44.680   2.211
91015W        W57556   9.429   0.435  13.430
91016W        W57557  10.775  27.978  11.909
91017W        W57558  37.800   6.721   1.392
91018W        W57559  22.213  10.330  13.760
91019W        W57560  18.576  15.693   0.260
91020W        W57561   1.902   3.368  11.440
91021W        W57562  34.177  16.406   4.182
91022W        W57563  16.101   1.569  11.381
91023W        W57564  19.603  23.624   4.626
91024W        W57565  36.616   1.434  14.723
91025W        W57566  15.223  20.683   0.343
91026W        W57567  41.459  36.859  14.475
91027W        W57568   8.381  16.012  12.073
91028W        W57569  33.135  31.882   3.263
91029W        W57570  30.005  25.808  11.611
91030W        W57571  36.707  30.629  13.826
91031W        W57572  16.340  19.404   3.245
91032W        W57573  12.661  27.559   2.359
91033W        W57574  10.376  35.369   2.729
91034W        W57575   3.481  17.686   4.909
91035W        W57576  17.236   3.162  11.527
91036W        W57577  10.137  15.528  14.353
91037W        W57578   6.732   2.197   2.160
91038W        W57579  42.841   1.251   1.397
91039W        W57580   9.251  38.993   2.808
91040W        W57581   7.487  16.737  10.692
91041W        W57582   7.203  16.945  12.113
91042W        W57583  30.437  23.392   0.877
91043W        W57584  18.766  21.554  12.099
91044W        W57585  15.321  32.450   4.437
91045W        W57586  36.549   5.897   4.624
91046W        W57587  15.601  14.142  10.679
91047W        W57588  37.481  33.471   1.876
91048W        W57589  24.863  19.065  11.634
91049W        W57590   0.750  36.923   1.430
91050W        W57591  18.529  18.779   1.916
91051W        W57592  42.178   7.052   1.888
91052W        W57593  31.228  19.701   3.856
91053W        W57594   1.575  43.040   3.755
91054W        W57595  26.845   7.734   4.715
91055W        W57596  33.368  43.881   0.390
91056W        W57597  44.511  15.629  13.003
91057W        W57598  27.007   6.746   4.628
91058W        W57599   0.387  30.625   1.412
91059W        W57600  42.204  10.405   2.826
91060W        W57601  21.321  30.517  14.084
91061W        W57602  31.515  36.279   2.815
91062W        W57603  11.835  27.677   3.259
91063W        W57604  18.239  32.599  12.573
91064W        W57605  23.012  35.167  11.631
91065W        W57606  18.935  40.544  11.436
91066W        W57607   1.774  26.950   3.668
91067W        W57608   1.930  39.013  12.899
91068W        W57609  34.110  20.593  10.575
91069W        W57610  13.248  31.946  13.052
91070W        W57611  13.398  40.439  12.823
91071W        W57612   0.460  12.135  14.423
91072W        W57613  24.839  19.963  13.561
91073W        W57614  15.144   6.262   4.189
91074W        W57615  23.989  34.908  12.492
91075W        W57616  33.807  42.217   2.488
91076W        W57617  21.812   2.914   4.643
91077W        W57618  30.435  27.711   1.160
91078W        W57619  11.914  42.614   1.410
91079W        W57620  26.513  31.825  10.952
91080W        W57621  23.208  29.404   1.435
91081W        W57622   3.203  14.899  11.725
91082W        W57623  32.046  19.018   1.759
91083W        W57624  32.941  17.841   1.801
91084W        W57625  34.254  12.132  11.997
91085W        W57626  13.535   0.240   3.816
91086W        W57627  26.116  43.502  12.950
91087W        W57628  39.506  21.157   2.644
91088W        W57629   5.855  34.979   0.388
91089W        W57630  40.312  13.067   0.793
91090W        W57631  20.482   1.127  12.988
91091W        W57632  16.296  42.087  10.734
91092W        W57633   9.186  35.984   1.484
91093W        W57634  10.163  36.015  12.967
91094W        W57635  29.785  33.078  10.612
91095W        W57636  11.228   8.192  12.961
91096W        W57637  32.116  10.943  11.157
91097W        W57638  19.661   1.472  10.801
91098W        W57639  38.236   8.739   0.193
91099W        W57640  10.179  16.061   4.931
91100W        W57641   2.816  31.456  14.437
91101W        W57642  30.716  35.052  12.942
91102W        W57643  15.089  37.831   3.233
91103W        W57644  38.480   6.570  12.024
91104W        W57645  21.986   3.932   3.287
91105W        W57646  36.194  41.456  13.894
91106W        W57647  43.822  16.145  13.525
91107W        W57648  24.752   5.771   9.891
91108W        W57649   0.844   8.706  11.272
91109W        W57650  17.224  27.066  10.621
91110W        W57651   8.328  32.969  12.029
91111W        W57652   6.292  26.352  12.085
91112W        W57653  29.244  37.073  12.963
91113W        W57654   4.961  16.101  12.919
91114W        W57655  17.303  36.599   1.318
91115W        W57656   3.098   3.185  14.330
91116W        W57657  33.423  10.540  14.687
91117W        W57658   3.381  15.052   2.300
91118W        W57659  40.845  29.433  14.332
91119W        W57660  20.771  24.867  12.289
91120W        W57661  26.203  39.691  11.630
91121W        W57662  11.490  36.962  11.677
91122W        W57663   1.540  13.843   4.824
91123W        W57664  14.893   9.301  12.056
91124W        W57665  41.101   1.505   0.793
91125W        W57666  41.473   6.616  14.442
91126W        W57667   3.436  13.885  11.546
91127W        W57668   7.410  37.718   5.255
91128W        W57669  10.687  33.104   1.905
91129W        W57670  41.350  21.114  14.437
91130W        W57671   2.498  22.481  14.733
91131W        W57672  36.549  23.621  10.294
91132W        W57673  27.447  14.587  14.451
91133W        W57674   1.995   4.509  13.430
91134W        W57675  32.607  12.553  13.785
91135W        W57676   7.862  42.070  11.464
91136W        W57677  24.719  40.557  13.986
91137W        W57678   5.027   5.700   3.559
91138W        W57679  15.150  26.921   0.533
91139W        W57680   4.717   2.882   2.755
91140W        W57681   0.747  31.852  12.074
91141W        W57682  24.160  13.482  13.523
91142W        W57683  27.958  11.751   1.980
91143W        W57684   0.788  31.968   3.468
91144W        W57685  30.919  31.853   1.066
91145W        W57686  39.581  40.758  14.872
91146W        W57687   1.888   6.043  13.916
91147W        W57688  21.099  43.917   1.666
91148W        W57689  17.491  24.038  11.647
91149W        W57690  25.335  35.417  12.764
91150W        W57691  32.686  14.751  13.374
91151W        W57692  27.099  22.579  10.749
91152W        W57693  25.125  12.758   0.403
91153W        W57694  11.092   9.800  14.271
91154W        W57695  25.615  35.739  14.421
91155W        W57696   0.961   1.065  13.714
91156W        W57697  43.130   7.751  14.178
91157W        W57698  29.953  31.627   1.996
91158W        W57699  35.566  17.180  13.991
91159W        W57700  39.649  25.431  13.330
91160W        W57701  44.199  10.937   1.454
91161W        W57702  42.840  24.156  13.479
91162W        W57703   0.517   5.019  12.656
91163W        W57704  29.627  23.032  14.957
91164W        W57705  37.439   3.419  13.969
91165W        W57706  27.619  42.524   1.743
91166W        W57707  27.980   7.655   1.373
91167W        W57708  40.869  23.559   2.628
91168W        W57709  13.565   3.667  11.980
91169W        W57710  37.833  12.655  13.442
91170W        W57711  10.236  15.863  12.959
91171W        W57712  27.933   0.357  11.994
91172W        W57713  35.813  38.793   3.732
91173W        W57714  25.075  19.190  13.979
91174W        W57715  40.856  22.468  11.531
91175W        W57716   3.888  17.236  11.340
91176W        W57717  10.537  37.357   4.061
91177W        W57718  36.530  24.269   0.296
91178W        W57719  40.720  16.703   1.383
91179W        W57720  37.322   0.592   3.541
91180W        W57721  24.162  12.795  14.274
91181W        W57722  27.518  11.110   0.902
91182W        W57723  39.260   9.349   0.309
91183W        W57724  33.032  14.251   4.694
91184W        W57725  38.348   8.671  10.723
91185W        W57726   9.577  27.504   4.541
91186W        W57727   8.261  38.031  12.352
91187W        W57728  25.381   9.180   3.797
91188W        W57729   8.805  32.500   4.570
91189W        W57730  25.054  35.133   1.363
91190W        W57731  41.096  37.652   0.465
91191W        W57732  37.406  26.132  14.520
91192W        W57733  17.139  35.125   0.418
91193W        W57734   7.979  19.463   3.598
91194W        W57735  34.499   8.636   1.840
91195W        W57736   7.790   2.312  14.778
91196W        W57737  10.199  31.131  10.536
91197W        W57738  15.487   7.367   2.716
91198W        W57739   0.461  39.041   0.332
91199W        W57740  19.108  28.782   0.799
91200W        W57741   6.825  14.305   4.595
91201W        W57742   9.529   8.742  14.561
91202W        W57743  44.844  37.432  11.494
91203W        W57744  31.953  20.053   0.664
91204W        W57745  34.042  22.070  12.924
91205W        W57746   3.334  30.965   3.410
91206W        W57747   0.932  26.775   2.994
91207W        W57748  33.584  34.118  13.722
91208W        W57749   8.704   4.383   1.264
91209W        W57750  20.303  34.168  10.670
91210W        W57751   8.442   6.427  14.384
91211W        W57752  21.184  12.335   4.709
91212W        W57753  17.039  31.664  10.179
91213W        W57754  41.591  20.052   3.303
91214W        W57755  38.896  38.347   1.724
91215W        W57756  10.749   5.201  11.620
91216W        W57757  28.237   4.078  13.487
91217W        W57758  16.735  17.209   0.251
91218W        W57759   9.904  33.982   2.776
91219W        W57760  36.817  28.027   3.674
91220W        W57761   4.800   4.266   1.675
91221W        W57762  41.068  44.330   4.142
91222W        W57763  44.769  22.568   1.693
91223W        W57764  10.214  21.034  12.236
91224W        W57765   6.121  20.572  10.767
91225W        W57766  32.420  40.830  13.537
91226W        W57767  39.619   8.173   3.687
91227W        W57768  42.905  22.150  12.514
91228W        W57769  34.558  15.141  12.200
91229W        W57770  32.505   1.432  10.147
91230W        W57771  34.510  41.583   1.951
91231W        W57772  32.731  44.548  10.245
91232W        W57773   9.843  16.871   0.391
91233W        W57774  13.359  43.813   3.170
91234W        W57775   5.446  14.116   3.632
91235W        W57776  23.504  11.100   1.876
91236W        W57777   0.611  21.947  14.262
91237W        W57778   8.751   6.594   4.110
91238W        W57779  44.056  37.444   0.033
91239W        W57780   6.847  41.898   0.853
91240W        W57781   5.822  21.897   0.753
91241W        W57782   3.980  32.900   1.777
91242W        W57783  30.379   1.347   2.040
91243W        W57784   0.321  10.320  13.891
91244W        W57785  19.032  29.849   1.378
91245W        W57786  36.559  39.142  10.742
91246W        W57787   1.586  21.002  10.288
91247W        W57788  31.470  43.158   1.184
91248W        W57789  13.598  12.253   3.243
91249W        W57790   8.819   7.740  11.581
91250W        W57791   5.384  25.783   1.844
91251W        W57792  15.381  27.476  14.876
91252W        W57793  11.300   3.059  11.885
91253W        W57794   1.236  13.309  10.705
91254W        W57795  12.774   6.146   3.323
91255W        W57796  17.602  42.549   2.767
91256W        W57797  17.175  28.484   4.794
91257W        W57798  22.575  10.042   4.182
91258W        W57799  10.823  34.136  12.985
91259W        W57800  43.965  10.387  10.641
91260W        W57801  15.060  26.904   2.055
91261W        W57802   8.856  25.022  12.845
91262W        W57803  40.698   8.424  13.602
91263W        W57804  21.170  37.447   4.667
91264W        W57805  40.279   7.282   4.085
91265W        W57806  37.114  41.440  11.496
91266W        W57807   7.325  36.520   2.682
91267W        W57808  10.795  39.080  12.896
91268W        W57809  28.979  12.061  13.801
91269W        W57810  26.704  13.363  12.225
91270W        W57811  18.085  19.921  14.331
91271W        W57812  11.201  13.552  12.909
91272W        W57813  35.419  13.527  12.967
91273W        W57814  37.891  42.392   4.196
91274W        W57815  24.576  10.173  14.889
91275W        W57816  17.088  28.489  10.849
91276W        W57817   3.018  12.686  12.930
91277W        W57818  37.114  16.620  11.065
91278W        W57819  25.216  42.177  12.898
91279W        W57820  10.897  22.725   1.352
91280W        W57821  31.699  43.267  11.373
91281W        W57822   0.068  14.119  14.940
91282W        W57823  25.713  23.626   1.288
91283W        W57824  16.476  34.641  12.393
91284W        W57825  11.329   1.960  12.883
91285W        W57826   8.671  38.258  12.003
91286W        W57827  42.776  39.924  13.988
91287W        W57828   2.206   5.127   0.264
91288W        W57829  17.487  29.025  13.080
91289W        W57830  18.779  37.139  13.030
91290W        W57831  24.961  40.825   2.304
91291W        W57832  24.999   1.416   2.429
91292W        W57833   3.746  27.779   4.008
91293W        W57834  29.665  27.569   4.051
91294W        W57835  16.466   6.710  10.920
91295W        W57836  11.200  43.614   3.098
91296W        W57837  37.524  31.751  12.811
91297W        W57838  17.246  44.936  13.901
91298W        W57839   4.151  27.626  14.054
91299W        W57840  13.668   3.438  12.541
91300W        W57841  14.410  22.273  11.565
91301W        W57842  18.712   2.510   2.932
91302W        W57843  27.099  33.491  13.323
91303W        W57844  15.335  17.338  10.564
91304W        W57845  25.929  15.759  12.891
91305W        W57846  16.556  41.003  11.137
91306W        W57847   2.646  17.177  11.546
91307W        W57848  22.010  38.729   0.446
91308W        W57849   4.147  44.617   4.662
91309W        W57850   1.723  31.902  12.030
91310W        W57851  38.533  42.054   2.561
91311W        W57852  21.003  29.114   3.460
91312W        W57853  27.219   0.794  14.264
91313W        W57854  22.662  19.414   5.116
91314W        W57855  16.295  22.026   2.821
91315W        W57856  19.314  38.844   3.891
91316W        W57857  38.128  42.000   0.390
91317W        W57858   2.705  39.114   1.383
91318W        W57859  38.227  32.219   2.788
91319W        W57860   9.657  40.028   1.700
91320W        W57861  25.070  36.646  13.908
91321W        W57862   9.233   2.377  12.973
91322W        W57863  26.434  23.938  10.710
91323W        W57864  38.988  20.565  13.026
91324W        W57865  16.718  35.120  12.369
91325W        W57866  15.330   4.484  14.393
91326W        W57867  23.771   9.049  10.985
91327W        W57868   0.797  32.343  14.984
91328W        W57869  38.135  40.065   2.739
91329W        W57870  43.359   7.029  13.521
91330W        W57871  25.150  40.649   1.845
91331W        W57872  18.803  14.118   0.739
91332W        W57873  44.151  43.987  10.097
91333W        W57874  39.913  34.549  12.652
91334W        W57875   6.301  11.575  13.988
91335W        W57876  11.743  44.404  12.645
91336W        W57877  39.677  12.953   1.421
91337W        W57878   2.758  29.831   0.848
91338W        W57879  24.489  27.529  13.483
91339W        W57880  10.218   5.393   2.740
91340W        W57881   4.727  24.618  12.854
91341W        W57882   9.439  20.631   3.709
91342W        W57883  14.819   6.696   4.267
91343W        W57884  25.069   2.352   2.210
91344W        W57885   3.790  23.607  11.647
91345W        W57886  20.246  18.722   5.010
91346W        W57887  34.755  16.467  11.646
91347W        W57888  12.642  40.533   4.716
91348W        W57889  41.281   3.356  10.653
91349W        W57890  34.542  34.476  12.135
91350W        W57891  43.645   7.484   0.718
91351W        W57892  41.711  37.438  13.383
91352W        W57893  12.382  40.908   1.310
91353W        W57894  41.374   5.831   4.694
91354W        W57895  32.894  37.361   0.951
91355W        W57896  34.201   3.369  13.902
91356W        W57897   2.294  26.039  12.362
91357W        W57898  18.424   0.374  11.204
91358W        W57899  12.644  14.678   3.490
91359W        W57900  40.816  24.184   4.902
91360W        W57901  15.340  22.530   4.060
91361W        W57902   8.762  14.275  14.561
91362W        W57903   5.085  32.423  12.616
91363W        W57904   7.098  16.081   0.814
91364W        W57905  37.400  40.497  12.891
91365W        W57906  11.317  36.973  11.187
91366W        W57907  34.689  36.085   2.371
91367W        W57908  43.198  34.083  14.243
91368W        W57909  27.368   5.429  11.197
91369W        W57910   4.664   5.189   3.310
91370W        W57911  42.278  23.968   0.693
91371W        W57912  16.698  27.720  10.896
91372W        W57913   7.070  30.552   3.201
91373W        W57914  34.627  38.042  13.291
91374W        W57915   2.280  26.596   1.509
91375W        W57916  43.368  11.801   2.694
91376W        W57917  31.338  32.401   2.162
91377W        W57918   2.453   5.826   1.496
91378W        W57919  34.604  24.189  13.353
91379W        W57920  17.628   6.295  11.552
91380W        W57921  26.468  26.687   0.299
91381W        W57922  18.897  12.791   0.258
91382W        W57923  19.202  20.061  11.991
91383W        W57924  17.723  30.731  12.466
91384W        W57925  19.562  31.712   1.649
91385W        W57926   9.449  15.627   2.127
91386W        W57927  28.454  42.285   4.309
91387W        W57928  44.040   3.400  13.019
91388W        W57929  33.644  31.311   3.816
91389W        W57930  31.447  31.186  14.054
91390W        W57931  20.319  17.264   4.058
91391W        W57932  14.589  34.407   0.846
91392W        W57933  21.488  12.020  11.200
91393W        W57934  15.116   1.179   2.796
91394W        W57935   7.399   6.728   0.957
91395W        W57936  41.599  29.398  10.476
91396W        W57937  30.398   8.252   4.182
91397W        W57938  40.284  41.611   0.394
91398W        W57939  20.041   4.881   3.737
91399W        W57940  37.379  16.183  13.095
91400W        W57941  21.695  13.603   3.733
91401W        W57942  31.894   0.405  13.607
91402W        W57943   6.071  13.329   1.353
91403W        W57944  21.501  43.119  12.066
91404W        W57945  32.925   7.240  14.436
91405W        W57946   3.930  12.414   0.507
91406W        W57947  32.230   5.506  11.997
91407W        W57948  31.059  22.218   4.543
91408W        W57949  20.255  25.583   1.176
91409W        W57950  40.406  33.233  11.555
91410W        W57951   2.538  13.774   2.756
91411W        W57952  37.251   5.764  14.252
91412W        W57953  26.083   5.423  12.511
91413W        W57954   4.632  30.182  13.406
91414W        W57955   1.796  39.073   1.184
91415W        W57956  12.136  44.541   3.822
91416W        W57957  28.171   8.739  10.308
91417W        W57958   0.934   9.934   4.500
91418W        W57959   1.789  21.411  10.621
91419W        W57960  35.646  30.307  13.001
91420W        W57961  27.685   7.495  13.168
91421W        W57962  21.006  36.586  14.795
91422W        W57963  11.279   8.408  13.425
91423W        W57964  18.152   8.092  11.689
91424W        W57965  34.532  31.125   3.128
91425W        W57966   6.436  10.393   4.745
91426W        W57967  35.674   1.598  10.307
91427W        W57968  26.218  18.646   0.422
91428W        W57969  38.453   4.117   2.265
91429W        W57970  29.773  23.271  13.485
91430W        W57971  39.482  18.378   1.837
91431W        W57972   3.399  35.822  12.830
91432W        W57973   1.468  42.812  13.321
91433W        W57974   5.742  23.993   1.760
91434W        W57975  21.520  26.290  10.921
91435W        W57976  24.223   4.505  12.044
91436W        W57977   9.573  18.363  12.003
91437W        W57978   3.157  13.476   4.612
91438W        W57979  10.571  25.778  14.982
91439W        W57980  17.699  20.851  11.792
91440W        W57981  12.396  23.176   2.295
91441W        W57982   8.136  20.113  12.526
91442W        W57983  18.527  43.659  14.947
91443W        W57984  11.463   4.387  13.061
91444W        W57985   4.814  39.580   2.825
91445W        W57986  11.749  31.452  11.259
91446W        W57987  40.412  20.323  12.036
91447W        W57988  23.379  26.520  13.974
91448W        W57989   5.897  22.625   4.227
91449W        W57990  34.436  35.620  14.070
91450W        W57991  13.312  33.095  14.021
91451W        W57992  37.335  39.097  14.339
91452W        W57993  35.280  26.072  13.395
91453W        W57994  41.415  12.810  13.795
91454W        W57995  43.827   1.313   3.640
91455W        W57996  28.682  27.975   3.061
91456W        W57997  17.588  43.691  14.869
91457W        W57998  44.271  26.092  14.799
91458W        W57999  14.366   7.680  11.634
91459W        W58000  30.561  20.639   1.639
91460W        W58001  35.017   6.552   0.979
91461W        W58002  33.815   5.321   1.893
91462W        W58003  32.972  33.309  12.547
91463W        W58004  36.496   5.739   1.861
91464W        W58005   1.475  22.572  14.466
91465W        W58006  42.775  10.324  12.498
91466W        W58007  10.789   6.651   4.232
91467W        W58008   1.174   5.123   0.040
91468W        W58009  40.026   2.888  13.457
91469W        W58010  36.861   1.858   9.674
91470W        W58011  26.595  43.552   0.892
91471W        W58012  14.887  27.609  13.801
91472W        W58013  41.362  43.480  14.757
91473W        W58014  21.617  22.520  14.276
91474W        W58015  13.213  36.377  11.952
91475W        W58016  23.438  24.522  14.586
91476W        W58017  33.213   1.201   0.367
91477W        W58018  30.087   4.303  13.446
91478W        W58019  21.409   3.283  12.285
91479W        W58020  20.680   1.318  12.552
91480W        W58021   3.929  14.624  10.875
91481W        W58022   7.110  37.614  11.149
91482W        W58023   7.646  24.463   0.831
91483W        W58024  29.587  29.140   1.436
91484W        W58025  16.029  34.875  12.188
91485W        W58026  28.409   0.553   0.222
91486W        W58027  18.683  44.037  11.242
91487W        W58028  33.746  41.125  12.394
91488W        W58029  13.201  39.856   2.250
91489W        W58030  16.478  26.185  11.742
91490W        W58031  38.870   7.807   4.133
91491W        W58032  28.607   1.742  14.377
91492W        W58033   8.431  27.375   3.770
91493W        W58034   6.580   2.409  10.727
91494W        W58035  20.010  31.126  12.998
91495W        W58036   4.376  23.070  13.135
91496W        W58037  20.492  12.162  14.419
91497W        W58038  22.489  14.419   1.057
91498W        W58039  26.234  24.549   0.497
91499W        W58040  17.141  13.836  14.591
91500W        W58041  31.649  34.152  13.304
91501W        W58042  41.518  27.982   3.699
91502W        W58043   3.744   0.785  10.243
91503W        W58044  22.662  35.871  12.912
91504W        W58045  11.222  33.125   3.650
91505W        W58046  23.521  40.372  13.025
91506W        W58047   8.907  28.954  12.444
91507W        W58048  27.996  13.064  10.770
91508W        W58049  29.849  11.550  14.891
91509W        W58050  28.486   2.863   0.336
91510W        W58051  15.711  22.415  12.602
91511W        W58052   5.440  40.190  12.116
91512W        W58053  42.393   8.742   2.825
91513W        W58054  11.202  34.506   1.920
91514W        W58055  11.062   8.909   1.710
91515W        W58056  42.524   0.171  13.568
91516W        W58057  44.735  22.769  13.671
91517W        W58058   9.820  32.227  14.452
91518W        W58059  31.374   5.471   1.311
91519W        W58060  25.533   7.589   4.436
91520W        W58061  44.349  20.249  13.369
91521W        W58062  41.977  25.678  10.723
91522W        W58063  39.328  19.507   4.639
91523W        W58064   3.743  13.802  13.474
91524W        W58065  38.916  10.479  11.180
91525W        W58066  23.606   7.934  10.240
91526W        W58067  32.044  32.186   4.472
91527W        W58068   2.866  23.234   4.670
91528W        W58069   3.461  33.869  12.470
91529W        W58070  37.500  34.081  10.666
91530W        W58071  38.535   3.618  12.684
91531W        W58072  19.755   4.307  13.841
91532W        W58073   2.201  34.872   2.773
91533W        W58074   8.437  28.088  11.145
91534W        W58075  30.044  30.611   3.264
91535W        W58076  27.397  18.289  14.935
91536W        W58077  31.557   0.652   4.613
91537W        W58078  36.446  13.623  11.032
91538W        W58079  21.661   2.692   0.281
91539W        W58080   6.672   0.189  12.410
91540W        W58081  39.592  21.062  11.879
91541W        W58082   8.299  19.637   5.137
91542W        W58083  21.483  16.821  13.740
91543W        W58084   4.758  12.345   2.828
91544W        W58085  34.683  24.720   0.047
91545W        W58086  37.892  22.157  14.291
91546W        W58087  37.872  12.195   1.931
91547W        W58088   4.405  34.568   0.793
91548W        W58089  16.019   8.695   2.805
91549W        W58090  40.345  41.210  12.969
91550W        W58091  17.198   5.470   3.615
91551W        W58092  22.066   0.251  12.427
91552W        W58093  34.061  28.937  11.880
91553W        W58094  33.100   5.001  11.596
91554W        W58095  28.485  14.761  13.382
91555W        W58096  18.859  36.349   0.308
91556W        W58097  27.026  40.175   3.732
91557W        W58098   3.600  31.044   5.074
91558W        W58099  21.275  13.019  12.950
91559W        W58100  40.338   3.764   2.798
91560W        W58101   2.757  41.870   4.583
91561W        W58102  31.393  27.614   1.601
91562W        W58103  26.609  15.411   0.251
91563W        W58104  30.406  44.687   1.351
91564W        W58105  26.686   3.404   1.437
91565W        W58106  26.191  22.898   2.573
91566W        W58107  42.467  10.014  14.715
91567W        W58108  44.297  14.258   1.439
91568W        W58109   3.845  28.695   0.344
91569W        W58110  43.734  16.707   0.256
91570W        W58111  10.131  26.295   1.359
91571W        W58112   4.643  21.575   4.557
91572W        W58113  33.154  29.813  12.418
91573W        W58114  12.777  38.018  12.152
91574W        W58115  14.305   3.831  11.942
91575W        W58116  36.082  14.224   3.659
91576W        W58117  25.608  11.267   0.947
91577W        W58118  33.369   3.212   0.197
91578W        W58119  40.179  15.078   5.256
91579W        W58120   4.965  31.270   4.866
91580W        W58121  21.656   7.952  14.819
91581W        W58122  16.204  32.512   1.899
91582W        W58123   6.929  42.542  13.360
91583W        W58124  14.597  43.357   0.335
91584W        W58125  31.561  34.195   3.671
91585W        W58126   8.800  13.227   4.545
91586W        W58127  41.919  24.130   4.097
91587W        W58128  13.497  33.372   4.562
91588W        W58129  19.813  27.461  11.616
91589W        W58130  38.424  24.728  13.838
91590W        W58131  37.890  40.421  12.467
91591W        W58132  36.184   2.440  12.111
91592W        W58133  36.028   5.755  10.515
91593W        W58134  23.250  20.650  13.136
91594W        W58135  33.097  36.059  14.950
91595W        W58136  14.610  33.415   1.098
91596W        W58137  10.791  30.606   1.682
91597W        W58138  36.935  25.275  13.016
91598W        W58139   9.861  12.918  13.359
91599W        W58140  25.401  41.327   4.633
91600W        W58141  39.008  16.308  10.997
91601W        W58142   6.933   1.313  11.101
91602W        W58143  16.638  11.214  14.754
91603W        W58144  26.742  11.261  13.869
91604W        W58145  34.723   4.209  14.996
91605W        W58146   9.076  15.066   3.786
91606W        W58147   6.448   3.464   3.221
91607W        W58148  19.630  44.434   1.387
91608W        W58149  28.172  44.418  11.430
91609W        W58150   7.339  24.458  14.319
91610W        W58151  40.144  29.720  11.119
91611W        W58152   5.951  30.873  14.444
91612W        W58153   9.185   7.305  12.809
91613W        W58154  27.369  11.938   4.170
91614W        W58155  26.263  31.688  13.029
91615W        W58156   2.776  21.634   2.611
91616W        W58157  31.801  35.364  11.614
91617W        W58158  22.685  29.614   3.649
91618W        W58159  12.178   7.929  12.105
91619W        W58160  18.666  19.993  14.962
91620W        W58161   4.431   8.661  14.368
91621W        W58162  39.578  33.634  12.526
91622W        W58163  19.313   7.565   4.495
91623W        W58164  11.831  31.449   1.852
91624W        W58165  41.546  12.879   0.258
91625W        W58166   7.707  33.083  14.551
91626W        W58167  42.376  31.268  11.732
91627W        W58168  38.472  33.659   3.146
91628W        W58169  11.625  42.855   2.292
91629W        W58170  11.517  22.318  12.468
91630W        W58171  31.398  19.130  12.950
91631W        W58172  36.012   7.496  13.931
91632W        W58173  31.375  37.290   1.715
91633W        W58174  42.245  17.466  14.970
91634W        W58175  19.051  37.002   1.229
91635W        W58176  13.926  32.686  11.449
91636W        W58177   9.811   6.886  10.721
91637W        W58178  10.635  42.312   0.230
91638W        W58179  11.438  36.464  12.431
91639W        W58180   3.168  27.719   3.374
91640W        W58181   7.916   6.461  12.431
91641W        W58182  12.953  32.462  11.113
91642W        W58183  35.534  13.341   1.328
91643W        W58184  43.996  43.444   2.871
91644W        W58185  18.839  24.482   1.300
91645W        W58186  37.870   5.494   1.850
91646W        W58187  16.841  44.350   1.758
91647W        W58188  31.150   9.653   2.216
91648W        W58189   8.335  25.143   4.764
91649W        W58190  30.894   7.656   3.762
91650W        W58191   3.185   0.226  13.982
91651W        W58192   7.944  35.001   0.810
91652W        W58193  29.152  43.515   2.340
91653W        W58194  34.928  18.039  13.994
91654W        W58195  42.798   1.257  11.872
91655W        W58196  39.869  38.365  13.853
91656W        W58197  17.999  28.842  12.618
91657W        W58198  34.937  21.272   1.488
91658W        W58199  15.507  29.656   5.108
91659W        W58200  23.216  15.648   3.688
91660W        W58201  37.317  10.878  12.473
91661W        W58202  27.508   7.108  12.829
91662W        W58203  11.233  16.548   4.664
91663W        W58204  26.451  27.088  12.958
91664W        W58205  39.515  44.239  13.414
91665W        W58206  39.083  23.351  14.859
91666W        W58207   0.717  17.969   0.942
91667W        W58208   1.816   7.379   4.132
91668W        W58209   6.169  22.581  10.765
91669W        W58210  43.292  30.610   1.213
91670W        W58211  19.647  16.034   1.179
91671W        W58212   5.511  38.469   3.914
91672W        W58213  23.921  37.137  14.340
91673W        W58214  19.226  35.742  10.709
91674W        W58215   9.941  24.589  14.399
91675W        W58216   0.271  33.229  12.872
91676W        W58217   1.828  37.356  12.216
91677W        W58218  30.661  34.169  13.434
91678W        W58219  42.927  39.844  11.494
91679W        W58220  27.990   9.385  14.082
91680W        W58221  20.081  29.814  13.316
91681W        W58222  36.120   8.145   3.181
91682W        W58223  37.398  23.618   1.995
91683W        W58224  34.892  42.827  13.021
91684W        W58225  24.115  26.391  10.794
91685W        W58226  44.942  16.587  14.734
91686W        W58227  22.595  35.591   3.493
91687W        W58228  31.865  15.381  14.453
91688W        W58229   3.071   9.411  12.971
91689W        W58230  10.879  16.707  12.359
91690W        W58231  31.149  44.359   4.614
91691W        W58232  44.803   9.114   2.370
91692W        W58233   5.429   9.838  11.012
91693W        W58234  25.974   2.073  11.593
91694W        W58235  13.320  10.368  10.532
91695W        W58236  19.657  30.866   5.007
91696W        W58237  26.686   0.451   4.327
91697W        W58238   2.280   2.993  12.137
91698W        W58239  16.102  24.328   1.420
91699W        W58240  37.074  44.498   2.265
91700W        W58241  24.969  32.519  12.011
91701W        W58242  32.900   4.005   4.412
91702W        W58243  27.241  20.314  12.505
91703W        W58244  23.084  12.779  12.334
91704W        W58245  16.645  38.527   1.409
91705W        W58246   1.438  30.507  12.708
91706W        W58247  27.225  37.508  11.709
91707W        W58248  43.136  29.028  11.064
91708W        W58249  16.233  19.277  11.606
91709W        W58250  41.373  34.504   3.996
91710W        W58251   1.501   0.199   1.460
91711W        W58252  31.371  30.536  10.932
91712W        W58253   4.218  35.993  10.633
91713W        W58254   1.573  14.150  13.019
91714W        W58255  44.764  33.618  11.956
91715W        W58256  43.060   4.816  13.930
91716W        W58257  39.800  31.505   0.512
91717W        W58258  11.733  33.615  14.538
91718W        W58259  12.524  36.357   3.106
91719W        W58260  30.363  19.656  14.840
91720W        W58261  35.949  31.888   3.164
91721W        W58262   0.524  28.947  13.488
91722W        W58263  21.890  21.216  14.028
91723W        W58264  24.650  20.996   3.195
91724W        W58265  35.503  39.241   0.757
91725W        W58266  41.677  20.142  14.256
91726W        W58267  36.080  18.567  14.462
91727W        W58268   5.771   1.978  11.136
91728W        W58269  38.106   0.567   2.335
91729W        W58270  39.998  36.698  14.506
91730W        W58271  15.908   5.435  13.543
91731W        W58272  38.503  42.779   0.442
91732W        W58273  19.516  34.485  13.327
91733W        W58274  10.621  35.577  14.427
91734W        W58275  29.532  23.533  14.966
91735W        W58276  24.165  44.270  11.314
91736W        W58277  40.044  10.960  12.937
91737W        W58278   4.898  23.078  10.180
91738W        W58279   0.310  41.246  11.179
91739W        W58280  32.873  39.631   1.829
91740W        W58281  43.253  20.689   4.421
91741W        W58282   6.616  17.540   3.728
91742W        W58283   1.870   1.361   4.265
91743W        W58284  12.077  12.659   2.408
91744W        W58285  25.927  10.810   0.866
91745W        W58286  11.131  34.412  12.682
91746W        W58287  13.602  38.164   0.396
91747W        W58288  24.298  18.311   4.172
91748W        W58289  40.967  22.895   0.803
91749W        W58290   3.183  36.211  12.027
91750W        W58291  36.664  17.814  13.424
91751W        W58292   0.439  18.301  11.656
91752W        W58293  27.674  32.145   4.096
91753W        W58294  37.696  12.760  11.284
91754W        W58295   1.904  28.329   9.560
91755W        W58296  15.591  39.332   2.434
91756W        W58297  18.937  42.496   2.325
91757W        W58298  28.495  30.605   4.001
91758W        W58299  34.462  15.702   3.385
91759W        W58300  25.899  15.564  14.343
91760W        W58301  44.586  38.895   5.040
91761W        W58302  28.647  32.616   0.283
91762W        W58303  38.973   0.265   1.415
91763W        W58304   9.734  18.158   2.540
91764W        W58305  36.364  18.137   1.183
91765W        W58306  25.827  30.603   4.398
91766W        W58307  41.936  37.719   4.701
91767W        W58308  16.772  35.989  13.754
91768W        W58309  29.957  14.035  13.033
91769W        W58310   7.176  43.428  11.756
91770W        W58311  19.537   0.647  12.958
91771W        W58312   4.224  32.170  13.361
91772W        W58313   1.905  14.084   3.628
91773W        W58314  16.613  42.047  11.145
91774W        W58315  33.466   2.549   2.687
91775W        W58316   5.988   2.605   9.797
91776W        W58317  31.937  44.880  12.578
91777W        W58318   3.177  35.063  12.217
91778W        W58319  42.559  12.502   4.530
91779W        W58320  35.321  19.654  11.582
91780W        W58321  35.394  34.150  14.937
91781W        W58322   0.746   0.493   2.288
91782W        W58323  35.243  42.221  12.455
91783W        W58324  10.268  11.770   1.036
91784W        W58325  11.811  30.508   1.907
91785W        W58326   3.365  17.812  13.914
91786W        W58327  12.535   8.381  11.579
91787W        W58328   2.667   9.736   1.703
91788W        W58329  32.868  14.655  12.899
91789W        W58330   6.322   1.442  12.335
91790W        W58331   4.124   3.293  12.550
91791W        W58332  38.772   0.559   5.085
91792W        W58333  39.527  42.827   1.896
91793W        W58334  11.266  44.813   1.769
91794W        W58335  31.420  40.615  11.216
91795W        W58336  11.848  13.375   0.373
91796W        W58337  15.609  30.379   2.614
91797W        W58338  11.678  43.061   1.822
91798W        W58339  14.379  37.889  12.541
91799W        W58340  22.068  44.804  10.788
91800W        W58341  17.089  21.829  13.772
91801W        W58342   7.645  37.910   9.874
91802W        W58343  38.486  19.277   3.693
91803W        W58344   4.753  13.025   2.169
91804W        W58345  13.686  39.236  12.659
91805W        W58346  18.949  14.683   2.042
91806W        W58347  11.957  31.294  11.696
91807W        W58348   4.790  38.571   2.863
91808W        W58349  25.950   3.815   0.862
91809W        W58350   4.762  43.031  12.596
91810W        W58351  20.003  13.397  11.228
91811W        W58352  38.943  15.750   2.268
91812W        W58353  34.055  24.439  14.488
91813W        W58354  37.776  16.092  11.565
91814W        W58355  28.449  23.564  11.500
91815W        W58356   0.355  38.522  14.851
91816W        W58357   3.398   5.182  13.912
91817W        W58358  14.678  36.573   3.639
91818W        W58359   5.631   5.269  13.424
91819W        W58360   6.367  35.307   0.399
91820W        W58361  33.907  32.253  11.828
91821W        W58362   0.896  23.735   0.554
91822W        W58363  22.687  23.941  13.983
91823W        W58364  38.791  33.385   3.481
91824W        W58365  41.381  42.524   3.537
91825W        W58366   3.129  44.873  12.829
91826W        W58367  38.055   4.246   3.776
91827W        W58368  12.674  43.298  13.922
91828W        W58369   4.850  16.630  13.919
91829W        W58370  43.940  32.447   0.737
91830W        W58371   8.332   7.090   4.355
91831W        W58372   9.225  40.940  10.817
91832W        W58373  23.067  41.832  11.486
91833W        W58374  42.811  12.257   1.696
91834W        W58375  35.115  11.721   3.197
91835W        W58376   9.824  26.996  14.289
91836W        W58377  25.127  22.348  10.244
91837W        W58378  27.186   5.402   2.627
91838W        W58379  36.096  39.238  12.701
91839W        W58380  39.912   6.813  11.092
91840W        W58381  42.588  14.789  12.034
91841W        W58382  44.031  38.883  10.546
91842W        W58383   5.663  18.247   1.292
91843W        W58384  34.988  18.688  13.074
91844W        W58385  20.299  38.069  11.773
91845W        W58386   2.801  25.492   3.431
91846W        W58387   6.564  10.760  14.041
91847W        W58388  14.613  18.390   0.346
91848W        W58389  23.717  18.534   3.745
91849W        W58390  17.867  41.398   4.390
91850W        W58391  44.231  37.921  12.384
91851W        W58392   3.407  43.595   3.222
91852W        W58393  31.690  18.231  12.104
91853W        W58394   7.023  10.562  13.924
91854W        W58395  25.508  10.811  14.993
91855W        W58396   7.166  10.890  12.377
91856W        W58397   2.120  24.727   4.632
91857W        W58398  21.136   2.332  10.747
91858W        W58399  26.502  18.006  11.621
91859W        W58400   7.875  16.778  11.128
91860W        W58401   0.871   1.816   1.877
91861W        W58402  12.725  22.160  12.077
91862W        W58403  43.268  25.573   2.817
91863W        W58404  23.168  14.990   0.903
91864W        W58405  11.090  32.364   4.124
91865W        W58406  12.363  16.707  11.173
91866W        W58407  37.431  18.554   3.826
91867W        W58408   3.864   7.577  14.828
91868W        W58409  38.397  34.829   2.289
91869W        W58410   4.512  13.278  14.865
91870W        W58411  43.976  13.764   0.872
91871W        W58412  28.345   8.646   4.198
91872W        W58413  41.325  18.110  11.904
91873W        W58414  36.476  29.587   2.746
91874W        W58415  11.826  34.855  11.167
91875W        W58416  10.608   3.337  12.396
91876W        W58417  43.837  37.709  10.543
91877W        W58418  17.724  34.378  12.953
91878W        W58419  43.339  39.909   3.042
91879W        W58420   6.262  19.323   3.901
91880W        W58421  43.325  18.269   3.447
91881W        W58422  36.163  24.867   4.980
91882W        W58423  28.510  29.519  13.150
91883W        W58424  22.704   7.594   0.684
91884W        W58425  15.540  17.800  13.396
91885W        W58426  33.950   9.137  14.901
91886W        W58427  19.093  37.484   4.171
91887W        W58428  31.441  28.552  11.095
91888W        W58429  23.419  19.787  12.471
91889W        W58430   9.435  38.201   4.443
91890W        W58431   5.114  26.777   1.741
91891W        W58432   0.460  33.193   1.390
91892W        W58433  11.868  42.883  13.395
91893W        W58434  19.687  29.871   1.790
91894W        W58435  43.147  22.323  11.677
91895W        W58436  42.879   5.226  13.660
91896W        W58437  41.068   7.458  13.775
91897W        W58438  39.495  35.208   4.562
91898W        W58439  20.678   2.265   0.862
91899W        W58440  32.606  27.996  12.447
91900W        W58441   7.672  40.221  14.235
91901W        W58442  14.020  13.829   3.041
91902W        W58443  12.757   7.115   3.660
91903W        W58444   5.395  11.584   4.520
91904W        W58445  25.574   4.092   2.655
91905W        W58446  27.313  30.851  13.312
91906W        W58447  30.665  27.440   4.147
91907W        W58448   9.640  39.862   1.215
91908W        W58449  34.928  35.605   4.658
91909W        W58450  36.775  12.270  12.039
91910W        W58451  40.913  24.744   2.204
91911W        W58452  34.788  13.847  10.805
91912W        W58453  20.004  25.620   2.905
91913W        W58454  35.843  32.773   4.545
91914W        W58455  27.892  10.285  13.594
91915W        W58456  19.108  13.313   0.325
91916W        W58457  39.458  41.609   2.183
91917W        W58458  38.588  25.248  13.876
91918W        W58459  19.792  22.089  12.408
91919W        W58460  13.069  42.139   0.260
91920W        W58461   9.265   6.728   4.037
91921W        W58462  36.917  23.426   4.671
91922W        W58463  14.617  30.481  14.474
91923W        W58464   0.903   1.754   2.736
91924W        W58465  32.615  39.095   1.356
91925W        W58466  19.834  22.147   2.534
91926W        W58467   0.441  43.247   3.263
91927W        W58468  32.586  31.416  13.247
91928W        W58469  25.773  44.227  13.477
91929W        W58470  22.551  37.051  14.274
91930W        W58471   3.407  18.127  12.088
91931W        W58472  15.616   3.727   2.151
91932W        W58473  15.104  34.178  10.767
91933W        W58474  31.912   7.456  14.410
91934W        W58475  16.995  43.536   4.691
91935W        W58476  40.528  38.498  14.300
91936W        W58477  17.067  15.084  13.800
91937W        W58478  24.704  42.161  14.894
91938W        W58479  20.845  13.737   1.752
91939W        W58480  25.212  34.659   1.491
91940W        W58481  10.447  27.997  11.048
91941W        W58482   2.782  33.422   0.221
91942W        W58483  33.301  24.954   4.159
91943W        W58484   3.945   3.380   3.688
91944W        W58485  23.064  33.908   1.134
91945W        W58486  32.681  12.785   2.808
91946W        W58487  42.624  19.614   1.860
91947W        W58488  19.029  43.705   4.148
91948W        W58489  33.369   3.413   0.682
91949W        W58490   4.721  35.037   0.140
91950W        W58491  39.840  13.214  13.074
91951W        W58492  34.341   7.505  12.065
91952W        W58493   0.753  39.897  12.102
91953W        W58494  25.168  44.073   2.952
91954W        W58495  13.800  22.468   1.013
91955W        W58496   4.692  13.106   0.327
91956W        W58497  16.154  42.871  14.951
91957W        W58498  14.605   5.241   2.333
91958W        W58499   8.703  40.953  12.134
91959W        W58500  16.364  12.438   3.244
91960W        W58501  41.399  16.497   1.731
91961W        W58502  22.238  17.855   4.154
91962W        W58503  34.163   7.336  14.849
91963W        W58504  10.158   2.248  13.036
91964W        W58505  15.354   1.616   4.014
91965W        W58506   2.760  24.297   2.280
91966W        W58507   7.740  14.366  12.099
91967W        W58508  33.684  27.608  13.405
91968W        W58509   8.626  11.238  13.863
91969W        W58510   8.190  18.987   2.956
91970W        W58511  33.406   5.858  11.625
91971W        W58512  36.803  16.558   0.204
91972W        W58513   1.787  37.445   2.337
91973W        W58514  18.505  21.659  14.950
91974W        W58515  24.247  31.733   4.723
91975W        W58516  27.065   5.224  14.030
91976W        W58517  28.221  21.652  10.548
91977W        W58518  15.747  37.351  10.110
91978W        W58519  35.733  28.680  12.486
91979W        W58520  21.008  15.917   3.534
91980W        W58521  14.379   1.489   4.861
91981W        W58522   2.937   8.679   2.487
91982W        W58523  42.958  18.716   3.324
91983W        W58524  15.890  17.271   1.878
91984W        W58525  28.211  38.785  13.833
91985W        W58526  11.314  20.114   3.819
91986W        W58527   7.974   6.650  14.272
91987W        W58528  42.820  27.360  13.898
91988W        W58529  31.595  31.403  12.323
91989W        W58530  21.588  25.789  10.742
91990W        W58531  18.463  29.873  11.167
91991W        W58532  31.881  24.634   2.238
91992W        W58533  34.014   4.790  12.547
91993W        W58534  21.210  32.812   3.345
91994W        W58535  24.971  30.490   4.405
91995W        W58536  13.146  23.213  14.359
91996W        W58537  23.727  43.010   4.377
91997W        W58538  14.608  34.368  11.198
91998W        W58539   4.336   7.240   1.738
91999W        W58540  34.970  10.246  10.824
92000W        W58541  33.788  26.530   3.230
92001W        W58542   7.158  25.667   4.150
92002W        W58543   1.720  10.121  12.497
92003W        W58544  35.809  26.637  14.478
92004W        W58545  36.948  22.468   4.665
92005W        W58546   7.124   3.863   3.750
92006W        W58547  18.627  10.266   0.233
92007W        W58548  17.176   0.885  12.821
92008W        W58549  18.177   0.218   2.181
92009W        W58550  14.658  37.927   0.348
92010W        W58551  26.452  32.011   0.513
92011W        W58552   4.283  18.274   2.050
92012W        W58553  14.297  44.822  13.480
92013W        W58554  39.890   6.210   1.953
92014W        W58555  35.436   2.522  14.409
92015W        W58556  33.573  10.428   1.612
92016W        W58557  32.852  24.081  10.655
92017W        W58558  30.832  32.259   0.587
92018W        W58559  41.335   0.455   2.469
92019W        W58560  40.969  19.277  13.593
92020W        W58561  10.852   7.379  12.599
92021W        W58562   9.582  15.012   2.992
92022W        W58563   9.174  28.888  12.012
92023W        W58564  20.098  13.268   3.211
92024W        W58565   0.203  41.847  11.919
92025W        W58566  22.765  42.648  10.010
92026W        W58567  33.181  15.972  11.066
92027W        W58568  10.149  30.169  14.979
92028W        W58569  10.275  33.230  13.831
92029W        W58570  22.223  25.096  10.432
92030W        W58571  30.640  39.815  13.843
92031W        W58572  34.340  44.803   4.634
92032W        W58573  29.891  11.843  13.462
92033W        W58574   6.715  24.554   3.238
92034W        W58575  19.004  21.071   2.407
92035W        W58576   1.286  16.882  13.372
92036W        W58577  10.171   8.419   4.400
92037W        W58578   2.039   1.495  14.301
92038W        W58579  11.803  44.507  11.302
92039W        W58580  42.261  30.705   3.780
92040W        W58581  10.844  34.042   3.695
92041W        W58582   6.170  23.335  12.055
92042W        W58583  13.061  10.055   3.531
92043W        W58584   2.224  44.461   0.247
92044W        W58585  41.795  10.143  10.966
92045W        W58586  32.554  10.973  14.854
92046W        W58587   2.681  35.801  14.316
92047W        W58588  44.559  31.085   1.427
92048W        W58589  10.284  40.490  14.327
92049W        W58590  40.788  28.592   0.351
92050W        W58591  36.898  27.250  11.155
92051W        W58592   4.990  22.226   2.775
92052W        W58593  14.390   8.165   4.563
92053W        W58594  27.052   1.320   3.436
92054W        W58595  11.256  32.699   0.244
92055W        W58596  37.135  35.865   2.832
92056W        W58597   0.840  20.758  10.991
92057W        W58598  36.247   6.226  12.043
92058W        W58599  41.962  30.302  11.180
92059W        W58600  37.850  18.191   5.079
92060W        W58601  31.649  38.682  12.700
92061W        W58602  17.085  44.734  11.071
92062W        W58603  20.170  29.521  14.806
92063W        W58604  34.597  14.262  10.587
92064W        W58605   9.104  30.183  13.780
92065W        W58606   7.524  22.802   3.268
92066W        W58607   9.379   5.689  10.908
92067W        W58608  15.328   5.615   1.338
92068W        W58609  35.110  10.294   3.160
92069W        W58610   1.856  22.530   0.464
92070W        W58611  26.481  39.544   3.733
92071W        W58612  19.500  35.151  11.237
92072W        W58613   6.545  18.666  13.983
92073W        W58614  16.321   3.625   0.829
92074W        W58615  32.426  32.848  14.965
92075W        W58616  41.476  12.660   1.735
92076W        W58617   9.323  17.826   4.561
92077W        W58618   0.479  39.104   2.691
92078W        W58619  39.110  17.959  14.476
92079W        W58620  42.414  10.259   3.290
92080W        W58621  33.619  10.830   0.295
92081W        W58622  37.907  36.323   3.128
92082W        W58623  34.949  42.065   3.210
92083W        W58624   5.381  28.969  11.603
92084W        W58625  44.764  20.586   0.908
92085W        W58626  19.894  12.744  10.281
92086W        W58627  19.281  15.725  13.569
92087W        W58628  23.084   5.769   3.114
92088W        W58629  20.697  32.688  11.767
92089W        W58630   3.953  35.673  12.059
92090W        W58631  10.288  30.157  11.347
92091W        W58632  19.998  34.287  13.298
92092W        W58633  35.369   1.967  13.569
92093W        W58634   9.271  36.180   2.070
92094W        W58635  29.269  13.310  12.696
92095W        W58636  31.025  11.581  10.620
92096W        W58637  32.482   7.480  10.028
92097W        W58638   0.240  12.042  10.438
92098W        W58639  13.045  39.792  12.044
92099W        W58640  27.629  39.027  12.936
92100W        W58641  32.675  34.918   1.258
92101W        W58642  38.371  25.880   0.322
92102W        W58643   2.447  13.424  14.322
92103W        W58644  34.474  27.718   2.399
92104W        W58645   5.408  31.101   3.079
92105W        W58646  39.695  26.880   1.982
92106W        W58647   2.124  14.194  12.973
92107W        W58648  30.858  26.765  10.681
92108W        W58649  37.543   4.708   0.574
92109W        W58650  39.955  10.465   1.836
92110W        W58651  29.616  42.251  11.656
92111W        W58652   8.643   1.356   3.311
92112W        W58653  13.548  22.934   3.157
92113W        W58654  44.779   8.097  11.822
92114W        W58655  21.469  36.584   0.007
92115W        W58656  40.298  12.705   3.110
92116W        W58657  34.105  11.602  14.740
92117W        W58658  44.539  44.777   3.213
92118W        W58659  30.125  19.634   4.589
92119W        W58660   4.129  25.080   1.141
92120W        W58661   5.786  43.665  11.680
92121W        W58662  37.241  19.223  11.630
92122W        W58663  20.186   5.845   3.127
92123W        W58664  11.005  22.201  12.541
92124W        W58665  20.115  24.599   0.797
92125W        W58666   5.887  40.418  14.472
92126W        W58667  10.495  20.938   3.133
92127W        W58668  31.604  33.516  12.021
92128W        W58669  13.472  39.936   4.392
92129W        W58670   9.128  31.461  12.524
92130W        W58671  16.751  22.245  12.506
92131W        W58672   9.852   1.773  11.449
92132W        W58673  28.523  25.118  12.800
92133W        W58674  19.240  15.566   2.775
92134W        W58675  27.026  39.924   1.215
92135W        W58676  15.627  20.516  11.614
92136W        W58677  16.695   0.662   3.658
92137W        W58678  44.644   1.387  11.758
92138W        W58679   0.568  12.690  10.403
92139W        W58680  25.867   7.456   0.861
92140W        W58681  44.684  42.893   4.937
92141W        W58682  20.943  24.477  13.681
92142W        W58683  26.235  14.731   3.750
92143W        W58684  12.609  39.462   3.633
92144W        W58685  44.352  32.193   2.304
92145W        W58686  10.703   9.629   4.613
92146W        W58687  42.939  24.570  12.155
92147W        W58688  38.857   8.870  12.538
92148W        W58689  42.773  30.028   3.581
92149W        W58690   5.169  29.046  14.751
92150W        W58691  21.492  34.355  14.989
92151W        W58692  33.659   6.278   2.717
92152W        W58693  19.228  10.026   1.821
92153W        W58694  20.063  17.469   2.687
92154W        W58695   5.609   6.742  12.591
92155W        W58696  17.541  15.209  13.975
92156W        W58697   3.920  14.164  11.693
92157W        W58698   8.223  32.191  13.879
92158W        W58699   1.516  23.285  11.464
92159W        W58700   2.572  12.354   0.429
92160W        W58701   3.015  26.784   1.342
92161W        W58702  27.397  31.981   4.515
92162W        W58703  41.397  39.890  14.392
92163W        W58704  43.333  31.127   5.058
92164W        W58705   7.287  19.624   1.843
92165W        W58706   2.261  39.343   0.204
92166W        W58707  31.575   1.827   3.265
92167W        W58708  23.104  35.812   2.761
92168W        W58709   1.913  28.427   2.806
92169W        W58710  15.669   6.236  11.826
92170W        W58711  35.443  30.444  13.494
92171W        W58712   4.206   2.975   2.759
92172W        W58713  33.573  20.541   1.722
92173W        W58714  10.454  18.657  12.904
92174W        W58715  16.136  40.996   4.566
92175W        W58716   5.415   4.690  14.797
92176W        W58717  23.968  12.132  12.621
92177W        W58718  21.047   2.830  12.559
92178W        W58719  11.165   4.497   3.852
92179W        W58720  43.535   9.427  10.932
92180W        W58721   2.563  32.656  11.416
92181W        W58722  18.968   9.607  12.007
92182W        W58723   2.274  42.789   1.805
92183W        W58724   6.981  42.101  11.965
92184W        W58725  21.544  24.003  10.715
92185W        W58726  31.425  43.488   4.745
92186W        W58727  35.240   4.171  14.877
92187W        W58728  30.941   2.716  14.327
92188W        W58729  25.229  22.605  14.785
92189W        W58730  38.357  11.970  13.183
92190W        W58731  26.299  10.781  10.396
92191W        W58732  31.032  12.913  11.997
92192W        W58733  31.192  44.834  13.399
92193W        W58734  33.928  22.522   3.732
92194W        W58735   8.893  10.205   3.646
92195W        W58736  37.094  11.194  12.845
92196W        W58737  32.416   4.901   2.326
92197W        W58738  40.422  35.039   0.467
92198W        W58739  32.009  36.427   0.373
92199W        W58740  23.092  15.081  14.568
92200W        W58741   7.461  34.679  13.357
92201W        W58742  32.597  30.889   4.543
92202W        W58743   1.996  15.647   1.154
92203W        W58744  15.141  16.249   1.694
92204W        W58745  39.357  27.609   0.972
92205W        W58746   3.894  12.900   4.369
92206W        W58747   2.005  20.816   4.193
92207W        W58748  37.910  34.148   0.288
92208W        W58749  37.506  42.866   0.224
92209W        W58750  26.517  16.989  14.296
92210W        W58751  10.306  38.887   1.317
92211W        W58752   5.702  16.624   4.953
92212W        W58753  19.109  41.202   3.768
92213W        W58754  29.481  43.485  13.970
92214W        W58755  17.983  24.032  14.038
92215W        W58756   3.171  43.543   2.223
92216W        W58757  27.938  25.541  13.812
92217W        W58758  20.178  34.109  12.847
92218W        W58759  43.889  21.518  11.461
92219W        W58760  41.493  30.401  12.609
92220W        W58761  28.063  38.072  11.071
92221W        W58762  33.930  10.741  13.137
92222W        W58763  40.569  23.265  11.120
92223W        W58764  36.873   7.157   2.843
92224W        W58765  29.471  34.066  11.647
92225W        W58766  24.993  16.862   0.070
92226W        W58767  23.458   8.726  11.283
92227W        W58768  12.669  29.046  14.933
92228W        W58769  43.879   3.047  14.681
92229W        W58770  25.762   8.215   3.687
92230W        W58771   3.078  16.828  10.366
92231W        W58772  31.200  26.611   2.174
92232W        W58773  23.297  32.852  11.572
92233W        W58774  33.004  30.643   1.433
92234W        W58775  22.066  13.440   2.519
92235W        W58776  24.210  11.127   1.173
92236W        W58777  19.854  39.336  11.184
92237W        W58778   3.960  21.432   0.756
92238W        W58779   7.903  25.186   2.170
92239W        W58780   3.886  12.365   3.211
92240W        W58781  10.832  24.457  14.075
92241W        W58782  17.538   4.697  12.992
92242W        W58783  37.633  23.502  11.216
92243W        W58784  24.415   4.869  11.737
92244W        W58785  24.162  22.206  12.893
92245W        W58786   9.822  41.471   1.589
92246W        W58787   5.283  30.085   4.209
92247W        W58788  21.715   4.662   0.433
92248W        W58789  36.931  16.685   2.090
92249W        W58790  43.010   2.964  11.071
92250W        W58791  33.886  18.544  11.153
92251W        W58792   8.554  25.034  11.104
92252W        W58793  15.837   3.091  13.767
92253W        W58794  34.502  39.568   2.685
92254W        W58795   5.252  41.601   1.733
92255W        W58796  29.597   2.168  14.946
92256W        W58797  22.229  30.546  11.048
92257W        W58798   3.191  10.604   4.214
92258W        W58799  33.243  37.868   1.610
92259W        W58800  43.674  20.635   4.726
92260W        W58801  28.442   2.649  13.591
92261W        W58802   6.342  27.725  12.073
92262W        W58803  44.003  15.045   3.193
92263W        W58804   9.591  43.756   0.930
92264W        W58805  20.372  43.625   3.338
92265W        W58806  20.104  39.410   2.162
92266W        W58807  38.958   0.188  13.137
92267W        W58808  34.409   6.340  13.089
92268W        W58809  12.854   6.267  14.334
92269W        W58810  13.256  30.818   0.434
92270W        W58811  16.657  16.197  12.132
92271W        W58812  42.551  19.615  11.453
92272W        W58813  42.863  30.182  12.574
92273W        W58814  19.164  20.660   0.242
92274W        W58815  16.105  19.805  13.500
92275W        W58816  22.554  24.349  11.579
92276W        W58817  15.118   6.889   1.457
92277W        W58818  30.910  36.368   4.115
92278W        W58819  40.967   9.794  12.395
92279W        W58820  23.045   6.902   0.939
92280W        W58821  15.666  14.594   1.259
92281W        W58822  42.974  22.684   4.733
92282W        W58823  20.302  31.576   4.665
92283W        W58824  38.822  34.873  10.761
92284W        W58825  30.466  31.211   4.026
92285W        W58826   1.465  33.421   3.658
92286W        W58827  43.623  16.205  14.933
92287W        W58828  14.383   5.406  12.669
92288W        W58829  42.915  22.023  13.938
92289W        W58830  27.554  22.736   4.656
92290W        W58831  23.028   4.743   0.985
92291W        W58832  38.431  36.032  12.950
92292W        W58833   0.061   3.374   2.193
92293W        W58834  15.049   3.431   3.085
92294W        W58835  14.418   4.529   3.641
92295W        W58836  28.948  33.919   0.500
92296W        W58837  35.958  43.532   3.553
92297W        W58838  19.651   1.444  11.705
92298W        W58839   7.626  25.254  11.013
92299W        W58840  13.850   4.965  12.592
92300W        W58841  24.869  25.689   1.307
92301W        W58842  12.774   7.164   1.605
92302W        W58843  14.684  39.967   1.374
92303W        W58844  15.123  26.102   1.443
92304W        W58845   7.255  27.940  14.482
92305W        W58846   3.704  25.547  13.468
92306W        W58847  14.055   2.417   3.387
92307W        W58848  33.617  22.639   4.563
92308W        W58849  16.397  16.903  11.574
92309W        W58850  13.077   5.346   4.652
92310W        W58851  31.072  41.383   1.212
92311W        W58852  38.076  15.623  12.739
92312W        W58853  32.056  34.089  12.459
92313W        W58854  36.395   4.399   4.266
92314W        W58855  29.490  42.982  12.751
92315W        W58856  39.041  43.450   0.096
92316W        W58857  37.668   2.506  10.945
92317W        W58858  23.171   8.329   2.856
92318W        W58859  28.159  42.457   0.856
92319W        W58860  22.314  24.924   0.800
92320W        W58861  35.870  36.852   1.292
92321W        W58862  29.744  40.121  14.272
92322W        W58863  11.703  22.761   3.202
92323W        W58864  10.879  42.007  13.388
92324W        W58865  26.987  41.719   1.806
92325W        W58866  23.707  41.691  14.781
92326W        W58867  27.662  22.614   2.751
92327W        W58868   7.725  16.813  13.974
92328W        W58869  40.862  38.102   4.656
92329W        W58870  21.457  15.764  10.718
92330W        W58871   4.891  38.338   0.545
92331W        W58872  29.642  43.559   1.717
92332W        W58873  34.583   1.449   1.926
92333W        W58874  13.863  34.179  14.374
92334W        W58875  31.082  14.158  12.930
92335W        W58876  28.618  13.556  11.980
92336W        W58877  10.182  26.700   4.204
92337W        W58878  30.945  30.736   3.220
92338W        W58879  43.494  34.961  14.047
92339W        W58880  38.314  18.865  13.909
92340W        W58881  22.408  44.789   0.287
92341W        W58882  16.548  35.542   3.685
92342W        W58883  27.927  13.565  12.424
92343W        W58884  18.356  14.883   2.767
92344W        W58885  28.062  44.263  10.011
92345W        W58886  18.967  23.725  13.941
92346W        W58887  26.582  23.707  11.163
92347W        W58888  26.145  30.071   3.575
92348W        W58889   8.299   7.469   3.214
92349W        W58890  40.894  11.850   0.751
92350W        W58891  11.114  16.606   0.367
92351W        W58892  44.408   1.962   1.178
92352W        W58893  29.635   1.388   3.300
92353W        W58894  20.920   5.707   2.816
92354W        W58895  10.927  34.924   1.785
92355W        W58896  15.311  14.603  10.588
92356W        W58897  41.544  25.569   0.683
92357W        W58898  42.822  25.522  14.536
92358W        W58899  39.825  26.489  12.555
92359W        W58900  38.930  39.087  14.956
92360W        W58901  32.673  16.536   2.840
92361W        W58902  27.140  25.123  13.593
92362W        W58903  21.564  31.520   0.379
92363W        W58904  29.640  18.743  11.067
92364W        W58905   6.311   6.283   3.775
92365W        W58906  37.223  41.633   3.339
92366W        W58907  30.145   7.870   3.250
92367W        W58908  11.936  10.304   0.093
92368W        W58909   1.664  11.330   4.509
92369W        W58910  40.179  39.740   2.775
92370W        W58911  42.059  22.613   4.307
92371W        W58912  31.515   5.066   3.652
92372W        W58913  37.900  26.152  14.713
92373W        W58914  20.374  39.403  14.839
92374W        W58915   1.602  31.353  12.115
92375W        W58916  21.613  13.296   4.149
92376W        W58917   3.389   1.387  13.241
92377W        W58918  40.332  19.986   3.519
92378W        W58919  20.063   6.148  10.663
92379W        W58920  25.205  14.409  12.105
92380W        W58921  14.275  41.126   3.225
92381W        W58922   7.326  20.334   4.266
92382W        W58923  42.262  12.395  12.058
92383W        W58924  42.952   5.584  11.066
92384W        W58925   0.977  21.089  13.427
92385W        W58926  17.008  18.054  12.481
92386W        W58927  38.820  25.709  12.318
92387W        W58928  40.524  11.348  11.187
92388W        W58929   7.961   2.902  10.674
92389W        W58930   4.379   4.301   4.206
92390W        W58931  21.667  44.342   2.160
92391W        W58932   5.476   1.936  13.321
92392W        W58933  33.531  30.548  13.400
92393W        W58934  32.618  23.795  14.965
92394W        W58935  29.043   9.793   1.271
92395W        W58936  41.101  28.009  10.609
92396W        W58937  12.151  20.172   1.438
92397W        W58938  18.429   1.424   0.852
92398W        W58939  18.000  40.460  10.990
92399W        W58940  13.090  35.975   2.869
92400W        W58941  22.401  18.660  14.793
92401W        W58942  39.395   6.371  12.247
92402W        W58943  31.446  22.588   0.853
92403W        W58944  33.851   6.215  10.519
92404W        W58945   9.426  32.958  13.458
92405W        W58946   2.354  12.969   3.199
92406W        W58947   4.954   8.402   1.042
92407W        W58948  32.553  16.278   0.699
92408W        W58949  23.274  38.043  12.024
92409W        W58950  38.513  37.791  14.776
92410W        W58951  33.135  39.601  12.848
92411W        W58952  39.088  41.944  13.137
92412W        W58953   5.364  28.190   0.994
92413W        W58954   8.940  12.190   1.146
92414W        W58955   3.486  10.650   3.772
92415W        W58956  38.960  30.050   4.408
92416W        W58957  38.295  13.779   3.566
92417W        W58958  14.380  28.515   4.093
92418W        W58959  39.782  36.932   3.319
92419W        W58960  20.278   7.302   3.830
92420W        W58961   5.530  33.972   9.445
92421W        W58962  40.514  26.683  11.033
92422W        W58963   1.288  12.357  14.954
92423W        W58964  42.829  25.077  11.491
92424W        W58965   9.333   7.375  11.013
92425W        W58966  12.451  41.722   4.089
92426W        W58967  14.317   6.673   0.865
92427W        W58968   5.311  39.093   4.051
92428W        W58969  36.016  42.570   1.942
92429W        W58970  29.005  21.142  10.610
92430W        W58971  18.996  35.623   1.946
92431W        W58972  18.090  14.304   3.591
92432W        W58973  13.693  36.893  14.794
92433W        W58974  44.510  15.543  11.200
92434W        W58975  11.163   1.685  13.484
92435W        W58976  44.403  19.023  12.049
92436W        W58977  44.880  10.696  14.735
92437W        W58978  28.978  17.064  13.557
92438W        W58979   4.194  29.487  14.361
92439W        W58980  28.039  18.191  10.668
92440W        W58981  10.772  12.921   4.150
92441W        W58982  27.886  18.040  14.901
92442W        W58983   8.832  12.908   1.802
92443W        W58984  16.212   5.610   0.526
92444W        W58985  16.167   0.938   0.943
92445W        W58986  12.224  31.487  13.847
92446W        W58987  21.913  33.690   1.919
92447W        W58988  18.697  17.050   0.434
92448W        W58989  34.085  14.717   2.170
92449W        W58990   1.694   1.116  14.286
92450W        W58991  26.461  17.752   3.227
92451W        W58992  13.658  16.339  11.948
92452W        W58993  26.508  36.440   1.714
92453W        W58994   6.692  29.656   1.399
92454W        W58995  33.060  43.870   1.111
92455W        W58996  13.720  24.164   3.171
92456W        W58997  23.556  39.015  14.900
92457W        W58998  35.874  41.539  12.517
92458W        W58999  31.551  24.070   1.381
92459W        W59000  24.034  17.739  13.861
92460W        W59001  30.103  14.816  13.408
92461W        W59002  34.319   1.924   3.293
92462W        W59003  27.093   4.527   1.431
92463W        W59004  17.028  21.302   3.316
92464W        W59005   1.374  18.343  13.576
92465W        W59006   9.538  11.812   4.609
92466W        W59007  27.296  36.884  13.103
92467W        W59008   9.321  39.544   3.507
92468W        W59009  37.570  40.885  10.905
92469W        W59010  24.162  11.259  12.817
92470W        W59011   2.633  24.503   5.227
92471W        W59012  29.998  37.290  14.479
92472W        W59013   2.901  20.610   2.181
92473W        W59014  30.599  44.856  13.251
92474W        W59015  42.754  33.549  12.665
92475W        W59016  31.278   8.912   1.394
92476W        W59017  11.528  17.674   0.392
92477W        W59018  36.558  32.365  10.703
92478W        W59019  37.003  13.203  14.808
92479W        W59020   1.365  42.967   2.702
92480W        W59021   4.604  36.398  14.303
92481W        W59022  35.243  13.688  10.635
92482W        W59023  29.052  12.797   1.217
92483W        W59024  41.940  24.640  10.705
92484W        W59025  40.742  14.754   3.026
92485W        W59026  22.996  36.937   3.120
92486W        W59027  18.083  32.934   9.949
92487W        W59028  11.722  30.901   3.649
92488W        W59029   7.936  33.716  10.313
92489W        W59030  19.062  31.836  10.347
92490W        W59031  30.134  31.648   0.662
92491W        W59032  41.569  10.001   3.793
92492W        W59033   0.148   5.672   0.390
92493W        W59034  37.372  12.984  11.634
92494W        W59035  30.229  41.636   2.429
92495W        W59036  25.614  33.705  10.783
92496W        W59037  41.081   8.520  12.424
92497W        W59038  10.899  21.521   0.136
92498W        W59039  37.665   2.119   9.801
92499W        W59040   4.135  12.668  14.316
92500W        W59041   4.528  21.289   2.105
92501W        W59042  17.034  27.690   4.163
92502W        W59043  15.823  44.861  14.994
92503W        W59044  24.370   4.613   4.801
92504W        W59045  41.302  36.196   4.169
92505W        W59046  24.938   4.353   4.652
92506W        W59047   7.433  14.859   1.230
92507W        W59048  42.609  33.010   1.955
92508W        W59049  20.815  22.908  11.981
92509W        W59050  42.707  20.404  11.049
92510W        W59051   1.774  30.898  14.845
92511W        W59052  18.825  43.437  14.578
92512W        W59053  39.554   4.266  13.956
92513W        W59054   6.084   5.856   1.373
92514W        W59055  44.245  27.434  13.251
92515W        W59056  10.139  16.665  14.888
92516W        W59057  21.127  30.871   3.352
92517W        W59058  44.160  25.162   5.160
92518W        W59059  43.882  26.485  13.553
92519W        W59060  43.813  23.981  12.040
92520W        W59061  24.311  21.648   0.473
92521W        W59062  28.665   2.395  10.756
92522W        W59063   4.430   8.407   4.925
92523W        W59064   1.041  10.217   1.333
92524W        W59065  42.281  28.972  14.406
92525W        W59066  19.335  44.830   2.271
92526W        W59067  33.146  39.877   1.445
92527W        W59068   6.617   1.430  12.820
92528W        W59069  22.242  35.002   1.625
92529W        W59070  29.781  26.098   3.217
92530W        W59071  19.752  37.264  11.627
92531W        W59072  41.048   0.735  12.170
92532W        W59073  19.324  17.456   2.162
92533W        W59074  38.468   4.663  14.980
92534W        W59075  18.689  28.971   2.322
92535W        W59076  25.669  21.277  12.448
92536W        W59077  24.556  27.687  10.706
92537W        W59078  29.442   7.561   4.976
92538W        W59079   6.394   6.280   1.301
92539W        W59080  42.840   8.024  12.034
92540W        W59081   3.198   1.651  14.000
92541W        W59082   9.479  41.320  12.158
92542W        W59083   4.195  15.059   4.520
92543W        W59084  30.853  26.041  11.198
92544W        W59085  39.633  12.592  13.721
92545W        W59086  40.860  33.211   2.696
92546W        W59087  16.520  27.991   1.295
92547W        W59088  12.386  16.754   2.855
92548W        W59089  17.009   3.459   2.664
92549W        W59090  27.922   1.630   2.977
92550W        W59091  18.648   7.811   2.147
92551W        W59092  24.687   7.814  13.981
92552W        W59093  36.806  31.481   0.242
92553W        W59094  36.442  12.887  14.094
92554W        W59095  39.849  21.998   1.712
92555W        W59096   2.943  20.093   1.868
92556W        W59097  39.588  13.866   3.196
92557W        W59098  28.863  24.908   4.144
92558W        W59099  40.382  23.915   4.997
92559W        W59100  43.968  18.823  11.869
92560W        W59101  15.286  31.158  10.702
92561W        W59102  43.217  42.962  11.152
92562W        W59103  13.100   7.355  10.512
92563W        W59104  31.494   5.451  14.075
92564W        W59105  12.706  18.516   4.616
92565W        W59106   9.172   3.542   1.691
92566W        W59107  33.964  12.507  14.261
92567W        W59108  23.934  13.987   3.390
92568W        W59109  26.460  24.789   2.757
92569W        W59110  30.502  44.714   2.702
92570W        W59111  20.699  14.609  13.998
92571W        W59112   1.940  44.283  12.353
92572W        W59113  14.664   6.200  14.903
92573W        W59114  41.312  19.775  12.922
92574W        W59115   5.768  34.059  10.383
92575W        W59116  30.081  22.412   1.288
92576W        W59117  22.015  18.301  12.807
92577W        W59118  23.159  16.778   4.203
92578W        W59119  10.682  11.448   0.170
92579W        W59120   7.937  24.471   1.765
92580W        W59121  37.332  31.267  12.842
92581W        W59122  39.961  23.976   0.000
92582W        W59123   4.626  36.240   1.206
92583W        W59124  28.196  31.956  14.302
92584W        W59125  28.916  32.147   0.309
92585W        W59126  24.671  11.333  12.644
92586W        W59127  33.677  12.864   1.794
92587W        W59128  31.952  24.150  14.407
92588W        W59129  44.020  25.603   0.637
92589W        W59130  19.013  12.207  11.618
92590W        W59131  17.261  41.406  13.488
92591W        W59132  15.285  19.261   1.310
92592W        W59133  17.846   3.978   1.773
92593W        W59134  25.843   1.877  13.772
92594W        W59135  19.287   6.211   4.709
92595W        W59136  33.709  18.211   4.688
92596W        W59137  42.852  13.014   3.826
92597W        W59138  34.910  11.331  11.066
92598W        W59139   4.746  17.239   1.200
92599W        W59140  18.027  17.780  14.720
92600W        W59141  32.406  20.385  14.405
92601W        W59142  36.916  14.664   2.966
92602W        W59143  24.700  44.371   4.603
92603W        W59144  35.701   9.745   4.463
92604W        W59145  12.283  27.682  12.331
92605W        W59146  19.119  23.612   0.257
92606W        W59147  11.691  16.551  10.085
92607W        W59148   1.575  18.193  13.113
92608W        W59149  35.856   0.377  14.383
92609W        W59150   3.402   4.544  11.967
92610W        W59151  39.958  18.536   0.425
92611W        W59152  11.322  34.267  13.134
92612W        W59153  24.964  44.968  11.932
92613W        W59154  25.764   6.618  14.779
92614W        W59155  22.122  25.616   2.176
92615W        W59156  22.090   5.921  11.284
92616W        W59157   9.255   7.259  12.305
92617W        W59158   2.218   4.112   3.621
92618W        W59159  39.132   2.444  12.167
92619W        W59160  26.165  12.195   1.977
92620W        W59161  38.029  30.211   5.037
92621W        W59162  37.385  20.826   1.961
92622W        W59163  43.464   5.810   3.269
92623W        W59164  35.999  28.064   1.185
92624W        W59165  17.527  40.398   3.200
92625W        W59166  37.344   9.655  14.803
92626W        W59167  37.108  31.567   3.546
92627W        W59168  16.209  41.701   2.733
92628W        W59169  18.186  38.284   0.813
92629W        W59170  25.569  25.348  14.196
92630W        W59171  10.369  17.248  11.900
92631W        W59172  41.968   6.083   2.263
92632W        W59173  11.089  43.440   0.180
92633W        W59174  39.852  22.742   3.343
92634W        W59175  31.739  22.448   2.205
92635W        W59176  36.313   5.498   2.804
92636W        W59177  24.921  44.487  12.579
92637W        W59178  28.016  23.132   1.315
92638W        W59179   9.631  16.646  14.946
92639W        W59180  32.603   1.665  13.438
92640W        W59181  11.658  36.468   0.698
92641W        W59182   8.828  36.993   4.766
92642W        W59183  42.301  20.956  13.354
92643W        W59184  41.811  22.377   1.699
92644W        W59185  16.311   3.304   3.979
92645W        W59186  26.104  27.408   3.339
92646W        W59187  30.344   9.304   3.735
92647W        W59188  27.006   0.300  14.344
92648W        W59189   7.754  31.633  12.016
92649W        W59190  30.115  31.459  13.302
92650W        W59191  15.307   1.805  13.976
92651W        W59192   9.511  21.461   2.782
92652W        W59193  43.718  31.616   1.275
92653W        W59194  41.713  24.312  14.319
92654W        W59195  13.816  10.688   0.317
92655W        W59196  25.159  13.341   2.898
92656W        W59197  41.352   2.200  12.458
92657W        W59198  33.820  23.506   2.982
92658W        W59199  10.807  30.392  12.917
92659W        W59200   5.202   8.843   3.199
92660W        W59201  24.758  34.999   4.304
92661W        W59202  25.503  36.910  13.795
92662W        W59203   8.129   0.710   2.816
92663W        W59204  36.129   0.766   1.361
92664W        W59205  28.490  13.292   3.283
92665W        W59206  36.049   3.760   0.677
92666W        W59207  31.789  35.850  14.481
92667W        W59208   7.542  32.189  13.111
92668W        W59209   8.193  14.315  10.934
92669W        W59210  42.514  32.083   2.600
92670W        W59211  12.872  35.405   3.779
92671W        W59212  35.187  23.654  14.269
92672W        W59213   1.262  42.885  11.432
92673W        W59214  16.266   0.070  11.526
92674W        W59215  33.487  34.929  10.725
92675W        W59216   6.470  17.285  12.618
92676W        W59217  41.083  26.316  12.488
92677W        W59218   4.324  40.930  10.446
92678W        W59219  35.919  37.510  14.609
92679W        W59220  43.271   1.354   0.820
92680W        W59221  10.641  15.512   2.789
92681W        W59222   4.417   2.915  11.181
92682W        W59223  41.105  17.081   4.671
92683W        W59224  13.241   1.855  14.576
92684W        W59225  15.111  10.793   2.273
92685W        W59226  44.192  39.123   0.355
92686W        W59227   1.983  31.627  13.972
92687W        W59228  35.621   3.698  11.529
92688W        W59229  10.400  32.411  11.503
92689W        W59230  37.613  36.936  12.302
92690W        W59231  12.414   9.078  12.862
92691W        W59232  11.616  17.168  14.235
92692W        W59233  29.967  10.165  13.944
92693W        W59234  17.020  39.402   2.271
92694W        W59235  27.578  44.035   4.650
92695W        W59236   4.441   5.265   0.892
92696W        W59237  11.286   8.825   2.576
92697W        W59238  28.416  44.494  10.569
92698W        W59239  38.955   2.911  10.348
92699W        W59240  25.158  17.794  11.987
92700W        W59241  18.745   3.805   4.131
92701W        W59242  19.246   3.214  14.286
92702W        W59243  10.112  28.859   3.691
92703W        W59244  24.032  15.811   0.427
92704W        W59245  38.713  44.776  12.914
92705W        W59246  11.459  40.289  12.437
92706W        W59247  37.348  19.189  12.481
92707W        W59248  24.408  42.459  11.214
92708W        W59249  35.412   2.249  11.784
92709W        W59250   2.804  35.623   2.896
92710W        W59251   2.475  41.991   2.820
92711W        W59252   0.209  31.557  13.930
92712W        W59253  25.195  33.123   4.248
92713W        W59254  25.740   1.404   0.006
92714W        W59255   7.267  26.466  11.709
92715W        W59256  42.194  30.753  11.042
92716W        W59257  26.268   1.575  11.608
92717W        W59258   1.407  33.422  11.214
92718W        W59259  35.782  12.959   4.468
92719W        W59260  37.980  37.069  10.956
92720W        W59261  23.510  24.874   2.769
92721W        W59262   0.825  29.093   2.115
92722W        W59263  22.182   2.780   3.701
92723W        W59264   4.675  29.354  11.634
92724W        W59265   8.179  26.225  14.080
92725W        W59266  42.960   6.908  14.534
92726W        W59267  37.002   4.427  11.202
92727W        W59268  18.265  25.503  10.756
92728W        W59269  27.135   6.179  11.559
92729W        W59270  33.042   0.034   2.862
92730W        W59271  17.604  26.913  14.873
92731W        W59272  32.620   7.353  10.952
92732W        W59273  23.545   2.417  14.277
92733W        W59274  31.620   2.213  13.350
92734W        W59275  31.204  44.362   5.118
92735W        W59276  33.119  32.205  11.520
92736W        W59277  32.360  26.449  14.826
92737W        W59278  22.495  25.874  11.737
92738W        W59279  13.260  18.395   3.579
92739W        W59280  11.106  39.236   5.694
92740W        W59281  28.125  17.148  10.680
92741W        W59282  15.571   7.751  13.341
92742W        W59283  36.673  40.843  10.880
92743W        W59284  38.529  13.244   9.926
92744W        W59285  20.145  40.754  14.467
92745W        W59286  43.325   6.775   3.204
92746W        W59287  10.695   0.345   2.331
92747W        W59288  39.514  23.805  11.378
92748W        W59289  16.309  10.602   1.683
92749W        W59290   2.512  15.886  14.984
92750W        W59291  34.481  37.169  14.478
92751W        W59292  22.062   7.940  14.506
92752W        W59293  31.116  40.321  12.169
92753W        W59294  39.447   1.032  13.269
92754W        W59295   1.973  36.385   3.365
92755W        W59296  37.336   4.098  11.760
92756W        W59297  42.301  26.509  11.444
92757W        W59298  40.369  43.455  10.892
92758W        W59299  14.217  27.622  10.697
92759W        W59300  43.281  17.661   0.128
92760W        W59301   2.736  16.534   3.111
92761W        W59302   1.319  17.166  12.458
92762W        W59303   4.018  43.811   1.182
92763W        W59304  32.047  44.807   0.968
92764W        W59305  26.162  30.955   0.957
92765W        W59306  27.495  32.711   4.102
92766W        W59307  12.164   0.205  13.688
92767W        W59308  20.164   9.692  13.567
92768W        W59309  19.300  10.248   3.316
92769W        W59310  26.515  30.175  13.946
92770W        W59311   5.053  35.910   1.198
92771W        W59312  23.231  29.401  11.059
92772W        W59313  19.069  11.544   3.108
92773W        W59314   9.705   8.591   4.568
92774W        W59315  28.456   5.370  12.916
92775W        W59316  44.259  42.338   4.275
92776W        W59317  26.025  13.038   4.242
92777W        W59318   2.799  26.400   0.414
92778W        W59319  43.012  22.079   3.634
92779W        W59320  14.968  44.518   4.179
92780W        W59321  41.524  38.804   1.752
92781W        W59322  33.080  34.061  13.819
92782W        W59323   0.286  28.824   0.410
92783W        W59324  27.209  21.707  12.516
92784W        W59325  32.921   1.806   0.723
92785W        W59326  44.331  34.537   2.534
92786W        W59327   3.433  10.075  14.330
92787W        W59328  15.552  19.116  13.027
92788W        W59329  39.947  15.866  10.291
92789W        W59330  20.190  43.731   0.501
92790W        W59331  21.549  35.092  13.373
92791W        W59332  19.546   9.048  12.715
92792W        W59333  44.063   3.193   4.355
92793W        W59334  42.935   1.458  13.767
92794W        W59335  22.283   3.148   5.316
92795W        W59336   7.310   9.940   1.045
92796W        W59337   4.404  42.083   2.874
92797W        W59338  44.207   8.023  13.516
92798W        W59339  31.483  18.232  11.636
92799W        W59340   8.312  35.393  14.215
92800W        W59341  20.450  29.403   0.228
92801W        W59342  24.219  18.654  12.863
92802W        W59343   8.951  42.949  14.736
92803W        W59344  44.048   7.262  10.528
92804W        W59345   2.188  19.972  11.574
92805W        W59346  43.895  28.138  14.401
92806W        W59347  26.966   4.269  10.742
92807W        W59348  13.555  36.399  14.890
92808W        W59349  31.330   9.687   2.741
92809W        W59350   1.356  35.720  11.933
92810W        W59351  30.080  40.490   1.247
92811W        W59352  35.912  22.478  13.394
92812W        W59353  30.735  43.784  12.307
92813W        W59354  29.651   4.886  11.082
92814W        W59355  22.881   7.576   9.839
92815W        W59356   8.727  11.569   3.299
92816W        W59357  25.001  27.538   4.158
92817W        W59358   1.451  17.309   3.299
92818W        W59359  28.137  13.832  12.041
92819W        W59360  18.934  19.295   1.143
92820W        W59361  18.329   8.109  12.708
92821W        W59362  44.986   3.804  12.920
92822W        W59363   2.272  20.219   1.646
92823W        W59364   7.820  15.264   0.473
92824W        W59365  29.564   6.669  10.887
92825W        W59366  42.635  17.048   4.625
92826W        W59367  11.346  27.629  13.346
92827W        W59368   7.077  27.360   1.200
92828W        W59369   3.488   0.338  13.506
92829W        W59370  18.779   8.493   0.834
92830W        W59371   6.170  11.265   2.667
92831W        W59372  12.735   1.872   0.415
92832W        W59373   6.479  35.638  11.532
92833W        W59374   5.157  43.005   2.424
92834W        W59375  14.302  43.142   2.050
92835W        W59376  25.125  19.553   2.821
92836W        W59377  11.657   6.127   4.055
92837W        W59378  37.773  16.786  12.560
92838W        W59379  39.510  20.361  14.296
92839W        W59380  24.333  12.765   2.652
92840W        W59381   1.219  12.335  10.948
92841W        W59382  39.422  37.018   2.912
92842W        W59383  35.363   3.488   2.547
92843W        W59384  34.951  43.241  12.667
92844W        W59385   2.497  26.440  14.961
92845W        W59386   1.674  43.364   0.316
92846W        W59387   3.870  31.606   1.252
92847W        W59388  35.110  27.457  11.206
92848W        W59389  30.406  22.158   2.287
92849W        W59390  35.904   6.997   0.832
92850W        W59391  23.518  29.916  10.571
92851W        W59392  18.656   2.932   2.270
92852W        W59393  20.058  27.820  11.352
92853W        W59394  40.978  32.862   2.327
92854W        W59395  31.366  39.032   3.197
92855W        W59396  13.598  37.404   0.923
92856W        W59397  43.977  33.757  12.270
92857W        W59398  25.720  33.427  13.496
92858W        W59399  10.751   8.135   5.013
92859W        W59400  12.126  39.417  10.541
92860W        W59401  37.662  26.627  11.221
92861W        W59402  28.628  10.852   4.199
92862W        W59403  33.919  37.651  14.549
92863W        W59404  25.167  22.141   3.883
92864W        W59405   5.230  38.012   3.178
92865W        W59406  20.649   7.937   3.344
92866W        W59407  36.045   1.453  13.842
92867W        W59408  15.785   4.972   4.070
92868W        W59409  42.372  21.608   3.403
92869W        W59410  39.923  38.847  14.026
92870W        W59411   5.888   6.142  13.410
92871W        W59412  43.964  15.402   4.083
92872W        W59413  43.246  10.908   4.564
92873W        W59414   1.342  14.673   0.717
92874W        W59415   9.436  24.467   2.433
92875W        W59416  21.697  21.657   2.903
92876W        W59417   4.682   1.232  13.908
92877W        W59418  21.506  29.022  12.221
92878W        W59419  20.106  37.016  12.528
92879W        W59420  12.087   0.330  11.216
92880W        W59421   2.801  10.365   3.963
92881W        W59422  25.081  38.778  13.863
92882W        W59423  16.537  14.931   3.542
92883W        W59424  18.947  30.108  14.653
92884W        W59425   1.991  26.918  14.526
92885W        W59426  33.000   7.970   4.808
92886W        W59427  16.309  17.259  12.021
92887W        W59428   9.448  34.384   1.282
92888W        W59429  34.896  21.742   2.280
92889W        W59430  21.150  36.981  10.670
92890W        W59431  14.533  13.934  11.505
92891W        W59432  27.406  12.906   4.364
92892W        W59433   3.448   1.775  14.431
92893W        W59434  21.981  24.248  12.537
92894W        W59435  43.450  17.453   2.299
92895W        W59436  33.026  21.518   3.325
92896W        W59437  43.015  29.264   2.309
92897W        W59438  27.728  41.776  13.092
92898W        W59439  38.636  38.361   4.631
92899W        W59440   9.444  15.550  11.613
92900W        W59441  29.622  25.021  14.844
92901W        W59442  16.314  40.446   0.835
92902W        W59443  31.516   3.215   4.850
92903W        W59444  10.209  34.838   1.283
92904W        W59445   2.939  30.433   3.236
92905W        W59446   0.920  32.336   3.122
92906W        W59447  31.162  24.689  11.767
92907W        W59448  44.462  24.864   0.248
92908W        W59449  40.600  43.404   0.433
92909W        W59450  20.260   3.151   4.092
92910W        W59451  36.591  33.864  12.035
92911W        W59452  42.394  13.614   1.801
92912W        W59453  18.690  15.668   0.836
92913W        W59454  16.497  37.828  11.142
92914W        W59455  27.171  12.706  11.715
92915W        W59456  42.280  25.657   2.868
92916W        W59457  36.359  30.085   9.793
92917W        W59458  32.387  29.090  14.404
92918W        W59459  33.157  39.169  12.223
92919W        W59460  14.076  34.867   5.144
92920W        W59461   7.276  29.981  13.008
92921W        W59462   1.771  11.391  12.030
92922W        W59463   8.742   1.809  13.797
92923W        W59464   9.179  37.434  10.524
92924W        W59465  41.885  23.518  10.995
92925W        W59466   0.677  42.204   1.955
92926W        W59467   8.057  12.603   0.265
92927W        W59468  21.488  37.858  12.428
92928W        W59469  42.887  42.307   4.518
92929W        W59470  16.260  11.168  12.167
92930W        W59471  37.590  40.949   1.348
92931W        W59472   6.133  36.583  12.596
92932W        W59473  13.324   5.822  14.945
92933W        W59474   3.507  42.138   2.701
92934W        W59475  11.487  27.385   0.257
92935W        W59476  20.159  22.095   4.035
92936W        W59477  39.601  17.510  10.660
92937W        W59478  28.574  32.471  10.633
92938W        W59479   3.284  23.968   2.231
92939W        W59480   7.296  43.183   3.494
92940W        W59481  11.232  35.640   0.508
92941W        W59482   7.740  23.799  12.062
92942W        W59483   9.631   1.812  13.588
92943W        W59484  39.807  40.541  14.427
92944W        W59485  28.061   7.470   4.168
92945W        W59486  21.532  16.012  11.570
92946W        W59487  16.537   7.686  13.684
92947W        W59488   6.651   2.978  12.961
92948W        W59489  30.124  30.404   4.914
92949W        W59490  21.455  40.962   2.221
92950W        W59491  13.435   7.893   2.165
92951W        W59492   4.180  19.148  14.047
92952W        W59493   8.682  31.949  13.821
92953W        W59494  28.921  15.857  11.969
92954W        W59495  28.064   7.994   2.261
92955W        W59496  31.721  43.899  14.278
92956W        W59497  24.436  33.048   1.885
92957W        W59498   4.428  13.412  12.063
92958W        W59499  30.118  10.191   0.297
92959W        W59500  42.089  35.966   1.887
92960W        W59501  27.177  29.965  11.984
92961W        W59502  15.034  28.818  13.345
92962W        W59503  23.194  16.722  13.488
92963W        W59504  44.774  34.562  13.938
92964W        W59505  35.397   6.262   1.221
92965W        W59506  19.085  30.988   3.136
92966W        W59507  31.920  32.114  12.990
92967W        W59508  42.959  27.193   0.917
92968W        W59509  21.794   6.494   1.247
92969W        W59510  13.206  41.590   3.246
92970W        W59511  37.366  32.196  10.770
92971W        W59512   0.874  15.955   4.074
92972W        W59513  29.030  38.156   4.289
92973W        W59514  11.369  18.641   4.412
92974W        W59515  30.058  43.383   2.002
92975W        W59516  25.706  18.049   0.893
92976W        W59517   8.547   8.281  11.935
92977W        W59518  28.724  30.593   0.252
92978W        W59519   6.921  17.589  10.464
92979W        W59520  39.729  26.186  14.424
92980W        W59521  27.268   4.027   1.388
92981W        W59522  35.051   6.833  11.682
92982W        W59523  43.076  19.784  13.261
92983W        W59524  19.057  39.325   3.805
92984W        W59525  28.030  28.364  11.944
92985W        W59526   0.912  40.751  11.627
92986W        W59527  25.973   2.807   1.383
92987W        W59528  37.523   8.926   2.721
92988W        W59529   5.234  15.666   1.853
92989W        W59530  27.537  43.476   4.629
92990W        W59531   5.301  11.116   1.302
92991W        W59532  16.367  41.362  13.593
92992W        W59533  17.264   8.354   1.780
92993W        W59534  36.695  15.623   4.980
92994W        W59535  11.418  30.558  12.093
92995W        W59536  11.485  29.095  12.731
92996W        W59537  10.575  26.075   2.931
92997W        W59538  40.709  10.238   4.987
92998W        W59539  26.316  29.997  14.725
92999W        W59540  31.998  11.475  11.922
93000W        W59541  12.143  32.686   0.489
93001W        W59542  22.141   1.778   3.527
93002W        W59543   6.283   0.884  13.529
93003W        W59544  22.017   4.544   4.032
93004W        W59545  37.062  28.076   1.272
93005W        W59546  32.164  20.589   1.450
93006W        W59547  38.842  35.568   0.518
93007W        W59548  26.474  14.292  13.756
93008W        W59549  18.014   6.225  10.703
93009W        W59550  17.721  26.196  11.941
93010W        W59551  35.671  25.458  11.851
93011W        W59552  33.002  30.130   2.759
93012W        W59553  12.323  38.721  13.857
93013W        W59554  13.329  14.120   1.409
93014W        W59555   3.705  25.234   3.271
93015W        W59556  36.905  35.338  12.963
93016W        W59557   6.059   9.990  12.624
93017W        W59558  19.047  10.735   3.425
93018W        W59559  17.533  28.777   4.536
93019W        W59560   8.655   4.697   3.589
93020W        W59561  10.770  43.320   1.404
93021W        W59562   1.896  16.791  10.675
93022W        W59563  32.340   2.485  12.058
93023W        W59564  34.019   7.878   0.584
93024W        W59565  21.196  27.675  10.532
93025W        W59566  39.015  25.826  11.427
93026W        W59567   8.787  29.232  12.019
93027W        W59568  28.236  35.119  11.221
93028W        W59569  18.139  30.346  10.842
93029W        W59570  38.777   1.015   4.720
93030W        W59571  10.762  37.043   2.352
93031W        W59572  33.444  32.008   4.024
93032W        W59573  16.619  17.709  13.322
93033W        W59574  29.724   9.238   0.479
93034W        W59575  39.010  17.309  11.074
93035W        W59576  29.241  36.885  12.013
93036W        W59577  20.325   1.792   4.620
93037W        W59578  10.512  14.125  13.514
93038W        W59579  32.172   5.126  12.383
93039W        W59580  38.675  29.503  13.912
93040W        W59581   4.893   1.915   0.243
93041W        W59582  12.093   8.378  14.780
93042W        W59583  14.714  32.948   0.939
93043W        W59584  40.507  26.495   0.551
93044W        W59585  28.509   2.824  12.470
93045W        W59586  32.333  14.849  11.761
93046W        W59587  18.454   9.390   1.766
93047W        W59588  22.596  17.234  14.358
93048W        W59589   2.461  34.060  13.075
93049W        W59590  34.444   5.065  12.395
93050W        W59591  32.396   5.972   1.358
93051W        W59592  15.073  15.011  10.824
93052W        W59593  21.264  10.582   2.447
93053W        W59594   2.382  22.857   9.869
93054W        W59595  34.514  41.842   2.412
93055W        W59596  29.403  40.465   2.851
93056W        W59597   3.332  44.339  11.122
93057W        W59598  38.899  29.265   0.273
93058W        W59599  19.233   6.845   1.866
93059W        W59600  10.651  44.459  11.668
93060W        W59601  31.641  25.211   4.735
93061W        W59602  13.822  37.062   4.898
93062W        W59603  10.893  21.219  14.249
93063W        W59604  12.257   4.237   0.737
93064W        W59605  16.261  27.242   0.218
93065W        W59606   7.524   4.216  14.362
93066W        W59607  24.908  26.815   1.825
93067W        W59608  28.680   8.679   3.799
93068W        W59609  36.294   0.984  11.528
93069W        W59610  37.912  10.185   0.504
93070W        W59611   2.023  18.736  10.517
93071W        W59612  26.717  20.160  14.744
93072W        W59613  42.040  16.538   2.894
93073W        W59614  44.344  12.634  13.118
93074W        W59615   8.328  15.065  12.567
93075W        W59616  30.948  17.925  11.232
93076W        W59617  27.070  39.721  10.575
93077W        W59618  14.675   9.710   4.742
93078W        W59619  27.084  24.739   4.253
93079W        W59620  30.026   6.381  13.094
93080W        W59621  26.939  44.946  14.843
93081W        W59622  42.774  10.643  14.079
93082W        W59623  32.673  15.582   3.382
93083W        W59624  37.981  38.455   2.008
93084W        W59625   7.596  42.492  11.562
93085W        W59626   2.667  23.015  14.767
93086W        W59627  28.459  10.344   4.179
93087W        W59628  19.457  23.066   3.132
93088W        W59629  33.112  12.427  13.814
93089W        W59630  41.757  23.525  10.502
93090W        W59631  28.880  38.309   1.946
93091W        W59632   4.034  36.539   1.854
93092W        W59633  35.096  21.185  11.593
93093W        W59634   7.959  29.971  13.734
93094W        W59635  22.489  44.387  10.110
93095W        W59636  15.548   3.612   3.065
93096W        W59637  26.055  19.779  10.498
93097W        W59638  17.361   0.923   5.035
93098W        W59639  29.100  35.784   4.323
93099W        W59640  43.138  43.495   1.718
93100W        W59641   7.754  13.839   0.717
93101W        W59642  40.967  19.984  12.527
93102W        W59643  17.394  22.157   1.406
93103W        W59644  37.770  43.389   1.990
93104W        W59645  17.495  21.225   3.127
93105W        W59646  25.630  35.480   3.450
93106W        W59647  14.098  43.916   0.852
93107W        W59648  40.874  34.551  12.582
93108W        W59649  37.413  15.720  11.444
93109W        W59650   8.863  39.016   0.241
93110W        W59651  10.310  16.371  13.002
93111W        W59652   2.395  25.748  11.447
93112W        W59653  24.227  29.227  13.477
93113W        W59654  10.625  17.072  11.467
93114W        W59655   7.017  18.814   1.535
93115W        W59656  11.297   4.915  14.282
93116W        W59657  32.925  39.516   2.699
93117W        W59658  26.524  41.744  11.030
93118W        W59659  28.580  38.292  11.603
93119W        W59660  15.884  10.338   4.728
93120W        W59661  43.456  19.643   2.311
93121W        W59662  28.780  23.105   4.552
93122W        W59663  15.900  30.900   2.421
93123W        W59664  44.439  22.180   1.474
93124W        W59665  11.593  18.868  10.706
93125W        W59666  34.879   0.811  12.543
93126W        W59667  12.296  17.972   1.728
93127W        W59668  35.988  40.167  12.061
93128W        W59669  18.882   1.152   0.827
93129W        W59670   9.687  18.768   4.792
93130W        W59671  25.632  37.999  10.618
93131W        W59672  21.806  29.621   2.417
93132W        W59673  43.951  26.708   0.814
93133W        W59674  21.625  18.659  14.320
93134W        W59675  23.667  24.011  13.042
93135W        W59676  17.256  21.539  10.827
93136W        W59677   3.969  43.863  12.878
93137W        W59678  37.724  20.042  14.424
93138W        W59679  38.372  30.376  14.831
93139W        W59680  22.193  12.834   3.671
93140W        W59681   9.057  36.235  11.596
93141W        W59682  38.364   3.342   4.636
93142W        W59683  36.960  25.966  14.202
93143W        W59684  44.181  15.459   5.055
93144W        W59685  22.192  35.585  10.107
93145W        W59686  40.263  37.522   2.184
93146W        W59687   0.998  44.830   0.755
93147W        W59688  24.996  19.094   3.038
93148W        W59689  18.635  22.484  12.176
93149W        W59690   3.732  22.147  13.650
93150W        W59691  35.947  32.187  11.564
93151W        W59692  15.312  28.899   0.617
93152W        W59693  19.417  34.988  11.985
93153W        W59694  38.050   9.247  12.318
93154W        W59695   0.377  36.926   3.015
93155W        W59696   9.556  33.435  13.305
93156W        W59697   9.249  34.872   3.083
93157W        W59698  27.679  13.602  11.929
93158W        W59699  37.548  38.307  13.126
93159W        W59700  44.347  26.982   1.092
93160W        W59701  21.189  43.057   1.908
93161W        W59702  43.418   1.555   4.387
93162W        W59703  32.783   5.993  12.506
93163W        W59704  36.149  24.443  12.176
93164W        W59705  38.073  23.734   0.846
93165W        W59706  24.797  17.118  14.289
93166W        W59707  30.800  20.966  11.147
93167W        W59708  36.790  30.839  12.019
93168W        W59709  27.941   3.739  12.582
93169W        W59710  24.612  22.475  13.018
93170W        W59711  44.469  43.529   2.096
93171W        W59712  15.825  37.496   3.727
93172W        W59713  41.560  42.326   3.087
93173W        W59714  24.736  29.595   1.335
93174W        W59715   9.330  36.996   3.621
93175W        W59716  18.318   5.815  12.362
93176W        W59717   7.181  36.486  10.079
93177W        W59718  19.251  13.122  14.850
93178W        W59719   3.886  36.648  11.629
93179W        W59720  22.188  30.223  10.654
93180W        W59721   5.311  13.398   4.486
93181W        W59722  32.942   4.887   3.606
93182W        W59723  36.049   9.346   2.617
93183W        W59724   0.750   9.260  11.181
93184W        W59725   3.897   0.796   1.277
93185W        W59726   3.307  33.413   0.405
93186W        W59727   2.371  35.951   1.289
93187W        W59728  21.200   3.828   1.244
93188W        W59729   0.292  29.026   0.950
93189W        W59730  40.510  34.477   0.429
93190W        W59731  34.286  44.757  14.910
93191W        W59732  36.360  10.199   1.034
93192W        W59733  23.022  21.789  14.348
93193W        W59734  44.038   3.287   2.236
93194W        W59735  24.204  11.564   5.001
93195W        W59736  31.089  25.914  12.645
93196W        W59737  35.004  18.270   1.908
93197W        W59738  19.186  19.056   2.807
93198W        W59739   9.245  10.375   3.139
93199W        W59740  38.855  17.262   0.003
93200W        W59741  36.560   3.279  14.415
93201W        W59742  43.846  22.171  12.305
93202W        W59743  22.813  42.994  14.088
93203W        W59744  44.795   2.085   0.858
93204W        W59745  15.484  36.460  10.712
93205W        W59746  33.899  31.424  14.923
93206W        W59747   9.320  43.081   4.393
93207W        W59748   6.553  44.744  13.278
93208W        W59749  26.511  30.001  10.724
93209W        W59750  16.037  14.203  13.867
93210W        W59751   4.856  23.497  13.854
93211W        W59752   1.498  30.541  14.074
93212W        W59753   0.477   5.315  12.087
93213W        W59754  26.714   3.388  11.806
93214W        W59755  30.383  18.221   4.042
93215W        W59756  26.480  11.955   0.741
93216W        W59757  13.635  19.633   2.357
93217W        W59758  28.492  17.560   4.838
93218W        W59759  32.120   9.736  14.508
93219W        W59760  21.037  40.818   4.126
93220W        W59761  30.418  31.068  14.879
93221W        W59762  32.843  39.850  13.204
93222W        W59763  38.495  11.393   2.941
93223W        W59764   5.991  42.891  14.893
93224W        W59765  33.535  24.495   4.138
93225W        W59766  31.468   9.815   4.176
93226W        W59767  18.065  29.459   1.536
93227W        W59768   7.840   6.592  12.957
93228W        W59769  33.823  18.571  14.534
93229W        W59770   0.398  12.494   2.286
93230W        W59771   1.615  28.814   2.614
93231W        W59772  35.521  41.990  13.614
93232W        W59773  14.799  16.800   0.994
93233W        W59774   3.931  44.816  10.596
93234W        W59775  39.553  39.074  11.765
93235W        W59776  36.099  25.946  13.024
93236W        W59777  14.371  17.992  14.917
93237W        W59778  44.398  31.847   3.738
93238W        W59779   0.789  32.512  12.652
93239W        W59780   2.308  41.517  13.529
93240W        W59781  14.936  17.113  14.464
93241W        W59782  19.297   5.636   1.278
93242W        W59783   7.948  27.309   4.421
93243W        W59784  37.900   8.337   4.103
93244W        W59785  42.213  30.447   2.878
93245W        W59786  22.961   5.670   2.205
93246W        W59787  17.704   9.665   2.725
93247W        W59788  17.774   6.572   1.565
93248W        W59789   4.799  23.497   4.041
93249W        W59790   2.701  16.689   2.606
93250W        W59791  19.770   5.262   0.353
93251W        W59792  20.790  37.997  11.588
93252W        W59793  38.708   1.261  14.238
93253W        W59794  17.990   5.841  11.613
93254W        W59795  38.398  20.011   4.714
93255W        W59796  30.430  35.985   1.381
93256W        W59797  23.418  44.512   2.147
93257W        W59798   3.676  35.513   0.324
93258W        W59799  35.070   8.761   0.965
93259W        W59800  26.619  16.867  10.301
93260W        W59801  23.539   2.302  12.814
93261W        W59802  37.860  22.527   4.842
93262W        W59803  25.697  10.273  10.939
93263W        W59804  32.692  26.132  11.488
93264W        W59805   0.841  43.010   1.422
93265W        W59806  35.768  10.199   3.648
93266W        W59807  16.823  37.491  14.469
93267W        W59808  25.570   9.102  10.766
93268W        W59809  39.431  36.734   4.874
93269W        W59810  41.390  42.984  10.728
93270W        W59811  26.936  15.034   2.385
93271W        W59812   4.031  25.593   2.364
93272W        W59813  24.252  44.752   2.451
93273W        W59814  20.963  12.817   3.019
93274W        W59815   7.808  38.250   3.515
93275W        W59816  27.041   3.759  11.609
93276W        W59817  25.124  23.692   1.220
93277W        W59818  12.161   5.828  14.673
93278W        W59819  26.498   5.844  14.122
93279W        W59820   9.563  35.392   2.479
93280W        W59821  37.296  34.518  11.896
93281W        W59822  36.275   1.250  12.928
93282W        W59823  16.056  23.097  11.042
93283W        W59824  31.846  39.049  13.042
93284W        W59825  29.358   1.957  13.010
93285W        W59826  32.249  36.475   2.162
93286W        W59827  23.300   6.393   3.184
93287W        W59828  10.108   1.915   2.204
93288W        W59829   3.940  23.585   1.683
93289W        W59830  25.616   5.692  13.368
93290W        W59831   4.656  14.119   4.046
93291W        W59832  14.721  14.225  13.551
93292W        W59833  28.760  41.048   3.114
93293W        W59834  14.211   5.107  13.601
93294W        W59835  40.312   0.286   3.625
93295W        W59836  24.677  16.744   1.771
93296W        W59837  15.557  23.672  12.792
93297W        W59838  32.560  43.873  13.350
93298W        W59839  29.127   3.700   3.023
93299W        W59840   9.432  43.439   0.465
93300W        W59841  12.347  29.550  12.286
93301W        W59842  20.568   7.434   0.424
93302W        W59843  39.638   6.655   1.613
93303W        W59844  35.313   2.970   2.630
93304W        W59845  35.099  34.832   3.370
93305W        W59846  43.662  43.406  13.981
93306W        W59847  15.239  15.340  14.334
93307W        W59848  22.252  17.833   1.504
93308W        W59849  23.534  44.351   4.003
93309W        W59850   1.746  14.335   0.715
93310W        W59851  26.237  24.727   4.393
93311W        W59852  12.995  10.410   3.149
93312W        W59853  12.972  42.172   2.187
93313W        W59854  31.131  25.187  11.016
93314W        W59855  12.676  14.058  10.738
93315W        W59856  39.312   1.035   1.433
93316W        W59857  32.993  42.996  14.898
93317W        W59858  36.433  14.490  13.373
93318W        W59859  44.005  36.993  11.508
93319W        W59860   1.250   2.069  14.847
93320W        W59861   1.302  24.413  14.805
93321W        W59862  12.759   6.716  11.173
93322W        W59863  35.603  40.752   0.573
93323W        W59864   8.252  41.102   3.648
93324W        W59865  31.985  33.574  12.650
93325W        W59866   0.071  25.314  11.577
93326W        W59867  14.720  20.285   1.817
93327W        W59868  25.718  29.602  12.059
93328W        W59869  17.151  38.474   1.515
93329W        W59870   4.084  43.359  13.248
93330W        W59871  25.762   1.667   3.622
93331W        W59872  36.434  17.673  10.785
93332W        W59873   9.190  40.800  12.146
93333W        W59874   9.591   9.084   4.415
93334W        W59875   8.099   3.504   2.110
93335W        W59876  27.377  11.750  12.748
93336W        W59877  13.020   5.435   1.321
93337W        W59878  41.324  20.550   3.627
93338W        W59879  33.949  19.508   0.828
93339W        W59880   5.009   4.361  12.323
93340W        W59881  30.375  41.578  11.009
93341W        W59882  19.075  39.928  10.736
93342W        W59883  41.336  30.145   0.927
93343W        W59884  15.320   3.750  13.493
93344W        W59885  18.385  33.056   1.766
93345W        W59886  44.780   1.808   0.411
93346W        W59887   0.710  28.358   1.547
93347W        W59888   7.941   2.154  11.025
93348W        W59889   2.786  12.689  14.753
93349W        W59890  23.455  22.140  10.791
93350W        W59891  26.163   8.706   3.309
93351W        W59892  30.685  31.471   2.536
93352W        W59893  16.180  34.600  13.511
93353W        W59894  34.145   9.123  11.106
93354W        W59895  17.791  40.371   2.202
93355W        W59896   0.334  39.889   4.074
93356W        W59897  13.643  41.286  14.808
93357W        W59898  28.379  26.917  11.113
93358W        W59899  17.450  36.912  12.085
93359W        W59900  12.883   0.794  14.875
93360W        W59901  19.523  21.691  14.769
93361W        W59902  36.121  33.618   4.162
93362W        W59903  16.630  36.873   1.278
93363W        W59904  17.106  20.949  12.537
93364W        W59905  33.265  28.694   0.882
93365W        W59906  38.583  25.647  14.891
93366W        W59907  22.535  28.376  11.532
93367W        W59908  11.705  12.892  14.835
93368W        W59909  10.905  22.500  10.393
93369W        W59910  35.846  42.858   0.033
93370W        W59911   2.820   6.099   3.329
93371W        W59912  11.875  35.292  14.058
93372W        W59913  16.214  29.244  14.060
93373W        W59914  27.687  21.209  14.654
93374W        W59915  42.405  28.129   4.297
93375W        W59916  12.363  32.221  14.511
93376W        W59917  43.058  27.941  13.074
93377W        W59918  15.615  30.628   1.263
93378W        W59919  28.541   1.801   3.844
93379W        W59920  24.568  43.858   0.388
93380W        W59921  23.984   1.726  12.943
93381W        W59922  36.849  19.042   1.783
93382W        W59923  29.563  25.757   4.164
93383W        W59924  32.736  13.156   3.186
93384W        W59925  37.102  32.043  14.503
93385W        W59926  15.375  21.632  14.090
93386W        W59927  11.882  24.526  14.521
93387W        W59928  12.415  27.611  14.684
93388W        W59929  22.423   9.407  13.578
93389W        W59930  30.019  24.733   0.918
93390W        W59931  34.786  28.484   0.931
93391W        W59932  43.287  34.883  13.555
93392W        W59933  28.557  23.258   3.401
93393W        W59934  23.453  15.952  13.903
93394W        W59935  13.706  30.627   0.269
93395W        W59936   0.427  21.136  13.946
93396W        W59937  42.848  18.342  13.573
93397W        W59938  34.181  32.632   4.152
93398W        W59939  43.775  42.514  10.668
93399W        W59940  20.041  31.662  12.949
93400W        W59941  34.823  18.768   1.901
93401W        W59942  31.006  32.144  12.050
93402W        W59943  13.955  36.274   0.423
93403W        W59944   1.991   5.601   0.229
93404W        W59945  34.471  25.372  13.079
93405W        W59946  36.358   6.762   0.858
93406W        W59947   5.310  42.582   2.899
93407W        W59948   9.848  37.835  13.878
93408W        W59949  40.971  15.670   4.701
93409W        W59950  17.344  14.524  11.620
93410W        W59951  41.833  17.690   1.699
93411W        W59952  17.636  29.575  13.282
93412W        W59953   4.366  18.375  11.121
93413W        W59954  22.292  19.313  12.875
93414W        W59955  28.227  42.840  13.990
93415W        W59956  14.387  36.460   4.324
93416W        W59957  28.619  38.846  13.060
93417W        W59958  14.122  35.876   3.709
93418W        W59959  36.179  40.358   5.025
93419W        W59960  24.028  28.302   3.168
93420W        W59961  39.312  14.360  14.412
93421W        W59962  13.953  13.398   3.321
93422W        W59963  20.167  37.462  12.879
93423W        W59964   3.201   9.860  12.519
93424W        W59965  35.374  38.674  13.247
93425W        W59966  23.281  19.116  14.074
93426W        W59967  18.555  30.467  13.565
93427W        W59968  11.767  31.613   0.006
93428W        W59969  12.648  21.763   3.322
93429W        W59970   6.938  40.686  12.742
93430W        W59971  10.630  33.505   0.183
93431W        W59972  10.438   7.621  13.532
93432W        W59973  37.945  44.147  11.579
93433W        W59974  26.664  12.919  10.873
93434W        W59975   2.992   2.255   1.924
93435W        W59976  24.250  34.529  13.901
93436W        W59977  39.819  24.766  14.529
93437W        W59978  37.806  20.334  11.574
93438W        W59979   0.932  16.154  13.422
93439W        W59980  12.451   9.122   3.580
93440W        W59981  31.498  37.756  13.852
93441W        W59982  25.511   0.537  11.241
93442W        W59983   3.692   9.544   2.689
93443W        W59984   6.795  28.922   3.549
93444W        W59985  34.550  33.695  13.093
93445W        W59986   5.761  26.546  14.871
93446W        W59987  28.893  41.218  11.235
93447W        W59988   5.267  15.839  13.985
93448W        W59989  10.287   5.812  11.252
93449W        W59990  30.212   6.477  13.565
93450W        W59991  35.770  32.391   0.336
93451W        W59992  20.250   7.332   3.305
93452W        W59993  10.640  40.974   3.332
93453W        W59994  34.341  11.799  10.528
93454W        W59995  31.197  24.184   2.703
93455W        W59996  16.010  25.633   4.436
93456W        W59997  41.584  30.560  13.553
93457W        W59998  13.573  12.776   2.157
93458W        W59999  29.650  30.851   0.268
93459W        W60000  10.629  34.212   3.226
93460W        W60001  19.973  18.589  11.258
93461W        W60002  20.957   4.459  11.603
93462W        W60003  16.251  37.540  12.422
93463W        W60004  14.933  14.344  14.397
93464W        W60005  17.580   4.413   3.203
93465W        W60006  17.372  39.399  11.620
93466W        W60007  31.457  36.417  10.745
93467W        W60008  26.860   4.760   2.414
93468W        W60009  35.092  16.766   3.826
93469W        W60010  12.268  29.616  12.796
93470W        W60011  40.056  30.047  12.892
93471W        W60012  26.940  14.658  13.355
93472W        W60013   1.466  29.071  13.542
93473W        W60014  38.538  15.008   2.204
93474W        W60015  19.589  10.292   4.695
93475W        W60016   2.900   5.055   1.249
93476W        W60017  11.602  23.087  14.490
93477W        W60018  23.319   8.386   4.663
93478W        W60019  33.551  24.185  12.868
93479W        W60020  41.289  21.097   3.441
93480W        W60021  17.998  13.352  12.158
93481W        W60022  35.037  12.471   4.754
93482W        W60023  36.164  13.584  11.686
93483W        W60024   6.546  12.698  14.529
93484W        W60025  41.117  15.500   1.897
93485W        W60026   2.755  32.086   0.774
93486W        W60027  21.943  35.002   1.192
93487W        W60028  12.157   0.996   9.878
93488W        W60029   0.063  12.302   1.241
93489W        W60030  41.345  21.669   0.054
93490W        W60031  24.677   3.994   3.041
93491W        W60032  21.747  18.626  13.186
93492W        W60033  13.400  37.534   3.616
93493W        W60034  17.262  21.017  10.786
93494W        W60035  24.455  25.218  10.508
93495W        W60036  39.276  32.828   3.254
93496W        W60037  41.914  14.558  11.686
93497W        W60038  27.033  37.772   1.807
93498W        W60039  39.818   5.158   2.751
93499W        W60040  21.194  20.374   4.089
93500W        W60041  29.807  29.382   5.079
93501W        W60042  11.719  14.589   0.982
93502W        W60043  38.671  27.595   4.490
93503W        W60044  32.039   7.796   1.889
93504W        W60045   1.893  18.600  13.029
93505W        W60046  33.507  30.707   4.586
93506W        W60047   6.456  14.193   2.669
93507W        W60048  21.256   2.037  11.187
93508W        W60049   4.342  44.510   3.034
93509W        W60050  31.521   1.694  13.333
93510W        W60051  26.018   5.943  11.268
93511W        W60052  17.659  18.072  10.214
93512W        W60053  22.201   1.551  14.305
93513W        W60054  35.462   4.712  11.544
93514W        W60055  11.804  27.675   2.138
93515W        W60056   9.349  23.161  14.387
93516W        W60057  25.716   9.912   4.645
93517W        W60058  33.323   7.322  11.611
93518W        W60059   3.514  29.970  14.930
93519W        W60060  16.998  12.798   4.594
93520W        W60061  17.318  26.553  10.616
93521W        W60062  44.266  35.833   0.419
93522W        W60063  21.905  16.236   3.859
93523W        W60064   7.139   2.782  11.258
93524W        W60065   2.032  37.318  13.022
93525W        W60066  30.209  15.232  13.905
93526W        W60067  38.634  10.043  11.126
93527W        W60068  18.007  40.562  11.502
93528W        W60069  35.638  39.333  14.423
93529W        W60070  30.056  27.987  13.649
93530W        W60071  12.051  38.571  12.464
93531W        W60072  21.578  29.470  10.694
93532W        W60073  25.216  17.056   2.289
93533W        W60074  36.073  43.766   4.016
93534W        W60075  30.022  44.021  13.317
93535W        W60076  16.823   3.002   0.273
93536W        W60077   4.839  42.399   2.760
93537W        W60078  31.008  44.775   4.355
93538W        W60079  17.687  31.199  10.563
93539W        W60080  18.498  11.268  14.967
93540W        W60081   2.377  38.522  13.857
93541W        W60082  25.480  26.337   3.163
93542W        W60083  13.509  15.609   3.146
93543W        W60084  34.395  10.111   1.886
93544W        W60085   5.446  30.708  14.458
93545W        W60086  19.176  25.529   4.172
93546W        W60087  13.197   5.885  13.847
93547W        W60088  24.703   6.733   1.728
93548W        W60089  19.856   8.503  11.528
93549W        W60090  32.863   0.526   2.865
93550W        W60091  39.196   6.395   3.348
93551W        W60092  33.273  34.967   2.345
93552W        W60093   4.756  40.617  10.528
93553W        W60094  21.629  33.436  13.140
93554W        W60095  20.650  42.041   2.699
93555W        W60096  37.186  12.252  14.028
93556W        W60097   9.908  11.258   4.016
93557W        W60098  44.661  12.605   2.785
93558W        W60099  13.215  18.119   4.019
93559W        W60100  16.121   7.158  13.926
93560W        W60101   9.685   7.731   4.182
93561W        W60102  33.482  13.270   4.684
93562W        W60103  23.585  33.104  14.414
93563W        W60104  40.651  42.329  12.483
93564W        W60105  40.592  27.647   3.672
93565W        W60106  42.736  44.302  10.982
93566W        W60107   0.513   3.393   1.228
93567W        W60108  34.358  26.620  14.329
93568W        W60109  22.367   7.089  11.619
93569W        W60110  16.253   2.553   1.793
93570W        W60111  14.740  13.835   3.790
93571W        W60112  39.339   3.227  10.515
93572W        W60113  17.286  19.770  13.162
93573W        W60114  27.278   8.447  11.128
93574W        W60115  32.921  40.326  12.964
93575W        W60116  12.208  43.738   4.225
93576W        W60117  28.076  17.182  13.614
93577W        W60118  27.382  17.207  14.397
93578W        W60119  11.991  11.352   3.865
93579W        W60120  40.194  20.951  13.821
93580W        W60121   3.753   8.774  14.955
93581W        W60122  28.131   9.162  12.538
93582W        W60123  16.817   3.704   0.905
93583W        W60124  12.269   7.195   1.632
93584W        W60125  36.504  37.329  14.934
93585W        W60126  40.701  31.531   2.867
93586W        W60127  20.511  25.432   2.856
93587W        W60128  27.330   4.383   3.181
93588W        W60129  14.443  27.673   1.710
93589W        W60130  19.507   5.922  10.413
93590W        W60131  29.758   3.401  10.814
93591W        W60132  44.906  23.080  14.451
93592W        W60133   8.730  41.286  10.758
93593W        W60134  15.963  19.200   0.962
93594W        W60135  37.941  16.604   2.378
93595W        W60136  38.313  37.333   4.121
93596W        W60137  27.350  21.259  12.288
93597W        W60138   9.324  36.041   3.098
93598W        W60139   4.594   8.776  13.416
93599W        W60140  24.011  34.091   1.797
93600W        W60141   5.209  35.932  14.944
93601W        W60142  23.148   8.318  11.895
93602W        W60143  31.354  11.640  10.223
93603W        W60144  11.129  17.076   4.622
93604W        W60145  11.151  39.153  12.460
93605W        W60146  15.757  40.943   1.908
93606W        W60147  29.049   0.159   3.208
93607W        W60148  30.865   2.371   2.722
93608W        W60149  19.269  14.047   2.262
93609W        W60150  32.724  34.931  14.842
93610W        W60151  36.446  28.569   1.846
93611W        W60152   1.618  37.512  13.310
93612W        W60153  30.516  28.276   2.367
93613W        W60154  20.939   3.245   3.645
93614W        W60155  23.301   2.041   1.287
93615W        W60156  20.490   4.397  13.443
93616W        W60157  25.121   1.522  13.157
93617W        W60158  25.966   9.781   2.338
93618W        W60159   2.504  10.157  13.934
93619W        W60160  18.283   6.666  10.709
93620W        W60161  17.002  38.451  14.834
93621W        W60162  16.340   9.742   1.925
93622W        W60163  41.883  39.512  11.574
93623W        W60164  29.094  38.550  10.717
93624W        W60165  14.872  26.132   3.199
93625W        W60166  43.348  43.735  14.832
93626W        W60167   4.925  26.570  11.110
93627W        W60168  37.491  39.621  11.531
93628W        W60169  12.302   7.253   3.403
93629W        W60170  15.825  25.544  12.108
93630W        W60171  10.983  32.887  14.362
93631W        W60172  25.429  37.715   4.422
93632W        W60173  38.293  12.999  10.324
93633W        W60174  43.435  35.060   0.921
93634W        W60175  26.961  28.765   2.080
93635W        W60176  15.051  21.590   2.014
93636W        W60177   5.414  20.216  12.501
93637W        W60178  37.828  36.502  12.552
93638W        W60179  33.509  42.719   3.986
93639W        W60180  38.807  37.089   3.558
93640W        W60181  33.428  24.453  13.303
93641W        W60182   3.140  26.719  13.256
93642W        W60183  24.547  26.010  12.454
93643W        W60184   8.252   4.481  14.986
93644W        W60185  36.674  18.067  11.153
93645W        W60186  25.453  37.993  11.096
93646W        W60187  37.766   4.804  14.485
93647W        W60188  33.307  43.740  12.946
93648W        W60189  34.575  22.743  13.606
93649W        W60190  40.843  23.681  12.732
93650W        W60191  37.664   8.583   1.362
93651W        W60192  30.841   3.986  13.847
93652W        W60193   6.011  36.745   9.693
93653W        W60194  38.358   3.905   1.290
93654W        W60195  26.503   6.880  14.350
93655W        W60196  30.616   7.898  14.509
93656W        W60197  40.091  11.159   1.230
93657W        W60198  25.463  41.743   3.535
93658W        W60199  36.962  39.796  13.917
93659W        W60200  12.728  10.556  11.652
93660W        W60201  26.694  32.958  12.199
93661W        W60202  26.202   2.833  13.884
93662W        W60203  42.698  21.011  11.649
93663W        W60204  16.510  39.659  11.560
93664W        W60205  14.515  11.950   4.132
93665W        W60206  34.519  14.126   4.572
93666W        W60207  18.632  31.201   4.314
93667W        W60208   1.079  18.599   4.703
93668W        W60209  42.596  37.676  11.184
93669W        W60210  24.572  17.576   3.495
93670W        W60211  21.235  41.406   4.895
93671W        W60212  22.971  18.200  14.542
93672W        W60213   9.130  37.940   3.072
93673W        W60214  31.573  10.090   0.872
93674W        W60215  22.678  13.658   2.144
93675W        W60216  29.963  31.933   2.788
93676W        W60217  43.040   4.479   1.683
93677W        W60218  15.511  32.489   0.438
93678W        W60219   5.286  38.828   3.589
93679W        W60220  29.807  27.586  12.877
93680W        W60221   0.034   9.853  11.485
93681W        W60222  22.204  13.516   2.039
93682W        W60223  13.841  33.189   2.812
93683W        W60224  14.494  13.361  13.645
93684W        W60225  32.375  42.369  10.844
93685W        W60226  38.780   0.781  11.902
93686W        W60227   8.791   6.248  11.615
93687W        W60228  14.113  40.283   2.582
93688W        W60229  37.956   2.532  11.383
93689W        W60230  34.962   7.849   4.515
93690W        W60231   7.636   6.880  12.574
93691W        W60232  18.029   7.447  14.889
93692W        W60233   6.351  12.370  13.521
93693W        W60234  31.150   6.257   4.133
93694W        W60235  29.002  14.864   1.258
93695W        W60236  21.351  15.046   5.144
93696W        W60237   5.910   5.902  14.812
93697W        W60238  23.475  22.142   1.589
93698W        W60239   2.981  37.358   4.293
93699W        W60240  35.381  34.111  10.738
93700W        W60241   6.632  40.540   0.426
93701W        W60242   3.799  40.311  14.382
93702W        W60243  11.315  25.965  14.380
93703W        W60244  17.448  32.092   4.179
93704W        W60245  13.651  29.614   4.767
93705W        W60246  13.394  25.183   0.403
93706W        W60247  40.125  40.087   1.243
93707W        W60248  16.772  10.468   4.212
93708W        W60249  22.411   5.663  11.586
93709W        W60250   8.322  25.407   4.251
93710W        W60251  24.452  44.023   0.893
93711W        W60252  17.057  34.639  13.967
93712W        W60253  10.520   7.964   3.214
93713W        W60254  36.615  16.953  14.873
93714W        W60255  12.865  20.622   0.607
93715W        W60256   7.236  30.078   4.015
93716W        W60257  13.310  38.932  10.734
93717W        W60258  17.691  19.313  12.840
93718W        W60259  14.180  37.405   2.302
93719W        W60260  17.595  13.309  14.383
93720W        W60261  11.127  33.123   1.618
93721W        W60262  28.249   3.657   4.954
93722W        W60263  27.674  14.561  11.589
93723W        W60264  10.604  10.247   2.810
93724W        W60265  43.760  32.410   3.698
93725W        W60266  10.866  33.910   2.807
93726W        W60267   8.114   1.941  13.388
93727W        W60268  18.733   3.884  10.638
93728W        W60269  31.070   0.623   1.204
93729W        W60270  30.905  13.562  11.635
93730W        W60271  39.205  10.153   3.134
93731W        W60272  27.075   8.771   1.305
93732W        W60273   1.887   4.744   0.352
93733W        W60274   2.305   6.406  10.604
93734W        W60275   9.216   6.590   1.300
93735W        W60276  21.046  29.706   1.280
93736W        W60277  18.240  42.360   1.829
93737W        W60278  16.725  36.077   2.211
93738W        W60279  14.696  33.990  11.663
93739W        W60280  28.410  22.289  13.624
93740W        W60281  33.008  20.677   2.851
93741W        W60282  22.523   8.825   1.314
93742W        W60283  25.325   8.336  13.984
93743W        W60284  41.438   3.364  11.599
93744W        W60285   3.317  35.117   0.370
93745W        W60286  26.939   0.872   0.169
93746W        W60287  37.537  32.961   2.655
93747W        W60288  37.878   7.981  12.938
93748W        W60289  12.671  39.907   1.372
93749W        W60290  21.127   0.374  12.640
93750W        W60291   7.706   4.380  13.862
93751W        W60292   2.231  28.721   3.283
93752W        W60293  10.703  35.985  14.034
93753W        W60294  32.489  29.630  14.323
93754W        W60295  36.554  21.201   3.905
93755W        W60296   5.065  37.874  12.550
93756W        W60297  19.832  27.910   1.654
93757W        W60298   8.979  22.478   4.091
93758W        W60299  43.289  11.709  11.560
93759W        W60300   5.138  13.198  13.629
93760W        W60301  16.425  34.292  11.534
93761W        W60302  20.270  21.213   4.545
93762W        W60303  22.306  14.538  12.105
93763W        W60304  23.441  14.520   0.029
93764W        W60305  29.012  32.171  13.884
93765W        W60306   5.892  19.140   3.091
93766W        W60307   4.260   6.787   1.300
93767W        W60308  27.688  16.235   0.955
93768W        W60309  19.723  10.839  11.519
93769W        W60310  24.508  11.719   1.343
93770W        W60311  35.621   9.552   2.405
93771W        W60312  36.882   8.369  12.088
93772W        W60313  33.541  29.084  10.816
93773W        W60314  24.927  16.393  13.064
93774W        W60315  19.380   2.232  11.144
93775W        W60316  34.673  42.016   3.647
93776W        W60317   0.511  21.354   4.618
93777W        W60318   5.202  37.407   4.604
93778W        W60319  39.799  40.764  12.470
93779W        W60320  17.028  11.077  10.767
93780W        W60321  40.266  37.359   3.608
93781W        W60322  20.227  27.682   0.712
93782W        W60323   6.837  43.463   1.219
93783W        W60324  30.407  23.049  12.816
93784W        W60325  12.781  16.248   0.350
93785W        W60326  27.842  21.128  13.020
93786W        W60327   2.065  34.379   3.938
93787W        W60328  25.647  27.009  12.606
93788W        W60329  27.463  19.664  14.052
93789W        W60330   7.000  14.840   3.725
93790W        W60331   6.848  31.846   3.324
93791W        W60332   0.689  33.933   3.633
93792W        W60333  40.582  34.139  13.002
93793W        W60334  24.010  32.892   3.517
93794W        W60335  14.124  26.531   1.629
93795W        W60336   8.903   1.499   3.759
93796W        W60337  11.286   8.984  12.078
93797W        W60338  23.685  37.533  10.708
93798W        W60339  23.736   4.676  14.755
93799W        W60340  32.053  35.668   4.691
93800W        W60341  34.562  19.800  10.925
93801W        W60342  31.493  40.099  10.466
93802W        W60343  11.641   3.185  14.299
93803W        W60344  24.292  11.184  12.333
93804W        W60345   7.706  14.683   4.843
93805W        W60346  27.708  10.160  12.639
93806W        W60347  18.012   0.081   4.206
93807W        W60348  19.716  19.725   1.415
93808W        W60349  37.377  22.328   4.908
93809W        W60350  26.923  32.947   2.775
93810W        W60351  23.477  35.390  11.617
93811W        W60352  41.873  22.610  14.646
93812W        W60353  13.473  38.908   2.433
93813W        W60354  44.851  20.571   3.251
93814W        W60355  25.850  12.192  11.084
93815W        W60356  40.467   9.763  12.552
93816W        W60357   7.372   5.923  10.745
93817W        W60358  19.815  13.399   2.778
93818W        W60359  15.158  27.624   3.210
93819W        W60360  25.670  23.685  11.120
93820W        W60361  14.719   7.975   3.912
93821W        W60362   2.356   3.978  12.339
93822W        W60363  15.492  19.736   0.357
93823W        W60364   6.383  21.778  14.688
93824W        W60365  28.248  39.406   0.416
93825W        W60366  20.350  22.164  14.738
93826W        W60367  27.407  37.375  12.579
93827W        W60368   9.545  18.273   4.704
93828W        W60369   3.049  24.122   1.257
93829W        W60370  44.778  44.028   4.170
93830W        W60371  32.148   4.966   0.671
93831W        W60372  43.389  10.904   0.924
93832W        W60373  11.853  14.961   2.763
93833W        W60374  44.406   0.884  12.229
93834W        W60375  23.140  23.610  11.880
93835W        W60376  10.728  23.925  10.537
93836W        W60377  38.268  44.523  14.759
93837W        W60378   0.863  13.484  14.370
93838W        W60379  24.924  39.330   1.090
93839W        W60380   1.330  43.282   4.747
93840W        W60381  28.041   5.375   2.646
93841W        W60382   8.698  15.827  10.665
93842W        W60383  18.703  16.805   1.455
93843W        W60384  22.052  10.336  13.250
93844W        W60385  36.084  37.586   0.906
93845W        W60386   8.979   6.225   0.402
93846W        W60387  33.574  42.673  11.942
93847W        W60388  30.956   0.503  11.180
93848W        W60389  10.775  38.950   0.618
93849W        W60390  33.888  40.559   1.192
93850W        W60391  19.217  41.554  14.019
93851W        W60392  24.799  22.601   1.721
93852W        W60393  29.386   1.033  13.087
93853W        W60394  44.540  34.967   3.264
93854W        W60395  28.074   0.386   2.798
93855W        W60396  18.170   5.982   3.642
93856W        W60397  13.789  31.138   2.660
93857W        W60398  24.934  11.144  13.941
93858W        W60399  42.348  44.093   4.734
93859W        W60400  35.800  20.147  13.488
93860W        W60401  44.168  13.269  10.670
93861W        W60402   0.353  16.625   3.299
93862W        W60403  21.746   3.757   3.730
93863W        W60404  34.272   1.160   4.980
93864W        W60405  26.741  17.527  13.523
93865W        W60406  17.895  17.566   4.042
93866W        W60407   9.680  13.577  14.034
93867W        W60408  37.063  35.377  13.838
93868W        W60409  18.165  25.650   0.022
93869W        W60410  19.822  19.132   0.787
93870W        W60411   1.506  41.702   1.632
93871W        W60412  18.974  11.275  11.439
93872W        W60413  26.677  30.927  12.564
93873W        W60414  18.636  17.634  12.115
93874W        W60415  18.854  15.880   1.843
93875W        W60416  19.966  31.418   3.760
93876W        W60417  37.047  36.577   1.270
93877W        W60418  35.624  12.640  13.907
93878W        W60419  28.658  27.226  12.027
93879W        W60420  20.112  34.190  11.921
93880W        W60421   1.384  38.399  13.490
93881W        W60422  15.756  26.139  11.165
93882W        W60423   3.340  24.225   0.223
93883W        W60424  24.785  34.847  14.538
93884W        W60425   5.636  40.436   0.363
93885W        W60426   4.689  22.213  12.531
93886W        W60427  15.190  39.133  12.325
93887W        W60428  22.247  23.202  14.028
93888W        W60429  14.354   7.251  12.832
93889W        W60430  26.970  11.775   2.389
93890W        W60431   5.928  16.431  11.128
93891W        W60432   5.844  39.858   1.739
93892W        W60433  42.424  32.656   0.273
93893W        W60434  26.682  40.230   2.906
93894W        W60435  12.949  33.864  14.585
93895W        W60436  21.589   7.921   4.136
93896W        W60437  28.076  38.332  10.608
93897W        W60438  40.150  34.534   9.860
93898W        W60439  13.201  40.289  11.350
93899W        W60440  43.740  21.662   3.365
93900W        W60441   0.846  39.541   3.553
93901W        W60442  10.837  22.850  14.461
93902W        W60443   6.571  25.681   5.526
93903W        W60444   0.276   3.751  11.639
93904W        W60445   5.327   5.430   0.360
93905W        W60446  36.412  21.587   1.268
93906W        W60447  28.989  42.345   4.316
93907W        W60448   0.213  33.561   0.155
93908W        W60449  29.358  24.762   4.197
93909W        W60450  28.206  21.418  13.508
93910W        W60451  44.346  27.969  14.606
93911W        W60452  16.916   8.294  12.068
93912W        W60453  30.598   5.418   1.919
93913W        W60454  19.735   9.466   2.187
93914W        W60455  19.543   6.862  14.438
93915W        W60456  12.429  15.335   5.174
93916W        W60457   5.374  17.658  14.481
93917W        W60458   1.843   4.133  12.581
93918W        W60459  25.668  12.871   2.557
93919W        W60460  33.211  41.360   2.584
93920W        W60461  32.854  32.338  11.096
93921W        W60462  27.156  24.057  10.233
93922W        W60463  29.852  42.882  13.100
93923W        W60464  39.201  31.970   2.701
93924W        W60465  20.125  38.947  14.871
93925W        W60466   6.837  25.260   4.160
93926W        W60467  25.260   8.056   3.740
93927W        W60468  31.668  13.841   1.623
93928W        W60469  22.722  25.044   2.445
93929W        W60470  33.959  37.331  14.148
93930W        W60471   3.856  19.842   1.269
93931W        W60472   6.374   3.470  10.719
93932W        W60473   2.369   5.814   2.950
93933W        W60474  35.226  16.396   0.818
93934W        W60475  34.550  14.292  11.498
93935W        W60476  26.140  24.004  12.743
93936W        W60477   7.403  17.783  14.815
93937W        W60478   9.542  36.659   0.164
93938W        W60479  25.553   2.787  10.518
93939W        W60480  41.380  40.234  11.070
93940W        W60481  22.512  19.047  13.283
93941W        W60482  33.088  27.463   0.364
93942W        W60483  41.608  33.366  11.183
93943W        W60484   4.215  16.700   0.453
93944W        W60485  43.539  33.429  13.131
93945W        W60486  34.235  40.298  14.078
93946W        W60487  16.696  25.584  14.052
93947W        W60488  15.693   5.002   0.213
93948W        W60489  27.918  11.873   3.390
93949W        W60490  18.273  38.861  11.607
93950W        W60491  28.182  27.602  13.818
93951W        W60492  17.530   2.219   4.424
93952W        W60493  23.111   6.592   2.320
93953W        W60494   7.394   8.265  12.502
93954W        W60495  35.116   5.388  10.903
93955W        W60496   9.825  24.936   3.830
93956W        W60497  10.124  33.165  14.320
93957W        W60498  30.136  33.572  13.821
93958W        W60499  30.249  41.828   1.939
93959W        W60500  14.503   7.435  11.203
93960W        W60501   8.734  25.892   0.974
93961W        W60502  30.572  23.596  14.045
93962W        W60503   4.399  35.442   0.816
93963W        W60504  11.793  38.528   1.230
93964W        W60505  15.355  26.695  10.207
93965W        W60506  25.585   5.365   9.834
93966W        W60507  25.199   4.940   4.779
93967W        W60508  44.278  41.451   4.096
93968W        W60509   5.989  37.761   2.353
93969W        W60510  33.249  39.888  10.041
93970W        W60511   4.419  11.138  11.922
93971W        W60512  12.284  30.514   4.583
93972W        W60513  28.660  21.604  14.972
93973W        W60514  15.898  23.075  13.467
93974W        W60515  20.306  24.418   2.729
93975W        W60516  21.063  18.026  10.701
93976W        W60517   3.763  31.426  14.459
93977W        W60518   9.388  17.323  10.631
93978W        W60519  33.237  26.986  11.710
93979W        W60520  44.830  19.615   1.569
93980W        W60521  39.920   7.702   0.827
93981W        W60522  35.931  13.108  11.562
93982W        W60523  11.917  43.454  14.836
93983W        W60524   4.524   1.294  11.197
93984W        W60525   7.803  22.728   2.342
93985W        W60526  23.863   7.297  12.486
93986W        W60527  14.321  23.344  12.910
93987W        W60528  27.186  41.232   0.876
93988W        W60529  24.089  10.417   1.741
93989W        W60530  43.497   0.740   2.852
93990W        W60531  20.500  43.842   2.342
93991W        W60532  10.264  33.246   5.151
93992W        W60533  30.115  10.720  10.074
93993W        W60534  31.458  22.999  11.197
93994W        W60535  30.188  39.254   1.426
93995W        W60536   7.264  19.730   0.479
93996W        W60537  13.080  28.753  11.533
93997W        W60538   1.027  35.054   2.170
93998W        W60539   8.772  37.689  10.722
93999W        W60540   9.191   6.391  14.952
94000W        W60541  40.563  18.845   4.086
94001W        W60542   9.695  44.238  13.023
94002W        W60543   2.488   9.784  10.882
94003W        W60544  33.260  17.541  12.516
94004W        W60545  42.283  41.111  11.056
94005W        W60546  41.454  23.975  12.019
94006W        W60547  42.082  33.452   3.210
94007W        W60548  41.867  39.903  14.186
94008W        W60549  21.258  37.347  11.122
94009W        W60550   7.514  10.159  14.532
94010W        W60551  43.442  44.450   3.288
94011W        W60552  21.243  27.952   1.089
94012W        W60553  23.280   3.259   5.003
94013W        W60554  21.140   6.353  14.219
94014W        W60555   7.870  23.038   2.842
94015W        W60556  27.582   8.206  10.760
94016W        W60557  34.264   4.855  14.372
94017W        W60558  12.651   6.220  13.305
94018W        W60559  17.554   5.053   2.205
94019W        W60560   8.817  11.452  14.296
94020W        W60561  36.167  21.327   3.179
94021W        W60562  19.550   2.482  11.582
94022W        W60563   4.232  21.452   1.231
94023W        W60564  35.943  29.161  12.515
94024W        W60565  37.556  37.022  14.269
94025W        W60566  39.829  42.920  10.982
94026W        W60567  12.919  26.209  11.503
94027W        W60568   7.808  35.845   3.767
94028W        W60569  36.945  17.906  12.515
94029W        W60570  39.781  41.879   4.150
94030W        W60571   1.525  24.376   3.342
94031W        W60572  15.827   2.590  13.559
94032W        W60573  31.662  21.302   1.560
94033W        W60574  15.209   1.675   2.736
94034W        W60575  18.277  21.011  11.125
94035W        W60576  27.305   6.410   3.550
94036W        W60577  10.778  20.094  13.970
94037W        W60578  40.450   6.431   3.829
94038W        W60579  10.829  40.295  13.801
94039W        W60580  23.324  21.599   5.064
94040W        W60581  33.537  35.381   3.699
94041W        W60582  27.807  12.145  11.185
94042W        W60583  26.215  26.230  10.550
94043W        W60584   9.215  20.757  11.747
94044W        W60585  10.082  25.807  11.665
94045W        W60586  28.033  10.826   2.431
94046W        W60587  30.475   2.742  14.025
94047W        W60588   5.108  38.602  12.999
94048W        W60589  32.453  36.015  14.330
94049W        W60590  26.900  42.971   3.550
94050W        W60591  43.388  23.098   2.655
94051W        W60592  39.583  20.354   1.781
94052W        W60593  30.235  26.945   2.396
94053W        W60594  40.783   4.364   0.225
94054W        W60595  17.073  11.723   1.414
94055W        W60596  39.909   6.453  12.450
94056W        W60597   0.352  43.233  12.612
94057W        W60598  43.741  11.084  14.286
94058W        W60599   0.201   5.896   1.372
94059W        W60600   6.343  36.296   3.947
94060W        W60601   7.162  35.641  13.480
94061W        W60602  17.957  39.941   4.174
94062W        W60603  37.091  44.216   1.258
94063W        W60604   1.018  18.050   5.079
94064W        W60605  39.811  11.025  10.159
94065W        W60606   3.832  41.691  11.538
94066W        W60607  26.401  14.326   4.009
94067W        W60608  33.282   7.713   3.109
94068W        W60609  40.322  18.918  14.522
94069W        W60610  23.695  13.529  11.558
94070W        W60611  24.125  42.870   0.961
94071W        W60612  44.983   2.747  12.334
94072W        W60613  27.916   5.707   3.621
94073W        W60614  34.646  28.633   1.444
94074W        W60615  30.809  43.377   1.150
94075W        W60616  19.968  10.764   1.832
94076W        W60617  44.344  23.284   0.234
94077W        W60618   0.052   9.654  13.362
94078W        W60619  20.140  28.991  12.519
94079W        W60620   5.589  29.756  13.788
94080W        W60621  32.630   8.598  13.133
94081W        W60622  12.223   2.244   3.068
94082W        W60623  43.562  39.546  12.331
94083W        W60624  12.780  36.069  11.973
94084W        W60625  12.705  24.658   4.098
94085W        W60626  24.949  11.657   4.551
94086W        W60627  30.527   5.619   1.452
94087W        W60628  13.800  19.963  12.928
94088W        W60629   0.799  26.558   4.483
94089W        W60630  19.211   6.385  13.385
94090W        W60631   7.315   6.333  12.892
94091W        W60632  29.450   4.944   1.385
94092W        W60633   2.463  44.020   0.363
94093W        W60634  34.492  14.712  14.304
94094W        W60635  23.902  39.360   1.280
94095W        W60636  39.364  39.455   2.400
94096W        W60637   6.092  40.357   1.713
94097W        W60638  44.250  15.337  12.053
94098W        W60639  29.349   2.977  14.454
94099W        W60640   3.706  41.305  13.318
94100W        W60641   5.542  33.385   4.552
94101W        W60642  27.628  40.978   0.851
94102W        W60643  34.943   5.393   4.804
94103W        W60644  21.054  38.572   0.840
94104W        W60645  14.898   0.208  10.637
94105W        W60646  11.312  26.186  12.248
94106W        W60647  24.634   9.241   1.973
94107W        W60648   7.747  39.306   2.838
94108W        W60649   1.573   8.290   0.513
94109W        W60650  30.128  23.907  14.016
94110W        W60651  19.480  15.252   0.802
94111W        W60652  14.709   1.079  10.241
94112W        W60653  41.571   3.427  14.991
94113W        W60654  40.856  38.093   1.325
94114W        W60655  18.155  42.393  12.902
94115W        W60656  12.767  40.383  12.643
94116W        W60657  33.697  21.173   4.936
94117W        W60658  42.752  20.587  11.974
94118W        W60659  31.930  21.002   1.252
94119W        W60660   6.288  29.279   1.301
94120W        W60661   5.169  24.689  14.251
94121W        W60662   2.348  36.861  12.757
94122W        W60663  31.262  12.422   4.092
94123W        W60664  17.664  12.878  14.960
94124W        W60665  40.090  10.610   0.115
94125W        W60666  26.655  43.311   1.340
94126W        W60667  20.702  29.467   3.179
94127W        W60668  39.881  30.138  14.988
94128W        W60669  25.502  14.396   0.806
94129W        W60670  19.375  13.258  11.995
94130W        W60671  33.970   2.210   3.592
94131W        W60672  35.446  34.540   3.157
94132W        W60673  28.497  27.436   0.918
94133W        W60674  42.569  29.874  12.854
94134W        W60675  10.369  30.057   2.001
94135W        W60676   6.159  11.006  12.423
94136W        W60677  18.694  43.961  14.548
94137W        W60678  18.687  27.588   4.109
94138W        W60679  28.662  29.671   1.301
94139W        W60680  13.106  26.539   4.109
94140W        W60681  22.644  10.090  13.037
94141W        W60682  21.183  14.554  11.445
94142W        W60683  21.483  16.981   3.077
94143W        W60684  38.907  19.652  10.563
94144W        W60685  21.156  44.780   3.998
94145W        W60686  31.290  28.543  12.397
94146W        W60687   0.299   2.486  14.892
94147W        W60688  26.626   1.362  13.559
94148W        W60689   0.970  21.088   4.515
94149W        W60690  19.341  20.810  12.032
94150W        W60691  21.840  23.251   2.536
94151W        W60692  33.180  35.373  10.738
94152W        W60693  10.243  28.811  11.532
94153W        W60694  32.473  34.335   4.067
94154W        W60695  33.888  22.502   2.167
94155W        W60696  43.919  30.203  11.101
94156W        W60697  12.328  37.763   1.350
94157W        W60698  36.556   1.318  11.173
94158W        W60699  30.693  42.949   3.193
94159W        W60700  16.286  28.185   3.860
94160W        W60701  22.855  38.136  13.361
94161W        W60702  17.398  37.322  10.499
94162W        W60703   1.710   2.649  13.483
94163W        W60704  30.124  33.619  11.396
94164W        W60705   1.449  28.136  11.997
94165W        W60706   6.066   3.579   0.310
94166W        W60707  21.973  15.698  11.526
94167W        W60708  12.859  17.612  10.719
94168W        W60709   1.803  37.691   1.690
94169W        W60710  42.563  28.749   1.767
94170W        W60711  28.169  33.359   4.853
94171W        W60712  18.564  31.613  10.912
94172W        W60713  32.026  10.582  13.997
94173W        W60714   5.341  34.165  12.096
94174W        W60715  16.683  16.162  12.639
94175W        W60716  35.803  23.139  13.159
94176W        W60717  31.208  23.826  12.575
94177W        W60718   5.909  36.312   4.241
94178W        W60719  28.251  11.517   3.604
94179W        W60720   3.043  28.424   0.711
94180W        W60721   4.916   5.213   1.664
94181W        W60722  27.586  28.536   3.353
94182W        W60723   6.363  19.834  11.678
94183W        W60724  30.120  11.371   0.283
94184W        W60725   8.185  19.670   4.621
94185W        W60726  32.018   6.843   0.982
94186W        W60727  34.581   3.794   3.324
94187W        W60728  12.794   2.409   4.727
94188W        W60729  41.613   5.432  11.735
94189W        W60730  28.804  17.361   3.278
94190W        W60731  37.170  26.791  11.157
94191W        W60732  33.384  37.170  11.698
94192W        W60733   7.918  25.202   1.211
94193W        W60734  17.055   9.094  13.903
94194W        W60735  12.304  36.267  12.009
94195W        W60736  44.168  35.915   4.351
94196W        W60737   8.339  37.985   2.660
94197W        W60738   9.286   8.582  12.684
94198W        W60739  36.514   7.348  13.283
94199W        W60740  21.818  17.724  12.351
94200W        W60741  19.275  33.809   4.670
94201W        W60742  13.776  16.084  14.943
94202W        W60743  14.323  29.514   1.684
94203W        W60744  31.911  20.630   4.683
94204W        W60745  20.577   6.072  14.972
94205W        W60746  25.549  22.187  12.820
94206W        W60747  28.903  32.553  12.377
94207W        W60748  18.945  38.025   0.661
94208W        W60749  24.012   8.806  13.991
94209W        W60750  38.957  33.166   3.000
94210W        W60751  29.063  22.170   0.693
94211W        W60752  13.964   0.491   1.194
94212W        W60753  41.349  20.998  10.989
94213W        W60754  23.020  29.577  11.495
94214W        W60755  20.133  17.253  14.398
94215W        W60756  12.521  32.085  10.288
94216W        W60757  38.829  13.238  10.364
94217W        W60758  27.720  13.638  13.063
94218W        W60759  29.438   6.758  12.876
94219W        W60760  44.461  15.899  11.692
94220W        W60761  22.632   5.065   3.557
94221W        W60762  16.090  43.582  11.861
94222W        W60763  10.876  36.263   0.064
94223W        W60764  25.667  36.517  10.583
94224W        W60765  32.054   8.980  13.303
94225W        W60766  17.809  10.445   4.077
94226W        W60767   5.365  23.106   0.722
94227W        W60768   7.167   3.934   2.861
94228W        W60769  43.085  27.816  10.392
94229W        W60770  22.799   9.664  10.487
94230W        W60771  40.735   0.316   0.362
94231W        W60772   9.282   4.916  13.271
94232W        W60773  13.870   2.513  14.548
94233W        W60774  31.202   8.372   1.425
94234W        W60775  14.819  39.473   1.376
94235W        W60776   3.343  33.638   3.961
94236W        W60777  22.118   0.303  10.588
94237W        W60778  40.392  33.311  12.551
94238W        W60779  15.777  40.951  11.224
94239W        W60780   7.865   0.482  13.363
94240W        W60781  37.101  24.979   1.717
94241W        W60782  31.669  18.225   2.540
94242W        W60783  16.005  28.022   1.241
94243W        W60784  19.223  29.641   3.689
94244W        W60785  15.338  16.679   2.212
94245W        W60786  42.183  41.461   0.194
94246W        W60787   0.223  15.386  12.135
94247W        W60788   0.806   7.293   1.291
94248W        W60789  23.054  24.937  12.071
94249W        W60790  39.065  23.224  10.340
94250W        W60791   4.444   2.241   4.210
94251W        W60792  13.887   2.448  11.600
94252W        W60793   2.942  21.564   0.826
94253W        W60794  12.703  29.649  13.606
94254W        W60795  14.348  13.240   1.238
94255W        W60796   2.982  17.206   4.319
94256W        W60797  15.121  18.265   0.312
94257W        W60798  29.522  35.030   3.852
94258W        W60799  17.294  35.045   3.671
94259W        W60800  40.342  23.543  14.355
94260W        W60801  35.993   9.793   1.050
94261W        W60802  33.613  33.563   4.042
94262W        W60803  20.303   3.827  10.431
94263W        W60804  18.544  33.646   1.175
94264W        W60805  13.435  20.104   3.877
94265W        W60806  38.019  34.922  12.475
94266W        W60807  41.653  28.697   3.367
94267W        W60808  38.796  17.075   4.272
94268W        W60809  37.258  43.083  11.010
94269W        W60810  40.166  44.416   1.809
94270W        W60811  25.708  42.502  10.606
94271W        W60812  14.609  25.592   5.069
94272W        W60813  32.940   9.005   4.592
94273W        W60814   1.571   0.483  11.409
94274W        W60815  15.641  36.798  13.375
94275W        W60816  33.349  29.057   3.807
94276W        W60817  41.982   3.183  11.119
94277W        W60818  43.823  14.777  14.803
94278W        W60819  30.670  13.054   1.430
94279W        W60820  15.764  26.654  11.905
94280W        W60821  11.031  19.969   4.236
94281W        W60822  14.206  17.632  10.976
94282W        W60823  20.101  29.193  11.120
94283W        W60824  25.685  18.267   2.738
94284W        W60825  26.115  13.530   4.092
94285W        W60826  27.890  15.060   4.520
94286W        W60827  30.095  38.276   2.830
94287W        W60828  28.595  20.536   1.416
94288W        W60829  18.011   0.820  10.423
94289W        W60830  11.597  44.709   9.862
94290W        W60831  18.782  21.650   1.804
94291W        W60832  16.093  29.599   2.836
94292W        W60833  22.745  43.545  11.621
94293W        W60834  11.165  40.121   0.835
94294W        W60835   0.333  38.919  11.908
94295W        W60836  42.402   1.279   3.394
94296W        W60837   3.818   8.425   0.407
94297W        W60838  11.225  42.735  12.769
94298W        W60839  10.598  33.821  12.617
94299W        W60840  15.753   6.332  14.272
94300W        W60841  34.772  22.423   3.709
94301W        W60842   9.850  26.576  13.993
94302W        W60843  36.515   1.714   0.551
94303W        W60844  18.507  27.242  12.914
94304W        W60845   3.124  29.468  11.190
94305W        W60846  41.871   2.758   4.326
94306W        W60847   9.213  21.685  12.140
94307W        W60848  14.607  36.798  11.472
94308W        W60849  26.665   1.377   0.599
94309W        W60850  43.021  40.502   0.954
94310W        W60851   8.361  14.592   4.386
94311W        W60852  13.869  40.630   2.223
94312W        W60853  43.347  29.978  13.362
94313W        W60854  44.388  34.057   3.202
94314W        W60855  19.781  17.349  13.142
94315W        W60856  38.356   9.392   3.973
94316W        W60857  15.983  37.897  12.868
94317W        W60858  32.416   4.458  11.902
94318W        W60859   3.193  35.908   4.175
94319W        W60860  27.956   3.019   0.238
94320W        W60861  38.346  18.646   0.324
94321W        W60862  16.589  20.577  12.609
94322W        W60863  12.712  39.563  13.859
94323W        W60864   7.872  32.559  10.386
94324W        W60865  27.480  21.715  12.046
94325W        W60866   9.570  10.929   4.250
94326W        W60867  16.100  26.774   0.361
94327W        W60868  21.486  16.232  10.475
94328W        W60869   9.809  18.745   1.430
94329W        W60870  33.604  40.037  12.603
94330W        W60871  36.933  19.570  14.304
94331W        W60872  25.219  22.080   0.848
94332W        W60873   6.458  32.636   2.437
94333W        W60874  40.451  26.953   0.362
94334W        W60875  34.198  38.127  14.356
94335W        W60876  40.227  22.417   3.165
94336W        W60877  31.466  11.116  10.198
94337W        W60878  19.680  23.749  12.894
94338W        W60879   4.934   5.511   2.171
94339W        W60880  12.156  26.439   2.178
94340W        W60881  18.622  10.241   4.721
94341W        W60882  14.506  32.950  11.641
94342W        W60883   8.931  11.936  13.403
94343W        W60884  10.377   8.454   3.231
94344W        W60885   6.141  14.145  13.216
94345W        W60886  27.560  11.055   2.446
94346W        W60887  15.720  24.747   4.095
94347W        W60888  44.023  39.558  13.148
94348W        W60889  40.082  26.267  12.105
94349W        W60890  40.975  17.684  14.290
94350W        W60891  36.484  35.705  11.034
94351W        W60892  27.015  40.461  13.517
94352W        W60893  36.866  16.883   1.103
94353W        W60894  13.015   8.692   2.428
94354W        W60895  43.765  40.417   0.512
94355W        W60896  30.744  26.007  14.733
94356W        W60897  18.650  25.061   0.838
94357W        W60898  26.665  27.320  12.019
94358W        W60899   7.674  27.662   2.718
94359W        W60900  11.824  35.475  11.585
94360W        W60901  24.781  21.277  10.689
94361W        W60902   4.876  13.058  11.997
94362W        W60903  41.021  28.410  14.882
94363W        W60904   6.613  35.946   1.260
94364W        W60905  41.251  28.605   1.860
94365W        W60906  28.119  13.281   1.864
94366W        W60907  33.381  16.490  13.346
94367W        W60908  36.878  31.081  14.779
94368W        W60909  28.666  34.603   4.311
94369W        W60910  22.774   0.387  13.991
94370W        W60911  36.399   7.172   4.786
94371W        W60912  41.946  44.244  14.781
94372W        W60913  43.247  17.838  12.954
94373W        W60914  17.056  12.135  12.568
94374W        W60915   5.070   8.300  11.532
94375W        W60916  11.011   6.369   4.644
94376W        W60917  29.461  28.651  13.523
94377W        W60918  42.413  18.330   1.242
94378W        W60919  37.516  12.744  10.318
94379W        W60920  31.180  24.757   3.946
94380W        W60921   8.229  27.696   4.145
94381W        W60922  18.314  32.139  13.811
94382W        W60923  13.554  24.987  13.270
94383W        W60924  25.020   1.694  12.668
94384W        W60925  11.214  36.505  10.963
94385W        W60926   2.319  13.478   3.254
94386W        W60927   2.161   6.602  14.995
94387W        W60928   6.835  27.632  13.283
94388W        W60929  31.721  42.979  14.353
94389W        W60930  20.711  38.357  10.665
94390W        W60931  22.606   7.952  11.197
94391W        W60932  13.689  10.656   3.244
94392W        W60933  14.581  18.934  12.453
94393W        W60934  21.470  16.780   0.772
94394W        W60935  40.409   1.743  10.267
94395W        W60936   6.220   9.817  10.669
94396W        W60937  40.843   1.448  12.642
94397W        W60938  33.198  27.228  12.660
94398W        W60939  27.572  12.061  13.355
94399W        W60940  27.599  25.802   2.373
94400W        W60941  42.393  25.475  13.907
94401W        W60942  19.260  42.520   4.365
94402W        W60943  30.458  28.396  12.034
94403W        W60944  28.625  26.311  11.975
94404W        W60945   4.124  13.808   3.722
94405W        W60946  11.306  29.629  14.149
94406W        W60947  33.564  14.329  14.268
94407W        W60948  17.949   8.617  11.770
94408W        W60949  42.637  31.381   1.440
94409W        W60950  41.067  12.050   2.878
94410W        W60951   0.682  30.140  14.284
94411W        W60952   7.469  16.898   4.230
94412W        W60953  41.551  13.325  14.863
94413W        W60954  16.152  27.064  12.113
94414W        W60955  18.697  30.266   2.877
94415W        W60956  28.528  31.550   1.989
94416W        W60957  34.330  40.475  12.133
94417W        W60958  20.225  15.169  12.266
94418W        W60959  18.069  22.097   3.333
94419W        W60960  14.671  19.953  12.406
94420W        W60961  29.056   5.908   1.832
94421W        W60962  10.254  22.607  14.975
94422W        W60963   2.912  11.620   0.735
94423W        W60964  16.238  10.430   3.026
94424W        W60965  15.098   6.784   1.962
94425W        W60966   5.734  32.895   4.582
94426W        W60967  37.167  20.070  14.343
94427W        W60968   4.188  22.802   0.002
94428W        W60969  26.388  30.434  14.411
94429W        W60970  39.770  28.137  12.415
94430W        W60971   6.961   2.460   1.763
94431W        W60972  34.651  39.858   3.091
94432W        W60973  12.500  36.547   4.988
94433W        W60974  37.532  16.605   0.852
94434W        W60975   4.863  15.236   3.483
94435W        W60976  34.438  36.056  13.774
94436W        W60977  10.286   9.522  13.461
94437W        W60978  29.628  34.071  14.396
94438W        W60979  27.734   0.996   4.828
94439W        W60980  44.422  26.929   0.575
94440W        W60981  16.804  17.110  11.863
94441W        W60982  43.752  44.474   4.675
94442W        W60983   0.703  42.365   0.272
94443W        W60984  33.891  44.785   3.108
94444W        W60985   9.953  14.246  14.735
94445W        W60986  41.290  14.662  14.971
94446W        W60987  37.851  12.371  10.995
94447W        W60988  13.632  11.474   1.851
94448W        W60989  15.026   8.840   4.387
94449W        W60990   6.696  16.273  10.822
94450W        W60991  41.749  43.341  10.522
94451W        W60992  29.723  31.492   2.868
94452W        W60993  24.505  22.750  14.311
94453W        W60994  38.995  28.377  11.957
94454W        W60995  35.691   2.650  12.086
94455W        W60996  11.729  22.695  13.155
94456W        W60997  13.767  19.280  11.114
94457W        W60998  16.696   2.849   1.696
94458W        W60999  27.951  40.072   1.265
94459W        W61000  13.626  27.763   0.030
94460W        W61001   8.117  29.041   0.454
94461W        W61002  24.665   9.655  14.856
94462W        W61003  22.051  34.209  12.937
94463W        W61004   4.434   4.742   2.227
94464W        W61005  10.905  20.774  14.532
94465W        W61006  28.105  31.498  10.683
94466W        W61007  44.966  19.335   3.709
94467W        W61008  23.660  42.540   4.147
94468W        W61009  34.806  12.107   1.305
94469W        W61010  10.750  16.806  11.019
94470W        W61011  32.443  37.418  12.807
94471W        W61012  15.583  18.553  12.964
94472W        W61013  31.685  33.848  14.675
94473W        W61014  21.857  29.952  12.029
94474W        W61015  43.931  34.618   4.650
94475W        W61016  21.088   8.178   1.779
94476W        W61017  39.021  39.127   2.169
94477W        W61018  23.719  41.759  12.029
94478W        W61019  19.499  12.728   5.724
94479W        W61020  35.082  17.460   0.874
94480W        W61021  27.565  17.044   1.315
94481W        W61022  35.789  21.834  13.090
94482W        W61023   9.271  13.543   0.572
94483W        W61024   6.779  43.381  14.304
94484W        W61025   8.933  41.500  10.308
94485W        W61026   4.961   6.416  13.461
94486W        W61027   5.297   1.919  11.888
94487W        W61028   9.795  15.520  11.031
94488W        W61029  38.065  24.380  12.966
94489W        W61030  25.239  40.841   3.275
94490W        W61031  19.800   0.932   4.853
94491W        W61032   3.281  34.610   4.785
94492W        W61033  24.514   3.071  12.061
94493W        W61034  30.550  26.987  12.910
94494W        W61035   9.295  23.443   2.325
94495W        W61036   5.243  14.118  12.105
94496W        W61037  37.201  44.834  13.003
94497W        W61038   5.589  18.302  14.982
94498W        W61039   6.464  18.205  13.768
94499W        W61040   9.398  39.643  14.794
94500W        W61041  15.248   3.768  12.383
94501W        W61042  33.629  24.352   3.625
94502W        W61043   4.364  35.377  11.945
94503W        W61044   9.894  40.553   1.501
94504W        W61045  43.490   8.633   2.082
94505W        W61046  18.277  26.146   1.351
94506W        W61047  27.431  41.363  14.008
94507W        W61048  22.102  13.756  10.575
94508W        W61049  31.353   6.507   2.163
94509W        W61050  26.094  18.313  11.555
94510W        W61051   9.588  22.044  12.178
94511W        W61052  44.947  30.193  12.141
94512W        W61053  19.311  16.881   9.860
94513W        W61054  32.655  30.169  10.692
94514W        W61055  27.152  19.235  11.497
94515W        W61056   3.887  41.468  12.509
94516W        W61057   0.862  43.989  12.487
94517W        W61058  10.059  33.607  13.324
94518W        W61059  21.333  42.250   3.816
94519W        W61060  42.004  42.006   1.801
94520W        W61061  25.191  34.935  10.520
94521W        W61062  17.369  30.910   3.731
94522W        W61063  27.051  20.609  11.433
94523W        W61064   3.952   0.890   5.541
94524W        W61065  28.838   1.342   3.881
94525W        W61066  16.775  44.300   2.842
94526W        W61067  10.658  25.174   2.689
94527W        W61068  25.168  17.154  12.869
94528W        W61069  17.065  10.032   4.280
94529W        W61070  44.998  26.789  10.826
94530W        W61071   4.448   6.478   3.677
94531W        W61072   9.596  31.500   3.347
94532W        W61073  20.592  40.468   1.502
94533W        W61074  37.347  12.574   2.358
94534W        W61075  36.523  30.957   4.533
94535W        W61076  35.098   9.689   1.408
94536W        W61077  29.429  37.427  12.125
94537W        W61078  21.104  31.137  12.733
94538W        W61079   7.216   5.332   0.052
94539W        W61080  41.780   5.214  12.138
94540W        W61081  19.978  25.878  14.348
94541W        W61082  20.868  32.429   1.182
94542W        W61083  36.966  34.075   4.453
94543W        W61084   8.680   7.338   3.578
94544W        W61085  30.652  27.482   3.150
94545W        W61086  31.106  11.061   3.069
94546W        W61087  39.358  29.190  13.475
94547W        W61088   6.727  34.473  12.852
94548W        W61089   3.409  15.224   3.921
94549W        W61090   2.866  17.023   2.957
94550W        W61091  35.896  24.484   3.470
94551W        W61092   1.034   8.265   1.406
94552W        W61093  29.822  16.992  14.339
94553W        W61094  32.455  35.636  13.952
94554W        W61095   3.872  39.099   1.665
94555W        W61096   5.684  23.096   2.214
94556W        W61097  31.261   8.807  11.905
94557W        W61098  22.619  33.791  14.515
94558W        W61099  22.111  44.268  10.919
94559W        W61100   0.033  23.157  11.636
94560W        W61101  21.590  10.993   1.742
94561W        W61102  13.856  10.642  13.855
94562W        W61103  36.076  11.187  14.041
94563W        W61104   0.967  29.473  12.494
94564W        W61105   9.646  21.307   2.256
94565W        W61106  26.007  25.040  14.645
94566W        W61107  40.300   2.240   2.001
94567W        W61108   9.847  23.940  12.838
94568W        W61109  16.771  30.263  10.721
94569W        W61110  42.423   5.758   0.933
94570W        W61111   3.690   1.844  13.955
94571W        W61112  39.047   0.463   3.191
94572W        W61113  25.668  27.891  11.600
94573W        W61114  26.829  30.981  10.905
94574W        W61115  17.828  32.107  10.713
94575W        W61116  11.354  19.653   2.129
94576W        W61117   4.356  17.503   1.403
94577W        W61118  12.552  28.038   3.644
94578W        W61119  26.099  29.178   4.766
94579W        W61120   2.243  15.020  13.965
94580W        W61121  38.274   4.818  14.387
94581W        W61122  37.288  32.690   1.193
94582W        W61123  21.304  18.162  13.528
94583W        W61124  20.269  30.949  12.089
94584W        W61125   9.127   0.118  12.626
94585W        W61126  31.259  21.704   4.095
94586W        W61127  27.485   8.415   0.396
94587W        W61128   6.844  10.991   3.315
94588W        W61129   1.753  40.415   4.930
94589W        W61130   4.164  35.461  14.363
94590W        W61131   9.908  23.972   2.267
94591W        W61132   9.317  25.095  10.741
94592W        W61133  34.794  38.979   4.582
94593W        W61134  40.783  10.251  14.567
94594W        W61135  44.001  40.556  11.094
94595W        W61136  20.804   1.007   2.274
94596W        W61137  30.877  30.940   2.697
94597W        W61138   5.178  22.162   5.110
94598W        W61139  17.805   2.851  12.567
94599W        W61140   5.659  31.632  11.118
94600W        W61141  33.691  10.861   4.211
94601W        W61142  39.501  11.994   4.136
94602W        W61143  36.544  44.234  14.972
94603W        W61144  40.561  12.910  13.929
94604W        W61145  36.369  35.812   4.601
94605W        W61146  18.559   2.806  11.415
94606W        W61147  39.766  35.969   4.202
94607W        W61148   1.713   1.884  14.944
94608W        W61149  25.684   5.029  10.366
94609W        W61150  11.403  20.268  12.480
94610W        W61151  43.025  40.630   2.711
94611W        W61152   7.252  15.285   3.861
94612W        W61153  29.856  40.315  12.432
94613W        W61154   1.629  32.277  13.007
94614W        W61155  29.560  36.343   0.490
94615W        W61156  23.108  18.284   0.501
94616W        W61157  31.714  16.092  11.967
94617W        W61158   8.227  22.971   3.963
94618W        W61159  43.464   5.658  14.794
94619W        W61160  17.090   8.796   0.249
94620W        W61161  33.955   0.186   5.026
94621W        W61162  36.011  24.011   0.329
94622W        W61163  36.165  25.295  11.078
94623W        W61164  36.581  38.823  13.356
94624W        W61165  37.809  12.627   4.100
94625W        W61166  32.133  28.017  11.549
94626W        W61167  15.703  28.525   4.514
94627W        W61168  19.736  35.528   4.427
94628W        W61169  11.435   7.284   3.724
94629W        W61170  14.723  15.397   0.250
94630W        W61171  18.035  33.435  13.152
94631W        W61172   2.731  14.589   3.784
94632W        W61173  25.316  26.482  10.078
94633W        W61174  25.204  11.064   9.978
94634W        W61175   5.202  33.595   3.615
94635W        W61176  39.916   4.209   4.661
94636W        W61177  18.847   7.843  12.344
94637W        W61178  29.394  14.301  12.424
94638W        W61179   6.153  12.047   0.290
94639W        W61180  39.883  23.857  10.540
94640W        W61181  18.604  33.018  14.221
94641W        W61182   7.315  31.110  10.735
94642W        W61183  17.374  40.193   1.518
94643W        W61184  26.790   4.210   4.251
94644W        W61185  27.448  39.808   3.659
94645W        W61186  17.689  41.107   1.239
94646W        W61187  11.985  13.440  14.223
94647W        W61188  10.337  42.512  11.504
94648W        W61189  19.464  10.291  11.637
94649W        W61190   3.283  35.310  14.040
94650W        W61191  26.172   8.412  12.580
94651W        W61192   6.885  15.062  11.503
94652W        W61193  19.793  40.837   0.229
94653W        W61194  25.167  44.504   0.210
94654W        W61195  39.212  29.469   1.599
94655W        W61196  15.644  13.760  10.318
94656W        W61197  32.699   8.974  13.940
94657W        W61198   0.498  17.539  14.096
94658W        W61199  13.486  26.978  13.393
94659W        W61200  33.741  39.411  11.064
94660W        W61201  31.245   8.868   5.026
94661W        W61202  17.154  33.314   2.864
94662W        W61203  27.044  18.762  13.772
94663W        W61204  13.747  11.709   4.562
94664W        W61205  41.942  30.546  12.834
94665W        W61206  42.551  23.596   4.682
94666W        W61207  35.500  31.641   3.327
94667W        W61208  44.323   8.597   1.652
94668W        W61209  36.032  32.811   3.735
94669W        W61210  33.952  19.073   3.412
94670W        W61211  39.316  17.494  11.468
94671W        W61212   2.456  19.889   1.983
94672W        W61213  40.512  14.944   4.876
94673W        W61214  43.149  30.083   1.302
94674W        W61215   7.790  15.061   3.900
94675W        W61216  39.654   1.671   2.759
94676W        W61217  40.301   6.017   2.791
94677W        W61218  35.631  31.445  12.487
94678W        W61219  20.673  42.020   1.158
94679W        W61220  23.542  36.962  13.823
94680W        W61221  22.868  13.521   3.987
94681W        W61222   4.839   6.622  14.436
94682W        W61223  28.947  20.305  10.878
94683W        W61224  16.194   0.442   3.608
94684W        W61225   5.725  25.986  13.609
94685W        W61226  35.116  25.753   3.169
94686W        W61227  44.462  18.647   3.452
94687W        W61228   9.463  19.767  10.138
94688W        W61229  12.338  37.053  12.586
94689W        W61230  25.491  42.869  10.278
94690W        W61231  14.407  38.856  13.923
94691W        W61232  33.676  30.204   0.263
94692W        W61233   5.395  12.313   3.288
94693W        W61234  20.217  36.297   3.682
94694W        W61235  17.578  21.144   1.766
94695W        W61236  10.884  19.818   3.754
94696W        W61237  34.973  27.188  13.345
94697W        W61238   5.184   0.501   4.123
94698W        W61239  40.274   8.307  11.808
94699W        W61240  28.429  36.668  12.624
94700W        W61241   2.907  35.318  10.610
94701W        W61242   2.437  28.582  12.655
94702W        W61243  13.686  37.323   4.460
94703W        W61244   2.852  20.539  13.546
94704W        W61245  10.134   2.322  14.782
94705W        W61246  15.071  16.264  14.489
94706W        W61247  24.739   4.383  14.833
94707W        W61248  12.342  30.982  13.949
94708W        W61249  36.413   6.204   0.966
94709W        W61250   3.831  31.459   2.315
94710W        W61251   7.305  32.628  12.603
94711W        W61252   6.465  44.216  11.557
94712W        W61253  30.316  40.540  12.517
94713W        W61254  30.903  44.068  13.040
94714W        W61255  20.080  12.232  12.387
94715W        W61256  41.569  33.161   2.126
94716W        W61257  40.308  22.022  14.469
94717W        W61258  31.636  26.936   2.218
94718W        W61259   8.227  40.321  13.078
94719W        W61260  31.468  31.354  11.349
94720W        W61261  10.330   9.203  14.826
94721W        W61262  31.658  20.563   1.287
94722W        W61263  43.265  26.077  14.903
94723W        W61264  23.881   2.091   2.717
94724W        W61265  35.406  36.790  12.651
94725W        W61266  38.359  40.257  12.485
94726W        W61267  11.027  35.795   0.959
94727W        W61268  39.556  10.214   2.760
94728W        W61269   2.842  36.798   0.463
94729W        W61270  15.756  26.374   1.817
94730W        W61271  23.197  22.974   1.399
94731W        W61272  39.343   8.322   2.860
94732W        W61273  12.478  31.486   1.071
94733W        W61274   2.633   7.241  14.071
94734W        W61275  25.016  31.508   2.282
94735W        W61276  24.971  39.393   4.207
94736W        W61277  17.286  42.443   4.093
94737W        W61278  12.850   9.807  13.798
94738W        W61279   6.427   8.854  14.936
94739W        W61280  11.945  44.432  11.821
94740W        W61281  31.536   0.376   1.336
94741W        W61282  25.534  40.252  11.230
94742W        W61283  41.850  43.495  14.377
94743W        W61284  13.555   5.465   1.338
94744W        W61285  19.114  24.069   3.160
94745W        W61286  13.123   8.841  12.000
94746W        W61287  19.689  24.849   3.130
94747W        W61288  17.144  21.144   4.612
94748W        W61289  39.429  32.495  11.944
94749W        W61290  38.033   5.238   1.341
94750W        W61291  13.722  39.417   2.595
94751W        W61292  43.687  19.305  11.909
94752W        W61293  23.608  41.609  10.679
94753W        W61294  13.182  17.093   1.321
94754W        W61295  44.340  29.297   4.778
94755W        W61296  28.094  27.113  12.593
94756W        W61297   8.380  26.730  11.554
94757W        W61298   9.690  41.760   2.416
94758W        W61299  26.780  29.710   1.394
94759W        W61300  39.533  14.256  11.723
94760W        W61301  44.938  19.676   3.308
94761W        W61302  25.682  11.229  10.992
94762W        W61303  21.583  34.884   2.672
94763W        W61304  38.840   3.752   3.987
94764W        W61305  40.231  17.643  11.208
94765W        W61306  27.920  33.907  11.503
94766W        W61307   3.377  18.277   2.842
94767W        W61308  17.403  19.617   1.177
94768W        W61309  40.894  40.498  14.837
94769W        W61310  44.149  17.171  12.018
94770W        W61311  10.164  11.146  10.639
94771W        W61312  13.623   2.446   4.151
94772W        W61313   5.819  37.323   2.628
94773W        W61314  29.464  35.449   3.524
94774W        W61315  36.943  24.541   1.480
94775W        W61316  13.844  28.699   1.454
94776W        W61317  10.254   1.322   1.405
94777W        W61318  44.218  42.372   2.388
94778W        W61319  26.250  12.161  12.935
94779W        W61320  37.053   6.427  14.962
94780W        W61321   1.460  44.990  11.627
94781W        W61322  39.268  38.454   0.872
94782W        W61323  30.554  35.220  13.396
94783W        W61324   3.375  31.874  12.590
94784W        W61325  44.016  40.709   1.686
94785W        W61326   8.165   2.796   1.217
94786W        W61327  25.285  15.042   0.323
94787W        W61328  43.923  21.231   0.755
94788W        W61329  15.027  36.069  12.646
94789W        W61330  31.542  11.120   3.742
94790W        W61331  12.617  39.889   0.472
94791W        W61332  22.066  43.296  12.607
94792W        W61333  15.375  28.629   4.091
94793W        W61334  17.623  16.268  11.194
94794W        W61335  17.625  21.541  12.301
94795W        W61336  17.011  37.603   3.377
94796W        W61337   3.490  16.766  14.974
94797W        W61338  23.578  41.252   0.026
94798W        W61339  24.822  22.538   4.529
94799W        W61340  16.682  38.880  13.398
94800W        W61341  24.166  14.194   2.202
94801W        W61342   7.825  43.795  10.715
94802W        W61343  31.321   2.664   0.009
94803W        W61344   3.229   4.727   1.474
94804W        W61345  14.615  31.936   2.274
94805W        W61346  44.280   8.944  11.169
94806W        W61347  27.147  33.820   1.283
94807W        W61348  36.827  16.647  13.046
94808W        W61349  11.449   7.346  12.885
94809W        W61350  22.619  23.706   3.327
94810W        W61351  33.018  17.802   2.621
94811W        W61352  17.602  31.355   3.695
94812W        W61353  25.367  37.007  14.885
94813W        W61354  21.995  38.344   1.416
94814W        W61355  31.668  42.658   3.724
94815W        W61356  34.954  25.117  11.597
94816W        W61357  33.954   3.763  12.575
94817W        W61358  31.366  24.198   0.911
94818W        W61359  21.582  25.031   4.374
94819W        W61360  14.143  13.383   0.801
94820W        W61361  40.809   6.768   0.407
94821W        W61362   5.668   1.498  13.118
94822W        W61363  35.793  38.838  12.768
94823W        W61364  17.756  33.091   0.268
94824W        W61365  39.398  35.897  11.044
94825W        W61366  19.808  42.536   2.929
94826W        W61367  42.062  41.433  12.060
94827W        W61368  15.068  19.180  13.199
94828W        W61369  39.551  17.656  13.816
94829W        W61370  40.132   2.847  11.090
94830W        W61371   2.874   4.934  11.139
94831W        W61372  28.259  11.700  14.491
94832W        W61373  29.613  31.732   2.403
94833W        W61374  21.403   5.361   2.732
94834W        W61375  16.233  19.032   2.811
94835W        W61376   3.002  17.978  13.441
94836W        W61377  44.013  36.533   1.008
94837W        W61378  41.331  10.947   2.623
94838W        W61379  21.183  34.394   2.354
94839W        W61380  42.482  15.950  10.733
94840W        W61381  43.494  39.345   3.388
94841W        W61382  10.016  23.125   3.375
94842W        W61383  16.258  35.068  12.605
94843W        W61384  37.393  25.527   0.306
94844W        W61385  36.269  30.400  13.960
94845W        W61386  43.376   2.021   0.277
94846W        W61387  35.572  35.246  14.550
94847W        W61388  14.270  36.349  10.969
94848W        W61389  29.605  32.029  11.230
94849W        W61390  22.628   2.136   2.804
94850W        W61391  29.906   4.361   4.287
94851W        W61392  39.301  30.955  14.467
94852W        W61393   0.450  39.743   2.225
94853W        W61394  23.433  22.516   0.485
94854W        W61395   5.973  40.293  13.496
94855W        W61396   8.125  12.076  13.650
94856W        W61397  31.453  15.555  11.890
94857W        W61398  19.569  30.932   0.330
94858W        W61399  32.954  41.379  10.718
94859W        W61400  36.568  23.176   2.227
94860W        W61401  35.994  33.538  12.600
94861W        W61402  38.843  17.929  10.839
94862W        W61403  14.657   4.218  10.704
94863W        W61404   8.604  31.151  13.125
94864W        W61405  29.629  16.205   0.386
94865W        W61406  26.037   9.295   0.850
94866W        W61407  38.793   6.625  11.630
94867W        W61408  34.179  36.378  11.205
94868W        W61409  18.294  23.816  11.179
94869W        W61410  43.973  15.816   9.951
94870W        W61411   7.811  36.997  11.891
94871W        W61412  39.142   1.712   2.733
94872W        W61413  41.831   9.807  11.684
94873W        W61414  43.798   2.957   0.171
94874W        W61415  20.703  27.483   1.868
94875W        W61416  18.594  24.582   3.635
94876W        W61417  16.111  17.784  13.496
94877W        W61418  38.304  21.735   3.565
94878W        W61419  20.549  16.866  13.783
94879W        W61420  14.766   3.665  13.233
94880W        W61421  27.379  31.982  10.834
94881W        W61422  19.663  10.609   0.033
94882W        W61423  19.415  20.978  11.544
94883W        W61424   9.685  21.551  12.652
94884W        W61425  39.519  35.365   1.358
94885W        W61426  12.396   6.465   3.352
94886W        W61427   9.415  15.855  12.139
94887W        W61428  29.223  26.189   5.216
94888W        W61429  34.677  27.727   4.580
94889W        W61430  43.973  13.787  11.350
94890W        W61431  14.640   8.233  14.580
94891W        W61432   2.685  29.086  14.052
94892W        W61433  43.485  13.837   1.140
94893W        W61434   1.386   7.897   1.267
94894W        W61435  30.173  31.606  11.817
94895W        W61436  20.799   6.205   3.235
94896W        W61437  23.923  16.752   3.010
94897W        W61438   5.796  25.553  14.956
94898W        W61439  19.072  30.426  12.406
94899W        W61440  38.028  42.067   4.580
94900W        W61441  40.522  43.510   2.208
94901W        W61442  34.229   1.885   2.391
94902W        W61443  36.299  21.092   1.450
94903W        W61444  41.805  32.822  13.394
94904W        W61445  27.482  10.843  11.228
94905W        W61446  15.405  24.897   4.815
94906W        W61447  44.488  29.129   0.298
94907W        W61448  24.006  31.166  11.183
94908W        W61449  40.114  22.253   2.664
94909W        W61450  37.784  15.609  14.597
94910W        W61451  27.861   4.340  10.463
94911W        W61452  14.677  25.205  11.352
94912W        W61453  15.425  27.926  11.160
94913W        W61454   6.623  30.010   2.348
94914W        W61455   4.374  27.384   0.516
94915W        W61456  16.601   7.775   1.820
94916W        W61457  32.202  32.822  14.509
94917W        W61458  17.899   8.892  12.566
94918W        W61459  16.195  31.818  10.270
94919W        W61460  43.831   7.493   4.447
94920W        W61461  19.450  42.060  11.993
94921W        W61462  28.975  41.343  13.996
94922W        W61463  12.240  35.382   1.757
94923W        W61464  14.267  12.150  13.301
94924W        W61465   2.929  42.267  12.400
94925W        W61466  42.891   2.952  13.111
94926W        W61467   9.455  12.190  14.374
94927W        W61468  42.693   1.297  10.788
94928W        W61469   5.813  16.983   2.434
94929W        W61470  33.887   7.201   2.726
94930W        W61471  38.574   7.870  12.532
94931W        W61472  12.641  30.562  11.568
94932W        W61473   6.963  42.466   1.443
94933W        W61474  21.719  32.491  12.497
94934W        W61475  44.528   4.180  11.616
94935W        W61476   2.471  20.511   0.387
94936W        W61477   9.247  31.558   0.320
94937W        W61478   6.306  31.603   4.833
94938W        W61479  14.609  22.341   1.739
94939W        W61480  40.178  25.490   0.116
94940W        W61481  17.246  11.512  13.536
94941W        W61482  13.392   9.858  13.591
94942W        W61483  34.941  42.667   4.144
94943W        W61484  36.479   3.350  12.932
94944W        W61485  21.150  38.001   3.383
94945W        W61486   5.870   4.322   4.374
94946W        W61487  26.965  29.924  13.961
94947W        W61488   2.870   7.163   3.356
94948W        W61489  28.240  27.291   3.068
94949W        W61490  27.099   3.325   0.769
94950W        W61491  30.368   6.411   1.791
94951W        W61492  18.267  36.288   1.780
94952W        W61493   0.416   3.469  12.056
94953W        W61494  39.079  32.019   0.240
94954W        W61495   1.197  11.113  14.436
94955W        W61496  19.205  31.047  14.982
94956W        W61497  42.308   6.297  13.006
94957W        W61498   8.713  12.155  11.667
94958W        W61499  15.187  12.726  13.754
94959W        W61500  43.321  22.581   2.857
94960W        W61501  11.824   8.990   0.807
94961W        W61502  25.584  36.422  12.988
94962W        W61503  16.366  29.220  14.559
94963W        W61504   1.292  29.673   1.322
94964W        W61505  44.837  12.985   0.351
94965W        W61506   3.882  36.097  12.986
94966W        W61507  10.843  39.389  11.126
94967W        W61508  10.398  42.262  13.224
94968W        W61509  43.750  23.067  13.483
94969W        W61510  21.255  26.410   2.144
94970W        W61511   5.696  26.337   0.334
94971W        W61512  23.032   8.744  10.993
94972W        W61513   9.204  23.305   3.622
94973W        W61514  18.169  15.630  13.467
94974W        W61515  41.564  34.373  14.442
94975W        W61516   7.813  37.736   3.601
94976W        W61517  23.675  39.829   1.313
94977W        W61518  15.813  41.816  10.704
94978W        W61519  30.921  29.423   1.703
94979W        W61520  39.915  39.619   1.164
94980W        W61521  13.239  44.060   0.694
94981W        W61522  32.804  42.034   4.255
94982W        W61523  34.400  27.927  14.925
94983W        W61524  14.123  39.342   2.949
94984W        W61525  15.620   4.097  14.042
94985W        W61526  28.299   8.804  10.811
94986W        W61527  11.558  10.687  12.279
94987W        W61528  42.928   4.423  13.049
94988W        W61529  18.376  10.280  10.296
94989W        W61530  28.634  22.246   1.906
94990W        W61531  24.676   9.887   0.332
94991W        W61532  13.420  16.526  11.153
94992W        W61533  38.231  15.660  14.896
94993W        W61534  26.125  36.642   0.446
94994W        W61535  36.435  30.845   3.057
94995W        W61536   8.616  10.668   3.802
94996W        W61537  43.847  41.234   1.752
94997W        W61538  18.848  38.398  13.403
94998W        W61539  15.580  41.770  11.558
94999W        W61540  27.012   9.667  12.300
95000W        W61541  16.676  16.385  14.930
95001W        W61542  43.801  39.667  14.104
95002W        W61543  10.329  42.005  11.533
95003W        W61544  23.971  16.103   3.681
95004W        W61545   8.424  40.845  12.549
95005W        W61546  24.178   8.331   0.755
95006W        W61547   7.951  28.154  12.061
95007W        W61548  28.934  42.545   0.334
95008W        W61549   7.386  18.743  14.025
95009W        W61550  42.913   7.227  13.265
95010W        W61551  30.718  40.332  13.442
95011W        W61552   8.371  42.493   0.208
95012W        W61553  42.004  39.354   4.054
95013W        W61554  29.860  17.107   1.271
95014W        W61555  37.578  24.835  14.676
95015W        W61556  38.285  24.645   1.290
95016W        W61557  13.802   8.019  12.911
95017W        W61558  26.209   2.496   2.725
95018W        W61559  13.132  29.839   1.739
95019W        W61560  41.568  17.650  11.404
95020W        W61561  37.453  35.548   1.860
95021W        W61562  14.225  25.208  12.647
95022W        W61563  28.676  25.583   1.921
95023W        W61564  31.484  37.007   2.254
95024W        W61565   2.676  25.714   3.889
95025W        W61566  10.647   1.272   1.054
95026W        W61567  21.675  42.777   0.236
95027W        W61568  38.572  23.307  14.996
95028W        W61569  31.924  22.980  12.823
95029W        W61570  23.045   7.982   2.447
95030W        W61571  19.185   2.778   1.424
95031W        W61572  18.672   1.833  13.891
95032W        W61573  44.443  27.199  12.010
95033W        W61574   8.678   6.670  12.012
95034W        W61575   5.317  43.249  12.034
95035W        W61576  29.683  34.151  13.392
95036W        W61577  24.373  32.115   0.429
95037W        W61578  44.830   3.360  11.106
95038W        W61579  22.621  25.174  13.032
95039W        W61580   9.347  24.985  12.663
95040W        W61581  16.813   3.488  12.807
95041W        W61582  28.726   2.744  13.174
95042W        W61583   1.215  40.222   2.272
95043W        W61584  28.541  24.580   4.350
95044W        W61585  44.728   5.943   2.817
95045W        W61586  39.843  41.972   2.240
95046W        W61587  35.689  40.330   4.875
95047W        W61588  19.206  35.161  12.851
95048W        W61589   7.577  32.935   4.343
95049W        W61590  40.310   4.780  11.116
95050W        W61591   8.681  30.131  14.560
95051W        W61592  18.538  43.529  11.243
95052W        W61593   7.759  15.636   0.101
95053W        W61594  42.245  31.340  11.205
95054W        W61595  37.848   8.758  11.562
95055W        W61596  14.851   0.873  13.850
95056W        W61597  38.428  11.630   2.472
95057W        W61598   8.228  10.745  10.705
95058W        W61599  15.988  34.848  10.217
95059W        W61600  39.786  43.801  13.499
95060W        W61601  38.742  26.670   1.717
95061W        W61602  14.253  14.751   4.041
95062W        W61603  13.650  29.240   4.398
95063W        W61604  31.140   6.430   1.330
95064W        W61605  42.925  34.987  14.972
95065W        W61606  22.379  34.137  14.816
95066W        W61607  10.856   4.333   1.693
95067W        W61608  32.051  12.373  14.499
95068W        W61609  33.206  30.145  11.981
95069W        W61610   4.493  41.955   1.921
95070W        W61611  36.892  10.180   2.687
95071W        W61612  35.026  35.329   4.170
95072W        W61613   7.331  40.764  14.065
95073W        W61614   9.066  18.825  12.052
95074W        W61615   1.758  44.892   4.286
95075W        W61616  28.967  35.385   3.976
95076W        W61617   0.499  39.025   3.509
95077W        W61618  41.834  11.143   1.155
95078W        W61619  24.978  44.711   1.490
95079W        W61620  10.640  13.589   0.962
95080W        W61621   6.680  15.991  13.339
95081W        W61622   7.925   7.894   1.519
95082W        W61623  37.090  36.098  14.320
95083W        W61624  19.586  35.542   0.006
95084W        W61625  13.598  40.613  13.766
95085W        W61626  12.165  28.489   1.108
95086W        W61627  20.709  27.510  11.417
95087W        W61628   6.856  34.509   1.554
95088W        W61629  31.307  16.188  13.541
95089W        W61630  41.720  16.937  14.453
95090W        W61631  31.470  24.270  11.748
95091W        W61632  16.611  23.164   0.876
95092W        W61633  29.866   0.815  12.947
95093W        W61634   7.812  13.708  10.989
95094W        W61635  31.033  23.466   1.643
95095W        W61636  14.392  34.424   2.761
95096W        W61637  33.416  32.524   2.375
95097W        W61638  40.477  14.357  14.022
95098W        W61639  10.494  16.212   2.247
95099W        W61640  26.659  10.133   2.225
95100W        W61641   6.464  27.548   1.849
95101W        W61642  38.979  14.399   2.825
95102W        W61643  19.775  22.159   1.176
95103W        W61644  21.312  25.729  13.464
95104W        W61645  26.581  12.298   1.146
95105W        W61646   0.008   8.262   0.235
95106W        W61647  17.217   8.776   3.696
95107W        W61648   9.397   6.109  14.465
95108W        W61649  17.277  18.998  13.911
95109W        W61650  23.619  19.350  14.399
95110W        W61651  43.950  30.444   0.494
95111W        W61652  41.298  42.854   2.716
95112W        W61653   1.758  30.075  14.245
95113W        W61654   6.542   5.129  11.835
95114W        W61655   5.493   2.337   3.690
95115W        W61656  33.701  17.831  11.663
95116W        W61657  17.295  34.492  14.818
95117W        W61658  42.581  40.779  13.357
95118W        W61659  34.584  18.787   0.670
95119W        W61660  26.069  25.042   0.418
95120W        W61661  40.515   3.200  14.856
95121W        W61662   1.893  36.585  13.507
95122W        W61663  37.015  44.445  14.100
95123W        W61664  18.768   8.333  12.477
95124W        W61665  31.941   0.191   1.937
95125W        W61666  16.677  40.305  13.511
95126W        W61667  12.525  10.524  12.507
95127W        W61668  34.065   7.662   2.898
95128W        W61669   0.041  37.358   1.308
95129W        W61670  29.692   0.314  11.542
95130W        W61671  22.803   3.285   2.207
95131W        W61672  43.860  17.163   2.293
95132W        W61673   6.683  35.822  11.092
95133W        W61674   0.953  15.656   4.474
95134W        W61675  42.578  10.193  13.872
95135W        W61676   5.608  39.247   4.871
95136W        W61677  37.297  30.143  10.815
95137W        W61678  29.927  23.442   4.141
95138W        W61679  31.680   1.846   2.746
95139W        W61680  23.107   2.877  11.438
95140W        W61681  22.715  12.634  12.979
95141W        W61682   0.939  17.514   0.729
95142W        W61683  22.018  24.734   3.672
95143W        W61684  35.042  32.736  12.505
95144W        W61685   3.486  37.560   3.517
95145W        W61686  36.876  19.831   3.847
95146W        W61687  36.534  42.445  13.896
95147W        W61688   9.121  11.363  12.971
95148W        W61689  24.215  37.555   0.270
95149W        W61690  20.067  32.983   4.134
95150W        W61691  42.309   3.359   4.204
95151W        W61692  31.025  14.295   3.913
95152W        W61693   1.853  43.445   4.776
95153W        W61694   6.248  35.105  13.610
95154W        W61695  19.726  36.147   1.476
95155W        W61696  28.855  27.713  11.993
95156W        W61697  12.670  19.749  13.794
95157W        W61698  15.075   7.396  10.788
95158W        W61699  36.537   6.439  12.443
95159W        W61700  17.727  22.662   0.325
95160W        W61701  37.392  16.211  11.202
95161W        W61702  33.048  28.137   4.417
95162W        W61703  22.943   1.231   3.895
95163W        W61704  39.924  42.723  10.522
95164W        W61705  23.646  24.118  10.735
95165W        W61706  25.240  14.704   1.861
95166W        W61707  11.263  36.965   4.235
95167W        W61708  35.923   0.165  12.392
95168W        W61709  38.160   0.894  12.982
95169W        W61710  28.670  33.425  12.461
95170W        W61711   8.784  32.706   4.108
95171W        W61712  26.352  39.456   0.763
95172W        W61713  34.753  31.914  10.833
95173W        W61714  32.579  39.436  13.616
95174W        W61715   7.457  21.863  12.852
95175W        W61716  36.944  20.448   0.961
95176W        W61717   9.702  28.599  13.340
95177W        W61718  34.692  15.798  11.118
95178W        W61719  32.352   1.246  13.599
95179W        W61720   2.674  38.910   4.170
95180W        W61721  23.075  11.896   4.534
95181W        W61722  41.057  44.408   3.614
95182W        W61723  21.082   1.098  13.291
95183W        W61724  19.176  16.846  12.865
95184W        W61725  20.759   3.426  13.604
95185W        W61726   3.245   6.479  10.242
95186W        W61727  15.805  32.582  12.080
95187W        W61728  43.883  24.821   2.405
95188W        W61729  41.491   1.482   2.355
95189W        W61730  32.709  32.882   1.752
95190W        W61731  28.003  43.841  14.794
95191W        W61732  12.831  37.212   1.926
95192W        W61733  31.203  32.050   0.281
95193W        W61734  14.932  11.478   1.769
95194W        W61735   7.955  34.439  12.171
95195W        W61736  17.539  31.523   0.268
95196W        W61737  31.850   0.774  12.982
95197W        W61738  25.908  27.516   4.241
95198W        W61739   1.897  21.025   1.457
95199W        W61740  16.976  13.524  10.150
95200W        W61741   7.263  36.014  14.430
95201W        W61742  12.787  17.293   4.148
95202W        W61743  32.498  36.745   2.699
95203W        W61744  29.937  27.607   4.505
95204W        W61745  13.591   4.723  10.281
95205W        W61746  41.015  38.069  12.053
95206W        W61747  33.309  31.545   2.895
95207W        W61748  38.273  30.536   4.703
95208W        W61749  18.568  10.047  12.911
95209W        W61750  44.545  36.508   1.011
95210W        W61751  25.091  23.339  12.997
95211W        W61752  20.526  44.979  10.738
95212W        W61753  18.594   6.445   0.888
95213W        W61754  17.112  13.173   0.320
95214W        W61755  12.177  14.353   0.337
95215W        W61756  36.862  43.777   2.831
95216W        W61757  23.624   4.279   2.265
95217W        W61758  30.782  15.817   9.920
95218W        W61759   0.376  34.668   1.277
95219W        W61760  38.034  36.469   5.126
95220W        W61761  35.062  11.580  12.488
95221W        W61762  26.157  21.137   0.790
95222W        W61763  28.121   2.353  14.035
95223W        W61764  33.355  25.895   4.532
95224W        W61765  24.603  12.611  14.474
95225W        W61766  14.373  19.261  12.114
95226W        W61767  25.035   9.948  14.658
95227W        W61768  35.491   8.284   1.959
95228W        W61769  15.087  24.580  11.598
95229W        W61770   2.010   9.240   0.340
95230W        W61771   8.595  34.647  12.962
95231W        W61772  14.577  29.352  14.583
95232W        W61773  28.476  26.929  13.990
95233W        W61774  25.241  39.877   2.532
95234W        W61775  20.745   4.534   1.446
95235W        W61776  19.667  41.850   4.641
95236W        W61777   1.247  20.552   0.029
95237W        W61778  44.721  41.807   1.715
95238W        W61779  37.878   2.544   1.876
95239W        W61780  40.653   7.868   2.780
95240W        W61781  21.480  36.887  12.336
95241W        W61782   0.160   7.624  14.316
95242W        W61783  15.783  44.773  10.715
95243W        W61784  23.313  39.870  12.990
95244W        W61785  37.654   4.939   2.342
95245W        W61786   5.358  20.677  14.614
95246W        W61787  39.448   0.807  11.352
95247W        W61788   7.346  36.315  12.111
95248W        W61789  11.436  35.495  11.903
95249W        W61790  21.126  29.987  14.825
95250W        W61791  39.553   0.946  12.777
95251W        W61792  17.818  12.566   2.551
95252W        W61793  28.011  17.825   3.112
95253W        W61794  21.579   6.703  14.339
95254W        W61795  14.703  41.020   0.386
95255W        W61796  43.823   3.467   0.028
95256W        W61797  26.192  23.685   2.195
95257W        W61798   6.047  19.102   0.282
95258W        W61799  20.315  10.413  10.757
95259W        W61800  17.447  42.270  14.340
95260W        W61801  11.133  28.522  13.392
95261W        W61802  14.655  15.899   0.384
95262W        W61803  28.338  44.474   2.968
95263W        W61804  44.986  19.205  14.798
95264W        W61805   6.760  32.570   1.030
95265W        W61806   6.739  24.623  13.794
95266W        W61807  23.139  32.649  14.840
95267W        W61808  38.605  13.030   2.716
95268W        W61809  22.761  37.426   0.285
95269W        W61810  39.321  42.635  12.530
95270W        W61811  30.846  16.390   2.837
95271W        W61812  29.111  24.663  14.166
95272W        W61813  32.973   2.456  14.991
95273W        W61814  31.241  25.767   5.000
95274W        W61815  19.232   5.936  12.064
95275W        W61816  14.247  20.356   3.893
95276W        W61817  13.264  44.325   2.414
95277W        W61818  16.380  43.737   5.028
95278W        W61819  44.965   9.213  12.148
95279W        W61820  17.839  29.690   3.820
95280W        W61821  24.849  38.922   3.949
95281W        W61822  33.493   5.351  11.548
95282W        W61823   5.189  12.470  14.408
95283W        W61824  37.380  42.572  11.118
95284W        W61825  23.137   1.942   4.165
95285W        W61826  17.826   5.947  12.504
95286W        W61827  13.727  11.174   3.306
95287W        W61828  32.948  10.653   0.949
95288W        W61829  12.768  31.478  12.629
95289W        W61830  15.993   5.868  14.095
95290W        W61831  35.730  17.697   2.318
95291W        W61832  35.618   7.420  13.611
95292W        W61833  36.297  32.962   1.324
95293W        W61834  44.290   7.854   3.807
95294W        W61835  36.798   1.644   1.393
95295W        W61836  43.870   6.069  12.643
95296W        W61837  42.850  32.841  10.115
95297W        W61838  10.885  10.353   4.146
95298W        W61839  40.339  23.355   1.333
95299W        W61840  22.000  31.403  11.178
95300W        W61841  24.144   1.185   2.931
95301W        W61842  43.702  19.780  12.165
95302W        W61843  34.058  21.755   0.855
95303W        W61844  17.702  21.193  14.905
95304W        W61845  40.285  33.657   1.878
95305W        W61846  29.452   5.687   3.166
95306W        W61847  39.286  31.358   2.577
95307W        W61848  41.851  31.574  12.931
95308W        W61849   7.704  21.652   1.431
95309W        W61850  44.964  33.055  11.149
95310W        W61851  16.271  33.097  10.678
95311W        W61852  37.556  30.359  12.876
95312W        W61853  17.739  20.039  10.735
95313W        W61854  12.736  41.446  14.290
95314W        W61855  28.686   6.248   0.004
95315W        W61856  29.899   5.849  10.499
95316W        W61857   5.356   7.466   3.876
95317W        W61858  24.483  40.419  11.820
95318W        W61859  12.200   2.345   4.097
95319W        W61860   8.197   4.397   0.505
95320W        W61861   2.680   9.427  12.155
95321W        W61862   2.888  43.606   9.415
95322W        W61863  29.881   2.251   3.745
95323W        W61864  43.989  10.700   3.448
95324W        W61865  10.901  27.043   0.806
95325W        W61866  35.432  41.438   1.638
95326W        W61867  17.771  10.551   1.889
95327W        W61868  31.027  27.392   2.785
95328W        W61869   6.658  44.354   2.753
95329W        W61870   1.442   1.840   0.375
95330W        W61871  18.199  43.191   4.280
95331W        W61872  43.579  37.365  12.235
95332W        W61873  32.608  41.246  12.888
95333W        W61874  11.388   0.370   1.750
95334W        W61875  34.460   1.437   4.568
95335W        W61876  24.101  37.482   1.216
95336W        W61877  31.207  22.139   1.904
95337W        W61878  12.834  43.027  14.331
95338W        W61879   3.999  44.482   1.746
95339W        W61880  14.972  33.996   1.782
95340W        W61881   7.789   2.858  12.228
95341W        W61882  40.111   3.359   4.528
95342W        W61883  19.167  36.345  11.537
95343W        W61884  12.225  23.220   3.639
95344W        W61885  16.832  16.146   1.822
95345W        W61886   0.494  17.737  13.591
95346W        W61887  37.768  18.572   2.772
95347W        W61888  10.287  37.266   1.184
95348W        W61889  30.101   5.434  14.080
95349W        W61890  21.645  21.565  14.891
95350W        W61891  32.903   0.033  12.833
95351W        W61892  15.620  33.902   3.683
95352W        W61893   3.153  35.410   5.011
95353W        W61894  30.172   5.707   3.933
95354W        W61895  10.469  23.508  14.847
95355W        W61896  43.016   6.175  12.346
95356W        W61897  21.589  30.652  12.738
95357W        W61898   4.746  27.421   1.402
95358W        W61899   7.873  39.791   1.766
95359W        W61900  14.794  40.861   2.756
95360W        W61901  17.609  30.011  14.991
95361W        W61902   4.322  38.828   1.687
95362W        W61903   4.128  40.382   1.237
95363W        W61904  31.053   6.548  14.958
95364W        W61905   8.103  38.585   1.336
95365W        W61906  22.232  29.748   2.731
95366W        W61907  24.194  14.160  13.528
95367W        W61908   3.043  38.829   1.087
95368W        W61909  42.761  11.272   0.278
95369W        W61910  40.988  21.746   0.460
95370W        W61911  41.632  15.618   2.783
95371W        W61912  26.039   0.515   3.183
95372W        W61913  12.831   5.992  14.835
95373W        W61914  29.937  37.499   0.780
95374W        W61915   2.024  34.288   9.791
95375W        W61916  36.019  11.270  13.532
95376W        W61917   9.250   3.086  11.138
95377W        W61918   0.962  32.614  13.124
95378W        W61919  38.392  33.702  12.380
95379W        W61920  38.571  43.869   2.211
95380W        W61921  10.435   8.904  12.048
95381W        W61922  31.557  40.213  14.824
95382W        W61923   9.762  11.750   4.149
95383W        W61924   2.581  42.929  10.536
95384W        W61925  32.386  27.276   1.815
95385W        W61926   1.005   2.449  14.046
95386W        W61927  32.721  29.258   1.254
95387W        W61928  19.907  30.351   1.695
95388W        W61929  31.615  27.627   0.251
95389W        W61930  17.262  33.449  13.916
95390W        W61931   2.604  38.927  12.110
95391W        W61932  11.879  38.043   2.304
95392W        W61933  32.477  38.152  11.649
95393W        W61934  13.842  31.363   1.295
95394W        W61935  42.517   3.267   1.863
95395W        W61936  10.215  12.571  14.528
95396W        W61937  29.897   3.177   1.036
95397W        W61938  24.480  13.603   3.922
95398W        W61939  16.879  31.085   2.318
95399W        W61940  13.222  35.879  12.197
95400W        W61941   5.370  23.738   0.858
95401W        W61942  14.923  43.490   0.718
95402W        W61943   6.460  26.303   2.866
95403W        W61944  23.943  10.235  11.675
95404W        W61945  18.031  34.415  13.401
95405W        W61946  35.509  10.696  11.193
95406W        W61947   7.690  23.999   1.874
95407W        W61948   7.934  18.539  11.420
95408W        W61949  43.437  28.893  12.518
95409W        W61950  44.833  33.100  12.029
95410W        W61951  39.792  22.341   4.108
95411W        W61952  11.911  10.692  11.044
95412W        W61953  44.556  16.127  12.954
95413W        W61954   7.724  43.287  10.748
95414W        W61955  12.228  43.471   3.228
95415W        W61956   5.752  18.677  13.481
95416W        W61957  38.801   3.416   1.782
95417W        W61958  11.858   6.215   3.253
95418W        W61959  12.333   9.662  13.872
95419W        W61960  39.570   3.632  10.727
95420W        W61961  41.459  15.276  11.377
95421W        W61962   9.831   6.302  14.246
95422W        W61963  27.881  25.028  13.920
95423W        W61964   8.428   9.799   2.753
95424W        W61965   2.763  13.266  12.137
95425W        W61966  18.102   6.748   1.963
95426W        W61967   5.821  14.373  12.317
95427W        W61968  24.342  39.847  10.564
95428W        W61969   6.087  40.748  13.197
95429W        W61970  34.347  20.758   0.843
95430W        W61971  25.780  32.306  14.076
95431W        W61972   3.890  23.199   3.655
95432W        W61973  35.449  17.577   3.707
95433W        W61974   3.411  13.850  10.569
95434W        W61975   6.385  41.476   0.208
95435W        W61976   5.482  16.958  12.700
95436W        W61977   0.713  25.984  13.845
95437W        W61978  10.364  21.315  10.073
95438W        W61979   7.135  36.621  13.855
95439W        W61980  29.502   0.033  13.134
95440W        W61981  12.897  12.370   2.171
95441W        W61982  28.699   2.284  11.763
95442W        W61983  11.215  26.357  14.943
95443W        W61984   0.629  33.002  12.572
95444W        W61985  32.458   5.792   4.642
95445W        W61986  35.293  35.595   3.803
95446W        W61987  17.008  29.529  11.141
95447W        W61988  33.550  38.317   0.718
95448W        W61989  40.781  33.543  11.732
95449W        W61990  31.947  15.472  10.244
95450W        W61991  28.675  10.470   1.096
95451W        W61992  18.274  31.198  11.231
95452W        W61993  12.233   7.190  12.554
95453W        W61994   2.678  19.842  11.115
95454W        W61995  28.906  34.562  12.010
95455W        W61996  14.644  15.143  10.565
95456W        W61997  28.113  18.863   4.189
95457W        W61998  33.213   0.628   0.229
95458W        W61999  12.344  42.525  11.627
95459W        W62000  13.326  12.885  13.690
95460W        W62001  13.569  30.378  10.687
95461W        W62002  17.057  42.814   0.019
95462W        W62003  44.739  14.873   1.077
95463W        W62004   1.373  32.381   3.718
95464W        W62005  13.424  10.485  13.063
95465W        W62006  33.153  28.428   2.220
95466W        W62007  13.373   0.376   4.285
95467W        W62008  14.841  22.012  11.514
95468W        W62009  21.722  23.529  14.304
95469W        W62010  15.723  26.517  12.910
95470W        W62011  28.801  14.580   0.819
95471W        W62012  37.074  39.316  10.751
95472W        W62013   1.327  10.822   4.572
95473W        W62014  27.367   1.990  12.878
95474W        W62015  41.441   4.703  13.879
95475W        W62016  40.009  19.059   0.380
95476W        W62017  23.902  34.117  14.874
95477W        W62018   6.628  12.239   3.733
95478W        W62019  15.621  29.726   0.376
95479W        W62020   1.211  33.014   3.427
95480W        W62021  17.665  25.463  12.459
95481W        W62022  14.558  38.767  11.497
95482W        W62023  42.930  30.433   4.132
95483W        W62024  24.528  34.895  14.981
95484W        W62025   4.491  32.285  10.129
95485W        W62026  17.370  16.654  11.794
95486W        W62027  44.361  40.530   2.438
95487W        W62028  33.096  18.650  11.567
95488W        W62029  29.114  30.420  13.383
95489W        W62030   5.040  25.957   3.840
95490W        W62031   6.472   5.884  13.446
95491W        W62032  37.607   7.336   3.199
95492W        W62033  41.523   5.550   1.150
95493W        W62034  15.582  40.327   3.555
95494W        W62035  26.580  11.416   2.477
95495W        W62036  31.955  25.110   2.453
95496W        W62037  42.082  33.039  10.778
95497W        W62038  29.671  35.641   0.994
95498W        W62039  41.094  24.504   2.997
95499W        W62040  32.369  14.749   0.249
95500W        W62041  29.588  41.120  11.104
95501W        W62042   8.730  26.984   3.620
95502W        W62043  23.968   4.890   0.893
95503W        W62044  29.112  33.035   0.984
95504W        W62045   9.668   0.834  10.722
95505W        W62046  31.973  21.517   4.629
95506W        W62047  41.523  44.024  12.614
95507W        W62048  15.166  29.900   4.606
95508W        W62049  32.067  40.348  12.036
95509W        W62050  42.446  18.936  11.016
95510W        W62051  41.527  43.042   1.333
95511W        W62052  36.840  12.724   2.296
95512W        W62053  42.841  35.439  13.133
95513W        W62054  34.564  22.243  13.752
95514W        W62055  10.243   4.923   0.325
95515W        W62056  34.056   7.469   2.324
95516W        W62057  32.281  34.614   2.283
95517W        W62058  26.585  42.616   4.093
95518W        W62059  40.756  10.737  11.504
95519W        W62060  23.778   1.789  12.120
95520W        W62061  31.913  42.469   1.506
95521W        W62062  40.002   7.830   1.873
95522W        W62063  17.674  37.773   3.352
95523W        W62064   2.685  33.350   1.491
95524W        W62065  30.861  37.997  13.086
95525W        W62066  11.729  40.553   3.661
95526W        W62067  18.267  28.046  14.860
95527W        W62068   7.393  35.719  10.511
95528W        W62069  13.969  29.453   5.144
95529W        W62070  39.969   7.664  14.440
95530W        W62071  35.783  43.614  10.790
95531W        W62072  10.939  11.199   3.765
95532W        W62073  42.906   8.240   2.640
95533W        W62074  39.371  38.902  10.818
95534W        W62075  33.904  26.487   2.100
95535W        W62076  29.997   2.754  10.642
95536W        W62077   1.228  44.342   3.220
95537W        W62078  27.342  43.001  11.778
95538W        W62079  20.988  43.054  14.989
95539W        W62080  19.843  18.449   0.504
95540W        W62081  21.538  12.742   0.786
95541W        W62082  16.703  13.638  14.799
95542W        W62083   6.595  13.127   3.476
95543W        W62084  33.066  11.595   1.920
95544W        W62085  15.198   0.995   3.413
95545W        W62086  29.958   2.918   2.562
95546W        W62087  44.216  32.052   0.510
95547W        W62088  15.636   2.805   2.476
95548W        W62089  41.929   9.568   3.258
95549W        W62090  19.495  13.408   4.561
95550W        W62091  20.730  36.830   4.134
95551W        W62092   2.864  18.517   4.607
95552W        W62093  10.898  12.091   2.182
95553W        W62094  39.931  30.238  11.920
95554W        W62095  12.153  23.734  13.590
95555W        W62096  43.692   8.227  11.143
95556W        W62097   8.785  29.752  10.632
95557W        W62098  11.223   3.678   4.177
95558W        W62099  15.637  11.880  13.603
95559W        W62100  15.690   8.450   0.867
95560W        W62101  24.810  17.646   1.789
95561W        W62102   6.795  10.759   1.461
95562W        W62103  30.481  11.319  11.132
95563W        W62104  31.566  18.617  10.840
95564W        W62105  42.134  25.179   2.004
95565W        W62106  42.095   8.435  13.358
95566W        W62107  26.761  41.317  14.579
95567W        W62108  42.906  25.690   3.176
95568W        W62109   7.176   2.817   3.820
95569W        W62110  38.631  41.920   3.066
95570W        W62111   8.691  17.270  10.783
95571W        W62112  30.846  20.668   0.593
95572W        W62113  18.295   8.954  14.923
95573W        W62114  30.551  27.684   2.650
95574W        W62115  23.466  38.169   2.905
95575W        W62116  41.542  40.968  12.914
95576W        W62117  14.128  38.864   4.669
95577W        W62118  17.889  18.726   2.206
95578W        W62119   7.527  10.399  14.056
95579W        W62120  39.532   4.751  13.766
95580W        W62121  31.918  30.583  12.208
95581W        W62122  31.407  25.923  12.037
95582W        W62123   9.222   4.871  14.337
95583W        W62124  39.017  43.271  11.495
95584W        W62125  29.968   9.431  11.999
95585W        W62126  38.602  36.330   4.753
95586W        W62127   0.946  16.637   4.605
95587W        W62128  23.230  29.065   3.879
95588W        W62129  31.022   0.396   3.111
95589W        W62130  28.011  12.321  13.314
95590W        W62131  31.056  17.526   1.600
95591W        W62132  40.922  24.601   3.484
95592W        W62133  28.662   3.442  14.801
95593W        W62134  37.578  26.596   4.671
95594W        W62135  31.999   5.916   4.871
95595W        W62136   9.194  19.789  13.473
95596W        W62137  38.027  11.720   1.849
95597W        W62138  33.122  27.979   0.325
95598W        W62139  26.213   9.643   0.479
95599W        W62140  20.564  42.877   3.619
95600W        W62141  40.076  22.394   0.945
95601W        W62142  16.676   5.535   0.270
95602W        W62143  35.823  39.806   3.664
95603W        W62144  38.097  26.577   4.728
95604W        W62145  44.001  14.887  13.015
95605W        W62146  19.853   2.890   0.443
95606W        W62147   8.202  18.214   2.369
95607W        W62148   4.995  44.422  11.126
95608W        W62149   3.878   6.716  12.055
95609W        W62150  16.853  34.883   1.153
95610W        W62151  12.173  11.026   4.327
95611W        W62152  33.657  39.665  12.981
95612W        W62153  22.990  35.130   2.238
95613W        W62154  30.907  42.447   3.368
95614W        W62155  12.296  24.154   0.449
95615W        W62156  33.441  12.777  11.372
95616W        W62157  17.549  16.326   3.186
95617W        W62158   5.238   8.834   2.276
95618W        W62159  39.398  41.489   1.569
95619W        W62160   7.779   7.014  13.935
95620W        W62161  19.915   5.616   0.975
95621W        W62162   7.352  14.112   0.905
95622W        W62163  20.765   7.215   3.107
95623W        W62164  38.071  19.106   4.411
95624W        W62165   8.325  32.477  14.352
95625W        W62166  28.049   5.693  10.653
95626W        W62167  10.631  18.989  10.709
95627W        W62168  42.454  24.679  12.324
95628W        W62169  14.916   6.488   2.931
95629W        W62170  26.235  39.845   2.391
95630W        W62171  19.931   5.193  11.586
95631W        W62172  33.714  31.529  14.427
95632W        W62173  22.625  12.824   1.814
95633W        W62174  35.608  16.354   3.158
95634W        W62175  22.655  11.728   4.958
95635W        W62176  18.622  16.630   3.436
95636W        W62177  43.057  29.386   2.828
95637W        W62178  33.543  19.617   4.103
95638W        W62179  24.495  34.060   4.657
95639W        W62180  23.806   4.350   3.160
95640W        W62181   0.867   5.787   4.116
95641W        W62182  37.890  31.187  10.713
95642W        W62183  23.486  31.523   1.286
95643W        W62184   3.403  25.132   1.885
95644W        W62185  29.303  30.664   3.880
95645W        W62186   8.713  30.678  10.671
95646W        W62187  21.221  21.219   1.891
95647W        W62188  37.429  39.990  14.031
95648W        W62189  34.098  12.692   0.844
95649W        W62190  33.096  40.798  12.868
95650W        W62191  38.757  28.555  14.489
95651W        W62192  40.975  13.154   1.240
95652W        W62193  29.465  20.063   2.819
95653W        W62194  34.088   1.809  12.171
95654W        W62195  30.400  11.899  13.366
95655W        W62196  33.197  24.222   2.814
95656W        W62197  15.271  13.340  12.913
95657W        W62198  21.192  22.759   4.230
95658W        W62199   2.264  13.855  12.606
95659W        W62200  43.354  12.941   4.526
95660W        W62201  27.324  10.668   1.629
95661W        W62202   8.174  27.874  10.733
95662W        W62203  21.883   8.488  11.901
95663W        W62204  16.832   5.655   1.559
95664W        W62205  24.006   3.668   1.247
95665W        W62206  15.037  26.090  14.433
95666W        W62207  22.123  13.840   0.078
95667W        W62208   1.290  13.728   3.342
95668W        W62209  21.110  35.967  12.080
95669W        W62210  42.242  18.299  11.589
95670W        W62211  40.636   6.413  11.389
95671W        W62212  24.775  12.793  13.220
95672W        W62213   0.975  38.787  14.256
95673W        W62214   8.765  21.587   0.430
95674W        W62215  31.128   3.536  11.768
95675W        W62216   3.747  10.843  11.500
95676W        W62217  27.043  25.314   0.004
95677W        W62218   6.738  23.128  14.548
95678W        W62219  28.024  37.080   4.847
95679W        W62220  37.567  23.096  13.063
95680W        W62221   4.928  25.467   3.737
95681W        W62222  31.308  29.231   1.271
95682W        W62223   3.473  20.184  14.925
95683W        W62224  36.564   0.314  12.043
95684W        W62225  22.326  28.215   0.491
95685W        W62226  31.848  44.494  11.248
95686W        W62227   0.800   0.267  14.931
95687W        W62228  43.278  35.182   1.935
95688W        W62229   6.685  40.832  14.764
95689W        W62230  33.809  33.662   1.435
95690W        W62231  43.044  30.104  14.583
95691W        W62232  18.297  26.167  14.973
95692W        W62233  25.023  16.563   0.951
95693W        W62234   5.618  19.352   4.501
95694W        W62235  11.897  17.431  10.753
95695W        W62236  24.082  38.296   0.761
95696W        W62237  33.977   9.606   4.125
95697W        W62238   4.537   3.566   4.880
95698W        W62239   9.917  38.116   4.907
95699W        W62240  43.626  28.360  11.040
95700W        W62241  37.115   8.252   4.525
95701W        W62242  34.749  41.316   2.339
95702W        W62243  33.780  13.824  10.641
95703W        W62244  34.911  17.119  10.999
95704W        W62245  36.809   1.262  12.946
95705W        W62246  40.291  28.650  11.922
95706W        W62247  36.396  27.208  11.041
95707W        W62248   4.090  18.712   4.118
95708W        W62249  35.569   3.700   0.456
95709W        W62250  20.284   3.928  11.909
95710W        W62251  36.125  36.669  11.924
95711W        W62252  16.320  14.697  11.615
95712W        W62253  36.886  33.353  14.545
95713W        W62254  25.442  14.685   2.330
95714W        W62255  27.208   2.442   1.871
95715W        W62256  11.857   1.690  14.438
95716W        W62257  22.609  12.887  12.533
95717W        W62258  10.452  15.705   2.353
95718W        W62259  34.425  18.322   2.692
95719W        W62260  38.577  22.825  14.052
95720W        W62261   5.206   6.910  11.094
95721W        W62262  11.732   0.752  11.464
95722W        W62263  23.544  31.030  11.396
95723W        W62264  31.581  22.220   1.204
95724W        W62265  36.927  44.042  13.460
95725W        W62266  19.921  23.605  14.434
95726W        W62267  31.471  33.451   0.858
95727W        W62268  10.301  12.985   3.848
95728W        W62269  11.330  33.246   4.529
95729W        W62270  15.048  22.090  14.061
95730W        W62271  27.202  14.164  12.451
95731W        W62272  35.368  28.944   3.083
95732W        W62273  29.722  28.854   3.825
95733W        W62274  10.373  13.079  10.618
95734W        W62275  11.861  23.635  11.841
95735W        W62276  15.879  41.312   0.779
95736W        W62277   1.084  41.686   2.832
95737W        W62278  37.605  35.061   2.786
95738W        W62279  26.752  27.211   0.327
95739W        W62280  20.521  41.555   0.253
95740W        W62281   5.111  25.886   3.315
95741W        W62282  39.909  10.865  10.645
95742W        W62283  19.064   3.908   3.719
95743W        W62284   5.768   7.326   2.791
95744W        W62285  31.074   5.679   1.875
95745W        W62286  41.084  39.082   1.883
95746W        W62287   6.609   1.430   3.122
95747W        W62288  19.564  23.135   2.645
95748W        W62289   3.612  16.831   1.694
95749W        W62290   4.875  17.748  13.123
95750W        W62291  44.757  28.039   4.808
95751W        W62292  23.585  18.268  11.448
95752W        W62293  36.469  43.486   1.714
95753W        W62294  21.085   8.396  12.612
95754W        W62295  26.091  37.153  12.632
95755W        W62296  23.139  27.342  12.152
95756W        W62297  18.821   2.751  13.231
95757W        W62298  39.741  27.531   1.353
95758W        W62299  14.658   4.265   4.710
95759W        W62300   3.549   5.411  12.397
95760W        W62301  29.125  30.086  14.057
95761W        W62302   4.883   3.984  11.588
95762W        W62303  36.559  27.881   3.198
95763W        W62304  33.806  34.318  14.642
95764W        W62305  15.364  44.806   1.597
95765W        W62306  24.967   3.180  14.293
95766W        W62307  40.566  26.187  11.429
95767W        W62308  13.585  21.977  10.649
95768W        W62309  23.739  17.557  11.655
95769W        W62310  16.828  23.003   2.647
95770W        W62311  41.446  10.622  14.672
95771W        W62312  25.129  38.776  13.025
95772W        W62313  26.582  35.116  14.759
95773W        W62314  29.340  18.266  12.956
95774W        W62315  13.336   0.901   4.984
95775W        W62316  32.013  39.851   4.126
95776W        W62317   9.558  11.028  12.987
95777W        W62318  31.608  17.087  12.201
95778W        W62319  33.912   8.776   2.641
95779W        W62320  30.351  12.718  14.305
95780W        W62321  28.229  22.957   0.333
95781W        W62322   6.916  26.443  13.864
95782W        W62323  23.274   5.381   1.755
95783W        W62324  42.297  18.160   0.339
95784W        W62325  27.578  12.285   1.178
95785W        W62326  25.545   9.889  14.808
95786W        W62327  34.336  10.820   1.720
95787W        W62328  33.796   1.657  12.594
95788W        W62329  33.647  14.936   4.912
95789W        W62330  30.800   2.568   0.277
95790W        W62331  11.867  11.130   4.748
95791W        W62332  26.014  32.441   1.819
95792W        W62333  38.559  17.174  13.037
95793W        W62334   3.890  20.315  11.496
95794W        W62335  21.977  43.929   1.295
95795W        W62336   4.518  10.629   3.723
95796W        W62337   8.745   6.122  14.938
95797W        W62338  38.016  25.132   1.209
95798W        W62339   5.049  15.859  11.605
95799W        W62340   2.476  28.123   5.077
95800W        W62341  34.715  17.301   5.021
95801W        W62342  16.699  23.505   2.692
95802W        W62343  10.154  33.831   3.616
95803W        W62344  32.581  34.426   1.375
95804W        W62345  37.390  22.528  13.597
95805W        W62346  27.451  39.600  14.894
95806W        W62347  17.287   7.706   0.996
95807W        W62348  26.518  29.166  11.775
95808W        W62349  29.652  26.678   1.245
95809W        W62350  43.899  27.181   2.284
95810W        W62351   9.846  38.091   1.313
95811W        W62352   5.738   4.770  11.467
95812W        W62353  22.618  27.162  12.141
95813W        W62354  13.504   7.671   2.651
95814W        W62355  40.372  22.926  12.732
95815W        W62356  42.998  30.509  11.905
95816W        W62357  44.856   4.794  11.088
95817W        W62358  39.852   2.972  11.936
95818W        W62359   8.243  36.207   0.230
95819W        W62360  27.727  42.800  13.080
95820W        W62361  41.076   6.762  13.320
95821W        W62362  21.632  30.627  13.258
95822W        W62363  39.337  17.126   0.026
95823W        W62364  44.274  43.740  11.445
95824W        W62365  22.601  24.496   0.698
95825W        W62366   4.962  32.448   3.621
95826W        W62367  19.703  38.867   3.155
95827W        W62368  21.047   4.706   2.696
95828W        W62369  30.527  43.954  12.726
95829W        W62370  14.225  20.150   1.775
95830W        W62371  36.083  14.655  13.727
95831W        W62372  25.034  42.669  12.978
95832W        W62373  36.063  10.367   2.254
95833W        W62374   9.243  19.083  10.761
95834W        W62375  24.594  25.618  11.684
95835W        W62376  37.036   2.164  11.603
95836W        W62377  18.342   2.192   1.461
95837W        W62378  13.056  41.028  14.404
95838W        W62379  26.638  44.048   4.983
95839W        W62380  29.912  29.482  12.552
95840W        W62381  12.665  32.979   4.168
95841W        W62382  44.631   7.670  12.082
95842W        W62383  24.895  13.628  10.993
95843W        W62384  43.742   0.056  14.837
95844W        W62385  13.848  34.689  14.387
95845W        W62386  31.714  36.482  11.189
95846W        W62387  17.497  14.943   1.926
95847W        W62388  26.271  43.256  13.388
95848W        W62389  35.131   1.784   0.772
95849W        W62390   2.992  25.006   2.737
95850W        W62391  39.117   5.075  14.490
95851W        W62392  17.181  20.281  11.212
95852W        W62393   7.238   1.984   1.662
95853W        W62394  33.356  15.605   0.936
95854W        W62395  34.532   8.882  13.815
95855W        W62396  42.492  37.479   1.612
95856W        W62397  36.926  12.204   2.323
95857W        W62398  28.547  36.989  13.756
95858W        W62399  13.739   3.761  14.804
95859W        W62400   0.888   4.080  10.684
95860W        W62401  15.715  35.574   3.224
95861W        W62402  29.791  40.063  13.512
95862W        W62403   9.392  26.133  14.803
95863W        W62404  36.600  39.365   4.324
95864W        W62405  38.021  32.677  14.699
95865W        W62406  25.941  22.465  11.296
95866W        W62407  27.974  41.160  12.445
95867W        W62408  21.732  41.217   1.331
95868W        W62409  18.618  25.579   3.546
95869W        W62410   0.127  33.764   4.463
95870W        W62411   7.180  39.870   3.212
95871W        W62412   8.715  31.090  11.000
95872W        W62413  30.225   9.656  11.621
95873W        W62414  18.056  41.033   2.709
95874W        W62415  34.313  27.275   3.496
95875W        W62416  30.559  38.955  13.405
95876W        W62417  10.868  16.558  10.545
95877W        W62418  31.424  29.415   0.042
95878W        W62419   6.242  27.769   2.753
95879W        W62420   9.285  32.595   1.257
95880W        W62421  19.800  14.111  12.919
95881W        W62422  28.091   1.694  14.504
95882W        W62423  13.829   0.855   3.133
95883W        W62424  30.369  37.505   3.209
95884W        W62425  12.260  40.734  11.351
95885W        W62426  16.300   0.404   4.704
95886W        W62427  34.491  15.660   2.383
95887W        W62428  17.535  36.125  13.339
95888W        W62429  20.332   8.354  14.910
95889W        W62430   9.101  42.323  11.982
95890W        W62431  44.985   1.502   2.333
95891W        W62432  41.542  37.021   1.230
95892W        W62433  44.503  17.840  12.511
95893W        W62434   5.819  23.676   1.179
95894W        W62435   8.107   8.718   0.015
95895W        W62436  11.310  17.023   3.097
95896W        W62437   6.548  36.555   0.010
95897W        W62438  23.288   4.387   3.232
95898W        W62439  28.176  13.243  14.480
95899W        W62440   5.700   3.483   2.493
95900W        W62441  32.449  35.531   0.495
95901W        W62442  10.147   7.782   1.922
95902W        W62443   9.156  21.065   2.878
95903W        W62444  32.581  35.786  11.875
95904W        W62445  11.222   5.608  11.277
95905W        W62446  44.039   5.910  12.186
95906W        W62447   5.892  13.613   2.935
95907W        W62448  39.028  11.354   3.695
95908W        W62449  44.884  43.105  12.407
95909W        W62450  15.820   1.857  14.074
95910W        W62451  19.806  40.748   1.371
95911W        W62452  18.966   6.400   5.088
95912W        W62453  13.593  32.607   3.667
95913W        W62454  44.597  11.436  12.501
95914W        W62455  34.594  38.567   3.611
95915W        W62456   1.236  31.860   0.825
95916W        W62457   2.358  13.617   4.573
95917W        W62458  37.850  23.059  11.010
95918W        W62459  42.848  30.054   1.727
95919W        W62460   7.254  44.916   4.125
95920W        W62461   5.344  33.953  14.521
95921W        W62462  27.967  19.334   4.025
95922W        W62463   4.356   2.120   1.279
95923W        W62464   3.491  28.813   2.483
95924W        W62465  44.670   4.211  10.056
95925W        W62466  31.145  13.195   3.254
95926W        W62467  13.210   6.253   1.763
95927W        W62468  23.681  25.226  14.002
95928W        W62469  34.942  17.387   3.610
95929W        W62470  29.892  28.067  14.630
95930W        W62471   0.494   1.552   2.241
95931W        W62472  40.777  36.433   1.835
95932W        W62473  15.769  40.377  11.439
95933W        W62474  26.699  12.428   4.424
95934W        W62475   0.822  22.056   2.431
95935W        W62476  29.420  40.278  11.239
95936W        W62477  38.385   8.161   0.687
95937W        W62478  36.132  36.344   4.281
95938W        W62479  43.824  42.164  14.941
95939W        W62480  26.908  40.971  13.347
95940W        W62481  12.692  42.737   1.777
95941W        W62482  15.755   7.363   1.823
95942W        W62483   7.618  26.904  12.457
95943W        W62484  39.032   5.421  14.916
95944W        W62485  14.709   5.479   1.848
95945W        W62486  15.537   2.987  12.699
95946W        W62487  11.244  25.995   4.571
95947W        W62488  37.796  32.270   0.859
95948W        W62489  37.364  41.622   2.165
95949W        W62490   3.873  12.626  12.419
95950W        W62491  32.660  12.152   1.133
95951W        W62492  26.821  18.528   0.653
95952W        W62493  33.582   3.796   0.985
95953W        W62494  35.431   6.863  12.133
95954W        W62495  19.715  35.455   2.616
95955W        W62496  42.370  19.991  13.523
95956W        W62497  38.606  28.010   0.066
95957W        W62498  42.885   3.684   3.681
95958W        W62499   2.825  35.334   0.770
95959W        W62500  30.197  18.188   1.761
95960W        W62501  31.129  12.287   1.384
95961W        W62502  43.846  36.845  14.386
95962W        W62503  44.499  25.496  13.992
95963W        W62504  11.351  18.594  11.072
95964W        W62505  29.296  25.407  12.632
95965W        W62506  36.726   3.136  10.099
95966W        W62507  40.270  24.452   1.303
95967W        W62508  43.008  23.534   3.769
95968W        W62509   1.479  26.211  13.038
95969W        W62510  40.934  16.560   3.204
95970W        W62511  31.309  32.551   1.655
95971W        W62512  42.498  33.851  13.856
95972W        W62513   3.197  23.433  12.139
95973W        W62514  17.461  23.687  12.938
95974W        W62515  15.697  40.360  12.586
95975W        W62516  35.112  22.119   4.034
95976W        W62517  42.186  41.977   4.731
95977W        W62518  37.534  14.103   4.094
95978W        W62519  28.150   3.822   4.473
95979W        W62520   0.942  36.036   2.803
95980W        W62521  13.140  11.234   0.042
95981W        W62522  13.716  20.042   0.378
95982W        W62523  15.126  33.579  13.363
95983W        W62524  28.875   5.802  12.525
95984W        W62525  24.544   5.778   2.729
95985W        W62526  15.119   7.882   2.768
95986W        W62527  32.605   4.563  14.796
95987W        W62528  26.707   2.474  13.878
95988W        W62529  31.146   3.800   5.068
95989W        W62530  17.204  14.382   2.325
95990W        W62531  19.038  42.034   4.179
95991W        W62532   1.317  23.697   0.247
95992W        W62533  22.085  35.608  11.685
95993W        W62534  40.337   6.978   1.241
95994W        W62535   8.259  17.800  14.437
95995W        W62536  28.574  22.621   3.126
95996W        W62537  27.273  11.633   1.308
95997W        W62538  34.982  41.527  12.134
95998W        W62539  19.603  21.504  12.528
95999W        W62540  15.018  11.988   4.263
96000W        W62541  22.128  25.971  14.439
96001W        W62542  23.322   5.175  14.664
96002W        W62543  29.637   6.370   4.242
96003W        W62544  14.511  21.536  11.992
96004W        W62545  41.479   0.745  14.139
96005W        W62546  18.394  27.166   4.210
96006W        W62547  39.711  34.053   0.851
96007W        W62548  36.444   4.722  11.882
96008W        W62549   4.433  27.065   0.966
96009W        W62550  21.868  35.125  12.437
96010W        W62551  13.347  12.509   3.606
96011W        W62552  14.933  38.576   3.617
96012W        W62553  36.105  43.767  13.412
96013W        W62554  33.136   8.690   3.234
96014W        W62555  33.758  31.742  11.106
96015W        W62556  43.873  38.116   2.192
96016W        W62557  39.434  30.164   3.680
96017W        W62558  31.769   2.285   4.605
96018W        W62559  14.770   4.959   1.930
96019W        W62560  22.783  32.107   3.727
96020W        W62561  17.754  24.186   0.011
96021W        W62562  44.676  12.262   3.929
96022W        W62563  21.256  11.599   5.067
96023W        W62564  43.374  43.339  11.890
96024W        W62565  38.370  30.985   4.391
96025W        W62566  40.515  26.949  12.534
96026W        W62567  36.008  35.863  11.195
96027W        W62568   8.737   2.006  12.495
96028W        W62569  36.858  11.507  11.722
96029W        W62570  22.082  26.368  14.830
96030W        W62571  19.078  29.654   2.218
96031W        W62572  42.764  26.840  14.002
96032W        W62573   4.653  10.135   3.605
96033W        W62574  22.103  20.763  13.848
96034W        W62575  34.162  36.908   0.741
96035W        W62576   7.803  12.348   2.482
96036W        W62577  19.786  12.741   3.787
96037W        W62578  21.063  36.496  12.802
96038W        W62579  40.605  14.298   3.193
96039W        W62580  18.545  42.383  14.296
96040W        W62581  42.464  13.754   0.717
96041W        W62582  14.799   7.081  13.044
96042W        W62583  22.463  36.592   1.889
96043W        W62584  42.534  43.441   2.474
96044W        W62585   3.290  44.378   5.121
96045W        W62586  11.191  31.616  14.460
96046W        W62587   4.922  36.652   4.059
96047W        W62588  20.530  16.349   0.927
96048W        W62589   4.749  35.517   3.322
96049W        W62590  29.881  37.439  11.874
96050W        W62591  30.292  12.400   0.916
96051W        W62592  23.863  42.917  12.613
96052W        W62593  23.527  28.423  13.942
96053W        W62594  24.489  32.995   0.852
96054W        W62595  20.577  23.194   3.759
96055W        W62596  34.727  22.933  10.583
96056W        W62597  15.493  30.571   0.043
96057W        W62598   1.191  35.524  13.248
96058W        W62599  10.271  25.040  14.494
96059W        W62600   1.393  37.846   2.949
96060W        W62601  42.852  21.286   2.292
96061W        W62602  11.245  25.448  11.176
96062W        W62603  35.439  20.154   1.908
96063W        W62604   2.800  40.829  12.151
96064W        W62605  11.490  27.586  12.491
96065W        W62606   4.250  28.491  14.546
96066W        W62607  39.381   6.244   1.786
96067W        W62608   2.924  41.934   0.639
96068W        W62609  30.055   2.797  14.368
96069W        W62610  40.126   5.773   4.183
96070W        W62611  14.165   6.129  13.375
96071W        W62612  10.421  41.365  12.850
96072W        W62613   0.932  12.254  14.577
96073W        W62614  14.754  13.800   2.792
96074W        W62615   4.424  22.496  11.253
96075W        W62616  26.546  32.149  12.832
96076W        W62617   7.301  38.288   2.193
96077W        W62618   9.551  34.488   3.308
96078W        W62619  42.319  10.172  11.090
96079W        W62620   2.414  34.697  13.485
96080W        W62621  37.022  20.526   0.432
96081W        W62622   9.850  27.646   0.318
96082W        W62623  32.407   0.264   2.818
96083W        W62624  26.035   5.713  13.937
96084W        W62625   0.244  44.797  12.806
96085W        W62626  29.365  19.214   1.391
96086W        W62627  26.409  32.621  13.442
96087W        W62628   4.312   2.179  12.448
96088W        W62629  41.509  20.478   4.486
96089W        W62630  16.669  17.943   3.152
96090W        W62631  26.726  14.585   3.700
96091W        W62632  31.206  35.162   3.532
96092W        W62633  11.735   7.142   4.112
96093W        W62634  26.230  15.493  13.398
96094W        W62635  34.930   1.799  14.386
96095W        W62636  23.011  11.166  11.504
96096W        W62637   6.891  40.479   2.203
96097W        W62638  16.040   8.523  12.831
96098W        W62639  41.373  13.404  13.914
96099W        W62640  29.421   3.670   3.847
96100W        W62641  18.576  43.770  11.753
96101W        W62642   9.655   4.197  14.305
96102W        W62643  21.431   0.709  12.903
96103W        W62644  12.342  11.833  12.761
96104W        W62645  11.200   6.871  14.815
96105W        W62646  44.713  11.733   3.108
96106W        W62647  29.820  12.687  11.625
96107W        W62648  33.327  26.500   0.782
96108W        W62649   0.210  19.234  13.643
96109W        W62650   6.230  24.591   1.358
96110W        W62651  32.334  21.917   0.376
96111W        W62652  12.218   2.056   4.700
96112W        W62653  31.145  16.548   4.062
96113W        W62654  25.702  44.130   3.989
96114W        W62655  11.169  36.569  11.483
96115W        W62656  42.882   1.485   3.687
96116W        W62657  37.043   0.606   4.813
96117W        W62658  14.274  30.233  11.662
96118W        W62659  31.565   5.390  13.510
96119W        W62660  18.080  13.081   2.371
96120W        W62661  11.378   3.883   0.381
96121W        W62662  35.623  13.303  12.530
96122W        W62663  28.197   3.257   4.076
96123W        W62664  22.536  36.991   0.464
96124W        W62665  27.174  10.873   4.029
96125W        W62666   0.101   1.993  13.768
96126W        W62667   7.534  16.217  14.428
96127W        W62668  29.005  13.837   2.532
96128W        W62669  23.541  29.084   1.199
96129W        W62670  19.681  40.858  14.645
96130W        W62671  43.955   8.756   1.303
96131W        W62672   3.645  16.685   2.591
96132W        W62673  39.293   6.165   3.825
96133W        W62674  39.594   6.338   2.359
96134W        W62675  40.833  16.899   2.395
96135W        W62676  23.405  11.711  14.452
96136W        W62677   2.347   4.232  10.554
96137W        W62678  36.837  27.925   4.848
96138W        W62679  19.221  19.580  12.236
96139W        W62680  41.973   0.899  14.056
96140W        W62681  22.949  33.958  11.059
96141W        W62682   8.487  14.601  11.900
96142W        W62683  14.716   7.160  13.906
96143W        W62684  22.299  37.335  11.131
96144W        W62685  39.259  18.697   3.847
96145W        W62686  24.938  16.811   4.945
96146W        W62687   1.971  28.153  13.225
96147W        W62688  30.330  29.611  14.734
96148W        W62689  26.148  42.469  10.857
96149W        W62690  31.190  29.437  13.051
96150W        W62691  31.445  40.150   0.343
96151W        W62692  32.056  25.108  12.469
96152W        W62693  39.027  22.310  14.767
96153W        W62694  13.547  32.029   1.703
96154W        W62695   4.535  11.783   1.274
96155W        W62696   6.766   2.485   3.691
96156W        W62697   6.393   6.786  10.640
96157W        W62698  17.751   6.366   0.713
96158W        W62699  15.833  34.949  13.338
96159W        W62700  13.739  43.377   2.122
96160W        W62701  13.833  10.969  14.857
96161W        W62702   6.962  28.862  11.688
96162W        W62703  27.629  24.343   0.696
96163W        W62704  35.498  20.891   2.192
96164W        W62705  21.545   9.689  14.739
96165W        W62706  18.915  37.894  14.264
96166W        W62707  25.462  12.351  13.491
96167W        W62708  16.237  18.842  11.886
96168W        W62709  14.221  18.732   2.133
96169W        W62710  42.856  28.239   3.131
96170W        W62711  12.248  26.211  12.815
96171W        W62712  24.300   9.688  10.696
96172W        W62713  11.095  39.571   0.806
96173W        W62714  17.712  43.959   0.377
96174W        W62715  32.605  44.770   2.786
96175W        W62716  37.423  12.245  10.523
96176W        W62717  26.200  27.899   3.248
96177W        W62718   2.258  17.074  13.961
96178W        W62719   2.684  23.657  13.009
96179W        W62720  24.238  44.810  14.334
96180W        W62721  41.560  16.882   1.381
96181W        W62722  43.741  27.007  14.854
96182W        W62723  38.490  29.345   1.945
96183W        W62724  37.222   3.419   5.371
96184W        W62725  13.365  29.800  11.444
96185W        W62726  32.984  19.580   4.448
96186W        W62727  23.482  14.856  13.418
96187W        W62728   4.814  44.964   2.720
96188W        W62729  11.651  18.452   2.270
96189W        W62730   2.279   4.195   4.579
96190W        W62731  36.636  34.605   1.754
96191W        W62732   5.600  33.326   1.960
96192W        W62733  38.896  38.060  11.611
96193W        W62734  21.971  38.960  14.008
96194W        W62735   9.562  15.909  10.636
96195W        W62736  15.642  10.598  10.458
96196W        W62737  15.687  35.567  14.009
96197W        W62738  31.192  33.495  12.882
96198W        W62739   3.160  43.247  14.047
96199W        W62740   5.432  17.204   3.725
96200W        W62741  30.589   2.560  10.282
96201W        W62742  29.582   7.913   2.222
96202W        W62743  34.140  21.720   1.832
96203W        W62744   3.969  17.544  10.739
96204W        W62745  16.584  31.379   2.658
96205W        W62746  35.014  15.092   0.968
96206W        W62747  31.831  13.794   1.141
96207W        W62748  41.628  31.968  11.222
96208W        W62749  18.129   7.846   3.985
96209W        W62750  31.055   8.463   3.596
96210W        W62751  11.602  44.124   1.313
96211W        W62752  19.067   3.267   4.794
96212W        W62753  10.837  38.399  10.646
96213W        W62754  27.229   9.437   3.097
96214W        W62755   5.214   3.882  14.423
96215W        W62756  44.793  44.266  13.776
96216W        W62757  24.455  29.950  11.087
96217W        W62758  31.039   4.310   1.208
96218W        W62759  44.965  30.072  11.143
96219W        W62760  15.696   0.926   5.259
96220W        W62761  44.822   8.597   1.507
96221W        W62762  23.551   7.981  12.995
96222W        W62763   4.854  16.415   1.302
96223W        W62764  17.533  35.626  13.305
96224W        W62765  43.855  11.569  13.499
96225W        W62766  17.824   6.635   0.212
96226W        W62767  10.247   2.831  11.929
96227W        W62768   8.361  28.612  14.128
96228W        W62769  43.907  19.463   2.003
96229W        W62770   1.498   7.373   3.562
96230W        W62771  37.574  44.857  10.611
96231W        W62772  38.160  21.060   3.396
96232W        W62773   5.465  10.237   3.160
96233W        W62774  14.717  42.351   3.853
96234W        W62775   3.591   3.664  10.430
96235W        W62776   1.770  28.108  11.043
96236W        W62777  35.772   0.976  12.012
96237W        W62778  19.676  25.643   2.474
96238W        W62779  12.421  37.410  10.856
96239W        W62780  12.151  19.310  11.554
96240W        W62781   3.932  26.498  14.486
96241W        W62782  30.794  13.063  11.566
96242W        W62783  43.508  13.554   0.689
96243W        W62784  11.669  37.857  12.570
96244W        W62785  20.869  32.910  14.872
96245W        W62786  12.212  28.973   1.310
96246W        W62787  22.022  41.066   4.667
96247W        W62788  44.616  30.940  12.800
96248W        W62789  10.574  37.348  11.692
96249W        W62790   3.066  14.918   5.117
96250W        W62791  42.545  40.416   2.731
96251W        W62792   7.202  34.116   1.207
96252W        W62793  35.905  17.266  11.574
96253W        W62794  10.768  22.936  13.119
96254W        W62795  28.238  37.451   4.561
96255W        W62796  40.543  26.832   1.105
96256W        W62797   7.102  37.555   3.708
96257W        W62798  36.226  33.499   2.168
96258W        W62799  12.927   3.212  11.542
96259W        W62800   8.445   1.603  12.469
96260W        W62801  21.211  24.733   4.198
96261W        W62802  39.136   6.964  14.820
96262W        W62803  24.910  31.003  11.953
96263W        W62804  33.407  19.314  10.678
96264W        W62805  15.081  19.513   3.617
96265W        W62806   0.402  16.027   0.775
96266W        W62807  32.354  34.954   4.807
96267W        W62808  31.695  28.009   4.718
96268W        W62809  13.134  14.327  10.722
96269W        W62810  13.322  16.227   1.427
96270W        W62811  32.001  22.758   2.827
96271W        W62812  33.880   0.888   2.005
96272W        W62813  35.116   7.316  13.797
96273W        W62814  20.277  15.759  14.458
96274W        W62815  17.852  39.988   3.304
96275W        W62816  37.247   6.293  11.896
96276W        W62817  43.449  18.712   4.539
96277W        W62818   3.720  23.222   2.247
96278W        W62819  41.042  35.875   1.957
96279W        W62820  15.168  37.990   4.626
96280W        W62821  22.483  20.788   1.195
96281W        W62822   4.537   9.681   0.628
96282W        W62823  13.790  36.780  13.789
96283W        W62824  35.177  16.693   3.321
96284W        W62825   4.010  27.689   4.460
96285W        W62826  38.514  15.672  10.868
96286W        W62827  29.113  36.306   0.789
96287W        W62828  32.501  26.787  14.450
96288W        W62829  27.857   7.001   4.192
96289W        W62830   2.738  12.705  13.373
96290W        W62831   9.313   3.481   0.763
96291W        W62832  35.839  11.415  11.260
96292W        W62833  28.332  26.779  12.021
96293W        W62834  30.950  41.394  14.430
96294W        W62835  44.634  41.219   2.702
96295W        W62836  30.877   2.880   1.520
96296W        W62837   8.301  29.951  10.574
96297W        W62838  28.522   3.460   3.566
96298W        W62839  24.671  37.391   0.459
96299W        W62840  16.484  34.481   3.961
96300W        W62841  14.608   2.747  13.032
96301W        W62842  18.314  15.785  11.391
96302W        W62843  43.769   3.349  11.723
96303W        W62844  25.532  34.541  11.875
96304W        W62845  12.377   1.897  14.093
96305W        W62846  24.510  38.896   0.599
96306W        W62847   9.844  22.627   4.651
96307W        W62848  16.310  25.648  14.396
96308W        W62849  18.017  29.710   0.108
96309W        W62850  41.446  44.369  14.882
96310W        W62851  27.354  35.145  13.426
96311W        W62852  38.990  43.005  12.698
96312W        W62853  38.576   5.321   4.753
96313W        W62854   2.523  40.261  13.128
96314W        W62855   7.315  13.133   4.458
96315W        W62856   2.031  33.239   5.053
96316W        W62857  19.333  16.289  14.377
96317W        W62858  34.139  16.676  12.245
96318W        W62859  34.915  17.488   2.841
96319W        W62860  13.115  42.358   4.661
96320W        W62861  28.390   8.810  12.209
96321W        W62862  27.133  13.719   4.873
96322W        W62863  39.359   0.403  13.427
96323W        W62864  13.592  43.296  12.983
96324W        W62865  11.746   0.465  14.880
96325W        W62866  23.060  10.321   2.476
96326W        W62867  12.095  30.665   9.764
96327W        W62868  36.933  26.132   4.061
96328W        W62869   8.654  22.937  11.242
96329W        W62870  28.892  13.854  11.584
96330W        W62871  28.811  26.099  11.054
96331W        W62872  26.035  25.227   0.912
96332W        W62873  36.400   0.016   4.108
96333W        W62874  35.399   3.731  13.194
96334W        W62875  26.384  11.324   0.284
96335W        W62876  42.252  40.103  12.671
96336W        W62877  17.207  21.987  12.590
96337W        W62878  43.969  32.564  14.376
96338W        W62879  38.873  32.388  14.034
96339W        W62880  24.334  31.604  13.380
96340W        W62881  20.133  18.115  13.780
96341W        W62882  26.890  12.167   0.034
96342W        W62883  33.323  21.910  12.591
96343W        W62884  39.441  33.023  13.263
96344W        W62885  34.937  24.724   3.130
96345W        W62886  12.140  43.765  13.559
96346W        W62887   4.148   0.274   2.719
96347W        W62888  12.083  24.053   4.503
96348W        W62889  40.343  14.644   3.878
96349W        W62890   1.526  36.211  12.609
96350W        W62891  17.967  44.503  12.206
96351W        W62892  25.373  13.628  13.297
96352W        W62893  41.802  44.510  12.558
96353W        W62894  29.378  26.920  10.953
96354W        W62895  41.354  43.008   0.013
96355W        W62896   7.288  31.029   2.302
96356W        W62897   4.513  27.869   4.498
96357W        W62898  36.453   9.811   1.982
96358W        W62899  30.864  31.525   3.866
96359W        W62900  36.063  23.973  14.443
96360W        W62901  35.566  16.687  13.800
96361W        W62902  34.456   4.644  14.848
96362W        W62903   8.945   7.786   3.687
96363W        W62904  42.982  26.109   4.093
96364W        W62905  27.928  10.284   4.152
96365W        W62906  20.485  19.314  13.443
96366W        W62907  37.612  25.233  14.346
96367W        W62908  34.057  35.885  11.951
96368W        W62909  28.670  23.052   1.043
96369W        W62910   5.429  12.851   2.363
96370W        W62911   1.074  30.485   4.997
96371W        W62912   1.427   3.341  14.516
96372W        W62913  19.743  38.373  14.520
96373W        W62914  36.677   8.446   2.575
96374W        W62915  31.717   2.416   2.290
96375W        W62916  38.109  39.050   0.396
96376W        W62917   7.868   9.948   1.242
96377W        W62918  32.461  34.478  14.812
96378W        W62919   5.811  33.818   4.360
96379W        W62920  38.173  32.047  11.022
96380W        W62921  42.028   5.702   3.318
96381W        W62922  16.310  33.412   3.306
96382W        W62923  42.202  31.160  14.435
96383W        W62924  32.578  35.440   1.967
96384W        W62925  42.550   1.714  12.070
96385W        W62926  12.979   4.211   2.290
96386W        W62927  30.023  38.394  14.727
96387W        W62928  28.222  27.497  12.045
96388W        W62929  25.037  31.858   4.984
96389W        W62930  12.943  30.008  12.799
96390W        W62931  33.958  34.902   3.785
96391W        W62932  39.559  16.986   3.114
96392W        W62933  28.927  37.081  10.448
96393W        W62934  29.249   6.872   2.888
96394W        W62935   6.313  20.750   0.479
96395W        W62936  18.115  37.242  12.531
96396W        W62937  44.384  28.651   1.736
96397W        W62938  28.619  21.151   0.753
96398W        W62939  17.582  25.507  11.186
96399W        W62940  25.772   1.380  11.563
96400W        W62941  17.670   4.212   1.333
96401W        W62942   1.944  41.245  13.789
96402W        W62943  44.437  44.228  10.471
96403W        W62944  24.474  34.550   2.640
96404W        W62945  15.501  32.514   1.355
96405W        W62946  31.857  19.708   1.069
96406W        W62947   5.482  17.207   2.786
96407W        W62948   6.220  13.527  12.530
96408W        W62949  18.807   4.334   2.951
96409W        W62950  12.739  26.403  11.067
96410W        W62951  16.586  20.322   2.939
96411W        W62952   4.697  11.549  11.859
96412W        W62953  24.605   8.170   4.127
96413W        W62954  44.057   5.653  12.860
96414W        W62955   5.772   3.383  11.547
96415W        W62956   3.986  35.000  14.556
96416W        W62957  12.104   4.828   1.494
96417W        W62958   4.147   1.320  11.543
96418W        W62959  35.322  24.678   2.770
96419W        W62960  26.685   4.904  14.264
96420W        W62961   5.147  44.303  14.842
96421W        W62962  19.018  31.401   3.457
96422W        W62963  28.263  34.988   4.756
96423W        W62964  29.541  27.576  11.575
96424W        W62965  39.497  27.340  13.475
96425W        W62966  38.303  23.676  11.656
96426W        W62967  13.931  40.327  12.873
96427W        W62968   6.226  30.601  12.241
96428W        W62969  33.039  13.858   0.769
96429W        W62970  15.205  28.605  10.778
96430W        W62971  15.098  15.049   3.721
96431W        W62972  40.610  17.823   2.513
96432W        W62973  17.748  19.665  12.435
96433W        W62974  14.827  36.511   4.577
96434W        W62975  28.559  41.739   1.335
96435W        W62976   6.194  18.088   4.498
96436W        W62977  24.981  26.594  14.936
96437W        W62978  17.056   9.362   1.642
96438W        W62979  28.795  35.152   0.706
96439W        W62980  21.985  34.386   4.701
96440W        W62981  17.666  28.939   3.218
96441W        W62982  10.208  23.648  10.682
96442W        W62983  36.710  10.757  10.695
96443W        W62984   4.680  28.563  12.543
96444W        W62985  39.207  22.036  12.095
96445W        W62986  19.728  36.291  12.697
96446W        W62987  15.447  33.536   4.456
96447W        W62988  21.518  28.617   2.331
96448W        W62989   4.881  24.505   0.844
96449W        W62990  26.490  17.555  11.371
96450W        W62991  16.536  11.644   2.601
96451W        W62992  33.430  41.696  12.050
96452W        W62993  32.038  33.876   4.058
96453W        W62994  29.873  26.041  14.422
96454W        W62995  15.802   1.304   2.241
96455W        W62996  10.101  12.145  11.552
96456W        W62997  33.119  43.364  11.862
96457W        W62998  35.165   0.433   1.273
96458W        W62999  14.080   5.017  10.580
96459W        W63000  42.730  15.796   1.355
96460W        W63001  33.190  23.620   0.916
96461W        W63002  12.464  37.249  14.741
96462W        W63003  14.406  19.073   3.235
96463W        W63004  40.586  14.081   2.283
96464W        W63005  11.356  25.779  12.962
96465W        W63006  30.150   0.281  11.267
96466W        W63007  33.509   0.271   2.810
96467W        W63008   4.911  11.050  14.394
96468W        W63009  43.596  27.761   3.676
96469W        W63010  35.153   2.971   1.501
96470W        W63011  16.653  14.857  13.995
96471W        W63012   9.144  33.657   3.840
96472W        W63013  30.878  20.094  13.053
96473W        W63014   9.690   3.208   1.004
96474W        W63015  20.851  33.821  11.472
96475W        W63016  14.581   7.150   4.367
96476W        W63017  18.052  12.000   5.207
96477W        W63018  41.185  35.469   0.760
96478W        W63019  10.223  16.358  12.486
96479W        W63020  34.875  43.873  14.379
96480W        W63021  33.402  18.693   4.651
96481W        W63022   6.575  30.263   0.287
96482W        W63023   6.961  17.603   2.315
96483W        W63024  18.091  10.221  14.295
96484W        W63025  19.467  29.587  11.525
96485W        W63026   2.784  14.613  11.722
96486W        W63027  33.928  21.411   1.435
96487W        W63028  12.695  42.884   1.240
96488W        W63029   0.362  27.564  10.596
96489W        W63030  39.251  13.862  14.394
96490W        W63031  40.030  25.833   1.678
96491W        W63032  14.631  27.273   3.684
96492W        W63033  42.404  29.550   1.225
96493W        W63034   4.388  34.622   1.882
96494W        W63035  39.360   9.872   2.427
96495W        W63036   8.091  37.902  11.742
96496W        W63037  42.622  23.265  11.491
96497W        W63038   7.922   7.846   3.880
96498W        W63039  31.842  15.626   1.755
96499W        W63040  20.547   8.998   1.862
96500W        W63041  31.084  44.821   4.866
96501W        W63042  32.439   9.897   4.166
96502W        W63043  25.420   2.927   0.311
96503W        W63044   0.452  24.527  12.084
96504W        W63045  19.282  26.104   1.432
96505W        W63046  26.175  32.941   0.105
96506W        W63047   6.662  39.083   1.610
96507W        W63048  24.961  11.467   3.225
96508W        W63049  29.372  36.787   4.127
96509W        W63050  19.698  19.102   2.037
96510W        W63051  40.816  19.438   4.717
96511W        W63052  22.783   3.246  14.938
96512W        W63053  39.947  25.635   1.170
96513W        W63054  42.600  17.266   1.962
96514W        W63055   7.798  25.708   1.131
96515W        W63056  36.373  35.388   1.065
96516W        W63057  44.685  15.857   0.322
96517W        W63058  38.816  36.588   0.202
96518W        W63059  34.042  20.715  14.340
96519W        W63060  40.748  22.694   2.230
96520W        W63061   9.261  33.916   1.326
96521W        W63062  44.742  25.678   4.643
96522W        W63063  21.670  41.801   0.657
96523W        W63064   9.841  44.223  11.505
96524W        W63065  11.269  15.906  14.840
96525W        W63066  16.949  14.681  12.833
96526W        W63067  28.011  10.819  14.767
96527W        W63068   5.960   0.120  11.464
96528W        W63069  38.050  12.564   1.370
96529W        W63070  10.494   5.394  12.957
96530W        W63071  14.846  35.787   4.244
96531W        W63072  22.668  11.936   2.794
96532W        W63073  17.228   4.412   3.668
96533W        W63074  13.903  44.911   1.974
96534W        W63075  37.983  12.965   4.489
96535W        W63076  25.856  37.579   4.143
96536W        W63077   8.535  29.961  12.187
96537W        W63078  43.030  41.772  10.777
96538W        W63079  33.198  21.577  13.910
96539W        W63080   0.090  31.492   4.046
96540W        W63081  43.357  39.157  11.081
96541W        W63082  43.360  41.187  10.714
96542W        W63083  16.401  22.656   0.705
96543W        W63084   8.207  31.597   2.224
96544W        W63085   4.225   0.358   9.874
96545W        W63086  23.914  43.611  13.312
96546W        W63087  27.183  42.945  13.985
96547W        W63088  39.619  33.961   2.207
96548W        W63089   9.317  13.268   2.451
96549W        W63090  43.338  16.096  11.706
96550W        W63091  33.334  40.363   0.180
96551W        W63092  21.074  14.930  11.031
96552W        W63093  43.148  34.972  11.638
96553W        W63094  14.385  17.875   2.303
96554W        W63095  15.785  16.075  13.124
96555W        W63096  31.591  38.789   4.562
96556W        W63097  28.080  37.564  12.001
96557W        W63098  17.115  17.596  13.411
96558W        W63099  29.132   2.137  13.519
96559W        W63100  26.602  30.634  11.627
96560W        W63101   3.523   4.097  14.534
96561W        W63102  44.281   3.497  11.093
96562W        W63103   1.373  29.172   2.189
96563W        W63104  27.121  19.752   4.737
96564W        W63105  43.535  15.687  10.177
96565W        W63106   5.411  15.089   0.879
96566W        W63107  19.599   2.504   0.240
96567W        W63108  22.933  42.445   3.562
96568W        W63109  25.252   8.948  14.880
96569W        W63110  38.310  20.781   2.414
96570W        W63111  13.700  34.054   2.282
96571W        W63112  36.413  33.583   1.675
96572W        W63113   4.963  12.248  12.436
96573W        W63114  13.841  34.112  13.527
96574W        W63115  17.984  40.206   4.632
96575W        W63116  28.874  43.739   4.054
96576W        W63117  27.662  28.880   1.035
96577W        W63118  41.422  12.123  12.614
96578W        W63119  39.846  16.763  11.635
96579W        W63120  14.557  36.937   4.591
96580W        W63121  21.598  37.235  10.658
96581W        W63122   4.481   2.687  10.728
96582W        W63123  43.714  36.039   4.547
96583W        W63124   9.415  37.931   3.554
96584W        W63125  12.191  22.950  12.711
96585W        W63126  38.899  16.536  12.985
96586W        W63127  21.721  43.390  11.635
96587W        W63128  42.470  27.131   4.519
96588W        W63129  11.089  10.541  11.210
96589W        W63130  15.332  23.369   5.144
96590W        W63131   4.435  12.684   1.912
96591W        W63132  13.163  24.752   3.505
96592W        W63133  37.451  27.936  13.340
96593W        W63134   8.728  24.441   1.406
96594W        W63135  15.312  18.815  10.642
96595W        W63136  42.415  18.063  13.538
96596W        W63137  41.893   6.298   3.990
96597W        W63138  31.257  16.692   1.343
96598W        W63139  13.542   1.030  11.941
96599W        W63140  34.108  15.426   4.081
96600W        W63141  19.059  28.138  12.578
96601W        W63142  18.315  19.102   3.818
96602W        W63143   0.796  28.068   1.960
96603W        W63144  25.105  14.907  12.044
96604W        W63145  41.229  44.242   0.372
96605W        W63146   3.182  15.867  14.419
96606W        W63147  44.579  34.329  11.471
96607W        W63148  44.929  12.355   2.446
96608W        W63149  21.819  31.842  14.980
96609W        W63150  21.143  36.911   4.761
96610W        W63151  30.833  33.878  12.974
96611W        W63152   5.001   9.625   3.711
96612W        W63153  38.358   3.816   0.320
96613W        W63154  14.156  15.384   0.725
96614W        W63155  29.950  17.037   2.992
96615W        W63156   6.719  38.329   2.853
96616W        W63157  11.318  41.753   3.038
96617W        W63158  21.281  44.266  14.584
96618W        W63159   2.994  28.618   2.199
96619W        W63160   5.718  22.368  10.718
96620W        W63161  15.657  15.814  13.548
96621W        W63162  16.112  42.523  12.019
96622W        W63163  33.529  37.651  13.973
96623W        W63164   9.228  20.337  12.112
96624W        W63165   4.932   4.862  12.106
96625W        W63166  35.236  27.934  11.101
96626W        W63167   1.319   0.200   0.487
96627W        W63168  16.650   0.456  10.908
96628W        W63169  17.260  21.037   0.820
96629W        W63170  42.987  17.282  14.612
96630W        W63171  15.752  12.890   2.728
96631W        W63172  44.362  16.356   3.118
96632W        W63173   3.703  15.474  10.720
96633W        W63174  26.634  38.609   1.961
96634W        W63175  13.878   7.755   0.005
96635W        W63176  19.573  21.457  11.667
96636W        W63177  33.449  41.914  13.757
96637W        W63178  30.669   2.226   2.240
96638W        W63179  20.112  41.057  14.890
96639W        W63180  12.123   0.448   0.956
96640W        W63181  31.859  11.468  10.250
96641W        W63182  34.313   6.889   4.187
96642W        W63183   0.932  37.768  11.881
96643W        W63184   7.304  25.561   1.745
96644W        W63185   1.197  17.926  10.751
96645W        W63186  23.729  33.954   0.410
96646W        W63187   4.225   0.003   1.708
96647W        W63188  14.188   1.533   1.123
96648W        W63189  14.767  10.650   4.581
96649W        W63190  22.231  28.595  12.825
96650W        W63191  24.427   3.719   1.660
96651W        W63192   2.679   5.048   2.220
96652W        W63193  41.967   6.543  10.656
96653W        W63194  14.596  34.373  14.977
96654W        W63195  17.555  43.331   1.259
96655W        W63196  16.976  17.613   1.920
96656W        W63197  11.284  38.824  12.830
96657W        W63198  15.218  17.682   0.932
96658W        W63199   9.334  21.540  13.087
96659W        W63200  32.569  35.946  10.686
96660W        W63201  37.994  40.070   1.664
96661W        W63202  40.619  18.454   1.268
96662W        W63203   6.113  31.001  13.750
96663W        W63204  42.737  20.252   2.292
96664W        W63205  44.703  20.145  11.217
96665W        W63206  38.096  42.343  11.533
96666W        W63207  15.244   9.093   2.229
96667W        W63208  16.646  41.972   4.072
96668W        W63209  43.452  32.781   4.568
96669W        W63210   7.471  17.814  13.349
96670W        W63211  21.199  38.301  12.903
96671W        W63212  25.392   8.333  10.413
96672W        W63213  28.704  38.363  14.892
96673W        W63214  21.824  25.653  13.592
96674W        W63215  26.494  16.209  12.107
96675W        W63216  26.218  16.602  14.479
96676W        W63217  18.186  26.614   3.065
96677W        W63218   3.393  21.076   1.813
96678W        W63219  29.171  18.870   3.348
96679W        W63220  42.482   9.619   0.066
96680W        W63221  11.705  40.142   4.932
96681W        W63222  10.706  39.880   0.864
96682W        W63223  42.193   5.982  10.719
96683W        W63224  19.539  13.705  14.418
96684W        W63225  32.951  27.724   4.715
96685W        W63226  23.956  30.485  14.964
96686W        W63227   6.846  18.982   2.726
96687W        W63228  40.660  14.566   2.520
96688W        W63229  26.074  23.084   4.205
96689W        W63230   5.111  15.949   0.545
96690W        W63231  38.781  40.665   4.574
96691W        W63232  32.362  30.966  11.661
96692W        W63233  40.360  42.762  12.549
96693W        W63234  15.694  14.394   2.560
96694W        W63235  15.238  32.067  12.285
96695W        W63236   3.729   4.512   4.194
96696W        W63237  38.404  22.111  12.590
96697W        W63238  24.718  14.209  13.537
96698W        W63239  24.908  42.916  12.550
96699W        W63240  28.671  22.384   2.647
96700W        W63241  38.348  39.467  11.437
96701W        W63242  19.728  20.573  11.445
96702W        W63243  30.113  19.544   0.269
96703W        W63244  37.856  24.522   2.030
96704W        W63245  38.989  25.143  14.540
96705W        W63246  44.172  28.185  12.951
96706W        W63247  41.426  24.727   0.992
96707W        W63248  29.760  35.961  11.402
96708W        W63249   3.929  16.785   2.115
96709W        W63250  28.986  21.648   1.963
96710W        W63251  28.350  13.279  14.982
96711W        W63252   5.078  10.282   0.042
96712W        W63253  14.728  28.071  13.220
96713W        W63254  28.754  26.919  13.543
96714W        W63255  11.896  24.708   0.010
96715W        W63256  22.970   8.025   4.575
96716W        W63257  40.583  26.377  13.376
96717W        W63258  30.343  44.611   0.000
96718W        W63259   6.839  32.864   3.298
96719W        W63260   9.447   2.681  13.438
96720W        W63261   0.275  19.810  11.508
96721W        W63262   4.536  28.602   2.449
96722W        W63263  11.665  28.100   0.733
96723W        W63264  13.339   8.862   0.176
96724W        W63265  23.760  17.493   3.811
96725W        W63266   6.870   5.565  14.269
96726W        W63267  36.035  30.602  10.709
96727W        W63268  42.369   6.274  14.056
96728W        W63269  39.530  11.329  11.137
96729W        W63270   6.703  42.495   3.293
96730W        W63271  35.820  29.246   3.632
96731W        W63272  32.861  40.595   0.236
96732W        W63273  36.095  17.671   4.564
96733W        W63274  33.558  11.706  11.709
96734W        W63275  10.741  12.723  11.931
96735W        W63276  36.442  26.537   0.188
96736W        W63277  12.482   5.637   3.759
96737W        W63278   1.142  22.603  11.054
96738W        W63279  40.021  38.459  13.371
96739W        W63280  20.708   3.951   3.300
96740W        W63281  15.191  21.604  13.446
96741W        W63282  19.020  13.556   2.387
96742W        W63283  30.977  20.359   2.723
96743W        W63284  34.763  43.801   1.780
96744W        W63285  15.685  15.545   4.323
96745W        W63286   0.874  11.591  12.897
96746W        W63287   8.832   2.473   2.298
96747W        W63288  16.752  31.011   3.255
96748W        W63289  25.819  25.809  11.216
96749W        W63290  17.120  34.213  10.485
96750W        W63291  30.553  31.091   2.208
96751W        W63292   2.001   0.212   3.990
96752W        W63293  19.971  29.556  14.308
96753W        W63294  17.651  21.738   2.326
96754W        W63295   9.828  35.945   4.583
96755W        W63296  11.939  21.975   2.888
96756W        W63297  17.323   7.385   1.762
96757W        W63298   6.271  16.727   2.435
96758W        W63299  12.890  17.834   4.281
96759W        W63300  34.967  23.945   3.772
96760W        W63301  21.675  12.320  12.001
96761W        W63302  23.427  10.264  11.610
96762W        W63303  27.008  21.014  10.201
96763W        W63304  23.230  42.357   2.309
96764W        W63305  19.201   2.551  11.952
96765W        W63306  35.713   4.795  13.007
96766W        W63307   7.994  44.217  13.987
96767W        W63308  13.812  40.304  13.397
96768W        W63309  10.756   6.335  12.521
96769W        W63310  35.024  35.354   1.012
96770W        W63311  26.992  39.438  11.099
96771W        W63312  37.049  28.291  14.946
96772W        W63313  27.856  22.332   3.156
96773W        W63314  31.285  33.906   4.601
96774W        W63315  22.670  30.423  11.585
96775W        W63316  11.890   9.500   2.383
96776W        W63317   8.387   0.671   0.375
96777W        W63318   5.352   4.004   0.848
96778W        W63319  33.072  39.101  12.717
96779W        W63320  33.032  14.565  11.194
96780W        W63321  19.090  17.197  11.081
96781W        W63322  36.612  44.389   2.040
96782W        W63323  14.660  31.953   3.150
96783W        W63324  16.540  34.612  11.142
96784W        W63325  16.842   7.266   3.752
96785W        W63326   0.463  43.372  10.742
96786W        W63327  39.509  20.874  12.895
96787W        W63328   8.496   5.681   1.793
96788W        W63329  29.951  20.153   1.405
96789W        W63330  24.633   7.714   2.127
96790W        W63331  32.743  38.119  13.507
96791W        W63332   6.025   0.635   4.493
96792W        W63333  10.324  17.343  13.261
96793W        W63334   6.232   2.455   1.454
96794W        W63335   6.865  11.246   2.225
96795W        W63336   0.972  32.597  11.846
96796W        W63337  23.345  18.861   2.377
96797W        W63338   3.678   4.442  14.988
96798W        W63339   7.460  14.587  11.128
96799W        W63340  37.912  18.441   3.657
96800W        W63341  40.761  26.866   3.693
96801W        W63342  30.575   3.651  10.683
96802W        W63343  34.090   2.196  10.802
96803W        W63344   1.965  19.810   0.766
96804W        W63345   9.318  36.760  11.981
96805W        W63346  13.297  26.083   3.866
96806W        W63347  40.427  14.241  12.719
96807W        W63348  17.655  16.187  14.002
96808W        W63349  32.810  41.729  12.928
96809W        W63350   6.629  29.790  11.563
96810W        W63351  43.452  33.321   2.360
96811W        W63352  44.744  41.956  11.605
96812W        W63353  11.207   5.240   2.441
96813W        W63354  16.896   6.396  14.061
96814W        W63355   5.735  27.414   1.349
96815W        W63356  20.980  10.104   9.765
96816W        W63357  33.002  32.137   4.485
96817W        W63358  28.496  28.908  12.534
96818W        W63359  29.611  29.875  12.917
96819W        W63360  18.517  17.540  13.477
96820W        W63361  10.851  27.922  12.467
96821W        W63362  15.597  14.725  13.272
96822W        W63363  21.663  25.964   2.220
96823W        W63364   6.871  43.051   3.200
96824W        W63365   2.322  29.395  13.821
96825W        W63366   3.585  35.506   4.120
96826W        W63367  19.043   3.517   3.380
96827W        W63368  19.703  29.926  12.978
96828W        W63369  13.284  13.786  13.674
96829W        W63370  10.534  34.719   3.188
96830W        W63371  29.048  29.433   1.070
96831W        W63372  12.773  24.616  10.982
96832W        W63373  31.040  11.205  13.262
96833W        W63374  12.281  32.382  13.545
96834W        W63375  40.328  19.537   2.565
96835W        W63376   7.222  43.325  13.530
96836W        W63377  20.396  20.664   3.282
96837W        W63378   2.911  41.940   0.129
96838W        W63379  33.991  12.660   2.191
96839W        W63380  32.020  22.733   0.114
96840W        W63381  28.178  29.127   0.452
96841W        W63382   1.353  24.248  13.507
96842W        W63383   9.779  15.487   3.128
96843W        W63384  39.017   8.271   1.355
96844W        W63385  41.777  31.716  12.046
96845W        W63386   2.507  28.411   2.201
96846W        W63387  21.004   6.145   0.234
96847W        W63388  21.310  40.046   4.772
96848W        W63389   3.149  14.112   0.684
96849W        W63390  28.418   5.753  10.138
96850W        W63391   1.029  35.505   3.237
96851W        W63392  40.310  19.080   2.857
96852W        W63393  11.723  21.700  14.423
96853W        W63394  41.978  22.461   3.025
96854W        W63395  19.643  41.747   5.242
96855W        W63396  22.720  22.019   2.270
96856W        W63397   4.617  25.468  12.862
96857W        W63398   6.976  34.042   2.716
96858W        W63399   6.160  39.475  12.343
96859W        W63400  21.155  33.568   2.635
96860W        W63401  20.653   0.505  10.694
96861W        W63402  37.401  38.952  13.850
96862W        W63403  19.513   1.688   2.134
96863W        W63404   9.788   5.862  10.666
96864W        W63405  42.400  12.355  14.411
96865W        W63406   4.836  12.777  10.741
96866W        W63407  12.353  33.554  11.669
96867W        W63408  10.914  18.051   2.450
96868W        W63409  38.129  23.567   2.843
96869W        W63410  33.183  39.521   3.147
96870W        W63411  43.323  33.147   4.220
96871W        W63412  42.797   0.964  14.459
96872W        W63413   5.649  28.096  14.061
96873W        W63414  26.875   4.735  12.427
96874W        W63415  28.194  13.703  12.866
96875W        W63416  12.023   5.851   3.825
96876W        W63417  15.325  34.730   4.462
96877W        W63418  11.690  20.061  14.437
96878W        W63419  43.138  16.971   4.617
96879W        W63420  44.399  21.567  13.997
96880W        W63421  31.897  26.899   2.653
96881W        W63422  33.049   6.418  12.348
96882W        W63423   3.394   8.332   4.378
96883W        W63424  16.226  35.493   3.270
96884W        W63425  12.224  13.847   1.239
96885W        W63426  35.361   6.480  13.432
96886W        W63427  12.046  14.212   2.197
96887W        W63428   3.656  12.820   4.848
96888W        W63429  40.550  20.742  12.876
96889W        W63430  29.199  32.930   2.295
96890W        W63431  15.625  31.604   2.213
96891W        W63432  13.682   0.203  14.837
96892W        W63433  38.415   7.654  14.794
96893W        W63434   9.548  33.148   2.888
96894W        W63435  38.946  12.521   5.022
96895W        W63436  24.490  27.456   4.109
96896W        W63437   5.489  10.773  12.998
96897W        W63438  43.381   1.399   3.376
96898W        W63439  44.899  12.711  13.281
96899W        W63440  41.693  31.164   4.292
96900W        W63441   6.203   7.605   0.836
96901W        W63442  44.054  36.030   3.243
96902W        W63443   2.847  18.550   2.809
96903W        W63444  18.681  22.227  10.672
96904W        W63445  44.976  43.301  14.379
96905W        W63446   8.302  33.491  11.953
96906W        W63447  22.673   4.767  14.647
96907W        W63448  17.030  20.111  14.362
96908W        W63449  21.706  27.589   1.740
96909W        W63450  28.115  12.747   1.664
96910W        W63451  21.650   1.979   3.586
96911W        W63452  10.871  27.039  11.875
96912W        W63453  24.972   7.059  13.416
96913W        W63454   4.683  37.521   0.760
96914W        W63455   3.471   6.906  10.902
96915W        W63456  33.482  42.177   0.736
96916W        W63457   3.935  19.180   1.789
96917W        W63458  36.612  35.530  14.881
96918W        W63459   9.579  40.157   2.186
96919W        W63460   4.247  35.559   3.468
96920W        W63461   6.418  17.251  11.162
96921W        W63462   7.264  24.174  13.428
96922W        W63463  13.819  25.920  13.180
96923W        W63464  31.951  13.153  13.923
96924W        W63465  36.639  30.932  13.367
96925W        W63466  23.003   8.546   1.318
96926W        W63467   3.747  32.947   0.887
96927W        W63468   2.824  34.628   4.549
96928W        W63469  11.754  34.982   4.830
96929W        W63470   5.857  23.655  12.595
96930W        W63471  28.172  34.541   4.522
96931W        W63472  38.357  12.128  13.710
96932W        W63473  24.670  19.314   1.275
96933W        W63474  29.588   1.990  14.405
96934W        W63475  20.296  26.016  11.439
96935W        W63476  34.840   8.069   2.303
96936W        W63477   4.411   7.341  14.867
96937W        W63478  38.971  16.755  14.876
96938W        W63479   5.260   9.765   3.254
96939W        W63480  33.303  24.808  11.191
96940W        W63481  12.128   7.618  12.977
96941W        W63482  27.787  39.296   0.224
96942W        W63483  42.875  10.927   1.000
96943W        W63484  20.794  30.128   3.740
96944W        W63485   6.134  36.794   4.087
96945W        W63486  44.990  14.344  13.745
96946W        W63487   1.453  10.759  11.151
96947W        W63488   6.911   2.341  11.116
96948W        W63489   6.534  21.717   0.231
96949W        W63490  33.000  35.441   2.370
96950W        W63491   6.998  13.464  11.187
96951W        W63492  12.442   9.358   0.546
96952W        W63493  43.856  38.774   0.816
96953W        W63494   2.296  38.897  14.350
96954W        W63495  13.875  39.571   3.602
96955W        W63496   4.953  37.809  14.265
96956W        W63497   5.867   4.448   2.475
96957W        W63498  33.807   8.569  10.985
96958W        W63499  10.104  36.491  14.165
96959W        W63500  20.621   6.718   3.279
96960W        W63501  19.208   2.223   4.926
96961W        W63502   8.644  11.579   2.282
96962W        W63503  21.064  20.098  11.670
96963W        W63504  34.321  42.108  14.034
96964W        W63505  32.671  34.639  11.478
96965W        W63506   9.447   4.348   4.652
96966W        W63507  28.001  40.272   4.624
96967W        W63508  39.396   0.749   0.381
96968W        W63509   9.895  39.364  13.865
96969W        W63510  25.977  37.358  11.567
96970W        W63511   2.846   7.717   1.335
96971W        W63512  26.988  32.350   2.727
96972W        W63513  43.504  24.742  13.840
96973W        W63514  20.879  37.577  12.429
96974W        W63515   1.793   6.488   0.358
96975W        W63516  12.875   7.719   0.853
96976W        W63517  14.840  17.617  14.404
96977W        W63518  12.752  40.506   2.774
96978W        W63519   7.842   5.745   3.867
96979W        W63520  16.656  36.124  13.269
96980W        W63521   7.790  11.608   1.627
96981W        W63522   7.289   3.744   4.618
96982W        W63523   1.168  13.191   3.881
96983W        W63524  21.683   1.378   0.599
96984W        W63525  38.303   3.353  13.158
96985W        W63526   7.709  23.230   2.326
96986W        W63527  32.066  37.319   0.329
96987W        W63528  44.819  38.372   2.655
96988W        W63529   7.798  38.800  13.386
96989W        W63530  34.762  21.565  10.728
96990W        W63531   0.810  16.204   1.023
96991W        W63532  20.062  37.287   2.963
96992W        W63533  15.864  14.698  14.881
96993W        W63534  32.349  44.388  11.102
96994W        W63535  11.929  15.160  14.063
96995W        W63536  44.254  11.891  14.730
96996W        W63537  21.024  17.730  13.549
96997W        W63538  13.656  39.884   1.296
96998W        W63539   6.442  31.928   0.431
96999W        W63540  30.164   6.506  12.614
97000W        W63541  10.775   4.034  12.965
97001W        W63542   1.718  32.136  12.496
97002W        W63543  21.991  25.129  13.622
97003W        W63544  12.313   5.278   0.814
97004W        W63545  14.095   8.479   3.257
97005W        W63546  39.511  25.492  14.958
97006W        W63547   8.590  43.844   4.714
97007W        W63548  38.267  30.511   0.400
97008W        W63549  16.587  19.145  12.553
97009W        W63550  14.979  43.183  11.566
97010W        W63551   8.310  29.467   0.681
97011W        W63552  12.301  41.252   2.857
97012W        W63553   0.338  11.335   0.910
97013W        W63554  18.129   3.527   4.834
97014W        W63555  31.166   6.227  14.261
97015W        W63556   4.532  40.015  13.559
97016W        W63557  13.683   8.187  14.679
97017W        W63558  29.453  12.246  14.026
97018W        W63559  11.743  35.938   2.215
97019W        W63560  21.533   8.535  12.337
97020W        W63561  18.515   0.881  11.101
97021W        W63562  33.587  40.539  10.619
97022W        W63563  21.945   7.315   2.275
97023W        W63564  42.788  20.308   3.912
97024W        W63565  25.683  18.790  12.790
97025W        W63566  15.170  26.476   0.254
97026W        W63567   3.323  28.443  12.498
97027W        W63568  19.388  36.609   1.040
97028W        W63569  36.989  18.735  12.963
97029W        W63570   1.450   5.210  10.822
97030W        W63571  17.582  39.811   2.913
97031W        W63572  32.449  37.304   4.216
97032W        W63573  43.646  39.056   4.766
97033W        W63574  15.377  11.681  12.318
97034W        W63575  35.880  22.017  12.608
97035W        W63576  22.823  24.584  10.756
97036W        W63577  17.044   8.200  11.218
97037W        W63578   2.249  23.440   1.192
97038W        W63579  24.786  33.647  13.775
97039W        W63580  16.402   6.634  14.830
97040W        W63581  31.391   4.542   3.605
97041W        W63582   8.819  37.287   2.732
97042W        W63583  37.012  28.520   3.741
97043W        W63584  11.749   5.341  10.598
97044W        W63585  21.180   9.252  12.878
97045W        W63586  13.767  26.351  14.037
97046W        W63587  41.497  29.209  14.827
97047W        W63588  11.774  36.051   3.211
97048W        W63589  41.425  10.906  12.680
97049W        W63590  44.596  23.006   4.333
97050W        W63591   4.818  23.556  13.327
97051W        W63592  19.523  25.118  10.796
97052W        W63593  18.021  19.774   1.074
97053W        W63594  14.681  13.272  12.137
97054W        W63595  28.256  11.895  11.226
97055W        W63596  30.908  32.138  12.885
97056W        W63597  21.778  24.534   1.845
97057W        W63598  16.538   1.428   1.340
97058W        W63599  35.949  13.813   3.359
97059W        W63600  40.080  12.026   1.762
97060W        W63601  28.625  18.305   3.699
97061W        W63602  31.498   5.910  11.388
97062W        W63603  39.314  39.905  14.903
97063W        W63604  39.321   8.149  13.837
97064W        W63605   3.559   6.867  14.423
97065W        W63606  41.927  30.671   3.271
97066W        W63607   9.315  11.794  14.980
97067W        W63608  13.176  38.454   2.007
97068W        W63609  28.580   3.235  13.327
97069W        W63610  44.153  19.260  11.656
97070W        W63611  31.071  44.220  10.570
97071W        W63612  32.540  43.721   0.202
97072W        W63613   6.906  22.569  12.121
97073W        W63614   2.862  32.101  12.562
97074W        W63615   3.584  25.878   1.360
97075W        W63616  27.406  12.640   2.935
97076W        W63617  30.585  36.653  13.296
97077W        W63618   7.383  36.726   3.589
97078W        W63619   4.887  25.895  11.597
97079W        W63620   0.457  27.416   3.184
97080W        W63621   7.958   6.483  11.119
97081W        W63622  11.417  13.729   1.159
97082W        W63623  30.958  39.059  14.392
97083W        W63624  12.421   9.263   1.350
97084W        W63625   6.781   9.445  13.148
97085W        W63626  12.178  15.567   4.284
97086W        W63627  15.072  34.288   4.347
97087W        W63628  19.769   5.118   1.873
97088W        W63629   4.363  43.220   3.409
97089W        W63630  41.086  18.976   4.138
97090W        W63631   5.797  14.881  12.150
97091W        W63632  38.984   8.128   4.710
97092W        W63633  16.127   6.113   0.440
97093W        W63634  17.860  20.298  14.025
97094W        W63635  13.672  26.887  14.002
97095W        W63636  15.890  10.069   3.144
97096W        W63637  17.280  28.433  11.316
97097W        W63638  38.538   5.880  13.371
97098W        W63639   1.596  34.337  14.197
97099W        W63640  21.668  12.533  13.470
97100W        W63641  37.612   1.461  11.961
97101W        W63642  22.136  23.645   2.225
97102W        W63643  42.224  27.028  14.944
97103W        W63644  33.858  25.716   3.667
97104W        W63645  37.427   6.409  12.673
97105W        W63646   3.145  25.785  11.870
97106W        W63647  32.079  41.427  10.797
97107W        W63648   2.591  44.986  14.258
97108W        W63649  39.821  31.400  11.285
97109W        W63650  34.477  20.254   3.284
97110W        W63651  29.948  27.312   3.689
97111W        W63652  28.716  24.977   1.241
97112W        W63653  40.144   2.556  12.139
97113W        W63654  35.394  23.201  13.471
97114W        W63655  11.551   6.358   2.690
97115W        W63656  30.595  41.836  11.397
97116W        W63657  43.775  18.615  11.100
97117W        W63658  22.270  18.330   2.313
97118W        W63659   5.507  27.151  11.494
97119W        W63660  14.287  35.805  13.877
97120W        W63661   4.070   6.210  14.872
97121W        W63662  15.743  28.153  12.112
97122W        W63663  22.784  44.896   1.358
97123W        W63664  11.868  42.615   4.469
97124W        W63665  31.969  10.313   1.242
97125W        W63666   2.804   6.927  14.961
97126W        W63667  29.082  34.878   4.082
97127W        W63668  36.837   0.979   2.681
97128W        W63669   8.648   5.203  13.022
97129W        W63670  44.992  41.322   3.059
97130W        W63671  15.975  21.643   3.643
97131W        W63672  13.323  27.439  14.777
97132W        W63673   2.305  12.874   4.032
97133W        W63674   7.489  28.917  12.532
97134W        W63675  17.967   4.991   4.411
97135W        W63676  35.029  21.082   0.669
97136W        W63677  29.593  44.284  12.531
97137W        W63678  21.473  43.043   1.430
97138W        W63679  30.813  40.579   9.891
97139W        W63680  37.002   2.651  11.868
97140W        W63681  27.095  16.102  10.493
97141W        W63682   9.123  14.117   3.123
97142W        W63683  40.533  41.027   2.361
97143W        W63684  28.302  29.354  14.974
97144W        W63685   0.782  32.672   0.924
97145W        W63686  35.356  41.976   2.915
97146W        W63687  19.252  36.134   1.265
97147W        W63688   9.435  32.419   2.933
97148W        W63689  28.886  32.268   4.024
97149W        W63690  28.245   6.242  10.663
97150W        W63691  26.688  36.802   1.286
97151W        W63692  33.617  15.367   3.285
97152W        W63693   5.805  15.508  12.036
97153W        W63694  40.393  32.628  13.061
97154W        W63695   7.759  34.032  10.679
97155W        W63696  37.577  16.489  11.920
97156W        W63697  21.482  38.431   4.465
97157W        W63698  10.586   7.360   4.942
97158W        W63699   8.128  29.062   2.423
97159W        W63700  23.029  13.988   0.816
97160W        W63701  42.432  15.758  14.482
97161W        W63702  22.571  41.269   0.568
97162W        W63703  27.480   1.235   3.707
97163W        W63704   7.193  31.373   3.643
97164W        W63705   1.449  42.452  13.729
97165W        W63706   3.671  34.532  14.373
97166W        W63707   2.008  23.020   0.312
97167W        W63708   4.470   8.442   3.458
97168W        W63709  33.590  42.920   3.154
97169W        W63710  11.377   1.360   0.295
97170W        W63711  44.815   5.619  10.738
97171W        W63712  32.966  33.626   3.835
97172W        W63713   1.567  29.908   4.613
97173W        W63714  32.672   3.784  10.334
97174W        W63715  42.106  38.988   4.918
97175W        W63716  26.914  16.131  14.852
97176W        W63717  39.538  35.354   2.276
97177W        W63718  14.317  15.205   1.512
97178W        W63719  44.565  38.033   1.722
97179W        W63720  11.316   2.719   3.089
97180W        W63721  24.201  25.477  14.935
97181W        W63722   0.396  13.150  12.459
97182W        W63723   8.104  29.487   4.549
97183W        W63724  37.110  36.377   2.702
97184W        W63725  30.101  33.507   0.275
97185W        W63726  41.951   4.363  12.571
97186W        W63727  14.323   0.010   4.909
97187W        W63728  19.589  39.582   2.833
97188W        W63729  31.554  27.735  12.534
97189W        W63730   4.979   1.073  11.645
97190W        W63731  41.074  43.928   3.355
97191W        W63732  32.069   3.793  11.887
97192W        W63733  38.491   7.447   4.240
97193W        W63734  42.045  14.726   2.215
97194W        W63735  41.530  29.931   1.361
97195W        W63736  24.160  32.107   2.419
97196W        W63737  37.940  26.142   0.244
97197W        W63738  39.542  14.834   1.217
97198W        W63739  32.262  11.845   0.357
97199W        W63740  29.500  18.094   3.902
97200W        W63741  41.225  34.410  14.823
97201W        W63742   5.656  40.288  11.664
97202W        W63743  20.264   1.034  11.772
97203W        W63744  30.066  35.338  14.404
97204W        W63745  27.012  16.862   2.710
97205W        W63746  27.485   3.980  13.918
97206W        W63747  37.158  31.033  13.272
97207W        W63748   0.747   7.169  14.838
97208W        W63749  14.057   1.065   3.565
97209W        W63750  42.772  11.191   4.227
97210W        W63751  22.186  36.353   0.986
97211W        W63752  17.818   3.527  12.582
97212W        W63753  17.030  29.655   0.473
97213W        W63754  10.646  12.358   3.228
97214W        W63755   7.275  28.670   0.563
97215W        W63756  16.640  39.038  11.947
97216W        W63757  38.534   5.387   1.330
97217W        W63758   9.177   0.190  14.410
97218W        W63759  11.904  25.970  13.916
97219W        W63760  33.063   8.176  13.840
97220W        W63761  27.166  40.183  12.405
97221W        W63762  23.256  35.606   0.525
97222W        W63763  35.536  28.955   4.527
97223W        W63764  36.321  37.547  12.091
97224W        W63765  41.418  19.099  13.407
97225W        W63766  22.451  34.515   1.740
97226W        W63767   0.849  40.046   4.865
97227W        W63768   0.835  39.968   3.855
97228W        W63769   4.635  22.612  13.819
97229W        W63770  40.388  36.958  13.485
97230W        W63771   4.779  38.182  11.596
97231W        W63772  30.415  11.639   3.986
97232W        W63773  42.765   7.817  12.476
97233W        W63774  34.111   0.311  12.232
97234W        W63775   5.118   6.550   2.603
97235W        W63776   2.786  38.103   1.304
97236W        W63777  22.342  13.129   5.248
97237W        W63778  10.141  41.395  14.858
97238W        W63779  24.183  20.795   1.020
97239W        W63780  25.387  15.234  12.524
97240W        W63781  44.867  19.135   1.331
97241W        W63782  11.043  42.795  10.222
97242W        W63783  38.567   8.832   4.898
97243W        W63784  30.007   7.288  13.901
97244W        W63785  17.735  36.128   1.410
97245W        W63786  15.033  32.642   0.259
97246W        W63787  40.999  13.789   0.690
97247W        W63788  37.317  12.780   0.860
97248W        W63789  28.413  17.801  12.343
97249W        W63790  23.757  41.500   1.365
97250W        W63791  12.008   6.864   1.953
97251W        W63792  41.971  43.499   3.570
97252W        W63793  39.384  15.207  10.655
97253W        W63794  18.561  33.398   2.170
97254W        W63795  10.356  19.258  11.036
97255W        W63796  35.885  39.267   2.881
97256W        W63797   4.091  44.746   3.413
97257W        W63798  37.092   3.789   2.176
97258W        W63799  43.867  15.546   3.218
97259W        W63800  41.454  22.188  10.979
97260W        W63801  19.186   5.970   4.243
97261W        W63802  34.599  11.266   3.644
97262W        W63803   4.483  30.668   2.168
97263W        W63804  27.131  34.375   2.606
97264W        W63805   8.414  23.644   2.547
97265W        W63806  20.677  33.316   1.352
97266W        W63807  31.894  27.756   2.263
97267W        W63808  25.051  27.854  10.835
97268W        W63809   1.976  34.397   2.151
97269W        W63810  11.857  27.918  12.548
97270W        W63811  20.818  36.632   0.970
97271W        W63812  23.751  32.961  13.570
97272W        W63813  11.207  19.939  12.085
97273W        W63814  21.412  36.022   4.072
97274W        W63815  30.202  39.983   1.003
97275W        W63816  44.496  30.422  12.078
97276W        W63817   7.930  19.079  14.741
97277W        W63818  24.772   5.904   1.896
97278W        W63819  14.342   1.169   0.803
97279W        W63820  20.800   2.730  14.497
97280W        W63821  36.647  20.824   3.532
97281W        W63822  11.005  23.365   0.649
97282W        W63823  36.574  37.219  11.165
97283W        W63824  35.874   9.454  10.798
97284W        W63825  18.566  36.190  10.797
97285W        W63826   4.068   3.281  14.281
97286W        W63827   4.267   2.990   3.567
97287W        W63828  37.293  37.005   1.105
97288W        W63829  14.325  21.026   2.228
97289W        W63830  44.362  17.334   2.223
97290W        W63831  17.901  22.097   1.523
97291W        W63832  44.460  25.637   0.949
97292W        W63833  17.794   8.255  13.945
97293W        W63834  24.020  33.148  10.869
97294W        W63835  30.039  33.554  14.706
97295W        W63836  44.281   1.218  10.471
97296W        W63837   5.835  19.107  11.558
97297W        W63838  12.352  21.815   0.366
97298W        W63839  13.624  41.490   0.299
97299W        W63840  21.258  39.160  12.495
97300W        W63841  29.157  34.997  12.022
97301W        W63842  41.481  38.373  13.276
97302W        W63843  29.560   1.727   1.629
97303W        W63844  38.842  41.727   3.768
97304W        W63845  37.516  40.653  11.425
97305W        W63846  43.935   8.523   4.272
97306W        W63847  30.840  22.264  12.008
97307W        W63848   1.303  39.116   4.309
97308W        W63849  15.272  26.931   0.015
97309W        W63850   3.745  24.140  12.323
97310W        W63851  32.106  40.980   1.568
97311W        W63852  30.174   2.235   1.364
97312W        W63853  19.797   8.193  12.883
97313W        W63854  18.001  33.903  11.628
97314W        W63855  39.076  28.319   4.102
97315W        W63856  33.128  12.549  11.023
97316W        W63857  33.387  13.082  10.278
97317W        W63858  12.408  34.466  11.551
97318W        W63859   3.321  17.077   2.125
97319W        W63860  12.092  16.684   2.415
97320W        W63861  14.202  22.535  12.650
97321W        W63862  23.092  30.661   0.921
97322W        W63863  18.631  43.265  10.793
97323W        W63864  44.543  32.083  12.456
97324W        W63865   1.337  18.741   2.974
97325W        W63866  28.607  15.399  10.677
97326W        W63867  43.297   3.208   0.745
97327W        W63868  23.120  22.688   2.803
97328W        W63869   0.896   4.684   3.203
97329W        W63870  14.890  35.096   1.276
97330W        W63871  35.560  23.093   4.458
97331W        W63872  38.844  15.036  12.579
97332W        W63873  17.061  18.811   9.944
97333W        W63874  29.677  32.424  11.608
97334W        W63875  23.208  27.159   0.171
97335W        W63876   8.768  32.997   0.703
97336W        W63877   4.777  28.120  12.795
97337W        W63878   6.417  37.973   2.620
97338W        W63879  44.383  24.685   4.117
97339W        W63880   9.854  32.062  13.574
97340W        W63881  41.147  25.297   0.459
97341W        W63882  23.771  26.605  13.500
97342W        W63883   7.195  24.615   4.879
97343W        W63884  16.040   9.672  14.085
97344W        W63885  27.411  38.635   1.161
97345W        W63886   1.762  23.054   3.155
97346W        W63887  41.019  28.882   2.251
97347W        W63888  26.991  38.462  13.380
97348W        W63889  13.319  44.283   2.959
97349W        W63890  15.850  16.779   2.066
97350W        W63891  42.487  16.301   1.150
97351W        W63892  35.227   3.593   4.428
97352W        W63893  32.634  34.247  12.443
97353W        W63894   4.250   7.800   4.238
97354W        W63895  41.578  13.797  12.116
97355W        W63896  38.612  17.657  13.264
97356W        W63897  37.195  32.566  11.656
97357W        W63898  15.127  43.919   1.363
97358W        W63899  39.207  37.913   1.757
97359W        W63900  11.792  20.933  14.904
97360W        W63901  22.145  22.169  12.334
97361W        W63902  39.450  17.596   0.714
97362W        W63903  26.475  10.609  13.067
97363W        W63904  37.502   6.401   4.538
97364W        W63905   7.141   9.663  11.938
97365W        W63906  16.092  35.622  13.613
97366W        W63907  32.050  22.029   4.544
97367W        W63908   4.285   0.654   4.581
97368W        W63909  21.458   9.258  14.364
97369W        W63910  38.189  42.307  10.638
97370W        W63911  18.017   7.440  11.093
97371W        W63912  12.132  43.003   3.470
97372W        W63913  21.138  11.339   4.628
97373W        W63914  12.609  32.435   0.307
97374W        W63915   0.414  42.913  11.052
97375W        W63916  30.327   0.891   4.121
97376W        W63917  39.600  29.659  13.790
97377W        W63918  44.287  22.498  13.798
97378W        W63919  30.708   9.098   0.240
97379W        W63920  28.041  30.798   4.256
97380W        W63921  34.560  12.573  12.032
97381W        W63922  35.635  15.321  13.037
97382W        W63923  13.079   3.961   1.038
97383W        W63924   1.906   5.654  11.574
97384W        W63925   5.406   9.376  12.862
97385W        W63926  10.433  23.675   1.435
97386W        W63927  20.948   3.353  12.513
97387W        W63928  24.548  39.516   4.498
97388W        W63929  23.507  34.147  14.058
97389W        W63930  16.695   7.842  12.719
97390W        W63931  37.377   2.142   2.717
97391W        W63932  23.165  38.465   3.217
97392W        W63933  13.162   2.256  11.092
97393W        W63934   4.811  26.558   2.698
97394W        W63935  44.865   7.533   4.522
97395W        W63936  39.548  39.996  12.196
97396W        W63937   4.845  20.034  11.189
97397W        W63938  11.932  44.321   0.440
97398W        W63939  15.291  33.750  11.008
97399W        W63940   0.121   5.832  12.843
97400W        W63941  44.859  28.909   1.860
97401W        W63942  39.530   4.824  14.297
97402W        W63943  29.410  27.252   1.983
97403W        W63944   1.789  43.238  11.177
97404W        W63945   5.765  42.674  12.525
97405W        W63946   5.840   6.244   3.567
97406W        W63947   0.154   6.888  11.007
97407W        W63948  43.042   2.433   0.007
97408W        W63949  29.456  10.882  12.628
97409W        W63950  20.943   4.757   0.828
97410W        W63951  10.392  29.563  14.075
97411W        W63952  15.609  18.506  11.539
97412W        W63953  32.989  19.983   3.341
97413W        W63954   9.682  42.732  14.365
97414W        W63955   4.405  25.723  11.954
97415W        W63956  13.285  41.866  14.252
97416W        W63957  22.520  14.699  12.837
97417W        W63958   6.359   0.941  11.621
97418W        W63959  18.834  37.006   0.284
97419W        W63960  40.991   6.358   0.752
97420W        W63961  13.733  32.102   3.662
97421W        W63962  27.631   5.216   0.933
97422W        W63963  12.393  37.129   3.619
97423W        W63964  15.983   4.684  10.240
97424W        W63965  21.268  38.353  12.098
97425W        W63966  13.137  26.191   1.466
97426W        W63967  27.090  13.641   1.398
97427W        W63968   9.638  18.081   3.037
97428W        W63969  11.812   6.450   0.008
97429W        W63970  41.118  15.645   2.777
97430W        W63971   3.493  32.252   5.458
97431W        W63972   4.157  17.552   0.214
97432W        W63973  25.811  24.661   5.144
97433W        W63974  15.207  42.553   0.760
97434W        W63975  23.448  31.632   3.157
97435W        W63976  13.149   7.908   0.323
97436W        W63977  31.551  28.663  14.207
97437W        W63978   9.629  28.601  14.097
97438W        W63979  15.702  42.952   5.048
97439W        W63980   8.676  12.218  10.732
97440W        W63981  37.045  25.308  11.273
97441W        W63982  11.812   2.620  11.143
97442W        W63983  24.065  30.199   0.407
97443W        W63984  13.135  33.179   4.010
97444W        W63985   0.495   9.457  10.765
97445W        W63986  42.345  43.984   2.769
97446W        W63987   8.791  20.409  12.424
97447W        W63988  28.935   1.192  13.296
97448W        W63989  29.507  11.728   0.894
97449W        W63990  23.605  41.378  13.398
97450W        W63991  24.019  25.153   2.565
97451W        W63992   7.505  44.668   3.626
97452W        W63993  12.677  36.809  14.506
97453W        W63994  34.818  17.625   4.046
97454W        W63995  25.541  43.912   1.740
97455W        W63996  36.755   7.355   3.794
97456W        W63997  28.570  41.453   2.308
97457W        W63998   8.740  39.843   3.201
97458W        W63999  36.154  31.631   0.872
97459W        W64000  13.379  17.255  14.533
97460W        W64001  34.120  35.520   1.361
97461W        W64002   8.752  35.993   0.298
97462W        W64003  24.183  40.241   1.733
97463W        W64004  29.705  32.546   1.270
97464W        W64005   1.876  13.741  12.936
97465W        W64006   1.282  35.156  13.597
97466W        W64007  39.315  24.499   0.309
97467W        W64008  41.420  43.216   0.787
97468W        W64009  15.694  23.538  13.856
97469W        W64010  24.076  38.580   0.332
97470W        W64011  15.094   7.960  11.892
97471W        W64012  15.761  29.361  10.703
97472W        W64013  31.494  32.527   4.340
97473W        W64014  41.432  27.497  11.672
97474W        W64015   4.386  42.417  12.637
97475W        W64016  17.623  42.989  12.424
97476W        W64017  31.827  28.488   4.865
97477W        W64018  39.600   3.728  14.070
97478W        W64019  39.437  43.918  10.781
97479W        W64020  11.735  28.702   2.435
97480W        W64021   0.728   9.065   4.068
97481W        W64022  21.360  39.894   3.730
97482W        W64023  34.150   9.546  11.899
97483W        W64024  20.158  38.480   1.926
97484W        W64025  28.566  22.021  10.663
97485W        W64026   4.062  32.543  11.131
97486W        W64027  25.124  41.808   2.000
97487W        W64028  24.562  44.883   4.648
97488W        W64029  31.567  23.687   1.766
97489W        W64030   1.444  22.426  12.781
97490W        W64031  25.630   9.929   3.791
97491W        W64032  39.976  40.932   1.225
97492W        W64033  15.218   6.945   2.830
97493W        W64034  39.885  28.457  11.610
97494W        W64035  17.758  24.924   1.026
97495W        W64036  21.499  44.500  11.691
97496W        W64037  21.006  28.557   2.190
97497W        W64038  15.752   7.940  14.461
97498W        W64039   8.259   4.948   2.431
97499W        W64040  34.469  21.353  10.353
97500W        W64041  35.130  18.610   2.289
97501W        W64042   2.680  34.301   9.776
97502W        W64043   4.396  10.959   1.746
97503W        W64044  30.404  31.593  12.296
97504W        W64045  32.210  40.432  10.754
97505W        W64046  35.236  39.940   0.340
97506W        W64047  25.868  24.461  12.000
97507W        W64048  12.283   4.721   3.011
97508W        W64049  15.874  12.588   1.890
97509W        W64050  43.816   6.656  10.700
97510W        W64051  13.199  17.640  11.567
97511W        W64052  31.617  12.084   2.717
97512W        W64053  10.615  13.721   3.195
97513W        W64054   7.479   8.618   3.301
97514W        W64055   7.362  36.227   5.025
97515W        W64056  29.920  14.850   1.372
97516W        W64057  34.124  30.989  12.416
97517W        W64058   7.978  15.502   9.993
97518W        W64059   9.177  32.318  10.754
97519W        W64060  30.177  34.907   3.868
97520W        W64061  17.487  15.582  12.449
97521W        W64062  42.805  30.670   4.583
97522W        W64063  39.241  36.400   0.408
97523W        W64064   8.361  38.002  10.691
97524W        W64065   7.465  17.545  13.786
97525W        W64066  11.383  23.027   0.450
97526W        W64067  24.899   6.748   1.252
97527W        W64068  28.865  42.081   0.125
97528W        W64069  18.042  25.970  14.009
97529W        W64070  37.311  36.555   4.901
97530W        W64071  31.992  21.647   0.682
97531W        W64072  41.273  10.921  13.158
97532W        W64073  20.671  22.748  13.284
97533W        W64074  42.387  28.099   0.036
97534W        W64075  23.885  27.209   2.703
97535W        W64076  32.048   8.070  11.757
97536W        W64077  15.726   5.067   4.774
97537W        W64078  38.323  26.151   4.190
97538W        W64079  31.664  12.314   3.230
97539W        W64080   4.185  21.922  13.444
97540W        W64081   7.374  32.115  12.611
97541W        W64082  14.782  39.902  12.670
97542W        W64083  42.766  40.968  11.005
97543W        W64084  16.411  41.407   4.765
97544W        W64085   9.693  11.131   3.155
97545W        W64086  27.187  15.168  12.664
97546W        W64087  15.098  44.718   2.871
97547W        W64088  29.752   5.477  12.506
97548W        W64089  19.196  34.121  12.855
97549W        W64090  33.456  37.721   1.160
97550W        W64091  11.063   5.524   1.130
97551W        W64092  18.569   4.809   1.152
97552W        W64093  23.562  18.220  13.296
97553W        W64094  33.051  29.381   4.570
97554W        W64095   6.342  12.661   2.892
97555W        W64096   8.154  41.614   3.679
97556W        W64097   2.399   0.109   4.287
97557W        W64098  10.813  30.251   4.667
97558W        W64099  17.288  34.934  13.027
97559W        W64100  33.261  11.376  14.510
97560W        W64101  25.808  20.220   4.588
97561W        W64102  41.534   4.804   2.207
97562W        W64103  11.280  31.377  10.947
97563W        W64104  39.460   5.410  14.327
97564W        W64105  21.501  31.466   2.382
97565W        W64106   3.068  22.074  13.661
97566W        W64107  15.135  28.518  14.330
97567W        W64108  44.243  25.772  10.954
97568W        W64109  36.839  29.645   0.063
97569W        W64110  36.174  10.601   1.312
97570W        W64111   0.184  19.708   1.933
97571W        W64112   5.105  41.887   3.674
97572W        W64113  10.222   8.639   0.529
97573W        W64114  44.645  20.345  10.748
97574W        W64115  37.366  27.212   2.458
97575W        W64116  29.194   8.659   2.466
97576W        W64117   4.884  14.176   0.499
97577W        W64118  39.624  38.654   1.201
97578W        W64119  41.922  23.285   3.765
97579W        W64120  12.415  42.256  14.354
97580W        W64121  12.110  25.982   2.410
97581W        W64122   0.167  41.576   2.629
97582W        W64123  15.732  38.446   0.986
97583W        W64124   7.273  32.447   1.284
97584W        W64125  12.454   5.743  11.116
97585W        W64126   7.824  28.778  11.979
97586W        W64127  30.377  16.504  12.032
97587W        W64128  27.629  44.763   0.375
97588W        W64129  30.069  14.259  12.056
97589W        W64130  31.963  17.943   1.747
97590W        W64131  40.048   2.440   4.059
97591W        W64132  34.792  32.631   4.698
97592W        W64133  30.591  19.206  14.946
97593W        W64134  11.717   3.754   4.883
97594W        W64135   3.454  39.928   3.734
97595W        W64136  44.317  13.775   2.197
97596W        W64137  30.053  10.116   1.825
97597W        W64138  18.036  28.633   4.507
97598W        W64139   1.282  21.953   2.655
97599W        W64140  19.667   2.272   0.739
97600W        W64141  41.539  23.293   0.926
97601W        W64142   2.922  12.697   0.257
97602W        W64143  29.632   1.944   5.126
97603W        W64144  17.721  18.956  11.879
97604W        W64145  21.749  37.593   3.437
97605W        W64146   4.347  12.107   3.092
97606W        W64147   7.153   1.199   0.343
97607W        W64148   7.859  17.286  12.724
97608W        W64149  18.788   8.654   4.094
97609W        W64150  41.474  16.779   2.160
97610W        W64151  24.833  11.491   2.322
97611W        W64152  10.705  30.469   2.733
97612W        W64153   4.407  42.383  11.506
97613W        W64154  25.459  31.024   1.698
97614W        W64155   6.968   0.353   1.451
97615W        W64156  30.023  17.357   3.848
97616W        W64157  35.994  34.421  10.508
97617W        W64158  41.621  37.838  10.895
97618W        W64159  17.682   1.636   2.759
97619W        W64160  10.254  42.253   2.897
97620W        W64161  42.706  19.156  10.619
97621W        W64162  12.179  33.843   4.621
97622W        W64163  25.261  14.525   3.746
97623W        W64164   0.742  38.008   1.141
97624W        W64165  31.881  41.563  11.235
97625W        W64166   2.412   5.905  10.786
97626W        W64167  31.972  29.443  13.752
97627W        W64168  37.510  13.155   1.157
97628W        W64169   5.336   6.924  11.982
97629W        W64170  23.309  43.231  14.918
97630W        W64171   0.984   2.822   0.670
97631W        W64172  11.776  28.548  11.001
97632W        W64173  23.675  17.078  14.855
97633W        W64174  19.074   7.731   1.467
97634W        W64175  16.954  17.516  10.141
97635W        W64176  38.895  23.583   4.671
97636W        W64177   8.672  37.834   4.995
97637W        W64178  36.658   2.404  13.460
97638W        W64179  32.895  11.358  14.856
97639W        W64180  36.353  43.031   2.310
97640W        W64181  15.413  27.221   3.403
97641W        W64182   9.118  31.865   4.187
97642W        W64183  20.102  23.586   0.709
97643W        W64184  21.719   2.798   1.676
97644W        W64185  27.725  21.591  12.467
97645W        W64186  35.565  42.015   0.397
97646W        W64187  23.505  25.426  13.011
97647W        W64188  10.139  22.170  10.733
97648W        W64189   0.949  24.417  10.967
97649W        W64190  24.874  44.897  11.387
97650W        W64191  10.759   7.631   1.199
97651W        W64192  21.461  21.708  10.526
97652W        W64193  10.883  16.279  13.793
97653W        W64194  20.224  20.724   2.092
97654W        W64195  11.097  18.028   1.581
97655W        W64196   3.221   7.623   1.724
97656W        W64197   8.321  21.276   1.181
97657W        W64198  36.509  42.647  14.430
97658W        W64199  28.508  27.524  10.749
97659W        W64200  43.349  43.974   2.328
97660W        W64201  12.635  18.758  12.186
97661W        W64202  35.182  39.368  10.419
97662W        W64203   5.339  44.379   1.949
97663W        W64204  21.529   2.472   1.266
97664W        W64205  40.221  44.256   0.470
97665W        W64206  33.900   9.581   2.650
97666W        W64207   1.411  39.253   3.823
97667W        W64208  42.960  43.828   1.376
97668W        W64209  44.995  36.584  12.523
97669W        W64210   3.788   1.140  11.146
97670W        W64211  17.948  41.347   3.137
97671W        W64212  34.346  15.995  12.282
97672W        W64213  23.637   7.763   1.752
97673W        W64214  12.797  22.006   1.819
97674W        W64215  39.659  44.453   1.991
97675W        W64216   1.717  26.861  11.881
97676W        W64217  21.199  11.221  14.430
97677W        W64218  27.456  21.973   4.357
97678W        W64219  34.883   9.545  11.543
97679W        W64220   4.454  19.231   1.803
97680W        W64221  42.216  23.107  13.330
97681W        W64222   5.754  44.135   0.705
97682W        W64223  12.848  14.814   3.038
97683W        W64224  31.613  16.169  13.067
97684W        W64225   4.597  14.303   1.833
97685W        W64226  44.012  22.273  10.774
97686W        W64227  37.451  24.567   4.066
97687W        W64228  40.362  23.418  12.013
97688W        W64229   2.120  21.720   4.857
97689W        W64230  17.913  38.738   3.682
97690W        W64231  25.181  42.326   1.889
97691W        W64232   2.069  25.334   4.875
97692W        W64233  31.387  15.042  12.040
97693W        W64234   6.085  11.626   3.050
97694W        W64235   1.992  37.077   3.680
97695W        W64236  42.563   8.597  13.587
97696W        W64237  32.076  44.367   5.048
97697W        W64238   9.762  11.202  13.940
97698W        W64239  40.361  28.017  12.986
97699W        W64240  16.563  11.837   1.439
97700W        W64241  22.122  34.261  11.874
97701W        W64242  17.873   0.829   2.603
97702W        W64243   0.802  31.938  13.467
97703W        W64244  14.235   0.276   2.164
97704W        W64245  18.462  14.979   2.202
97705W        W64246  36.108  19.858  11.987
97706W        W64247  16.249  10.235  12.392
97707W        W64248  32.330  10.156  14.004
97708W        W64249  32.962  35.086  11.400
97709W        W64250  13.598  38.272  14.892
97710W        W64251  34.219  32.941   3.723
97711W        W64252  32.627   2.726   2.351
97712W        W64253  12.155   0.808   2.740
97713W        W64254  35.256  28.518  12.322
97714W        W64255  14.824  33.838   0.897
97715W        W64256  26.042  25.942  12.882
97716W        W64257   0.389  40.496  13.312
97717W        W64258  44.022  10.796  12.636
97718W        W64259  44.304   6.170   3.985
97719W        W64260  23.315  40.874  11.535
97720W        W64261  10.224  44.496   0.226
97721W        W64262  38.255  39.092  12.880
97722W        W64263   8.805  18.284  11.495
97723W        W64264  35.649  32.316  14.478
97724W        W64265  14.777  33.050   4.113
97725W        W64266  25.486   7.779  13.556
97726W        W64267   3.869  30.157   4.289
97727W        W64268  23.222  21.074   0.252
97728W        W64269  43.426  44.020  10.520
97729W        W64270   1.295  14.651  14.678
97730W        W64271   8.895  21.066   0.364
97731W        W64272  11.817   0.249  13.324
97732W        W64273  43.701  26.451   1.227
97733W        W64274  11.011   1.763   4.159
97734W        W64275  11.310  25.012  14.330
97735W        W64276  22.442  31.582  12.915
97736W        W64277  13.377  16.146  13.742
97737W        W64278   6.750   0.204  13.411
97738W        W64279  27.074  23.557   2.795
97739W        W64280  28.892   7.829   4.857
97740W        W64281  40.586  34.618   2.766
97741W        W64282  42.274  11.146   1.431
97742W        W64283  11.302  44.220  12.442
97743W        W64284  12.830  32.970  13.947
97744W        W64285   2.822  36.698   1.446
97745W        W64286  44.611  17.273   2.705
97746W        W64287  28.169   0.783   4.588
97747W        W64288  43.301  27.559   0.858
97748W        W64289  27.009  17.735   3.219
97749W        W64290   0.745  33.612  10.714
97750W        W64291  13.828  44.973   2.490
97751W        W64292  35.060  41.266  11.703
97752W        W64293  23.601  26.785   2.598
97753W        W64294  23.135  40.803   3.359
97754W        W64295  26.197   6.468   2.790
97755W        W64296  32.621  22.943   0.409
97756W        W64297  30.478  33.886   2.353
97757W        W64298  33.456   2.921   0.759
97758W        W64299   4.351  16.376  12.107
97759W        W64300   6.556   8.581   2.622
97760W        W64301  41.275  34.471   2.137
97761W        W64302  17.138  17.869  14.213
97762W        W64303  24.783  34.886   1.743
97763W        W64304  16.584  16.941  14.844
97764W        W64305  22.132  16.345  13.430
97765W        W64306  22.735  21.443  11.988
97766W        W64307  30.363  42.578   3.342
97767W        W64308  40.376  29.152  11.716
97768W        W64309   7.974  33.497  14.409
97769W        W64310  42.855  36.841   3.764
97770W        W64311  41.320  18.347  12.357
97771W        W64312   0.674  35.603  12.495
97772W        W64313   9.055  17.987   0.822
97773W        W64314  30.531  44.429  10.680
97774W        W64315  31.022  12.299   3.633
97775W        W64316  10.398  28.054   4.252
97776W        W64317   1.999  12.915  12.083
97777W        W64318  44.947  14.255   2.288
97778W        W64319  18.446  17.524  12.948
97779W        W64320  31.288   2.893  12.926
97780W        W64321   7.542  40.583  11.557
97781W        W64322   9.202  10.216  11.075
97782W        W64323   0.886   2.908   3.059
97783W        W64324   9.214  14.996   0.402
97784W        W64325  37.794  17.091   3.671
97785W        W64326  29.649  35.677   2.686
97786W        W64327  13.837  28.530  14.778
97787W        W64328  37.752   1.886   2.430
97788W        W64329  25.568  21.628   0.562
97789W        W64330  39.433  23.963   1.680
97790W        W64331   3.009  35.648   4.586
97791W        W64332  41.311  26.810   2.742
97792W        W64333  17.050  35.176  11.755
97793W        W64334  13.112  32.951   4.475
97794W        W64335  18.655  31.536  12.860
97795W        W64336  10.262  32.211   1.997
97796W        W64337  30.842  11.796   0.674
97797W        W64338  11.364  40.854   1.984
97798W        W64339  38.763   3.351  13.381
97799W        W64340  23.111  30.769  11.432
97800W        W64341   7.314   3.885  13.677
97801W        W64342  27.037  17.481  14.968
97802W        W64343  23.479  35.605  12.492
97803W        W64344  13.869   3.757   4.126
97804W        W64345  27.498   2.279   2.337
97805W        W64346  13.301   4.054  14.726
97806W        W64347  27.946  15.303   2.514
97807W        W64348  19.610  35.468   4.943
97808W        W64349  22.606  18.199   1.407
97809W        W64350  29.970   2.023   1.801
97810W        W64351  28.422  11.906   3.228
97811W        W64352  32.034   7.559  11.734
97812W        W64353   2.415   6.632   4.930
97813W        W64354   0.074  40.686   1.396
97814W        W64355  22.807  37.005   3.583
97815W        W64356  42.817  35.729  12.692
97816W        W64357  25.140  38.112   4.187
97817W        W64358   7.719  17.704  12.456
97818W        W64359  10.136  38.255  13.859
97819W        W64360  44.916  18.832   3.629
97820W        W64361  11.795   1.223  11.283
97821W        W64362  27.410  40.811  11.128
97822W        W64363   3.267  13.233  11.301
97823W        W64364  26.406  25.698  11.986
97824W        W64365  36.098  21.138  14.778
97825W        W64366  19.551  39.867   3.279
97826W        W64367  27.625   0.825   4.345
97827W        W64368  36.389  43.945  12.251
97828W        W64369  13.452  10.213   3.248
97829W        W64370  37.435  32.003   4.278
97830W        W64371  20.489  14.075  12.530
97831W        W64372  39.781  42.840   2.886
97832W        W64373   2.909  11.311   0.306
97833W        W64374  32.171  32.700  12.009
97834W        W64375   6.724  16.090  14.920
97835W        W64376  32.348  10.921   1.983
97836W        W64377  22.801   6.733   3.281
97837W        W64378   0.176  27.386   0.214
97838W        W64379  28.094  33.135   1.807
97839W        W64380  32.582  39.403  12.095
97840W        W64381  38.944   3.008   0.332
97841W        W64382   4.902   2.081   2.719
97842W        W64383   1.283  10.272  12.892
97843W        W64384  30.146  20.587  10.759
97844W        W64385  11.922  41.769   4.121
97845W        W64386  19.821  20.141   4.651
97846W        W64387  27.728  43.199   3.715
97847W        W64388  18.772  11.426  12.600
97848W        W64389   4.326   7.796   1.146
97849W        W64390   4.883  44.676   4.166
97850W        W64391   9.547  12.089  12.177
97851W        W64392  28.861  23.434  12.778
97852W        W64393  11.869  26.104  11.558
97853W        W64394  35.561  14.879   0.062
97854W        W64395  34.059  44.285   3.897
97855W        W64396  18.193  30.865   5.120
97856W        W64397  32.070   4.481  14.892
97857W        W64398  43.018   9.195  10.646
97858W        W64399   1.894  17.292  12.932
97859W        W64400  40.958   4.878   2.266
97860W        W64401   7.713  11.205   0.328
97861W        W64402   1.499  20.096  14.023
97862W        W64403  26.158  28.870   1.430
97863W        W64404  15.929  43.971  10.376
97864W        W64405  42.962  30.323   3.211
97865W        W64406  13.443  12.587  12.133
97866W        W64407   8.624  37.697  13.254
97867W        W64408  14.660  12.435   4.090
97868W        W64409  16.056   0.869  12.613
97869W        W64410   2.052  16.611  13.868
97870W        W64411  12.668   3.170  13.456
97871W        W64412  29.770  32.125   2.062
97872W        W64413   1.240  44.447  13.747
97873W        W64414  30.833  43.819  11.280
97874W        W64415   1.175  10.232  10.932
97875W        W64416  30.508  24.578   3.331
97876W        W64417   3.014  12.064   3.027
97877W        W64418  43.452  12.688  12.221
97878W        W64419   1.606  21.546   0.357
97879W        W64420  10.956  26.502  13.118
97880W        W64421   7.827  26.612  14.124
97881W        W64422  15.060  20.794   4.060
97882W        W64423  26.583  12.846   2.452
97883W        W64424  29.225  15.244  14.830
97884W        W64425  42.414  36.213   3.624
97885W        W64426  41.967  38.071   2.657
97886W        W64427  27.072  20.652   5.013
97887W        W64428   1.316   0.180  12.961
97888W        W64429  17.319  25.618   2.249
97889W        W64430   9.089  23.940  13.767
97890W        W64431   8.868  35.460   0.302
97891W        W64432   6.198   8.814   2.312
97892W        W64433   2.377  35.477  13.572
97893W        W64434  31.085  14.790   9.738
97894W        W64435  17.634  17.594  11.131
97895W        W64436  34.369  36.656  11.597
97896W        W64437  42.489  11.581   4.579
97897W        W64438   9.943  42.969   1.633
97898W        W64439  24.638  30.887  12.982
97899W        W64440  43.927  37.487  12.589
97900W        W64441   3.607  23.095  10.995
97901W        W64442  35.246  10.500  12.104
97902W        W64443  20.763  21.450   0.471
97903W        W64444  20.237  32.880   4.632
97904W        W64445  43.879   2.508   1.838
97905W        W64446   0.517  16.566  12.978
97906W        W64447  16.724   5.707  11.904
97907W        W64448  42.433   1.792   3.565
97908W        W64449  34.663   2.766   9.894
97909W        W64450   5.757  29.471   1.357
97910W        W64451   6.667   8.809   3.062
97911W        W64452  41.388  30.842  10.674
97912W        W64453  10.905  26.681  13.999
97913W        W64454  19.502  30.284   3.110
97914W        W64455  23.206  37.617   1.034
97915W        W64456  42.742  33.126  11.419
97916W        W64457  24.603   3.577  12.125
97917W        W64458   7.959   2.819   4.020
97918W        W64459  19.138   3.677   0.744
97919W        W64460  33.926  11.834   0.181
97920W        W64461  27.232  23.079  12.609
97921W        W64462  20.221  38.398  12.737
97922W        W64463   5.691  44.199   3.258
97923W        W64464   5.587  41.725  11.981
97924W        W64465  21.707  18.740   0.266
97925W        W64466  39.135   3.652  11.529
97926W        W64467  35.012  28.968  12.282
97927W        W64468  32.589  26.065  13.908
97928W        W64469  37.819  40.301  14.925
97929W        W64470  23.765  43.474   4.619
97930W        W64471  16.025  23.400   4.243
97931W        W64472   0.767  13.081   1.671
97932W        W64473  12.872  37.967   0.827
97933W        W64474  21.062  36.951   3.191
97934W        W64475  10.380  38.977   2.749
97935W        W64476  28.939  10.664   0.698
97936W        W64477  30.425  12.572   0.434
97937W        W64478  11.226  11.933  11.188
97938W        W64479  24.403   5.471   3.903
97939W        W64480  27.438  29.977   1.819
97940W        W64481  20.429  33.244  13.996
97941W        W64482  31.829   4.321   1.856
97942W        W64483  43.368   2.801   4.651
97943W        W64484  11.646  16.277  12.478
97944W        W64485  34.812  42.437  13.368
97945W        W64486   9.616  26.362  14.397
97946W        W64487  21.704   2.392   4.710
97947W        W64488  33.006  24.710   3.807
97948W        W64489  41.853  31.759   1.255
97949W        W64490  39.998  44.904   1.837
97950W        W64491   5.403   3.352   2.900
97951W        W64492   6.391  40.973  13.552
97952W        W64493  36.667  21.029  11.597
97953W        W64494  35.675  40.350  12.445
97954W        W64495   3.724   6.197  12.071
97955W        W64496  36.834  15.818  12.513
97956W        W64497  32.123  34.094  14.729
97957W        W64498  13.511  23.657   1.030
97958W        W64499  43.531  18.283  13.763
97959W        W64500  16.190  38.692   3.160
97960W        W64501  30.045  13.257  14.009
97961W        W64502  22.705  30.985  13.542
97962W        W64503  26.703  30.144  11.816
97963W        W64504   2.608  37.014  14.068
97964W        W64505  19.243  11.658  14.684
97965W        W64506  27.405  33.827  13.053
97966W        W64507  30.501   3.237   1.399
97967W        W64508  39.558  22.658   0.927
97968W        W64509  10.606  23.734   2.860
97969W        W64510   3.403   2.224   0.700
97970W        W64511  12.153  22.174   0.685
97971W        W64512  15.157  18.325  10.711
97972W        W64513  14.308  44.060  10.836
97973W        W64514  19.391  21.795  12.877
97974W        W64515   6.712  24.803   2.363
97975W        W64516   3.894  40.130  11.583
97976W        W64517  31.942  10.198  10.445
97977W        W64518  17.665   7.970  13.516
97978W        W64519   0.389  43.892  14.807
97979W        W64520  34.490   7.974   3.159
97980W        W64521  15.315   9.739   0.738
97981W        W64522  38.223  33.916  12.824
97982W        W64523  43.250  44.273  13.039
97983W        W64524  26.111  26.700   4.299
97984W        W64525  32.373  31.571   4.094
97985W        W64526  35.833   8.597  14.420
97986W        W64527  36.410  19.747   0.889
97987W        W64528  23.959  30.982  12.233
97988W        W64529  33.748   7.711  14.242
97989W        W64530  29.063  22.668  10.954
97990W        W64531  24.296   7.878  14.929
97991W        W64532  27.600  32.422  10.639
97992W        W64533  14.336  21.639   0.011
97993W        W64534  28.298  14.853   4.278
97994W        W64535  29.104  18.151   3.572
97995W        W64536   1.951   2.900   3.366
97996W        W64537  18.720  21.558  13.495
97997W        W64538  19.106   3.198  12.418
97998W        W64539  34.032  13.352   2.528
97999W        W64540  11.856   1.938  11.989
98000W        W64541  16.783  22.095  14.282
98001W        W64542   9.383  37.838   0.395
98002W        W64543  41.477  20.981   0.742
98003W        W64544   2.812  13.678   4.253
98004W        W64545  36.306  24.634   3.186
98005W        W64546   1.413  17.175   1.469
98006W        W64547  20.037  35.843  11.225
98007W        W64548  43.236  27.362  13.536
98008W        W64549  20.230  18.040   0.236
98009W        W64550  19.820  18.193  12.025
98010W        W64551  22.268  38.196   4.161
98011W        W64552  21.929   9.687   3.948
98012W        W64553   4.815  13.815  12.574
98013W        W64554  39.843  31.653  10.566
98014W        W64555   2.690  36.601  11.084
98015W        W64556   0.894  36.505  11.250
98016W        W64557   1.774  43.483   1.507
98017W        W64558   3.841  19.975   0.231
98018W        W64559  22.984  40.355   2.980
98019W        W64560  26.765  20.957   4.062
98020W        W64561   7.190  25.719   2.226
98021W        W64562  27.198  31.808  12.528
98022W        W64563  39.309   0.931   4.462
98023W        W64564  44.654  13.555  13.132
98024W        W64565  14.650  33.130   3.230
98025W        W64566  35.893   5.660   1.395
98026W        W64567  38.679  14.925  10.370
98027W        W64568  13.866  24.665   0.878
98028W        W64569   0.354  42.824   4.185
98029W        W64570  16.077  23.821   1.272
98030W        W64571   9.211  38.871  12.884
98031W        W64572  12.617  39.677  12.968
98032W        W64573  30.456  29.219   1.630
98033W        W64574  23.953  34.950  13.820
98034W        W64575   2.684  17.523  11.994
98035W        W64576  39.048  13.443   1.900
98036W        W64577  19.937  27.375   1.475
98037W        W64578  33.582   8.157  10.658
98038W        W64579  26.919  10.387  14.811
98039W        W64580  44.019   9.850   2.772
98040W        W64581  19.480  33.580   2.219
98041W        W64582  43.772  16.672  10.470
98042W        W64583  19.805   4.727  12.535
98043W        W64584  38.420  23.711   2.414
98044W        W64585  37.978  20.480   1.257
98045W        W64586   9.521  21.053  12.850
98046W        W64587  40.499  23.151   0.859
98047W        W64588  21.024  37.493  14.874
98048W        W64589  42.870  44.477  14.705
98049W        W64590  40.797  29.897  11.604
98050W        W64591   4.383  34.423   3.418
98051W        W64592   6.866  12.761  11.611
98052W        W64593   3.022   7.931   0.884
98053W        W64594  43.315  33.366  11.796
98054W        W64595  11.354   5.980   4.833
98055W        W64596  21.282   2.886  14.924
98056W        W64597   7.142  16.583   3.019
98057W        W64598  42.671  26.150   3.669
98058W        W64599  38.538  25.462  12.664
98059W        W64600  16.292   3.910   1.776
98060W        W64601   1.999   5.337   2.679
98061W        W64602   1.754  32.955  13.469
98062W        W64603  44.391  13.361   1.819
98063W        W64604   1.439  38.875  11.633
98064W        W64605  31.081  32.307   4.564
98065W        W64606  20.088  16.800  10.674
98066W        W64607   2.326  42.482   2.653
98067W        W64608  31.193  27.213  14.095
98068W        W64609  35.626  18.289   2.439
98069W        W64610  37.026  17.666   1.779
98070W        W64611  33.885  40.762  12.042
98071W        W64612  21.084  18.615  13.923
98072W        W64613  39.513  16.692  12.891
98073W        W64614  12.551  35.125  11.982
98074W        W64615  42.058  35.844  12.415
98075W        W64616  13.707  38.999   2.896
98076W        W64617   4.325  20.858  13.022
98077W        W64618   4.269  12.696   3.809
98078W        W64619  24.246  25.191   0.782
98079W        W64620  21.642  24.716  11.624
98080W        W64621  40.377  37.182   0.754
98081W        W64622  26.222  29.046   3.276
98082W        W64623   5.668   4.982   3.130
98083W        W64624   4.219   0.721  11.982
98084W        W64625  19.084   3.083   4.301
98085W        W64626   9.111  39.742  12.931
98086W        W64627   3.615  36.489  12.062
98087W        W64628  34.913   0.762  14.429
98088W        W64629  30.145  20.447   4.012
98089W        W64630  12.955   6.367  13.809
98090W        W64631  39.188  35.949   2.220
98091W        W64632  39.860  37.210  14.407
98092W        W64633  40.465   9.205   1.894
98093W        W64634   6.867  19.311   0.703
98094W        W64635  29.482   1.719  12.574
98095W        W64636  18.025  15.974  10.979
98096W        W64637  23.001  31.614  13.833
98097W        W64638  41.790   9.619   4.263
98098W        W64639  17.182  32.195  10.168
98099W        W64640  29.161  39.485   4.440
98100W        W64641   8.353  33.148   2.302
98101W        W64642  12.684  35.809  13.934
98102W        W64643   0.998  10.719   0.380
98103W        W64644  25.228   7.276  10.864
98104W        W64645  36.649  33.062  14.909
98105W        W64646  22.023  19.797   4.599
98106W        W64647  23.003  40.064   2.387
98107W        W64648  35.396   2.015  14.368
98108W        W64649  22.719   0.322  11.251
98109W        W64650   3.509  24.636   1.798
98110W        W64651  43.364  32.266  10.658
98111W        W64652  31.506  14.185   1.237
98112W        W64653   4.348   4.964  13.822
98113W        W64654  16.210   9.936   4.841
98114W        W64655  38.261  11.231  12.356
98115W        W64656  41.819   4.728  10.856
98116W        W64657  37.055  36.911  14.343
98117W        W64658  33.129  32.336  14.488
98118W        W64659  34.279  16.616  11.474
98119W        W64660  40.501  18.119   0.838
98120W        W64661  16.641   2.386  11.558
98121W        W64662  41.270  31.464   2.889
98122W        W64663   1.114  32.913  12.722
98123W        W64664  18.100   3.947   0.924
98124W        W64665  27.374  12.094  14.859
98125W        W64666  20.697   4.061  11.197
98126W        W64667   1.509   4.703  14.954
98127W        W64668  34.009   9.167   3.868
98128W        W64669  26.164  17.869  14.739
98129W        W64670  43.666  25.680   4.645
98130W        W64671  33.394  11.213   2.576
98131W        W64672  35.362  16.727   1.207
98132W        W64673   8.053  10.061   4.859
98133W        W64674  24.569  29.907   4.268
98134W        W64675  32.499  38.490  10.667
98135W        W64676   0.935   5.223  10.746
98136W        W64677   2.168  22.907  14.835
98137W        W64678  10.147  19.141  10.460
98138W        W64679  28.788  30.423   3.154
98139W        W64680  12.273  10.575   4.075
98140W        W64681  20.354  21.770   4.754
98141W        W64682  19.066   8.254   2.845
98142W        W64683  38.863  21.453  13.375
98143W        W64684   3.740  26.916  14.813
98144W        W64685  12.361  25.592  12.062
98145W        W64686  33.061   4.411  13.838
98146W        W64687  24.875  25.048  12.595
98147W        W64688   3.927  31.644  13.959
98148W        W64689  23.590   0.147  11.145
98149W        W64690   2.282  25.774   1.822
98150W        W64691  10.668  23.729  13.427
98151W        W64692   3.853   6.884   0.405
98152W        W64693   0.884  37.982  11.416
98153W        W64694   8.011  43.464   0.379
98154W        W64695  39.036  26.276   5.039
98155W        W64696  31.048  37.730   4.539
98156W        W64697  39.841  24.144   1.371
98157W        W64698  20.664  19.764   2.815
98158W        W64699  23.700  44.280  13.684
98159W        W64700  43.710  15.904  12.927
98160W        W64701   5.006  30.980  14.408
98161W        W64702  12.224  37.491  11.682
98162W        W64703  29.621  26.207  13.088
98163W        W64704  20.163  44.260   2.282
98164W        W64705  27.031  38.419   0.900
98165W        W64706   1.323  21.421  10.365
98166W        W64707   3.062   3.672  10.369
98167W        W64708  28.650  28.512   3.267
98168W        W64709   0.576  43.312  11.732
98169W        W64710   8.742  44.392   5.010
98170W        W64711  14.747   4.673  13.052
98171W        W64712   8.362   1.042   0.759
98172W        W64713  34.510  39.422  11.571
98173W        W64714  31.783  15.397   4.327
98174W        W64715   9.633  23.208  13.896
98175W        W64716  20.724  20.263   5.200
98176W        W64717  33.843   0.288   3.215
98177W        W64718  22.456  34.951   4.070
98178W        W64719   5.770   3.487   3.711
98179W        W64720  20.192  12.473   4.063
98180W        W64721   6.551  40.056   4.843
98181W        W64722  32.966  22.648   1.831
98182W        W64723  20.091  26.964   0.785
98183W        W64724  41.358   8.839  13.038
98184W        W64725  17.543  18.504  11.777
98185W        W64726  19.517  23.992  12.482
98186W        W64727  33.367  27.471  14.025
98187W        W64728  12.378  13.375   0.455
98188W        W64729  24.114  20.210  12.393
98189W        W64730   0.399  24.004   0.821
98190W        W64731  13.877   1.266   1.749
98191W        W64732   4.419  11.802  14.015
98192W        W64733  22.178   7.409   0.803
98193W        W64734   3.747  19.657  12.997
98194W        W64735  27.709  15.502  10.573
98195W        W64736  26.415  34.807   2.286
98196W        W64737   6.970   6.734   1.285
98197W        W64738   6.644  12.185   0.202
98198W        W64739   0.440   2.117   0.251
98199W        W64740   9.355  25.665  13.805
98200W        W64741  12.161  43.006  10.797
98201W        W64742  41.499  15.317   4.612
98202W        W64743  18.118  38.036   2.437
98203W        W64744  37.632  17.021   3.147
98204W        W64745  35.594  35.149   2.256
98205W        W64746  29.582  44.529  13.127
98206W        W64747  25.005  36.384   3.230
98207W        W64748  38.131   8.408   1.512
98208W        W64749  23.560   3.311  10.781
98209W        W64750  32.022   3.928   3.203
98210W        W64751  18.404  35.765   3.675
98211W        W64752  31.723   0.861  10.281
98212W        W64753  21.760  36.498  14.062
98213W        W64754  41.248   3.345  12.473
98214W        W64755  34.439  29.448   0.759
98215W        W64756  21.559   9.285  13.458
98216W        W64757   1.893   7.414   1.843
98217W        W64758  14.468   7.090  11.606
98218W        W64759  14.928  20.923  14.527
98219W        W64760  20.542  32.416  13.006
98220W        W64761  41.347  13.746  11.632
98221W        W64762  34.977  27.137   1.280
98222W        W64763  16.276  22.999   3.999
98223W        W64764  18.678  27.254   1.691
98224W        W64765  31.236  18.747   5.111
98225W        W64766   5.715  40.194  10.419
98226W        W64767  32.132  22.980   4.830
98227W        W64768  29.944  29.352  13.470
98228W        W64769  21.895   3.411  13.588
98229W        W64770   6.371   8.588  14.436
98230W        W64771  20.942  14.560  14.838
98231W        W64772  26.894  14.656  12.061
98232W        W64773  21.082  23.015  13.892
98233W        W64774  23.456  33.723   0.811
98234W        W64775  37.137  34.466  11.410
98235W        W64776  35.911  21.610  11.385
98236W        W64777  29.734  38.135  13.616
98237W        W64778   1.892  26.522   2.699
98238W        W64779   9.573  31.072  12.886
98239W        W64780  28.994  37.153   4.337
98240W        W64781  39.840  35.958  14.887
98241W        W64782  30.822   3.747   4.691
98242W        W64783  19.120  39.094  14.404
98243W        W64784  16.600  36.067  14.743
98244W        W64785  30.174   3.224  11.499
98245W        W64786  21.255  44.261   3.194
98246W        W64787  42.706   9.609  12.958
98247W        W64788  24.078   0.683   4.690
98248W        W64789  29.563  40.394  10.756
98249W        W64790  16.632  42.571  11.147
98250W        W64791  12.752  38.617  14.703
98251W        W64792  43.277  24.451  13.460
98252W        W64793  30.855   1.521  10.400
98253W        W64794  13.512  44.703   1.730
98254W        W64795  37.993  44.958  13.459
98255W        W64796  34.573  19.082  11.637
98256W        W64797  19.981  12.583  11.728
98257W        W64798  29.661  25.425  13.774
98258W        W64799  22.747  16.256   4.126
98259W        W64800  18.199  27.042  10.641
98260W        W64801  15.229  40.687   3.387
98261W        W64802  39.430  34.327   1.319
98262W        W64803  35.053  40.991  12.208
98263W        W64804  30.771  26.108   0.239
98264W        W64805  23.090  12.168  10.809
98265W        W64806   3.290  27.110   2.169
98266W        W64807  22.951  38.795  14.373
98267W        W64808  18.508  20.248   1.248
98268W        W64809  38.308  25.367   0.233
98269W        W64810  24.598  30.469  12.629
98270W        W64811   7.661  11.037   4.172
98271W        W64812  23.433  28.951  11.598
98272W        W64813  39.063  25.410  10.593
98273W        W64814  14.405   0.309  13.317
98274W        W64815  19.308  24.099  13.987
98275W        W64816  26.654  37.405  10.472
98276W        W64817  32.254  29.186   1.459
98277W        W64818  32.060   3.717   0.309
98278W        W64819  11.477  11.127   1.367
98279W        W64820   6.060  35.553   4.798
98280W        W64821   2.251   3.303   0.992
98281W        W64822  13.824  17.940  11.142
98282W        W64823  21.199  18.324   4.127
98283W        W64824  30.268  27.831  12.867
98284W        W64825  13.020  23.732  10.753
98285W        W64826  12.695  11.736   1.423
98286W        W64827  44.048  21.186   4.021
98287W        W64828  13.927  40.971   3.597
98288W        W64829  32.986   2.783   2.730
98289W        W64830  14.644  33.422  14.039
98290W        W64831  19.590   0.317   2.240
98291W        W64832   0.070  38.131   1.760
98292W        W64833  44.398  31.901  10.763
98293W        W64834  42.015  18.532  12.056
98294W        W64835  41.837  40.550   3.313
98295W        W64836  24.073  12.972  12.687
98296W        W64837  23.660  26.640  10.817
98297W        W64838  39.906   5.664   2.890
98298W        W64839  41.743  12.273   2.317
98299W        W64840  20.168   7.196   4.923
98300W        W64841  30.663  31.455  11.705
98301W        W64842   2.263  19.305  11.892
98302W        W64843  44.378   0.440  11.966
98303W        W64844  39.697  20.687   2.770
98304W        W64845  27.949  36.530  12.458
98305W        W64846  13.449  11.578  11.998
98306W        W64847  25.562  41.998  10.719
98307W        W64848  22.268   1.962  10.715
98308W        W64849  14.879  29.895   3.116
98309W        W64850  44.359  16.237   0.471
98310W        W64851   3.197  18.785   2.078
98311W        W64852  41.987   3.424   3.671
98312W        W64853  24.994   3.335   3.464
98313W        W64854  38.024  29.153   1.439
98314W        W64855  40.486  25.658   2.756
98315W        W64856  26.758  15.297  11.987
98316W        W64857   3.887  11.632   1.185
98317W        W64858  18.668  32.813   0.138
98318W        W64859  38.962  13.164   3.112
98319W        W64860  25.093  16.428  12.220
98320W        W64861  16.021   7.779   1.295
98321W        W64862  41.931  19.566  13.922
98322W        W64863  17.667   9.279   4.241
98323W        W64864  24.109  26.150   1.572
98324W        W64865  19.857  13.113  13.118
98325W        W64866  44.624   4.926  13.115
98326W        W64867   4.696  35.958   1.957
98327W        W64868   5.977  26.578  14.412
98328W        W64869  30.707  22.934   4.088
98329W        W64870  28.550   3.867  13.097
98330W        W64871  30.473  29.316   5.070
98331W        W64872  31.622  39.609   0.390
98332W        W64873  41.630  13.815   0.167
98333W        W64874   4.844   6.016  10.235
98334W        W64875   4.638  13.698   3.714
98335W        W64876  23.480   8.817   1.254
98336W        W64877  31.481   4.965  10.485
98337W        W64878  40.136   1.955   4.451
98338W        W64879  37.247  25.624  14.484
98339W        W64880   9.771  16.363   0.437
98340W        W64881  15.321  31.080  14.517
98341W        W64882   7.499  21.344  13.003
98342W        W64883  32.043  22.647  14.601
98343W        W64884  37.159   7.105  12.030
98344W        W64885  18.478  26.677  14.824
98345W        W64886  42.953  28.935   0.707
98346W        W64887  11.658  40.578  12.930
98347W        W64888  12.425  17.719  11.959
98348W        W64889  38.441  43.751   0.455
98349W        W64890  14.259   7.345  10.749
98350W        W64891  33.111   1.782  13.373
98351W        W64892  30.535   9.548  12.035
98352W        W64893  39.527  33.803   1.310
98353W        W64894  17.479   2.170  10.549
98354W        W64895  12.946  39.904   4.491
98355W        W64896  34.465  35.613  12.095
98356W        W64897  17.966  14.831  13.776
98357W        W64898  37.738  33.114  14.387
98358W        W64899  42.424  37.068  12.813
98359W        W64900   7.530  34.041  14.417
98360W        W64901  38.233  21.039   1.930
98361W        W64902  38.874  25.655   3.670
98362W        W64903  33.599  20.915  14.503
98363W        W64904  33.634  33.588  11.928
98364W        W64905   6.888  44.296  11.864
98365W        W64906  20.501  23.801   2.817
98366W        W64907  41.823  24.245   3.199
98367W        W64908   6.633  11.939  12.027
98368W        W64909  39.197  39.452  13.886
98369W        W64910  29.973  44.478   3.417
98370W        W64911  36.258  28.759  12.517
98371W        W64912  17.054  17.985   3.919
98372W        W64913  12.822  23.051   1.325
98373W        W64914  15.240  34.470   3.390
98374W        W64915  19.837   7.845  14.362
98375W        W64916  38.555  33.054   0.295
98376W        W64917  22.161  32.125   0.296
98377W        W64918  11.564  30.414   3.472
98378W        W64919  17.785  20.732   3.209
98379W        W64920  14.830   2.982  12.191
98380W        W64921  25.500  34.706  13.478
98381W        W64922  22.153  43.983  12.957
98382W        W64923   7.382  27.289  13.691
98383W        W64924  34.435  39.851   3.556
98384W        W64925  36.970   2.955  12.316
98385W        W64926  14.297  44.508  13.934
98386W        W64927   3.913  20.071  13.276
98387W        W64928   4.997  18.021  12.214
98388W        W64929  36.803  36.896  14.789
98389W        W64930   6.804  26.697  13.445
98390W        W64931  39.052  28.874  13.152
98391W        W64932  25.370  23.668   1.700
98392W        W64933  16.694  29.911   4.169
98393W        W64934  36.448  11.133  14.408
98394W        W64935  26.472  28.932   3.718
98395W        W64936  31.227  34.497  11.460
98396W        W64937  16.304  26.567  14.028
98397W        W64938  30.835  11.807  10.208
98398W        W64939  37.795  17.091  11.551
98399W        W64940  14.532  28.975   3.268
98400W        W64941  42.472  24.503  10.851
98401W        W64942  21.535  30.596   4.548
98402W        W64943  33.811  38.396  13.472
98403W        W64944   4.291  40.942  10.974
98404W        W64945   0.048  33.399   1.084
98405W        W64946   3.963   3.050   1.250
98406W        W64947  29.503  38.792  14.090
98407W        W64948   9.421  36.002  13.552
98408W        W64949  11.777  38.827  10.615
98409W        W64950   4.486  35.820  13.719
98410W        W64951  31.461  34.768   0.494
98411W        W64952   0.880  25.496   2.199
98412W        W64953  40.403  17.306   1.867
98413W        W64954   5.026   5.643  12.098
98414W        W64955  42.894  24.261  14.931
98415W        W64956  25.085  31.016   2.461
98416W        W64957   0.132  25.000  12.089
98417W        W64958   9.189  27.449  14.975
98418W        W64959  28.634  37.464   3.731
98419W        W64960  43.990  27.242   0.709
98420W        W64961  34.499  24.530   2.917
98421W        W64962  30.480  24.517  13.702
98422W        W64963  37.441  28.808  12.069
98423W        W64964  41.863  39.804  12.829
98424W        W64965  30.978   1.407   2.810
98425W        W64966  14.227   5.208   2.796
98426W        W64967  40.513  10.454   1.793
98427W        W64968  19.028  32.731   3.089
98428W        W64969  19.954  24.811   2.689
98429W        W64970  14.559  26.165   2.314
98430W        W64971  36.944   0.495   2.537
98431W        W64972   3.781  17.148  14.756
98432W        W64973  42.268  18.448  11.096
98433W        W64974   6.727  37.877   0.301
98434W        W64975  29.136  44.334   0.310
98435W        W64976   6.751   1.378  14.384
98436W        W64977  19.734  41.584   2.701
98437W        W64978   8.642   0.013   0.323
98438W        W64979  35.387  36.587  13.938
98439W        W64980  27.195  12.909   3.819
98440W        W64981  25.178  15.023  13.839
98441W        W64982  40.920  41.295   1.453
98442W        W64983  22.041  15.055   0.729
98443W        W64984  31.911   7.878   5.007
98444W        W64985   3.409  39.814  11.545
98445W        W64986  24.169   7.231  14.504
98446W        W64987   2.472   8.178  12.470
98447W        W64988  40.417  11.791   0.532
98448W        W64989  19.612   5.758  10.892
98449W        W64990  44.348  11.101   0.929
98450W        W64991  16.969  20.597   4.576
98451W        W64992   6.383   1.861   3.250
98452W        W64993  11.027  27.377  12.518
98453W        W64994  17.068   4.021  13.867
98454W        W64995  27.510  17.264  14.908
98455W        W64996  27.677  43.756   3.701
98456W        W64997  21.475  41.218  14.858
98457W        W64998  34.473  20.243   4.652
98458W        W64999  11.153  28.769  14.905
98459W        W65000  39.741  14.661  14.904
98460W        W65001  13.263  31.793   0.735
98461W        W65002   7.339  30.942  13.412
98462W        W65003  32.971  18.852   2.755
98463W        W65004  27.047   9.353  11.072
98464W        W65005  30.537  35.881  12.628
98465W        W65006   5.797  35.866   0.919
98466W        W65007  40.935  22.284   2.517
98467W        W65008  43.856   8.347   4.798
98468W        W65009  25.502  43.808   0.270
98469W        W65010  24.130  42.765   4.145
98470W        W65011  20.273   0.679   2.237
98471W        W65012  33.937   0.051   2.625
98472W        W65013  14.755  36.805  14.377
98473W        W65014  17.320  21.260   2.614
98474W        W65015  38.322  26.103   4.713
98475W        W65016   7.388   8.210  13.570
98476W        W65017   8.871  15.898   0.351
98477W        W65018  41.992  16.629  12.512
98478W        W65019  10.207  12.583  11.905
98479W        W65020  21.678   9.711   0.939
98480W        W65021  22.974   7.103  11.119
98481W        W65022  14.357  28.440  14.808
98482W        W65023  15.744   4.494   0.311
98483W        W65024  22.736   7.477   2.768
98484W        W65025  23.322  17.542   2.926
98485W        W65026  39.844  31.852   4.523
98486W        W65027  22.329   8.845   2.101
98487W        W65028  33.546  28.457   4.981
98488W        W65029  43.661   6.087  14.993
98489W        W65030  31.316  11.877   3.194
98490W        W65031  22.162  41.576   4.648
98491W        W65032  38.982  31.409  10.748
98492W        W65033  28.326  32.934   1.390
98493W        W65034  24.530  28.887   1.802
98494W        W65035  43.837  29.877  14.614
98495W        W65036  37.318  33.059  11.081
98496W        W65037  16.453   0.959   0.501
98497W        W65038  35.541   5.258   2.128
98498W        W65039  13.381  37.375  11.458
98499W        W65040  20.246  33.640  10.645
98500W        W65041  15.430  18.289   3.998
98501W        W65042   0.536  29.046  10.746
98502W        W65043   8.155   6.582  11.981
98503W        W65044  13.771   6.764  11.086
98504W        W65045  36.008  36.075  12.525
98505W        W65046   3.240  11.925   4.748
98506W        W65047  37.242  43.288  10.503
98507W        W65048  43.199  44.747   3.665
98508W        W65049  44.833  33.943   2.185
98509W        W65050  32.542   4.283  12.381
98510W        W65051  44.756  35.817  14.458
98511W        W65052  27.975   7.155  11.661
98512W        W65053  23.983  27.742  13.396
98513W        W65054   9.077  12.503  11.625
98514W        W65055  25.428  40.574   0.030
98515W        W65056  11.386  17.776  13.921
98516W        W65057   7.713  18.734   0.889
98517W        W65058  32.927  28.920  11.053
98518W        W65059  31.530  14.411  12.906
98519W        W65060   4.659  37.122  14.707
98520W        W65061  29.603  20.869   4.590
98521W        W65062   0.036  28.866   4.380
98522W        W65063   7.383  38.054  11.220
98523W        W65064  25.325  11.606   2.263
98524W        W65065  17.653  16.250  11.707
98525W        W65066  11.354  25.706  12.052
98526W        W65067  38.390  14.636   3.169
98527W        W65068  11.355  29.344   3.126
98528W        W65069  31.415  15.873   4.618
98529W        W65070  37.361  15.159  14.007
98530W        W65071  25.304  26.633   0.901
98531W        W65072  16.386  15.019   1.285
98532W        W65073   3.250  40.583  12.069
98533W        W65074  40.348  42.106  11.178
98534W        W65075   0.835  10.940   1.920
98535W        W65076   7.455   1.241  11.163
98536W        W65077  17.502  12.612   4.745
98537W        W65078  42.382   2.814  13.970
98538W        W65079   3.303  23.482   2.401
98539W        W65080  37.784  14.586   4.143
98540W        W65081  11.625  44.419  14.982
98541W        W65082  41.878   2.760   2.233
98542W        W65083   1.348   9.349  14.334
98543W        W65084  21.313  28.408  11.263
98544W        W65085  37.559  43.595  14.230
98545W        W65086  29.037  37.312  11.792
98546W        W65087  24.109  38.812   4.976
98547W        W65088  23.112  35.590   3.632
98548W        W65089  26.388  35.428   1.523
98549W        W65090   7.254  17.419  12.326
98550W        W65091   3.156  36.742  12.055
98551W        W65092   5.416   3.520  12.303
98552W        W65093  41.962  26.023  14.512
98553W        W65094  42.950  32.066  12.555
98554W        W65095  27.143  22.630   3.311
98555W        W65096  27.080   5.647  14.336
98556W        W65097  27.727  17.789   2.665
98557W        W65098   6.447   0.530   2.307
98558W        W65099  18.568  42.461   1.433
98559W        W65100   8.186  25.571   0.211
98560W        W65101   0.881   5.427   2.817
98561W        W65102  10.800  19.019  11.210
98562W        W65103  16.394   9.580  11.118
98563W        W65104   3.250  19.850   1.492
98564W        W65105  43.479  30.144  13.847
98565W        W65106  10.877  17.096   3.372
98566W        W65107   7.140  11.292   1.412
98567W        W65108  25.438  10.390   1.825
98568W        W65109  23.201  11.734  14.942
98569W        W65110  17.050   0.938   1.854
98570W        W65111  18.206  44.533  13.514
98571W        W65112  10.509  27.074  11.492
98572W        W65113  27.102  42.014   3.024
98573W        W65114  37.063   8.482  10.683
98574W        W65115  36.893  15.141   1.900
98575W        W65116  42.009  43.388  12.989
98576W        W65117  42.465  12.697   0.767
98577W        W65118  42.762  42.388   2.244
98578W        W65119   4.206  31.678  13.503
98579W        W65120  21.849  24.636  14.780
98580W        W65121   2.864  34.358   2.295
98581W        W65122   7.898  20.165   0.940
98582W        W65123  24.893  32.732  12.499
98583W        W65124  18.884  36.531   1.132
98584W        W65125  30.353  17.252   1.320
98585W        W65126  42.644   9.127   1.766
98586W        W65127  28.867  16.658   0.717
98587W        W65128   1.542  35.844  10.641
98588W        W65129  26.114  33.323   2.821
98589W        W65130   9.174  34.100  11.021
98590W        W65131  15.063  22.672  12.029
98591W        W65132  15.387   5.316  13.466
98592W        W65133  19.748  29.589   3.642
98593W        W65134  33.985  26.957   0.359
98594W        W65135  36.880  10.287  10.825
98595W        W65136  44.513  18.847  11.562
98596W        W65137  43.471  16.756   1.848
98597W        W65138  31.056  39.988  13.043
98598W        W65139  40.595  39.066   3.225
98599W        W65140  44.301  39.357   1.463
98600W        W65141   0.732  10.270  11.173
98601W        W65142  13.892   5.939   0.545
98602W        W65143   0.442  40.331   4.369
98603W        W65144  17.479  24.563   4.092
98604W        W65145  36.992  28.903  10.771
98605W        W65146   9.306  16.481  13.840
98606W        W65147  22.229  30.609   4.241
98607W        W65148  32.867  24.181   1.884
98608W        W65149  44.980  24.755   0.306
98609W        W65150  25.884  12.716   4.624
98610W        W65151  28.736  42.491   1.701
98611W        W65152   5.215  31.029   0.744
98612W        W65153  13.228  24.940   3.031
98613W        W65154  19.910  28.050  14.007
98614W        W65155  34.617  35.501   0.072
98615W        W65156   3.048   6.882  14.476
98616W        W65157   3.587  33.045  13.952
98617W        W65158   7.698  13.845   3.170
98618W        W65159  43.409   2.273   1.845
98619W        W65160  21.654  13.760  14.701
98620W        W65161   9.143   4.476   0.067
98621W        W65162  20.987  21.888  11.127
98622W        W65163  34.510  21.186   0.598
98623W        W65164   4.540  34.632  12.474
98624W        W65165  11.667  23.541  10.124
98625W        W65166  14.723  10.350  11.722
98626W        W65167  43.339  32.963   1.964
98627W        W65168  41.935  20.449   3.382
98628W        W65169  44.432  17.220   0.212
98629W        W65170  19.144  26.929   2.449
98630W        W65171  25.675  27.065  14.406
98631W        W65172  18.639   2.274   3.841
98632W        W65173  10.847  43.031   0.936
98633W        W65174   3.194  23.525   3.279
98634W        W65175  18.006  33.752   5.142
98635W        W65176  28.641   4.918   3.741
98636W        W65177  43.851  10.720   0.041
98637W        W65178  29.937  15.993  12.572
98638W        W65179  23.162  26.979   3.286
98639W        W65180  12.164  36.201  13.938
98640W        W65181  28.763  16.765  14.433
98641W        W65182  18.820  41.013   2.944
98642W        W65183  28.585   6.141   4.203
98643W        W65184  40.988  29.473  13.463
98644W        W65185   6.280  31.015   0.722
98645W        W65186  10.556  13.851   2.252
98646W        W65187  21.553  20.069   4.286
98647W        W65188  26.612   2.860  14.188
98648W        W65189  31.581  39.914   0.805
98649W        W65190  33.099   5.433  11.888
98650W        W65191   3.281  37.253  10.188
98651W        W65192   7.648  15.479   3.596
98652W        W65193   4.482  16.363   3.938
98653W        W65194   9.303  41.432  11.667
98654W        W65195  23.514  32.057   0.532
98655W        W65196  26.587  30.195   1.338
98656W        W65197  24.128  27.937  12.941
98657W        W65198  19.650  29.248   3.177
98658W        W65199  28.540  12.867   1.948
98659W        W65200  31.023  44.481  12.061
98660W        W65201   9.884  44.014  14.984
98661W        W65202   8.707  23.820  12.312
98662W        W65203  13.915  32.665   2.819
98663W        W65204  20.654  41.535   3.671
98664W        W65205  13.537   2.645   0.807
98665W        W65206  11.707  11.688  10.609
98666W        W65207  39.338  38.348  13.509
98667W        W65208  15.037  25.152  14.398
98668W        W65209   0.091  34.274  12.641
98669W        W65210  15.654  11.793   3.172
98670W        W65211  30.950  19.790  10.671
98671W        W65212   1.472  35.361  14.583
98672W        W65213  40.918   1.251  11.206
98673W        W65214   5.932  28.722  12.970
98674W        W65215  27.173  40.136  10.047
98675W        W65216  28.506   1.500  12.323
98676W        W65217   4.356  28.520  14.004
98677W        W65218  39.998  16.664  13.098
98678W        W65219   6.091  30.761  12.706
98679W        W65220  37.997  26.215   3.768
98680W        W65221   6.888   6.520  14.096
98681W        W65222  42.312  10.324   2.323
98682W        W65223   1.479  30.053   0.987
98683W        W65224  38.315  44.342   2.678
98684W        W65225  10.292  43.527   3.260
98685W        W65226   4.612  43.757  14.108
98686W        W65227  39.361  33.130  12.697
98687W        W65228   3.451   9.777   0.328
98688W        W65229  14.591  42.812  13.450
98689W        W65230  39.331  13.323  12.976
98690W        W65231   1.477  20.622  11.652
98691W        W65232  32.495  26.094   4.325
98692W        W65233   4.878  31.390  11.692
98693W        W65234  28.863   2.202   3.918
98694W        W65235  23.918   9.051   5.444
98695W        W65236  16.283  29.209   3.180
98696W        W65237  36.435  32.074  12.633
98697W        W65238  44.517  13.619   2.957
98698W        W65239   9.398   6.505   0.430
98699W        W65240   1.647  33.295  12.905
98700W        W65241   9.886  24.522   1.175
98701W        W65242   6.514  41.019  11.088
98702W        W65243  30.178   4.790  13.338
98703W        W65244  25.570  14.201  12.421
98704W        W65245   6.907   4.689   0.468
98705W        W65246  19.677  24.055   2.256
98706W        W65247  10.881  30.690  14.778
98707W        W65248   7.388   0.768  10.450
98708W        W65249   4.871  29.350   2.248
98709W        W65250  23.736  41.475   0.462
98710W        W65251  40.290  20.605  11.625
98711W        W65252  42.405   7.696  12.130
98712W        W65253   4.299  23.473  11.608
98713W        W65254  16.127  18.521  11.516
98714W        W65255   2.975  43.294  10.544
98715W        W65256   0.711  41.017  12.931
98716W        W65257  12.622  38.135  14.857
98717W        W65258  27.560  21.701   0.250
98718W        W65259  22.195  11.471   3.814
98719W        W65260  27.055   7.555   0.396
98720W        W65261  17.539  35.356  12.835
98721W        W65262  33.183  21.735  12.129
98722W        W65263  14.374  24.910  13.896
98723W        W65264  35.272  35.574   0.348
98724W        W65265   3.267  25.479  13.860
98725W        W65266   0.900   3.354  11.913
98726W        W65267  12.575  21.103  10.645
98727W        W65268  25.732   8.100  11.839
98728W        W65269  33.160  17.666  13.032
98729W        W65270   2.779  33.986   0.960
98730W        W65271   7.852  31.092  12.022
98731W        W65272  15.821  37.967  11.558
98732W        W65273  44.539  42.393  11.339
98733W        W65274  27.626  10.550  12.278
98734W        W65275   2.187  38.598   2.122
98735W        W65276  13.069  11.416  11.679
98736W        W65277  18.791  15.961  11.453
98737W        W65278  42.665  40.952   1.408
98738W        W65279  43.293  10.746  13.760
98739W        W65280  20.688   3.629  12.887
98740W        W65281   2.457  19.079   2.116
98741W        W65282   5.452  35.287  10.804
98742W        W65283  31.806   3.716  13.914
98743W        W65284  19.241  11.640  12.601
98744W        W65285   9.755   4.731   0.425
98745W        W65286   8.859  40.798  14.415
98746W        W65287  34.723  20.657   0.482
98747W        W65288  11.163  21.700  12.574
98748W        W65289   1.276  19.766   4.344
98749W        W65290  14.851  44.693  11.515
98750W        W65291  19.638  43.895   1.709
98751W        W65292  40.983   9.304   4.111
98752W        W65293  10.113  20.674  11.859
98753W        W65294  18.068  38.926   1.265
98754W        W65295  37.508  19.543   2.404
98755W        W65296  21.876  43.489  12.124
98756W        W65297  20.012   4.153   3.324
98757W        W65298  43.365  44.262   4.947
98758W        W65299  22.839  25.745   9.842
98759W        W65300  38.340  43.456   4.654
98760W        W65301   8.842  21.697   4.589
98761W        W65302  29.094   3.278   1.324
98762W        W65303  30.822  19.287  10.577
98763W        W65304  18.539   5.153  14.540
98764W        W65305  42.698  43.225   1.721
98765W        W65306  43.847  43.450   0.495
98766W        W65307  13.339  15.343   3.595
98767W        W65308   5.724  24.858   2.425
98768W        W65309  22.387  29.313   4.029
98769W        W65310  37.647  31.965  10.104
98770W        W65311   7.254  23.070  14.293
98771W        W65312  11.721  23.015  10.856
98772W        W65313  15.583  15.234   3.681
98773W        W65314  25.731  30.998  14.800
98774W        W65315  30.609  16.262   3.266
98775W        W65316  21.692  34.575   1.348
98776W        W65317   5.735  22.707  11.620
98777W        W65318  15.566  20.832  10.324
98778W        W65319  43.485  25.077  10.730
98779W        W65320  44.884  40.404   4.899
98780W        W65321  32.962  31.581   0.612
98781W        W65322  20.175  26.913   3.988
98782W        W65323   8.761  18.801  11.468
98783W        W65324  28.671  23.751   2.439
98784W        W65325  32.471  41.359   1.490
98785W        W65326  44.422  36.876   4.057
98786W        W65327  15.416  32.676  10.067
98787W        W65328  35.740  33.321   2.362
98788W        W65329  36.591  10.276   2.206
98789W        W65330   6.452  28.874  12.515
98790W        W65331  20.161  35.017  10.463
98791W        W65332  39.064   8.754   2.847
98792W        W65333  29.802   7.981   1.374
98793W        W65334  39.068  11.690  14.814
98794W        W65335  29.382  26.325   0.335
98795W        W65336  27.275  34.470   0.146
98796W        W65337  39.224  35.113  11.990
98797W        W65338   1.286  31.707  14.940
98798W        W65339  44.643  38.175  12.095
98799W        W65340  23.661  19.497   4.121
98800W        W65341  23.533  25.123   4.261
98801W        W65342  40.748  24.230  13.468
98802W        W65343  40.569  28.082  12.047
98803W        W65344  17.313  18.730   2.088
98804W        W65345   4.837  39.899  10.444
98805W        W65346  41.777  28.647   1.854
98806W        W65347  13.372  29.432   0.805
98807W        W65348  44.247  17.036   0.936
98808W        W65349   5.798  25.280  14.499
98809W        W65350  38.577   0.723  13.835
98810W        W65351  10.871  37.932   4.448
98811W        W65352  25.244  17.849  13.451
98812W        W65353  12.641   9.858   4.670
98813W        W65354  32.647  11.910   1.865
98814W        W65355  36.638  44.421   3.314
98815W        W65356  39.141  19.126  13.081
98816W        W65357  10.341   1.597  11.451
98817W        W65358  29.956  40.266   5.100
98818W        W65359  36.922  23.757  12.449
98819W        W65360  17.171   5.733   4.085
98820W        W65361   3.275   3.006  11.944
98821W        W65362  38.969  24.609  13.072
98822W        W65363  20.966  16.715   0.303
98823W        W65364  25.855  15.622   2.649
98824W        W65365   6.441  25.670  10.006
98825W        W65366  10.176  44.857  14.283
98826W        W65367  34.346  28.506   4.402
98827W        W65368   0.396  43.755  12.533
98828W        W65369   4.920  29.190  11.178
98829W        W65370  20.127   7.164   0.356
98830W        W65371  43.262  31.555   4.740
98831W        W65372   9.307  28.069   2.197
98832W        W65373   6.827  33.063  11.054
98833W        W65374  36.057  30.361  11.169
98834W        W65375  18.746  11.808  10.515
98835W        W65376  32.907  38.380  10.954
98836W        W65377  15.093  28.238   1.400
98837W        W65378  31.012  15.800  13.765
98838W        W65379  37.887  33.130  13.889
98839W        W65380  31.353  41.331   4.670
98840W        W65381  29.473  33.862  13.778
98841W        W65382  14.304  20.480   2.994
98842W        W65383  40.060  27.525   2.377
98843W        W65384  42.206  43.615   4.907
98844W        W65385  33.783   2.235  12.084
98845W        W65386   2.520  37.354  14.518
98846W        W65387   3.282  22.179  14.141
98847W        W65388  31.696  40.474  13.539
98848W        W65389  30.230   5.675  10.861
98849W        W65390   3.088   2.082  12.194
98850W        W65391  18.172  36.261  14.186
98851W        W65392  41.675  24.230   0.139
98852W        W65393  41.053  14.255   0.868
98853W        W65394  35.964  41.463   4.566
98854W        W65395  17.254  13.496  13.633
98855W        W65396  34.350   7.391   4.037
98856W        W65397  29.856  23.455  12.500
98857W        W65398  12.462  18.932   2.676
98858W        W65399  18.442  37.437  10.269
98859W        W65400  12.870  27.664   1.816
98860W        W65401  27.431  32.636  13.359
98861W        W65402   8.985   1.538   1.372
98862W        W65403  26.734  39.331   4.173
98863W        W65404  17.547  14.806  12.121
98864W        W65405  36.465  11.621   2.939
98865W        W65406  35.127  26.333   4.642
98866W        W65407  30.022  42.445   0.366
98867W        W65408  29.682   6.340  12.692
98868W        W65409  44.996  13.371  11.549
98869W        W65410   3.694  32.039   1.019
98870W        W65411  15.762  36.739  11.040
98871W        W65412   4.452  44.410   4.319
98872W        W65413   5.388  21.994  14.056
98873W        W65414  18.255  10.748   1.246
98874W        W65415  26.553  31.059  11.342
98875W        W65416   2.528   6.896  14.486
98876W        W65417  29.461  35.516   4.051
98877W        W65418   9.734  27.630  11.776
98878W        W65419  19.199  42.952   4.708
98879W        W65420  18.062   7.171  14.467
98880W        W65421   9.483  38.428  14.579
98881W        W65422   2.836  16.712  14.272
98882W        W65423  27.545  16.724  14.199
98883W        W65424   3.779  34.164  11.513
98884W        W65425   1.540   8.243   3.231
98885W        W65426  32.430  18.762   0.844
98886W        W65427  18.325   5.787  11.212
98887W        W65428   7.002  24.773  11.693
98888W        W65429  34.481   4.369   0.938
98889W        W65430  44.766   8.122  12.358
98890W        W65431  37.959  28.988  12.572
98891W        W65432  37.835  13.399   1.478
98892W        W65433  26.439   6.661   0.313
98893W        W65434  14.628  32.520   3.982
98894W        W65435  42.563  43.466  12.906
98895W        W65436  37.795  34.504  10.546
98896W        W65437   5.833  36.307   0.633
98897W        W65438  34.684   2.449   1.896
98898W        W65439  11.838   0.815   4.582
98899W        W65440  18.437  30.496  12.172
98900W        W65441  39.830  11.623   5.340
98901W        W65442   8.419   4.058  13.124
98902W        W65443   9.595  29.350  12.717
98903W        W65444  42.491  20.636   3.290
98904W        W65445  43.086  30.458  13.919
98905W        W65446   3.899  32.641  14.030
98906W        W65447  28.328  36.397  11.622
98907W        W65448   7.775  36.589   1.936
98908W        W65449  42.329  14.811   1.752
98909W        W65450   2.228  26.101  13.873
98910W        W65451  44.888  31.389  14.790
98911W        W65452  31.094  18.288   1.797
98912W        W65453  20.164  24.673   3.248
98913W        W65454   8.284   0.053   1.477
98914W        W65455  34.121  29.122   4.146
98915W        W65456  18.238  33.379  10.170
98916W        W65457   7.263   8.676  13.189
98917W        W65458  17.366  43.531   3.694
98918W        W65459  22.374  40.457  14.846
98919W        W65460  30.654  21.110   3.712
98920W        W65461  20.976  19.300   3.218
98921W        W65462  13.450  37.900   2.362
98922W        W65463  12.045  19.114   2.955
98923W        W65464   6.041  21.068  14.632
98924W        W65465   7.792  24.238   4.527
98925W        W65466  38.272  20.630  14.122
98926W        W65467  35.617  38.806  14.475
98927W        W65468  21.628   6.384  13.942
98928W        W65469  10.799  44.009   1.635
98929W        W65470   9.625  16.837  11.895
98930W        W65471  42.000  22.469  12.524
98931W        W65472  24.123  44.169   2.777
98932W        W65473  30.834   1.852   3.335
98933W        W65474  28.405   3.918  11.753
98934W        W65475  27.762   6.290  13.439
98935W        W65476   7.192  42.517  14.047
98936W        W65477  13.174  42.849   1.531
98937W        W65478  37.528  15.439  13.581
98938W        W65479  33.108  28.661   2.680
98939W        W65480  39.442   8.045   0.497
98940W        W65481  24.371  21.002   4.630
98941W        W65482  36.988  28.689   0.284
98942W        W65483  35.453  37.533   4.378
98943W        W65484   3.599  26.727  13.015
98944W        W65485   2.505   3.342   0.550
98945W        W65486  32.377  17.873   0.483
98946W        W65487  36.122  42.700  14.076
98947W        W65488  17.951  10.787  11.106
98948W        W65489  42.274   2.170  12.259
98949W        W65490  44.544  26.703  11.946
98950W        W65491  19.585  37.381   0.657
98951W        W65492  10.413   0.440   1.773
98952W        W65493  32.459  10.850   1.057
98953W        W65494  10.165  40.522  10.329
98954W        W65495   1.999  39.411  14.107
98955W        W65496  18.516  39.080  11.205
98956W        W65497  29.172   2.618   3.637
98957W        W65498  14.175  38.888   2.603
98958W        W65499  12.229   4.154   4.736
98959W        W65500  35.024  42.903  13.520
98960W        W65501  27.217  10.246  13.475
98961W        W65502  12.325  44.204  13.869
98962W        W65503  23.517  14.480   1.389
98963W        W65504  17.048  32.014   3.117
98964W        W65505  26.250  10.581   2.925
98965W        W65506   4.078  18.728   4.964
98966W        W65507  35.703   5.354  14.327
98967W        W65508  40.467  15.812  10.124
98968W        W65509  22.908  18.644  12.395
98969W        W65510   5.177  33.639  12.148
98970W        W65511   4.444  25.165   2.118
98971W        W65512  23.483  29.601   3.188
98972W        W65513  35.811  14.937   5.039
98973W        W65514   1.364  25.362   2.375
98974W        W65515  42.282  24.131  13.472
98975W        W65516  33.785  23.900   0.323
98976W        W65517  34.792  40.833  10.543
98977W        W65518  17.756  28.445  14.934
98978W        W65519  35.823  17.189  14.448
98979W        W65520   3.699  35.284  13.439
98980W        W65521   1.276  35.301   3.777
98981W        W65522  24.013  19.072  13.523
98982W        W65523   1.537  41.930   0.197
98983W        W65524  36.716  34.561  11.696
98984W        W65525  36.025  19.156   3.239
98985W        W65526  18.840  23.034   1.977
98986W        W65527   3.955  20.114  10.495
98987W        W65528   7.314  19.282   1.426
98988W        W65529  20.941  20.465   1.513
98989W        W65530  38.440  33.272   4.277
98990W        W65531   2.396  30.026   2.303
98991W        W65532  32.408   9.609  12.265
98992W        W65533  33.311  25.658  14.352
98993W        W65534  37.289  37.367  14.524
98994W        W65535  26.597  42.547   3.573
98995W        W65536  43.157  31.509   1.374
98996W        W65537  43.347   6.515  13.602
98997W        W65538  35.089  11.114  13.472
98998W        W65539  23.283  22.561  12.759
98999W        W65540   0.791  37.108   0.896
99000W        W65541   9.056  38.875   3.269
99001W        W65542  21.477   3.983   3.316
99002W        W65543  26.328   1.680  14.334
99003W        W65544   7.688  26.104  13.990
99004W        W65545  12.176   3.061  13.394
99005W        W65546   3.878  35.838   4.396
99006W        W65547  36.843  33.072   4.296
99007W        W65548   4.848   1.268  12.133
99008W        W65549  28.551   1.881  11.424
99009W        W65550   7.282   2.493  14.390
99010W        W65551  39.326  38.794  12.182
99011W        W65552  23.806  39.982  13.174
99012W        W65553  24.379  37.993   4.655
99013W        W65554  23.384   7.168  12.564
99014W        W65555  15.138  41.048   2.425
99015W        W65556  15.141  28.455   2.739
99016W        W65557  29.811  27.066   0.627
99017W        W65558   1.678  37.490  11.220
99018W        W65559  18.105  36.558   0.227
99019W        W65560  31.448  11.040   5.047
99020W        W65561  22.761  20.918   0.407
99021W        W65562  15.329  34.513   1.125
99022W        W65563  37.277  11.653   3.567
99023W        W65564   3.351  10.927  11.178
99024W        W65565  25.770  39.437   3.218
99025W        W65566  20.844  21.044  10.247
99026W        W65567  33.662  40.478   2.195
99027W        W65568  39.539   8.380  10.734
99028W        W65569  38.041  11.718   4.656
99029W        W65570  25.239  21.997  12.440
99030W        W65571  18.164  33.898  13.964
99031W        W65572  20.536   6.913  12.577
99032W        W65573  33.841  27.171  11.292
99033W        W65574  36.681   6.439   4.755
99034W        W65575   1.921  17.545   1.310
99035W        W65576  44.546   7.970   0.291
99036W        W65577   6.782  29.802   1.906
99037W        W65578  14.189  40.298  14.353
99038W        W65579  20.215  16.831   1.209
99039W        W65580   2.559  17.488  10.730
99040W        W65581  13.388   3.951   4.260
99041W        W65582  42.956  21.485  11.850
99042W        W65583  44.384  37.855  12.929
99043W        W65584  26.312  21.039   1.294
99044W        W65585  41.569  34.704   1.163
99045W        W65586   4.239   7.587  13.621
99046W        W65587  32.386   0.852   2.315
99047W        W65588  13.285   2.277  12.712
99048W        W65589  34.590  37.745   1.771
99049W        W65590   8.445  34.595   2.882
99050W        W65591  35.339   0.761  11.312
99051W        W65592  10.407  21.071  11.704
99052W        W65593  42.342   2.531   2.272
99053W        W65594  13.238  16.272   4.604
99054W        W65595  26.430  36.962  10.575
99055W        W65596  25.509  30.533  10.639
99056W        W65597  39.413  24.439   3.631
99057W        W65598  44.223  26.545   4.926
99058W        W65599  21.155  12.651  10.595
99059W        W65600  42.511  17.836  14.444
99060W        W65601   6.365  41.498   1.686
99061W        W65602  25.264   1.052   3.256
99062W        W65603   9.179  38.637  14.980
99063W        W65604  35.509  14.284   4.578
99064W        W65605  39.134  26.652   0.802
99065W        W65606  25.827   5.528  10.272
99066W        W65607  11.290  26.940   0.482
99067W        W65608  13.511  16.083  11.528
99068W        W65609  37.381   4.810  14.103
99069W        W65610   1.410  22.291   0.391
99070W        W65611  41.764  20.131   4.783
99071W        W65612   2.166   7.022  14.102
99072W        W65613  26.124  42.201  14.275
99073W        W65614  34.367  44.181  12.955
99074W        W65615   0.026   7.998  11.259
99075W        W65616  22.585  21.572  11.512
99076W        W65617  18.542  13.468   2.179
99077W        W65618  43.998  39.964   1.949
99078W        W65619  30.942  35.786  12.948
99079W        W65620   6.328  23.637  14.945
99080W        W65621   3.294  24.715  14.410
99081W        W65622  30.592  18.765  12.703
99082W        W65623  39.010   2.387  10.224
99083W        W65624  43.510  25.485  13.345
99084W        W65625  43.453   5.392   3.604
99085W        W65626   6.742  24.547  14.327
99086W        W65627   1.909  36.129  10.853
99087W        W65628  31.032   8.182  14.337
99088W        W65629  15.410  34.549  14.561
99089W        W65630   0.956  27.913  14.102
99090W        W65631   5.269  23.359  14.320
99091W        W65632   3.999  28.657  10.706
99092W        W65633   1.952  31.137  10.215
99093W        W65634  26.296  42.309  12.432
99094W        W65635  35.742   1.257   4.109
99095W        W65636   6.478   8.333  14.878
99096W        W65637  21.382   3.219   4.543
99097W        W65638  44.820   9.633   2.412
99098W        W65639   1.857  22.778   2.205
99099W        W65640  32.431  38.091   1.308
99100W        W65641  36.711   3.622   2.500
99101W        W65642  39.100   6.242   2.287
99102W        W65643  19.698  12.155  13.901
99103W        W65644  18.742   2.181   3.328
99104W        W65645   8.768  19.525   3.798
99105W        W65646   4.877  11.870   1.691
99106W        W65647  14.195  27.888   4.483
99107W        W65648  23.518  13.096   1.767
99108W        W65649  25.165  20.952   2.964
99109W        W65650   7.749  40.531   1.264
99110W        W65651  35.675  18.498  13.139
99111W        W65652  11.119  14.248   0.483
99112W        W65653  39.849  25.979   3.136
99113W        W65654  22.662   7.899   0.247
99114W        W65655   7.141  41.647  10.896
99115W        W65656  27.283  10.117  12.325
99116W        W65657  33.529  17.280  12.905
99117W        W65658  12.475  14.080  12.928
99118W        W65659  10.351  43.031  11.429
99119W        W65660  43.499  37.546  10.174
99120W        W65661   2.195  39.867   1.407
99121W        W65662  15.521  37.402  13.991
99122W        W65663  40.331  36.510   4.184
99123W        W65664  20.785  13.048  10.733
99124W        W65665  23.573  14.095  13.912
99125W        W65666   6.688  29.096  10.439
99126W        W65667  31.322   8.959  13.502
99127W        W65668  13.268  42.736  11.703
99128W        W65669  19.815  19.687   4.378
99129W        W65670  44.858  43.243  12.954
99130W        W65671  37.807  17.266  12.374
99131W        W65672  28.305  32.136   5.069
99132W        W65673  42.277  11.121  12.367
99133W        W65674  25.784   1.447   4.112
99134W        W65675  18.947   2.319  14.701
99135W        W65676  34.492  35.877   2.813
99136W        W65677   3.372  33.854  11.620
99137W        W65678  11.693  32.457   0.361
99138W        W65679   0.472  24.743   4.122
99139W        W65680  21.212  15.338   4.242
99140W        W65681  42.990  24.702   2.366
99141W        W65682   0.555  30.183  12.952
99142W        W65683  22.598  30.115  11.996
99143W        W65684  24.947   8.742   1.367
99144W        W65685   2.719  20.677   0.830
99145W        W65686  30.742  41.544   2.722
99146W        W65687  10.124   8.777   1.365
99147W        W65688  17.441  12.563   2.196
99148W        W65689  13.747  10.681  10.486
99149W        W65690  21.761  20.319   4.701
99150W        W65691  24.014  18.753   0.886
99151W        W65692  32.995  11.153   2.197
99152W        W65693  32.839  40.963  13.264
99153W        W65694  29.903   8.555  11.557
99154W        W65695   7.923   3.212  14.695
99155W        W65696   3.598  23.344   1.337
99156W        W65697   4.268   0.439   4.120
99157W        W65698  16.808   1.187   2.775
99158W        W65699  41.030  40.414  12.743
99159W        W65700  44.223  44.244  14.940
99160W        W65701  21.573  27.937   3.011
99161W        W65702  32.146  35.755  11.610
99162W        W65703  25.671   8.634  14.907
99163W        W65704  27.120  34.838   0.948
99164W        W65705   3.658  14.199   0.692
99165W        W65706   2.782  27.721  11.132
99166W        W65707  14.114  21.981  12.468
99167W        W65708  22.994   2.341  11.466
99168W        W65709  18.825  28.557  12.452
99169W        W65710  26.630  27.037  10.766
99170W        W65711  23.766  19.064   3.828
99171W        W65712  36.803   5.664   1.440
99172W        W65713  44.308  22.647  11.057
99173W        W65714  20.302  40.357  11.572
99174W        W65715  31.221  36.882  10.738
99175W        W65716  37.596  14.673  12.687
99176W        W65717  11.339   0.839   4.393
99177W        W65718  24.241   2.733  11.159
99178W        W65719   5.525  36.476  11.580
99179W        W65720  20.978   1.798  14.465
99180W        W65721  24.194  17.763  12.570
99181W        W65722  33.890  44.066   1.690
99182W        W65723  28.121   6.810   0.747
99183W        W65724  13.430   0.172  13.370
99184W        W65725  28.189  28.695  11.559
99185W        W65726  39.248  18.214   1.409
99186W        W65727   1.227  41.814  11.169
99187W        W65728  41.919  27.819   3.116
99188W        W65729  42.612   6.269  11.599
99189W        W65730  34.294  15.257   0.610
99190W        W65731   5.434  32.418   2.712
99191W        W65732  12.078  29.143   2.517
99192W        W65733   4.158  27.692  12.450
99193W        W65734   1.105  18.580  13.951
99194W        W65735   5.943   2.507   1.885
99195W        W65736  13.360  40.946  12.972
99196W        W65737   7.164  34.313  13.079
99197W        W65738  15.087  40.279  14.241
99198W        W65739  28.571  16.838  12.291
99199W        W65740  17.367  22.268   0.411
99200W        W65741  36.170  22.090  12.181
99201W        W65742  17.262  15.846  14.280
99202W        W65743  28.361  42.791   4.321
99203W        W65744  22.240  23.979   4.796
99204W        W65745  18.314  27.561   1.222
99205W        W65746   5.734  26.455   3.210
99206W        W65747   4.189  17.329  12.961
99207W        W65748  44.932  30.378   1.410
99208W        W65749   0.778  44.683   4.166
99209W        W65750  25.166  44.516   3.205
99210W        W65751  12.051  28.278   3.629
99211W        W65752   4.750  22.129  13.994
99212W        W65753  38.383   5.221   0.868
99213W        W65754  21.049  41.028   0.721
99214W        W65755  15.421   4.361   3.568
99215W        W65756  31.451  12.982  11.208
99216W        W65757  33.745  43.438  13.076
99217W        W65758  39.327  40.862  14.422
99218W        W65759   4.188  33.193  12.549
99219W        W65760  33.138  33.041   0.449
99220W        W65761   0.020  34.873   2.245
99221W        W65762   1.518  19.790  12.223
99222W        W65763  16.480  43.828   3.545
99223W        W65764   7.659  22.585   5.129
99224W        W65765  43.345  33.763  10.882
99225W        W65766  19.774  33.096   4.770
99226W        W65767  14.337  41.767   0.486
99227W        W65768   9.074  17.360   4.400
99228W        W65769  22.505   2.721   1.379
99229W        W65770  27.135  19.224  10.968
99230W        W65771   8.263  43.814  12.426
99231W        W65772  32.579  13.745  14.932
99232W        W65773   8.588  10.862   2.668
99233W        W65774   0.857   0.927  11.394
99234W        W65775  11.135  38.044  14.752
99235W        W65776  12.497  16.697   0.290
99236W        W65777  39.921  43.502   4.077
99237W        W65778  40.003   0.132   2.839
99238W        W65779   4.000  15.646  11.670
99239W        W65780  32.038  30.362   1.885
99240W        W65781  13.387   6.145  12.865
99241W        W65782  25.206   0.508  13.945
99242W        W65783  42.004   6.051   0.859
99243W        W65784  13.349  32.396  12.774
99244W        W65785  28.090  43.307   3.202
99245W        W65786   5.181  20.648  13.314
99246W        W65787  23.542  44.296   2.647
99247W        W65788  16.132  37.952  13.801
99248W        W65789   3.799  29.656   0.543
99249W        W65790  25.065  20.062  14.367
99250W        W65791  44.028  38.469   4.211
99251W        W65792  22.423  38.857  12.602
99252W        W65793  18.718  43.890   0.412
99253W        W65794   1.473  37.101  11.971
99254W        W65795  22.097   5.699   3.514
99255W        W65796  32.120  12.259  11.575
99256W        W65797  20.224  33.344  12.043
99257W        W65798  38.248  16.515   0.263
99258W        W65799  28.709  42.104   3.102
99259W        W65800  16.830  22.278   0.677
99260W        W65801  38.560   4.146  14.978
99261W        W65802  25.683  44.431   0.959
99262W        W65803  10.443  15.850   4.255
99263W        W65804  11.760   3.341   3.601
99264W        W65805   9.438  36.270  11.947
99265W        W65806  13.828  21.522  10.691
99266W        W65807  23.202   7.379   1.194
99267W        W65808  43.489   5.023  11.263
99268W        W65809  17.726  13.663   3.923
99269W        W65810  44.710  19.259   2.709
99270W        W65811   0.430  18.398   4.242
99271W        W65812  20.606  39.103  13.852
99272W        W65813   7.578   8.821   2.816
99273W        W65814  37.429  12.682  10.825
99274W        W65815  32.116  39.850  11.567
99275W        W65816  37.633  24.024   3.375
99276W        W65817  18.598  16.214   0.104
99277W        W65818  36.225  28.004   1.717
99278W        W65819  31.162  35.887  13.428
99279W        W65820  19.149   5.571  11.682
99280W        W65821   6.220  29.155   2.338
99281W        W65822  27.390  10.928  12.625
99282W        W65823  43.231  31.511   3.322
99283W        W65824  31.603   0.816  13.444
99284W        W65825  32.423  31.565   1.335
99285W        W65826   5.816  17.920  11.059
99286W        W65827  20.179  28.225   4.459
99287W        W65828   1.422  22.475   4.279
99288W        W65829  19.143   7.360   1.863
99289W        W65830  40.457   6.171  12.469
99290W        W65831  33.593  41.442  13.012
99291W        W65832   6.622  26.562   2.045
99292W        W65833  34.344  12.101   3.700
99293W        W65834  32.483  41.197   2.434
99294W        W65835  26.789  43.326   2.745
99295W        W65836  39.817  36.874  14.953
99296W        W65837  20.436  42.370   3.660
99297W        W65838  16.573   3.194   2.601
99298W        W65839  25.622  16.633  14.455
99299W        W65840  12.382   0.835   0.037
99300W        W65841  25.037  10.214   0.637
99301W        W65842  39.301  10.659   2.859
99302W        W65843  39.094  30.562   4.009
99303W        W65844  14.227   1.203   3.075
99304W        W65845  25.344  41.004  13.341
99305W        W65846  41.746  27.243  11.105
99306W        W65847   5.068  29.460   4.642
99307W        W65848  13.702  13.579   2.042
99308W        W65849  18.888  35.341  13.884
99309W        W65850  32.445   5.550   3.768
99310W        W65851  18.500  15.222   3.180
99311W        W65852  34.734  13.600   1.953
99312W        W65853  25.449   7.649   1.083
99313W        W65854  11.317   5.013   2.911
99314W        W65855   2.811  28.157  12.441
99315W        W65856  16.521  38.187  14.721
99316W        W65857  41.871  15.266   3.821
99317W        W65858   4.309   8.744  12.044
99318W        W65859  25.762   8.569   4.108
99319W        W65860  35.899  28.605  13.463
99320W        W65861  41.709  33.150  12.077
99321W        W65862   6.215  13.738   1.622
99322W        W65863  12.859  26.001  13.611
99323W        W65864  19.121  23.692  13.082
99324W        W65865  33.034   5.115   0.401
99325W        W65866  16.706  25.581  12.580
99326W        W65867  21.270   3.512   0.854
99327W        W65868  16.219   0.951   4.366
99328W        W65869  10.098   6.445   0.131
99329W        W65870  44.453  33.149  11.121
99330W        W65871   3.737   4.551  12.814
99331W        W65872  40.437  35.674  12.961
99332W        W65873   9.567   8.616   5.126
99333W        W65874  36.764   4.969   0.896
99334W        W65875  37.479  31.865   0.817
99335W        W65876  21.587   8.897   2.818
99336W        W65877  30.954  33.260  14.771
99337W        W65878  22.405  33.554   1.863
99338W        W65879   9.740   6.406  13.732
99339W        W65880  28.533  20.480   3.636
99340W        W65881  33.490   5.155  12.986
99341W        W65882  12.057  24.663   2.302
99342W        W65883  25.410  12.538   4.608
99343W        W65884  29.354  38.372   1.700
99344W        W65885  39.365  23.098  11.995
99345W        W65886  16.240  34.767  11.532
99346W        W65887  24.045   1.253   0.259
99347W        W65888  18.005   1.027   4.097
99348W        W65889  12.297  12.179   0.895
99349W        W65890   7.197   9.493   3.236
99350W        W65891  35.876   1.967  13.571
99351W        W65892  14.386  22.494  11.109
99352W        W65893  17.088  38.076   2.636
99353W        W65894  10.926   3.431  14.858
99354W        W65895  14.177  33.879  12.904
99355W        W65896  44.268  41.757  11.417
99356W        W65897  13.411   8.682  14.678
99357W        W65898  37.813  35.818   4.338
99358W        W65899  18.310   1.816  12.161
99359W        W65900  23.103  40.978  13.828
99360W        W65901   7.381  44.105   2.186
99361W        W65902  40.029  44.248   2.495
99362W        W65903   9.851   5.807  13.043
99363W        W65904  28.166  39.928  11.047
99364W        W65905  44.178  30.218   0.911
99365W        W65906  22.345   5.247  13.108
99366W        W65907  21.122  32.994  10.185
99367W        W65908  35.147  21.275   2.316
99368W        W65909  43.891  20.277   0.856
99369W        W65910   8.850   7.594   1.790
99370W        W65911  21.517  25.989  13.867
99371W        W65912  34.825  42.164   4.102
99372W        W65913  38.951   3.515  13.836
99373W        W65914   8.253  25.431  10.988
99374W        W65915  44.795   3.372  10.573
99375W        W65916  39.142  19.493   4.153
99376W        W65917  31.085   0.659   3.549
99377W        W65918  35.337  28.738  14.756
99378W        W65919  25.528   6.710  11.526
99379W        W65920  34.663  41.331  14.896
99380W        W65921  38.279  10.736  14.887
99381W        W65922  39.455   7.399  14.461
99382W        W65923  42.575  11.221  13.444
99383W        W65924  15.714  15.703  10.911
99384W        W65925  34.349  24.200  11.695
99385W        W65926  17.566  41.902   1.013
99386W        W65927   0.361  29.072  12.601
99387W        W65928  40.971  33.516   4.093
99388W        W65929  25.674   2.137   4.411
99389W        W65930  38.002  27.716  11.815
99390W        W65931   5.182  24.397  11.555
99391W        W65932  23.585  23.726   0.852
99392W        W65933  16.794   3.244  14.050
99393W        W65934  20.507  24.186  10.845
99394W        W65935  41.804   6.985  14.569
99395W        W65936  30.193  36.355  13.398
99396W        W65937  20.513  17.357  14.052
99397W        W65938   8.725  37.139  11.574
99398W        W65939  26.576  26.416   4.979
99399W        W65940  32.984  24.707   0.027
99400W        W65941  20.021   9.185   0.950
99401W        W65942   0.364  25.008  13.513
99402W        W65943  24.223   3.433   4.049
99403W        W65944  37.182   1.085   3.502
99404W        W65945   1.956  25.516  11.308
99405W        W65946  44.481  16.823   3.421
99406W        W65947   5.914  11.665   4.523
99407W        W65948  18.510  33.018   4.016
99408W        W65949  22.713   4.596   5.264
99409W        W65950  25.253   6.368  10.275
99410W        W65951  18.493  33.984   4.260
99411W        W65952  27.230  30.171  14.994
99412W        W65953   7.178   9.628   4.589
99413W        W65954  44.808  24.901  11.695
99414W        W65955  12.049  31.186  12.795
99415W        W65956  14.232  41.830  11.282
99416W        W65957  13.775  26.203   4.811
99417W        W65958  26.092  31.658   3.701
99418W        W65959  24.278  15.285   2.730
99419W        W65960  28.706   3.363  10.756
99420W        W65961   5.814  37.927  13.607
99421W        W65962  28.500   5.282   2.839
99422W        W65963  36.015  10.779  13.733
99423W        W65964  38.791  31.026   4.104
99424W        W65965  40.773  16.246  10.266
99425W        W65966  21.105   7.990   3.594
99426W        W65967  26.220   8.804  11.534
99427W        W65968   5.679  20.361  12.949
99428W        W65969  23.983  35.210   0.996
99429W        W65970  43.579  42.581   3.737
99430W        W65971  41.726  35.106   4.099
99431W        W65972   1.866  22.681  12.626
99432W        W65973  28.094  34.386  11.617
99433W        W65974  40.775  14.670  14.900
99434W        W65975  41.473  16.148   3.618
99435W        W65976  20.330  30.443   0.336
99436W        W65977  28.437  22.658   2.271
99437W        W65978  25.241  16.596   0.426
99438W        W65979  29.878  40.085   0.373
99439W        W65980  42.522  14.725  14.082
99440W        W65981  33.607  15.220  11.334
99441W        W65982  34.536   2.327   1.129
99442W        W65983  14.451  40.131   0.926
99443W        W65984  12.570  18.004   4.641
99444W        W65985  21.911   7.364   1.241
99445W        W65986  27.575  18.477  11.257
99446W        W65987  13.803  12.947   0.462
99447W        W65988  12.647  44.260  11.182
99448W        W65989  15.913  29.896   4.471
99449W        W65990   9.399  14.296  12.255
99450W        W65991  17.271  29.861  11.543
99451W        W65992  41.065   3.322  13.292
99452W        W65993  20.277   6.238  10.201
99453W        W65994  31.063  30.540   4.265
99454W        W65995   2.730  42.511  11.952
99455W        W65996  13.580  28.265  10.294
99456W        W65997  13.851   4.880  13.282
99457W        W65998  35.170  44.766  14.361
99458W        W65999  23.571  27.929   1.237
99459W        W66000  37.483  44.792   2.149
99460W        W66001  18.267   3.301   3.397
99461W        W66002   5.965  14.171  14.778
99462W        W66003  14.214   3.003   4.609
99463W        W66004  18.009  17.273   2.586
99464W        W66005  34.969  34.003   4.431
99465W        W66006  38.525  23.568  13.354
99466W        W66007   1.362  19.482  11.075
99467W        W66008  25.549   6.406   2.368
99468W        W66009   6.752   8.367  11.942
99469W        W66010  35.504   5.267  10.259
99470W        W66011  11.390  30.870  14.839
99471W        W66012   4.852   7.160   1.947
99472W        W66013  44.393  37.309   3.768
99473W        W66014  19.519  11.670  11.071
99474W        W66015   4.864  23.136   0.877
99475W        W66016  17.937  11.374  10.414
99476W        W66017  19.842  20.650   3.322
99477W        W66018   2.954  14.300   4.568
99478W        W66019   1.758  10.097   3.579
99479W        W66020  37.431  36.532  14.379
99480W        W66021  41.786  42.721   0.037
99481W        W66022   1.352  15.987  13.093
99482W        W66023  41.058  36.421  13.790
99483W        W66024   5.375  31.850   1.277
99484W        W66025  36.743  10.114  12.116
99485W        W66026   7.758  24.950   2.620
99486W        W66027  15.768  20.957  12.506
99487W        W66028  11.391  26.833  14.006
99488W        W66029  11.754   4.427  11.408
99489W        W66030  26.507  24.252   3.709
99490W        W66031  10.809   3.346   3.358
99491W        W66032   5.182  15.318  10.692
99492W        W66033  26.652  27.127   2.068
99493W        W66034  31.021  21.173  13.966
99494W        W66035  21.834   2.229   2.604
99495W        W66036  31.075   9.358   4.921
99496W        W66037  36.299  39.094   3.123
99497W        W66038  34.979   7.840   2.794
99498W        W66039  38.350  36.571  12.558
99499W        W66040  15.686  44.697   3.754
99500W        W66041  26.516  31.734  13.688
99501W        W66042   5.227   2.633  13.944
99502W        W66043  33.566   4.634  13.000
99503W        W66044  35.839  41.765  11.153
99504W        W66045  23.726   9.520   0.444
99505W        W66046  10.114   4.937   4.606
99506W        W66047   4.279  28.045  11.161
99507W        W66048  10.140  33.987  11.142
99508W        W66049  27.133   2.288  11.575
99509W        W66050   6.268  18.684  14.419
99510W        W66051  42.241  29.610   3.230
99511W        W66052  37.689   3.898  13.798
99512W        W66053  40.215  35.201  11.840
99513W        W66054  19.965   6.420   0.757
99514W        W66055  43.425  44.061   0.223
99515W        W66056   5.685  33.894  11.352
99516W        W66057  35.580   0.702  13.987
99517W        W66058  23.020  20.457   1.383
99518W        W66059   7.686  23.629   0.290
99519W        W66060  10.242   6.098  12.475
99520W        W66061  29.255  15.156   3.243
99521W        W66062  41.753  18.133   2.323
99522W        W66063  11.140   5.898   0.761
99523W        W66064  30.017   2.137   0.262
99524W        W66065   6.253  36.126   0.918
99525W        W66066  21.493  42.140   1.470
99526W        W66067   2.016   9.378   3.095
99527W        W66068  16.049   6.398  10.698
99528W        W66069  12.753  40.439   1.324
99529W        W66070  21.791  22.626   1.849
99530W        W66071  22.470  37.106  10.715
99531W        W66072  16.332   7.603   2.245
99532W        W66073  28.389  36.950   1.815
99533W        W66074   7.053   6.243  13.329
99534W        W66075   5.484  40.220  13.030
99535W        W66076  25.934  17.767   3.337
99536W        W66077  43.327  21.859  11.857
99537W        W66078  20.372  34.168  13.931
99538W        W66079  23.561  19.011   0.792
99539W        W66080  12.074  12.968  14.451
99540W        W66081  25.722   8.966  14.527
99541W        W66082  43.106  14.418  11.012
99542W        W66083  19.460  25.141   1.111
99543W        W66084  36.307  35.965  14.770
99544W        W66085  40.347  13.864  11.540
99545W        W66086  31.055   8.210   0.734
99546W        W66087  22.584  31.206   2.167
99547W        W66088  30.299   3.788  14.691
99548W        W66089  33.665  32.641   4.124
99549W        W66090  34.187  34.154  12.552
99550W        W66091  35.858  18.766   1.800
99551W        W66092  14.295  39.490   1.436
99552W        W66093  15.313  24.093  12.947
99553W        W66094  43.475  40.438  11.334
99554W        W66095  16.788  42.306  11.557
99555W        W66096  18.610  21.208   4.112
99556W        W66097   1.726  14.719  10.803
99557W        W66098  13.326  29.830   0.514
99558W        W66099  43.508   7.612  12.879
99559W        W66100  42.701  35.895  13.901
99560W        W66101  13.596  28.102  14.632
99561W        W66102  19.073   8.995   3.349
99562W        W66103  22.955  13.805  11.954
99563W        W66104  43.565   4.554   4.480
99564W        W66105  27.866  44.904   1.268
99565W        W66106  19.163  13.444   4.957
99566W        W66107  43.755  12.054  15.000
99567W        W66108  38.525  22.584   4.186
99568W        W66109  37.451  12.130   1.188
99569W        W66110  29.480  14.511   0.513
99570W        W66111  28.954  18.762  12.571
99571W        W66112  40.852   6.427   1.710
99572W        W66113  20.827  12.190  11.687
99573W        W66114  40.888  29.614   0.198
99574W        W66115  29.388  42.550  12.040
99575W        W66116   7.932   0.826   0.546
99576W        W66117  20.257  11.385  14.756
99577W        W66118   9.779   9.442  10.695
99578W        W66119  15.101  37.069   1.469
99579W        W66120  27.062  23.399   4.980
99580W        W66121  24.733   5.078   0.821
99581W        W66122  23.969  37.056  10.737
99582W        W66123  42.446  44.398   1.021
99583W        W66124   7.478  25.586  13.897
99584W        W66125  24.606  20.270   2.370
99585W        W66126   0.849   8.576   3.276
99586W        W66127  36.902  39.350   2.527
99587W        W66128  29.877  33.848  10.786
99588W        W66129  32.909  44.465  14.844
99589W        W66130   6.323  37.743  13.536
99590W        W66131   1.117   5.873  14.489
99591W        W66132  33.103  36.877   3.132
99592W        W66133  10.180  34.446   4.112
99593W        W66134  20.697  19.135  11.913
99594W        W66135   3.363   8.109   1.717
99595W        W66136   1.345  32.236  14.898
99596W        W66137   3.867   7.889   0.238
99597W        W66138   0.439  39.072  10.437
99598W        W66139  36.029   6.125   2.731
99599W        W66140  19.169  16.377   9.826
99600W        W66141  38.509  41.719   1.643
99601W        W66142   0.789   5.715  10.756
99602W        W66143  27.055  17.441  10.751
99603W        W66144  15.231   8.948   4.843
99604W        W66145  25.982  36.714  13.605
99605W        W66146  44.864  13.155   1.797
99606W        W66147  43.823  14.228   0.245
99607W        W66148  23.668   7.340   4.630
99608W        W66149  16.597  34.970   4.246
99609W        W66150  33.343  29.497  10.598
99610W        W66151  42.171  19.633   2.803
99611W        W66152  34.739   7.277  13.431
99612W        W66153   8.231  19.539  12.504
99613W        W66154  36.063   1.452   0.746
99614W        W66155  11.312  15.279   0.341
99615W        W66156   3.452  10.368  13.900
99616W        W66157  43.760  35.691  12.913
99617W        W66158  32.196  42.360   4.327
99618W        W66159  42.007   2.226  12.977
99619W        W66160  16.818  14.578  11.557
99620W        W66161  20.460   1.436  10.533
99621W        W66162   0.166  24.889   2.260
99622W        W66163  38.631  14.686  13.930
99623W        W66164  12.156  33.117   4.803
99624W        W66165  32.974  15.547   1.657
99625W        W66166   0.951  16.765   3.740
99626W        W66167   4.656   1.784  14.801
99627W        W66168  25.630  37.033  10.382
99628W        W66169  12.634  37.742   4.113
99629W        W66170  21.823  21.141  14.667
99630W        W66171   8.425   0.493   4.171
99631W        W66172   6.073  30.301   1.169
99632W        W66173  15.459  15.413   0.007
99633W        W66174  41.456  14.681  14.016
99634W        W66175  13.326   8.246  13.762
99635W        W66176   4.384  19.599   2.328
99636W        W66177  13.397  40.857   3.626
99637W        W66178  31.637  13.621  13.438
99638W        W66179  16.368  13.777  11.748
99639W        W66180  37.110  21.605  12.585
99640W        W66181  23.485  21.612  13.439
99641W        W66182  39.529  19.752  11.215
99642W        W66183  17.213   6.709   2.524
99643W        W66184  37.490  29.367   1.279
99644W        W66185  16.054  28.478  13.560
99645W        W66186  38.017  24.196  13.872
99646W        W66187  24.060  44.973  12.005
99647W        W66188  30.607  23.956  10.863
99648W        W66189  27.602  14.642   3.704
99649W        W66190  42.988   7.453  14.565
99650W        W66191   8.478  36.532   3.314
99651W        W66192  44.228  18.335  11.013
99652W        W66193  18.353   1.195  10.696
99653W        W66194  24.048  13.970  12.640
99654W        W66195  36.246  31.364  11.937
99655W        W66196  30.007  23.405  13.938
99656W        W66197  23.621   0.978  11.549
99657W        W66198  43.942  28.317  11.427
99658W        W66199  10.651  17.620   1.411
99659W        W66200   2.036   3.155   1.439
99660W        W66201  36.886  30.628   4.694
99661W        W66202  22.123   8.518   0.253
99662W        W66203  43.729  22.255   2.789
99663W        W66204  15.163  27.549   2.172
99664W        W66205  25.639  44.382   0.402
99665W        W66206  20.339  22.239  14.219
99666W        W66207  27.592  37.900  11.846
99667W        W66208  37.358   0.078   3.483
99668W        W66209   3.543   0.903   3.329
99669W        W66210  39.102  12.577  11.574
99670W        W66211  12.970  27.145   0.019
99671W        W66212  16.855   7.603   2.237
99672W        W66213  42.529  13.893  11.706
99673W        W66214   1.366  34.540  14.972
99674W        W66215  17.667  22.135  14.567
99675W        W66216  33.408  39.856   0.942
99676W        W66217  43.513  24.725  14.359
99677W        W66218  26.097  22.638  13.551
99678W        W66219   3.239  22.794  13.326
99679W        W66220  32.681  36.488   3.997
99680W        W66221  27.143  18.740  13.107
99681W        W66222   2.762  28.525  10.199
99682W        W66223  23.792   9.620  14.506
99683W        W66224  34.978  20.007  11.879
99684W        W66225  19.107  17.642   4.142
99685W        W66226   8.405   5.721  14.160
99686W        W66227  20.902  14.324  13.580
99687W        W66228  41.486  18.501  14.711
99688W        W66229   2.218  21.246   2.240
99689W        W66230  28.181  21.551   2.667
99690W        W66231  35.110  44.313  14.075
99691W        W66232   6.021  27.197  13.800
99692W        W66233  19.242  11.894  13.973
99693W        W66234  23.451   4.532   1.824
99694W        W66235  25.449   0.989   4.280
99695W        W66236  19.115  23.242  10.726
99696W        W66237  32.193  13.893   1.690
99697W        W66238   6.872  24.975   0.211
99698W        W66239  34.549  21.615   0.910
99699W        W66240   7.404   8.560  14.677
99700W        W66241  35.669  23.565  14.454
99701W        W66242  36.032  25.470   2.667
99702W        W66243  44.674  25.552   2.699
99703W        W66244   8.711   5.265   2.265
99704W        W66245   9.249  42.002  10.783
99705W        W66246  13.418  19.262  13.443
99706W        W66247  26.972   8.547   0.244
99707W        W66248  21.724  36.401  11.045
99708W        W66249  15.263   7.784  12.910
99709W        W66250   5.803  10.914  13.693
99710W        W66251  18.983  27.255   0.262
99711W        W66252  24.986  24.539   3.697
99712W        W66253  25.640  31.119   0.788
99713W        W66254  25.132  37.035  11.258
99714W        W66255  29.571  29.076  10.510
99715W        W66256  17.045   7.407   4.195
99716W        W66257  13.513  26.008   1.078
99717W        W66258  20.826  15.249   1.686
99718W        W66259  42.454  24.996   1.240
99719W        W66260  21.086  25.967   1.290
99720W        W66261  25.281  20.882   0.390
99721W        W66262  13.805  21.592  11.594
99722W        W66263   5.296  39.412  11.776
99723W        W66264   3.734  30.894  14.520
99724W        W66265   4.928  37.906  10.729
99725W        W66266  29.442  25.680   3.276
99726W        W66267  10.821   0.434  11.873
99727W        W66268  19.164  41.349  14.489
99728W        W66269   5.784  17.201  11.488
99729W        W66270   2.287  24.778   0.872
99730W        W66271  18.062  21.193  11.913
99731W        W66272  13.621  38.945   0.344
99732W        W66273  22.241  38.942   4.200
99733W        W66274   1.323  33.929   4.236
99734W        W66275  34.454   3.148  10.964
99735W        W66276  19.633  38.928   0.059
99736W        W66277   9.111  32.802  14.272
99737W        W66278  29.511  34.617   0.875
99738W        W66279  11.040   7.103   1.793
99739W        W66280  41.951  15.836   2.144
99740W        W66281   8.324   8.462   0.854
99741W        W66282  31.791  10.619   1.624
99742W        W66283  44.052  22.046   3.734
99743W        W66284  16.316  18.141   2.798
99744W        W66285  21.275  15.998  12.023
99745W        W66286  11.680  16.076  11.987
99746W        W66287  26.445  21.644   3.649
99747W        W66288  24.615  11.213  14.913
99748W        W66289   7.876  28.405   1.761
99749W        W66290   0.702  33.179   0.926
99750W        W66291  44.532  22.569   5.053
99751W        W66292  19.299   0.615  11.559
99752W        W66293  26.575  16.214   1.400
99753W        W66294  42.789   4.054   1.665
99754W        W66295  36.243   1.354   0.264
99755W        W66296   7.782   3.316  10.407
99756W        W66297  41.501  21.279  13.959
99757W        W66298  37.609  26.237   3.386
99758W        W66299  43.426  16.169  12.471
99759W        W66300  14.008  13.353   1.635
99760W        W66301   0.692  29.904  10.584
99761W        W66302  35.762   3.343   9.478
99762W        W66303  19.135  28.094  13.532
99763W        W66304   4.438  38.176   2.279
99764W        W66305  37.850  13.831  10.761
99765W        W66306   8.710  44.955  14.328
99766W        W66307   6.353   1.735   2.753
99767W        W66308  44.301  35.637  11.458
99768W        W66309  27.226  36.520   2.275
99769W        W66310  44.769  33.105  14.743
99770W        W66311  42.095   0.484  10.629
99771W        W66312   1.991   8.395   2.139
99772W        W66313  17.239   0.556  14.833
99773W        W66314  34.166  41.141   3.699
99774W        W66315   5.248  39.462  12.319
99775W        W66316   2.047  13.755   2.858
99776W        W66317  35.201  10.234   3.693
99777W        W66318   0.970  11.596  12.384
99778W        W66319  36.257  23.578  11.731
99779W        W66320  29.178  29.437   3.270
99780W        W66321  22.443  44.805  12.907
99781W        W66322  44.983  29.515   0.439
99782W        W66323  36.325  33.640   0.766
99783W        W66324  21.403  38.787   1.585
99784W        W66325  13.166  41.691  11.843
99785W        W66326   5.815   9.711  12.275
99786W        W66327  26.001   9.382   1.871
99787W        W66328  12.999   4.673  12.838
99788W        W66329  15.476  43.243  11.640
99789W        W66330   7.737  11.331  14.829
99790W        W66331  39.299  27.210  13.950
99791W        W66332  34.457  22.131   0.676
99792W        W66333  23.798  15.092   2.761
99793W        W66334  22.069  44.813   0.686
99794W        W66335   7.415   0.848   0.646
99795W        W66336  24.010   8.684  13.104
99796W        W66337   9.397  18.378   1.743
99797W        W66338  21.513  17.599   0.478
99798W        W66339  29.260  13.714  10.176
99799W        W66340  21.328  33.129  14.896
99800W        W66341  30.863  19.620  12.835
99801W        W66342  42.350   4.904   1.315
99802W        W66343   0.166  37.968  12.287
99803W        W66344  41.576  35.214  11.104
99804W        W66345  39.293  35.608  10.612
99805W        W66346  40.809  31.933   2.240
99806W        W66347  14.752  36.562  13.557
99807W        W66348  20.559   9.409  12.046
99808W        W66349  22.144   9.626   3.321
99809W        W66350  13.853   3.956   1.909
99810W        W66351  16.450  14.629  12.602
99811W        W66352  17.106  11.008  13.518
99812W        W66353  15.048  24.493   1.266
99813W        W66354  17.239  16.372  14.320
99814W        W66355  38.279   4.525   3.399
99815W        W66356   4.174   8.751   3.794
99816W        W66357   5.221  42.488  14.834
99817W        W66358  18.648  42.149  12.594
99818W        W66359  30.769  19.685   5.083
99819W        W66360   8.608  31.817  11.700
99820W        W66361  38.853  29.572   2.642
99821W        W66362  36.597  23.258   4.091
99822W        W66363  33.470  21.746   3.170
99823W        W66364  11.641  34.590   0.791
99824W        W66365  34.173  44.668   3.547
99825W        W66366  12.437  21.801   2.178
99826W        W66367  26.083   8.248   1.322
99827W        W66368  27.555  26.549   3.257
99828W        W66369  35.448  29.423   3.977
99829W        W66370  12.825   6.605   3.637
99830W        W66371  41.334  11.344  13.463
99831W        W66372  16.193  21.702  13.413
99832W        W66373  30.610   5.885   4.184
99833W        W66374   8.482  24.123   2.328
99834W        W66375  41.901  17.066  13.997
99835W        W66376   3.426  20.780   0.543
99836W        W66377  22.138  39.457  10.666
99837W        W66378  32.665  18.519   1.283
99838W        W66379  16.605  35.830   4.132
99839W        W66380  29.079  38.885  12.277
99840W        W66381  38.846  18.098   3.174
99841W        W66382  28.465   8.110   0.463
99842W        W66383  13.361  28.569   1.320
99843W        W66384  31.431  12.579   0.911
99844W        W66385  10.569  20.092   4.069
99845W        W66386  38.566  38.076   3.392
99846W        W66387  33.855  27.637  11.571
99847W        W66388   5.691  20.031   3.900
99848W        W66389  21.145  38.210  13.841
99849W        W66390   5.867  12.724   3.152
99850W        W66391  29.978   4.897   1.444
99851W        W66392   3.828  31.676  12.581
99852W        W66393  11.514  15.398  11.470
99853W        W66394  36.960  18.220   3.089
99854W        W66395  34.889  16.187   1.736
99855W        W66396   1.961  20.066  11.132
99856W        W66397  35.162   1.929  13.038
99857W        W66398  38.532  28.271   3.310
99858W        W66399  29.565   2.499  14.537
99859W        W66400  42.989  21.276  10.840
99860W        W66401  36.457  25.077   0.982
99861W        W66402   8.938  28.982  11.576
99862W        W66403  25.989  32.443   4.156
99863W        W66404  44.512   0.721  14.947
99864W        W66405  20.991  29.576  14.537
99865W        W66406  27.293  13.031   2.638
99866W        W66407  42.604  36.465   0.330
99867W        W66408   9.581  41.281  14.391
99868W        W66409  28.413  19.574  11.401
99869W        W66410  13.204  28.403   4.409
99870W        W66411  40.842  35.682   3.878
99871W        W66412   6.955  26.016   3.320
99872W        W66413  15.480   4.766   2.394
99873W        W66414  13.291  22.810   1.427
99874W        W66415   3.347  14.425   0.304
99875W        W66416  26.908  35.102  14.329
99876W        W66417  23.216   1.810   3.223
99877W        W66418   6.915  27.966   5.102
99878W        W66419   6.751  18.040   3.868
99879W        W66420   1.650  32.045  14.015
99880W        W66421  43.490  35.937  14.363
99881W        W66422  42.349  39.415   4.788
99882W        W66423   4.532  12.486  13.571
99883W        W66424  18.796  18.007   4.360
99884W        W66425  34.686  14.309   1.476
99885W        W66426  39.983  15.140   3.291
99886W        W66427   9.154  34.322   0.797
99887W        W66428  14.534  25.040   5.077
99888W        W66429  27.127  20.824  14.293
99889W        W66430  25.666  41.831   0.460
99890W        W66431  11.547  28.374  11.526
99891W        W66432   4.431  27.071   0.065
99892W        W66433  39.014  44.666   4.356
99893W        W66434  25.108  27.034  11.490
99894W        W66435   5.792  34.127  12.383
99895W        W66436  17.993  15.071   3.082
99896W        W66437  27.408  35.740   3.842
99897W        W66438   0.819   6.389  14.524
99898W        W66439  22.008  39.152  13.420
99899W        W66440   2.692  44.864   1.771
99900W        W66441  12.137   0.051   3.772
99901W        W66442  28.452  36.581  10.588
99902W        W66443  39.755  43.341  13.200
99903W        W66444   7.920  27.937  12.591
99904W        W66445  10.326  42.280   3.842
99905W        W66446   6.916   5.762  13.196
99906W        W66447  22.180  29.489  12.888
99907W        W66448  32.418  27.149  13.247
99908W        W66449  16.569  21.584   2.779
99909W        W66450  35.811  19.744  14.832
99910W        W66451  18.051  18.729   4.133
99911W        W66452   4.988  28.316   2.352
99912W        W66453  40.505   1.748   0.281
99913W        W66454  16.330  21.100   2.784
99914W        W66455  28.959   9.844  12.933
99915W        W66456   6.807  12.655  13.774
99916W        W66457  24.905   9.208  12.995
99917W        W66458   8.775  32.924  12.839
99918W        W66459  14.820  32.589   1.658
99919W        W66460  31.397  21.013   1.219
99920W        W66461   1.849  16.499   2.172
99921W        W66462  37.445   1.012   0.687
99922W        W66463  10.176   8.693  13.948
99923W        W66464  34.571  12.912   0.889
99924W        W66465  27.398  16.477   4.059
99925W        W66466  17.045  39.895   4.464
99926W        W66467  23.454  29.680  14.762
99927W        W66468  27.107  38.085  14.176
99928W        W66469   6.428  21.279   2.251
99929W        W66470  14.846  14.032   1.192
99930W        W66471  36.533  12.834  13.594
99931W        W66472  37.975  39.492   1.496
99932W        W66473  18.483  15.254   1.058
99933W        W66474   9.943  42.869  12.642
99934W        W66475  14.140  37.360   3.221
99935W        W66476   8.364  21.232  13.449
99936W        W66477  27.511  19.542   0.388
99937W        W66478  27.050  23.180  13.613
99938W        W66479  14.883  27.520  12.865
99939W        W66480  18.949  30.978   1.441
99940W        W66481  42.374   0.598   3.985
99941W        W66482  15.725  11.149  13.187
99942W        W66483  13.041   3.945  13.358
99943W        W66484  10.407   1.811  12.933
99944W        W66485  21.316  32.099  14.985
99945W        W66486  41.508  21.338  11.380
99946W        W66487  16.690  28.018   0.803
99947W        W66488   9.028  25.284  12.400
99948W        W66489  24.532  18.411  14.218
99949W        W66490  20.262  14.985  11.374
99950W        W66491  22.228  33.833  13.240
99951W        W66492  32.994  39.825  10.806
99952W        W66493  16.841   1.481   4.791
99953W        W66494   8.329  25.080  14.543
99954W        W66495  36.437   9.064   4.658
99955W        W66496  13.876   8.736  14.004
99956W        W66497   6.465  42.404   0.484
99957W        W66498   1.372  23.470   0.778
99958W        W66499   8.544  30.908   1.730
99959W        W66500  31.176  20.473   1.462
99960W        W66501  39.902   1.854   1.842
99961W        W66502  14.132  29.940   4.999
99962W        W66503  14.605  17.321  13.433
99963W        W66504   2.989  44.326   4.302
99964W        W66505   5.247   0.953  12.121
99965W        W66506  27.788  19.383   2.135
99966W        W66507  22.521  26.519  11.135
99967W        W66508  22.261  41.801  11.977
99968W        W66509  35.356  28.060   3.629
99969W        W66510  29.629  11.702  12.178
99970W        W66511  10.105  41.923   1.389
99971W        W66512  20.343  37.537   3.303
99972W        W66513  14.547  10.120   3.064
99973W        W66514   9.871   5.696   0.539
99974W        W66515   0.968  24.635   4.116
99975W        W66516  35.584  32.839  12.541
99976W        W66517   7.727   6.207   0.168
99977W        W66518  42.969  32.077  11.046
99978W        W66519  30.555  13.070   0.403
99979W        W66520  13.398  23.655  14.293
99980W        W66521   0.726  11.864   3.291
99981W        W66522  11.334  16.122  10.721
99982W        W66523   5.692  20.074   0.457
99983W        W66524  44.399  32.581  14.084
99984W        W66525  42.104  16.614  13.051
99985W        W66526   2.133  34.588  10.644
99986W        W66527  10.465  19.757   2.021
99987W        W66528  16.714   7.172  11.015
99988W        W66529  29.971   9.700   3.761
99989W        W66530  35.591  24.624  10.621
99990W        W66531  19.695  23.544   2.325
99991W        W66532  33.251  13.113   3.164
99992W        W66533   1.833  29.329   3.672
99993W        W66534  42.379  34.626   4.253
99994W        W66535  29.933   3.487  13.765
99995W        W66536  43.269  10.174  11.640
99996W        W66537  27.470  38.494   0.617
99997W        W66538  32.385  39.079   3.158
99998W        W66539  28.775  30.738   2.665
99999W        W66540  17.616  23.061  14.532
    0W        W66541  25.023  38.940   4.456
    1W        W66542   0.640   2.020   1.455
    2W        W66543   2.756  18.673   3.317
    3W        W66544  33.514  29.628   4.653
    4W        W66545  44.423  13.841   1.147
    5W        W66546  39.444   0.882  14.764
    6W        W66547  20.220  34.976   4.638
    7W        W66548  41.455  39.883   0.768
    8W        W66549  34.323  32.275  11.008
    9W        W66550  28.528   9.822   4.073
   10W        W66551  27.418   3.461  13.998
   11W        W66552  44.747   2.232  12.506
   12W        W66553  26.698  24.022   0.800
   13W        W66554  22.784   1.657  12.162
   14W        W66555   9.232  26.248   4.563
   15W        W66556  18.288  30.941  14.795
   16W        W66557  22.084  13.285   3.912
   17W        W66558  43.633  44.461  10.682
   18W        W66559  34.956  43.403  13.623
   19W        W66560   7.819   0.952  10.714
   20W        W66561  43.056  14.170   1.885
   21W        W66562  26.923  41.577  10.164
   22W        W66563  44.040  21.898   1.652
   23W        W66564  26.955  19.771  14.120
   24W        W66565   8.834  34.441   3.735
   25W        W66566   2.345  30.157   9.698
   26W        W66567  38.958  23.051   0.287
   27W        W66568  25.898  27.587  13.787
   28W        W66569  24.034  29.719  13.545
   29W        W66570  38.376  28.005  13.901
   30W        W66571  23.664  14.048   2.957
   31W        W66572  27.675  14.300  13.470
   32W        W66573  18.981  16.470   1.161
   33W        W66574   7.721  33.474   4.473
   34W        W66575  17.567  15.750   3.724
   35W        W66576  28.036  25.982   1.482
   36W        W66577   9.930  38.407   4.489
   37W        W66578  39.588  27.050   1.499
   38W        W66579  36.190  20.715  12.825
   39W        W66580  39.553  20.285  10.494
   40W        W66581   3.637   6.658  13.280
   41W        W66582  29.687  42.956  12.261
   42W        W66583  13.380   2.851   2.240
   43W        W66584  43.795   1.418   0.868
   44W        W66585   7.009  19.197  11.121
   45W        W66586   2.881  39.846  13.108
   46W        W66587  43.806  37.629   1.947
   47W        W66588  20.878  44.825   3.544
   48W        W66589  43.782  29.542  13.784
   49W        W66590   4.890  34.702   5.046
   50W        W66591  16.589  40.250  14.092
   51W        W66592   7.703  14.610  13.314
   52W        W66593  38.174  27.547  13.702
   53W        W66594   7.751   3.995   4.646
   54W        W66595  44.399   7.168   1.003
   55W        W66596  40.452  25.433  10.736
   56W        W66597  18.692  29.216   4.094
   57W        W66598  42.710  30.376   2.755
   58W        W66599   6.668   6.059  14.189
   59W        W66600  30.846  22.517   1.947
   60W        W66601  39.095  22.950   2.079
   61W        W66602   4.782   1.974   1.528
   62W        W66603   0.064  44.261   0.975
   63W        W66604  44.438   5.105   2.423
   64W        W66605   3.841  17.491   3.535
   65W        W66606  33.473  29.107   3.290
   66W        W66607  44.963  36.717  12.004
   67W        W66608  38.537  39.778   0.243
   68W        W66609   5.317   4.179   0.354
   69W        W66610   7.130   8.669   4.515
   70W        W66611   4.717  13.395  11.624
   71W        W66612   5.662   7.184  11.172
   72W        W66613   4.784  37.911   0.254
   73W        W66614  35.262  28.832   2.244
   74W        W66615  11.218   4.175   0.790
   75W        W66616  27.106  10.615  11.494
   76W        W66617  32.979  36.391   1.508
   77W        W66618   3.955   4.724   3.122
   78W        W66619  39.329  11.494   4.086
   79W        W66620  12.856  27.082   2.433
   80W        W66621  10.664  19.562   4.203
   81W        W66622  22.476  31.408  13.775
   82W        W66623  18.822  20.832  11.999
   83W        W66624  22.792  31.043  14.510
   84W        W66625  16.161  17.291   1.430
   85W        W66626  12.691  26.442  14.469
   86W        W66627  15.475  10.495   4.477
   87W        W66628  38.288  38.125   0.898
   88W        W66629  32.036  31.306  14.203
   89W        W66630  33.479  22.775  12.932
   90W        W66631  21.230  30.565   2.299
   91W        W66632   9.461   6.794  11.090
   92W        W66633  41.585  25.832   4.518
   93W        W66634  17.869  36.072   4.565
   94W        W66635  23.797  40.558  12.598
   95W        W66636  31.949  35.826  13.031
   96W        W66637  32.591  25.710   3.194
   97W        W66638  35.161   0.841  10.832
   98W        W66639  43.485  21.654   4.710
   99W        W66640   5.863  36.554  10.637
  100W        W66641  24.035   2.961   3.255
  101W        W66642  10.098  17.407  13.720
  102W        W66643  15.396  44.995   1.099
  103W        W66644  24.732  26.874   2.695
  104W        W66645  39.722  36.480   3.598
  105W        W66646  16.301  15.857   1.834
  106W        W66647  34.054  39.000   1.427
  107W        W66648  25.236  11.587  13.920
  108W        W66649  24.286   0.870   2.563
  109W        W66650  21.594  37.523  12.025
  110W        W66651   3.906  41.192  14.472
  111W        W66652   6.823  35.761  14.291
  112W        W66653  36.104  35.037  13.434
  113W        W66654  11.051  44.801  10.712
  114W        W66655  12.729  12.399   4.106
  115W        W66656  10.601   9.764  11.253
  116W        W66657   8.333  13.509   0.088
  117W        W66658   9.402  14.549  13.959
  118W        W66659  19.829  40.757  11.586
  119W        W66660  10.517  23.599  11.965
  120W        W66661   3.555  37.016   3.603
  121W        W66662  35.844  36.013   4.563
  122W        W66663  12.801  15.822   2.677
  123W        W66664   0.314  15.015   4.676
  124W        W66665  35.535  35.601  14.913
  125W        W66666  11.331  13.290  11.796
  126W        W66667  32.135  12.095   1.904
  127W        W66668   8.118   6.417  13.367
  128W        W66669   8.853  33.243   2.717
  129W        W66670  41.123   5.140   4.710
  130W        W66671  38.093  11.729  14.968
  131W        W66672  25.026  22.069  14.512
  132W        W66673  20.282  25.172   4.995
  133W        W66674  10.180   7.866  11.303
  134W        W66675  19.096  44.357   2.276
  135W        W66676  35.086  21.593   0.511
  136W        W66677  36.875   8.206  11.117
  137W        W66678  38.284  38.363  11.589
  138W        W66679  25.197   9.135  12.080
  139W        W66680   4.343  33.467  11.459
  140W        W66681  43.024  44.954  12.076
  141W        W66682   4.571  11.150  10.972
  142W        W66683   5.677  15.649   3.650
  143W        W66684  35.473  23.662  11.125
  144W        W66685   4.513   7.548  12.819
  145W        W66686  16.997  31.001  12.428
  146W        W66687  37.957  14.907  12.372
  147W        W66688  30.353   8.398  13.451
  148W        W66689  13.552  38.373   1.642
  149W        W66690  19.140  31.079   5.046
  150W        W66691  21.251  13.515  14.916
  151W        W66692  37.569  37.012   2.151
  152W        W66693  21.784  28.206  11.205
  153W        W66694  12.197  39.932   4.058
  154W        W66695   0.937   2.460   2.333
  155W        W66696  26.077   0.594   2.253
  156W        W66697  24.249  19.553   2.889
  157W        W66698  14.277  42.767  11.073
  158W        W66699  29.086  16.088  12.396
  159W        W66700  27.928  26.450   2.154
  160W        W66701   0.850   2.905   1.178
  161W        W66702  26.315  42.891  11.637
  162W        W66703  19.181   0.349  13.910
  163W        W66704  28.405  14.994   2.285
  164W        W66705  17.659  30.656  13.346
  165W        W66706  40.600   6.895   1.812
  166W        W66707   4.165  17.965  14.909
  167W        W66708  42.032  28.250  12.883
  168W        W66709  37.191   5.549  13.583
  169W        W66710  39.954  17.843  14.644
  170W        W66711   6.234  39.529  11.385
  171W        W66712  43.737  10.922   4.275
  172W        W66713  32.521   8.107   4.541
  173W        W66714  31.186  36.116  11.599
  174W        W66715  25.826  11.746   3.479
  175W        W66716  32.898  44.418  11.588
  176W        W66717  30.089  37.545   4.982
  177W        W66718  10.179  15.002  14.523
  178W        W66719   9.202  32.093  12.928
  179W        W66720  29.094  27.887   4.201
  180W        W66721   1.787  16.894  11.592
  181W        W66722  28.442  22.142   4.351
  182W        W66723  22.507  21.100  13.929
  183W        W66724  32.191  42.455  14.075
  184W        W66725  10.460  34.112  10.273
  185W        W66726  30.058   6.176  10.871
  186W        W66727  44.532  31.847   5.200
  187W        W66728   5.600  42.716  12.043
  188W        W66729  14.814  25.176   1.939
  189W        W66730  44.923   4.526  12.942
  190W        W66731   7.352  18.571   1.845
  191W        W66732   0.772  26.908  13.912
  192W        W66733   8.492  22.963   3.501
  193W        W66734  21.053  26.062   4.480
  194W        W66735  24.035   7.846   0.883
  195W        W66736   6.083  40.074   2.640
  196W        W66737  28.669  35.326  11.344
  197W        W66738  37.036  15.249   4.150
  198W        W66739   6.720  11.233  13.979
  199W        W66740   4.682  19.739  12.497
  200W        W66741  38.947  37.396   3.163
  201W        W66742   0.317  15.528   0.839
  202W        W66743  30.609  26.119   2.789
  203W        W66744  12.251  18.588   4.862
  204W        W66745  13.077  26.968   3.798
  205W        W66746  40.830  32.468  13.298
  206W        W66747  25.215  29.157   4.156
  207W        W66748   2.388  21.217   1.738
  208W        W66749  30.643  15.083  11.678
  209W        W66750  16.263  31.909  11.877
  210W        W66751  40.950  25.880  11.576
  211W        W66752   3.165   1.343  11.417
  212W        W66753  28.612  26.018  10.594
  213W        W66754   4.395  42.606   2.940
  214W        W66755   8.708  25.295  10.708
  215W        W66756  43.005  40.385  11.594
  216W        W66757  13.170  34.846   1.505
  217W        W66758  11.235  43.770   1.940
  218W        W66759  39.996  33.886   4.796
  219W        W66760  24.135  43.053   5.294
  220W        W66761  28.110  35.779  13.885
  221W        W66762  11.207  10.840   0.674
  222W        W66763  20.038   4.397  11.910
  223W        W66764  20.590   5.594   0.245
  224W        W66765  40.392  31.879  12.474
  225W        W66766   0.717  25.651   4.328
  226W        W66767  32.339  32.456   3.745
  227W        W66768  22.033  42.298  10.693
  228W        W66769   4.751  29.928   0.501
  229W        W66770   0.574  14.284   3.556
  230W        W66771  34.702  44.437   4.612
  231W        W66772  11.309  43.192  12.406
  232W        W66773   4.984  13.815   2.675
  233W        W66774   2.433   5.927  13.476
  234W        W66775   5.636  28.484  11.620
  235W        W66776  17.594   7.319   3.231
  236W        W66777  35.404  29.406   3.376
  237W        W66778  29.903   4.015  14.946
  238W        W66779  30.483  39.172  12.053
  239W        W66780  37.815  19.226   2.104
  240W        W66781   7.639  44.653   4.339
  241W        W66782  35.874  10.106   2.824
  242W        W66783   0.109  32.545   3.993
  243W        W66784   7.163  35.543   2.888
  244W        W66785  40.898  10.229  11.590
  245W        W66786  19.006  11.515   4.407
  246W        W66787   0.765  20.623   0.867
  247W        W66788  43.811  43.305   1.008
  248W        W66789  35.879  37.315   1.849
  249W        W66790  34.829  22.933   3.733
  250W        W66791  11.784   7.979  14.660
  251W        W66792  22.143   7.918   3.768
  252W        W66793  11.148  44.477   3.642
  253W        W66794  21.481  41.276   3.501
  254W        W66795  22.447  31.642  11.300
  255W        W66796  17.191  30.144   0.369
  256W        W66797   8.992  39.471  11.236
  257W        W66798  42.003  11.199  11.129
  258W        W66799  27.188  20.272   3.080
  259W        W66800   0.237   0.730   4.588
  260W        W66801   9.303  22.390  10.857
  261W        W66802  14.071  16.388   4.059
  262W        W66803  11.859  19.638   0.268
  263W        W66804   0.601  19.453   1.705
  264W        W66805  17.107  14.382  13.323
  265W        W66806  41.757  14.767  13.584
  266W        W66807  33.313  42.537  12.478
  267W        W66808  26.523  38.386  13.538
  268W        W66809  16.080  18.574  13.026
  269W        W66810   1.857  41.251   2.337
  270W        W66811  28.133   4.864  14.889
  271W        W66812   8.184  30.673  11.938
  272W        W66813  18.711  42.142   1.946
  273W        W66814  11.077  17.353  14.042
  274W        W66815  19.211  30.607   4.880
  275W        W66816   7.995  14.288  10.457
  276W        W66817  10.891  26.968  13.300
  277W        W66818  21.197   5.596   1.959
  278W        W66819  22.992  42.396  13.872
  279W        W66820   6.274  11.846  11.549
  280W        W66821  10.842  10.578  13.880
  281W        W66822  33.933   4.868   4.817
  282W        W66823  10.406  13.802   4.192
  283W        W66824  16.740  25.635   3.157
  284W        W66825   2.040  41.677   2.868
  285W        W66826  18.015  28.324  12.660
  286W        W66827  37.078  20.424   2.042
  287W        W66828  21.793  12.754   1.236
  288W        W66829  18.082   4.866  14.816
  289W        W66830   1.883  21.731  14.952
  290W        W66831   3.148   5.144   5.431
  291W        W66832  31.633  16.842   2.761
  292W        W66833  11.264  37.791  12.861
  293W        W66834  38.234   5.811  11.351
  294W        W66835  40.144  30.420  13.749
  295W        W66836  20.705  20.035   2.379
  296W        W66837  35.170  12.632  10.625
  297W        W66838  20.104  22.067   0.705
  298W        W66839  11.167   0.499   1.293
  299W        W66840   1.331  28.994  11.767
  300W        W66841  31.401  23.934   0.463
  301W        W66842  41.024   0.907  13.957
  302W        W66843   7.183  41.829   4.547
  303W        W66844  21.730  29.725  12.680
  304W        W66845   9.162   7.091  11.411
  305W        W66846  30.842  42.351   4.245
  306W        W66847  16.136  26.722   4.565
  307W        W66848  26.704  44.414  12.217
  308W        W66849   7.694  31.499   3.758
  309W        W66850  27.816  34.576  12.834
  310W        W66851   0.307  21.691  12.890
  311W        W66852  25.093  32.004  14.414
  312W        W66853  36.071  22.550  10.926
  313W        W66854   2.397  44.968  12.572
  314W        W66855  36.509  40.311   0.733
  315W        W66856   4.684  10.164  12.772
  316W        W66857  25.293  31.677  10.289
  317W        W66858  15.262  44.047  12.604
  318W        W66859  22.550   8.961  14.088
  319W        W66860  44.584   5.342  11.120
  320W        W66861  19.208  39.558   1.179
  321W        W66862  26.923  33.963  13.954
  322W        W66863  23.746  22.445   3.291
  323W        W66864  20.560  12.113  12.541
  324W        W66865  22.656   0.823  11.096
  325W        W66866  31.199   5.047  13.364
  326W        W66867  15.678   9.435  13.811
  327W        W66868  17.210  17.886  10.382
  328W        W66869  15.569  14.236  11.507
  329W        W66870  26.294  16.116   0.943
  330W        W66871  25.524  17.558   3.698
  331W        W66872  14.871  21.969   2.310
  332W        W66873  41.397   6.393   4.170
  333W        W66874  36.604  32.889  10.617
  334W        W66875  42.454  42.351   0.980
  335W        W66876  14.525  11.643   3.724
  336W        W66877  34.824  22.920  12.831
  337W        W66878  26.944   6.619  14.366
  338W        W66879  23.400  34.605  14.314
  339W        W66880  18.016  35.894  13.367
  340W        W66881  16.532  15.420   3.390
  341W        W66882  11.878  16.844   4.261
  342W        W66883  34.430  33.603  13.931
  343W        W66884  21.070   6.811  14.445
  344W        W66885  21.983  24.722  13.950
  345W        W66886  13.350   6.876   3.771
  346W        W66887  13.875  36.019   4.135
  347W        W66888  40.276  21.715  13.368
  348W        W66889  17.133  21.222  13.019
  349W        W66890   9.799  44.904  14.790
  350W        W66891  40.718  33.991  10.999
  351W        W66892  12.076  15.823   2.108
  352W        W66893  42.576  17.317   9.786
  353W        W66894  44.859  14.196  12.448
  354W        W66895  10.293  12.603  13.484
  355W        W66896  23.750  36.063   3.450
  356W        W66897  36.900  30.977   3.218
  357W        W66898  21.841  18.642   2.302
  358W        W66899   4.035   3.551  10.678
  359W        W66900  23.407   9.927   0.502
  360W        W66901  39.081   3.162  11.676
  361W        W66902  14.717  17.713   0.767
  362W        W66903  23.695  33.604   4.742
  363W        W66904  28.386  41.940   2.278
  364W        W66905  26.970  34.765  14.823
  365W        W66906  32.965   9.810   1.724
  366W        W66907  36.217  14.062   4.137
  367W        W66908   1.065   7.370   2.728
  368W        W66909   2.263  40.817  11.372
  369W        W66910  16.777   5.251  11.655
  370W        W66911   6.111   8.331   2.588
  371W        W66912  44.976  42.871   1.316
  372W        W66913  22.287  39.358  12.532
  373W        W66914  35.036  42.350   0.753
  374W        W66915  24.066  14.580   2.536
  375W        W66916  20.052  10.158  13.801
  376W        W66917  32.009  17.295  10.901
  377W        W66918  28.234  42.439   1.890
  378W        W66919  20.203  19.698   0.486
  379W        W66920  22.245  26.921   0.667
  380W        W66921  31.093  31.567  13.961
  381W        W66922   6.716  35.217  12.337
  382W        W66923   5.955  11.677  13.078
  383W        W66924  32.633  13.421  12.315
  384W        W66925   9.732   4.845  10.815
  385W        W66926   1.166  20.245  11.434
  386W        W66927  42.049  35.607   0.456
  387W        W66928  15.279   9.662  11.557
  388W        W66929  19.368  30.094   3.561
  389W        W66930  33.980  11.286  11.088
  390W        W66931  29.930  15.705   0.766
  391W        W66932  24.501  13.798  13.294
  392W        W66933  43.539  41.614  10.975
  393W        W66934  29.358   5.864   3.638
  394W        W66935  32.568  34.116  11.576
  395W        W66936  44.494  34.437  10.634
  396W        W66937  37.642  26.296  13.686
  397W        W66938  22.862  35.438   1.860
  398W        W66939  11.862  33.199   0.960
  399W        W66940  23.285  29.161  14.738
  400W        W66941  40.714  21.592   4.999
  401W        W66942  44.838  28.068  11.554
  402W        W66943   5.182  40.969   2.391
  403W        W66944  39.704  22.160   1.214
  404W        W66945  35.421  24.235  11.737
  405W        W66946   1.770  32.629  11.443
  406W        W66947  18.301  24.576  10.519
  407W        W66948  25.975  30.586   0.005
  408W        W66949  39.527  38.005   1.018
  409W        W66950  20.034  36.858  14.413
  410W        W66951  41.919  12.691   4.008
  411W        W66952  11.369  14.218   1.377
  412W        W66953   0.702  33.105  11.714
  413W        W66954  30.559   1.193  14.966
  414W        W66955  16.172  37.090   1.136
  415W        W66956  32.099  31.622  13.156
  416W        W66957   5.830  30.136  11.117
  417W        W66958  32.541  32.821  13.838
  418W        W66959   6.658   3.325  11.130
  419W        W66960  22.635  15.861   2.859
  420W        W66961  10.045  41.387   2.613
  421W        W66962  25.566  16.243   3.270
  422W        W66963  10.369  26.106   0.934
  423W        W66964  31.226  12.362   0.021
  424W        W66965   0.460  32.964  10.862
  425W        W66966  42.757  10.964   1.483
  426W        W66967  17.155   6.827  14.316
  427W        W66968  25.655   5.018   2.733
  428W        W66969  30.261  37.094  12.045
  429W        W66970  36.551  19.961   3.336
  430W        W66971  18.138   6.179   1.008
  431W        W66972  31.432  10.585   3.755
  432W        W66973   5.679  43.477   1.921
  433W        W66974  26.196  11.690  14.379
  434W        W66975  13.786   5.788  13.074
  435W        W66976  44.304  23.644  10.766
  436W        W66977  41.220   4.403  11.227
  437W        W66978  38.922  14.717   3.246
  438W        W66979   9.190  35.732   1.015
  439W        W66980  33.600  28.777  11.552
  440W        W66981  16.712  44.949  14.450
  441W        W66982  40.226  33.715   3.690
  442W        W66983  12.912  25.781   3.990
  443W        W66984  10.675  26.077  13.015
  444W        W66985  28.406   8.957  11.737
  445W        W66986  33.804  13.154  14.927
  446W        W66987   0.231  17.991   0.756
  447W        W66988  18.828  22.691   0.350
  448W        W66989   5.357  14.566  12.338
  449W        W66990  18.065   2.273  12.903
  450W        W66991  37.045  34.048   2.212
  451W        W66992   7.001  39.579  14.361
  452W        W66993  25.741  14.221   4.584
  453W        W66994   4.121  13.705   4.608
  454W        W66995  20.143  32.899  13.498
  455W        W66996  33.595  31.959  11.543
  456W        W66997  20.923  42.109  12.476
  457W        W66998  14.602  32.484   2.138
  458W        W66999  29.032  37.160   5.024
  459W        W67000   9.797  33.181  11.578
  460W        W67001  39.929   6.649   1.171
  461W        W67002  35.469  22.243   0.439
  462W        W67003   5.792  20.139   3.404
  463W        W67004  32.681  39.253  14.573
  464W        W67005  30.452  20.084  13.404
  465W        W67006   8.873  39.449   2.154
  466W        W67007   2.834  34.879   2.205
  467W        W67008  30.547  32.500  14.739
  468W        W67009  37.882  25.649  13.910
  469W        W67010  16.002   2.920   4.111
  470W        W67011  17.183  12.441   0.468
  471W        W67012  39.494   7.189   0.834
  472W        W67013   6.357  18.480  11.906
  473W        W67014  27.534   4.197   2.096
  474W        W67015  41.508  26.641  12.487
  475W        W67016  36.544  33.356   3.966
  476W        W67017  36.144  21.051   3.626
  477W        W67018   4.774  17.763   1.250
  478W        W67019  34.359   4.590   2.299
  479W        W67020  37.547   3.385   4.123
  480W        W67021  21.036  17.966   5.039
  481W        W67022  26.911  25.219   1.585
  482W        W67023  12.873  23.494   3.339
  483W        W67024   6.839  39.049  12.669
  484W        W67025   8.989  34.805  14.439
  485W        W67026  43.197   5.904   0.153
  486W        W67027  13.656  28.450  14.228
  487W        W67028  29.785  18.492   1.653
  488W        W67029  32.579   0.785  10.818
  489W        W67030  39.313  30.384   1.751
  490W        W67031  36.570   4.713   1.743
  491W        W67032   4.223  44.942   5.064
  492W        W67033   2.660  44.653   0.041
  493W        W67034  20.514  44.147  14.835
  494W        W67035   7.576  10.584   1.877
  495W        W67036  16.891  20.166  10.408
  496W        W67037   1.457  26.102   2.694
  497W        W67038  39.743  16.212  13.931
  498W        W67039   6.801  11.719  13.931
  499W        W67040  29.890  19.686   1.181
  500W        W67041  10.795  33.496  10.778
  501W        W67042  31.035   1.534  11.100
  502W        W67043   8.760  33.935   1.403
  503W        W67044  23.091  21.620   3.886
  504W        W67045  23.141  27.730  12.942
  505W        W67046   2.994  39.317   2.916
  506W        W67047  27.911  41.934  14.694
  507W        W67048   3.328  21.058  14.325
  508W        W67049  44.492  14.885  14.215
  509W        W67050  38.241  11.646   4.188
  510W        W67051   0.862   4.911  11.145
  511W        W67052  26.630  43.779   2.436
  512W        W67053   1.194  41.349   4.093
  513W        W67054  18.051  15.381  13.935
  514W        W67055   2.266  30.219  14.468
  515W        W67056   4.234  28.246  11.621
  516W        W67057  34.752   0.026  12.897
  517W        W67058  10.788  17.108   1.389
  518W        W67059   8.678   2.640   0.930
  519W        W67060  23.522  33.657   2.337
  520W        W67061  11.753  44.933   3.076
  521W        W67062  43.049   4.231  11.509
  522W        W67063  11.751   2.968  10.775
  523W        W67064  18.156  24.627   2.338
  524W        W67065   5.827  29.835   3.380
  525W        W67066  17.981  34.508  12.531
  526W        W67067  31.906  25.680   1.159
  527W        W67068  24.128  26.070   3.095
  528W        W67069  40.445  24.453  10.630
  529W        W67070   9.768  19.761  14.856
  530W        W67071   7.591  23.584  11.170
  531W        W67072   1.624  19.414   0.741
  532W        W67073  39.981  29.592   2.871
  533W        W67074  24.970  24.372  12.043
  534W        W67075  20.673  39.038  13.171
  535W        W67076   2.754  30.859   2.601
  536W        W67077  40.429  37.572  12.985
  537W        W67078  23.143  30.684   1.935
  538W        W67079   7.410  15.661   0.933
  539W        W67080  25.238   5.907   1.630
  540W        W67081   6.264  38.047  12.080
  541W        W67082  26.137   8.421  14.937
  542W        W67083  33.503   7.420   1.774
  543W        W67084  37.096   8.628  13.949
  544W        W67085  37.824  19.384  12.444
  545W        W67086  12.655  31.255  11.648
  546W        W67087   1.195  26.257   3.591
  547W        W67088  23.923   4.720   0.275
  548W        W67089  15.857  13.139  12.063
  549W        W67090  19.116  44.836  13.921
  550W        W67091   2.327   6.291   3.238
  551W        W67092  31.440   6.720  10.899
  552W        W67093  32.539  43.521   4.020
  553W        W67094  31.941  31.630   0.377
  554W        W67095  28.909  39.049  11.834
  555W        W67096  40.196  16.826   1.393
  556W        W67097  27.655  26.264   3.777
  557W        W67098  17.567  11.904   0.857
  558W        W67099  14.952   8.796   1.067
  559W        W67100  36.611  20.515   2.281
  560W        W67101  24.596  12.000  14.365
  561W        W67102  32.617  43.081  14.556
  562W        W67103  30.714   7.665  13.552
  563W        W67104  16.423  13.748   5.193
  564W        W67105  34.179  11.661   4.670
  565W        W67106  41.146  37.284  12.511
  566W        W67107  32.565  44.099  11.872
  567W        W67108  14.798   5.158   4.148
  568W        W67109  14.327  26.380  13.969
  569W        W67110  24.026   5.434  14.882
  570W        W67111   2.473  38.462   0.140
  571W        W67112  11.334  31.240   1.931
  572W        W67113   0.248  34.920  12.654
  573W        W67114  11.603  22.153  10.987
  574W        W67115  18.673  40.732  12.234
  575W        W67116  12.352   4.230   2.863
  576W        W67117  30.999  14.096  11.665
  577W        W67118  41.251  23.984   4.635
  578W        W67119  23.787  31.086   1.310
  579W        W67120  42.484  17.072  11.011
  580W        W67121  43.001  38.995   2.695
  581W        W67122   4.147   4.894  12.828
  582W        W67123   7.778  26.346   0.984
  583W        W67124  40.842  43.378  10.681
  584W        W67125   6.742   2.604  11.542
  585W        W67126  11.267   3.809  13.047
  586W        W67127  44.723  31.543   1.264
  587W        W67128  42.492  38.378   1.600
  588W        W67129  43.290  14.880  13.634
  589W        W67130  29.208  30.201  11.436
  590W        W67131   9.356  16.645   0.376
  591W        W67132  36.870   2.368  12.985
  592W        W67133  40.419  12.376   1.373
  593W        W67134   5.151  35.773   1.720
  594W        W67135  15.455   7.289   0.221
  595W        W67136  42.847  23.755  11.571
  596W        W67137  18.132  10.192   0.422
  597W        W67138  16.657  32.174   0.407
  598W        W67139  40.815   0.915  14.794
  599W        W67140  14.422  20.628   0.815
  600W        W67141  16.379  29.481   0.824
  601W        W67142  33.943  43.447  12.208
  602W        W67143  35.858  12.886   3.194
  603W        W67144  44.489  19.105   3.684
  604W        W67145  41.858  17.242   3.259
  605W        W67146  30.671  18.177  12.031
  606W        W67147  44.860  21.635  14.457
  607W        W67148   1.645  26.221  10.497
  608W        W67149  34.492  29.493   2.018
  609W        W67150  35.820  23.657   3.096
  610W        W67151  36.508  31.396   2.173
  611W        W67152  39.375  12.225  12.473
  612W        W67153  42.001  14.841  11.230
  613W        W67154  20.022   2.595   4.729
  614W        W67155  30.591   8.134  12.866
  615W        W67156  25.330   8.871   2.276
  616W        W67157  38.435  31.031   1.166
  617W        W67158   8.433  31.100  12.116
  618W        W67159  37.599  31.042  13.548
  619W        W67160  20.428  40.996  13.473
  620W        W67161   2.833  44.791  10.627
  621W        W67162  27.568   4.424  12.115
  622W        W67163   7.721  29.915   4.080
  623W        W67164  36.097   3.033  13.293
  624W        W67165  28.872  29.900  11.650
  625W        W67166  40.376  39.183   1.890
  626W        W67167   3.803  23.095   9.990
  627W        W67168  13.888  20.201   0.863
  628W        W67169  15.733  20.088   0.777
  629W        W67170  16.628  24.827  10.528
  630W        W67171   1.877  14.175   3.118
  631W        W67172  21.012  44.286  11.866
  632W        W67173  24.738  21.494  14.003
  633W        W67174   9.190   8.382  14.287
  634W        W67175   3.625  11.110  14.721
  635W        W67176  28.081  20.710   4.757
  636W        W67177  35.997  29.934  12.955
  637W        W67178  19.748  24.775   3.821
  638W        W67179  21.027  11.075  12.116
  639W        W67180  22.535   1.359  14.767
  640W        W67181  25.579  26.898   2.408
  641W        W67182   9.907  43.972   1.906
  642W        W67183  29.972  36.095   0.258
  643W        W67184  35.388  10.722  12.573
  644W        W67185  27.734  12.905   1.987
  645W        W67186  30.672  43.914  10.765
  646W        W67187   9.254  23.672   0.947
  647W        W67188  11.197  17.604   4.654
  648W        W67189  37.795  22.590   4.341
  649W        W67190   8.189  42.577  14.392
  650W        W67191   4.624  15.278  11.589
  651W        W67192  27.642  33.558   4.768
  652W        W67193  13.142   3.376  12.022
  653W        W67194  19.056  37.930  13.353
  654W        W67195  31.277  43.768  11.571
  655W        W67196  15.681  43.252  14.970
  656W        W67197  23.465  21.611   1.517
  657W        W67198  12.118  15.043   1.724
  658W        W67199  19.562  26.124  13.104
  659W        W67200  33.607  24.254   3.116
  660W        W67201  15.717  23.889  12.368
  661W        W67202  16.145  21.782  10.970
  662W        W67203  20.293  14.058   0.381
  663W        W67204   2.377   6.702   1.459
  664W        W67205  19.048  14.741   0.044
  665W        W67206  31.041  21.255   0.319
  666W        W67207  24.509  14.638  12.877
  667W        W67208  17.102  20.780  11.220
  668W        W67209   8.841   8.773  10.469
  669W        W67210  33.528   6.628   3.738
  670W        W67211  33.203  12.853   2.713
  671W        W67212  28.579  11.390   3.207
  672W        W67213  16.593   1.717   1.784
  673W        W67214  31.723  43.798   3.042
  674W        W67215  20.317  37.831  11.308
  675W        W67216   3.468  44.335   2.614
  676W        W67217  35.921  27.513  12.896
  677W        W67218  44.648  19.727  12.335
  678W        W67219  41.384  22.143  13.892
  679W        W67220  19.310  14.580  10.736
  680W        W67221   7.848  16.292  12.147
  681W        W67222   6.928  41.696   2.100
  682W        W67223  11.817  18.963   3.714
  683W        W67224   0.736  20.044  12.140
  684W        W67225  12.302  15.304  10.377
  685W        W67226  22.465  33.180   4.486
  686W        W67227  26.673  40.993  11.481
  687W        W67228   6.125  42.350  10.507
  688W        W67229  23.252  21.120   3.766
  689W        W67230  20.972  19.502   1.342
  690W        W67231   1.330  24.115   3.795
  691W        W67232  23.500  36.459  11.553
  692W        W67233  35.898   1.816  11.584
  693W        W67234  40.053  40.549   4.047
  694W        W67235   1.894  23.589  13.544
  695W        W67236   2.815  35.503  13.847
  696W        W67237   0.399  38.904   4.498
  697W        W67238  14.279   7.934  13.808
  698W        W67239  29.780  19.056  13.811
  699W        W67240  31.213  12.683  11.569
  700W        W67241   4.029   0.947   2.228
  701W        W67242  30.929  32.092   3.285
  702W        W67243   6.809  23.999  12.074
  703W        W67244  17.670  15.304   9.706
  704W        W67245  33.484  39.923   4.565
  705W        W67246   0.934  30.621   0.319
  706W        W67247  35.594  24.545   4.250
  707W        W67248  28.310  32.383   4.581
  708W        W67249   8.432  39.196  14.016
  709W        W67250  37.517  34.273   2.362
  710W        W67251  22.703  31.502   0.380
  711W        W67252   1.251  20.658   3.799
  712W        W67253   0.516  26.792   4.118
  713W        W67254  30.741  44.066   4.497
  714W        W67255  31.638   6.887  12.326
  715W        W67256  12.397  16.844  12.093
  716W        W67257  34.492   4.563  12.416
  717W        W67258   6.175  32.810   1.263
  718W        W67259  33.641  17.813  12.775
  719W        W67260   0.379  39.416   3.184
  720W        W67261  22.975   4.300  11.652
  721W        W67262  38.443  42.483   2.831
  722W        W67263  43.546  30.391   2.177
  723W        W67264  21.348  12.421   3.796
  724W        W67265   9.449  31.908   5.002
  725W        W67266  18.471   2.479   0.138
  726W        W67267  20.308  42.535  12.569
  727W        W67268  40.725  22.975  11.517
  728W        W67269   6.674  30.319  11.568
  729W        W67270  13.894  18.964   3.185
  730W        W67271   3.237  16.016  11.482
  731W        W67272   5.710  24.671  14.281
  732W        W67273  22.707  17.335  12.595
  733W        W67274  21.124   9.288   4.025
  734W        W67275  34.989   9.566  13.470
  735W        W67276  29.801   0.123   4.106
  736W        W67277  22.166  16.043   1.910
  737W        W67278  17.805  43.774   1.288
  738W        W67279   4.722  41.710  11.920
  739W        W67280   4.740  30.648   4.111
  740W        W67281  44.532   5.808  12.976
  741W        W67282  29.475  33.295  11.982
  742W        W67283  38.932  18.687  12.843
  743W        W67284  21.015  42.509   3.482
  744W        W67285  13.633  19.198   0.879
  745W        W67286  29.972  23.450   0.304
  746W        W67287   1.995  13.746   1.407
  747W        W67288   2.999  39.824   1.741
  748W        W67289  14.261   6.983  11.131
  749W        W67290  30.020  27.487  13.797
  750W        W67291  30.968  29.624  13.482
  751W        W67292   4.979  15.928   4.097
  752W        W67293   5.831  30.434  10.298
  753W        W67294  14.514  12.187   3.682
  754W        W67295  20.454  12.340   1.314
  755W        W67296  14.032  39.260   4.146
  756W        W67297  20.132  35.508  11.803
  757W        W67298  40.489  14.248  11.207
  758W        W67299   3.040  43.298   4.508
  759W        W67300  29.050  18.285  14.194
  760W        W67301  21.029  40.649  14.399
  761W        W67302  25.580  27.012  10.644
  762W        W67303   6.710   3.169   2.325
  763W        W67304   9.922  31.437  13.011
  764W        W67305  28.707   4.260  11.544
  765W        W67306  34.860  33.166  11.669
  766W        W67307  17.512  38.949  11.172
  767W        W67308   7.441  41.282  11.106
  768W        W67309  36.614  24.513  13.100
  769W        W67310  15.909  14.624   5.428
  770W        W67311  31.359  35.602   1.181
  771W        W67312   2.866  12.693  11.313
  772W        W67313  26.526  29.537  14.622
  773W        W67314  42.984  20.400  12.407
  774W        W67315  28.000  30.283  12.600
  775W        W67316  36.820  25.421  10.835
  776W        W67317  15.070   4.822  11.705
  777W        W67318   5.339  16.990   3.227
  778W        W67319  36.402   6.067  14.542
  779W        W67320  32.111  22.040   3.630
  780W        W67321  11.899   2.841   4.398
  781W        W67322  17.059  24.554   3.230
  782W        W67323  26.920  19.694   3.293
  783W        W67324   3.799  20.249   3.577
  784W        W67325  34.015  31.204   0.366
  785W        W67326  31.206  40.487   3.343
  786W        W67327  43.923  34.588   0.901
  787W        W67328  29.025  17.662   4.850
  788W        W67329  16.248  24.505   2.406
  789W        W67330  20.457  23.139   2.835
  790W        W67331  14.167  33.944   0.196
  791W        W67332  23.536  30.499  11.180
  792W        W67333  21.459  26.719   0.887
  793W        W67334  17.074  10.201   2.853
  794W        W67335  40.299  41.850   1.288
  795W        W67336  44.862  23.083   2.731
  796W        W67337  42.838  33.975   2.854
  797W        W67338  36.331  25.414   3.662
  798W        W67339  16.192  12.620   0.294
  799W        W67340   1.777  16.346   1.669
  800W        W67341   5.892  13.207  14.760
  801W        W67342  42.962  17.266   2.339
  802W        W67343   9.864  26.839  12.405
  803W        W67344  41.330  18.910  14.373
  804W        W67345  37.579  43.256   0.538
  805W        W67346   1.907   5.780  13.376
  806W        W67347   0.834  40.813  13.396
  807W        W67348  19.886   3.036  11.471
  808W        W67349   6.621  44.833   1.175
  809W        W67350  34.347  34.081  14.963
  810W        W67351  12.568  17.598   1.969
  811W        W67352  19.782   4.859  11.162
  812W        W67353  36.964  31.428   1.129
  813W        W67354  40.550  26.886  13.421
  814W        W67355  39.872   4.271   2.695
  815W        W67356  28.214  30.606  11.522
  816W        W67357   3.442  13.644  11.060
  817W        W67358  17.350   1.255  11.503
  818W        W67359   0.623  13.013  11.995
  819W        W67360   6.967  26.048  11.674
  820W        W67361  26.999   0.862   3.135
  821W        W67362   3.024  33.258   4.955
  822W        W67363  16.171  25.896  11.420
  823W        W67364  13.795  12.835  11.133
  824W        W67365  22.607   7.748   1.919
  825W        W67366  13.111  12.050   2.830
  826W        W67367   5.411  23.196  10.912
  827W        W67368   1.421  12.125  14.515
  828W        W67369  36.886   6.157  14.307
  829W        W67370  44.848  24.149   3.723
  830W        W67371   2.250  29.116   1.479
  831W        W67372  29.062   5.203   1.143
  832W        W67373  22.023  36.525  14.976
  833W        W67374   5.887   9.187   3.412
  834W        W67375  31.886  18.239  13.438
  835W        W67376  27.024  11.000   4.901
  836W        W67377  18.413  19.462  14.408
  837W        W67378  40.668  22.003  12.556
  838W        W67379  25.063  22.192  13.024
  839W        W67380  21.397  42.550   0.872
  840W        W67381  43.370  41.324   3.791
  841W        W67382   8.241  32.293  12.578
  842W        W67383  20.930  42.854   4.129
  843W        W67384  20.483  10.409  14.460
  844W        W67385   9.184  19.053  12.520
  845W        W67386  24.495  27.628   1.321
  846W        W67387  27.583  40.932  11.584
  847W        W67388  32.070  26.608  12.034
  848W        W67389  22.930  10.768  14.713
  849W        W67390  39.993  43.656   2.239
  850W        W67391  29.208   8.194   3.205
  851W        W67392  42.501  23.700  13.606
  852W        W67393  37.072   8.229  13.021
  853W        W67394  29.849   5.518  13.598
  854W        W67395  20.409  27.984  14.777
  855W        W67396  40.147  18.553  11.248
  856W        W67397  11.739  25.678  13.392
  857W        W67398  24.604  39.075   2.150
  858W        W67399  34.163  23.565  10.700
  859W        W67400  38.581  38.297  13.997
  860W        W67401  14.591  23.367   1.983
  861W        W67402  29.488  35.380  12.076
  862W        W67403  39.552  44.952   2.102
  863W        W67404   7.627   1.749  11.025
  864W        W67405  21.966  40.150  13.720
  865W        W67406  12.203   5.768  12.118
  866W        W67407   8.435   8.717   0.403
  867W        W67408  36.792  28.141  11.216
  868W        W67409   1.222  16.126   2.842
  869W        W67410  19.238  20.318  13.962
  870W        W67411   4.704  23.462   9.624
  871W        W67412  37.828   0.893  14.447
  872W        W67413  22.301   6.925   2.309
  873W        W67414  32.637   3.912   4.895
  874W        W67415  38.155  12.017  10.274
  875W        W67416  13.821  24.603  12.109
  876W        W67417   6.122  10.831   0.713
  877W        W67418  41.565   7.855   3.276
  878W        W67419  32.851  34.468   0.162
  879W        W67420  13.351  41.105   1.441
  880W        W67421  41.081   0.950  10.783
  881W        W67422  21.199  33.456   1.149
  882W        W67423  12.091  28.957  11.117
  883W        W67424  36.623  33.840  12.962
  884W        W67425   9.820  39.504   3.275
  885W        W67426  24.937  18.369  11.121
  886W        W67427  41.668  23.278   3.089
  887W        W67428  27.042  15.704   0.515
  888W        W67429  19.369  16.281   4.090
  889W        W67430   5.577  35.126   2.293
  890W        W67431  42.935   2.490  12.853
  891W        W67432  40.239  12.655   5.328
  892W        W67433   0.533  34.030  12.530
  893W        W67434  25.743   8.950   2.605
  894W        W67435  21.680  11.250   0.726
  895W        W67436  14.321   8.711   3.666
  896W        W67437  11.689   2.346   3.219
  897W        W67438   8.673  44.807  12.133
  898W        W67439  11.011  36.484   4.901
  899W        W67440  20.719  36.328   1.377
  900W        W67441   6.068  15.045   2.277
  901W        W67442  10.760  43.477   2.835
  902W        W67443  38.572  12.070   4.112
  903W        W67444  25.922  14.509   4.110
  904W        W67445  23.968   9.819  12.081
  905W        W67446  26.908  12.736   2.828
  906W        W67447   2.220  10.261  10.809
  907W        W67448  22.427  17.106  10.766
  908W        W67449  21.606   2.553   2.132
  909W        W67450   7.291   4.120  11.176
  910W        W67451  41.899   1.231   4.050
  911W        W67452  18.169  26.278   0.814
  912W        W67453  40.001  27.974   1.458
  913W        W67454   3.442  34.341  13.932
  914W        W67455  42.011   8.552  10.520
  915W        W67456  12.697  12.591   1.752
  916W        W67457  42.801   4.996   2.946
  917W        W67458  28.115  44.051   3.700
  918W        W67459   2.111   5.988  11.199
  919W        W67460  15.531  25.186  14.558
  920W        W67461   8.642  39.748  13.473
  921W        W67462  34.476  32.165   0.988
  922W        W67463  10.804   1.558  11.095
  923W        W67464  15.188  18.752  12.008
  924W        W67465  34.926  34.383  14.966
  925W        W67466   5.353  10.654  14.500
  926W        W67467  22.088  11.269  11.419
  927W        W67468  42.501   2.730   1.784
  928W        W67469  22.223  33.143  14.925
  929W        W67470  40.967  27.056   4.127
  930W        W67471   1.744  12.152  12.498
  931W        W67472  12.826  16.887  12.418
  932W        W67473   0.617  33.810  14.937
  933W        W67474  13.623  13.538   2.899
  934W        W67475  44.508  17.477   4.350
  935W        W67476  16.707  37.812   0.714
  936W        W67477  24.606  37.108   3.676
  937W        W67478   0.122  20.395   1.240
  938W        W67479  39.091  30.417  13.959
  939W        W67480  37.894  14.307   5.036
  940W        W67481  14.473  40.166   3.902
  941W        W67482  36.850  23.939   2.633
  942W        W67483  22.442  31.858  13.384
  943W        W67484  18.748  43.432   2.480
  944W        W67485  27.278  12.754  12.236
  945W        W67486  44.214   5.730  11.544
  946W        W67487  35.183  15.877   2.257
  947W        W67488   3.948  28.149   3.719
  948W        W67489  32.208   9.178  10.989
  949W        W67490   5.758  44.356   2.272
  950W        W67491  29.460  21.699  14.421
  951W        W67492  42.407  21.521   2.411
  952W        W67493  10.120  12.378  13.009
  953W        W67494  40.727  31.134  12.137
  954W        W67495  27.961  22.937  14.394
  955W        W67496  31.344  14.195  12.475
  956W        W67497  31.322  25.557  14.227
  957W        W67498   4.876   3.256   1.636
  958W        W67499  16.565  43.484  11.979
  959W        W67500  18.223  34.419  13.907
  960W        W67501  21.236   3.491  11.423
  961W        W67502  37.164   2.693  14.346
  962W        W67503   5.728   6.436  10.639
  963W        W67504   4.331  42.192   3.711
  964W        W67505   8.461  41.968  11.082
  965W        W67506   0.342  41.517  13.524
  966W        W67507  27.896  35.507  13.001
  967W        W67508  34.938  21.962   0.927
  968W        W67509  41.495  23.209  11.153
  969W        W67510  36.344  24.463   2.702
  970W        W67511  15.141  24.169   1.827
  971W        W67512  17.283  10.980   4.014
  972W        W67513   6.403  19.237   4.392
  973W        W67514  37.647  24.037  11.160
  974W        W67515  41.714   1.645  11.204
  975W        W67516  42.723  13.366  14.439
  976W        W67517  29.964  21.542  11.057
  977W        W67518  33.889  39.682   3.549
  978W        W67519  19.518  40.918  13.384
  979W        W67520   0.351  39.851   4.653
  980W        W67521  29.446  34.704   5.016
  981W        W67522  36.298   4.353   4.763
  982W        W67523  41.386  29.462  14.259
  983W        W67524  42.740  20.775   2.317
  984W        W67525   2.674   5.865  11.233
  985W        W67526  44.486  27.393   0.810
  986W        W67527   0.471  28.893   3.041
  987W        W67528  17.427  26.653   4.893
  988W        W67529  37.496   7.381   4.093
  989W        W67530   1.304   1.920  12.327
  990W        W67531  42.192  27.627  12.037
  991W        W67532  11.289  20.736  11.112
  992W        W67533  11.096   9.867   4.359
  993W        W67534   9.398   6.243   3.829
  994W        W67535  31.458   7.960  11.143
  995W        W67536   1.943  23.483  11.673
  996W        W67537  15.048  17.111   2.130
  997W        W67538  11.097  38.588  14.020
  998W        W67539  43.252  15.011  10.993
  999W        W67540   3.802  14.217   2.240
 1000W        W67541  43.502   8.143   3.558
 1001W        W67542  32.940   4.330   0.855
 1002W        W67543  14.790  16.894   0.485
 1003W        W67544  25.215  14.198  10.718
 1004W        W67545  20.525  23.851   0.883
 1005W        W67546  13.102  26.510   3.188
 1006W        W67547   5.374  13.638  13.781
 1007W        W67548  23.941  31.068  11.710
 1008W        W67549  27.680  18.487  12.597
 1009W        W67550  12.589   7.176   4.515
 1010W        W67551  35.306   8.949   4.140
 1011W        W67552  28.196  44.969  10.586
 1012W        W67553  40.114  28.000  13.836
 1013W        W67554  40.165  20.362  12.933
 1014W        W67555  26.960   1.381  12.155
 1015W        W67556   7.261  28.890   2.190
 1016W        W67557  39.358   6.862  14.360
 1017W        W67558  19.749  29.939   0.398
 1018W        W67559  15.326  17.086   3.161
 1019W        W67560  40.271   1.442   1.215
 1020W        W67561  20.040  34.791  13.414
 1021W        W67562  11.649  39.980   0.720
 1022W        W67563   7.465  13.373   1.596
 1023W        W67564  23.181  32.247  10.096
 1024W        W67565  42.736  15.391  14.202
 1025W        W67566   5.904  34.455   0.591
 1026W        W67567  20.770  18.037  10.272
 1027W        W67568  25.933  40.333   0.697
 1028W        W67569   2.812  40.143   0.850
 1029W        W67570  30.550  38.520   4.695
 1030W        W67571  13.594  16.664   4.599
 1031W        W67572   2.005  22.911   1.701
 1032W        W67573  19.907   4.750   0.374
 1033W        W67574  15.713  13.656   3.127
 1034W        W67575   0.136  17.181  11.917
 1035W        W67576  43.453  42.781   2.710
 1036W        W67577   5.232   2.793   3.645
 1037W        W67578  12.759  22.659  14.028
 1038W        W67579  10.974  41.343   3.185
 1039W        W67580  17.545   7.363   1.297
 1040W        W67581  12.179  29.220   3.376
 1041W        W67582  25.486  41.962  14.317
 1042W        W67583  36.110  27.667  14.508
 1043W        W67584  14.797  26.209  12.306
 1044W        W67585  21.308  39.015   0.808
 1045W        W67586  27.578  24.205  12.070
 1046W        W67587  20.758  39.911   1.111
 1047W        W67588   9.204  17.783   3.599
 1048W        W67589  17.615  15.782   3.218
 1049W        W67590  28.988  24.389   4.155
 1050W        W67591  37.484  25.996   0.522
 1051W        W67592  37.902  12.067  12.950
 1052W        W67593  20.972  31.587   2.450
 1053W        W67594  44.592  38.502   3.265
 1054W        W67595  28.968   3.840   0.948
 1055W        W67596  28.885  21.609  12.309
 1056W        W67597  33.579   3.416   2.331
 1057W        W67598  23.011  39.745   2.790
 1058W        W67599   7.332  32.387   2.791
 1059W        W67600  43.783  18.848   2.809
 1060W        W67601  23.704  43.237  13.022
 1061W        W67602  34.060  44.255  14.267
 1062W        W67603  31.996  11.278   2.127
 1063W        W67604  11.610  10.336   0.947
 1064W        W67605  24.324  30.227   4.576
 1065W        W67606  12.390  39.739   1.839
 1066W        W67607  19.122   1.536  14.447
 1067W        W67608  33.358  17.377   5.229
 1068W        W67609  29.425  14.820  12.416
 1069W        W67610   4.840  40.740   4.329
 1070W        W67611   2.118  11.798  13.460
 1071W        W67612   2.750  23.514  12.431
 1072W        W67613  17.783  39.330  10.840
 1073W        W67614  27.881  29.515   0.245
 1074W        W67615   7.944   1.351  11.013
 1075W        W67616  25.615   6.121  14.747
 1076W        W67617  13.917  34.530   2.315
 1077W        W67618  17.341   6.711  10.915
 1078W        W67619   7.641   4.663  11.902
 1079W        W67620  42.064  30.446  13.325
 1080W        W67621   8.510  24.510   2.693
 1081W        W67622  42.461  13.807   3.200
 1082W        W67623  31.843   0.809  12.055
 1083W        W67624   7.663  27.755  11.946
 1084W        W67625  18.308  26.876   2.455
 1085W        W67626  33.872  13.042   4.439
 1086W        W67627   0.776  10.978   3.394
 1087W        W67628  12.754  22.259  14.453
 1088W        W67629  23.224  18.431   1.464
 1089W        W67630  24.253   8.144   1.243
 1090W        W67631   8.666  18.777   3.143
 1091W        W67632  12.345  43.700  14.012
 1092W        W67633  14.579  34.804  14.698
 1093W        W67634  31.493  38.503  12.244
 1094W        W67635  37.025   6.232   0.418
 1095W        W67636  35.422  39.048   2.945
 1096W        W67637  25.069   4.714   3.868
 1097W        W67638  22.763  24.584   4.099
 1098W        W67639   1.009  13.710   4.785
 1099W        W67640  15.081  34.435  13.080
 1100W        W67641  35.821  18.850  12.497
 1101W        W67642  17.539  19.333  11.571
 1102W        W67643  40.271  26.133   3.460
 1103W        W67644  32.422   9.432   0.980
 1104W        W67645  17.302  12.659  13.880
 1105W        W67646   3.407  22.043   3.294
 1106W        W67647  42.338  27.546  13.742
 1107W        W67648  21.726  28.941   0.467
 1108W        W67649   3.484  29.848   4.460
 1109W        W67650  18.462  10.692   4.118
 1110W        W67651   7.662  34.338   3.175
 1111W        W67652  26.134  37.490   3.717
 1112W        W67653  43.792  14.842   0.782
 1113W        W67654  29.637  39.344   4.314
 1114W        W67655  41.965  16.264  13.519
 1115W        W67656   7.709  17.059   0.035
 1116W        W67657   8.487   6.310   4.431
 1117W        W67658   6.781  21.005   0.483
 1118W        W67659  33.142  41.799   2.876
 1119W        W67660  20.529  20.121   3.318
 1120W        W67661   8.667  27.456  14.901
 1121W        W67662  44.484   4.650   3.388
 1122W        W67663  38.106   1.982   4.232
 1123W        W67664   2.789   7.744  14.023
 1124W        W67665  31.559  36.772   2.733
 1125W        W67666  22.763  19.910   3.853
 1126W        W67667  20.496  11.223   4.584
 1127W        W67668  19.233   5.541  10.623
 1128W        W67669  15.177  30.399  10.216
 1129W        W67670  31.690  24.102   2.855
 1130W        W67671  35.504  29.920  13.369
 1131W        W67672  24.213  13.440   4.344
 1132W        W67673  44.284  13.378   2.570
 1133W        W67674  35.234  29.720  13.954
 1134W        W67675  42.345  37.860  12.276
 1135W        W67676  20.067  38.773  14.344
 1136W        W67677  27.975  41.041   4.115
 1137W        W67678  41.612  44.858  12.193
 1138W        W67679   2.959  41.008  11.124
 1139W        W67680  18.999  13.361  11.197
 1140W        W67681  27.036  34.022  11.106
 1141W        W67682   3.724  25.770   3.226
 1142W        W67683  28.789  17.800  10.328
 1143W        W67684  37.006   6.933  14.966
 1144W        W67685   8.036  34.909   4.771
 1145W        W67686  32.716  43.801  10.572
 1146W        W67687  15.283  13.635  14.670
 1147W        W67688   3.017  31.799  12.990
 1148W        W67689  13.498   5.126  12.934
 1149W        W67690   8.841  39.520  13.921
 1150W        W67691  42.044  12.441   3.560
 1151W        W67692  23.552   9.110   4.120
 1152W        W67693   7.187   4.339  13.955
 1153W        W67694   2.947  34.589   1.776
 1154W        W67695  42.562  30.509   1.897
 1155W        W67696  44.170  23.634  12.943
 1156W        W67697  13.486  32.294   4.068
 1157W        W67698  13.807  10.332  12.768
 1158W        W67699  17.925  30.970  11.574
 1159W        W67700  43.743   4.449  11.972
 1160W        W67701  31.444  25.236   1.833
 1161W        W67702  25.711  28.590  14.467
 1162W        W67703  36.752   8.694   3.777
 1163W        W67704  27.899  22.497   5.182
 1164W        W67705  44.895   1.221  12.175
 1165W        W67706   2.540   9.229  10.813
 1166W        W67707  23.283  29.444  13.858
 1167W        W67708  23.945  29.242   0.431
 1168W        W67709  20.485  17.159  14.922
 1169W        W67710  13.642  33.151   4.115
 1170W        W67711  32.555  23.744  11.645
 1171W        W67712  20.657   2.529  11.970
 1172W        W67713   1.254  28.474  11.655
 1173W        W67714  21.491  27.549   4.989
 1174W        W67715  36.049  36.083  14.283
 1175W        W67716  16.887  13.801   3.314
 1176W        W67717  31.576  15.032  14.682
 1177W        W67718   3.329  16.384  14.334
 1178W        W67719   3.191   1.642   0.587
 1179W        W67720  15.186  24.328  11.170
 1180W        W67721  44.284  21.281   3.079
 1181W        W67722  44.002  38.448  14.171
 1182W        W67723   5.435  24.006  12.550
 1183W        W67724   5.360  27.349   2.552
 1184W        W67725  12.822  29.392  12.106
 1185W        W67726  11.381  37.331   3.660
 1186W        W67727  24.537  44.888   0.693
 1187W        W67728  15.290  27.835   1.743
 1188W        W67729  26.036  21.422   1.515
 1189W        W67730  13.320   3.883  10.621
 1190W        W67731  10.162   3.704  12.094
 1191W        W67732   9.218  23.629   2.804
 1192W        W67733   1.165  39.545  11.167
 1193W        W67734  37.320  30.083   4.092
 1194W        W67735  16.407  12.215   0.562
 1195W        W67736  40.299   4.296   1.916
 1196W        W67737  44.739   2.217  13.444
 1197W        W67738  20.203  40.329   2.817
 1198W        W67739  43.313   4.289   4.861
 1199W        W67740  23.015  36.641  11.390
 1200W        W67741  44.719  30.350   0.923
 1201W        W67742  18.985   2.733  12.653
 1202W        W67743  20.808  19.039   1.495
 1203W        W67744  15.708   0.799  14.919
 1204W        W67745  30.262  35.998   3.641
 1205W        W67746   0.810  10.191  12.661
 1206W        W67747  17.165  30.192  14.843
 1207W        W67748  25.198  44.839  13.407
 1208W        W67749  28.856  26.408   4.112
 1209W        W67750  41.932  32.044   3.447
 1210W        W67751  33.301  18.648   1.828
 1211W        W67752  24.329  29.296   3.131
 1212W        W67753  20.315  23.638   3.918
 1213W        W67754  30.365  10.585   3.533
 1214W        W67755  18.988  32.737  13.983
 1215W        W67756  17.371  10.824  12.258
 1216W        W67757  30.626  38.973   1.280
 1217W        W67758   6.153  41.921   0.360
 1218W        W67759  12.821  11.662   4.778
 1219W        W67760   7.289   7.696  13.583
 1220W        W67761  40.569  31.230   0.479
 1221W        W67762  16.220   5.199   4.247
 1222W        W67763  34.958  37.000  12.469
 1223W        W67764  26.621  20.567   2.724
 1224W        W67765  29.415   2.386   2.879
 1225W        W67766  41.211  14.146  13.291
 1226W        W67767  28.671   1.343  11.596
 1227W        W67768  18.385  13.287  10.330
 1228W        W67769  18.999   4.940  14.156
 1229W        W67770  34.582  24.697   1.394
 1230W        W67771  29.487  35.622   1.843
 1231W        W67772  17.731   0.366  12.161
 1232W        W67773  15.741   2.444   1.920
 1233W        W67774  10.623   7.343  10.715
 1234W        W67775  36.774  17.017   3.000
 1235W        W67776  33.895  15.824   0.037
 1236W        W67777  13.631   8.757  13.557
 1237W        W67778  43.206  36.736   1.943
 1238W        W67779  31.341  22.005  12.108
 1239W        W67780  20.589   6.886   1.827
 1240W        W67781   1.962   1.113   3.154
 1241W        W67782  24.034  21.956   0.161
 1242W        W67783  14.126  39.036   1.654
 1243W        W67784  42.465   8.513  10.766
 1244W        W67785   2.873  28.669  12.379
 1245W        W67786  31.132  38.371   1.157
 1246W        W67787  12.708  26.706  14.941
 1247W        W67788  36.999  36.421   4.071
 1248W        W67789  20.340  15.315   2.770
 1249W        W67790  20.270   9.181  11.150
 1250W        W67791  18.048  44.451   0.810
 1251W        W67792  41.445  12.336  13.597
 1252W        W67793  22.759   4.869   4.448
 1253W        W67794  43.375  12.774  13.548
 1254W        W67795  21.585   2.777  13.027
 1255W        W67796   1.421  29.759  14.589
 1256W        W67797  21.741  16.231  14.223
 1257W        W67798   2.896   4.251  11.555
 1258W        W67799  38.356  10.820   4.691
 1259W        W67800   0.523  13.038   2.363
 1260W        W67801  31.893  12.064  13.490
 1261W        W67802  10.550  35.894  14.905
 1262W        W67803  35.558   2.046  12.718
 1263W        W67804  40.323  20.977   0.123
 1264W        W67805  34.824  22.060  13.345
 1265W        W67806  35.078  31.349  13.897
 1266W        W67807  10.203   3.355  10.956
 1267W        W67808  44.992  29.119  14.621
 1268W        W67809  35.451   5.979  12.477
 1269W        W67810  29.028  17.308   2.405
 1270W        W67811  17.208  23.108   3.027
 1271W        W67812   2.787  12.620  14.249
 1272W        W67813  38.463  13.504   5.388
 1273W        W67814  24.936  15.769   0.731
 1274W        W67815  29.303  38.353   3.877
 1275W        W67816  14.823  28.571   1.756
 1276W        W67817  16.623  24.527   4.129
 1277W        W67818  22.166  26.907   3.883
 1278W        W67819  18.964   4.926  14.970
 1279W        W67820  38.338   1.188  12.598
 1280W        W67821  18.779  10.223  14.743
 1281W        W67822  16.739   7.232  12.946
 1282W        W67823  17.100  34.859  14.460
 1283W        W67824  22.761   2.884  12.506
 1284W        W67825  20.088  21.717  12.575
 1285W        W67826  23.229  19.712   3.955
 1286W        W67827  26.952  42.521  11.220
 1287W        W67828  13.610   4.151   3.848
 1288W        W67829  10.731  16.213   0.357
 1289W        W67830  31.122  41.595  14.867
 1290W        W67831   2.805  38.056   3.707
 1291W        W67832   7.822  42.470  12.876
 1292W        W67833  20.068   7.684   5.107
 1293W        W67834  12.640  41.797   3.598
 1294W        W67835  36.075  41.056   2.259
 1295W        W67836  35.836  39.280  10.474
 1296W        W67837   0.483  10.861  12.671
 1297W        W67838  28.654  41.843   4.113
 1298W        W67839  27.037  44.383   0.716
 1299W        W67840  31.125  20.747   2.409
 1300W        W67841  10.245  18.226  10.876
 1301W        W67842  36.383   5.539  10.108
 1302W        W67843  34.874  29.135  10.490
 1303W        W67844  28.854   1.906  12.936
 1304W        W67845  29.758  43.830   3.799
 1305W        W67846  29.291  42.894  10.848
 1306W        W67847  44.451  23.793   0.183
 1307W        W67848  42.750  26.606  11.200
 1308W        W67849  26.453   0.924  13.810
 1309W        W67850  16.928  22.044   1.180
 1310W        W67851  31.259   0.680   4.192
 1311W        W67852   4.283  10.836   2.244
 1312W        W67853  15.496   7.046   2.179
 1313W        W67854  12.149  11.329  12.707
 1314W        W67855   6.479  36.678  14.427
 1315W        W67856  13.594  11.568  14.049
 1316W        W67857  25.789   3.885   4.197
 1317W        W67858  36.084   2.977  11.926
 1318W        W67859   0.244  42.745  12.487
 1319W        W67860  14.607  23.489  10.870
 1320W        W67861   0.448  30.736   3.723
 1321W        W67862  25.691   8.880   0.784
 1322W        W67863  38.167   0.006   2.830
 1323W        W67864  34.124  40.474   0.739
 1324W        W67865  26.745  39.611  12.845
 1325W        W67866  24.016   1.441   3.345
 1326W        W67867  36.842  27.374  12.579
 1327W        W67868  15.204  13.227  14.962
 1328W        W67869  22.778   1.337   1.487
 1329W        W67870  30.245  38.321  12.339
 1330W        W67871   7.465   6.332  11.065
 1331W        W67872   5.189  17.497   3.316
 1332W        W67873  41.347   7.188  13.408
 1333W        W67874  28.356  17.329   4.385
 1334W        W67875  13.733  20.294   1.740
 1335W        W67876   2.218  18.139  13.900
 1336W        W67877  37.771   9.744  14.437
 1337W        W67878  34.184  11.645   2.530
 1338W        W67879   5.481  31.214  14.514
 1339W        W67880   5.391  18.497   3.146
 1340W        W67881  33.186  22.202   4.095
 1341W        W67882  13.592  17.588  12.501
 1342W        W67883   0.810  17.744   3.637
 1343W        W67884  13.407  26.613   1.216
 1344W        W67885   4.954  11.138  13.862
 1345W        W67886  29.458   2.658   1.897
 1346W        W67887  18.377   4.311  14.351
 1347W        W67888  22.153  32.091  13.807
 1348W        W67889  30.999  17.329  14.777
 1349W        W67890  40.010  42.996  12.861
 1350W        W67891  43.034  15.157  10.556
 1351W        W67892   6.665  31.407   1.734
 1352W        W67893  35.964  22.749   4.394
 1353W        W67894   5.961   9.541   3.819
 1354W        W67895  29.622  34.599  12.496
 1355W        W67896  34.746  22.432  10.610
 1356W        W67897  15.162  11.430  11.940
 1357W        W67898  22.864   7.483   1.577
 1358W        W67899  11.348  24.488   1.086
 1359W        W67900  21.475  15.520  11.506
 1360W        W67901  37.002   2.116   1.353
 1361W        W67902   9.673  24.071   4.093
 1362W        W67903  40.488  33.461   1.422
 1363W        W67904   0.333  32.393   1.769
 1364W        W67905  29.444  37.833   3.234
 1365W        W67906   0.883  10.423   1.839
 1366W        W67907  31.144  17.738   3.601
 1367W        W67908  43.598  14.632  10.980
 1368W        W67909   4.765  40.418  14.231
 1369W        W67910  11.871  14.605  10.949
 1370W        W67911   3.961  29.128  10.986
 1371W        W67912   4.474   3.748   2.194
 1372W        W67913   1.293  27.771  10.211
 1373W        W67914  44.964  11.836  13.856
 1374W        W67915  24.685  34.462   0.765
 1375W        W67916  24.505  37.207  10.825
 1376W        W67917  10.361  29.698   2.385
 1377W        W67918  42.760  40.353  10.620
 1378W        W67919  38.380   5.574   4.346
 1379W        W67920   8.355   4.369   3.326
 1380W        W67921  22.128  14.336  11.676
 1381W        W67922  20.005  24.143  11.675
 1382W        W67923  38.578  12.081   3.577
 1383W        W67924  21.217  29.028  13.417
 1384W        W67925  11.654  42.063   3.624
 1385W        W67926   9.835  18.254  10.545
 1386W        W67927  13.656  22.059   4.648
 1387W        W67928   8.856   9.857   4.388
 1388W        W67929  20.516  10.807  12.860
 1389W        W67930  42.548  40.076   1.399
 1390W        W67931  14.772   8.455  11.182
 1391W        W67932  16.990  19.107   1.862
 1392W        W67933  38.610  24.119   2.141
 1393W        W67934   9.899  39.220   1.468
 1394W        W67935  40.088  22.520  13.820
 1395W        W67936  39.494  17.116  11.036
 1396W        W67937  32.409  39.494   2.712
 1397W        W67938  19.644   0.944   0.415
 1398W        W67939  19.290   1.847   3.993
 1399W        W67940  17.664  25.776   3.132
 1400W        W67941  43.408  37.023   0.214
 1401W        W67942  36.483   3.329   1.177
 1402W        W67943  18.797  34.918   4.699
 1403W        W67944   3.121   9.977   0.662
 1404W        W67945  29.954   9.658  14.401
 1405W        W67946  19.532  18.138   0.763
 1406W        W67947   2.723  10.759   2.238
 1407W        W67948  17.456  13.694  10.186
 1408W        W67949  26.906  16.645   0.427
 1409W        W67950  33.640  24.139  14.384
 1410W        W67951  13.452  37.425  11.992
 1411W        W67952  10.806   3.849  11.120
 1412W        W67953  34.198  28.542   2.278
 1413W        W67954  41.403  44.887  13.095
 1414W        W67955  26.561  10.189   1.734
 1415W        W67956  44.425  17.330  12.432
 1416W        W67957   2.291  39.310   4.101
 1417W        W67958   0.757   3.842  12.092
 1418W        W67959   3.243  24.939   3.191
 1419W        W67960  38.962  20.619  12.090
 1420W        W67961  22.155  31.522   3.240
 1421W        W67962  31.413  34.825   3.190
 1422W        W67963  38.055   4.332   1.285
 1423W        W67964  42.098  21.195   4.076
 1424W        W67965  24.381  27.638  11.667
 1425W        W67966  17.867   7.671   0.331
 1426W        W67967  40.539  17.714  10.762
 1427W        W67968  14.796  26.604  13.877
 1428W        W67969   9.359  38.793  13.957
 1429W        W67970  44.543  23.178  11.486
 1430W        W67971  11.576   3.230  12.578
 1431W        W67972  36.450  19.653  13.401
 1432W        W67973  25.337  23.590   3.269
 1433W        W67974   6.622  12.760  12.095
 1434W        W67975  15.278  25.205   1.709
 1435W        W67976  40.409  39.798  11.672
 1436W        W67977  35.663  21.283   3.167
 1437W        W67978  40.826  12.166  11.161
 1438W        W67979  39.331  20.703   2.369
 1439W        W67980  10.136  18.793   4.075
 1440W        W67981  37.056  27.507   4.609
 1441W        W67982  44.104  39.748   1.179
 1442W        W67983   6.170   6.859   0.011
 1443W        W67984  13.703  21.284   1.694
 1444W        W67985  43.687  39.038   2.125
 1445W        W67986  31.839  42.415  12.567
 1446W        W67987   7.256  41.295   2.158
 1447W        W67988  14.263   0.573  11.650
 1448W        W67989  36.916   8.178  14.302
 1449W        W67990   7.596  38.051  14.633
 1450W        W67991   0.186   4.466  12.093
 1451W        W67992  37.378  14.885   4.271
 1452W        W67993  44.957   9.892   1.953
 1453W        W67994  20.518   3.099  11.562
 1454W        W67995  43.325  33.094   0.427
 1455W        W67996  35.787  13.555   0.833
 1456W        W67997  31.381  26.660   4.132
 1457W        W67998   5.202  34.587   4.644
 1458W        W67999  38.061   7.629   4.621
 1459W        W68000  15.697  12.188  11.680
 1460W        W68001  34.963  30.064   1.850
 1461W        W68002  44.904  13.831   4.136
 1462W        W68003   3.252  13.875   1.819
 1463W        W68004  28.940   5.767  13.571
 1464W        W68005  22.603   7.129   9.824
 1465W        W68006  30.493  16.750   4.215
 1466W        W68007  36.622  18.698  10.735
 1467W        W68008  15.789  18.815  13.411
 1468W        W68009  10.229  20.346   1.852
 1469W        W68010   1.758  38.946   4.679
 1470W        W68011  30.611  20.572   3.680
 1471W        W68012   0.878  12.345   2.455
 1472W        W68013   1.000  16.731   2.289
 1473W        W68014  19.214   6.041   0.322
 1474W        W68015  11.368   8.621   4.100
 1475W        W68016  16.168   5.435   1.056
 1476W        W68017  38.480  23.981   0.660
 1477W        W68018  43.074   1.215  12.279
 1478W        W68019  27.577  43.737  11.280
 1479W        W68020  28.862  41.164   4.856
 1480W        W68021  30.862  35.732   1.245
 1481W        W68022  44.770   8.256  14.231
 1482W        W68023  23.950  31.353  14.938
 1483W        W68024  43.450  19.152   4.905
 1484W        W68025  20.408   9.991   4.947
 1485W        W68026   7.262  17.328   3.994
 1486W        W68027  18.644  32.509  10.911
 1487W        W68028  34.611  41.325   4.596
 1488W        W68029  31.882  38.854   2.267
 1489W        W68030  20.450  24.900   2.815
 1490W        W68031  25.068   1.850   4.288
 1491W        W68032   4.471  41.916  13.309
 1492W        W68033  29.447  18.256   2.263
 1493W        W68034  29.536  17.859   4.746
 1494W        W68035  42.425  16.976  10.494
 1495W        W68036   1.209   1.771  10.181
 1496W        W68037  24.990  15.808   2.806
 1497W        W68038  37.705  29.699  12.049
 1498W        W68039  39.017  13.343   2.625
 1499W        W68040   2.678   0.974  14.585
 1500W        W68041   6.865   4.770  13.567
 1501W        W68042  32.344  44.413   2.474
 1502W        W68043  42.571  36.999   4.268
 1503W        W68044  21.990  18.746  10.718
 1504W        W68045  30.184  26.953  14.617
 1505W        W68046  14.854  23.914  14.879
 1506W        W68047   3.871  27.900  11.467
 1507W        W68048  17.640  11.658  14.041
 1508W        W68049  10.926  37.078   3.868
 1509W        W68050  10.388  41.221   4.574
 1510W        W68051  25.472  17.102   0.018
 1511W        W68052  42.411   8.220   0.907
 1512W        W68053  29.549  26.152  11.662
 1513W        W68054  33.061  23.709   1.785
 1514W        W68055  34.180   5.328   0.967
 1515W        W68056  34.047  24.167  14.935
 1516W        W68057  39.912  32.690  14.307
 1517W        W68058  34.566   3.414   3.675
 1518W        W68059  40.987  28.990   1.271
 1519W        W68060   5.733   7.420  14.347
 1520W        W68061  26.057  10.371  13.898
 1521W        W68062  24.413   9.755   1.219
 1522W        W68063  18.189  24.503  13.271
 1523W        W68064   0.394  43.391  11.244
 1524W        W68065  30.444  29.597   1.222
 1525W        W68066  35.316   0.796  12.226
 1526W        W68067  36.448  14.182  14.192
 1527W        W68068  25.359  36.548  13.430
 1528W        W68069  16.502  35.472  10.680
 1529W        W68070  10.159   5.999   1.422
 1530W        W68071   3.823  20.656  11.977
 1531W        W68072  15.262  44.210   3.314
 1532W        W68073   3.384  31.041   3.916
 1533W        W68074   9.136  25.565  10.680
 1534W        W68075  35.690  23.197   1.807
 1535W        W68076  42.293  38.705  13.904
 1536W        W68077  13.629   7.837   0.454
 1537W        W68078  12.837  23.526  12.091
 1538W        W68079  36.816  35.155   4.969
 1539W        W68080  37.843   3.292   4.700
 1540W        W68081  31.662   8.838  14.777
 1541W        W68082  37.781  38.045   3.705
 1542W        W68083  14.419  40.740  13.760
 1543W        W68084  25.850   7.325   3.680
 1544W        W68085  42.443  41.992  14.453
 1545W        W68086  33.553  17.846   4.339
 1546W        W68087   2.956  25.614  14.244
 1547W        W68088  11.386   5.464   3.668
 1548W        W68089  36.569   9.509  11.429
 1549W        W68090   9.686  11.635   3.074
 1550W        W68091  19.643  26.046   0.997
 1551W        W68092  19.565  41.837  11.551
 1552W        W68093   4.408  20.687   2.881
 1553W        W68094  29.017  15.461   4.249
 1554W        W68095  24.736   5.820   1.378
 1555W        W68096  23.557   9.934  13.847
 1556W        W68097  32.675  33.473   0.293
 1557W        W68098  20.316  27.456  11.736
 1558W        W68099   4.398  28.973  12.442
 1559W        W68100  37.690  18.056  11.131
 1560W        W68101  32.156  14.851   2.632
 1561W        W68102   5.331  26.410  14.083
 1562W        W68103  16.979  32.186  10.721
 1563W        W68104  32.607  43.780   3.164
 1564W        W68105  25.975   5.629  13.013
 1565W        W68106  14.761   6.216  11.561
 1566W        W68107  22.943   0.927  13.865
 1567W        W68108  33.787  26.931   3.565
 1568W        W68109  15.291   3.490  12.979
 1569W        W68110  22.953  34.388  14.486
 1570W        W68111   7.415  38.523   0.664
 1571W        W68112   8.969  11.373  11.242
 1572W        W68113  40.349   8.613   4.947
 1573W        W68114  20.278  15.092   0.445
 1574W        W68115  39.012   2.949  12.126
 1575W        W68116  40.914  37.956   3.634
 1576W        W68117  44.271  37.021   1.075
 1577W        W68118  17.189  33.356   3.384
 1578W        W68119   3.443  12.616   3.360
 1579W        W68120  11.264  24.694   3.095
 1580W        W68121  11.318  25.201  10.721
 1581W        W68122  20.631  21.946   0.426
 1582W        W68123  24.605  44.549  12.990
 1583W        W68124  32.524  33.318  14.783
 1584W        W68125   2.229   5.006  14.430
 1585W        W68126  30.303  40.036  13.523
 1586W        W68127  23.615  20.030   1.929
 1587W        W68128  22.963   5.926   3.646
 1588W        W68129  23.576  25.022   1.874
 1589W        W68130  44.462   0.927   1.401
 1590W        W68131   1.176  38.295   0.147
 1591W        W68132   8.726   0.214  12.932
 1592W        W68133  41.330  25.161  11.815
 1593W        W68134  40.855  11.194  13.349
 1594W        W68135  34.840  34.734   1.806
 1595W        W68136  27.572  13.352  10.665
 1596W        W68137  40.003  44.680   0.263
 1597W        W68138   8.162  44.947  12.097
 1598W        W68139  32.476  33.692  10.257
 1599W        W68140  22.603  15.593  13.372
 1600W        W68141  17.561  41.427  12.792
 1601W        W68142   6.879  13.194   0.206
 1602W        W68143  36.900  32.150  14.959
 1603W        W68144   7.283  15.020  14.822
 1604W        W68145   0.973  40.544   0.970
 1605W        W68146  42.974  43.889  10.713
 1606W        W68147  38.040   5.961  11.821
 1607W        W68148  16.855  14.075  10.970
 1608W        W68149  34.687  23.176  12.396
 1609W        W68150  44.754  22.295  13.922
 1610W        W68151  41.764  34.728   0.659
 1611W        W68152  13.976  43.138  11.441
 1612W        W68153  27.230  42.923   5.154
 1613W        W68154  20.652  27.531   4.385
 1614W        W68155  42.820  31.428  13.991
 1615W        W68156  20.512   0.856   2.672
 1616W        W68157  36.965  21.065   4.173
 1617W        W68158   2.960  33.433   4.227
 1618W        W68159  37.170  14.623   2.469
 1619W        W68160  25.703   0.406   5.166
 1620W        W68161  12.859  24.602   1.944
 1621W        W68162   4.142  36.414   1.256
 1622W        W68163  18.128   2.329   3.812
 1623W        W68164  19.031  37.572   0.408
 1624W        W68165  18.633   5.960   1.812
 1625W        W68166  15.236  17.707   0.403
 1626W        W68167  30.926  15.598   3.342
 1627W        W68168   2.373  36.853   0.265
 1628W        W68169  30.162  25.089  11.014
 1629W        W68170   9.752  17.743   4.887
 1630W        W68171  36.366  16.103   3.239
 1631W        W68172  30.649   0.672   2.409
 1632W        W68173  19.319  22.555   3.242
 1633W        W68174  24.570  36.557   2.289
 1634W        W68175  30.945   5.261   1.578
 1635W        W68176  37.544  29.469  14.745
 1636W        W68177  39.538  11.753  12.437
 1637W        W68178  16.014  40.748  12.855
 1638W        W68179  11.847  29.598   2.353
 1639W        W68180  11.127  20.119   3.336
 1640W        W68181  23.491  43.806   1.677
 1641W        W68182  21.689  14.522   1.349
 1642W        W68183  15.543  15.214  13.079
 1643W        W68184  23.316   3.233   2.250
 1644W        W68185  14.754  14.142  11.093
 1645W        W68186  14.184  42.399   4.259
 1646W        W68187  32.954  15.746  12.585
 1647W        W68188  32.339  30.713  12.916
 1648W        W68189   9.753  31.954  12.927
 1649W        W68190  31.972   4.351   4.662
 1650W        W68191  39.981   7.486  12.604
 1651W        W68192  10.848   1.402   0.293
 1652W        W68193  36.571  39.662  11.631
 1653W        W68194  43.785  10.118  14.853
 1654W        W68195  38.068  33.045   1.245
 1655W        W68196  36.557  27.411   4.719
 1656W        W68197  27.676   6.707  11.152
 1657W        W68198  38.486   7.131  10.927
 1658W        W68199  42.190  21.515  12.471
 1659W        W68200  39.239  25.977  12.181
 1660W        W68201  36.950  35.027  11.659
 1661W        W68202  30.487  20.528  11.663
 1662W        W68203  42.576  24.925   2.101
 1663W        W68204  22.173  16.568   1.933
 1664W        W68205  37.056   5.865   3.428
 1665W        W68206   0.789  14.950   1.530
 1666W        W68207  13.895  26.107  11.207
 1667W        W68208  39.836  10.561  12.002
 1668W        W68209  30.050  17.674  13.863
 1669W        W68210  31.305  40.907   0.885
 1670W        W68211  38.435   9.128   0.472
 1671W        W68212  32.676   5.484   2.743
 1672W        W68213  25.100  20.984   3.726
 1673W        W68214  16.438  14.375  10.970
 1674W        W68215  43.959  20.847   2.786
 1675W        W68216  39.277  24.538   1.233
 1676W        W68217  20.242  14.859   0.976
 1677W        W68218  13.083   9.865   1.649
 1678W        W68219  30.854  24.726  12.198
 1679W        W68220  28.167  30.379   1.483
 1680W        W68221   0.826  31.573  12.526
 1681W        W68222   3.476  37.342   2.782
 1682W        W68223  11.313  36.321   1.365
 1683W        W68224  15.378  17.711   4.469
 1684W        W68225  18.798   1.370  11.476
 1685W        W68226   2.715  43.326   2.840
 1686W        W68227   8.421  10.661   0.161
 1687W        W68228   9.244  31.102   1.164
 1688W        W68229  26.968  33.385  12.317
 1689W        W68230  16.602  26.611  13.600
 1690W        W68231   1.762  20.490  10.938
 1691W        W68232  43.897  38.392  13.261
 1692W        W68233  32.927  40.574  13.817
 1693W        W68234  35.543   9.473  11.962
 1694W        W68235  15.803   9.770  12.920
 1695W        W68236   2.748   7.667   4.273
 1696W        W68237  38.774  44.859   9.827
 1697W        W68238  24.767  25.631  13.485
 1698W        W68239  23.677   8.762  12.637
 1699W        W68240  21.705  40.806   0.898
 1700W        W68241   7.148   4.968   3.679
 1701W        W68242  24.493  41.998  14.450
 1702W        W68243  10.783  16.697  12.904
 1703W        W68244  42.091  21.191  14.848
 1704W        W68245   2.214  38.393   2.599
 1705W        W68246  31.216  26.086   4.392
 1706W        W68247  41.750  18.257  11.680
 1707W        W68248   6.842  15.578  11.721
 1708W        W68249  30.517  11.415  14.272
 1709W        W68250  36.416  29.869  13.436
 1710W        W68251   4.834  32.239  13.900
 1711W        W68252  21.828  11.855  11.548
 1712W        W68253  40.799  38.534  11.641
 1713W        W68254  18.710  11.122   0.402
 1714W        W68255  44.186  27.693   0.522
 1715W        W68256  20.755  18.642   1.178
 1716W        W68257  38.353  44.784   2.410
 1717W        W68258  42.237  41.002   2.313
 1718W        W68259  27.526  44.384   0.952
 1719W        W68260  21.653  21.082   1.579
 1720W        W68261   9.790  25.178   0.282
 1721W        W68262  18.712  40.052  13.029
 1722W        W68263  23.775  10.880  10.854
 1723W        W68264  18.177  42.546  10.556
 1724W        W68265  10.455  11.642   5.169
 1725W        W68266  22.215  36.471  11.257
 1726W        W68267  22.679   1.824  12.637
 1727W        W68268   9.239  15.076  14.553
 1728W        W68269  16.155  39.579  12.877
 1729W        W68270  12.318  30.062  11.977
 1730W        W68271  31.572  12.284  11.683
 1731W        W68272  15.602  25.988  12.899
 1732W        W68273  31.211  39.449   0.130
 1733W        W68274  36.866  38.327   0.740
 1734W        W68275  26.775   4.586  11.098
 1735W        W68276  28.520   0.580  11.169
 1736W        W68277  39.120   8.251   3.682
 1737W        W68278  26.482  18.107   4.039
 1738W        W68279   8.640  34.533   4.222
 1739W        W68280  15.446  26.940  12.692
 1740W        W68281  24.407  24.304   4.113
 1741W        W68282  24.426   4.889   1.181
 1742W        W68283  44.543  32.745   0.046
 1743W        W68284  13.677   1.785  12.453
 1744W        W68285  21.507  30.995  14.039
 1745W        W68286  43.837  11.906  10.673
 1746W        W68287  27.125  27.345  11.740
 1747W        W68288   0.859  44.169   4.174
 1748W        W68289  27.234  17.802  12.979
 1749W        W68290   1.131  15.648  13.551
 1750W        W68291  27.558  12.321  11.584
 1751W        W68292  29.751  25.392  13.263
 1752W        W68293  30.918  26.397  11.553
 1753W        W68294   9.334  29.142   3.235
 1754W        W68295  21.217  15.058  13.083
 1755W        W68296  43.976  35.198  10.662
 1756W        W68297  37.456  41.334  13.306
 1757W        W68298   0.649  18.820  12.382
 1758W        W68299  32.654   8.343  10.664
 1759W        W68300  40.741  10.930   4.930
 1760W        W68301   9.156  39.896   1.394
 1761W        W68302  34.292  34.067  10.759
 1762W        W68303   5.682  34.625   3.678
 1763W        W68304   0.457  17.082   3.558
 1764W        W68305   2.254  10.279   2.131
 1765W        W68306  36.674   1.015   4.068
 1766W        W68307  10.268  18.266   4.429
 1767W        W68308  38.865  21.099  14.312
 1768W        W68309  20.743  17.602  12.887
 1769W        W68310  31.538  35.223   0.244
 1770W        W68311  39.320  17.977  10.549
 1771W        W68312  42.626  36.672  13.062
 1772W        W68313  39.613  42.463   4.606
 1773W        W68314   7.355  26.424  14.196
 1774W        W68315  13.799  13.216  10.697
 1775W        W68316  29.713  40.081   1.199
 1776W        W68317  25.038  34.137   3.312
 1777W        W68318  18.238  13.540  12.584
 1778W        W68319  35.592  21.981   4.276
 1779W        W68320  28.092  15.795   3.859
 1780W        W68321  44.496  37.396  14.776
 1781W        W68322  44.980   3.000   0.705
 1782W        W68323  12.742  19.666   3.629
 1783W        W68324  31.765  29.024   0.038
 1784W        W68325  34.435  19.572   1.270
 1785W        W68326  19.114  36.097   4.102
 1786W        W68327  35.342   5.990  14.578
 1787W        W68328  33.355   6.008  13.940
 1788W        W68329  44.486   0.332  10.963
 1789W        W68330  38.085  34.626   0.297
 1790W        W68331  10.887  33.092  10.458
 1791W        W68332  22.681  12.282   4.111
 1792W        W68333   7.294  31.334   4.543
 1793W        W68334   0.277  34.520  13.940
 1794W        W68335  42.404   3.032   1.389
 1795W        W68336  10.135   4.453  13.534
 1796W        W68337  41.003  36.902   1.941
 1797W        W68338  26.591  32.951   1.972
 1798W        W68339  23.883  44.491   4.892
 1799W        W68340  22.166  16.719   9.790
 1800W        W68341  17.752  23.672   3.292
 1801W        W68342   3.992   6.771  13.650
 1802W        W68343  44.046  32.557  12.861
 1803W        W68344  34.856  32.246  11.698
 1804W        W68345  41.872   4.485   4.922
 1805W        W68346  34.649  35.175  14.278
 1806W        W68347  41.336  44.438  12.351
 1807W        W68348  14.234  15.248  10.847
 1808W        W68349  34.871  40.992   0.874
 1809W        W68350   1.380  38.339   0.615
 1810W        W68351  44.567  39.312   4.688
 1811W        W68352  22.635  27.700   0.984
 1812W        W68353  18.962  16.122  12.444
 1813W        W68354  30.458  44.936  12.772
 1814W        W68355  23.819   5.334  14.050
 1815W        W68356  16.127  41.886  13.546
 1816W        W68357   9.292  19.191   4.386
 1817W        W68358  43.934  19.267  14.305
 1818W        W68359   7.299  33.577   4.198
 1819W        W68360  21.236  35.529  11.872
 1820W        W68361   1.250  42.249  12.001
 1821W        W68362   9.439   7.810  10.703
 1822W        W68363  20.189   5.603   9.806
 1823W        W68364  31.821   8.691  11.060
 1824W        W68365   4.191  41.835   1.508
 1825W        W68366  12.694  20.649   2.378
 1826W        W68367  42.276  43.856   0.921
 1827W        W68368  41.404   6.149  13.437
 1828W        W68369  24.014  43.404  12.547
 1829W        W68370   7.132  29.902   2.501
 1830W        W68371   6.518  37.763   4.303
 1831W        W68372  10.272   6.746   4.387
 1832W        W68373  29.540  41.978   4.117
 1833W        W68374  33.616   4.120  14.798
 1834W        W68375  10.355  10.044   1.628
 1835W        W68376  23.080  39.272  14.519
 1836W        W68377  10.907  18.098  11.693
 1837W        W68378  40.770  18.004   4.100
 1838W        W68379  28.188  10.085  12.439
 1839W        W68380  44.899  28.263   3.175
 1840W        W68381  43.666  32.504  11.484
 1841W        W68382  29.706  36.090   1.811
 1842W        W68383  40.426  17.718   4.795
 1843W        W68384  34.072   4.633   4.116
 1844W        W68385   8.138  38.944  11.979
 1845W        W68386   9.914  39.460  12.928
 1846W        W68387  11.411   3.421   1.900
 1847W        W68388  18.221  36.362  11.144
 1848W        W68389  31.077  15.175   0.436
 1849W        W68390  37.831   5.154   2.752
 1850W        W68391  34.325  38.602  12.014
 1851W        W68392  20.210  11.726   3.165
 1852W        W68393   7.366  41.681  14.350
 1853W        W68394  44.014   0.673   1.296
 1854W        W68395  11.263  24.268  13.819
 1855W        W68396  25.782  11.501   1.364
 1856W        W68397  20.760   8.784  14.449
 1857W        W68398  28.757  34.042  13.523
 1858W        W68399  34.682  25.836  10.835
 1859W        W68400  32.742  18.047  10.991
 1860W        W68401  20.581  14.613   3.592
 1861W        W68402   2.871  17.800   0.719
 1862W        W68403  44.944  31.501   3.144
 1863W        W68404  31.893   0.862  13.870
 1864W        W68405  42.133  24.925  14.869
 1865W        W68406  11.574  12.339  11.618
 1866W        W68407  36.344  14.569  12.862
 1867W        W68408  19.313  29.583  11.037
 1868W        W68409  25.051  36.859   3.706
 1869W        W68410  39.041  12.031  14.412
 1870W        W68411  11.869  12.746   1.737
 1871W        W68412  44.458   7.071  13.632
 1872W        W68413   5.651   6.218  14.316
 1873W        W68414  16.740   9.670   4.556
 1874W        W68415  28.659  19.495   4.692
 1875W        W68416  16.931  23.837   2.367
 1876W        W68417   5.747  39.465  13.609
 1877W        W68418   9.723  17.742   3.644
 1878W        W68419  22.631  16.516  13.400
 1879W        W68420  34.168   4.543   3.145
 1880W        W68421  28.837  30.011   1.680
 1881W        W68422  25.961  26.215  11.525
 1882W        W68423  43.318   8.763   0.213
 1883W        W68424  32.160  17.915  13.790
 1884W        W68425  27.765  22.755  14.824
 1885W        W68426   0.069  11.163   1.319
 1886W        W68427  42.129  40.555   0.813
 1887W        W68428  22.305  15.522  12.354
 1888W        W68429   5.502  29.638   0.857
 1889W        W68430  10.602   4.136  14.302
 1890W        W68431  39.508  23.540  11.811
 1891W        W68432  41.089  27.065   1.727
 1892W        W68433  19.249  41.585   4.418
 1893W        W68434   8.864  13.392  14.683
 1894W        W68435  19.348  24.650   1.336
 1895W        W68436  17.036  33.569  13.082
 1896W        W68437  15.663  43.766  11.643
 1897W        W68438   5.171   4.679   0.348
 1898W        W68439  13.021  17.036   0.831
 1899W        W68440   6.062   9.260  12.304
 1900W        W68441  24.773   7.313  12.112
 1901W        W68442  41.714  42.033  11.098
 1902W        W68443  37.132  17.696  14.396
 1903W        W68444  35.131  18.106   4.700
 1904W        W68445   0.725  17.171  13.596
 1905W        W68446  32.740  26.109  14.914
 1906W        W68447  19.039  33.874   0.735
 1907W        W68448  22.245  28.003  11.198
 1908W        W68449  12.319  16.064   4.370
 1909W        W68450  13.878  29.637  13.848
 1910W        W68451  21.437   1.416  12.095
 1911W        W68452  31.754   5.474   5.004
 1912W        W68453  17.279  40.270   2.307
 1913W        W68454   7.900  30.611  11.090
 1914W        W68455  39.069  20.131  10.676
 1915W        W68456  31.926   2.999   3.148
 1916W        W68457   1.831  38.357  12.154
 1917W        W68458  21.503   5.431  14.900
 1918W        W68459  40.083   5.366   4.473
 1919W        W68460  23.912  36.309   1.723
 1920W        W68461  17.245  43.888  12.555
 1921W        W68462  37.648  42.163  11.303
 1922W        W68463  22.089   1.935   1.399
 1923W        W68464   4.525  29.642  10.595
 1924W        W68465  18.749  32.054  13.528
 1925W        W68466  18.969   1.993  14.278
 1926W        W68467   3.289  32.772   1.181
 1927W        W68468   9.832  28.669   1.225
 1928W        W68469   7.929  38.407  14.476
 1929W        W68470  10.757  22.483  12.885
 1930W        W68471  33.155  40.424   2.259
 1931W        W68472  36.013  42.781   2.989
 1932W        W68473  17.136   1.928   4.739
 1933W        W68474   6.991  34.349  11.174
 1934W        W68475  29.287  15.204   2.218
 1935W        W68476  25.016  44.801   3.883
 1936W        W68477  21.612  17.836   1.699
 1937W        W68478  33.508   9.406  14.905
 1938W        W68479   6.548  16.633  11.600
 1939W        W68480  23.393  42.207   4.483
 1940W        W68481   4.998  19.728  10.380
 1941W        W68482   9.574  10.896  14.313
 1942W        W68483  40.840  21.507   0.893
 1943W        W68484  12.599  30.626   2.105
 1944W        W68485  17.072  26.357   3.652
 1945W        W68486   9.778  21.802   2.053
 1946W        W68487   6.312  39.898   3.437
 1947W        W68488  37.334   6.156  13.896
 1948W        W68489  27.901  43.538   5.098
 1949W        W68490   5.535  24.515  13.269
 1950W        W68491  38.610   7.058  12.141
 1951W        W68492  18.978  17.458   5.094
 1952W        W68493  41.988  37.948   0.874
 1953W        W68494   6.000  44.945   5.051
 1954W        W68495  23.203  39.343  13.017
 1955W        W68496  20.750   9.810  10.745
 1956W        W68497  38.128  31.546  12.184
 1957W        W68498   2.050  13.684  11.969
 1958W        W68499   0.822  15.697   3.639
 1959W        W68500  37.493  34.531   1.904
 1960W        W68501   2.229  10.708  10.542
 1961W        W68502  25.666  32.134  11.558
 1962W        W68503  19.627  29.061   4.272
 1963W        W68504  13.790  25.175  12.356
 1964W        W68505  21.251  13.627  10.731
 1965W        W68506  21.639  43.863   0.865
 1966W        W68507  18.235  19.843   3.211
 1967W        W68508  38.979  21.547   4.906
 1968W        W68509  24.723  13.830   1.828
 1969W        W68510   3.488  30.389  10.996
 1970W        W68511  23.799   4.771  12.481
 1971W        W68512  22.144  33.522  14.573
 1972W        W68513   5.815  15.979  12.397
 1973W        W68514   1.074   3.417  14.930
 1974W        W68515  10.859  18.747   1.899
 1975W        W68516   5.839  10.279   1.460
 1976W        W68517   5.149  25.066   1.279
 1977W        W68518  24.300  42.725   2.837
 1978W        W68519  20.760  13.291   2.302
 1979W        W68520  12.572   4.801   0.734
 1980W        W68521  29.960  10.962   4.332
 1981W        W68522   3.890  20.066   4.596
 1982W        W68523   6.678   9.728  11.571
 1983W        W68524  42.823  36.647  14.539
 1984W        W68525   5.867  28.655  10.697
 1985W        W68526  36.569  12.339   1.708
 1986W        W68527  18.277   9.274  11.838
 1987W        W68528   9.912   1.715  13.123
 1988W        W68529   7.405  14.296   1.879
 1989W        W68530  38.020  28.501  12.765
 1990W        W68531  40.535  18.933   0.415
 1991W        W68532  39.052  15.294   3.406
 1992W        W68533  32.420   0.462   1.917
 1993W        W68534   1.811  10.184  13.382
 1994W        W68535  44.196  12.206   0.244
 1995W        W68536  29.636  21.891  11.204
 1996W        W68537   0.998  26.072   4.925
 1997W        W68538  20.760  29.666  12.980
 1998W        W68539   7.776  27.918   1.882
 1999W        W68540  16.208  25.944  13.387
 2000W        W68541  13.345   6.282  14.151
 2001W        W68542   0.212  32.736   3.525
 2002W        W68543   4.880  25.647  10.354
 2003W        W68544   0.757  27.684  13.600
 2004W        W68545   2.902  24.807   2.265
 2005W        W68546  35.106   2.032   3.751
 2006W        W68547  11.944  21.195   4.594
 2007W        W68548  20.036   0.995   1.851
 2008W        W68549  35.179  21.556   1.863
 2009W        W68550  31.979   8.331  13.688
 2010W        W68551  38.049  24.384  11.200
 2011W        W68552  33.977  28.822  10.924
 2012W        W68553  30.023  18.005  10.853
 2013W        W68554  19.820  35.086   3.643
 2014W        W68555  13.174  26.418  14.888
 2015W        W68556  30.484  27.088  11.376
 2016W        W68557  40.579  28.717  14.830
 2017W        W68558  26.056  12.077  14.967
 2018W        W68559  30.532  24.017   3.733
 2019W        W68560   9.608  41.941   1.338
 2020W        W68561   0.330   3.320  10.559
 2021W        W68562  21.643  27.715  11.141
 2022W        W68563  29.003  29.925   4.078
 2023W        W68564   5.444  25.646  14.593
 2024W        W68565  11.647   4.320   1.048
 2025W        W68566   0.096  13.242  14.948
 2026W        W68567  18.508  30.458  14.906
 2027W        W68568  40.309  27.016   2.469
 2028W        W68569  36.395  19.698   3.748
 2029W        W68570  31.648  13.326   3.219
 2030W        W68571  31.921   8.409   0.610
 2031W        W68572  22.946  26.203  11.181
 2032W        W68573  18.658  12.703   9.708
 2033W        W68574  38.398  16.686  12.956
 2034W        W68575  25.686   5.904   4.971
 2035W        W68576  28.450  41.491  11.412
 2036W        W68577  32.101  43.065  13.376
 2037W        W68578  21.845   8.082  12.451
 2038W        W68579   3.730  40.567   1.500
 2039W        W68580  35.944   0.964  13.706
 2040W        W68581  30.117  19.699  13.412
 2041W        W68582   7.623  29.018  14.542
 2042W        W68583  43.908  40.719   3.808
 2043W        W68584   0.014   7.487   0.265
 2044W        W68585   3.297  12.361  11.661
 2045W        W68586  43.741  28.637  14.276
 2046W        W68587   7.448  30.492  13.158
 2047W        W68588   2.988  11.080  12.576
 2048W        W68589   6.828   1.078   3.948
 2049W        W68590  11.559   0.165   1.254
 2050W        W68591  38.778  33.356  14.946
 2051W        W68592  11.420  20.816  12.936
 2052W        W68593  26.146  25.876  14.942
 2053W        W68594  16.310  26.360  10.533
 2054W        W68595  35.467   9.700  10.985
 2055W        W68596  31.532  26.945  13.359
 2056W        W68597  18.801  36.458  13.527
 2057W        W68598  15.726  36.412  14.773
 2058W        W68599  36.887  13.910   3.628
 2059W        W68600  13.270  33.675   4.217
 2060W        W68601   8.312  31.006  10.684
 2061W        W68602  34.993  36.480  12.526
 2062W        W68603  13.852  28.599  12.921
 2063W        W68604  36.916  25.494   0.495
 2064W        W68605  21.525  29.079   3.672
 2065W        W68606  31.354  22.100   3.319
 2066W        W68607  16.560  31.856   2.984
 2067W        W68608  14.942  33.406   4.455
 2068W        W68609  32.417  35.019   1.697
 2069W        W68610  15.123  32.917  12.022
 2070W        W68611  36.612  14.281   2.786
 2071W        W68612   3.869   6.439  11.557
 2072W        W68613  27.014  10.357   1.901
 2073W        W68614   9.321  38.931  11.810
 2074W        W68615   0.262  27.607   3.649
 2075W        W68616  13.748   3.230  11.158
 2076W        W68617  29.956  17.190   4.313
 2077W        W68618  13.091  33.638  13.411
 2078W        W68619  14.866  40.463  11.953
 2079W        W68620  10.635  38.001  12.313
 2080W        W68621  12.692  19.650  13.264
 2081W        W68622   4.992  43.387  12.906
 2082W        W68623  24.464  13.196   2.374
 2083W        W68624   9.566  23.672   3.764
 2084W        W68625  26.107  19.000   4.237
 2085W        W68626  37.507   8.577  11.914
 2086W        W68627  18.373  18.192   2.786
 2087W        W68628  41.073  25.021   3.212
 2088W        W68629   5.452   1.924   0.250
 2089W        W68630   7.273  36.797   0.514
 2090W        W68631   0.107   9.593  12.471
 2091W        W68632  32.916  39.116   1.805
 2092W        W68633  21.133  44.565  12.808
 2093W        W68634  32.436  25.133   1.705
 2094W        W68635  27.225  31.392  12.007
 2095W        W68636   8.835  42.236   1.953
 2096W        W68637  17.501  28.828   1.931
 2097W        W68638   3.072  16.585   1.250
 2098W        W68639  25.648  43.494  14.507
 2099W        W68640  34.254  25.471  11.960
 2100W        W68641  17.041   2.436  11.997
 2101W        W68642  22.224  43.920  11.283
 2102W        W68643   2.726  37.853  12.463
 2103W        W68644  29.319  40.919  12.516
 2104W        W68645  39.067  22.366   0.690
 2105W        W68646   5.275  16.789   0.617
 2106W        W68647  38.111  41.437   1.839
 2107W        W68648  38.877  12.407   1.810
 2108W        W68649  27.254  31.079  13.773
 2109W        W68650   2.226  10.626  13.082
 2110W        W68651  25.243   8.689  11.622
 2111W        W68652  19.165  34.230   3.743
 2112W        W68653  17.605  20.450   4.152
 2113W        W68654  41.455   4.883   0.021
 2114W        W68655  10.668  30.025   0.383
 2115W        W68656  27.005   0.141   4.111
 2116W        W68657   9.349  21.747   2.334
 2117W        W68658  31.674  43.500   3.769
 2118W        W68659  16.131  42.963   4.516
 2119W        W68660  24.148  21.167   1.893
 2120W        W68661  11.154   3.209  13.513
 2121W        W68662  15.266  37.006   1.974
 2122W        W68663  11.732  11.723   3.586
 2123W        W68664  32.840  26.672  14.884
 2124W        W68665  10.184  24.245  12.130
 2125W        W68666  17.049  22.583   4.541
 2126W        W68667  43.346  44.512   0.933
 2127W        W68668   0.422  27.103   3.667
 2128W        W68669  26.651  29.954  11.208
 2129W        W68670  23.029   0.854   2.213
 2130W        W68671   9.981  25.342   4.991
 2131W        W68672   5.818  24.677   3.431
 2132W        W68673  30.823  14.221  12.451
 2133W        W68674  12.881  18.117   2.681
 2134W        W68675  26.634  43.315   2.220
 2135W        W68676  13.781   2.952  14.285
 2136W        W68677  16.882   7.038  13.404
 2137W        W68678  31.264  18.618  11.896
 2138W        W68679  25.871  23.590  13.363
 2139W        W68680  39.475  25.086   2.872
 2140W        W68681  33.867  22.429  14.072
 2141W        W68682  11.600   9.274  12.412
 2142W        W68683  40.175  40.435  10.437
 2143W        W68684  25.184   9.800  11.738
 2144W        W68685  13.492  28.479   2.331
 2145W        W68686  37.853  25.625   2.326
 2146W        W68687  16.002  20.362   3.136
 2147W        W68688  14.611  22.040   0.772
 2148W        W68689  28.998   0.666   3.118
 2149W        W68690   5.199  19.028   1.237
 2150W        W68691  32.570  30.621   3.359
 2151W        W68692  30.395   7.331   2.274
 2152W        W68693  43.079  18.141   0.029
 2153W        W68694  33.312  28.519  14.827
 2154W        W68695  29.063  18.186  10.596
 2155W        W68696   8.767   5.605  14.923
 2156W        W68697  13.312  16.527   4.140
 2157W        W68698  13.852   9.557   1.206
 2158W        W68699  41.299  44.996  10.687
 2159W        W68700  19.597  21.748  13.388
 2160W        W68701  23.721  29.192  12.479
 2161W        W68702  13.650  26.070  12.155
 2162W        W68703  20.440  35.547  11.415
 2163W        W68704  27.921  20.694   0.951
 2164W        W68705  19.467  15.761  14.738
 2165W        W68706  30.029   6.693  11.129
 2166W        W68707  12.352  17.574  13.035
 2167W        W68708  31.404  20.209  14.455
 2168W        W68709  31.030  35.644   3.382
 2169W        W68710   8.882   7.932   1.394
 2170W        W68711  22.342  23.597  10.601
 2171W        W68712  27.508  28.570  11.424
 2172W        W68713  24.943   4.840  14.050
 2173W        W68714   7.433  44.153   0.320
 2174W        W68715  28.596  18.694   4.066
 2175W        W68716  19.240   1.970   0.907
 2176W        W68717  27.126  17.735  12.229
 2177W        W68718  43.468  37.983  14.044
 2178W        W68719  28.042   2.553   0.446
 2179W        W68720  31.658  35.926   0.933
 2180W        W68721  26.518  27.150   2.570
 2181W        W68722   1.131  25.429  11.230
 2182W        W68723   1.335  40.408  13.007
 2183W        W68724  36.167  23.470  14.505
 2184W        W68725  18.359  21.207  13.328
 2185W        W68726  10.186  36.955  12.934
 2186W        W68727  11.448  24.673  14.749
 2187W        W68728  12.790  11.721  13.006
 2188W        W68729  19.592  38.883  13.629
 2189W        W68730   0.492  39.039   1.762
 2190W        W68731   3.725  37.870   0.271
 2191W        W68732  20.578   4.938   4.532
 2192W        W68733  30.960   2.205   3.665
 2193W        W68734  14.819   3.225  12.943
 2194W        W68735  23.059  12.246  12.433
 2195W        W68736  10.331   2.244   0.265
 2196W        W68737   4.524  43.471   0.788
 2197W        W68738  22.597   6.341  13.921
 2198W        W68739  36.977  31.933   0.904
 2199W        W68740  21.702  24.745   3.245
 2200W        W68741   5.343   6.956   3.672
 2201W        W68742  44.091  29.464   1.683
 2202W        W68743  23.955  25.616   3.340
 2203W        W68744   6.648  22.608   2.783
 2204W        W68745  39.758  10.185   2.273
 2205W        W68746   7.887  24.723  11.681
 2206W        W68747  21.736   4.564  12.387
 2207W        W68748  37.780  39.261  14.117
 2208W        W68749  24.461  28.041  14.786
 2209W        W68750  19.254  14.903   2.822
 2210W        W68751  13.160  23.308   3.798
 2211W        W68752  27.554  37.969   3.342
 2212W        W68753  42.554  17.778  13.937
 2213W        W68754  27.344  33.555  10.221
 2214W        W68755  34.087   0.903  11.589
 2215W        W68756  14.418  32.567  11.334
 2216W        W68757  33.695  16.341   3.219
 2217W        W68758  44.514   3.791  10.715
 2218W        W68759   9.217  17.419   2.043
 2219W        W68760  39.805  28.893   1.261
 2220W        W68761  28.451  23.648  13.455
 2221W        W68762  19.451  31.684  12.537
 2222W        W68763  17.152   2.974  10.446
 2223W        W68764  15.662  39.227  10.598
 2224W        W68765   0.009  23.690   0.884
 2225W        W68766   4.493  33.375   4.755
 2226W        W68767  24.480  26.485   1.712
 2227W        W68768   1.841  24.222   2.964
 2228W        W68769  13.586   6.165   0.897
 2229W        W68770  43.959  16.620   1.709
 2230W        W68771  24.749  21.894   1.788
 2231W        W68772  44.708  22.745   3.630
 2232W        W68773  13.357  24.450  13.015
 2233W        W68774  29.324   5.868  11.877
 2234W        W68775  36.557  36.048  14.311
 2235W        W68776  39.103  17.025  12.998
 2236W        W68777  16.558  42.713   0.260
 2237W        W68778   4.161  30.871  10.718
 2238W        W68779  21.721  20.133  10.856
 2239W        W68780  39.341  21.754   3.675
 2240W        W68781  39.753   6.894  13.994
 2241W        W68782  38.385  15.515   4.777
 2242W        W68783  10.117   4.169  14.570
 2243W        W68784  12.659  10.262  12.085
 2244W        W68785  27.898   4.236   1.227
 2245W        W68786  21.606  31.410   1.760
 2246W        W68787   1.517  40.684   3.521
 2247W        W68788  26.343   9.079  13.552
 2248W        W68789  14.395   8.965  13.391
 2249W        W68790  38.750  26.507  14.391
 2250W        W68791   7.684  40.982   4.462
 2251W        W68792  41.878   5.794  11.107
 2252W        W68793  36.027   7.175  13.441
 2253W        W68794  34.571   6.885  10.683
 2254W        W68795  28.787  35.696  10.691
 2255W        W68796  42.958  14.078  13.434
 2256W        W68797  43.478  22.591   1.808
 2257W        W68798  12.623   2.787  11.521
 2258W        W68799  24.249  22.752   1.641
 2259W        W68800  39.453  44.271  11.154
 2260W        W68801  42.569  39.597  14.330
 2261W        W68802  18.690   8.586   3.589
 2262W        W68803   9.864   2.345  14.345
 2263W        W68804  15.565   2.435  13.041
 2264W        W68805  12.357  37.102   0.742
 2265W        W68806  33.214  32.813  12.423
 2266W        W68807  15.329  12.103   0.461
 2267W        W68808  38.569  18.697  14.341
 2268W        W68809  28.177  33.105  12.338
 2269W        W68810  25.401  17.063  13.639
 2270W        W68811  21.693  42.293   2.236
 2271W        W68812  34.968   9.763  12.542
 2272W        W68813  40.011  26.614   2.316
 2273W        W68814   5.336  39.007  12.095
 2274W        W68815  34.688  32.515   4.191
 2275W        W68816  41.683  19.924  11.565
 2276W        W68817  43.941  20.907  11.134
 2277W        W68818  10.896   3.729   0.302
 2278W        W68819  17.969  44.730  14.495
 2279W        W68820   8.734   2.718  14.859
 2280W        W68821   2.271  37.002  14.784
 2281W        W68822  35.836  31.855  10.871
 2282W        W68823  43.828  44.307  12.069
 2283W        W68824  32.497  18.904  14.543
 2284W        W68825  14.648  25.597   0.422
 2285W        W68826   8.714  24.307  12.152
 2286W        W68827  43.902  11.539   0.017
 2287W        W68828  33.963  28.238   1.888
 2288W        W68829  25.256  23.147  12.560
 2289W        W68830  33.005  26.025   1.391
 2290W        W68831  19.731  11.631   4.879
 2291W        W68832  41.906   0.985  13.519
 2292W        W68833   6.623  40.980   4.251
 2293W        W68834  19.743  20.774   2.376
 2294W        W68835  32.843   3.659  13.959
 2295W        W68836  36.957  33.543   4.550
 2296W        W68837  27.658  20.543   4.318
 2297W        W68838   4.375  34.679   5.010
 2298W        W68839  28.768  24.188   4.646
 2299W        W68840  20.019  28.691   4.289
 2300W        W68841  29.108  31.511  12.086
 2301W        W68842  14.686  27.204   4.584
 2302W        W68843  16.184  37.356   1.801
 2303W        W68844   0.343   8.757  10.630
 2304W        W68845  16.677  11.091  11.869
 2305W        W68846  29.955   9.377   3.374
 2306W        W68847  13.140  23.557   2.820
 2307W        W68848   9.330   6.463  14.091
 2308W        W68849  41.948  32.310  13.373
 2309W        W68850   4.878  34.022  11.931
 2310W        W68851  17.722  18.885   0.025
 2311W        W68852  17.115  28.811  12.820
 2312W        W68853  29.568  27.861   2.718
 2313W        W68854  32.075  14.217   0.964
 2314W        W68855  27.664  29.851  11.849
 2315W        W68856   7.282  21.050   0.182
 2316W        W68857  30.056  19.735  12.138
 2317W        W68858  42.256  33.682  12.627
 2318W        W68859  38.066  22.953  13.893
 2319W        W68860  10.191  13.117  11.895
 2320W        W68861  20.241  41.453   0.898
 2321W        W68862  16.589  36.945  14.953
 2322W        W68863   4.347   0.821  13.428
 2323W        W68864  15.695   8.936  13.927
 2324W        W68865  40.584  27.999   1.904
 2325W        W68866  23.576  44.050   3.119
 2326W        W68867  28.031  42.035  13.439
 2327W        W68868  26.772  27.292   1.564
 2328W        W68869   6.173  36.473  13.096
 2329W        W68870   4.636  35.394  13.452
 2330W        W68871  32.209  15.590   2.107
 2331W        W68872  26.452  31.212   0.452
 2332W        W68873   4.675  33.538  12.010
 2333W        W68874  33.663   5.936  13.506
 2334W        W68875  30.710  41.273  13.399
 2335W        W68876   1.805  16.680  13.424
 2336W        W68877   9.083  17.015   2.346
 2337W        W68878  27.607  25.732   2.892
 2338W        W68879  16.778  28.626   1.663
 2339W        W68880  28.593  43.424   3.071
 2340W        W68881   9.583   4.861  11.536
 2341W        W68882  38.402  44.225   0.188
 2342W        W68883   2.372  44.925   3.692
 2343W        W68884  23.278   2.980  14.123
 2344W        W68885  28.918  28.719   3.685
 2345W        W68886  36.631  24.572  10.985
 2346W        W68887  21.952  19.651   3.598
 2347W        W68888  36.960   9.328   1.095
 2348W        W68889  30.549   9.319   2.721
 2349W        W68890  33.693  31.628  12.670
 2350W        W68891  26.700  19.600   4.433
 2351W        W68892  26.097   1.507   1.477
 2352W        W68893   1.391   1.633   4.932
 2353W        W68894   2.720  28.528   3.093
 2354W        W68895   1.355  39.857  12.940
 2355W        W68896  43.445  33.253   3.711
 2356W        W68897  27.997  32.600  12.247
 2357W        W68898  37.773  17.055  10.766
 2358W        W68899  11.191   9.491  12.041
 2359W        W68900  23.481  15.174  14.237
 2360W        W68901  32.732  16.720  14.973
 2361W        W68902   8.666  32.162   4.178
 2362W        W68903   9.840  16.680  12.374
 2363W        W68904  12.684   4.560  11.845
 2364W        W68905  15.332  24.443  12.005
 2365W        W68906  21.445  31.223  14.919
 2366W        W68907  39.235  15.349  12.736
 2367W        W68908   4.935  14.135   3.595
 2368W        W68909  32.493  43.629  14.697
 2369W        W68910   3.266  43.690  11.260
 2370W        W68911  33.896  19.252  13.378
 2371W        W68912  12.623   7.757   2.858
 2372W        W68913   2.237  10.669   1.822
 2373W        W68914  30.100  11.229  13.431
 2374W        W68915  32.489   4.266   4.000
 2375W        W68916  10.165  42.303  14.996
 2376W        W68917  42.220  22.701   1.938
 2377W        W68918   0.489  33.478  12.423
 2378W        W68919  41.303  39.924   4.208
 2379W        W68920  11.087  36.085  11.660
 2380W        W68921  16.323  19.670   1.329
 2381W        W68922  23.684  31.905  10.611
 2382W        W68923  18.710  39.421  12.069
 2383W        W68924  30.848  30.299  14.053
 2384W        W68925   7.673  35.426   0.873
 2385W        W68926  39.335  43.321   1.878
 2386W        W68927  37.176   0.842   3.967
 2387W        W68928  36.430  43.283   0.286
 2388W        W68929  34.601   2.937  14.727
 2389W        W68930  11.253  44.285   0.347
 2390W        W68931  10.238  18.026  14.962
 2391W        W68932   1.462   0.841   3.778
 2392W        W68933  18.086  23.334  12.098
 2393W        W68934  38.062  19.058  11.126
 2394W        W68935   5.909  23.241   0.184
 2395W        W68936  11.341  30.726   1.993
 2396W        W68937  44.886  43.214  11.160
 2397W        W68938  37.332  35.041  12.959
 2398W        W68939  11.989   9.169   3.373
 2399W        W68940  42.559  19.273  14.869
 2400W        W68941  24.053   2.920  12.139
 2401W        W68942  37.322  30.830  11.987
 2402W        W68943  17.280  19.259  13.459
 2403W        W68944   6.533  36.774  13.354
 2404W        W68945  32.091  38.844  12.510
 2405W        W68946  26.538   6.896   3.320
 2406W        W68947  44.681  43.518   4.103
 2407W        W68948  26.536  43.378   4.723
 2408W        W68949  26.907   5.596  14.818
 2409W        W68950  41.881  19.842  13.435
 2410W        W68951  11.733  15.977   0.785
 2411W        W68952  16.848   6.160   4.696
 2412W        W68953  38.290  38.854   2.132
 2413W        W68954  41.394  11.644   1.755
 2414W        W68955  25.899  25.522   1.320
 2415W        W68956  36.221   0.677   3.669
 2416W        W68957  27.615   2.342  13.857
 2417W        W68958  40.117  22.799   3.834
 2418W        W68959  42.080  33.980  10.623
 2419W        W68960  37.051  36.364  12.937
 2420W        W68961   2.411   0.393   1.310
 2421W        W68962  31.105  33.808   0.942
 2422W        W68963   9.800  32.839   3.686
 2423W        W68964  37.501   6.875  11.204
 2424W        W68965  40.030  16.333   2.794
 2425W        W68966  15.851  37.877  10.224
 2426W        W68967  36.456  38.036   2.846
 2427W        W68968  34.618  34.034   1.312
 2428W        W68969   4.515   4.228  12.387
 2429W        W68970  34.795  12.798  13.911
 2430W        W68971   4.470  34.308  10.356
 2431W        W68972  34.948   0.977  14.934
 2432W        W68973  26.114  41.017   2.996
 2433W        W68974  35.822  22.917  13.640
 2434W        W68975  27.075  20.105   0.128
 2435W        W68976  39.974  17.066  11.229
 2436W        W68977  26.190   9.234  14.489
 2437W        W68978  16.947  14.276   4.683
 2438W        W68979  35.442  29.947   4.698
 2439W        W68980  10.545   3.191   5.127
 2440W        W68981  37.689  16.483   3.094
 2441W        W68982  28.975  41.278   3.554
 2442W        W68983  20.273  41.328   2.728
 2443W        W68984  24.380  31.623   4.231
 2444W        W68985  27.688  30.017  10.939
 2445W        W68986  32.579  44.500  14.423
 2446W        W68987   9.321  23.099   2.743
 2447W        W68988  26.649   6.168   4.905
 2448W        W68989  32.567  24.271   5.030
 2449W        W68990  40.463  29.849   3.356
 2450W        W68991  27.062   8.914  14.901
 2451W        W68992  25.692  40.417  10.769
 2452W        W68993   3.688  12.694  11.514
 2453W        W68994  37.865   2.460  14.512
 2454W        W68995  13.679   0.885  12.410
 2455W        W68996  19.074  32.002   4.970
 2456W        W68997  30.407  11.819   3.037
 2457W        W68998  19.177   8.882   0.828
 2458W        W68999  20.335   9.939   1.938
 2459W        W69000  14.112  25.282  13.177
 2460W        W69001  28.470  33.638  13.712
 2461W        W69002   4.266  38.356  11.697
 2462W        W69003  26.976  40.881   2.195
 2463W        W69004  13.554  35.849   4.505
 2464W        W69005  29.345   5.297   3.543
 2465W        W69006  35.511  33.860  14.515
 2466W        W69007  43.856  40.016  12.388
 2467W        W69008  26.774  24.434  13.306
 2468W        W69009  24.772  34.501   3.575
 2469W        W69010  13.768  23.667  13.939
 2470W        W69011   7.482   3.532   4.170
 2471W        W69012   4.685  38.520   1.969
 2472W        W69013  17.402   9.732   1.867
 2473W        W69014   2.287  44.906   1.427
 2474W        W69015  40.144  24.582  11.065
 2475W        W69016   9.886  44.104   4.274
 2476W        W69017  27.626  38.639  14.801
 2477W        W69018  19.698  16.821  10.243
 2478W        W69019  15.526  20.758   3.847
 2479W        W69020  29.039  17.693   3.857
 2480W        W69021  22.156  36.457   2.338
 2481W        W69022  38.159  17.697  13.560
 2482W        W69023  30.163  11.433   2.672
 2483W        W69024   1.225  44.255  14.232
 2484W        W69025  20.091   5.814   4.588
 2485W        W69026  40.767  12.758   3.981
 2486W        W69027  14.234   0.265   2.666
 2487W        W69028  44.952   0.279   2.726
 2488W        W69029  41.031   3.555  11.056
 2489W        W69030  16.280  25.210   4.623
 2490W        W69031   1.205  12.834   1.759
 2491W        W69032  20.854  39.387   0.006
 2492W        W69033   5.340   6.441   0.274
 2493W        W69034  19.660  12.905   2.842
 2494W        W69035   7.539  35.060   3.772
 2495W        W69036   6.462  37.384   0.012
 2496W        W69037  28.820   1.097   2.115
 2497W        W69038  32.370  20.018  11.616
 2498W        W69039   3.907  38.022  11.842
 2499W        W69040  35.787   8.792  11.139
 2500W        W69041  37.533  32.058  13.557
 2501W        W69042   2.006  35.470   1.399
 2502W        W69043   5.383  44.930  11.846
 2503W        W69044   7.217  20.817   4.334
 2504W        W69045  21.459   1.715  13.075
 2505W        W69046  30.584  17.752   3.858
 2506W        W69047  36.871  43.455   3.275
 2507W        W69048  28.685   8.104  11.208
 2508W        W69049   8.890  21.697  11.727
 2509W        W69050  33.434   4.022   4.275
 2510W        W69051  44.554  43.601  11.061
 2511W        W69052   6.519  25.104   1.969
 2512W        W69053  28.408  29.913  12.434
 2513W        W69054   7.254  31.612   4.104
 2514W        W69055   9.035  12.697  12.492
 2515W        W69056   9.975  39.027   3.132
 2516W        W69057  14.894  24.714   4.714
 2517W        W69058  16.850  30.190  13.400
 2518W        W69059  27.526  33.070   4.517
 2519W        W69060  19.617  37.421  13.875
 2520W        W69061  30.833   3.646   3.759
 2521W        W69062  36.264  35.089   0.647
 2522W        W69063  43.825  17.872  14.331
 2523W        W69064  21.529   8.650   2.343
 2524W        W69065   0.118  38.289  10.442
 2525W        W69066  24.701  25.232  13.028
 2526W        W69067  20.238   6.617  13.857
 2527W        W69068  38.999  22.154  11.154
 2528W        W69069   2.453   6.479  13.468
 2529W        W69070   5.945   8.838  14.743
 2530W        W69071  13.916  29.360  14.694
 2531W        W69072  14.170  31.371   0.426
 2532W        W69073  34.313   6.348   0.401
 2533W        W69074   7.106  10.311   0.264
 2534W        W69075  41.848  29.054   3.879
 2535W        W69076  13.995  32.425  13.990
 2536W        W69077  42.666  11.762   5.046
 2537W        W69078  36.846   3.009  14.076
 2538W        W69079  16.922  35.607   0.418
 2539W        W69080  43.964  18.611   3.246
 2540W        W69081  38.348   7.409  11.353
 2541W        W69082  41.000  11.005  11.899
 2542W        W69083  21.194  12.094  12.067
 2543W        W69084  41.881  20.044   1.746
 2544W        W69085   2.394  36.370  12.541
 2545W        W69086   5.493  34.457  13.411
 2546W        W69087  11.293   8.356  13.954
 2547W        W69088  40.948  12.240   5.236
 2548W        W69089  29.614  32.940   0.943
 2549W        W69090   0.702   1.563  11.802
 2550W        W69091   5.866   2.981   2.040
 2551W        W69092  28.923  44.848  14.913
 2552W        W69093  28.531  31.661   2.489
 2553W        W69094   9.704   2.893  12.141
 2554W        W69095  29.708   3.970   1.434
 2555W        W69096  11.837  44.328  13.697
 2556W        W69097   9.679  44.068  11.950
 2557W        W69098   7.613   0.645   2.896
 2558W        W69099  14.191  19.001  11.189
 2559W        W69100  24.437   6.187   9.831
 2560W        W69101  27.253   2.013   3.682
 2561W        W69102  43.084  14.974  11.874
 2562W        W69103  43.436  40.315   2.660
 2563W        W69104   4.168  19.724   2.880
 2564W        W69105  16.658  30.885   2.766
 2565W        W69106   8.208   3.207   3.491
 2566W        W69107  16.556  26.603   0.542
 2567W        W69108  25.055   5.751  12.583
 2568W        W69109  19.282  26.818   0.289
 2569W        W69110  35.789  29.761   3.758
 2570W        W69111  34.746  29.995   3.452
 2571W        W69112   3.414  12.140   4.307
 2572W        W69113  20.060  11.679  10.255
 2573W        W69114  25.152   7.334   2.645
 2574W        W69115  31.163  16.047  10.238
 2575W        W69116  11.408  33.193  14.365
 2576W        W69117  37.977  44.981   0.417
 2577W        W69118  21.050  30.513  10.235
 2578W        W69119  37.869  18.716  12.726
 2579W        W69120  18.240  44.696   1.241
 2580W        W69121  26.226  29.043   4.229
 2581W        W69122  25.810  10.743  11.131
 2582W        W69123  32.862  13.987  10.296
 2583W        W69124  20.295  33.702  13.223
 2584W        W69125  14.674  26.687   4.832
 2585W        W69126  42.639   8.661   4.321
 2586W        W69127  10.519  32.695  12.244
 2587W        W69128  31.355   3.505   3.714
 2588W        W69129   0.900   3.514   4.284
 2589W        W69130  12.620   0.996   4.012
 2590W        W69131  10.151  23.994  11.653
 2591W        W69132  21.198  19.567  12.560
 2592W        W69133   5.740  25.209   1.735
 2593W        W69134  10.259  28.974   4.238
 2594W        W69135  36.923  44.969   4.240
 2595W        W69136  13.099  35.416  12.404
 2596W        W69137  29.942  10.629  14.689
 2597W        W69138  18.253  42.928   1.202
 2598W        W69139  39.454   0.196  12.948
 2599W        W69140  35.949  42.279   2.387
 2600W        W69141  30.636  17.339   0.883
 2601W        W69142  21.708  40.766  14.966
 2602W        W69143  43.868   1.953   2.880
 2603W        W69144  15.696   5.195   0.955
 2604W        W69145  28.938  40.763   0.026
 2605W        W69146  31.436   2.838   2.398
 2606W        W69147  16.659  18.463   3.126
 2607W        W69148   9.065   8.216  11.969
 2608W        W69149   4.733  23.904  10.855
 2609W        W69150   2.432  31.089   0.696
 2610W        W69151   8.577  11.370   1.513
 2611W        W69152  43.763   1.336   4.691
 2612W        W69153  42.217   4.173   4.681
 2613W        W69154  20.641   8.822   4.432
 2614W        W69155  11.962  30.403   2.781
 2615W        W69156  27.478  39.464   4.883
 2616W        W69157  12.984  14.117  12.885
 2617W        W69158  43.814  19.494  12.617
 2618W        W69159  16.301   5.737   1.492
 2619W        W69160  41.517  32.833  13.824
 2620W        W69161  17.187  24.048  10.055
 2621W        W69162   6.874  12.840   4.711
 2622W        W69163  16.278  16.098  11.099
 2623W        W69164   0.509  40.665   1.855
 2624W        W69165  44.792   2.071  10.771
 2625W        W69166  27.152  24.529  14.041
 2626W        W69167   6.722  30.992  14.892
 2627W        W69168  36.117  21.169  12.149
 2628W        W69169  36.664  27.994  13.378
 2629W        W69170  19.491   9.212   3.096
 2630W        W69171  36.350  31.469  11.145
 2631W        W69172  13.732  11.261  13.270
 2632W        W69173  30.170  29.719  12.185
 2633W        W69174  42.105  17.630  12.052
 2634W        W69175  29.132   6.872   0.761
 2635W        W69176  32.461   1.669   4.642
 2636W        W69177  36.969  22.012   0.365
 2637W        W69178  21.565   6.656  13.491
 2638W        W69179   2.783  24.022   1.788
 2639W        W69180  36.915  11.272   1.222
 2640W        W69181  10.794   4.032  10.646
 2641W        W69182  37.852  10.770   0.460
 2642W        W69183  12.789  34.072  13.460
 2643W        W69184  44.153  18.022  11.682
 2644W        W69185   8.446  15.136  14.426
 2645W        W69186  19.683   8.780   3.820
 2646W        W69187  12.216  38.001   4.581
 2647W        W69188   5.331   0.990   3.345
 2648W        W69189  17.361  31.915  13.466
 2649W        W69190  26.171  20.556   2.348
 2650W        W69191  12.564   2.949  12.456
 2651W        W69192  11.167   5.422   4.125
 2652W        W69193  30.678  39.917   0.743
 2653W        W69194  42.807  26.525   4.385
 2654W        W69195  34.159  39.969  11.636
 2655W        W69196  42.225  29.568  13.076
 2656W        W69197  35.684  13.300   0.345
 2657W        W69198   7.462  26.058   4.238
 2658W        W69199  38.094  16.606  10.703
 2659W        W69200   7.391  19.867   4.079
 2660W        W69201   2.139  10.856  11.079
 2661W        W69202   6.321  37.799   3.152
 2662W        W69203   4.231   7.932   1.676
 2663W        W69204  22.820  25.201  11.216
 2664W        W69205   7.082  30.639   0.500
 2665W        W69206  27.456  13.399  12.656
 2666W        W69207  40.182  27.680  12.055
 2667W        W69208  11.139  22.119  10.691
 2668W        W69209  35.712  15.171   2.066
 2669W        W69210   4.349  28.004  14.754
 2670W        W69211   6.806  31.009   0.776
 2671W        W69212  24.194   8.572  12.656
 2672W        W69213   2.042  15.236   2.557
 2673W        W69214  27.212  18.745  12.587
 2674W        W69215  17.787  35.888  12.896
 2675W        W69216  37.887  24.581  10.763
 2676W        W69217  15.822  27.641  10.240
 2677W        W69218  36.414   7.031  14.242
 2678W        W69219  44.805  19.080  13.319
 2679W        W69220   5.639  41.915   1.326
 2680W        W69221   1.028  31.025   2.629
 2681W        W69222   4.354  13.516  12.587
 2682W        W69223  35.001  22.625   4.133
 2683W        W69224  16.286  40.320   1.741
 2684W        W69225  18.427  26.458   4.100
 2685W        W69226   9.959   5.011  11.858
 2686W        W69227  23.649   9.111   1.864
 2687W        W69228  19.096  33.073  14.387
 2688W        W69229  28.531  30.119   0.232
 2689W        W69230  16.702   4.957  10.670
 2690W        W69231  38.803  21.818  14.804
 2691W        W69232  29.985  32.387  11.150
 2692W        W69233   6.121   8.767   4.395
 2693W        W69234  19.185  43.142  13.407
 2694W        W69235  13.075  44.573   3.985
 2695W        W69236   9.370  27.958  14.960
 2696W        W69237  12.714  30.608   4.244
 2697W        W69238  20.664  25.090   3.247
 2698W        W69239  42.376  44.380  12.965
 2699W        W69240  17.335  26.861   1.696
 2700W        W69241  32.613  32.370   1.938
 2701W        W69242  24.254  42.392   3.256
 2702W        W69243  34.621  34.790   4.822
 2703W        W69244   0.520   4.198  11.832
 2704W        W69245  13.545  40.005  13.056
 2705W        W69246   0.399  19.051   3.673
 2706W        W69247  27.601  27.844   0.995
 2707W        W69248  17.555  18.774   3.617
 2708W        W69249  43.962  12.606   2.295
 2709W        W69250  21.225  20.854   4.386
 2710W        W69251  32.316  39.728   3.730
 2711W        W69252  23.164  39.054   2.230
 2712W        W69253  29.141   0.704  13.407
 2713W        W69254   6.929   7.952  11.558
 2714W        W69255  18.752  38.332  11.003
 2715W        W69256  20.756  10.281  10.978
 2716W        W69257   0.192  35.286  11.796
 2717W        W69258  31.507   8.223   1.007
 2718W        W69259  13.070   7.367  14.867
 2719W        W69260  26.940  36.982  10.608
 2720W        W69261  43.400  24.010   3.579
 2721W        W69262  43.546   4.789  13.054
 2722W        W69263   5.337  39.061  13.032
 2723W        W69264  18.738  32.627  12.393
 2724W        W69265   8.353  15.211   1.183
 2725W        W69266   7.637  26.791   4.500
 2726W        W69267  29.147  24.751  11.627
 2727W        W69268  15.644  28.192   0.855
 2728W        W69269  10.693  24.238  13.410
 2729W        W69270  29.908  23.529  11.592
 2730W        W69271  21.767  43.163  13.954
 2731W        W69272   1.199  36.233  14.442
 2732W        W69273   1.810  25.252   3.121
 2733W        W69274  16.711  22.524  11.166
 2734W        W69275  15.523   7.682  14.904
 2735W        W69276  40.461   1.644  14.305
 2736W        W69277  24.128  20.068   2.129
 2737W        W69278   3.933  29.190  12.287
 2738W        W69279   0.338  23.273   3.876
 2739W        W69280  30.659  39.949   1.783
 2740W        W69281  38.091   3.380   0.395
 2741W        W69282  19.120  38.958   0.374
 2742W        W69283   4.800  20.047   0.647
 2743W        W69284  28.242  43.813   3.238
 2744W        W69285  28.764  12.805   2.816
 2745W        W69286  14.136  19.691   2.684
 2746W        W69287   9.209  18.710   4.571
 2747W        W69288   7.844  35.976   0.659
 2748W        W69289   9.252  26.076   3.559
 2749W        W69290  13.812   3.387  14.001
 2750W        W69291  40.812   3.334  13.726
 2751W        W69292  28.630  30.284   4.757
 2752W        W69293  27.716   2.230   3.631
 2753W        W69294   1.812  33.995   5.401
 2754W        W69295  19.574   7.746  12.875
 2755W        W69296  31.166  16.544  14.852
 2756W        W69297   4.993  38.921  14.006
 2757W        W69298  43.394  26.654  11.786
 2758W        W69299   2.702  25.062   3.147
 2759W        W69300  22.196  36.641  11.785
 2760W        W69301  43.504   1.694  14.900
 2761W        W69302  37.985   8.755   0.649
 2762W        W69303  16.260  14.074   0.433
 2763W        W69304  33.950   4.957  14.787
 2764W        W69305  36.630   8.989   4.178
 2765W        W69306  10.458  32.928  10.747
 2766W        W69307   4.410   9.833  10.808
 2767W        W69308  23.706  24.787  11.262
 2768W        W69309   0.906  20.720  14.496
 2769W        W69310  44.799  25.709  13.513
 2770W        W69311   4.763  28.362   1.358
 2771W        W69312  43.045  23.890  14.031
 2772W        W69313  39.468   2.763   4.596
 2773W        W69314  21.951   3.263   3.689
 2774W        W69315   1.525   4.506  11.902
 2775W        W69316  40.443  44.470   2.258
 2776W        W69317  31.115  26.222  14.426
 2777W        W69318  20.132  22.603   4.107
 2778W        W69319   0.562  38.080   2.947
 2779W        W69320  14.421  13.148   4.196
 2780W        W69321  38.860   8.608  12.021
 2781W        W69322   8.613  44.778   4.188
 2782W        W69323   1.119  40.507  10.954
 2783W        W69324  38.768  24.415   4.125
 2784W        W69325  12.584   6.267   2.494
 2785W        W69326  16.159  21.737  10.462
 2786W        W69327  14.127   4.136   3.872
 2787W        W69328  18.421  31.049  11.689
 2788W        W69329  15.100  42.562  14.892
 2789W        W69330  37.673  11.577   5.073
 2790W        W69331  30.949  13.545  14.038
 2791W        W69332  24.715  33.858   1.360
 2792W        W69333  43.695  30.550   3.661
 2793W        W69334  29.921  33.377  12.881
 2794W        W69335  27.108  32.735  11.627
 2795W        W69336  33.371  21.830  14.582
 2796W        W69337  15.929   0.988   0.384
 2797W        W69338  34.075  31.560  14.031
 2798W        W69339  16.562   9.267   3.407
 2799W        W69340  42.085  44.314   2.424
 2800W        W69341  14.702  15.275   4.621
 2801W        W69342  43.006  21.787   2.256
 2802W        W69343  33.602  41.697   0.581
 2803W        W69344  39.564   3.676  11.250
 2804W        W69345  32.351  10.227  11.810
 2805W        W69346  27.012  29.406   4.284
 2806W        W69347  23.062   2.486  13.014
 2807W        W69348  14.617  26.960   2.819
 2808W        W69349  17.110  35.691  14.039
 2809W        W69350  16.758  14.549   3.205
 2810W        W69351  20.218  42.815   2.798
 2811W        W69352   1.891  37.736  14.952
 2812W        W69353  29.008   4.635  13.001
 2813W        W69354  42.796  10.772  13.569
 2814W        W69355  43.075  17.777   2.326
 2815W        W69356   6.841  36.835   1.275
 2816W        W69357  29.855  11.753   4.581
 2817W        W69358  35.713  39.015  11.912
 2818W        W69359   0.423  26.422  13.992
 2819W        W69360   2.965  23.993   2.662
 2820W        W69361  39.037  15.719   0.382
 2821W        W69362  13.784  36.283  13.593
 2822W        W69363  31.009  27.876  11.308
 2823W        W69364  24.991  18.633  14.035
 2824W        W69365   0.482  36.426   3.268
 2825W        W69366  28.447   0.514  12.042
 2826W        W69367   9.129  42.418   9.582
 2827W        W69368  29.787  36.397  12.581
 2828W        W69369   6.737  36.383   0.959
 2829W        W69370  30.151   6.781  14.415
 2830W        W69371   7.858  19.317   4.082
 2831W        W69372  15.702   4.377  11.931
 2832W        W69373  26.012  15.005   4.127
 2833W        W69374  14.259  38.138   1.189
 2834W        W69375   2.070  34.326  13.331
 2835W        W69376  27.484   3.642   3.722
 2836W        W69377   1.794  17.097   0.242
 2837W        W69378  39.423  38.003   3.715
 2838W        W69379  32.972  17.596  11.071
 2839W        W69380  21.359   1.983   4.721
 2840W        W69381  11.824   5.663  13.029
 2841W        W69382  24.548   4.368  11.666
 2842W        W69383  30.466   1.819   1.866
 2843W        W69384  37.138  35.388  14.777
 2844W        W69385  38.909  29.460  11.735
 2845W        W69386  16.163  20.547  10.879
 2846W        W69387   9.170  12.198   0.672
 2847W        W69388   1.842  42.453   4.956
 2848W        W69389  36.000  42.795  10.256
 2849W        W69390  21.990  16.709   0.221
 2850W        W69391  40.417  15.616   0.756
 2851W        W69392  40.800  44.881  12.952
 2852W        W69393  31.935  12.476  12.022
 2853W        W69394  24.755  16.786   2.312
 2854W        W69395  16.250  30.146  14.120
 2855W        W69396  10.581  39.849  11.097
 2856W        W69397  39.326   6.871   1.222
 2857W        W69398   5.702  36.404  13.310
 2858W        W69399  21.010  24.076   0.917
 2859W        W69400  21.317  19.856   1.450
 2860W        W69401  44.760  39.906   9.968
 2861W        W69402   9.375   4.809   4.282
 2862W        W69403  19.307   3.001  10.692
 2863W        W69404  14.335   3.062  11.246
 2864W        W69405  42.353  24.066   2.072
 2865W        W69406  13.732  41.235   0.738
 2866W        W69407  34.958   4.277  12.598
 2867W        W69408  34.170  35.186  13.377
 2868W        W69409  21.634  25.517  13.136
 2869W        W69410  34.167   8.854   0.853
 2870W        W69411   4.306  30.923   3.970
 2871W        W69412   9.159  39.616  10.767
 2872W        W69413  42.869   9.132   0.721
 2873W        W69414  10.669  16.760   0.623
 2874W        W69415  14.284  29.996   4.474
 2875W        W69416  15.066   2.537  11.145
 2876W        W69417  25.111  29.742   2.736
 2877W        W69418  21.060   8.765   4.103
 2878W        W69419   5.749  14.780  12.653
 2879W        W69420  17.521   1.183   1.774
 2880W        W69421  20.611  26.445  12.977
 2881W        W69422  12.702  38.710  14.209
 2882W        W69423  11.377  35.806   1.376
 2883W        W69424  25.058   8.476   1.921
 2884W        W69425   4.661  27.500  13.404
 2885W        W69426  11.156  25.617   3.740
 2886W        W69427  44.274  18.843  11.098
 2887W        W69428   8.310   7.409   2.224
 2888W        W69429  38.092  10.839  12.021
 2889W        W69430  40.205  10.130   1.548
 2890W        W69431   6.341  24.251  13.083
 2891W        W69432   4.924   3.849  13.066
 2892W        W69433  13.484  23.779   3.661
 2893W        W69434   8.346  40.778  14.323
 2894W        W69435  36.871  41.560   4.615
 2895W        W69436  14.570   5.226  14.745
 2896W        W69437  21.686  29.510  12.203
 2897W        W69438  27.546  28.678  14.456
 2898W        W69439  15.881  29.964   2.504
 2899W        W69440  30.237  36.144   4.519
 2900W        W69441  36.356  27.414   4.205
 2901W        W69442  30.576  23.092  11.850
 2902W        W69443  43.557  39.765  10.723
 2903W        W69444  28.148  18.802  13.334
 2904W        W69445  28.074  15.216  10.806
 2905W        W69446   6.371  21.114   0.893
 2906W        W69447  44.925   7.195  14.439
 2907W        W69448  40.802  42.573   0.775
 2908W        W69449  28.459  22.094   0.027
 2909W        W69450  41.910   9.671  12.592
 2910W        W69451  24.600  39.250  12.466
 2911W        W69452  37.355  12.796  13.563
 2912W        W69453   1.998   4.811  14.848
 2913W        W69454  11.957   2.942  13.933
 2914W        W69455  12.514  29.703  11.127
 2915W        W69456  25.953   8.500   1.810
 2916W        W69457  28.192  25.067   2.100
 2917W        W69458  11.575  23.806  10.598
 2918W        W69459  13.368  29.579   2.120
 2919W        W69460  28.720  10.861   1.429
 2920W        W69461   2.168   0.914   4.498
 2921W        W69462   9.471  15.434  12.438
 2922W        W69463   4.125  27.619   3.156
 2923W        W69464   8.794  40.325  14.864
 2924W        W69465   0.771  20.544   2.845
 2925W        W69466  38.490  12.004  14.490
 2926W        W69467  17.937  38.974  14.460
 2927W        W69468  17.650  33.523   1.554
 2928W        W69469   6.076  10.503  12.484
 2929W        W69470   4.298  18.103  11.549
 2930W        W69471  33.446  23.308  11.136
 2931W        W69472  43.874  37.542   3.812
 2932W        W69473  14.814   3.386   1.307
 2933W        W69474  40.847   7.062  11.578
 2934W        W69475  44.891  22.348  12.476
 2935W        W69476  24.630  15.871  10.976
 2936W        W69477  36.108  13.226   2.561
 2937W        W69478  23.729  21.584  13.900
 2938W        W69479  18.494   9.277  10.654
 2939W        W69480  27.666   6.864   0.999
 2940W        W69481  24.409  19.265  10.809
 2941W        W69482  14.370   0.475  10.764
 2942W        W69483   3.417  14.914   3.220
 2943W        W69484  30.256  13.276   0.915
 2944W        W69485  39.830  18.988  12.556
 2945W        W69486  17.149  43.892   4.348
 2946W        W69487  36.903  34.273  13.007
 2947W        W69488   4.471  42.829  11.024
 2948W        W69489  30.882   4.993  12.075
 2949W        W69490  12.351   7.715   1.634
 2950W        W69491  29.399  22.177  13.496
 2951W        W69492  19.002  29.615   4.176
 2952W        W69493  36.595   7.397  11.441
 2953W        W69494  17.656  31.387  11.868
 2954W        W69495  24.110  24.918  10.759
 2955W        W69496  12.759   1.424  11.572
 2956W        W69497  11.037  30.781  12.520
 2957W        W69498   5.678  25.625  11.742
 2958W        W69499  34.881  24.603  12.468
 2959W        W69500  33.357  39.928  14.002
 2960W        W69501   4.951  29.131  14.286
 2961W        W69502   0.426   4.812   0.977
 2962W        W69503  23.723  33.434  10.531
 2963W        W69504  23.208  21.997  14.844
 2964W        W69505  43.256  14.158   2.394
 2965W        W69506  16.675  21.165  11.573
 2966W        W69507  20.234   5.326   4.636
 2967W        W69508   1.453  17.780   0.021
 2968W        W69509  21.042   5.872  11.548
 2969W        W69510  33.011  34.173  10.374
 2970W        W69511   3.803  14.673  11.363
 2971W        W69512  27.199  15.608  10.546
 2972W        W69513  42.973   4.705  12.157
 2973W        W69514  40.891  26.785   0.747
 2974W        W69515   2.005   2.895   3.897
 2975W        W69516  10.784  39.771  14.320
 2976W        W69517  10.592  29.009   2.399
 2977W        W69518  37.086  19.095   0.225
 2978W        W69519  44.530  14.761   2.310
 2979W        W69520   7.842  34.999   0.304
 2980W        W69521  43.353   1.785   1.731
 2981W        W69522  28.110  11.697   0.535
 2982W        W69523  39.448  25.518  12.310
 2983W        W69524  19.557  17.742   2.894
 2984W        W69525  14.434  18.439  12.428
 2985W        W69526  29.937  44.300   3.923
 2986W        W69527   3.705  19.900  12.317
 2987W        W69528  38.267  43.449  12.842
 2988W        W69529  43.773  39.759   3.292
 2989W        W69530  23.607  35.041   3.734
 2990W        W69531  11.132  39.968   4.080
 2991W        W69532  23.020  36.553  14.878
 2992W        W69533  40.424  42.145   0.480
 2993W        W69534   4.368  42.879   1.962
 2994W        W69535  15.378  28.184   3.240
 2995W        W69536  19.410  26.729  14.008
 2996W        W69537  19.982  30.516  12.169
 2997W        W69538  32.051  18.587  12.951
 2998W        W69539  16.311  27.609   0.969
 2999W        W69540  10.727  25.093   0.244
 3000W        W69541  24.095   6.204  13.309
 3001W        W69542  28.338  16.104   4.239
 3002W        W69543  41.556   1.219  13.837
 3003W        W69544   5.232  30.756  10.977
 3004W        W69545  35.096   3.300  14.207
 3005W        W69546  36.306  23.018  14.684
 3006W        W69547  21.416  42.327  14.519
 3007W        W69548  33.499  43.238   2.770
 3008W        W69549  27.579  15.148   3.396
 3009W        W69550  23.438   8.826   3.633
 3010W        W69551  27.618  30.195   4.133
 3011W        W69552  23.632  39.576   3.841
 3012W        W69553  13.823   1.946  11.566
 3013W        W69554  17.202   8.209   2.288
 3014W        W69555  21.698  22.277   2.228
 3015W        W69556  29.840   1.456  13.883
 3016W        W69557   1.844  41.778  10.796
 3017W        W69558  19.035   8.641   1.263
 3018W        W69559  37.984  28.417  10.659
 3019W        W69560  21.848  35.937  11.359
 3020W        W69561  42.264  15.310   1.134
 3021W        W69562  39.502  23.016  13.318
 3022W        W69563  31.829  34.566   3.359
 3023W        W69564  27.621  44.764  14.335
 3024W        W69565  14.747  14.838  11.947
 3025W        W69566  25.898  22.174   3.252
 3026W        W69567  22.132  21.251  13.084
 3027W        W69568  31.827   2.411  14.338
 3028W        W69569  37.852  18.695   0.503
 3029W        W69570   9.182  26.073   0.754
 3030W        W69571  29.020  29.419  13.352
 3031W        W69572  16.139  10.172  14.412
 3032W        W69573  37.297  40.390  14.930
 3033W        W69574  11.517   5.021  13.829
 3034W        W69575   2.812   9.760  10.470
 3035W        W69576  18.908  10.386  10.470
 3036W        W69577  36.351  25.728  14.189
 3037W        W69578  43.298  21.713  13.029
 3038W        W69579  38.096  36.126  10.937
 3039W        W69580  19.542  10.113  12.931
 3040W        W69581  26.136  18.272  13.808
 3041W        W69582   1.811  39.239   4.254
 3042W        W69583  28.737  31.906   3.417
 3043W        W69584  26.425   0.395  13.461
 3044W        W69585   0.934   3.759   3.227
 3045W        W69586  17.516  31.976   1.850
 3046W        W69587  16.129  24.153  10.616
 3047W        W69588  27.358  41.238  11.938
 3048W        W69589  34.023  16.290  14.851
 3049W        W69590  25.524  16.995   2.705
 3050W        W69591   9.765  23.196  11.608
 3051W        W69592  29.657  31.513  11.937
 3052W        W69593  16.650   4.316   1.303
 3053W        W69594  37.267  17.270   5.095
 3054W        W69595   1.329   7.339   2.262
 3055W        W69596  25.989  32.888  14.390
 3056W        W69597  14.681  29.692  11.103
 3057W        W69598  10.383  20.803  12.887
 3058W        W69599  35.482  21.166   2.690
 3059W        W69600  24.763  30.057  14.817
 3060W        W69601  30.913  19.294   1.272
 3061W        W69602  34.433  27.860  12.396
 3062W        W69603   8.223  33.977   0.248
 3063W        W69604  13.286  30.106  10.307
 3064W        W69605  34.468  12.835  12.515
 3065W        W69606  20.584  38.777  14.274
 3066W        W69607  34.073  30.168  13.018
 3067W        W69608  16.673   4.181  14.923
 3068W        W69609  29.958  24.052  14.489
 3069W        W69610  27.161  38.656   2.824
 3070W        W69611  24.490  33.132  12.588
 3071W        W69612  39.537  40.947  13.887
 3072W        W69613  26.856  28.115   2.576
 3073W        W69614  16.006  40.488   3.298
 3074W        W69615  18.306  11.156  11.237
 3075W        W69616   7.859  18.561   1.790
 3076W        W69617  10.832   4.638  14.340
 3077W        W69618  32.167  10.315   3.994
 3078W        W69619  16.377  21.104  12.010
 3079W        W69620  12.203  15.822   3.835
 3080W        W69621  26.061  44.682  11.138
 3081W        W69622   3.774   7.745  13.449
 3082W        W69623  27.419  33.552   4.293
 3083W        W69624  41.656  34.375  12.482
 3084W        W69625   9.794  26.590  11.190
 3085W        W69626  14.670   7.226  10.455
 3086W        W69627  26.716  25.801  12.525
 3087W        W69628   6.098  40.617  10.373
 3088W        W69629  28.910   9.616   3.637
 3089W        W69630  21.239  13.004  14.890
 3090W        W69631   3.915  25.027  11.937
 3091W        W69632  22.596  19.615  14.065
 3092W        W69633  37.853  44.088   2.565
 3093W        W69634  32.446  24.042   3.844
 3094W        W69635  42.076  24.939  12.535
 3095W        W69636  32.488  21.367   0.501
 3096W        W69637  20.272  30.505   3.400
 3097W        W69638  32.649  40.930   3.710
 3098W        W69639   2.181  23.604  10.326
 3099W        W69640  18.270  36.705  13.934
 3100W        W69641  19.376  39.786  12.410
 3101W        W69642  15.134  41.018  12.629
 3102W        W69643  30.608  12.331  13.588
 3103W        W69644  35.046   4.012   4.655
 3104W        W69645  42.447  36.358  10.758
 3105W        W69646  12.687  26.204   1.229
 3106W        W69647  17.542  10.901   0.995
 3107W        W69648  10.393  22.574  10.495
 3108W        W69649  38.671  25.496  13.276
 3109W        W69650  13.393  25.881  12.884
 3110W        W69651  29.539  18.141  10.771
 3111W        W69652  29.677  41.591   4.493
 3112W        W69653   9.654  36.030   1.234
 3113W        W69654  20.241  21.191  10.987
 3114W        W69655  30.717  11.213   9.757
 3115W        W69656  37.099  23.774   4.339
 3116W        W69657  34.208  14.595  13.870
 3117W        W69658  10.678   0.524  10.547
 3118W        W69659  33.845  38.378  11.994
 3119W        W69660   8.497  34.427  12.188
 3120W        W69661  18.707  37.759   1.818
 3121W        W69662  16.086  26.283  12.110
 3122W        W69663  36.844  14.205   4.783
 3123W        W69664  31.120  41.349  11.989
 3124W        W69665   2.337  34.047  10.490
 3125W        W69666  42.859   4.256   3.127
 3126W        W69667  27.001  31.336  12.473
 3127W        W69668  41.881   2.970  11.571
 3128W        W69669   4.401  27.576  10.406
 3129W        W69670  16.891  42.918  12.882
 3130W        W69671  33.962  32.606  13.469
 3131W        W69672  14.613   5.574  11.169
 3132W        W69673  40.126  26.680   1.809
 3133W        W69674   9.699   1.715  14.098
 3134W        W69675   9.657   0.640  12.964
 3135W        W69676  18.564  44.324   2.319
 3136W        W69677   0.224  12.943  11.646
 3137W        W69678  11.796  12.373  14.773
 3138W        W69679  21.282  29.016  14.284
 3139W        W69680   7.455   9.970   0.012
 3140W        W69681  44.919  13.642  10.359
 3141W        W69682   7.394   6.827  13.051
 3142W        W69683  26.957  35.823   0.669
 3143W        W69684   1.945  10.641  11.570
 3144W        W69685  33.827  21.453   0.494
 3145W        W69686  33.078  43.238  13.341
 3146W        W69687   4.911   2.320   1.894
 3147W        W69688  40.706  13.707  11.194
 3148W        W69689  28.730   6.999   1.611
 3149W        W69690  25.986  43.477   3.020
 3150W        W69691  15.704  40.781   4.338
 3151W        W69692  27.534  35.006  12.940
 3152W        W69693  33.458  13.899  13.967
 3153W        W69694  23.557  33.480  11.957
 3154W        W69695  31.929  22.252   4.079
 3155W        W69696  26.176  18.712  14.742
 3156W        W69697  36.936   6.636  14.528
 3157W        W69698  27.209  34.367   2.089
 3158W        W69699  14.916  26.036  11.443
 3159W        W69700  25.975   3.329   2.127
 3160W        W69701  18.534  35.968  12.491
 3161W        W69702  42.831  18.129  12.183
 3162W        W69703  28.564  14.137   1.048
 3163W        W69704  27.998  26.945   2.289
 3164W        W69705   6.422  26.665   0.751
 3165W        W69706  18.094  17.777   3.194
 3166W        W69707  29.575   9.616  11.711
 3167W        W69708  33.618  28.000  11.883
 3168W        W69709  23.754  19.181   2.476
 3169W        W69710  43.046  34.528  13.080
 3170W        W69711  35.395  15.764  12.933
 3171W        W69712   8.430  38.957  12.415
 3172W        W69713  37.882  37.593  10.960
 3173W        W69714  33.322  20.522   3.709
 3174W        W69715  30.852  23.947   1.736
 3175W        W69716  12.730  10.290  13.542
 3176W        W69717  14.140   3.510   4.659
 3177W        W69718  21.075  41.830   4.619
 3178W        W69719  32.836  15.165  11.029
 3179W        W69720  13.890  17.377  13.085
 3180W        W69721  23.745   6.461  13.583
 3181W        W69722  16.080   2.226  13.823
 3182W        W69723  24.166  41.920   3.448
 3183W        W69724  30.124  37.999  11.296
 3184W        W69725  41.543  15.678  11.056
 3185W        W69726  34.988  41.024  14.475
 3186W        W69727  27.261  37.622   3.607
 3187W        W69728  28.006  32.045  13.018
 3188W        W69729   6.243  28.720   1.326
 3189W        W69730  15.071  27.493   0.603
 3190W        W69731  13.793  30.241  10.240
 3191W        W69732  10.269  23.619  14.379
 3192W        W69733   6.014  34.363   2.711
 3193W        W69734  30.385  43.718   0.428
 3194W        W69735   3.816  43.807  13.442
 3195W        W69736  21.470  17.315  14.129
 3196W        W69737  17.089  28.834  13.355
 3197W        W69738  18.264  18.714  12.591
 3198W        W69739  43.723  20.789  12.985
 3199W        W69740  22.633  16.331  12.414
 3200W        W69741  22.309  24.509  10.750
 3201W        W69742  12.770  43.382  11.161
 3202W        W69743   9.260  11.418   2.260
 3203W        W69744   6.115   2.865  10.223
 3204W        W69745  41.991   0.399   3.701
 3205W        W69746  20.326  24.536  12.141
 3206W        W69747  22.130   9.191  10.068
 3207W        W69748   5.341  14.374  11.199
 3208W        W69749   2.420  31.190   3.390
 3209W        W69750  11.724  11.666   2.220
 3210W        W69751   1.615  36.451   0.309
 3211W        W69752  15.228  33.097  10.294
 3212W        W69753  27.663  44.345  11.505
 3213W        W69754  23.256  31.102  10.566
 3214W        W69755  25.468  36.101  11.921
 3215W        W69756  23.501  39.583   2.892
 3216W        W69757  41.850   8.409   1.207
 3217W        W69758  17.420  38.358   2.959
 3218W        W69759  16.554  44.713  12.742
 3219W        W69760  44.794  20.206  14.957
 3220W        W69761  35.046  34.158  14.517
 3221W        W69762  27.789  14.717   0.619
 3222W        W69763  10.687   8.434  14.845
 3223W        W69764  41.108   2.790   0.022
 3224W        W69765  32.795  36.439  14.254
 3225W        W69766   6.418  44.341   4.560
 3226W        W69767  39.866   8.984  12.925
 3227W        W69768   6.811   0.833   1.475
 3228W        W69769   2.972  29.616   1.292
 3229W        W69770  12.781  31.538   0.663
 3230W        W69771  22.039  25.936  12.008
 3231W        W69772   2.797   4.573  12.467
 3232W        W69773  26.207  18.799  12.911
 3233W        W69774  19.265  19.230  14.793
 3234W        W69775  36.723   3.466  11.486
 3235W        W69776  37.347  16.814   4.505
 3236W        W69777   6.674  20.266   2.238
 3237W        W69778  13.874  29.478  10.735
 3238W        W69779  29.524  39.536  14.892
 3239W        W69780   1.158  40.716  12.154
 3240W        W69781  37.910  20.053  13.056
 3241W        W69782  27.577  11.090  14.961
 3242W        W69783  39.559  18.534  10.523
 3243W        W69784  21.551  22.094   4.591
 3244W        W69785   1.426  11.758  12.123
 3245W        W69786   1.200  20.039  11.909
 3246W        W69787  18.131  24.782  11.988
 3247W        W69788  16.055  22.649   9.952
 3248W        W69789  25.070  31.852   3.199
 3249W        W69790   8.420  39.996  14.700
 3250W        W69791  15.328  38.675   0.476
 3251W        W69792  18.070   3.712   1.390
 3252W        W69793  30.177   3.493  11.074
 3253W        W69794  13.350   8.781   2.036
 3254W        W69795  30.917  17.371   3.862
 3255W        W69796  19.576  31.430  12.990
 3256W        W69797  24.234  28.406  14.509
 3257W        W69798  31.207  43.900  14.377
 3258W        W69799  42.274  13.940   1.371
 3259W        W69800  32.351  24.237  11.670
 3260W        W69801  40.728  24.412  11.611
 3261W        W69802  29.221  43.341   0.758
 3262W        W69803   0.516  19.560  13.382
 3263W        W69804  25.542  10.423  12.508
 3264W        W69805  27.513  27.159   4.802
 3265W        W69806  32.999  14.220  11.615
 3266W        W69807  41.848  31.622   4.088
 3267W        W69808   3.238  42.447  11.999
 3268W        W69809  12.293  29.842   0.590
 3269W        W69810  14.759  28.783   3.676
 3270W        W69811  10.184  12.482   1.456
 3271W        W69812  28.141  14.224   1.880
 3272W        W69813   0.011  22.923   4.024
 3273W        W69814  18.545  40.603  11.756
 3274W        W69815  36.459   5.720  14.936
 3275W        W69816  32.595  15.559  12.082
 3276W        W69817   0.925  15.069  11.860
 3277W        W69818   8.203  15.337  10.693
 3278W        W69819  11.772   5.144  13.042
 3279W        W69820  27.653  22.428  13.893
 3280W        W69821  21.796  42.372  12.572
 3281W        W69822  25.572  44.303  11.745
 3282W        W69823   2.268  14.773  10.988
 3283W        W69824  23.288  24.643   0.070
 3284W        W69825  15.495  32.714  10.579
 3285W        W69826  36.355  10.478  14.062
 3286W        W69827  10.353  26.922   2.396
 3287W        W69828  21.786  40.832   3.578
 3288W        W69829   8.240   6.276   1.259
 3289W        W69830  23.482  41.599   3.817
 3290W        W69831  23.719   3.620   4.122
 3291W        W69832   2.871  25.861   0.091
 3292W        W69833  32.147   8.765  14.611
 3293W        W69834   2.161  25.029  13.352
 3294W        W69835   2.640  23.694   4.579
 3295W        W69836   1.915  15.106   1.896
 3296W        W69837   4.000   7.770   3.325
 3297W        W69838  16.233   6.611   0.331
 3298W        W69839  16.061  41.852   0.006
 3299W        W69840   5.485  31.184  10.970
 3300W        W69841  18.214  21.624  13.586
 3301W        W69842   6.725  16.121  13.879
 3302W        W69843   0.339  38.260   3.749
 3303W        W69844  43.768  36.395  13.459
 3304W        W69845   7.913  11.877  12.901
 3305W        W69846   4.920  27.053  13.472
 3306W        W69847  24.607  27.012  13.496
 3307W        W69848   6.883   0.212  11.398
 3308W        W69849   6.292   2.668  14.836
 3309W        W69850  12.170  33.480  10.657
 3310W        W69851  31.125  10.459  13.114
 3311W        W69852  44.104  41.859  14.145
 3312W        W69853   6.466  38.888  13.993
 3313W        W69854   6.858  13.803   3.711
 3314W        W69855  41.606  11.790   4.638
 3315W        W69856  29.657  26.541  14.645
 3316W        W69857  43.809  42.002  11.918
 3317W        W69858  27.352   4.830  14.187
 3318W        W69859   7.675  22.022   4.087
 3319W        W69860  28.230  41.592   0.953
 3320W        W69861  19.247  35.302   4.580
 3321W        W69862  13.140  23.740   4.088
 3322W        W69863  38.993  27.688  13.313
 3323W        W69864  19.128  26.616   2.871
 3324W        W69865  32.891  44.061  13.013
 3325W        W69866  40.488   5.141  12.538
 3326W        W69867  40.471   0.287  12.812
 3327W        W69868   2.148  43.838   3.283
 3328W        W69869  25.063  35.083   4.705
 3329W        W69870  32.974  40.149   1.021
 3330W        W69871  35.634  15.469   0.806
 3331W        W69872  27.059  24.684  14.511
 3332W        W69873  10.861  21.740  11.450
 3333W        W69874  24.774  39.979   2.735
 3334W        W69875   8.596  38.758   2.285
 3335W        W69876  17.658  33.250  14.728
 3336W        W69877  21.076  20.663   1.044
 3337W        W69878  37.582  29.445  13.269
 3338W        W69879   9.090  18.784  13.330
 3339W        W69880  35.335  21.268  10.693
 3340W        W69881  24.539  41.220   3.795
 3341W        W69882   1.479  12.648  13.981
 3342W        W69883  13.188  24.200  11.635
 3343W        W69884  17.580  26.901  12.550
 3344W        W69885   0.306  16.832   2.782
 3345W        W69886  22.754  44.705   3.836
 3346W        W69887  38.997  11.865   3.869
 3347W        W69888   8.370   8.012   4.064
 3348W        W69889  34.848  27.099  10.945
 3349W        W69890  43.981  14.518   3.228
 3350W        W69891  18.177  11.050  12.062
 3351W        W69892  24.267  29.132  15.000
 3352W        W69893  44.356  24.377  13.435
 3353W        W69894  15.222   1.656   1.705
 3354W        W69895  43.939   9.589  11.690
 3355W        W69896   7.441  28.585  13.955
 3356W        W69897   0.692  42.214   3.236
 3357W        W69898  10.365   1.271  11.866
 3358W        W69899  31.367  24.038  13.026
 3359W        W69900  38.914  38.061   3.779
 3360W        W69901  40.586  42.516   3.689
 3361W        W69902   5.398  40.801  13.911
 3362W        W69903  18.567   2.877   0.450
 3363W        W69904   1.335  22.549   0.825
 3364W        W69905   9.595   8.249  11.922
 3365W        W69906  20.595  26.405  10.531
 3366W        W69907  37.558  40.818   3.291
 3367W        W69908  32.953  36.328  10.672
 3368W        W69909  23.960  32.471  11.518
 3369W        W69910   3.531  32.947  12.026
 3370W        W69911  16.500  43.918  14.294
 3371W        W69912  14.506  14.163   0.703
 3372W        W69913   1.661  44.885  12.084
 3373W        W69914  18.349  26.428   3.558
 3374W        W69915   5.464  27.960   9.394
 3375W        W69916  32.784   1.970   0.247
 3376W        W69917   0.952  14.529  10.980
 3377W        W69918   6.829  24.699   1.470
 3378W        W69919  15.354  42.701   3.126
 3379W        W69920  24.949  20.593   1.829
 3380W        W69921  29.389  30.059   2.723
 3381W        W69922  10.674  35.610   3.662
 3382W        W69923  13.280  40.607   1.379
 3383W        W69924  21.982  37.879   1.663
 3384W        W69925  41.764  24.131   0.632
 3385W        W69926  43.803  43.473  14.847
 3386W        W69927  42.952  26.700   2.399
 3387W        W69928  17.141  41.997   4.297
 3388W        W69929   0.482   3.813   2.893
 3389W        W69930  41.889  19.702  14.412
 3390W        W69931  44.286  22.097  12.001
 3391W        W69932  29.359  40.399  11.747
 3392W        W69933  29.071   4.333   4.360
 3393W        W69934  32.448  43.998   0.630
 3394W        W69935  29.651  41.119  11.985
 3395W        W69936  36.236  11.252   0.882
 3396W        W69937  39.582   1.876  12.113
 3397W        W69938  23.261  44.801   3.722
 3398W        W69939  27.483  40.109   2.961
 3399W        W69940  39.477  37.930  12.851
 3400W        W69941  36.200   8.578  10.406
 3401W        W69942  25.291  22.969  11.426
 3402W        W69943  13.821  31.446   3.086
 3403W        W69944   2.488  23.896  14.793
 3404W        W69945  33.981   2.567   4.404
 3405W        W69946  31.990  27.267   3.563
 3406W        W69947  35.427  30.634  12.116
 3407W        W69948  18.257  20.012  12.081
 3408W        W69949  14.849  13.816  14.344
 3409W        W69950  12.075   8.637  11.549
 3410W        W69951  22.747  24.872  11.631
 3411W        W69952  36.980  15.655   0.756
 3412W        W69953  24.140  17.766  14.895
 3413W        W69954  23.266  34.413   1.236
 3414W        W69955  43.779  40.208   3.028
 3415W        W69956  22.909  27.361   2.280
 3416W        W69957  14.912  29.159   0.441
 3417W        W69958   9.419  12.252   0.229
 3418W        W69959  12.827  29.666   3.744
 3419W        W69960  34.748  43.799  13.862
 3420W        W69961  24.506  27.069   0.381
 3421W        W69962  12.325  10.077   1.339
 3422W        W69963  39.687  37.493  13.479
 3423W        W69964  27.100  43.042   1.320
 3424W        W69965  23.084   7.703  11.947
 3425W        W69966   7.001  14.474   1.173
 3426W        W69967  14.109   7.658   3.724
 3427W        W69968  32.357  15.301  14.516
 3428W        W69969  13.307  43.471   4.764
 3429W        W69970  43.158  26.099  13.990
 3430W        W69971   8.635  40.846   1.882
 3431W        W69972  41.480   3.848  11.888
 3432W        W69973  28.617  14.750   2.682
 3433W        W69974  27.278  26.770  14.996
 3434W        W69975  31.695  20.920   3.053
 3435W        W69976  42.608  36.101   0.681
 3436W        W69977  16.250  18.805  12.388
 3437W        W69978  37.393  35.922  11.475
 3438W        W69979  22.602  31.932   1.170
 3439W        W69980  22.530  22.190   4.897
 3440W        W69981  42.615  24.453   4.619
 3441W        W69982  18.034  31.120   2.933
 3442W        W69983  25.032  10.952   3.300
 3443W        W69984  13.060   4.445  13.281
 3444W        W69985   0.052  15.957  12.135
 3445W        W69986   0.269  21.575  11.026
 3446W        W69987  10.741   6.948   0.077
 3447W        W69988  34.907  43.258  11.242
 3448W        W69989  31.027  18.620   2.556
 3449W        W69990  11.863  37.067   3.194
 3450W        W69991  37.499  13.604   0.294
 3451W        W69992  32.795  23.669  14.267
 3452W        W69993  37.368  42.551  14.116
 3453W        W69994  10.884  29.540   3.058
 3454W        W69995  13.707  30.601   1.749
 3455W        W69996  44.359  21.279   1.743
 3456W        W69997  33.641   8.884  14.026
 3457W        W69998  14.355  25.574  11.120
 3458W        W69999  13.842  39.529   0.753
 3459W        W70000  21.259  20.846   0.509
 3460W        W70001  22.885  13.192   4.427
 3461W        W70002  11.076  17.737   1.135
 3462W        W70003  23.279  20.710  11.432
 3463W        W70004  14.545  27.592  10.295
 3464W        W70005   6.117   3.143   0.021
 3465W        W70006   9.905  38.121  11.141
 3466W        W70007   3.603  38.000   1.627
 3467W        W70008  33.548   5.155  12.137
 3468W        W70009  35.632  37.828  11.092
 3469W        W70010  27.487  16.721  13.139
 3470W        W70011  38.187   7.400   0.523
 3471W        W70012  40.853  36.840   0.029
 3472W        W70013  10.167  27.588  12.083
 3473W        W70014   6.291  11.311  11.458
 3474W        W70015  24.689  34.882  10.665
 3475W        W70016  41.335  15.668   0.914
 3476W        W70017  11.630   9.687   1.957
 3477W        W70018   6.235  12.247  14.399
 3478W        W70019  24.026  42.443   4.527
 3479W        W70020   2.082  18.212  12.038
 3480W        W70021  25.229  13.715  12.307
 3481W        W70022   6.359  36.973   1.222
 3482W        W70023  25.570  39.559  13.124
 3483W        W70024  13.127  29.417   0.276
 3484W        W70025   6.377  39.873  14.087
 3485W        W70026   3.424  23.841  14.886
 3486W        W70027  18.191  43.413   4.760
 3487W        W70028  44.742  31.557  12.520
 3488W        W70029  25.193  35.300   3.658
 3489W        W70030   1.182   9.235  14.807
 3490W        W70031  44.829  22.082  12.040
 3491W        W70032  27.975  13.854  13.497
 3492W        W70033  42.557  37.684   3.646
 3493W        W70034  30.638   1.216  10.924
 3494W        W70035  37.851  17.704   4.191
 3495W        W70036   9.204  23.873  12.087
 3496W        W70037  40.256  26.561  12.825
 3497W        W70038  43.233  28.999   3.754
 3498W        W70039  40.922   8.547   2.767
 3499W        W70040  43.610  41.199   3.339
 3500W        W70041   6.065   5.233  10.623
 3501W        W70042  43.237   0.401   3.216
 3502W        W70043  16.562   5.698   4.662
 3503W        W70044  19.163   1.654  10.755
 3504W        W70045  37.318   6.960  14.377
 3505W        W70046  36.304  29.770   1.721
 3506W        W70047   7.403   5.735   4.654
 3507W        W70048  21.274  12.074  12.921
 3508W        W70049  40.012  10.555  10.102
 3509W        W70050  40.676  20.237  12.913
 3510W        W70051   1.238   8.969  11.082
 3511W        W70052  20.075  27.552  13.895
 3512W        W70053  14.307   1.940   0.814
 3513W        W70054  44.870  10.664   2.377
 3514W        W70055  39.462  36.966   1.248
 3515W        W70056  41.503  25.962  10.703
 3516W        W70057  29.206  31.989  14.784
 3517W        W70058  40.288   4.942  13.181
 3518W        W70059  10.140  30.280  10.363
 3519W        W70060  29.211  33.863  13.315
 3520W        W70061  33.657  17.313  11.594
 3521W        W70062  30.599  14.608  13.357
 3522W        W70063  28.914  25.179  13.769
 3523W        W70064   6.806  17.532  10.957
 3524W        W70065  29.055  11.187  12.547
 3525W        W70066  17.101  40.363  10.944
 3526W        W70067   1.793  24.774  10.954
 3527W        W70068  15.044  17.599  13.436
 3528W        W70069  12.832  40.741  14.751
 3529W        W70070  22.672  35.035  12.916
 3530W        W70071  14.913  28.513   2.262
 3531W        W70072  20.068  36.615  12.897
 3532W        W70073  36.109  22.503  10.407
 3533W        W70074  33.613  13.653  13.529
 3534W        W70075  34.879  30.636  12.777
 3535W        W70076  30.926   9.842   4.813
 3536W        W70077  32.319   1.283  11.642
 3537W        W70078  14.374  21.066   4.367
 3538W        W70079  35.823  29.622  11.621
 3539W        W70080  30.000  37.115  11.149
 3540W        W70081   7.586  35.673  11.577
 3541W        W70082  13.929  13.847   4.393
 3542W        W70083  29.662   5.219   1.774
 3543W        W70084  42.439  15.314   4.134
 3544W        W70085  14.209  26.084  14.988
 3545W        W70086  14.714  26.105  13.747
 3546W        W70087  36.523  37.338   0.804
 3547W        W70088  38.557  16.993  12.096
 3548W        W70089   3.728  21.297  14.092
 3549W        W70090   0.515  37.654   3.761
 3550W        W70091  18.285  27.996   3.230
 3551W        W70092  18.904  41.142  14.089
 3552W        W70093   7.435  24.974   3.434
 3553W        W70094  16.029  36.949   4.524
 3554W        W70095   1.999  28.714  12.334
 3555W        W70096   8.413  41.802   3.240
 3556W        W70097  27.607  25.223   2.968
 3557W        W70098  31.592  26.427  12.924
 3558W        W70099  39.533  31.379  14.307
 3559W        W70100  12.714  43.921   4.159
 3560W        W70101   3.446   8.171  14.373
 3561W        W70102   3.792  43.214  14.398
 3562W        W70103   5.081  26.701   4.953
 3563W        W70104   5.978   1.919   0.265
 3564W        W70105  31.187  16.747  10.112
 3565W        W70106  29.377  10.643  10.677
 3566W        W70107  21.293   9.994   3.174
 3567W        W70108   6.328  12.814   3.811
 3568W        W70109   5.350  41.138  12.835
 3569W        W70110   7.197  16.563   2.024
 3570W        W70111   0.403  36.321  14.758
 3571W        W70112   5.353   5.228   2.306
 3572W        W70113  22.170   1.009  11.724
 3573W        W70114  28.017  21.994  12.609
 3574W        W70115  11.858  18.047  14.227
 3575W        W70116  23.733  12.281   0.475
 3576W        W70117   7.131  38.568   1.103
 3577W        W70118   9.255  29.983   4.415
 3578W        W70119   6.664  41.887   0.380
 3579W        W70120  44.641   5.568   0.426
 3580W        W70121  21.028   4.832   3.737
 3581W        W70122  21.252  11.006  11.271
 3582W        W70123  24.469  11.860   2.285
 3583W        W70124  23.534  20.211  13.136
 3584W        W70125  15.160   2.350  12.126
 3585W        W70126  29.982  14.729   3.300
 3586W        W70127   5.165  22.071   1.371
 3587W        W70128  20.150  11.629   2.444
 3588W        W70129  26.200  16.552   2.323
 3589W        W70130  44.310  12.182  12.078
 3590W        W70131  21.294  25.643   2.620
 3591W        W70132  17.584  44.206   0.989
 3592W        W70133  18.961  16.237   3.310
 3593W        W70134  42.292  10.498  12.388
 3594W        W70135  28.180  42.534  12.827
 3595W        W70136   6.981   3.714   4.205
 3596W        W70137  34.821   9.289  10.664
 3597W        W70138  24.305  42.420  14.703
 3598W        W70139  44.666   7.677  13.535
 3599W        W70140  43.061  32.614   0.416
 3600W        W70141  12.454   1.385   0.416
 3601W        W70142  16.182  31.671  10.779
 3602W        W70143  19.525  25.626  13.236
 3603W        W70144  43.773   4.791   4.054
 3604W        W70145  17.839  33.978  11.150
 3605W        W70146  32.339   2.882   3.853
 3606W        W70147  33.795  15.947   0.824
 3607W        W70148  31.054  41.848  11.621
 3608W        W70149  23.492  30.715  13.479
 3609W        W70150  16.122  24.779   2.876
 3610W        W70151   8.830  26.049  14.764
 3611W        W70152  19.952  32.114   0.810
 3612W        W70153  13.847  14.920   2.285
 3613W        W70154  24.590  43.337   0.548
 3614W        W70155  43.388   1.972   4.074
 3615W        W70156  32.829   9.845   1.225
 3616W        W70157  11.642  43.916  10.575
 3617W        W70158  43.551   2.227  14.224
 3618W        W70159  29.505   7.384   4.110
 3619W        W70160   1.455  29.864  11.142
 3620W        W70161   1.926  11.255   2.294
 3621W        W70162  17.543  44.439   3.982
 3622W        W70163  30.063  16.322  12.949
 3623W        W70164  38.840  35.473   2.791
 3624W        W70165  42.128  35.969   0.843
 3625W        W70166  19.230  40.341   1.706
 3626W        W70167   3.085  14.985  12.463
 3627W        W70168  44.322  40.801   2.890
 3628W        W70169  10.208  42.814  11.901
 3629W        W70170  29.411  32.058   0.270
 3630W        W70171  36.409  26.606  13.711
 3631W        W70172  14.501  12.428  11.559
 3632W        W70173  30.068  11.937   2.670
 3633W        W70174  29.626  25.898  13.988
 3634W        W70175  37.534  27.897  12.301
 3635W        W70176  15.082  35.682   4.732
 3636W        W70177   0.767  16.157   4.536
 3637W        W70178  27.464  13.350   0.265
 3638W        W70179   5.379  41.534  12.454
 3639W        W70180  44.043   4.879   0.301
 3640W        W70181   3.798  37.621  12.920
 3641W        W70182  42.479  32.517   1.325
 3642W        W70183  13.833   8.219  13.785
 3643W        W70184   9.250  23.118  11.573
 3644W        W70185  23.231  17.339   0.480
 3645W        W70186  20.036  39.054  11.964
 3646W        W70187   7.951  20.662   0.207
 3647W        W70188  42.802   9.177  14.405
 3648W        W70189  20.337  22.298  13.695
 3649W        W70190  40.152  38.473   3.962
 3650W        W70191  38.087  21.065  12.955
 3651W        W70192   3.730  39.971  11.141
 3652W        W70193   0.895   6.651   4.427
 3653W        W70194  44.288  36.686   5.048
 3654W        W70195  22.423  18.281   3.233
 3655W        W70196  23.355  29.056   3.164
 3656W        W70197  34.985   0.993  13.007
 3657W        W70198   9.139  32.394   3.337
 3658W        W70199   5.693  20.119   2.466
 3659W        W70200  44.907  35.705   3.716
 3660W        W70201  26.296   4.894   0.760
 3661W        W70202  39.766   7.003   0.432
 3662W        W70203  11.313   0.909   1.604
 3663W        W70204  41.793  19.598  12.990
 3664W        W70205  20.230  40.356   3.731
 3665W        W70206  39.965  39.512   0.270
 3666W        W70207  23.790   5.466   1.774
 3667W        W70208  36.808  11.317   3.666
 3668W        W70209  22.775  12.572  11.540
 3669W        W70210   7.999  18.671   1.315
 3670W        W70211   4.825  14.275   4.502
 3671W        W70212  25.611   2.393  11.755
 3672W        W70213   0.715  40.455  14.984
 3673W        W70214  21.654   5.695   0.807
 3674W        W70215  24.996  12.892   1.728
 3675W        W70216  23.084  21.512  13.887
 3676W        W70217   5.600  14.607   3.651
 3677W        W70218  21.557  18.030   3.050
 3678W        W70219  32.685  14.519   0.587
 3679W        W70220  44.252   2.570  10.944
 3680W        W70221  21.977  11.100  12.464
 3681W        W70222  44.749  10.314   1.127
 3682W        W70223   0.891  20.249  10.869
 3683W        W70224  28.951   1.485  12.014
 3684W        W70225  43.252  36.910  12.321
 3685W        W70226   9.959  44.360   1.583
 3686W        W70227  26.190  34.957   3.225
 3687W        W70228  21.661   2.122   3.081
 3688W        W70229  19.519  21.010   4.083
 3689W        W70230   2.379  44.272  11.947
 3690W        W70231   7.029  14.073  14.768
 3691W        W70232  24.934  28.028  12.054
 3692W        W70233   8.897  15.016  11.140
 3693W        W70234  43.457  24.568  10.787
 3694W        W70235  33.769  23.772   0.966
 3695W        W70236  14.097  24.133   4.141
 3696W        W70237  13.855  24.364   2.658
 3697W        W70238  44.736  41.884  12.631
 3698W        W70239  27.045  22.618   0.488
 3699W        W70240  20.157  34.615  14.742
 3700W        W70241  44.019  23.734  12.459
 3701W        W70242  36.314   6.335   0.465
 3702W        W70243  26.434  37.160  14.148
 3703W        W70244  11.341   2.772   1.114
 3704W        W70245   1.252  20.619   4.653
 3705W        W70246   4.697  13.360  10.767
 3706W        W70247  43.747   9.333   2.766
 3707W        W70248   8.188  40.542   1.818
 3708W        W70249   2.365  25.697  13.557
 3709W        W70250  33.550  28.802  14.420
 3710W        W70251   1.501  24.636   4.199
 3711W        W70252  18.986  12.605  13.435
 3712W        W70253  15.654  34.237   1.443
 3713W        W70254  15.729  16.226  12.131
 3714W        W70255  14.086  15.783   1.243
 3715W        W70256  28.444  26.175   2.829
 3716W        W70257  23.958  27.413   3.231
 3717W        W70258  15.631  29.910   1.677
 3718W        W70259   4.646  22.630   2.721
 3719W        W70260   3.823  39.312  14.362
 3720W        W70261  37.760  22.086  12.039
 3721W        W70262  23.134  16.560  14.491
 3722W        W70263  17.319   6.243   2.280
 3723W        W70264  26.701  27.204  12.522
 3724W        W70265  19.153  42.423   3.615
 3725W        W70266  21.314  31.063   3.826
 3726W        W70267  21.185  16.650  12.470
 3727W        W70268  19.112   5.776  14.014
 3728W        W70269  34.844  14.107  13.356
 3729W        W70270   2.345   9.303   0.740
 3730W        W70271  34.156  33.641  11.388
 3731W        W70272  22.615   0.309  12.161
 3732W        W70273  11.862  33.447   4.505
 3733W        W70274  34.584  21.684   0.396
 3734W        W70275  11.735  28.424   4.425
 3735W        W70276  26.111  36.132   0.386
 3736W        W70277   3.756   6.202  10.454
 3737W        W70278  25.746  10.346  14.987
 3738W        W70279  30.541  43.311  13.372
 3739W        W70280  37.169   3.938  12.533
 3740W        W70281  37.823  36.058   3.861
 3741W        W70282  28.721  36.304   2.125
 3742W        W70283  29.011   9.133   1.721
 3743W        W70284  33.578   8.917   4.047
 3744W        W70285  16.660   9.446  13.853
 3745W        W70286  41.358  38.120   4.397
 3746W        W70287  14.320  39.535  11.929
 3747W        W70288  23.159   4.205  13.484
 3748W        W70289   6.250  30.025   3.119
 3749W        W70290   7.924  20.473  11.972
 3750W        W70291  19.534  42.641   0.456
 3751W        W70292  44.928  19.222   4.640
 3752W        W70293  11.525  30.315   4.019
 3753W        W70294  42.532  18.964   0.279
 3754W        W70295  17.135  37.373   1.895
 3755W        W70296  29.890   7.305   4.889
 3756W        W70297  15.389  34.055  12.226
 3757W        W70298   4.494  19.159   0.478
 3758W        W70299   1.614  28.333   3.810
 3759W        W70300   8.579  15.573   1.498
 3760W        W70301  19.308  26.002   4.402
 3761W        W70302  12.725  13.922   1.380
 3762W        W70303  27.706  43.903  14.369
 3763W        W70304  40.925  13.715  13.351
 3764W        W70305  21.022   6.639   0.340
 3765W        W70306  27.553  31.334   0.845
 3766W        W70307   0.103  23.724   3.835
 3767W        W70308  30.167   1.834  11.531
 3768W        W70309  18.561  19.880  11.120
 3769W        W70310   1.197  25.612   4.816
 3770W        W70311  40.936  33.570   0.484
 3771W        W70312   0.086  30.083  13.163
 3772W        W70313  24.078  25.120   3.083
 3773W        W70314  11.735   6.796  10.684
 3774W        W70315   4.349  25.268  11.209
 3775W        W70316  37.458  44.735  12.519
 3776W        W70317  13.052  33.395  10.676
 3777W        W70318  30.800   6.983   4.878
 3778W        W70319   8.176  32.809  12.513
 3779W        W70320  30.026   8.695  13.733
 3780W        W70321  35.632   1.763  13.137
 3781W        W70322  41.001  15.362   5.526
 3782W        W70323  32.195  34.447  11.603
 3783W        W70324  30.181  19.871   3.232
 3784W        W70325  40.258  32.891   3.168
 3785W        W70326  18.976  44.107  13.220
 3786W        W70327  33.903  33.825  14.796
 3787W        W70328  44.708  27.419   4.262
 3788W        W70329  42.546  22.568  14.531
 3789W        W70330  16.746   3.097   3.739
 3790W        W70331   7.933  24.074   1.024
 3791W        W70332  41.760  24.101  13.423
 3792W        W70333  44.438  30.022  11.284
 3793W        W70334  24.615  31.169   2.316
 3794W        W70335  33.355   3.776  13.895
 3795W        W70336  24.133  15.615  12.169
 3796W        W70337  28.346  26.631  13.353
 3797W        W70338  44.010  41.868  10.941
 3798W        W70339  27.088  29.077   0.256
 3799W        W70340   4.966  22.705   1.162
 3800W        W70341  43.260  36.465   3.968
 3801W        W70342  20.599  40.485  11.117
 3802W        W70343  36.923  11.641  13.102
 3803W        W70344   3.861   6.208  12.936
 3804W        W70345   4.357   8.427  14.922
 3805W        W70346  25.391   4.563   2.690
 3806W        W70347  40.998   1.445   1.763
 3807W        W70348  28.164  26.528   2.595
 3808W        W70349  34.454  39.861  10.791
 3809W        W70350  28.844   5.288   4.193
 3810W        W70351  31.045  34.784   9.976
 3811W        W70352  43.905  36.511  11.836
 3812W        W70353   9.777  33.864   1.306
 3813W        W70354  24.657   0.734  13.587
 3814W        W70355   5.915  36.967   3.189
 3815W        W70356  14.590   3.241   3.829
 3816W        W70357  38.295  31.839   4.274
 3817W        W70358   5.262  19.258   3.525
 3818W        W70359  21.473  35.131   2.169
 3819W        W70360   5.412  27.767   5.406
 3820W        W70361  25.955  12.426  13.572
 3821W        W70362  23.766  27.631  14.421
 3822W        W70363  41.883  14.411   1.323
 3823W        W70364  32.581  33.083   2.203
 3824W        W70365  41.224  41.871   0.004
 3825W        W70366  41.496  32.647   2.320
 3826W        W70367  20.792  15.661  14.436
 3827W        W70368   5.967  18.123   0.400
 3828W        W70369  15.889  25.432   3.571
 3829W        W70370  39.341   2.876   2.378
 3830W        W70371  13.060  18.189   2.182
 3831W        W70372  25.591  24.047  13.445
 3832W        W70373  34.092  28.682  11.415
 3833W        W70374  12.751   0.293  14.991
 3834W        W70375   4.154   7.068   2.834
 3835W        W70376  40.780  37.962  12.984
 3836W        W70377   8.285  23.086  14.297
 3837W        W70378  23.259  42.012  10.718
 3838W        W70379  21.184  43.556   1.208
 3839W        W70380  36.102  40.713   1.335
 3840W        W70381   4.118  34.367  12.959
 3841W        W70382  16.227  15.230  14.363
 3842W        W70383  41.139  34.156  10.750
 3843W        W70384  13.347  12.373   1.906
 3844W        W70385  16.701   1.199   4.355
 3845W        W70386   7.203  18.299   2.270
 3846W        W70387  22.511   9.094  12.147
 3847W        W70388  43.048  22.282   0.738
 3848W        W70389  29.112  27.658  13.829
 3849W        W70390   8.142  43.100  14.385
 3850W        W70391   2.557  27.142   2.362
 3851W        W70392  21.817   7.875   1.291
 3852W        W70393  12.328   8.683  10.696
 3853W        W70394  31.141  29.895  14.867
 3854W        W70395  13.041  42.518   3.024
 3855W        W70396  35.127  13.337   0.319
 3856W        W70397  39.776  20.693  11.576
 3857W        W70398  38.906   2.686  11.665
 3858W        W70399  38.444  30.090   4.479
 3859W        W70400   8.497   3.908   4.169
 3860W        W70401  32.551   4.096   2.706
 3861W        W70402  17.669  20.069  13.399
 3862W        W70403  27.926   6.237   4.577
 3863W        W70404  11.427  44.007   3.648
 3864W        W70405   4.467  39.965   3.507
 3865W        W70406   4.779  19.215   3.297
 3866W        W70407  10.658   1.251  13.730
 3867W        W70408   6.133   5.117  13.366
 3868W        W70409   7.175  29.027  10.721
 3869W        W70410  29.532  20.934   1.834
 3870W        W70411  35.557  28.903   1.363
 3871W        W70412  24.629  43.646  11.788
 3872W        W70413  44.812  12.619  14.291
 3873W        W70414  21.171  27.445   4.214
 3874W        W70415  15.227  25.749   2.832
 3875W        W70416  13.079   8.989  14.403
 3876W        W70417   9.264  35.237  14.641
 3877W        W70418  14.759  30.981  11.557
 3878W        W70419  33.403  24.101   1.787
 3879W        W70420  17.278   3.758   0.642
 3880W        W70421  30.195  22.454  13.677
 3881W        W70422  19.580  21.319  10.246
 3882W        W70423  30.062  21.677   0.653
 3883W        W70424   0.369  11.793  12.992
 3884W        W70425  37.796  22.000   0.687
 3885W        W70426   4.900  33.237  13.981
 3886W        W70427   6.409   2.216  11.189
 3887W        W70428  18.048  10.079  10.669
 3888W        W70429   0.518  43.890  11.212
 3889W        W70430  39.094  36.720  11.032
 3890W        W70431  35.327  36.436   1.769
 3891W        W70432   5.334  24.529   0.272
 3892W        W70433  32.796  30.856   0.836
 3893W        W70434   5.212  22.667  10.210
 3894W        W70435   9.729  44.901  10.353
 3895W        W70436  14.618  21.302   1.880
 3896W        W70437  36.239   5.867  11.390
 3897W        W70438  44.483  24.594  10.678
 3898W        W70439  37.563   5.283   1.133
 3899W        W70440   0.311   2.884   4.348
 3900W        W70441  21.902  15.790   4.986
 3901W        W70442  35.336  22.831  13.831
 3902W        W70443   3.905   2.057   2.711
 3903W        W70444  19.360  34.725   3.582
 3904W        W70445  34.544  17.383   1.871
 3905W        W70446   3.044  29.921   3.072
 3906W        W70447  20.655  33.408  12.972
 3907W        W70448   5.324   4.673  11.166
 3908W        W70449  30.670   7.394  10.976
 3909W        W70450  30.415  23.114   2.134
 3910W        W70451  22.667  16.237  14.619
 3911W        W70452  14.324  22.878  13.919
 3912W        W70453  23.132  12.303  13.075
 3913W        W70454  26.499  38.165  10.795
 3914W        W70455   9.368  14.807  11.223
 3915W        W70456  21.740  42.948   4.436
 3916W        W70457  40.604   2.701  11.218
 3917W        W70458   6.325  27.476  14.601
 3918W        W70459  43.222  32.900  11.525
 3919W        W70460  26.600  18.040  12.625
 3920W        W70461  20.942   0.239  13.463
 3921W        W70462   6.942   6.566   0.385
 3922W        W70463   3.412   7.254  11.554
 3923W        W70464  13.302  12.211   4.621
 3924W        W70465  12.171  40.770   3.013
 3925W        W70466  10.332  24.765   1.419
 3926W        W70467  39.745  27.790  12.912
 3927W        W70468   7.170  20.007   3.310
 3928W        W70469  31.992  22.964   3.301
 3929W        W70470  19.992  15.304   0.827
 3930W        W70471   6.764  17.125  14.918
 3931W        W70472  11.228  26.582  13.564
 3932W        W70473  41.997  28.573   0.883
 3933W        W70474  15.137  25.584  10.699
 3934W        W70475  26.571   1.683   4.103
 3935W        W70476  42.842  12.875  13.823
 3936W        W70477  36.839  29.561  11.188
 3937W        W70478  26.226  36.251  13.554
 3938W        W70479   0.294  20.639   4.389
 3939W        W70480  12.980  33.429  12.541
 3940W        W70481  12.334  15.830  11.070
 3941W        W70482  12.763  20.954   1.004
 3942W        W70483  25.497   5.985  11.180
 3943W        W70484  31.471  13.705  12.348
 3944W        W70485  42.998   5.733   1.765
 3945W        W70486  20.456  37.533   1.679
 3946W        W70487  12.526  20.248  14.875
 3947W        W70488  36.389  23.993  13.936
 3948W        W70489  41.910  25.770  12.821
 3949W        W70490  29.590  24.792   3.105
 3950W        W70491   9.462  36.545  11.513
 3951W        W70492  12.116  38.448  10.603
 3952W        W70493  30.569  18.974   2.403
 3953W        W70494   8.685  22.503   3.623
 3954W        W70495  27.895   7.281   0.726
 3955W        W70496  44.261  14.624  11.488
 3956W        W70497  40.184  10.484   0.599
 3957W        W70498  14.375  42.691   5.151
 3958W        W70499  41.907  15.874  11.373
 3959W        W70500  20.705  44.545  13.942
 3960W        W70501  25.629  44.277   2.985
 3961W        W70502  34.463  22.243  11.262
 3962W        W70503  42.870  23.022   2.713
 3963W        W70504  41.947   0.326  14.806
 3964W        W70505  28.577  13.861  14.244
 3965W        W70506   7.198  37.612   9.877
 3966W        W70507  27.113   2.977   2.439
 3967W        W70508  26.155  43.449  10.725
 3968W        W70509  44.298  42.353   3.312
 3969W        W70510  40.304   6.905   0.290
 3970W        W70511  24.739  26.047   0.402
 3971W        W70512  26.641  33.667  10.609
 3972W        W70513  41.439   1.206   1.933
 3973W        W70514  32.931  19.038   2.085
 3974W        W70515  43.833   6.188   2.720
 3975W        W70516  28.729  44.041  14.176
 3976W        W70517  27.095  11.723   3.768
 3977W        W70518   5.790  10.683  11.065
 3978W        W70519  36.790   4.030   0.253
 3979W        W70520  37.964  20.645  11.204
 3980W        W70521  13.434   3.901   2.258
 3981W        W70522   1.802  18.794  14.409
 3982W        W70523   6.247   8.346   3.616
 3983W        W70524  37.948  31.449  11.168
 3984W        W70525  24.414  35.858  11.368
 3985W        W70526  23.602  44.887   1.614
 3986W        W70527  10.252   9.388  11.148
 3987W        W70528  16.491  23.722  13.140
 3988W        W70529  11.852  25.181  11.608
 3989W        W70530  44.462   2.990   2.989
 3990W        W70531  39.960  15.825  14.267
 3991W        W70532  23.501  38.029  10.795
 3992W        W70533  44.420   0.267   3.522
 3993W        W70534  11.712  25.732   0.676
 3994W        W70535  18.716  27.717   0.277
 3995W        W70536  24.140  36.232  12.068
 3996W        W70537  39.629  14.988  11.496
 3997W        W70538  36.967  43.923  14.989
 3998W        W70539  25.510  17.311  14.526
 3999W        W70540  24.494  25.700  13.039
 4000W        W70541  40.792  12.868   3.117
 4001W        W70542  24.108  43.980  13.597
 4002W        W70543  12.916  14.605  13.056
 4003W        W70544  18.523   7.242   3.157
 4004W        W70545   8.175  37.348  12.032
 4005W        W70546  18.325  30.642   5.609
 4006W        W70547  24.462  44.960  11.667
 4007W        W70548  25.597  17.675  11.723
 4008W        W70549  36.592  37.725  11.197
 4009W        W70550  21.737   0.421  13.857
 4010W        W70551  24.438   2.963  10.729
 4011W        W70552  16.766  29.682  12.399
 4012W        W70553  42.044  37.092   0.076
 4013W        W70554   0.244   5.840  11.403
 4014W        W70555  14.313  35.157   3.491
 4015W        W70556  36.049   5.456   1.896
 4016W        W70557   8.940   9.280  11.765
 4017W        W70558  43.375  34.385  13.457
 4018W        W70559   1.970   8.928   3.969
 4019W        W70560  13.239  41.095  12.130
 4020W        W70561  39.581  44.875  10.538
 4021W        W70562  38.053   9.506  13.992
 4022W        W70563  30.717  25.027   3.039
 4023W        W70564  44.943   3.254   4.031
 4024W        W70565  25.671   2.054   0.452
 4025W        W70566  27.186  33.120   4.090
 4026W        W70567  23.006  13.098   3.724
 4027W        W70568  26.495  34.959  11.210
 4028W        W70569   5.004  17.500  14.904
 4029W        W70570   5.913   9.624  11.081
 4030W        W70571  33.950  28.673   3.250
 4031W        W70572  24.492  33.554  14.776
 4032W        W70573  33.889  38.955   0.936
 4033W        W70574  29.517  23.444   3.668
 4034W        W70575  12.948   8.769  12.930
 4035W        W70576  22.827  24.064   0.476
 4036W        W70577  20.417  30.651  11.032
 4037W        W70578  10.928   2.762   3.986
 4038W        W70579   6.281  18.038   3.654
 4039W        W70580  35.401   1.027   1.832
 4040W        W70581  16.914  26.384  14.568
 4041W        W70582  15.479  19.079   0.831
 4042W        W70583  41.088  17.872  13.315
 4043W        W70584   6.861  42.166   2.280
 4044W        W70585  43.050  19.590  14.707
 4045W        W70586   6.892  29.959   3.664
 4046W        W70587   3.844  12.598  10.533
 4047W        W70588  19.429   9.769   0.737
 4048W        W70589   9.341  12.346   1.432
 4049W        W70590  43.234  41.328   2.965
 4050W        W70591  21.596   8.307   4.487
 4051W        W70592   7.364   7.095   3.425
 4052W        W70593  33.855  39.107  14.038
 4053W        W70594   0.946  18.035  13.500
 4054W        W70595  16.724  12.357   1.914
 4055W        W70596  13.072  13.399   1.834
 4056W        W70597  40.217  39.104  10.486
 4057W        W70598  14.674  42.056  13.018
 4058W        W70599  11.242  34.329  11.683
 4059W        W70600  38.362  17.906  10.640
 4060W        W70601  15.197  18.657   0.660
 4061W        W70602  34.338  16.339  11.921
 4062W        W70603   8.830  29.604  14.576
 4063W        W70604  36.856  21.240   1.394
 4064W        W70605   2.933  21.099  10.693
 4065W        W70606  28.681  23.116  12.381
 4066W        W70607  41.733  11.861  14.905
 4067W        W70608  44.687  25.553   1.854
 4068W        W70609  14.633   2.284  12.804
 4069W        W70610  34.490   0.228  10.436
 4070W        W70611  37.304  10.324  13.842
 4071W        W70612  38.955  12.250   3.254
 4072W        W70613  39.903  35.880   4.813
 4073W        W70614  35.419  26.450   1.289
 4074W        W70615  39.236  37.484  12.606
 4075W        W70616  11.776  24.453   4.353
 4076W        W70617   9.734  14.642   3.314
 4077W        W70618   8.698  21.984  13.034
 4078W        W70619   5.705  39.675   0.902
 4079W        W70620  35.012  19.663  12.933
 4080W        W70621   6.275   5.276   0.718
 4081W        W70622  40.654  38.152  14.943
 4082W        W70623  23.915  25.274  10.412
 4083W        W70624  36.563   7.220   2.136
 4084W        W70625  29.789  42.058  13.074
 4085W        W70626  14.113  32.259   1.247
 4086W        W70627  22.640  43.701   0.111
 4087W        W70628  38.540  26.993  14.462
 4088W        W70629   1.134   2.288   5.416
 4089W        W70630  39.429  39.959  13.937
 4090W        W70631  27.749   8.747  11.575
 4091W        W70632  16.930  44.058  12.163
 4092W        W70633  43.446  40.797  13.165
 4093W        W70634  38.051   4.686  13.111
 4094W        W70635  10.197  17.824   1.326
 4095W        W70636  29.228  31.631   2.816
 4096W        W70637  16.032  19.152  14.680
 4097W        W70638  35.046  13.087  13.514
 4098W        W70639  32.571  32.436   4.233
 4099W        W70640  13.680  41.872  11.970
 4100W        W70641  27.988  22.543  13.470
 4101W        W70642   1.092  27.508   4.160
 4102W        W70643   1.428  34.341   2.950
 4103W        W70644  25.518  14.531   3.266
 4104W        W70645   1.978  37.359  14.447
 4105W        W70646   5.374  28.703   0.975
 4106W        W70647  24.134  26.635   1.332
 4107W        W70648  10.181  23.302  11.048
 4108W        W70649   7.553  41.775  11.177
 4109W        W70650  39.723  36.524   2.815
 4110W        W70651  29.084   4.018  11.242
 4111W        W70652  35.212  17.259   4.065
 4112W        W70653  41.083  10.871   2.120
 4113W        W70654   6.924  34.568   2.652
 4114W        W70655   4.964  22.711   0.615
 4115W        W70656  40.556   4.266  13.510
 4116W        W70657   8.784  43.328   3.541
 4117W        W70658   2.707   0.404  10.645
 4118W        W70659  35.865  19.599   4.595
 4119W        W70660  34.604  37.047   3.130
 4120W        W70661  23.167   8.605  12.366
 4121W        W70662  36.772  16.159  11.796
 4122W        W70663  32.622  30.706  11.113
 4123W        W70664  24.745  25.057  14.032
 4124W        W70665  23.589   1.410  10.623
 4125W        W70666  31.052  11.609   9.783
 4126W        W70667   6.830   4.169  10.936
 4127W        W70668  30.547  42.083  12.768
 4128W        W70669  33.282  12.306  12.255
 4129W        W70670  44.460  17.795   2.436
 4130W        W70671  22.822  27.729  13.379
 4131W        W70672  26.837  12.706   0.924
 4132W        W70673  30.866  42.265  12.405
 4133W        W70674  31.501  10.859   4.187
 4134W        W70675  26.155  21.559   1.998
 4135W        W70676  11.876  32.447   4.584
 4136W        W70677  22.018  38.620   3.277
 4137W        W70678  14.867  43.963  12.964
 4138W        W70679  24.274  27.964  14.258
 4139W        W70680  43.403   9.673  11.424
 4140W        W70681  39.756  44.281  14.279
 4141W        W70682  35.281  22.562   5.070
 4142W        W70683  19.749   8.657   1.901
 4143W        W70684   2.350  23.401  14.864
 4144W        W70685   8.076  21.447  11.799
 4145W        W70686  15.578  17.156  12.023
 4146W        W70687   7.803  18.052  14.575
 4147W        W70688  18.021  15.728  12.348
 4148W        W70689  33.009   5.336  14.892
 4149W        W70690  16.762   6.949  12.516
 4150W        W70691  20.475  35.858  13.381
 4151W        W70692  26.392  37.532  12.466
 4152W        W70693  39.458  31.541   3.540
 4153W        W70694   2.456  10.243  10.108
 4154W        W70695  33.515  30.068   2.889
 4155W        W70696  44.604  23.668   3.679
 4156W        W70697  26.335  26.640   2.836
 4157W        W70698  18.966  27.152   3.839
 4158W        W70699  27.556  23.206  13.535
 4159W        W70700  31.430  16.553  11.476
 4160W        W70701  38.551  17.047  11.154
 4161W        W70702  25.699  23.946   3.292
 4162W        W70703  37.452  12.288  14.513
 4163W        W70704  27.652  21.392   3.142
 4164W        W70705  36.797  39.784   2.247
 4165W        W70706  23.357  18.541   4.125
 4166W        W70707  33.824   8.883   4.786
 4167W        W70708  19.283  14.836   4.473
 4168W        W70709  39.077  20.623   0.838
 4169W        W70710   5.367  35.934   4.136
 4170W        W70711  29.840  35.437   4.413
 4171W        W70712   2.563   3.903  13.290
 4172W        W70713  21.669  25.011  13.093
 4173W        W70714  18.524  37.984  13.333
 4174W        W70715  10.283  32.649   4.532
 4175W        W70716  36.454  42.443  12.969
 4176W        W70717  37.481  21.004  11.081
 4177W        W70718  25.471  31.909  11.133
 4178W        W70719   7.346   2.832   2.343
 4179W        W70720  25.249   2.384  10.674
 4180W        W70721  37.333   4.284  14.296
 4181W        W70722   3.012   6.092  14.946
 4182W        W70723  30.653  33.005   0.495
 4183W        W70724  12.101  35.078   4.121
 4184W        W70725   4.420   4.213  11.543
 4185W        W70726  38.324  29.864   2.846
 4186W        W70727  23.961  39.791   3.482
 4187W        W70728  33.111  36.547  12.005
 4188W        W70729   3.513  28.702   0.776
 4189W        W70730  11.714  43.087   2.758
 4190W        W70731  17.365  25.604   4.344
 4191W        W70732  36.952  15.774  10.515
 4192W        W70733  38.005   4.153   2.665
 4193W        W70734  24.039  36.867   0.502
 4194W        W70735   0.353  16.196  13.908
 4195W        W70736  44.791  30.957  11.517
 4196W        W70737  21.839  24.273   4.942
 4197W        W70738   0.250  43.386   3.724
 4198W        W70739   0.017  21.507  12.320
 4199W        W70740  22.717   4.264  14.836
 4200W        W70741  14.197  17.807   1.342
 4201W        W70742  19.347  25.130   1.611
 4202W        W70743  41.623  24.456   4.403
 4203W        W70744  34.268  21.553  10.793
 4204W        W70745  41.082  42.416  11.567
 4205W        W70746  19.976  39.418  13.094
 4206W        W70747   0.023   3.768   3.137
 4207W        W70748   3.293  27.534  12.075
 4208W        W70749   2.751  29.636   3.374
 4209W        W70750   7.020  23.090  12.033
 4210W        W70751   3.005  30.609  12.454
 4211W        W70752  26.570  26.693   2.364
 4212W        W70753   6.212  35.560  11.101
 4213W        W70754  42.050   4.812   0.711
 4214W        W70755  44.707  38.367   0.290
 4215W        W70756  28.026  10.662  13.250
 4216W        W70757  39.122   5.437   2.295
 4217W        W70758  24.914  42.014   2.849
 4218W        W70759  41.738  36.938   0.473
 4219W        W70760  17.462   3.835   2.686
 4220W        W70761  11.685  18.247  14.709
 4221W        W70762  16.522  22.032  11.222
 4222W        W70763  21.712   3.391  11.304
 4223W        W70764  42.418  22.581   3.371
 4224W        W70765  36.996  44.278   2.930
 4225W        W70766   2.864  27.486   4.193
 4226W        W70767  25.999   8.762   1.208
 4227W        W70768  30.991   5.868   3.367
 4228W        W70769  44.468   8.376  14.800
 4229W        W70770  10.854   5.435  12.073
 4230W        W70771  36.827  36.715  12.581
 4231W        W70772  16.223  30.555   2.648
 4232W        W70773   4.159  16.759   2.591
 4233W        W70774  32.979  33.112  12.078
 4234W        W70775  16.107  22.707   3.357
 4235W        W70776  34.901  37.022  10.715
 4236W        W70777  36.139  34.494   4.329
 4237W        W70778   0.880  27.195  12.703
 4238W        W70779   6.973  42.050   1.750
 4239W        W70780  42.533  22.631   4.472
 4240W        W70781  10.933  27.255   0.279
 4241W        W70782  30.610  15.642  14.265
 4242W        W70783   8.884  23.522  11.495
 4243W        W70784  37.601  14.910  11.182
 4244W        W70785  27.709   1.295   4.160
 4245W        W70786  38.385   0.502   2.772
 4246W        W70787  13.714  16.481   3.223
 4247W        W70788  22.525   2.222   1.471
 4248W        W70789  11.126  24.073  14.293
 4249W        W70790   9.247  33.854   0.416
 4250W        W70791   6.706   2.864  11.999
 4251W        W70792  44.430  40.015   0.583
 4252W        W70793  33.875  43.936   0.230
 4253W        W70794   8.261  34.603   2.395
 4254W        W70795  37.959  23.550  10.829
 4255W        W70796  39.518   6.833  12.021
 4256W        W70797  28.403  44.800  14.005
 4257W        W70798  14.663  42.525   0.387
 4258W        W70799  21.607  22.001  13.486
 4259W        W70800  29.565   6.859   3.644
 4260W        W70801  11.431  23.642   4.116
 4261W        W70802  15.170   6.353  13.254
 4262W        W70803  22.092  19.361  13.360
 4263W        W70804   2.033  39.462   4.675
 4264W        W70805  14.373  31.364   1.750
 4265W        W70806  26.591  30.752  14.035
 4266W        W70807  20.062   7.889  13.204
 4267W        W70808  23.038  17.753  13.895
 4268W        W70809  36.143  33.999  11.295
 4269W        W70810   0.988  35.254   0.255
 4270W        W70811  41.468  13.789   1.681
 4271W        W70812  31.785  33.898   0.184
 4272W        W70813   5.950  14.874   4.465
 4273W        W70814  13.677  43.476  11.202
 4274W        W70815  33.346  11.605  13.552
 4275W        W70816  17.069   2.455   1.790
 4276W        W70817  37.556  24.936   5.170
 4277W        W70818   5.915  29.634  12.890
 4278W        W70819  40.313   2.463   4.499
 4279W        W70820  40.002  42.392  13.447
 4280W        W70821  33.690   7.409   3.179
 4281W        W70822  32.533  43.217   0.040
 4282W        W70823  11.624   3.968  12.127
 4283W        W70824  31.333  16.731  11.942
 4284W        W70825  35.516  31.749   1.443
 4285W        W70826  13.133  19.695  13.521
 4286W        W70827   7.793   5.773   0.543
 4287W        W70828  27.596  13.841  10.500
 4288W        W70829  32.662  40.919   4.514
 4289W        W70830  25.241   8.489  12.535
 4290W        W70831  25.788  19.294  11.525
 4291W        W70832  33.883  28.572   4.167
 4292W        W70833  27.613  35.871  12.696
 4293W        W70834  14.628  13.141  12.674
 4294W        W70835  19.623  40.225  12.594
 4295W        W70836  36.273  17.242   3.686
 4296W        W70837  22.678   4.229   1.303
 4297W        W70838   6.220  41.430  12.433
 4298W        W70839  38.064  41.167  12.037
 4299W        W70840  40.073  16.144  11.082
 4300W        W70841  15.845  20.619  13.729
 4301W        W70842  10.455   5.946   2.582
 4302W        W70843  28.595  39.997  13.808
 4303W        W70844  37.302  38.562   0.893
 4304W        W70845   8.322  41.626  10.739
 4305W        W70846  42.797   3.452   4.162
 4306W        W70847  19.989  35.046   4.154
 4307W        W70848  34.631  30.768   0.415
 4308W        W70849   1.735   9.974  14.955
 4309W        W70850  25.491  43.343   2.866
 4310W        W70851  23.200  37.951   3.381
 4311W        W70852  31.590  27.497  10.692
 4312W        W70853   9.511   4.553  10.441
 4313W        W70854   8.092  34.328  10.370
 4314W        W70855  18.345  26.118   2.950
 4315W        W70856  41.700  37.481   3.847
 4316W        W70857  40.854  30.148   2.806
 4317W        W70858   8.743   7.762   0.874
 4318W        W70859  31.070  25.040  14.740
 4319W        W70860  32.392   0.409   0.757
 4320W        W70861  13.903   6.256  12.878
 4321W        W70862   0.599  27.893  12.003
 4322W        W70863  16.600  33.259  13.069
 4323W        W70864  20.514  22.944   2.349
 4324W        W70865  33.476  37.198   1.269
 4325W        W70866   2.962  40.307  12.867
 4326W        W70867  22.601  15.246   3.427
 4327W        W70868  11.186  30.083  11.875
 4328W        W70869  37.819   9.244   0.793
 4329W        W70870  40.396  16.804   5.002
 4330W        W70871  38.028  31.178   0.901
 4331W        W70872  25.456  28.574   3.176
 4332W        W70873  28.235  34.072   1.306
 4333W        W70874  42.912  37.124   1.721
 4334W        W70875  16.972  23.339   2.212
 4335W        W70876  28.851  26.337   0.299
 4336W        W70877  20.597  32.998   0.348
 4337W        W70878  10.135  35.853   2.881
 4338W        W70879  11.202  25.146   0.460
 4339W        W70880  13.731  29.464  11.617
 4340W        W70881  42.328  11.640   3.539
 4341W        W70882  16.614  35.337  12.843
 4342W        W70883  28.192  24.475   3.601
 4343W        W70884   5.735  28.915   3.118
 4344W        W70885  12.477  29.582  10.272
 4345W        W70886   4.464   8.743  11.005
 4346W        W70887  39.056  17.057   1.329
 4347W        W70888  30.997  24.304  12.522
 4348W        W70889  32.675  29.523   2.291
 4349W        W70890  39.916  14.952   2.368
 4350W        W70891   8.229  41.123  10.754
 4351W        W70892   0.561  33.147   2.230
 4352W        W70893   2.928   3.848   3.218
 4353W        W70894  36.624  34.889  11.160
 4354W        W70895   3.288  12.712  14.899
 4355W        W70896  12.070   6.819   3.209
 4356W        W70897  13.064  14.286  11.632
 4357W        W70898   4.870  22.264   3.681
 4358W        W70899  10.129  29.776   1.037
 4359W        W70900  33.977   9.184   4.396
 4360W        W70901  20.504   7.289  14.930
 4361W        W70902   0.598   7.841   4.575
 4362W        W70903  20.108  30.195  14.076
 4363W        W70904   7.896  21.641   2.868
 4364W        W70905  38.105  27.490  10.973
 4365W        W70906   4.770  25.006  14.427
 4366W        W70907  19.565   3.369   4.646
 4367W        W70908  18.456  29.627   0.363
 4368W        W70909   4.355   4.806  10.124
 4369W        W70910  38.244  20.753  10.786
 4370W        W70911   8.712  20.802   3.020
 4371W        W70912  17.667  15.015   5.356
 4372W        W70913   0.804   3.853   1.249
 4373W        W70914  43.371  31.178  13.810
 4374W        W70915  32.929   3.962  11.600
 4375W        W70916  10.967  42.969   0.412
 4376W        W70917  25.166   9.728   0.391
 4377W        W70918  35.575   2.559   1.373
 4378W        W70919  39.486  31.134  11.608
 4379W        W70920  17.954  38.643   1.678
 4380W        W70921  35.017   7.600   3.257
 4381W        W70922  36.683   5.267   4.070
 4382W        W70923  19.530  16.283  14.867
 4383W        W70924  23.783  35.756   4.201
 4384W        W70925   7.714  17.545   1.748
 4385W        W70926  39.013  33.163  14.525
 4386W        W70927  25.975  14.014   4.160
 4387W        W70928  40.637   3.728   0.929
 4388W        W70929  28.299  26.130  14.546
 4389W        W70930   1.722  44.216  14.374
 4390W        W70931  28.183  12.169   0.334
 4391W        W70932  34.634  26.637  13.903
 4392W        W70933  11.897  20.771   3.249
 4393W        W70934   3.288   7.887  13.942
 4394W        W70935   8.876  24.205   1.885
 4395W        W70936   2.916   2.797   3.155
 4396W        W70937  42.001   3.676  14.388
 4397W        W70938  18.525  16.751   2.956
 4398W        W70939  24.827   1.877   2.178
 4399W        W70940   6.495  34.453  13.325
 4400W        W70941  33.177  14.694   0.507
 4401W        W70942  32.397  33.289  12.504
 4402W        W70943  44.341   9.430  13.905
 4403W        W70944   8.973  13.154   3.510
 4404W        W70945   9.921   3.817   1.377
 4405W        W70946  32.212   1.874   0.004
 4406W        W70947   4.285  19.237  14.608
 4407W        W70948  30.691  43.834  14.484
 4408W        W70949   4.510   0.239  12.671
 4409W        W70950   6.625  42.337  12.402
 4410W        W70951  24.481  34.369  10.450
 4411W        W70952  44.685  28.393   2.725
 4412W        W70953   5.856   8.295   4.438
 4413W        W70954   0.878   1.256   4.535
 4414W        W70955   0.759  42.172   4.175
 4415W        W70956  35.391  40.594   2.868
 4416W        W70957  16.679  34.584  13.318
 4417W        W70958  10.085  34.182  11.633
 4418W        W70959  17.735  12.763   3.403
 4419W        W70960  26.419  20.936   3.040
 4420W        W70961  30.868  19.760   0.773
 4421W        W70962  35.118  37.353   2.423
 4422W        W70963  29.797  38.328   4.117
 4423W        W70964   4.677   0.164  14.036
 4424W        W70965  43.102  11.848  12.853
 4425W        W70966  38.278  21.745  11.662
 4426W        W70967  16.627  43.759  12.489
 4427W        W70968  22.033  33.684   2.463
 4428W        W70969   9.637  33.529  11.919
 4429W        W70970   4.545  26.255  11.166
 4430W        W70971  10.862  32.874   2.382
 4431W        W70972  28.576  39.761  12.947
 4432W        W70973  18.352  24.317   1.135
 4433W        W70974  43.891  41.521  12.148
 4434W        W70975  20.839  36.938   2.697
 4435W        W70976  11.221  38.401   3.704
 4436W        W70977   0.941  40.402  12.486
 4437W        W70978  11.067  23.258   3.390
 4438W        W70979  44.686  15.698  14.331
 4439W        W70980   1.263  44.967  12.465
 4440W        W70981  16.566  34.034  14.683
 4441W        W70982  36.650  29.942   1.383
 4442W        W70983  35.438  25.126   1.012
 4443W        W70984  44.126  34.164  11.142
 4444W        W70985  37.213   5.335  12.685
 4445W        W70986  40.933  25.377  11.482
 4446W        W70987   5.453  21.010   3.675
 4447W        W70988  22.203  13.335  14.979
 4448W        W70989   6.410   0.939   4.235
 4449W        W70990  23.532   7.589  10.650
 4450W        W70991   1.268  29.987   5.028
 4451W        W70992  31.902  18.998   4.391
 4452W        W70993  19.615  18.088  13.481
 4453W        W70994  19.036  36.116   1.741
 4454W        W70995  19.450   2.715   1.888
 4455W        W70996  18.030  10.182   0.922
 4456W        W70997   7.000  27.143  14.015
 4457W        W70998  25.632  10.678   4.129
 4458W        W70999   2.389   7.288   3.576
 4459W        W71000   4.007   6.763  14.164
 4460W        W71001  14.681  18.754   0.699
 4461W        W71002  29.399  40.893  10.652
 4462W        W71003   8.274  26.413   1.394
 4463W        W71004   4.899  10.764  10.850
 4464W        W71005  15.331  14.019  14.346
 4465W        W71006  33.023   8.140  13.337
 4466W        W71007  27.842  27.515  14.795
 4467W        W71008  20.077   0.766  12.199
 4468W        W71009  25.008  18.001  13.905
 4469W        W71010  12.817   5.762  13.473
 4470W        W71011   2.006   9.913   4.440
 4471W        W71012   8.578  14.662  14.271
 4472W        W71013   5.955   4.335  14.354
 4473W        W71014  37.260  16.278   3.796
 4474W        W71015  41.488   1.963   1.430
 4475W        W71016  32.878  32.620   4.622
 4476W        W71017   7.072  13.337  13.412
 4477W        W71018  26.400   3.401   4.660
 4478W        W71019  13.582   6.866  12.431
 4479W        W71020  28.561  31.621   0.935
 4480W        W71021  25.437  21.823  13.186
 4481W        W71022  14.482   5.317   3.246
 4482W        W71023  17.746  13.678  11.206
 4483W        W71024  22.023   5.468   1.371
 4484W        W71025   0.877  30.085   0.323
 4485W        W71026  28.798   1.168  12.629
 4486W        W71027   3.310  40.056  13.855
 4487W        W71028  12.306  18.786   0.099
 4488W        W71029  30.655  31.588  10.404
 4489W        W71030   1.194  19.280   1.677
 4490W        W71031  13.009  22.173   0.058
 4491W        W71032  13.976  41.285   2.862
 4492W        W71033  24.018  36.780  13.904
 4493W        W71034  42.921  39.083   0.716
 4494W        W71035  15.660  25.456   2.804
 4495W        W71036   4.513  13.012  14.432
 4496W        W71037  20.619  39.302   2.954
 4497W        W71038  43.733  31.969   3.071
 4498W        W71039   3.273  23.151   1.988
 4499W        W71040   9.527   7.437  11.477
 4500W        W71041  11.033   2.291   4.202
 4501W        W71042  33.285  29.364   5.023
 4502W        W71043  29.951  28.321   0.844
 4503W        W71044   4.222   8.976   4.276
 4504W        W71045  31.610   3.395  12.457
 4505W        W71046  20.845  36.078  14.882
 4506W        W71047  30.114  41.332  12.845
 4507W        W71048  30.001  23.977   2.290
 4508W        W71049  18.994  33.931  10.458
 4509W        W71050  16.528  16.705  12.058
 4510W        W71051   4.630  10.301  10.846
 4511W        W71052  39.883  18.036  11.145
 4512W        W71053  23.500  36.162   4.393
 4513W        W71054  21.068  26.636  12.783
 4514W        W71055   1.247  27.610   2.378
 4515W        W71056  15.059  17.950   4.106
 4516W        W71057   1.960  42.889  13.069
 4517W        W71058  35.382  35.110  10.602
 4518W        W71059  18.809  35.759  12.088
 4519W        W71060  11.979  22.410  10.228
 4520W        W71061  37.144  31.585  12.456
 4521W        W71062  24.465  19.874   1.506
 4522W        W71063   9.235  42.571  12.437
 4523W        W71064   7.892  28.113   4.138
 4524W        W71065   2.780   8.720  14.543
 4525W        W71066  32.290  39.012  13.977
 4526W        W71067   3.695   5.080  12.988
 4527W        W71068  15.426  32.710   4.863
 4528W        W71069   0.261  21.958  12.435
 4529W        W71070  25.247   8.247  12.052
 4530W        W71071  43.332   2.015   4.584
 4531W        W71072   7.320  22.100   4.440
 4532W        W71073  21.587  42.805  14.308
 4533W        W71074   6.938   3.300  14.413
 4534W        W71075   6.760  21.362   3.680
 4535W        W71076   7.433  33.174   2.096
 4536W        W71077  28.902  10.877  10.669
 4537W        W71078  20.730  10.823   3.286
 4538W        W71079  31.607  16.688  14.262
 4539W        W71080  40.919  30.692   3.246
 4540W        W71081   8.715  18.286   2.312
 4541W        W71082  44.320  27.452   2.998
 4542W        W71083  16.186  34.180   3.645
 4543W        W71084   8.370  10.236   1.187
 4544W        W71085   4.642  41.503  14.765
 4545W        W71086  24.127  37.025  11.217
 4546W        W71087  25.466  42.987  13.400
 4547W        W71088  43.431  15.718   9.646
 4548W        W71089  41.642  20.883   1.225
 4549W        W71090   5.186  38.845  13.486
 4550W        W71091   7.791  26.525  11.001
 4551W        W71092  30.031  37.174  10.634
 4552W        W71093  29.067  20.524  14.803
 4553W        W71094  25.570  40.876   2.870
 4554W        W71095  39.934  28.441   3.668
 4555W        W71096   2.508  38.399   4.166
 4556W        W71097  34.566  33.542   4.402
 4557W        W71098  15.111  27.742  13.337
 4558W        W71099  27.127  22.051  12.918
 4559W        W71100  10.872  33.893   0.417
 4560W        W71101  28.029  27.461   2.235
 4561W        W71102  38.300  25.639   4.039
 4562W        W71103  34.586   9.163  14.264
 4563W        W71104  13.084  32.185   2.432
 4564W        W71105  24.077  33.107  10.345
 4565W        W71106  35.571  30.208  11.200
 4566W        W71107  31.895  25.089  10.685
 4567W        W71108  26.400  20.750  12.162
 4568W        W71109   4.094   5.200   3.336
 4569W        W71110   7.183  23.667   0.466
 4570W        W71111  43.981  16.771  12.900
 4571W        W71112  38.593   6.373  13.305
 4572W        W71113  18.732  10.519   5.160
 4573W        W71114  13.707   2.483  14.054
 4574W        W71115   6.753  42.167   2.798
 4575W        W71116  26.463  40.046  12.944
 4576W        W71117  29.207  32.511  13.519
 4577W        W71118  13.123  20.247   1.349
 4578W        W71119  32.286   6.356   5.024
 4579W        W71120  43.210  12.159  14.825
 4580W        W71121  38.432  20.945  11.229
 4581W        W71122  41.251  18.791  12.632
 4582W        W71123  28.107  20.791   4.228
 4583W        W71124  25.313  22.171   3.403
 4584W        W71125   2.395  42.878  12.788
 4585W        W71126  30.216  16.780  10.429
 4586W        W71127  15.711  23.088   1.660
 4587W        W71128   4.638   4.771  13.033
 4588W        W71129  34.530  10.768   2.595
 4589W        W71130  20.812  22.596  12.382
 4590W        W71131  12.265  36.447  13.469
 4591W        W71132  15.703  44.409   4.722
 4592W        W71133   0.744  42.449   3.729
 4593W        W71134  12.204  37.273  13.901
 4594W        W71135   6.148   4.136  11.065
 4595W        W71136  16.789  37.464   4.608
 4596W        W71137   9.966   0.456  13.434
 4597W        W71138  44.038  42.652  14.850
 4598W        W71139   0.953  21.783   1.965
 4599W        W71140  14.084  19.122  10.696
 4600W        W71141  16.910  37.354  14.965
 4601W        W71142   2.947   5.339  10.511
 4602W        W71143  26.717  18.016  12.112
 4603W        W71144  27.219   2.184   4.618
 4604W        W71145  36.829   4.238  13.501
 4605W        W71146  24.727  42.292  12.019
 4606W        W71147  27.869   6.865   0.280
 4607W        W71148  26.058  43.108  12.059
 4608W        W71149  37.215  19.679  12.581
 4609W        W71150   6.126  33.834  11.568
 4610W        W71151  11.166  15.525   2.151
 4611W        W71152  16.744  33.106   2.631
 4612W        W71153   1.607   1.839   9.849
 4613W        W71154  42.357   3.877  14.706
 4614W        W71155  21.988  40.489  11.954
 4615W        W71156  20.540   2.693  13.032
 4616W        W71157  42.272   6.331   0.062
 4617W        W71158   6.064  34.140  11.068
 4618W        W71159  14.823   8.105  13.038
 4619W        W71160  10.719  23.968  12.914
 4620W        W71161  40.788  37.528  14.284
 4621W        W71162  16.843   2.833  11.692
 4622W        W71163  12.332   5.759  11.626
 4623W        W71164   8.643  27.579  12.353
 4624W        W71165  40.550  35.983   1.750
 4625W        W71166  42.003  19.675  10.767
 4626W        W71167  18.565  41.792   2.298
 4627W        W71168   5.495  44.808   2.247
 4628W        W71169   7.903  38.007  12.718
 4629W        W71170   8.824  23.036   2.603
 4630W        W71171  37.792  41.356   2.250
 4631W        W71172   8.787  12.945   2.946
 4632W        W71173  35.757  15.249   0.364
 4633W        W71174  40.313   2.244  10.456
 4634W        W71175  39.569  14.560   2.339
 4635W        W71176  30.234  12.799   1.269
 4636W        W71177  14.366  32.155   0.796
 4637W        W71178  14.532   1.783  12.945
 4638W        W71179  20.899   3.213  14.030
 4639W        W71180  32.378  35.548  13.142
 4640W        W71181  40.253  20.267   4.508
 4641W        W71182  11.202   0.217  11.616
 4642W        W71183  34.016  20.101  11.889
 4643W        W71184  34.748   9.948   3.634
 4644W        W71185   0.459  25.572   3.881
 4645W        W71186  35.155  12.272  14.650
 4646W        W71187   7.304   7.641   4.402
 4647W        W71188  40.207  44.007  14.861
 4648W        W71189  20.768  11.256  14.728
 4649W        W71190  35.416  34.148   4.667
 4650W        W71191  12.298  30.336   1.792
 4651W        W71192  13.681   5.767   4.837
 4652W        W71193   6.973  29.572  12.881
 4653W        W71194  35.467  28.958  13.619
 4654W        W71195  40.778   2.295  13.535
 4655W        W71196   2.561  30.338   4.529
 4656W        W71197  36.167   2.970   2.505
 4657W        W71198  20.833  12.749  13.002
 4658W        W71199   1.599  20.450   4.166
 4659W        W71200  25.604  22.897  10.614
 4660W        W71201   6.455  12.843  10.699
 4661W        W71202  18.575  20.720   4.309
 4662W        W71203   0.879  19.330   3.713
 4663W        W71204  27.136  11.629  13.706
 4664W        W71205  27.644  43.051   3.217
 4665W        W71206  26.369  30.143  12.214
 4666W        W71207  18.638  12.442  14.926
 4667W        W71208  28.564  27.027  10.613
 4668W        W71209  22.260  22.796   2.349
 4669W        W71210  11.593  38.288  14.795
 4670W        W71211   5.894  17.513   2.413
 4671W        W71212  32.670  12.136   3.528
 4672W        W71213  28.616  38.287   3.060
 4673W        W71214  18.400  22.244   2.404
 4674W        W71215  42.934  13.643   1.941
 4675W        W71216   5.819   4.394   1.473
 4676W        W71217  11.467  23.302   0.881
 4677W        W71218   4.131  43.351   2.495
 4678W        W71219  36.557  44.643   2.857
 4679W        W71220  28.149  10.617  12.457
 4680W        W71221  39.743  38.828   1.682
 4681W        W71222   9.657   9.229   3.520
 4682W        W71223   5.171  42.338   0.878
 4683W        W71224   9.639  38.322   1.830
 4684W        W71225  26.979  37.909   2.330
 4685W        W71226  35.984   3.840   0.143
 4686W        W71227  42.698  44.540   5.290
 4687W        W71228  39.403  22.151  10.409
 4688W        W71229  23.078  15.614  12.213
 4689W        W71230  43.373  13.338   0.205
 4690W        W71231  17.306  35.616   3.236
 4691W        W71232  11.478  36.701   2.335
 4692W        W71233  11.877  10.580  10.498
 4693W        W71234   3.268  36.079  13.404
 4694W        W71235  11.280   2.882  12.350
 4695W        W71236   6.505  19.230  14.500
 4696W        W71237  29.366  44.778   1.315
 4697W        W71238  30.627   5.945   1.862
 4698W        W71239   8.715  33.919  14.946
 4699W        W71240  13.294  22.527   2.876
 4700W        W71241  44.402  31.834  11.621
 4701W        W71242  12.143  37.402   4.984
 4702W        W71243   5.206  33.575   2.213
 4703W        W71244  14.640  31.952   0.388
 4704W        W71245  40.354  11.063  13.470
 4705W        W71246  13.616   8.220  12.449
 4706W        W71247  24.128  27.602  12.131
 4707W        W71248  39.034  21.647  12.937
 4708W        W71249  36.541  13.415   2.826
 4709W        W71250  27.734  12.329   2.667
 4710W        W71251   4.393  13.052   3.431
 4711W        W71252  28.196  25.967  10.270
 4712W        W71253  24.570  38.617  13.860
 4713W        W71254   3.421  20.757   1.327
 4714W        W71255  19.683   6.968   2.326
 4715W        W71256  42.231  43.326  12.509
 4716W        W71257  25.330   5.868   4.059
 4717W        W71258  32.723  44.427   3.870
 4718W        W71259   7.801  44.206   5.056
 4719W        W71260  28.960  14.692  14.284
 4720W        W71261   8.349  19.580  13.933
 4721W        W71262   3.241  32.469   3.527
 4722W        W71263  14.636  44.118   1.326
 4723W        W71264  30.265  18.208   2.727
 4724W        W71265  13.317  38.534   5.008
 4725W        W71266  17.144  38.242  10.149
 4726W        W71267  10.140  27.997  14.489
 4727W        W71268  22.247  17.608   3.706
 4728W        W71269  37.394  32.179   1.222
 4729W        W71270   9.619  18.747  10.600
 4730W        W71271  40.006  26.543  14.136
 4731W        W71272  19.336  10.066  13.436
 4732W        W71273  21.637  15.520   2.264
 4733W        W71274  34.881  13.827   4.777
 4734W        W71275  34.519  42.567  10.804
 4735W        W71276  18.841  23.657   4.112
 4736W        W71277   6.247  35.623   1.084
 4737W        W71278  36.130  31.517  10.608
 4738W        W71279  27.063  27.437   1.983
 4739W        W71280  41.105  30.923  11.856
 4740W        W71281  32.897  42.800   0.352
 4741W        W71282  19.614  30.035  11.756
 4742W        W71283  38.128  24.161  11.651
 4743W        W71284   6.376  12.174  11.148
 4744W        W71285  12.395   9.410   2.213
 4745W        W71286  10.305  11.404   2.529
 4746W        W71287  31.051  35.094   2.683
 4747W        W71288  25.571   1.274  10.712
 4748W        W71289  38.691  24.787   2.833
 4749W        W71290  18.025  19.857  11.188
 4750W        W71291   3.506   9.017   5.027
 4751W        W71292  31.173  16.122   0.422
 4752W        W71293  23.500  37.959  13.988
 4753W        W71294  15.718  39.471   1.491
 4754W        W71295  19.288  18.188   4.394
 4755W        W71296  37.266  41.905   4.618
 4756W        W71297   4.260  12.761   1.372
 4757W        W71298  26.585  12.907  14.037
 4758W        W71299  12.624   4.518  12.537
 4759W        W71300   1.856  25.245  10.731
 4760W        W71301  31.934  10.752   4.768
 4761W        W71302   7.895  20.519  11.103
 4762W        W71303   8.411  35.640  13.774
 4763W        W71304  20.085   1.764  10.765
 4764W        W71305  30.452  36.064  14.935
 4765W        W71306  44.304  38.402  14.970
 4766W        W71307   2.158  20.080   0.347
 4767W        W71308  17.274  36.382  11.566
 4768W        W71309   7.808  32.402   2.207
 4769W        W71310  14.033  22.593  13.622
 4770W        W71311  19.074  30.510  14.312
 4771W        W71312  19.700  23.443   3.378
 4772W        W71313  16.638  15.079  11.532
 4773W        W71314   2.404  33.466   9.847
 4774W        W71315  23.962  14.363   4.764
 4775W        W71316   0.509  24.436   3.187
 4776W        W71317  36.633   3.858  13.825
 4777W        W71318  41.106  43.743   1.466
 4778W        W71319  23.482  21.164  14.010
 4779W        W71320  23.556   4.708  12.944
 4780W        W71321  44.418  34.937  10.731
 4781W        W71322  20.589  13.322   4.117
 4782W        W71323   7.748  19.583  14.748
 4783W        W71324  38.982  19.533  12.821
 4784W        W71325  35.006  14.760   0.267
 4785W        W71326  27.933  42.955   0.404
 4786W        W71327  40.944   3.849  14.446
 4787W        W71328   2.767   7.667   3.292
 4788W        W71329  26.115  28.002   4.283
 4789W        W71330  35.066   8.101  11.939
 4790W        W71331  34.957  40.351   3.624
 4791W        W71332  16.092  39.444   2.354
 4792W        W71333  18.495  40.137  11.589
 4793W        W71334   8.785  12.405   1.625
 4794W        W71335  30.727  40.227  12.526
 4795W        W71336   4.941  30.950  10.254
 4796W        W71337  41.955  28.044  14.266
 4797W        W71338   2.949  38.570   4.950
 4798W        W71339  10.358  11.709  12.267
 4799W        W71340  37.527  39.785   2.896
 4800W        W71341  11.532  33.978  14.848
 4801W        W71342  15.420   2.433   0.825
 4802W        W71343  15.331  36.419  14.391
 4803W        W71344  29.450  32.681   3.635
 4804W        W71345  24.211  32.525   3.191
 4805W        W71346   8.013  17.147   5.079
 4806W        W71347   6.723   5.290   3.393
 4807W        W71348  22.013  25.698   0.416
 4808W        W71349  31.940  26.080  13.100
 4809W        W71350   4.024  22.082   2.493
 4810W        W71351  43.476  17.221  14.854
 4811W        W71352  44.504  19.766  14.263
 4812W        W71353  25.178  36.247  12.335
 4813W        W71354  19.003  35.192   4.086
 4814W        W71355  15.863  27.525   1.319
 4815W        W71356  43.916   1.210   2.196
 4816W        W71357   5.974  36.043   3.469
 4817W        W71358  29.721   3.118  10.385
 4818W        W71359  20.071  41.611  10.770
 4819W        W71360  32.566   0.012  14.377
 4820W        W71361  39.800  20.801  13.552
 4821W        W71362   1.914  33.071   2.689
 4822W        W71363  27.279  29.478  11.761
 4823W        W71364   2.995  17.638   1.290
 4824W        W71365  41.813  29.462   0.909
 4825W        W71366  40.261  39.690   1.860
 4826W        W71367  37.774  40.459  13.317
 4827W        W71368  44.080  42.250  11.535
 4828W        W71369   7.323  33.478   0.184
 4829W        W71370   9.464  14.610  12.670
 4830W        W71371  14.870   6.641   0.123
 4831W        W71372   6.164   5.271  14.633
 4832W        W71373  12.588  10.217   3.393
 4833W        W71374  16.674  38.252   3.762
 4834W        W71375  33.828   0.035  13.109
 4835W        W71376  24.511  26.988   3.842
 4836W        W71377  42.489  36.951   0.960
 4837W        W71378  22.630  27.455   1.472
 4838W        W71379  10.376  32.364   2.508
 4839W        W71380  19.722  42.828  12.938
 4840W        W71381  15.398  30.038  14.253
 4841W        W71382   4.780  37.642  12.942
 4842W        W71383  14.060   4.259  12.091
 4843W        W71384  32.652  20.239  12.007
 4844W        W71385   5.818  21.048   3.314
 4845W        W71386  14.135  41.078  14.803
 4846W        W71387   2.273   6.991  13.558
 4847W        W71388  16.077  23.966  11.093
 4848W        W71389  42.218  12.503   2.159
 4849W        W71390  42.026   1.427  14.029
 4850W        W71391  13.391  17.485   2.275
 4851W        W71392   0.232  11.248  11.433
 4852W        W71393  29.163   9.552   3.181
 4853W        W71394   9.593  33.131   4.538
 4854W        W71395  14.486  26.529  10.164
 4855W        W71396   1.756  35.791   4.218
 4856W        W71397   1.983  44.611   4.697
 4857W        W71398  41.747  28.101  11.591
 4858W        W71399  20.559  18.367  12.396
 4859W        W71400  41.983  38.992   2.679
 4860W        W71401  10.733  24.677   4.063
 4861W        W71402  16.441  32.667   1.471
 4862W        W71403  12.297  31.491  12.423
 4863W        W71404  26.629  40.501   1.961
 4864W        W71405   8.308  16.266   4.340
 4865W        W71406  44.009  10.338   4.411
 4866W        W71407   7.737  19.446  10.444
 4867W        W71408  22.754  29.191  11.153
 4868W        W71409  34.296   1.059   3.267
 4869W        W71410  18.734  13.805  11.195
 4870W        W71411  22.750   9.314   0.025
 4871W        W71412  28.521  31.230   0.496
 4872W        W71413  12.545   4.591   2.217
 4873W        W71414  30.612   5.815   0.988
 4874W        W71415   9.643  24.049  11.177
 4875W        W71416  31.814   1.439  14.437
 4876W        W71417   2.353  33.598   2.346
 4877W        W71418   6.520  20.964  14.483
 4878W        W71419  42.050  18.182  14.894
 4879W        W71420  11.928  28.088   4.094
 4880W        W71421  26.647  15.953   0.265
 4881W        W71422   5.357  30.545   0.861
 4882W        W71423  23.240  31.696   3.744
 4883W        W71424   7.395  39.825  14.029
 4884W        W71425  28.495   5.774  14.854
 4885W        W71426   1.861  28.847  11.705
 4886W        W71427  32.441  21.040   4.057
 4887W        W71428   7.509   3.179  11.945
 4888W        W71429   4.434  33.027  14.183
 4889W        W71430  32.467  29.456   3.866
 4890W        W71431  17.761  39.034  11.636
 4891W        W71432  13.389  39.683  12.640
 4892W        W71433  13.181  22.683  12.914
 4893W        W71434  10.175   9.646   4.057
 4894W        W71435   1.696  16.180   4.581
 4895W        W71436   7.972  43.498   1.699
 4896W        W71437  34.640  32.474  12.894
 4897W        W71438  25.521  32.947  13.579
 4898W        W71439  36.761  19.230   2.264
 4899W        W71440  26.207  26.253   0.296
 4900W        W71441  25.684  15.727  13.897
 4901W        W71442  37.118  41.956  11.447
 4902W        W71443  39.843  37.752  14.676
 4903W        W71444  20.980  44.287  14.992
 4904W        W71445  36.167  20.555   1.456
 4905W        W71446  37.119  40.503  14.461
 4906W        W71447  37.856  25.560  12.984
 4907W        W71448  34.022  38.928   1.950
 4908W        W71449  18.652  37.814   3.204
 4909W        W71450   2.725  29.015  10.352
 4910W        W71451  20.060  42.491   4.868
 4911W        W71452  22.049  44.693   4.153
 4912W        W71453  44.397  21.452   0.803
 4913W        W71454   3.886  14.682   3.252
 4914W        W71455   9.761   9.550  11.203
 4915W        W71456  22.630  16.703  14.359
 4916W        W71457  15.180   7.337  13.759
 4917W        W71458   4.972  30.945   2.841
 4918W        W71459  23.190  27.213   4.597
 4919W        W71460  30.523  38.539   1.934
 4920W        W71461  32.787   6.969  14.859
 4921W        W71462  37.621  13.625   3.315
 4922W        W71463  13.680  19.790   3.274
 4923W        W71464  24.255  27.445   3.662
 4924W        W71465  12.572   7.450   0.093
 4925W        W71466  43.535  31.945   4.986
 4926W        W71467  30.726  39.448   1.511
 4927W        W71468  25.060  21.139  11.184
 4928W        W71469   6.728  30.032   0.724
 4929W        W71470   9.433   7.443   0.146
 4930W        W71471  10.186  15.230  10.705
 4931W        W71472  13.444  15.877  11.991
 4932W        W71473  40.420   6.412   0.030
 4933W        W71474   3.371   2.876  13.950
 4934W        W71475  14.305   2.827  10.745
 4935W        W71476  25.326  28.181  13.659
 4936W        W71477  30.395  38.628  13.028
 4937W        W71478  44.027   7.039   4.706
 4938W        W71479   1.853  12.085  13.868
 4939W        W71480  11.828  34.354  13.940
 4940W        W71481  28.238  31.914  11.869
 4941W        W71482   1.499  23.565  11.916
 4942W        W71483  36.943  28.373  10.755
 4943W        W71484  38.600  40.869   2.345
 4944W        W71485  32.324  30.175   1.479
 4945W        W71486   5.785   3.911   2.787
 4946W        W71487   5.679  15.141  10.772
 4947W        W71488  20.154  34.513   3.350
 4948W        W71489  40.704  30.932   4.164
 4949W        W71490  44.709   9.344  11.132
 4950W        W71491  23.580   9.254  12.465
 4951W        W71492  23.696   2.281  10.566
 4952W        W71493  18.325   6.825  12.375
 4953W        W71494  28.561  16.610  11.472
 4954W        W71495  10.625   8.960  13.910
 4955W        W71496   8.666  35.346  13.426
 4956W        W71497  10.898  36.003   1.421
 4957W        W71498  24.056  30.602   4.411
 4958W        W71499  32.009   3.234  13.990
 4959W        W71500  31.088  34.505   0.200
 4960W        W71501  29.593   3.423   1.386
 4961W        W71502   2.945  33.068   2.807
 4962W        W71503  14.029   2.329  13.618
 4963W        W71504   6.864  30.469   3.710
 4964W        W71505  15.040  33.325   0.816
 4965W        W71506  18.714  23.977  14.792
 4966W        W71507  42.895  25.357  14.059
 4967W        W71508  39.922  34.464  13.674
 4968W        W71509  31.527   4.747  10.948
 4969W        W71510  31.086  34.186   4.988
 4970W        W71511  38.554  41.728   2.157
 4971W        W71512  33.430  42.231  14.742
 4972W        W71513  37.508  26.967  14.158
 4973W        W71514  31.479  31.526  13.650
 4974W        W71515  24.480  26.439  11.193
 4975W        W71516  41.086  25.171  10.450
 4976W        W71517   3.333  20.166   2.828
 4977W        W71518  10.775  24.999  14.334
 4978W        W71519   4.491  29.432  11.060
 4979W        W71520  35.937   4.485  11.639
 4980W        W71521  25.886  29.482   0.335
 4981W        W71522  38.513  36.852   3.912
 4982W        W71523  31.373  14.775   0.571
 4983W        W71524  34.617  43.950  11.855
 4984W        W71525  44.405  20.524   3.614
 4985W        W71526  33.570   2.827   1.383
 4986W        W71527  44.478  16.005   9.953
 4987W        W71528  25.899  13.581   3.616
 4988W        W71529   3.324  33.323  11.739
 4989W        W71530  21.782  42.284   4.148
 4990W        W71531  43.134   4.644  11.217
 4991W        W71532  24.262  12.187  14.028
 4992W        W71533   0.819  30.539   4.057
 4993W        W71534  32.084  42.449   2.004
 4994W        W71535  32.973  17.114   0.287
 4995W        W71536   9.101  38.014  13.342
 4996W        W71537  25.706  33.203  10.710
 4997W        W71538  34.682  19.273   0.222
 4998W        W71539  13.302  21.161  11.178
 4999W        W71540  21.740  19.258  11.001
 5000W        W71541  31.215  19.406  14.017
 5001W        W71542  36.302  19.103  10.658
 5002W        W71543  13.026  14.749  12.558
 5003W        W71544  12.152  34.859  14.007
 5004W        W71545  26.686  35.961   1.607
 5005W        W71546  19.332  18.011   1.258
 5006W        W71547  31.904  31.535  14.667
 5007W        W71548   1.054  16.746  13.822
 5008W        W71549  15.351   1.046   3.926
 5009W        W71550  24.265  31.925  14.814
 5010W        W71551  38.375   5.706  10.877
 5011W        W71552  15.161  40.474  14.825
 5012W        W71553   7.750  31.919   4.512
 5013W        W71554  32.445  41.874   1.681
 5014W        W71555  40.120  30.375   0.833
 5015W        W71556  28.147   2.047   0.469
 5016W        W71557  28.867   7.332   0.663
 5017W        W71558  10.191  40.302   0.715
 5018W        W71559  40.836  18.999  14.535
 5019W        W71560  37.356  37.041   2.628
 5020W        W71561  34.836  21.979   4.458
 5021W        W71562   7.531   9.265  10.848
 5022W        W71563  16.577  43.512  13.468
 5023W        W71564  28.091  11.849   4.942
 5024W        W71565  22.930  41.875   1.229
 5025W        W71566  32.427  23.158  12.522
 5026W        W71567  20.057   6.005   1.800
 5027W        W71568   4.618  42.995   0.975
 5028W        W71569  16.802   3.953   1.939
 5029W        W71570  16.899  35.893   4.915
 5030W        W71571   5.886   0.309  14.922
 5031W        W71572  24.641   8.237  12.087
 5032W        W71573  32.434   1.400   0.843
 5033W        W71574  35.033  26.411  12.125
 5034W        W71575  16.285  33.547   1.013
 5035W        W71576  34.938  29.923   0.800
 5036W        W71577  24.990  16.849   2.828
 5037W        W71578  26.493   0.030   4.051
 5038W        W71579  25.167  44.282  12.973
 5039W        W71580   9.747  34.520   2.333
 5040W        W71581  38.355  40.442   2.457
 5041W        W71582  33.910  19.847   1.217
 5042W        W71583   1.818  32.402  11.910
 5043W        W71584  25.968  26.713   0.086
 5044W        W71585  16.694  26.095  11.275
 5045W        W71586  16.030  35.884  11.162
 5046W        W71587   6.040   5.224   3.417
 5047W        W71588  13.631  20.804  12.548
 5048W        W71589  26.710   9.459   4.056
 5049W        W71590  39.166   4.463  11.140
 5050W        W71591  34.935  16.241  11.236
 5051W        W71592   6.888  36.452  10.504
 5052W        W71593   5.795   8.116   3.792
 5053W        W71594  44.383  20.126   4.589
 5054W        W71595  25.117  26.227   2.219
 5055W        W71596  15.553  19.674   1.962
 5056W        W71597   6.870  14.826   4.653
 5057W        W71598  38.825  18.081   4.086
 5058W        W71599  11.053  44.772   0.363
 5059W        W71600  31.410  35.238  11.968
 5060W        W71601  20.235  23.100   1.656
 5061W        W71602  24.720  20.818  11.470
 5062W        W71603  28.625  22.610   0.341
 5063W        W71604  40.450  13.650  13.525
 5064W        W71605  13.345  30.694  12.177
 5065W        W71606  44.260  21.301  12.465
 5066W        W71607  16.610  26.093   4.852
 5067W        W71608  22.817   3.389   4.111
 5068W        W71609  23.932  28.267  10.692
 5069W        W71610  28.922  42.066  13.388
 5070W        W71611  16.751  44.806  11.672
 5071W        W71612  38.583  19.565   3.261
 5072W        W71613  43.280  39.355   1.896
 5073W        W71614  33.077  21.684   3.844
 5074W        W71615  28.146   3.481  14.789
 5075W        W71616  30.212   3.737   2.976
 5076W        W71617  21.051  10.153  13.042
 5077W        W71618  16.059  29.348   0.336
 5078W        W71619  39.917  41.841  11.037
 5079W        W71620  19.841  25.990   3.250
 5080W        W71621  15.900  30.772   0.292
 5081W        W71622  37.052  11.688   2.290
 5082W        W71623  12.127  39.833  12.989
 5083W        W71624  20.995  30.464   0.815
 5084W        W71625  13.576  34.321  12.392
 5085W        W71626  36.071  16.659   3.417
 5086W        W71627  15.740   9.683  14.498
 5087W        W71628  15.491  44.924   0.466
 5088W        W71629  26.472  14.756   1.019
 5089W        W71630  22.981  20.242   4.201
 5090W        W71631  38.812  10.836  14.899
 5091W        W71632  29.596  17.083   3.701
 5092W        W71633   6.654   0.580  13.057
 5093W        W71634  37.983  39.711   3.096
 5094W        W71635  29.146  16.687  10.603
 5095W        W71636  20.762  14.081   2.372
 5096W        W71637  20.998  11.404  13.526
 5097W        W71638  23.918  42.328  11.187
 5098W        W71639  18.644   6.927  13.837
 5099W        W71640  20.855  25.568   3.219
 5100W        W71641  27.639  21.744  14.732
 5101W        W71642  22.770   0.511  11.715
 5102W        W71643  34.876  28.143  12.318
 5103W        W71644   6.160  15.778   0.881
 5104W        W71645  12.732  33.515   1.623
 5105W        W71646  11.407  14.755   4.111
 5106W        W71647  44.426  15.304  14.511
 5107W        W71648   2.940  13.235   4.020
 5108W        W71649   4.894  16.731  12.956
 5109W        W71650  12.790   5.258   4.224
 5110W        W71651  33.461  34.863   4.651
 5111W        W71652  39.200   1.206  11.115
 5112W        W71653  32.335   6.287   1.766
 5113W        W71654  31.197  16.071   1.921
 5114W        W71655   9.402  25.460   1.360
 5115W        W71656  20.745  17.082   1.388
 5116W        W71657   7.299  36.514   1.679
 5117W        W71658  35.334  30.402  11.623
 5118W        W71659  14.006  23.164   4.094
 5119W        W71660  38.283   1.210   4.951
 5120W        W71661  44.704  10.273  14.985
 5121W        W71662  29.219  24.241  14.941
 5122W        W71663  38.356  39.312   4.762
 5123W        W71664  15.661  27.093  11.375
 5124W        W71665  28.858  23.059  14.453
 5125W        W71666  19.963   1.932   2.819
 5126W        W71667   5.017  18.204  13.315
 5127W        W71668  32.132  44.213  14.370
 5128W        W71669  13.171  17.069   3.165
 5129W        W71670  35.149   8.581  11.637
 5130W        W71671  33.504   0.768   2.729
 5131W        W71672  33.167  20.208  12.045
 5132W        W71673  38.092  12.699  11.602
 5133W        W71674  24.915  33.400  12.414
 5134W        W71675  28.522   7.676  13.837
 5135W        W71676  26.413  25.670   2.395
 5136W        W71677  10.423   0.237  12.108
 5137W        W71678  36.807  41.146  12.354
 5138W        W71679   5.916  30.144  13.941
 5139W        W71680  33.129  37.848   4.088
 5140W        W71681  11.791   3.921  12.996
 5141W        W71682  40.866  42.424   4.552
 5142W        W71683  41.000   7.078  10.697
 5143W        W71684  26.214  22.454  14.035
 5144W        W71685  39.698   1.253   4.634
 5145W        W71686  21.109  37.043  13.516
 5146W        W71687  36.918  28.381  12.048
 5147W        W71688  40.502  11.274  10.310
 5148W        W71689  14.186  12.598   0.378
 5149W        W71690   7.349  40.062   0.786
 5150W        W71691  37.352  19.252  10.800
 5151W        W71692  24.290  34.423  11.324
 5152W        W71693   9.335  30.731   4.933
 5153W        W71694  42.648  42.058  13.927
 5154W        W71695  20.721  11.198   0.734
 5155W        W71696  13.359  44.902   4.970
 5156W        W71697   3.684  43.436  11.058
 5157W        W71698  37.156  17.205   3.298
 5158W        W71699  37.066   2.497  12.522
 5159W        W71700  21.606  34.823   0.830
 5160W        W71701  21.838  43.623  11.184
 5161W        W71702  32.492  22.628  12.352
 5162W        W71703  31.522   0.198   3.209
 5163W        W71704  32.427   6.331   0.461
 5164W        W71705   6.711  13.283   3.957
 5165W        W71706  11.781  34.882  12.164
 5166W        W71707  30.087   0.635  11.643
 5167W        W71708  38.394   8.714   1.865
 5168W        W71709  33.623  30.616  11.189
 5169W        W71710  18.523  33.634  14.840
 5170W        W71711  22.751  17.013  13.478
 5171W        W71712  11.306  38.874   2.470
 5172W        W71713  15.839   9.356  13.318
 5173W        W71714  44.036  34.289  12.388
 5174W        W71715  33.531  15.824  14.193
 5175W        W71716  31.607  26.081  10.737
 5176W        W71717   6.916   0.611  11.720
 5177W        W71718   0.824  41.816   1.013
 5178W        W71719  36.783  35.822  12.056
 5179W        W71720   4.849  41.841  10.981
 5180W        W71721  38.007   3.162  14.079
 5181W        W71722  35.806   9.188   1.140
 5182W        W71723  19.260  40.308  13.805
 5183W        W71724  21.507  13.727   0.923
 5184W        W71725  38.787  11.369  12.319
 5185W        W71726  43.398  16.955  10.715
 5186W        W71727   6.592  41.035  13.034
 5187W        W71728   9.912  25.674   2.391
 5188W        W71729   8.174  24.542   2.241
 5189W        W71730  17.253   2.671   1.350
 5190W        W71731   0.251  39.320  11.595
 5191W        W71732   5.175  20.066   3.871
 5192W        W71733  20.115  39.933   1.784
 5193W        W71734   4.014  42.359   2.658
 5194W        W71735  37.883   5.671   3.611
 5195W        W71736  21.479   8.882   3.829
 5196W        W71737  33.524  38.861  12.006
 5197W        W71738  39.436  36.619  11.430
 5198W        W71739  10.660  38.116  13.300
 5199W        W71740  24.008  10.315   0.752
 5200W        W71741  44.595  38.836   2.856
 5201W        W71742   1.713  10.544  13.940
 5202W        W71743   3.456  14.433  11.657
 5203W        W71744  25.185  22.605   4.124
 5204W        W71745  17.311  38.879  12.443
 5205W        W71746  41.105  21.947   3.450
 5206W        W71747  22.932   7.196   3.152
 5207W        W71748   0.928  15.725  14.744
 5208W        W71749  28.528  15.633   4.119
 5209W        W71750  34.516  42.986  13.392
 5210W        W71751  11.740  27.547   0.748
 5211W        W71752  35.963  15.248  14.869
 5212W        W71753  28.040  41.230  11.574
 5213W        W71754  24.640  43.316   2.609
 5214W        W71755  35.918  38.313  14.966
 5215W        W71756   6.930  28.075  13.496
 5216W        W71757  24.752  17.644  13.583
 5217W        W71758   6.032   8.365   1.430
 5218W        W71759   5.154  39.421  13.932
 5219W        W71760  27.395  25.541   0.336
 5220W        W71761  21.771   8.222   3.535
 5221W        W71762  39.247  44.946  14.734
 5222W        W71763  17.861  12.195   2.190
 5223W        W71764  37.037  29.213  11.607
 5224W        W71765   0.910   2.022  14.431
 5225W        W71766  33.807  22.052  12.479
 5226W        W71767   4.222  25.297  12.573
 5227W        W71768  36.992  10.464  12.729
 5228W        W71769  28.524   0.047   0.243
 5229W        W71770  27.567   0.819  11.143
 5230W        W71771  20.833  36.990   1.344
 5231W        W71772  12.741  15.207   3.383
 5232W        W71773  30.291  40.985   1.233
 5233W        W71774  22.237  37.480   1.877
 5234W        W71775  25.965  32.872   0.559
 5235W        W71776   0.834   9.370   3.643
 5236W        W71777   6.763  41.269   3.849
 5237W        W71778  36.968  26.749   1.765
 5238W        W71779  32.964  14.857  14.575
 5239W        W71780   3.739  27.687   3.489
 5240W        W71781  39.063  22.573  14.312
 5241W        W71782  26.821  25.938   3.270
 5242W        W71783  27.613   3.668  10.829
 5243W        W71784  43.278  27.795  14.517
 5244W        W71785   8.434  41.559   2.752
 5245W        W71786  35.897  19.790   2.492
 5246W        W71787  14.177  11.119  11.180
 5247W        W71788  33.961  16.650   1.379
 5248W        W71789   9.458  17.767  12.832
 5249W        W71790  22.705  43.257   2.303
 5250W        W71791   1.345   2.166  11.753
 5251W        W71792  28.704  43.427   0.856
 5252W        W71793  32.763  36.752  11.191
 5253W        W71794  23.240  33.609  11.288
 5254W        W71795  30.379  37.420   0.489
 5255W        W71796   2.724  18.857  14.419
 5256W        W71797   5.001   3.726   4.588
 5257W        W71798  15.766  20.555   2.442
 5258W        W71799  25.258  40.623  10.948
 5259W        W71800  12.724  38.562   0.210
 5260W        W71801  38.494  14.798   0.269
 5261W        W71802  32.071  18.598  14.421
 5262W        W71803  37.958   7.400  13.856
 5263W        W71804  37.444  39.078  12.469
 5264W        W71805   3.198  21.575   3.190
 5265W        W71806  35.148  28.577   1.289
 5266W        W71807   4.310  33.713   2.376
 5267W        W71808   2.473  27.108  13.766
 5268W        W71809  23.996  42.391   1.779
 5269W        W71810   3.485  10.233  12.315
 5270W        W71811   2.921  11.234   2.337
 5271W        W71812  18.647  12.750   4.491
 5272W        W71813  44.425  30.310  13.447
 5273W        W71814   1.495  17.913  14.399
 5274W        W71815   6.660  13.094  12.896
 5275W        W71816  17.221  17.768  12.104
 5276W        W71817   5.668  40.957   2.594
 5277W        W71818  41.262  24.616   0.007
 5278W        W71819  30.782  11.016   5.027
 5279W        W71820  44.029  25.512  13.304
 5280W        W71821   0.816  26.024   2.351
 5281W        W71822   2.365  27.738   3.146
 5282W        W71823  39.118  10.364  13.423
 5283W        W71824   7.571  34.276  11.096
 5284W        W71825  21.612  14.639   3.348
 5285W        W71826   4.790  39.953  14.006
 5286W        W71827  24.558  32.328  14.985
 5287W        W71828  40.286  19.624  14.865
 5288W        W71829  41.680  37.254  12.493
 5289W        W71830   9.825  17.040   1.456
 5290W        W71831  28.362  29.656   0.426
 5291W        W71832  13.838   5.100  11.026
 5292W        W71833  30.710  19.614   3.731
 5293W        W71834  12.913  19.830  11.052
 5294W        W71835  40.262  30.175  14.609
 5295W        W71836  24.497  13.148  12.404
 5296W        W71837  20.265  33.951   4.798
 5297W        W71838  34.214   4.289   2.722
 5298W        W71839  16.273   5.201  12.429
 5299W        W71840  13.337  24.217   4.577
 5300W        W71841  43.715  31.057   4.104
 5301W        W71842  43.504  36.447  12.527
 5302W        W71843   4.252  21.676   3.809
 5303W        W71844  34.398  34.115  11.586
 5304W        W71845  15.779  33.214   4.257
 5305W        W71846  15.468  20.112   2.400
 5306W        W71847  14.217   5.404   0.077
 5307W        W71848  30.960  20.138   1.131
 5308W        W71849  10.703   0.157  10.897
 5309W        W71850  15.653   8.361   3.071
 5310W        W71851   4.880  15.550  14.740
 5311W        W71852  43.747  16.396   5.004
 5312W        W71853  22.551  44.726   2.396
 5313W        W71854   0.761  21.435  14.200
 5314W        W71855   9.735  14.705  12.239
 5315W        W71856  17.047  41.917   2.296
 5316W        W71857   7.363   8.608   1.654
 5317W        W71858   8.771  20.482   1.247
 5318W        W71859  16.144  30.614  11.516
 5319W        W71860  21.983   5.276   2.266
 5320W        W71861  30.163   6.732   2.420
 5321W        W71862  44.884  34.518   1.813
 5322W        W71863  10.921  39.655   5.390
 5323W        W71864  31.604  14.059   0.735
 5324W        W71865  13.234  23.879  11.200
 5325W        W71866  22.962  20.422  11.051
 5326W        W71867  44.312  16.386  13.509
 5327W        W71868  41.118  16.288  12.466
 5328W        W71869   6.737   0.166  11.898
 5329W        W71870  13.234  19.533   1.637
 5330W        W71871  18.112  26.495  13.886
 5331W        W71872  36.347  32.900  13.090
 5332W        W71873   9.746   6.875   4.803
 5333W        W71874  39.569   4.875  12.817
 5334W        W71875   2.288  17.999   4.573
 5335W        W71876  28.376  23.039  13.272
 5336W        W71877  31.161  27.602  13.311
 5337W        W71878  33.200  17.796  11.733
 5338W        W71879  10.646  23.225  13.512
 5339W        W71880  40.423  23.938  10.460
 5340W        W71881  30.488  40.390   3.826
 5341W        W71882   1.265  14.383  10.586
 5342W        W71883  15.625   3.444   0.357
 5343W        W71884  42.237  25.470  11.117
 5344W        W71885  14.154   4.745  11.993
 5345W        W71886  25.509  13.359   2.515
 5346W        W71887  41.572  37.776   1.847
 5347W        W71888   1.738  40.219   2.186
 5348W        W71889  27.759  40.291  11.800
 5349W        W71890  43.689  39.596   2.177
 5350W        W71891  32.655  20.050   0.309
 5351W        W71892   4.608  42.269   3.282
 5352W        W71893  43.228  18.270   2.360
 5353W        W71894  19.102   0.293   2.033
 5354W        W71895  15.840  36.966  13.810
 5355W        W71896  31.129   8.465   3.027
 5356W        W71897  30.826  42.408   1.264
 5357W        W71898  41.834  36.030  13.826
 5358W        W71899  23.485  24.982   3.776
 5359W        W71900   8.689  16.348   1.323
 5360W        W71901  23.545   5.782   0.481
 5361W        W71902  24.802   5.251   0.327
 5362W        W71903   6.411  34.389   2.391
 5363W        W71904  14.124  24.704  12.516
 5364W        W71905  27.442   8.973  13.097
 5365W        W71906  36.144  34.556   1.945
 5366W        W71907  36.609  19.102  12.974
 5367W        W71908  11.711  39.299   1.937
 5368W        W71909  35.571  27.720  14.422
 5369W        W71910  17.732   7.812  14.264
 5370W        W71911  22.740  23.047   2.371
 5371W        W71912  36.859  18.154  12.074
 5372W        W71913  38.462  20.644   4.086
 5373W        W71914  41.467  19.223  12.827
 5374W        W71915  11.639   4.153   2.372
 5375W        W71916   8.376   6.966   3.375
 5376W        W71917  42.971   2.259  14.511
 5377W        W71918  17.752   5.715  14.894
 5378W        W71919   5.589   5.773   2.843
 5379W        W71920  31.545  16.738   3.684
 5380W        W71921  32.296   8.340   3.184
 5381W        W71922  41.587  30.508  14.857
 5382W        W71923  33.581  23.516   0.055
 5383W        W71924  13.416  42.818   2.517
 5384W        W71925   8.248  31.103  13.483
 5385W        W71926  23.149  20.982   0.765
 5386W        W71927  32.501  37.654  11.539
 5387W        W71928  38.418  23.978  12.069
 5388W        W71929  30.125   1.849  10.663
 5389W        W71930  35.605  41.436   1.121
 5390W        W71931  37.772   9.239   3.150
 5391W        W71932  29.754   0.337   5.102
 5392W        W71933   5.063   9.313   9.761
 5393W        W71934  24.671  38.254  10.709
 5394W        W71935  17.835  30.629  11.181
 5395W        W71936   7.109  39.332   3.104
 5396W        W71937  30.311  14.675   0.829
 5397W        W71938  27.693  33.759   1.419
 5398W        W71939  36.906  10.795  14.910
 5399W        W71940  27.050   1.186  13.338
 5400W        W71941  26.991   8.736   2.385
 5401W        W71942   2.179  32.373  10.702
 5402W        W71943  39.855  44.801   3.803
 5403W        W71944  38.321  25.620   0.761
 5404W        W71945  32.968  36.786   0.337
 5405W        W71946  44.316  24.358  14.333
 5406W        W71947  25.605  26.410   2.263
 5407W        W71948  12.300  27.616  10.490
 5408W        W71949  42.608  30.452  13.399
 5409W        W71950   8.074  33.005   4.430
 5410W        W71951  30.989  14.540  13.725
 5411W        W71952  28.444   9.553   0.969
 5412W        W71953  10.712  25.026  12.979
 5413W        W71954  10.808   5.855   2.940
 5414W        W71955  11.147   4.973   4.790
 5415W        W71956  27.483  32.644   3.276
 5416W        W71957  10.920   9.796   3.854
 5417W        W71958  40.596   7.342   0.326
 5418W        W71959  36.933  43.778   3.732
 5419W        W71960  26.392  25.378   1.394
 5420W        W71961  13.197   2.993   4.715
 5421W        W71962  41.051  29.908   2.250
 5422W        W71963  15.313  35.979   2.139
 5423W        W71964  25.543  19.737   1.360
 5424W        W71965  31.275   5.494   3.543
 5425W        W71966   0.496  15.966  14.357
 5426W        W71967   0.138  43.302   0.407
 5427W        W71968   3.994  39.336  11.892
 5428W        W71969   9.882   5.345  14.698
 5429W        W71970  20.096  14.310   3.645
 5430W        W71971  25.143   2.730   3.745
 5431W        W71972   7.138  34.955   0.051
 5432W        W71973  34.015  39.937  13.376
 5433W        W71974   7.744  21.432  10.161
 5434W        W71975  44.074   6.981   3.993
 5435W        W71976   8.057  40.462  10.257
 5436W        W71977   2.243  24.216   3.873
 5437W        W71978  15.058  37.240   4.109
 5438W        W71979  22.644  34.700  10.606
 5439W        W71980  14.591  37.823  13.032
 5440W        W71981  11.460  30.027  13.291
 5441W        W71982  14.613  35.660  10.053
 5442W        W71983   0.665   2.031   2.342
 5443W        W71984  10.804  26.533   3.714
 5444W        W71985  21.750  27.894   1.312
 5445W        W71986  16.695   5.188   2.332
 5446W        W71987  39.312  16.468  11.377
 5447W        W71988  42.352   1.791   0.955
 5448W        W71989  26.676  34.253  11.901
 5449W        W71990   9.872  42.799  11.527
 5450W        W71991   2.510  16.849   3.635
 5451W        W71992   3.535  30.050   3.019
 5452W        W71993  15.840  18.220  11.175
 5453W        W71994  19.813  12.404   4.743
 5454W        W71995  35.047  33.410   3.472
 5455W        W71996  20.179  38.896   2.253
 5456W        W71997  18.524  33.436  12.478
 5457W        W71998  37.107  27.122   5.028
 5458W        W71999  38.084  20.879   4.821
 5459W        W72000  41.557  31.859   2.704
 5460W        W72001  21.305  19.834   2.351
 5461W        W72002  28.559  35.207  12.520
 5462W        W72003  43.993   3.944  13.807
 5463W        W72004  43.504  11.808  14.280
 5464W        W72005  23.961  19.816   0.696
 5465W        W72006  29.166  14.552  13.439
 5466W        W72007   0.865   3.720  11.061
 5467W        W72008  38.928  41.534   2.904
 5468W        W72009  30.138  37.932   4.159
 5469W        W72010   2.777   9.677  13.958
 5470W        W72011  32.192   9.795  10.672
 5471W        W72012  11.897  12.188   2.227
 5472W        W72013  43.242  43.675  13.903
 5473W        W72014  40.492  40.420   2.391
 5474W        W72015  16.301  27.335   2.885
 5475W        W72016  37.062  25.098  10.489
 5476W        W72017  33.120  29.901  13.814
 5477W        W72018  22.275  44.537   3.351
 5478W        W72019  35.633   0.367   4.536
 5479W        W72020   9.883  18.864  11.396
 5480W        W72021  14.497   5.861  14.316
 5481W        W72022  14.480  31.361  14.676
 5482W        W72023  37.976  28.676  12.013
 5483W        W72024  15.075  41.901  13.403
 5484W        W72025   9.586  26.129  13.902
 5485W        W72026  40.430  33.651  13.086
 5486W        W72027   8.141   4.505  12.599
 5487W        W72028   8.038  32.029  12.999
 5488W        W72029  34.575  13.791  14.844
 5489W        W72030  24.751  34.469  12.296
 5490W        W72031  16.862   8.877  12.485
 5491W        W72032  40.578  16.704  10.126
 5492W        W72033  38.390  21.267  10.779
 5493W        W72034  30.419  25.500   4.720
 5494W        W72035  42.315   3.046   2.270
 5495W        W72036  17.378  31.523   5.370
 5496W        W72037  12.873  11.020   1.714
 5497W        W72038  37.041   1.840  12.947
 5498W        W72039  33.520  10.397  12.715
 5499W        W72040  27.290  18.421  13.459
 5500W        W72041  36.347  33.555  13.799
 5501W        W72042  37.381   8.414  14.320
 5502W        W72043  42.689  12.192  14.820
 5503W        W72044  41.599  38.510  12.057
 5504W        W72045   3.362  39.784   3.253
 5505W        W72046  44.272   2.227   1.632
 5506W        W72047  18.054  27.136   3.777
 5507W        W72048  30.503  20.617   2.167
 5508W        W72049  18.766   2.054   0.211
 5509W        W72050   2.198   8.484  11.219
 5510W        W72051  24.287   9.314  14.765
 5511W        W72052  39.895  35.521   3.431
 5512W        W72053   2.490  22.429   1.074
 5513W        W72054   7.759   9.489   0.052
 5514W        W72055  14.401  12.535   1.783
 5515W        W72056  43.820  12.362  11.978
 5516W        W72057  12.785  35.945   3.281
 5517W        W72058   0.252   8.874  13.827
 5518W        W72059   1.306  24.860   2.404
 5519W        W72060  19.133  39.253   2.174
 5520W        W72061  31.905   3.738   1.164
 5521W        W72062  41.774  10.142   2.956
 5522W        W72063  13.194  42.420   1.804
 5523W        W72064  19.581  18.216  12.523
 5524W        W72065  39.436   2.134   2.844
 5525W        W72066  35.162  24.470   4.564
 5526W        W72067   4.678  18.528   1.826
 5527W        W72068  26.493  37.557  13.414
 5528W        W72069  22.493  13.248   3.577
 5529W        W72070   3.474  16.860   3.144
 5530W        W72071  16.073  18.321  14.402
 5531W        W72072  31.410   9.282   3.302
 5532W        W72073  39.301  13.357  14.474
 5533W        W72074   1.761   8.850  11.046
 5534W        W72075  44.452  31.292   4.553
 5535W        W72076  21.433   5.990  14.941
 5536W        W72077  20.062  17.215  12.457
 5537W        W72078  37.911  36.098  13.953
 5538W        W72079  15.726   0.584  11.185
 5539W        W72080  17.836  24.941   1.823
 5540W        W72081  13.737   5.015   3.603
 5541W        W72082  18.250   7.740  14.340
 5542W        W72083  43.878  16.099   3.303
 5543W        W72084  17.804  37.647  12.379
 5544W        W72085  26.394  12.273  13.392
 5545W        W72086  38.453   0.288  11.884
 5546W        W72087   0.321  26.701  12.878
 5547W        W72088   0.408  42.401  11.135
 5548W        W72089  13.607  17.879   4.261
 5549W        W72090  10.828  35.336  12.655
 5550W        W72091  26.524  22.720   2.198
 5551W        W72092  16.395  30.005   4.584
 5552W        W72093  38.823  31.131  14.444
 5553W        W72094  41.489   8.407   2.654
 5554W        W72095   0.931  22.222  14.549
 5555W        W72096  29.544   7.199   0.387
 5556W        W72097  18.802  34.013   4.663
 5557W        W72098   9.639  33.995  14.010
 5558W        W72099  39.702  19.275  11.657
 5559W        W72100  10.572  37.605  10.922
 5560W        W72101  10.530  23.012   2.520
 5561W        W72102  34.211   5.110   4.108
 5562W        W72103  10.739  31.428   0.459
 5563W        W72104   2.761  38.406  14.263
 5564W        W72105  20.174  15.730  13.503
 5565W        W72106   1.334  38.304   3.663
 5566W        W72107   7.101  16.826  11.612
 5567W        W72108  20.566  35.809   1.492
 5568W        W72109  35.391  12.643   2.413
 5569W        W72110  38.907  42.379  12.401
 5570W        W72111  26.112  37.741  12.854
 5571W        W72112  29.124   5.044  14.778
 5572W        W72113  12.283  42.853  13.022
 5573W        W72114  20.732  18.928  11.458
 5574W        W72115  18.850   1.187  12.485
 5575W        W72116  20.034  12.696  12.617
 5576W        W72117  39.476   9.453  12.427
 5577W        W72118   4.732   2.474   1.385
 5578W        W72119  43.876  17.189  10.667
 5579W        W72120   5.878  26.255   2.689
 5580W        W72121   2.898  44.242   2.879
 5581W        W72122   1.062   7.310  13.512
 5582W        W72123  39.327  24.518  10.700
 5583W        W72124  44.424  25.419   3.378
 5584W        W72125  37.846  30.356   1.169
 5585W        W72126  25.067  33.788   1.738
 5586W        W72127   6.601   9.346   2.195
 5587W        W72128  35.645  13.540  14.753
 5588W        W72129  40.444  35.306  12.377
 5589W        W72130  29.162   2.011   0.216
 5590W        W72131   7.039  25.648  12.061
 5591W        W72132  39.479  17.608   3.998
 5592W        W72133  33.578   5.554   2.896
 5593W        W72134  37.645  35.594   1.224
 5594W        W72135   8.278  22.952  11.886
 5595W        W72136  36.479  21.793  10.431
 5596W        W72137  43.471  12.324   3.546
 5597W        W72138  16.848  15.270   0.518
 5598W        W72139  19.330   2.869  14.941
 5599W        W72140  15.861  15.093   4.132
 5600W        W72141  34.991  17.857  12.643
 5601W        W72142   3.907  35.941   0.007
 5602W        W72143  17.143  15.783   2.908
 5603W        W72144  30.135  28.497  13.511
 5604W        W72145  42.261  37.526  14.349
 5605W        W72146   8.880  35.610  14.810
 5606W        W72147  11.754   6.886   0.926
 5607W        W72148  21.061  19.675  12.013
 5608W        W72149  44.852  19.437  10.603
 5609W        W72150   0.557  36.366   2.728
 5610W        W72151  40.559   6.592   0.965
 5611W        W72152  17.176  29.775  14.046
 5612W        W72153   3.500  24.221   2.662
 5613W        W72154  23.046  27.893   1.222
 5614W        W72155   1.240  35.726  14.258
 5615W        W72156  33.465  22.466   1.837
 5616W        W72157  35.546  32.165   3.323
 5617W        W72158  26.960  31.848   2.777
 5618W        W72159  33.621  35.356  10.465
 5619W        W72160   3.733  16.261   0.780
 5620W        W72161  37.782  22.787   2.403
 5621W        W72162  14.140  12.363   4.052
 5622W        W72163  16.560   7.646   3.556
 5623W        W72164   0.776  37.615  14.966
 5624W        W72165  41.278  32.168   2.301
 5625W        W72166   1.154  20.588  14.066
 5626W        W72167  17.650  28.943  10.657
 5627W        W72168  29.206  17.016   0.506
 5628W        W72169  31.626  44.397   4.275
 5629W        W72170  37.746   6.324   3.075
 5630W        W72171   6.834  40.271   0.852
 5631W        W72172  12.500   4.898  11.072
 5632W        W72173  24.274  25.794  12.060
 5633W        W72174  28.401  41.156  10.486
 5634W        W72175  16.142  17.189  12.902
 5635W        W72176  19.056   6.030   3.739
 5636W        W72177  37.243  25.509  13.951
 5637W        W72178  19.719  31.457  13.888
 5638W        W72179   7.662  34.119  11.905
 5639W        W72180  38.092   5.218   2.289
 5640W        W72181  23.096  34.310  12.044
 5641W        W72182   6.960  37.991   4.137
 5642W        W72183  37.474  11.881  12.329
 5643W        W72184  43.821  24.376  14.638
 5644W        W72185  29.020   5.735   1.252
 5645W        W72186  23.469  39.950  13.986
 5646W        W72187   5.248  41.990  12.656
 5647W        W72188   2.698  19.110  14.889
 5648W        W72189  44.456   5.167  12.027
 5649W        W72190  36.306  29.012  14.013
 5650W        W72191  44.380  39.298   2.830
 5651W        W72192  24.177  42.478  11.664
 5652W        W72193  26.576  29.476   0.939
 5653W        W72194  21.648  25.419  12.154
 5654W        W72195  17.251  36.731  13.880
 5655W        W72196   7.178  21.068  12.605
 5656W        W72197  41.600  43.932  14.562
 5657W        W72198  20.015  29.493   1.188
 5658W        W72199  13.916  26.770  14.834
 5659W        W72200  10.314   5.357   3.882
 5660W        W72201  23.965  31.649   3.128
 5661W        W72202  23.970   8.796   3.674
 5662W        W72203  41.813   1.912  12.538
 5663W        W72204  15.668   4.435   1.335
 5664W        W72205   6.207  18.806  14.908
 5665W        W72206  28.561  40.139   0.715
 5666W        W72207  10.943   4.032   2.875
 5667W        W72208  37.962   2.099  11.076
 5668W        W72209   0.052  40.365   3.365
 5669W        W72210  32.119   0.396   2.384
 5670W        W72211  20.183   4.210  14.958
 5671W        W72212   3.068  21.861   5.004
 5672W        W72213  24.988  18.099   0.288
 5673W        W72214  28.622  10.813   1.936
 5674W        W72215  31.819  21.884   3.268
 5675W        W72216  32.960  36.144   3.697
 5676W        W72217  11.271  43.693  12.559
 5677W        W72218  17.709  23.549   4.130
 5678W        W72219  21.882   9.559   9.493
 5679W        W72220  26.656  21.959  14.841
 5680W        W72221  14.007   0.880  13.421
 5681W        W72222  17.098  12.507  13.418
 5682W        W72223  41.100  28.977   0.746
 5683W        W72224  15.521   8.821   2.834
 5684W        W72225  12.990  32.532   2.817
 5685W        W72226   5.897  44.046  12.901
 5686W        W72227  33.571  19.009   1.481
 5687W        W72228  38.098   3.214   3.762
 5688W        W72229  21.204  44.253  11.367
 5689W        W72230  14.094  41.192  11.901
 5690W        W72231  28.497  17.590   1.271
 5691W        W72232  44.246  22.244   2.927
 5692W        W72233  24.982  38.837   0.829
 5693W        W72234   5.483   9.090  14.832
 5694W        W72235  20.605  22.437   0.165
 5695W        W72236  12.282  12.536  14.630
 5696W        W72237  37.334  17.863  10.733
 5697W        W72238  30.005  30.394  14.438
 5698W        W72239   8.401  41.586   0.397
 5699W        W72240  26.321  38.704   0.196
 5700W        W72241  34.152  43.276  11.230
 5701W        W72242  15.530  26.524  10.830
 5702W        W72243   6.823   6.782  12.050
 5703W        W72244  11.371   6.740  11.324
 5704W        W72245  23.204  19.339   4.659
 5705W        W72246  12.595   5.495  12.602
 5706W        W72247   8.560  21.116  12.986
 5707W        W72248  11.191   3.711   3.244
 5708W        W72249  23.326  42.245   3.198
 5709W        W72250  20.735  15.783  10.249
 5710W        W72251  14.200  25.793   2.245
 5711W        W72252   6.590  13.184   1.071
 5712W        W72253   0.898  27.688   3.303
 5713W        W72254   3.814  11.145  12.247
 5714W        W72255  35.623  17.771   3.241
 5715W        W72256  43.149   6.685  14.064
 5716W        W72257   8.309  32.558   4.252
 5717W        W72258  11.655   8.745  11.828
 5718W        W72259   5.011  34.630   0.367
 5719W        W72260   5.275  16.136  12.506
 5720W        W72261  17.986  23.769   3.757
 5721W        W72262  18.131  23.323   3.143
 5722W        W72263  20.743  34.467  12.064
 5723W        W72264   6.666  24.070   2.739
 5724W        W72265   7.044  21.260   4.507
 5725W        W72266  31.932  17.157  10.401
 5726W        W72267  23.536  38.601  11.217
 5727W        W72268  30.061  13.257   0.430
 5728W        W72269  24.511  42.462   1.643
 5729W        W72270  10.167  25.337   3.709
 5730W        W72271  31.855  15.730  11.601
 5731W        W72272  36.427  17.214   1.200
 5732W        W72273  16.041  11.860   1.371
 5733W        W72274   2.046  34.133   1.703
 5734W        W72275  18.009  14.256   1.770
 5735W        W72276  41.241   0.843   4.165
 5736W        W72277  34.330  18.577  14.742
 5737W        W72278   7.982  34.522   0.120
 5738W        W72279  34.598   3.903   3.832
 5739W        W72280  39.338  17.146   0.924
 5740W        W72281   9.541   0.729  12.060
 5741W        W72282   0.947  39.996   3.326
 5742W        W72283  28.068  39.780   3.721
 5743W        W72284  31.192  41.560   3.001
 5744W        W72285   5.924  25.070  13.068
 5745W        W72286  39.240  12.727   4.032
 5746W        W72287  19.737   0.485   1.330
 5747W        W72288  33.273   3.357  14.172
 5748W        W72289  43.053  16.680   1.063
 5749W        W72290  44.309  36.670   1.448
 5750W        W72291  36.376  27.639  12.586
 5751W        W72292  27.062  14.049   0.097
 5752W        W72293  33.942  18.813   0.022
 5753W        W72294  43.729  28.744   2.888
 5754W        W72295  25.466  12.102   2.195
 5755W        W72296   6.305  36.030  13.344
 5756W        W72297  41.372  21.479   4.680
 5757W        W72298  17.573   8.743   2.664
 5758W        W72299  15.970  18.705   0.296
 5759W        W72300  22.927  33.756   0.646
 5760W        W72301   2.694  26.555   4.335
 5761W        W72302  15.786  27.654  12.021
 5762W        W72303  24.032   0.209   3.693
 5763W        W72304  13.822  16.476  11.482
 5764W        W72305  20.032  39.856  10.745
 5765W        W72306  19.229  24.306   2.216
 5766W        W72307   4.673  20.068  14.498
 5767W        W72308  22.271  37.622   3.446
 5768W        W72309  29.159  29.023  10.849
 5769W        W72310  16.961  20.313   3.303
 5770W        W72311  39.453  23.483   1.457
 5771W        W72312  38.766  26.201  12.107
 5772W        W72313   8.820  19.661   0.292
 5773W        W72314   2.345  15.577  11.632
 5774W        W72315  36.008  26.448   0.540
 5775W        W72316  34.523  26.654  11.022
 5776W        W72317  12.837  33.899   0.797
 5777W        W72318  30.023  29.895   2.090
 5778W        W72319  25.771  43.004  14.660
 5779W        W72320  35.098  42.249   2.119
 5780W        W72321  43.075   9.008  14.826
 5781W        W72322   6.846  29.520  14.354
 5782W        W72323  42.263  10.594   4.619
 5783W        W72324   5.582  13.699   3.340
 5784W        W72325  20.716  40.404  10.474
 5785W        W72326   4.993  39.482   1.684
 5786W        W72327   3.906   8.770  13.875
 5787W        W72328  31.825  44.444  14.013
 5788W        W72329  38.017  41.847   1.541
 5789W        W72330  28.193   6.712  14.397
 5790W        W72331  34.890   4.266  11.575
 5791W        W72332  16.676  38.122   2.311
 5792W        W72333  24.914  12.906  11.181
 5793W        W72334  35.391  39.096   3.834
 5794W        W72335   6.696  38.486  11.420
 5795W        W72336  34.202  13.811   5.002
 5796W        W72337  38.032  15.639   3.526
 5797W        W72338   0.932  39.326   4.605
 5798W        W72339  11.270  40.428  14.502
 5799W        W72340  22.172  20.931   1.982
 5800W        W72341  27.139  38.768   1.952
 5801W        W72342  42.400  19.948  10.956
 5802W        W72343  26.021  28.398   1.305
 5803W        W72344   2.831  35.817  10.636
 5804W        W72345  16.238  42.628   2.242
 5805W        W72346  26.064  27.988   0.935
 5806W        W72347  10.922  31.407  11.888
 5807W        W72348  18.529   8.325   4.809
 5808W        W72349   2.801  25.516  13.346
 5809W        W72350   4.742  43.288  14.801
 5810W        W72351  13.328   9.338   2.155
 5811W        W72352   6.643  41.944  13.066
 5812W        W72353   8.074  34.659  13.018
 5813W        W72354  28.415   1.551  14.904
 5814W        W72355  10.822  10.755   1.917
 5815W        W72356  12.588  43.409  12.901
 5816W        W72357  42.809  25.878   0.410
 5817W        W72358  23.128  40.845  12.039
 5818W        W72359  28.083  32.412  10.453
 5819W        W72360   8.833  30.143   2.250
 5820W        W72361  15.629  20.626   4.966
 5821W        W72362  16.966  24.971  13.186
 5822W        W72363   1.119   7.850   4.504
 5823W        W72364  13.797  26.094   3.703
 5824W        W72365  23.163  12.590  14.499
 5825W        W72366  43.398  39.866   4.551
 5826W        W72367  10.663  33.569  10.281
 5827W        W72368  11.147   9.432   1.713
 5828W        W72369  20.722  40.424   1.003
 5829W        W72370   5.359  11.247  12.858
 5830W        W72371  15.761   5.863  12.130
 5831W        W72372  44.431  41.484   2.296
 5832W        W72373  15.895  31.564  12.903
 5833W        W72374   3.271  10.852  13.966
 5834W        W72375  37.577  19.615  11.641
 5835W        W72376  23.159  24.444  12.039
 5836W        W72377  35.400  33.565   3.801
 5837W        W72378   4.229  37.652   4.706
 5838W        W72379   1.665  14.664   5.229
 5839W        W72380  40.817  19.054   3.708
 5840W        W72381  37.314  25.484   0.831
 5841W        W72382  42.282  22.224   2.623
 5842W        W72383  31.611   6.469   4.237
 5843W        W72384   6.513  42.111   4.103
 5844W        W72385  15.149  12.837   0.306
 5845W        W72386  10.919  22.378   1.859
 5846W        W72387  29.952   6.612   3.895
 5847W        W72388  35.513  23.159   0.894
 5848W        W72389  24.637  41.311  12.018
 5849W        W72390  19.033  25.293  14.560
 5850W        W72391  44.038   9.286   1.327
 5851W        W72392  36.544  36.696  11.103
 5852W        W72393  34.305  44.259   2.910
 5853W        W72394  13.251  42.066   4.248
 5854W        W72395  40.924   6.568  10.561
 5855W        W72396  22.198  27.487  14.309
 5856W        W72397  15.361  26.454  14.741
 5857W        W72398  11.402  11.763  14.092
 5858W        W72399   5.743   0.048  10.618
 5859W        W72400  20.702  30.084   2.856
 5860W        W72401  26.393  18.195  10.291
 5861W        W72402  14.716  22.019  10.696
 5862W        W72403   3.845  16.233  14.285
 5863W        W72404  23.518  21.320   0.676
 5864W        W72405  21.439  42.676   4.129
 5865W        W72406   9.732  34.941  12.513
 5866W        W72407  21.703  36.155  10.563
 5867W        W72408  35.088  17.614  10.950
 5868W        W72409  44.393  23.025   0.989
 5869W        W72410  35.414  22.132   4.794
 5870W        W72411  24.559  25.352  12.118
 5871W        W72412  28.019  36.542  13.518
 5872W        W72413  44.083  32.032  13.033
 5873W        W72414  18.504   2.348   1.917
 5874W        W72415  43.987  39.367   3.575
 5875W        W72416  31.270   5.209   3.095
 5876W        W72417   5.832  27.054  14.665
 5877W        W72418  13.597  43.259   0.786
 5878W        W72419  20.242  21.483  14.327
 5879W        W72420   7.232   1.242   3.686
 5880W        W72421  36.573  11.995  14.360
 5881W        W72422  36.872  22.094  13.490
 5882W        W72423  25.619   1.365   5.045
 5883W        W72424  23.132  33.370  13.079
 5884W        W72425  13.263  20.011   2.414
 5885W        W72426   9.525  15.803  10.049
 5886W        W72427  24.018  40.827  13.905
 5887W        W72428   9.756  34.467   2.853
 5888W        W72429  21.213   7.835   0.033
 5889W        W72430   4.796   1.819   3.228
 5890W        W72431  15.675  25.768  11.636
 5891W        W72432   0.982  44.956   3.780
 5892W        W72433  18.530  44.166  14.989
 5893W        W72434  33.416   2.631  13.450
 5894W        W72435  36.540  16.985   4.170
 5895W        W72436  22.663  12.326   3.257
 5896W        W72437  28.679  42.012   4.670
 5897W        W72438  31.352  42.278  10.704
 5898W        W72439  17.004   0.888  13.849
 5899W        W72440   8.873   1.343  12.046
 5900W        W72441   7.896  35.743   4.539
 5901W        W72442   1.944  36.910  11.969
 5902W        W72443  19.206  40.802   1.996
 5903W        W72444  38.612  19.304  13.958
 5904W        W72445  26.433  38.363   3.876
 5905W        W72446   1.981  32.087  14.421
 5906W        W72447  17.216  19.170  14.862
 5907W        W72448  31.511  41.093   0.456
 5908W        W72449  21.275  22.547   2.421
 5909W        W72450  29.070  27.820   0.654
 5910W        W72451  13.603   2.303   3.099
 5911W        W72452  23.236  13.224  12.609
 5912W        W72453  17.263   5.407   2.964
 5913W        W72454  24.393   4.544   5.312
 5914W        W72455  28.634   8.605  13.461
 5915W        W72456  29.751   0.702   2.270
 5916W        W72457  36.639  11.876   2.000
 5917W        W72458  11.078   0.432   4.595
 5918W        W72459   6.479  44.448   0.656
 5919W        W72460   8.508  21.661   2.874
 5920W        W72461   0.728   8.546   4.037
 5921W        W72462   5.848  37.534  11.454
 5922W        W72463   4.852  27.901   3.606
 5923W        W72464  20.320  24.746  13.004
 5924W        W72465   6.330   1.415  13.536
 5925W        W72466  13.149  35.142   4.132
 5926W        W72467   1.281  16.309   3.322
 5927W        W72468  42.490  10.390  13.390
 5928W        W72469   8.851  34.208  13.124
 5929W        W72470   7.683  24.694   2.166
 5930W        W72471  41.287  17.892   1.358
 5931W        W72472  39.144  36.497  10.522
 5932W        W72473  43.583   8.884   0.943
 5933W        W72474  43.260   7.899   0.661
 5934W        W72475   6.917  10.348   4.107
 5935W        W72476  17.760  32.604  10.872
 5936W        W72477   4.819   4.421   4.432
 5937W        W72478  21.954   2.681   4.201
 5938W        W72479   7.409  11.907   1.975
 5939W        W72480  41.112  13.449   1.634
 5940W        W72481  42.028  33.994   3.340
 5941W        W72482  31.386  10.740   0.256
 5942W        W72483  41.867  39.398  14.758
 5943W        W72484  25.670  44.489  14.352
 5944W        W72485  31.072  32.903  13.480
 5945W        W72486   5.148  27.943  11.232
 5946W        W72487  23.495  40.928  12.405
 5947W        W72488  34.677  44.567  12.134
 5948W        W72489  10.162   7.544  10.870
 5949W        W72490  27.970  39.927  14.450
 5950W        W72491  31.537  21.075  12.251
 5951W        W72492  42.967  28.399  11.678
 5952W        W72493  38.662  25.450  11.444
 5953W        W72494  24.233  20.044  13.826
 5954W        W72495  19.748  11.569  14.801
 5955W        W72496  32.318   1.989   0.502
 5956W        W72497  36.028  22.291   4.160
 5957W        W72498  34.167  19.212  12.940
 5958W        W72499  36.170  22.548  13.842
 5959W        W72500  23.457   0.808   2.493
 5960W        W72501   5.814  15.094   3.592
 5961W        W72502  20.697   3.328   0.886
 5962W        W72503   9.883  44.116   2.696
 5963W        W72504  17.598   3.178  12.249
 5964W        W72505  37.117  33.469   4.074
 5965W        W72506  18.046  44.293  13.068
 5966W        W72507  40.640  14.965   4.190
 5967W        W72508  37.878  44.312   3.886
 5968W        W72509  33.105  23.634  14.886
 5969W        W72510   1.750  12.845  13.479
 5970W        W72511   4.934  12.629   0.326
 5971W        W72512   0.435  29.779   3.547
 5972W        W72513  27.432  13.377   4.596
 5973W        W72514  10.187  24.942   0.945
 5974W        W72515  31.014  28.166  14.575
 5975W        W72516  36.962  20.281   4.102
 5976W        W72517  41.053  16.181  11.551
 5977W        W72518  34.967   8.134   3.253
 5978W        W72519  10.645  24.811  14.826
 5979W        W72520  26.604  33.802   2.286
 5980W        W72521  32.910  40.959  14.642
 5981W        W72522  26.829  35.035  13.426
 5982W        W72523  28.946  14.027  12.485
 5983W        W72524  37.901  26.725   3.830
 5984W        W72525  40.039   0.427   4.044
 5985W        W72526  16.778  41.626   4.432
 5986W        W72527  33.364  43.988  12.472
 5987W        W72528  14.835   9.645  10.701
 5988W        W72529   4.718  31.219   1.405
 5989W        W72530   7.153  13.195  11.604
 5990W        W72531  14.753  25.251   1.437
 5991W        W72532  35.779   1.628  11.119
 5992W        W72533  39.291  37.787  14.617
 5993W        W72534  33.914   8.326   2.100
 5994W        W72535  23.987  12.251   0.023
 5995W        W72536  31.879  34.401  12.846
 5996W        W72537  40.624  42.230   1.430
 5997W        W72538   4.542  38.114   3.938
 5998W        W72539   2.742  27.170   2.852
 5999W        W72540  27.762   5.638   1.286
 6000W        W72541  12.344  40.500  14.489
 6001W        W72542  44.756   9.695  14.831
 6002W        W72543  40.308  35.511   3.114
 6003W        W72544  27.732  32.242  11.094
 6004W        W72545   2.148  35.913  14.242
 6005W        W72546  23.684  37.613  13.604
 6006W        W72547   4.205  40.707  13.769
 6007W        W72548   3.731   9.164   2.293
 6008W        W72549   0.738  31.476   2.680
 6009W        W72550   1.398   4.109   2.847
 6010W        W72551   5.604  30.468   1.313
 6011W        W72552   9.626  39.804  13.896
 6012W        W72553   5.289  37.639  12.062
 6013W        W72554   8.997  16.801   2.820
 6014W        W72555   5.187  11.600   2.883
 6015W        W72556  17.743  42.977   1.674
 6016W        W72557  44.230  25.036  13.914
 6017W        W72558  33.041  34.380  11.724
 6018W        W72559  39.447  11.483  12.025
 6019W        W72560  42.770  35.541  11.519
 6020W        W72561   5.727  18.590   0.383
 6021W        W72562  29.539  24.969  13.522
 6022W        W72563  29.373  22.156  12.053
 6023W        W72564  37.553  44.613   3.588
 6024W        W72565  25.672  24.015   3.811
 6025W        W72566   7.069  31.788   0.995
 6026W        W72567   8.267  29.597   1.165
 6027W        W72568   2.213  20.762  12.037
 6028W        W72569  32.951   0.800   3.310
 6029W        W72570  20.263   4.354   1.435
 6030W        W72571  27.899  15.597  12.871
 6031W        W72572  16.056   4.688  11.662
 6032W        W72573  19.268  25.689   4.831
 6033W        W72574   4.139   7.193   4.170
 6034W        W72575  36.476  37.070  12.019
 6035W        W72576  27.838  43.976   4.155
 6036W        W72577  23.738  32.476  13.996
 6037W        W72578  25.945   5.552  12.024
 6038W        W72579  28.839   6.305   2.119
 6039W        W72580  23.788  42.480  13.424
 6040W        W72581  22.045  36.858  14.344
 6041W        W72582  11.825  31.714   3.422
 6042W        W72583   0.112  23.447   2.387
 6043W        W72584  20.489  35.832   2.303
 6044W        W72585  25.495   7.618   3.897
 6045W        W72586  11.221   3.268   1.155
 6046W        W72587   7.813  19.234  12.494
 6047W        W72588  37.148   2.299   5.092
 6048W        W72589  21.313  13.935   1.818
 6049W        W72590  26.718   9.920   4.771
 6050W        W72591  10.020   5.940   2.317
 6051W        W72592  36.493  44.967  12.442
 6052W        W72593   8.451  37.700   1.277
 6053W        W72594  12.150  15.137   0.921
 6054W        W72595   0.356  22.038   2.210
 6055W        W72596  20.713  30.157   1.153
 6056W        W72597  10.825  40.802   1.960
 6057W        W72598  33.886  27.118   2.672
 6058W        W72599  33.875  30.010   0.711
 6059W        W72600  27.512  33.889  11.815
 6060W        W72601  14.698   3.149   3.335
 6061W        W72602  18.529  27.822  10.337
 6062W        W72603   6.796  29.945  14.923
 6063W        W72604  29.492   1.495   4.858
 6064W        W72605  32.331  36.415   0.835
 6065W        W72606  11.465  31.469  11.863
 6066W        W72607  27.524  26.397  11.066
 6067W        W72608  26.890  43.966  12.914
 6068W        W72609  11.558   5.686   1.065
 6069W        W72610  36.353  26.962  10.581
 6070W        W72611  25.512  23.045   0.954
 6071W        W72612  42.456  23.986  14.812
 6072W        W72613  32.079  44.320  12.584
 6073W        W72614  37.519  13.036   4.261
 6074W        W72615  14.637  16.569   4.095
 6075W        W72616  13.230  41.994  14.769
 6076W        W72617  24.744  36.951   4.595
 6077W        W72618  23.700  27.204  14.943
 6078W        W72619  21.178  32.912  11.740
 6079W        W72620  19.770  36.476   4.576
 6080W        W72621  34.425  33.101   0.069
 6081W        W72622  36.919  10.307   4.753
 6082W        W72623  41.201   9.349  12.996
 6083W        W72624  16.280  43.866   4.037
 6084W        W72625  27.725  37.025   2.855
 6085W        W72626  17.877  44.220  14.476
 6086W        W72627  17.585  42.157   0.574
 6087W        W72628  30.101  34.013   1.989
 6088W        W72629   0.081  29.151  11.563
 6089W        W72630  35.556  35.645   2.215
 6090W        W72631  39.905  30.605   1.703
 6091W        W72632  40.965  25.134   0.004
 6092W        W72633   0.898   9.745  12.060
 6093W        W72634  40.138  15.856   4.138
 6094W        W72635  31.380  23.118   0.880
 6095W        W72636  34.931  28.387  10.988
 6096W        W72637   7.176   9.176  11.217
 6097W        W72638  34.138  34.138  13.437
 6098W        W72639  31.428  39.485  11.108
 6099W        W72640  44.938  30.687  14.255
 6100W        W72641  40.064  38.528   0.290
 6101W        W72642  26.944   8.848  11.121
 6102W        W72643   6.224   4.136   1.764
 6103W        W72644   1.241  31.462   2.725
 6104W        W72645  36.379  13.814   3.704
 6105W        W72646  38.323  11.271  14.202
 6106W        W72647   6.884  36.522   3.373
 6107W        W72648   7.842  39.808  11.883
 6108W        W72649  33.345  23.671  14.081
 6109W        W72650  20.679  28.692   3.667
 6110W        W72651  41.207  44.818   0.871
 6111W        W72652  23.997  34.643  11.724
 6112W        W72653  11.078   8.357   2.726
 6113W        W72654  44.566  23.483   4.556
 6114W        W72655  21.279  16.208   2.514
 6115W        W72656   1.865  30.341   9.801
 6116W        W72657  33.007  17.786   3.598
 6117W        W72658  24.754  22.752   3.196
 6118W        W72659   1.626  42.547   1.995
 6119W        W72660  33.318  30.297  10.527
 6120W        W72661  13.229   6.882   1.425
 6121W        W72662  17.227   2.843   0.846
 6122W        W72663  25.980  33.892  13.462
 6123W        W72664   9.423   0.244   1.721
 6124W        W72665  41.955  27.623  11.593
 6125W        W72666  33.972  30.987   1.995
 6126W        W72667  27.723   1.714   0.442
 6127W        W72668  40.848   0.878   3.197
 6128W        W72669  12.345  12.720   4.018
 6129W        W72670  36.957  13.377   5.224
 6130W        W72671  28.383  22.686   0.789
 6131W        W72672  16.303   3.188  12.170
 6132W        W72673   7.811  20.083   1.988
 6133W        W72674  19.168  11.350   0.520
 6134W        W72675  10.097  22.186   2.260
 6135W        W72676  24.558  19.552   3.574
 6136W        W72677  17.248   1.240  12.441
 6137W        W72678  18.113  27.581   3.475
 6138W        W72679  44.872  29.627  11.896
 6139W        W72680   1.664  18.533   1.281
 6140W        W72681  12.658  13.737  14.951
 6141W        W72682  11.835  20.811  11.620
 6142W        W72683  29.347  28.141   1.638
 6143W        W72684  32.908  43.748   0.615
 6144W        W72685   1.704  34.015   3.706
 6145W        W72686  21.451  40.046  10.180
 6146W        W72687  38.969  39.407   0.671
 6147W        W72688  34.829  34.396   4.085
 6148W        W72689  24.628  39.464  10.789
 6149W        W72690  28.422   5.658   2.424
 6150W        W72691  15.874  34.023  12.362
 6151W        W72692  33.744  35.748   4.165
 6152W        W72693  24.568  44.125  11.660
 6153W        W72694  17.728   0.358   2.449
 6154W        W72695   3.429  19.162  14.448
 6155W        W72696  19.421   2.744   0.692
 6156W        W72697  34.028  44.493   4.357
 6157W        W72698  25.789  10.367   2.802
 6158W        W72699  29.400  40.923   0.231
 6159W        W72700   8.405  18.635  13.847
 6160W        W72701  31.419   5.994  12.368
 6161W        W72702  18.209  25.061  13.244
 6162W        W72703  38.831  25.452   2.300
 6163W        W72704  35.518  30.836   2.927
 6164W        W72705  22.013  12.617   4.505
 6165W        W72706  22.447  13.379  13.298
 6166W        W72707  10.804  35.531   4.673
 6167W        W72708  26.015  23.086   3.030
 6168W        W72709   8.130  34.023   1.179
 6169W        W72710  26.157   4.882   0.013
 6170W        W72711   0.191  26.093  12.062
 6171W        W72712   1.093  38.976  13.133
 6172W        W72713  24.612  34.147   2.346
 6173W        W72714  32.888   8.058   0.733
 6174W        W72715  17.747  14.191   0.886
 6175W        W72716  20.584  15.867  14.004
 6176W        W72717  12.856  29.212   5.032
 6177W        W72718   5.205  19.202   2.199
 6178W        W72719  39.321  24.020   1.185
 6179W        W72720   0.056  28.586  14.922
 6180W        W72721  36.661  35.383   3.707
 6181W        W72722   4.668  29.426   2.771
 6182W        W72723  41.228  29.865   3.792
 6183W        W72724  28.561  35.070   4.114
 6184W        W72725  13.840  43.992   2.963
 6185W        W72726  26.025  36.851   0.920
 6186W        W72727  42.769  32.635  11.480
 6187W        W72728  29.596  10.396   1.809
 6188W        W72729  31.666  41.096  11.150
 6189W        W72730  44.241   7.717  10.657
 6190W        W72731  18.273  28.905   3.713
 6191W        W72732  18.291  33.959   4.754
 6192W        W72733  36.566  23.468   2.684
 6193W        W72734  19.540  31.513   2.111
 6194W        W72735  37.201  32.832   3.357
 6195W        W72736  44.551  17.401  10.328
 6196W        W72737  20.956  31.787   4.348
 6197W        W72738  25.882  35.520   4.405
 6198W        W72739  28.258  44.254  13.873
 6199W        W72740  28.500  14.901  10.632
 6200W        W72741  13.585  29.533   3.945
 6201W        W72742  17.589   4.436   1.822
 6202W        W72743  35.969  30.696   0.479
 6203W        W72744  21.124  27.238  14.943
 6204W        W72745  25.479   4.645   1.799
 6205W        W72746   4.281  36.170   0.803
 6206W        W72747  24.641  23.931   0.893
 6207W        W72748  42.500  30.040   3.120
 6208W        W72749  28.244  37.747   3.878
 6209W        W72750  39.273   0.388   2.732
 6210W        W72751  42.464  26.416  13.397
 6211W        W72752  14.964  35.549   2.220
 6212W        W72753  30.556  37.945   1.439
 6213W        W72754   3.456   1.344   3.077
 6214W        W72755  21.780  40.887  13.166
 6215W        W72756  16.613  29.925   0.611
 6216W        W72757  27.202  13.338  13.524
 6217W        W72758  10.258   4.954  13.458
 6218W        W72759  38.991  26.277  14.796
 6219W        W72760  26.743  12.682   3.649
 6220W        W72761  37.887  21.995   0.128
 6221W        W72762  13.124  40.254  10.007
 6222W        W72763  30.481  32.481   0.267
 6223W        W72764  18.650   6.721   0.293
 6224W        W72765  15.863  18.121  14.843
 6225W        W72766  44.153  21.027  10.061
 6226W        W72767  34.503  20.772   4.572
 6227W        W72768  32.066  12.116  12.991
 6228W        W72769  28.223  27.761   3.225
 6229W        W72770  27.409  21.998   2.329
 6230W        W72771  26.585  10.627  12.253
 6231W        W72772   1.493  21.732   2.252
 6232W        W72773  29.935   4.496  13.906
 6233W        W72774  13.388   3.385   2.293
 6234W        W72775  34.112  22.510  13.617
 6235W        W72776   5.305  37.870  10.329
 6236W        W72777  23.676  18.241   2.867
 6237W        W72778  37.381  33.071  13.019
 6238W        W72779  17.166  28.064  10.528
 6239W        W72780  28.188  32.974   2.289
 6240W        W72781  14.135  29.281   0.155
 6241W        W72782  17.158  14.877   3.081
 6242W        W72783  27.582  43.794   2.791
 6243W        W72784  27.591   1.247  14.991
 6244W        W72785  20.280  10.384   4.197
 6245W        W72786  35.999  37.015  14.445
 6246W        W72787   4.379  10.223  11.869
 6247W        W72788  28.402  32.151   0.266
 6248W        W72789  11.974  11.824   1.800
 6249W        W72790  40.969  11.790  13.420
 6250W        W72791   5.970   3.570   4.983
 6251W        W72792  16.218  41.908   4.463
 6252W        W72793  42.573  15.893   2.388
 6253W        W72794  22.447  26.862   2.597
 6254W        W72795  27.764  23.115   1.785
 6255W        W72796  43.735  16.166  10.340
 6256W        W72797  21.114  33.877   4.181
 6257W        W72798  32.490   3.582   2.791
 6258W        W72799   4.638   9.117  14.370
 6259W        W72800  37.799  25.222  13.349
 6260W        W72801   0.439  15.938   2.690
 6261W        W72802  17.361   7.674   4.495
 6262W        W72803  33.831  20.151  13.506
 6263W        W72804  26.132  21.213  10.236
 6264W        W72805  35.101  25.590   0.097
 6265W        W72806  39.485  11.645  11.564
 6266W        W72807  22.766   4.999  13.305
 6267W        W72808  29.354   7.937   4.633
 6268W        W72809  40.860  38.804   2.258
 6269W        W72810  43.798  15.185   4.582
 6270W        W72811   6.790  43.901   3.863
 6271W        W72812   3.100  34.925   3.016
 6272W        W72813  15.970  26.243  13.781
 6273W        W72814  12.777  17.966  11.666
 6274W        W72815   8.662  38.712  14.276
 6275W        W72816   9.316   1.168  14.263
 6276W        W72817  17.690  31.086   5.066
 6277W        W72818  25.991  30.506   2.275
 6278W        W72819   2.049  34.920   3.285
 6279W        W72820   5.482  18.234  13.524
 6280W        W72821  34.000  39.616  10.671
 6281W        W72822  13.055   7.977   2.518
 6282W        W72823   8.899  30.330  15.000
 6283W        W72824   0.908  25.656   1.120
 6284W        W72825  34.515   2.598  14.276
 6285W        W72826  20.749   6.917  13.864
 6286W        W72827  39.741  41.283  12.563
 6287W        W72828  18.328  12.082   3.319
 6288W        W72829  38.818  41.329   2.360
 6289W        W72830  27.050  10.373   0.878
 6290W        W72831  23.588  17.233  11.288
 6291W        W72832  36.408  25.732   2.414
 6292W        W72833  43.920  23.448  12.029
 6293W        W72834  34.903  25.871   4.521
 6294W        W72835  14.662  13.261  13.178
 6295W        W72836  24.054   2.500   4.421
 6296W        W72837   7.380   2.820   0.673
 6297W        W72838  15.110  41.745   1.213
 6298W        W72839  39.858  14.864   3.687
 6299W        W72840  31.033  26.659  11.983
 6300W        W72841  26.139   1.025   1.315
 6301W        W72842   3.931  42.488  12.446
 6302W        W72843  17.074  26.760   4.549
 6303W        W72844   4.364  23.103   2.765
 6304W        W72845  15.032  12.350  12.808
 6305W        W72846   7.398  32.705   2.406
 6306W        W72847  33.220  25.574  11.989
 6307W        W72848   3.231  19.303   0.700
 6308W        W72849   9.216  20.676   1.573
 6309W        W72850   2.859   8.176   2.334
 6310W        W72851   9.289  32.616  13.833
 6311W        W72852  33.718  33.612  12.849
 6312W        W72853  30.027  34.477   1.698
 6313W        W72854  37.634   7.524   5.003
 6314W        W72855  13.082  12.423  13.003
 6315W        W72856   2.933   0.691   4.043
 6316W        W72857  27.252   3.819   3.268
 6317W        W72858  26.079  31.865  10.644
 6318W        W72859   7.685   3.710  13.384
 6319W        W72860   5.418  17.712  12.521
 6320W        W72861  17.508  10.318  12.857
 6321W        W72862  23.600  27.595  12.164
 6322W        W72863  18.258  26.007   2.267
 6323W        W72864  33.144  37.571  12.009
 6324W        W72865  34.939  38.219   3.875
 6325W        W72866  25.085  42.692   2.304
 6326W        W72867  25.646   5.684  11.616
 6327W        W72868  36.904  13.966  11.848
 6328W        W72869   6.339   9.899  11.152
 6329W        W72870  17.530  31.471   0.770
 6330W        W72871   4.941  42.874   0.028
 6331W        W72872  36.063  16.633  10.515
 6332W        W72873  15.511  17.713   3.904
 6333W        W72874  35.576  31.536  13.885
 6334W        W72875  10.244   1.505   2.487
 6335W        W72876   3.417  35.962   0.220
 6336W        W72877  12.630   7.900  11.680
 6337W        W72878   4.421  42.808  14.107
 6338W        W72879   2.136  31.494   0.863
 6339W        W72880  30.528  34.500   0.933
 6340W        W72881   9.885  22.686   3.108
 6341W        W72882   3.803   5.814   1.730
 6342W        W72883  31.950  18.148   1.243
 6343W        W72884  18.189  10.797  14.872
 6344W        W72885  29.100  17.602  14.807
 6345W        W72886   0.788  16.809  12.503
 6346W        W72887   3.988  33.567   4.651
 6347W        W72888  25.901   8.590  11.860
 6348W        W72889  43.381   9.822  13.883
 6349W        W72890  25.256  37.034  13.361
 6350W        W72891  13.046  43.430   0.231
 6351W        W72892  18.507  12.164  11.516
 6352W        W72893  43.870  24.135  14.166
 6353W        W72894  36.581  12.364   4.935
 6354W        W72895   4.934  10.596   3.423
 6355W        W72896  41.596   5.522   0.105
 6356W        W72897  37.559   9.205  10.841
 6357W        W72898   8.818  26.736  13.864
 6358W        W72899  37.527   8.832   0.937
 6359W        W72900  14.119  10.038   4.966
 6360W        W72901  35.268  36.807   0.021
 6361W        W72902   6.880   5.749  10.631
 6362W        W72903  41.420  28.240  13.534
 6363W        W72904  41.256  43.430  13.733
 6364W        W72905  37.130   0.877  11.527
 6365W        W72906  34.469  13.799   2.347
 6366W        W72907  32.385  37.278   0.833
 6367W        W72908   7.648  16.608  14.794
 6368W        W72909  18.061  22.418  14.736
 6369W        W72910  24.760  24.698  11.225
 6370W        W72911  26.734  17.499   3.601
 6371W        W72912   1.187  21.918   4.284
 6372W        W72913   9.082  44.353  14.897
 6373W        W72914  34.991  39.768  10.731
 6374W        W72915  30.677  27.539  11.155
 6375W        W72916  23.697  41.929   0.741
 6376W        W72917  29.188  23.803  14.137
 6377W        W72918  40.934  34.904   3.122
 6378W        W72919  15.743  33.926  11.870
 6379W        W72920   6.521  26.961  11.507
 6380W        W72921  38.177   4.772   1.557
 6381W        W72922   7.873  13.772  10.494
 6382W        W72923  11.460  15.936   1.997
 6383W        W72924  21.606  42.468   4.620
 6384W        W72925  39.198  12.105  12.940
 6385W        W72926  34.065   6.849  13.179
 6386W        W72927  29.629   9.707   0.229
 6387W        W72928  21.046  23.814   2.754
 6388W        W72929  12.138  18.064  12.957
 6389W        W72930  13.676  28.382  11.556
 6390W        W72931  39.399   2.309   0.016
 6391W        W72932  30.983  39.394   3.986
 6392W        W72933   9.330  13.693  11.573
 6393W        W72934  11.289   0.671   0.283
 6394W        W72935  17.262  25.094   0.963
 6395W        W72936  32.152  32.214   2.111
 6396W        W72937  14.223  27.130  11.542
 6397W        W72938  14.476  16.077   4.027
 6398W        W72939   6.657  21.973  11.162
 6399W        W72940  36.991   8.836   1.947
 6400W        W72941  13.583  36.250  11.602
 6401W        W72942  36.203   7.636   4.699
 6402W        W72943  31.543   7.756   4.642
 6403W        W72944  18.230   6.736   2.848
 6404W        W72945   7.294   7.238  13.795
 6405W        W72946  26.085  42.235  14.813
 6406W        W72947  28.928  32.466   2.310
 6407W        W72948  30.568  34.439   0.404
 6408W        W72949  38.845   4.072  11.499
 6409W        W72950  28.895  22.500  12.910
 6410W        W72951  38.849  15.702   3.165
 6411W        W72952  23.120  33.273   0.546
 6412W        W72953  29.777  12.728   1.483
 6413W        W72954  41.568  37.289   1.685
 6414W        W72955  36.380   6.824  13.337
 6415W        W72956  27.491   0.317   4.165
 6416W        W72957  32.655  37.020  13.537
 6417W        W72958  11.357  16.262   4.244
 6418W        W72959   5.169  11.830   3.322
 6419W        W72960  16.611  25.061   0.422
 6420W        W72961  44.355  14.711  14.690
 6421W        W72962  16.690   2.691   4.748
 6422W        W72963  11.264  28.004   1.466
 6423W        W72964   8.781  33.788   2.699
 6424W        W72965  43.235  10.131   3.975
 6425W        W72966  25.122  30.912  10.627
 6426W        W72967  44.819   3.782  11.395
 6427W        W72968   4.891  35.058   3.061
 6428W        W72969  38.673  14.047   2.350
 6429W        W72970  20.693  10.494  12.350
 6430W        W72971  21.795   0.052  13.526
 6431W        W72972  14.986   1.354   3.707
 6432W        W72973  18.178  36.657   4.516
 6433W        W72974   0.568   3.448  10.116
 6434W        W72975  21.939  26.786   2.667
 6435W        W72976  13.562  39.986  11.707
 6436W        W72977  15.710   6.843   2.588
 6437W        W72978  18.226   8.429  14.910
 6438W        W72979  19.073   3.644  13.412
 6439W        W72980  21.563  39.527  12.210
 6440W        W72981  12.965  40.538  10.444
 6441W        W72982   1.278  24.049  11.886
 6442W        W72983  40.926  42.758  14.885
 6443W        W72984  19.345  33.515   3.050
 6444W        W72985   8.157  27.894  13.411
 6445W        W72986  40.604   1.765   3.614
 6446W        W72987  14.693  37.452   2.364
 6447W        W72988  34.972  24.294  14.831
 6448W        W72989  36.568  39.444   1.311
 6449W        W72990  16.677   3.692  11.158
 6450W        W72991  10.595   3.623  14.480
 6451W        W72992  23.440   4.020   1.851
 6452W        W72993  25.983  20.056   0.274
 6453W        W72994  28.978  38.112   4.801
 6454W        W72995  13.379  10.731   1.777
 6455W        W72996  14.550   3.264  10.491
 6456W        W72997  17.385  29.386   0.756
 6457W        W72998  19.018  34.844   1.911
 6458W        W72999   8.451  15.812   5.173
 6459W        W73000  10.785   4.883   1.729
 6460W        W73001  33.456  20.662   2.292
 6461W        W73002  42.254  29.670   0.736
 6462W        W73003  14.341   8.786  10.678
 6463W        W73004  35.438  28.293  14.973
 6464W        W73005  39.592  22.065   2.608
 6465W        W73006   7.953   3.369  14.185
 6466W        W73007  16.187  19.085   3.680
 6467W        W73008   0.643  23.004   4.995
 6468W        W73009   7.770  11.313   3.120
 6469W        W73010  26.967   6.479   1.856
 6470W        W73011   6.031  36.489   0.161
 6471W        W73012  40.202  29.654   1.396
 6472W        W73013  16.386  31.401   3.177
 6473W        W73014  24.666  21.730   2.719
 6474W        W73015  27.697   5.301  13.387
 6475W        W73016  14.878   2.418   0.725
 6476W        W73017   1.045   6.947  12.866
 6477W        W73018  17.760  12.590  14.229
 6478W        W73019  30.642  19.591  13.357
 6479W        W73020  20.376  12.751   3.684
 6480W        W73021  11.665  12.206  10.745
 6481W        W73022  39.002  36.114  10.822
 6482W        W73023   2.640  25.634  11.902
 6483W        W73024   6.410  36.511  12.155
 6484W        W73025  18.640  25.727  12.773
 6485W        W73026  26.783  29.635  11.970
 6486W        W73027   4.572  13.361   0.786
 6487W        W73028   8.806  34.142  10.575
 6488W        W73029  29.469  16.817   2.890
 6489W        W73030  23.801  28.181  14.288
 6490W        W73031  39.482  18.307  10.982
 6491W        W73032   9.372   6.747   2.666
 6492W        W73033  25.009  29.694  11.840
 6493W        W73034  41.055  17.239   1.675
 6494W        W73035  32.904  44.409  10.717
 6495W        W73036   8.857  17.870   1.306
 6496W        W73037  33.168  42.818  11.124
 6497W        W73038  37.514  25.248   2.419
 6498W        W73039  15.385  39.060   4.163
 6499W        W73040  37.715  41.415  12.437
 6500W        W73041  38.079   3.004  11.596
 6501W        W73042  16.155  41.824   3.441
 6502W        W73043  20.721  39.055  10.768
 6503W        W73044  19.449  31.362   3.767
 6504W        W73045  23.550  23.423  13.014
 6505W        W73046  14.954   1.853  11.204
 6506W        W73047   9.648  38.928  14.393
 6507W        W73048  27.920  16.785   1.601
 6508W        W73049  40.753  16.408   2.213
 6509W        W73050  22.869   8.879   3.533
 6510W        W73051  35.014  32.876   0.719
 6511W        W73052  16.148   4.365   1.564
 6512W        W73053  22.024  21.420   1.865
 6513W        W73054  38.199  30.376   2.840
 6514W        W73055  37.781  16.757   0.401
 6515W        W73056  11.168  38.024  10.552
 6516W        W73057   2.457  32.485   0.841
 6517W        W73058  14.409  26.954  11.986
 6518W        W73059  25.918  36.312   4.904
 6519W        W73060  17.079  24.182   4.161
 6520W        W73061  40.437   4.264  11.655
 6521W        W73062  41.001  10.255  12.604
 6522W        W73063  38.916  23.904   0.894
 6523W        W73064  38.527  39.834   4.738
 6524W        W73065   1.990  17.774  14.229
 6525W        W73066   2.677  15.645   0.406
 6526W        W73067  25.976  11.272   0.595
 6527W        W73068  33.828  28.478  11.898
 6528W        W73069  27.667  29.212  14.874
 6529W        W73070  25.204  44.540  12.095
 6530W        W73071  39.844  27.388   1.858
 6531W        W73072  35.560  42.418   0.754
 6532W        W73073  15.382  39.985   4.785
 6533W        W73074  29.749  40.632  14.190
 6534W        W73075   2.814  23.955  11.468
 6535W        W73076   0.557  38.276  12.599
 6536W        W73077  41.650  41.849  14.122
 6537W        W73078   3.645  32.713   5.237
 6538W        W73079  23.605  29.925   0.520
 6539W        W73080  22.490   0.016  13.766
 6540W        W73081  16.826   0.259   4.349
 6541W        W73082  39.334   8.464  11.570
 6542W        W73083  30.027  25.800  13.045
 6543W        W73084   9.127   4.757  11.828
 6544W        W73085  15.825  25.017  14.986
 6545W        W73086   7.169  25.188   0.578
 6546W        W73087   2.265  43.807   0.788
 6547W        W73088  31.033  21.140  12.936
 6548W        W73089  14.484  20.522   2.305
 6549W        W73090  37.836  37.521   0.404
 6550W        W73091   9.040  42.994   4.823
 6551W        W73092  34.088   6.869  12.662
 6552W        W73093   6.009  15.268   1.769
 6553W        W73094  39.857  10.093  14.407
 6554W        W73095  16.778  35.810  12.870
 6555W        W73096  32.943  12.876  13.545
 6556W        W73097  20.586  44.489   0.255
 6557W        W73098  34.158  41.854  13.195
 6558W        W73099  30.902  24.012   0.725
 6559W        W73100   3.603  36.060   9.970
 6560W        W73101  25.009  14.735  13.051
 6561W        W73102   3.997  38.854  13.982
 6562W        W73103  12.667  28.973  12.480
 6563W        W73104   1.122  44.242  12.863
 6564W        W73105   3.222   1.896  12.983
 6565W        W73106  23.243  25.724  13.351
 6566W        W73107  25.193  39.350  12.073
 6567W        W73108  28.019  17.524  11.019
 6568W        W73109  30.602  21.356  13.121
 6569W        W73110  20.033  17.119   0.822
 6570W        W73111  35.503  33.669   3.310
 6571W        W73112  42.373  11.685  13.353
 6572W        W73113  17.249  33.946  12.339
 6573W        W73114  43.545  10.258   1.748
 6574W        W73115  28.112  39.771   0.847
 6575W        W73116  17.685   0.378  10.428
 6576W        W73117  24.201   4.503  12.892
 6577W        W73118   2.105  28.941   2.800
 6578W        W73119  38.596  31.540  13.071
 6579W        W73120  15.880  14.756   2.874
 6580W        W73121  20.269  21.088   1.725
 6581W        W73122  39.931  26.302  14.894
 6582W        W73123  28.354  18.652  10.802
 6583W        W73124  41.421  40.358  14.634
 6584W        W73125  24.948  33.676   3.052
 6585W        W73126   7.915   5.167   2.779
 6586W        W73127  29.485   2.853   4.883
 6587W        W73128  43.085  29.413  11.521
 6588W        W73129  26.435  20.117   1.379
 6589W        W73130   3.636   1.504  12.383
 6590W        W73131  21.169  42.912  11.210
 6591W        W73132  14.255  14.790  10.593
 6592W        W73133  25.164  26.553  11.328
 6593W        W73134  12.109  28.084   0.440
 6594W        W73135  10.695  31.383   3.873
 6595W        W73136  37.026  27.319   1.889
 6596W        W73137   5.695  43.997   1.906
 6597W        W73138  34.422   6.570   3.776
 6598W        W73139  11.809  15.978   9.971
 6599W        W73140  38.591  31.497   2.254
 6600W        W73141  29.755   7.631   4.505
 6601W        W73142  18.581   0.171   4.516
 6602W        W73143  43.323  42.001  11.731
 6603W        W73144  34.035  22.220   1.775
 6604W        W73145  41.902  21.937   1.424
 6605W        W73146  28.485   0.472   4.326
 6606W        W73147  36.987   9.932  10.414
 6607W        W73148  23.385  42.352   0.872
 6608W        W73149  38.264  14.800   4.146
 6609W        W73150  28.232  34.662  12.551
 6610W        W73151  16.266   0.312  11.989
 6611W        W73152  37.883   7.764   0.265
 6612W        W73153  20.512  31.404  12.091
 6613W        W73154  19.825  38.655  12.951
 6614W        W73155   0.532  11.612  11.627
 6615W        W73156   2.944  14.638   3.261
 6616W        W73157  22.090   7.346   3.713
 6617W        W73158  24.516   1.932   1.752
 6618W        W73159  24.640  26.083   2.339
 6619W        W73160   2.242   5.406  13.486
 6620W        W73161  30.051   5.356   2.210
 6621W        W73162  28.103  11.847  12.084
 6622W        W73163  27.447  24.094   4.487
 6623W        W73164  21.606  44.368  12.684
 6624W        W73165  33.736   3.875  11.152
 6625W        W73166  43.374  41.521  11.501
 6626W        W73167   8.394  37.143   5.465
 6627W        W73168   6.771  16.160  11.620
 6628W        W73169  41.237   0.831  11.693
 6629W        W73170  40.074  11.208   3.745
 6630W        W73171   5.972  22.388   1.552
 6631W        W73172  23.215   8.811   3.152
 6632W        W73173  44.117   0.434  10.615
 6633W        W73174  37.621   1.218  13.340
 6634W        W73175  15.182  30.243  12.908
 6635W        W73176   0.273  19.163  13.125
 6636W        W73177  32.016  13.672   3.086
 6637W        W73178   4.350  23.656  10.649
 6638W        W73179  29.640  42.448   2.781
 6639W        W73180   6.675  29.758   3.251
 6640W        W73181  35.944  41.025  12.532
 6641W        W73182   6.746  43.593   0.701
 6642W        W73183  40.320  22.346   0.454
 6643W        W73184   6.863   7.809   4.618
 6644W        W73185  27.795   5.858   0.417
 6645W        W73186   5.804   3.377   1.475
 6646W        W73187   0.549  24.618  12.587
 6647W        W73188  35.117  32.279  14.324
 6648W        W73189  40.770   3.482   0.268
 6649W        W73190  35.031  40.080  14.438
 6650W        W73191  40.721  44.385   0.443
 6651W        W73192  43.427  28.295  14.542
 6652W        W73193  21.086   2.256  12.071
 6653W        W73194  26.084  22.628   3.898
 6654W        W73195  38.384  27.113   1.841
 6655W        W73196  36.439  32.807   4.530
 6656W        W73197   7.968  20.346  13.414
 6657W        W73198  37.436   0.351  10.404
 6658W        W73199   7.643  37.488  12.023
 6659W        W73200  18.508   0.960  10.268
 6660W        W73201   6.001  41.244   0.664
 6661W        W73202  36.590  26.486  10.687
 6662W        W73203  17.238   6.292  11.196
 6663W        W73204   0.385  42.893  10.541
 6664W        W73205  35.284  27.331   0.073
 6665W        W73206  21.820  24.899   0.979
 6666W        W73207  12.389   9.076   4.568
 6667W        W73208  43.001  35.771  13.504
 6668W        W73209  23.326  37.328  14.475
 6669W        W73210   4.628  31.803  14.747
 6670W        W73211  10.709  38.822   4.347
 6671W        W73212  20.613   4.170  12.944
 6672W        W73213  13.786  34.274   1.824
 6673W        W73214   6.780  25.525   3.237
 6674W        W73215   1.711  30.559   2.697
 6675W        W73216  13.622  34.455  14.804
 6676W        W73217  17.597   9.384  10.685
 6677W        W73218  12.847  15.025   3.851
 6678W        W73219   7.084  12.305  11.479
 6679W        W73220  13.747  40.353   1.488
 6680W        W73221  18.634  27.973   4.911
 6681W        W73222  15.259  26.485   0.826
 6682W        W73223   2.891  33.435  13.855
 6683W        W73224  43.531  18.701   2.188
 6684W        W73225   8.297  10.314   2.915
 6685W        W73226  33.237  23.474   3.568
 6686W        W73227  11.367  24.643   4.071
 6687W        W73228  31.422  14.684   1.371
 6688W        W73229  23.125   7.826   0.884
 6689W        W73230  34.184  11.284   1.951
 6690W        W73231  13.148   0.053   0.824
 6691W        W73232  21.185  27.756  11.406
 6692W        W73233  19.215  38.080  14.644
 6693W        W73234  40.309  35.518   2.599
 6694W        W73235  17.693  12.426   1.753
 6695W        W73236  33.908  40.125  10.709
 6696W        W73237  27.194  41.739  12.663
 6697W        W73238  24.450  36.043   2.362
 6698W        W73239  18.671  17.707   1.003
 6699W        W73240  11.249  38.010   4.068
 6700W        W73241  40.803  32.584  14.166
 6701W        W73242  21.999  21.963   2.584
 6702W        W73243  31.782  42.010   0.266
 6703W        W73244  11.723  26.588  10.340
 6704W        W73245   7.900   1.213   2.110
 6705W        W73246  11.057   2.376   0.192
 6706W        W73247  28.422  13.326  11.555
 6707W        W73248  23.122  25.346   3.679
 6708W        W73249  39.827   1.964   3.170
 6709W        W73250  34.184  19.321  14.980
 6710W        W73251   6.383   8.135   1.717
 6711W        W73252  10.161   7.979   4.129
 6712W        W73253  22.357  30.643   3.249
 6713W        W73254  34.424  21.802   4.743
 6714W        W73255   4.017  30.717   1.408
 6715W        W73256  38.035  36.019  12.569
 6716W        W73257  24.807  16.819   0.554
 6717W        W73258   0.705   5.166  14.765
 6718W        W73259  17.809  37.385   3.707
 6719W        W73260  31.057  22.420  10.791
 6720W        W73261  17.552   1.950  14.573
 6721W        W73262  27.926   1.930  10.785
 6722W        W73263  26.215  43.231  14.903
 6723W        W73264  38.910  31.531   3.885
 6724W        W73265  39.902   5.884   0.024
 6725W        W73266  43.249  43.958   3.212
 6726W        W73267  44.904  22.733   2.178
 6727W        W73268  25.119  11.865   4.096
 6728W        W73269   5.951  17.820   3.292
 6729W        W73270  17.209  31.917   2.279
 6730W        W73271   0.498  43.278  14.383
 6731W        W73272   2.091  16.627  10.219
 6732W        W73273  20.624  34.046   4.093
 6733W        W73274  10.480   6.398   4.722
 6734W        W73275  11.828   6.625   4.081
 6735W        W73276  35.572  33.909   0.371
 6736W        W73277  25.525  22.258   0.463
 6737W        W73278  20.566  29.906  11.949
 6738W        W73279  10.416  33.125  12.545
 6739W        W73280   9.221   5.863  14.885
 6740W        W73281  24.983  18.967   1.503
 6741W        W73282  19.835  36.355   1.030
 6742W        W73283  40.251  15.268   2.097
 6743W        W73284  34.905  29.593  11.706
 6744W        W73285  36.910  33.680   3.106
 6745W        W73286  40.939  36.357   4.612
 6746W        W73287  32.878  44.782   4.707
 6747W        W73288   7.080  41.127   0.026
 6748W        W73289  23.801  15.062  13.827
 6749W        W73290  27.398  10.196  14.938
 6750W        W73291  35.076  16.147  13.052
 6751W        W73292  21.672  27.458   2.849
 6752W        W73293  40.098  22.702  11.045
 6753W        W73294  35.042  36.352  14.944
 6754W        W73295  15.820  33.613  14.413
 6755W        W73296  40.412  15.525  14.317
 6756W        W73297  38.821   1.367  14.738
 6757W        W73298  43.265  35.517  12.830
 6758W        W73299  33.147  31.666  11.628
 6759W        W73300   4.725  17.975  14.924
 6760W        W73301  13.300  16.618   0.778
 6761W        W73302  23.510  17.310   1.831
 6762W        W73303  43.970  13.340  11.603
 6763W        W73304  25.930  13.671  12.839
 6764W        W73305  23.421  18.820  13.680
 6765W        W73306  17.691  14.029  12.676
 6766W        W73307  28.512  25.505  11.503
 6767W        W73308  29.603  26.571  11.303
 6768W        W73309  21.134  16.611  10.615
 6769W        W73310   5.808  13.396   4.354
 6770W        W73311   6.906  40.255  12.066
 6771W        W73312  23.960  28.053  11.957
 6772W        W73313  27.519   8.195   0.868
 6773W        W73314  36.474  14.765   0.473
 6774W        W73315  15.994  23.657   2.185
 6775W        W73316   6.059  34.695   1.366
 6776W        W73317  25.722  10.234  13.316
 6777W        W73318   8.602  25.845   4.569
 6778W        W73319  10.982  27.114  11.357
 6779W        W73320  27.171  25.969   1.168
 6780W        W73321   3.155   4.853   2.386
 6781W        W73322  20.051  12.440  14.817
 6782W        W73323  39.997  38.021   3.711
 6783W        W73324   1.732  32.556   2.594
 6784W        W73325  16.060  34.874   1.625
 6785W        W73326  22.455  24.424   3.711
 6786W        W73327  22.442   6.011   3.741
 6787W        W73328  16.143   9.184  13.947
 6788W        W73329  34.959  30.130  12.847
 6789W        W73330  38.944   9.612   2.653
 6790W        W73331  44.406  44.973   2.245
 6791W        W73332   5.654  13.219   2.628
 6792W        W73333  32.690  22.491  11.911
 6793W        W73334  40.389   9.323  12.285
 6794W        W73335  41.125  37.461   4.075
 6795W        W73336  20.488   8.285   5.163
 6796W        W73337  31.172  43.711   4.332
 6797W        W73338  39.312   7.569  14.934
 6798W        W73339  37.698   6.151  10.935
 6799W        W73340  37.759   6.405  11.853
 6800W        W73341  11.822  37.011  11.266
 6801W        W73342   5.833   7.628   3.678
 6802W        W73343  39.539  21.901  13.983
 6803W        W73344  40.118  25.073   0.475
 6804W        W73345   1.276  33.743   1.145
 6805W        W73346  42.380  15.232   3.076
 6806W        W73347  24.200  19.579  11.170
 6807W        W73348  31.784   3.589   2.820
 6808W        W73349  36.542  42.166  14.685
 6809W        W73350  26.081  44.484   3.109
 6810W        W73351   0.663  27.799   4.265
 6811W        W73352  17.717  34.946   2.212
 6812W        W73353  39.533  28.278  11.953
 6813W        W73354  15.878  29.089   3.680
 6814W        W73355  18.115  15.081   0.754
 6815W        W73356  18.747  22.442  13.665
 6816W        W73357  37.454   8.304  10.960
 6817W        W73358  42.672  20.039  13.108
 6818W        W73359   7.160   8.651  11.120
 6819W        W73360  38.549  43.033  13.516
 6820W        W73361  29.650  15.075   4.046
 6821W        W73362   0.455  37.498  12.280
 6822W        W73363  38.851  36.717  13.085
 6823W        W73364  21.977  41.397  14.771
 6824W        W73365   7.502  23.513  11.691
 6825W        W73366  14.288  10.013  13.430
 6826W        W73367  11.970  22.673  12.141
 6827W        W73368   4.843  14.765   1.723
 6828W        W73369  10.667   2.349   3.359
 6829W        W73370  35.945   1.235   1.476
 6830W        W73371  23.290  30.491  12.870
 6831W        W73372  34.558  14.745   2.449
 6832W        W73373   7.655  25.193  11.640
 6833W        W73374  20.767  23.530  12.627
 6834W        W73375  30.409  30.176  13.835
 6835W        W73376  18.567  12.944   2.198
 6836W        W73377  24.004  22.532   2.667
 6837W        W73378   3.221  16.191  11.995
 6838W        W73379  11.283  27.945  11.658
 6839W        W73380  27.253  38.579  13.826
 6840W        W73381  21.973   5.862  11.805
 6841W        W73382  44.857  33.846   3.258
 6842W        W73383  37.248  11.178   1.950
 6843W        W73384  31.638   9.751   2.197
 6844W        W73385  12.501  27.613   1.459
 6845W        W73386  17.846   3.251  13.013
 6846W        W73387   4.408  22.096   3.501
 6847W        W73388  30.719   3.838   0.102
 6848W        W73389  39.098   0.820  10.407
 6849W        W73390  13.126  12.737   4.695
 6850W        W73391  32.832  16.612   3.310
 6851W        W73392   6.358  33.061   4.784
 6852W        W73393  39.318  44.408  10.624
 6853W        W73394  17.567  10.155   2.639
 6854W        W73395  38.325  14.714   1.789
 6855W        W73396  28.691   0.270  12.822
 6856W        W73397   1.245  32.387   0.786
 6857W        W73398  36.060   5.386  11.416
 6858W        W73399  35.645  42.368   3.716
 6859W        W73400  20.782   8.285   2.614
 6860W        W73401  14.622  17.517  14.885
 6861W        W73402  43.797   8.952  12.947
 6862W        W73403  19.773  24.655  10.810
 6863W        W73404   6.951  17.598   3.198
 6864W        W73405  29.059  25.673   4.520
 6865W        W73406  24.455  32.657  14.548
 6866W        W73407   3.980  28.421   0.767
 6867W        W73408  38.479  17.695   0.851
 6868W        W73409   8.336  39.931   0.207
 6869W        W73410  28.778   7.113  11.488
 6870W        W73411  43.432  37.996   1.926
 6871W        W73412  20.678  16.860  10.856
 6872W        W73413   4.743  42.966   2.744
 6873W        W73414   6.432  40.885   3.689
 6874W        W73415   5.194  42.059  14.037
 6875W        W73416   2.368  22.511  13.309
 6876W        W73417  27.574  17.525   3.117
 6877W        W73418  22.482  17.949   1.927
 6878W        W73419  23.716  31.749  12.482
 6879W        W73420  30.043  24.495   0.395
 6880W        W73421   9.656  27.903   3.589
 6881W        W73422   9.580  24.067  12.375
 6882W        W73423  17.161  44.255  10.892
 6883W        W73424  26.695  19.702  11.721
 6884W        W73425  29.306   1.344   1.889
 6885W        W73426  29.809   4.803  10.257
 6886W        W73427  25.712  44.755  13.402
 6887W        W73428  26.993  41.912  13.439
 6888W        W73429   9.137  31.457  13.446
 6889W        W73430  44.540   3.843   3.036
 6890W        W73431  35.044  11.386   2.305
 6891W        W73432  11.549  25.960  14.832
 6892W        W73433  25.842   2.924  13.173
 6893W        W73434  10.625  40.940   2.418
 6894W        W73435   8.379  41.290  12.829
 6895W        W73436  10.722  17.589   4.391
 6896W        W73437   2.677  39.439  12.242
 6897W        W73438  30.019  10.147   0.917
 6898W        W73439   0.229  38.478  13.045
 6899W        W73440   9.671  23.986  11.883
 6900W        W73441  20.188  18.772   2.497
 6901W        W73442  44.937   7.301   3.390
 6902W        W73443  10.861   4.478  12.011
 6903W        W73444  11.502   1.001  11.835
 6904W        W73445   5.070  18.091  12.745
 6905W        W73446  36.033   0.259  11.065
 6906W        W73447  41.743  40.330  10.657
 6907W        W73448  27.319  34.341  13.020
 6908W        W73449  35.339  17.750   0.275
 6909W        W73450  23.660   3.332  12.676
 6910W        W73451  32.689  32.525  11.558
 6911W        W73452  37.487  12.742  12.630
 6912W        W73453  44.470  11.694   2.667
 6913W        W73454  18.492  35.884   2.762
 6914W        W73455  29.390  22.220  14.746
 6915W        W73456  17.809  16.641  13.247
 6916W        W73457   7.939  34.346   1.537
 6917W        W73458  38.086  16.359  10.257
 6918W        W73459  20.197  29.140  10.238
 6919W        W73460   7.057   3.997   5.063
 6920W        W73461  31.305   4.665  10.096
 6921W        W73462   6.920  22.431  11.214
 6922W        W73463  38.579  40.781  14.731
 6923W        W73464  28.895   9.096   0.268
 6924W        W73465   6.471   8.141  13.659
 6925W        W73466  19.599  10.266   3.771
 6926W        W73467  12.953  29.354   2.358
 6927W        W73468  33.482  12.317  13.101
 6928W        W73469   8.888  42.653  10.123
 6929W        W73470  43.043  44.722  11.099
 6930W        W73471  22.650  13.123  12.070
 6931W        W73472   2.742  25.366   0.178
 6932W        W73473  17.652  37.432   0.469
 6933W        W73474   6.020   2.830   0.739
 6934W        W73475  33.818   6.386   3.236
 6935W        W73476  19.274  27.550  13.467
 6936W        W73477  10.785   2.872  14.899
 6937W        W73478  20.538   5.762   3.900
 6938W        W73479   4.824   7.452  12.426
 6939W        W73480  36.939   0.885   0.715
 6940W        W73481  37.653   4.320  12.205
 6941W        W73482  14.559  37.358   4.129
 6942W        W73483   7.899   7.313   0.036
 6943W        W73484  28.072  41.505  13.421
 6944W        W73485  43.048  18.728  11.710
 6945W        W73486  29.461  29.147  13.419
 6946W        W73487  15.670  40.538  14.482
 6947W        W73488   7.779   7.172   2.796
 6948W        W73489  20.553  24.882   0.681
 6949W        W73490   1.825  37.347   1.315
 6950W        W73491  29.158  34.358  12.509
 6951W        W73492  37.172  12.626  11.265
 6952W        W73493  11.074  27.237   1.714
 6953W        W73494  43.539   1.287   2.872
 6954W        W73495  20.741   6.344   2.736
 6955W        W73496  24.097  40.138  11.956
 6956W        W73497  19.662  16.205   5.009
 6957W        W73498  22.993  31.121   1.695
 6958W        W73499  13.613  12.092   3.753
 6959W        W73500  41.830   2.458   3.314
 6960W        W73501   9.278  11.072  12.014
 6961W        W73502   8.711   9.692   3.353
 6962W        W73503  40.736  43.809   3.716
 6963W        W73504  30.661  20.061  14.830
 6964W        W73505  33.872   5.469  11.902
 6965W        W73506   6.413  28.599  13.775
 6966W        W73507   6.896  33.442   0.496
 6967W        W73508  14.652  33.708  12.074
 6968W        W73509  36.858  14.721  10.744
 6969W        W73510  41.559  44.005   1.467
 6970W        W73511  12.647  18.535   0.445
 6971W        W73512   0.355   4.239   3.748
 6972W        W73513  22.918  36.899  10.801
 6973W        W73514  31.095  18.618   4.075
 6974W        W73515  31.143   0.814   1.711
 6975W        W73516  40.826   5.987   1.994
 6976W        W73517  12.083  44.280   4.272
 6977W        W73518  26.014  29.671  12.904
 6978W        W73519  33.847  18.839  12.412
 6979W        W73520  22.239  27.019  13.380
 6980W        W73521  29.213  12.246  12.909
 6981W        W73522   0.721  18.102   2.862
 6982W        W73523  44.589  29.259  11.666
 6983W        W73524  44.985   5.182   0.322
 6984W        W73525   1.042  15.681   1.833
 6985W        W73526  31.582   8.743   2.183
 6986W        W73527  23.500  19.292  12.234
 6987W        W73528  43.882  44.502   4.178
 6988W        W73529  31.606  18.614   4.160
 6989W        W73530   9.687  27.553  14.846
 6990W        W73531  32.858  19.072   4.181
 6991W        W73532  27.436  42.031   1.726
 6992W        W73533  42.799  15.414   2.332
 6993W        W73534  16.772  27.961  14.945
 6994W        W73535  22.709  16.091   2.398
 6995W        W73536  23.740  42.189  14.884
 6996W        W73537  36.032  18.454   5.081
 6997W        W73538  33.927  14.095   9.541
 6998W        W73539  40.700   3.193  11.132
 6999W        W73540  28.384  30.073   1.962
 7000W        W73541   2.939   1.086  13.285
 7001W        W73542   9.845  16.581  12.929
 7002W        W73543  35.824   8.322   4.113
 7003W        W73544   8.665  38.327   0.016
 7004W        W73545  43.486   0.225   2.817
 7005W        W73546  40.511   5.665  12.555
 7006W        W73547  43.493   9.009  14.249
 7007W        W73548  26.100  33.055  12.895
 7008W        W73549  10.625  11.194   2.869
 7009W        W73550  31.904   3.852   1.677
 7010W        W73551  34.676  10.890  11.458
 7011W        W73552  16.768  42.189   3.248
 7012W        W73553  37.786  28.991  14.857
 7013W        W73554  11.812  34.539   0.305
 7014W        W73555  26.995  21.079   0.243
 7015W        W73556  19.373  22.445  11.116
 7016W        W73557  35.885  23.800   2.230
 7017W        W73558   4.723  15.082  13.829
 7018W        W73559  44.606  42.890   0.676
 7019W        W73560  36.837   3.976  11.484
 7020W        W73561  38.081  27.628   3.675
 7021W        W73562  38.388  35.670   2.645
 7022W        W73563  15.606  13.086   0.282
 7023W        W73564   3.797  30.846   3.193
 7024W        W73565  12.744  21.558  11.527
 7025W        W73566  35.058   5.477  10.410
 7026W        W73567  26.965  13.136   1.327
 7027W        W73568  37.863   7.716   3.744
 7028W        W73569  24.618  13.596   1.058
 7029W        W73570  23.576  40.861  13.590
 7030W        W73571  32.149   2.670   9.932
 7031W        W73572  25.467   8.654   1.193
 7032W        W73573  40.267  13.423  11.250
 7033W        W73574  12.173   5.306  12.352
 7034W        W73575  32.230   2.710   2.686
 7035W        W73576  31.797  19.453  14.033
 7036W        W73577  11.914  21.698   4.689
 7037W        W73578  17.643  30.995   4.180
 7038W        W73579  27.201  34.961  12.533
 7039W        W73580   7.370  35.184   3.260
 7040W        W73581   8.849  39.973   0.305
 7041W        W73582  37.072  20.516   1.460
 7042W        W73583   5.933  37.063  12.614
 7043W        W73584   7.374  10.613   4.308
 7044W        W73585  31.627  20.989  10.813
 7045W        W73586  20.608  28.025   0.538
 7046W        W73587  37.987  30.667  10.767
 7047W        W73588  39.315  16.187   1.157
 7048W        W73589  31.004  41.826  14.152
 7049W        W73590  35.035  10.815   2.332
 7050W        W73591  37.324   3.312  12.405
 7051W        W73592  30.598   4.041  14.332
 7052W        W73593  21.722  38.374  11.571
 7053W        W73594  23.999  29.290   1.007
 7054W        W73595  21.442  11.254  13.804
 7055W        W73596  24.239  18.613   2.426
 7056W        W73597  26.708  17.114  13.827
 7057W        W73598  42.662  30.104   2.194
 7058W        W73599   9.220  24.273   4.262
 7059W        W73600  31.589   5.196   4.555
 7060W        W73601  43.093  43.278  12.899
 7061W        W73602  14.617  28.990   4.121
 7062W        W73603  34.134  43.334   0.352
 7063W        W73604  32.686  29.888   1.826
 7064W        W73605  20.975  15.561  10.648
 7065W        W73606  34.071  22.766   2.827
 7066W        W73607  16.094  14.463  12.956
 7067W        W73608  42.775  42.991   0.918
 7068W        W73609   4.269  11.257   1.278
 7069W        W73610  10.301  19.551   1.581
 7070W        W73611  22.782  13.393  12.480
 7071W        W73612  14.384   0.721   3.770
 7072W        W73613  23.126   1.290  12.040
 7073W        W73614  25.811  27.999  12.951
 7074W        W73615  22.524  42.583  13.901
 7075W        W73616  18.534  40.237  14.887
 7076W        W73617  10.240   4.201   2.491
 7077W        W73618  28.071   1.282   4.525
 7078W        W73619  32.050  27.184  12.054
 7079W        W73620  19.612  27.737  11.138
 7080W        W73621  12.129  20.030  12.037
 7081W        W73622  21.855  14.270  13.993
 7082W        W73623  44.525  21.687  12.241
 7083W        W73624  30.009  26.834   2.870
 7084W        W73625  39.386  35.685   3.261
 7085W        W73626  17.710  23.472   2.817
 7086W        W73627   4.489  26.271  10.282
 7087W        W73628   1.998  18.353   2.655
 7088W        W73629   8.854  43.419   4.573
 7089W        W73630   4.837  42.261  11.857
 7090W        W73631   6.342  44.395  10.205
 7091W        W73632  18.033  32.305   0.638
 7092W        W73633  21.256  40.791   0.287
 7093W        W73634   9.630  18.995   2.930
 7094W        W73635  40.915  11.789   4.024
 7095W        W73636  37.320   5.219   2.718
 7096W        W73637  41.996  43.999   3.729
 7097W        W73638  12.752   0.923  11.484
 7098W        W73639  22.491  22.910   2.812
 7099W        W73640  29.644  31.036   3.731
 7100W        W73641   9.818  24.663   4.294
 7101W        W73642  31.870  16.759  11.299
 7102W        W73643  32.225   1.457   1.318
 7103W        W73644   9.657  36.157  10.761
 7104W        W73645   2.786  33.257  13.384
 7105W        W73646  43.951  17.796   2.843
 7106W        W73647  18.026  16.093   3.125
 7107W        W73648   9.536  44.442   2.953
 7108W        W73649  26.481   3.798   3.610
 7109W        W73650  22.142  27.257  13.842
 7110W        W73651  17.623  29.081  11.518
 7111W        W73652  40.957  15.153  11.468
 7112W        W73653   5.744  27.390   4.504
 7113W        W73654  32.438   0.344   3.692
 7114W        W73655  42.876  39.300  11.805
 7115W        W73656  41.471  18.803   2.744
 7116W        W73657  27.448  28.129  11.156
 7117W        W73658  18.832   5.178   0.449
 7118W        W73659   3.189  35.674  14.406
 7119W        W73660  23.548  23.116  10.635
 7120W        W73661   9.116   9.663   0.896
 7121W        W73662  44.934  16.996  11.135
 7122W        W73663   3.713  36.362   3.533
 7123W        W73664  41.976   2.925   3.465
 7124W        W73665  29.129  12.573  13.770
 7125W        W73666  10.355   5.908  11.743
 7126W        W73667  26.727   2.872   2.089
 7127W        W73668  37.457   6.416   3.520
 7128W        W73669  40.221   9.875   4.203
 7129W        W73670   2.095  37.604  13.511
 7130W        W73671  35.862   8.616  12.894
 7131W        W73672  37.021   7.295   4.226
 7132W        W73673  17.102  29.360  12.944
 7133W        W73674  21.556  26.489  14.642
 7134W        W73675  17.291  15.815   1.914
 7135W        W73676  18.614  31.228  14.020
 7136W        W73677  40.422   0.524   2.114
 7137W        W73678  38.975   4.006   2.515
 7138W        W73679  18.306  31.945   4.551
 7139W        W73680  44.947  18.773   0.077
 7140W        W73681  23.104  41.300  12.840
 7141W        W73682  12.756  15.883  14.953
 7142W        W73683   0.727   1.924   3.242
 7143W        W73684  30.073  11.745   5.048
 7144W        W73685  19.814  25.938  13.518
 7145W        W73686   6.757  15.831   4.770
 7146W        W73687  20.786  31.636   0.533
 7147W        W73688  13.162  19.505  12.377
 7148W        W73689  15.765   6.774  13.156
 7149W        W73690  17.428  35.020  12.064
 7150W        W73691  36.967   6.019   1.793
 7151W        W73692  33.129  20.492  13.293
 7152W        W73693  26.102  37.807   3.175
 7153W        W73694   5.420  24.852   3.077
 7154W        W73695  24.081  29.924   4.958
 7155W        W73696  16.369  15.318   1.731
 7156W        W73697  23.576  22.429   2.319
 7157W        W73698  26.105  41.904  12.154
 7158W        W73699   1.067   3.021   4.351
 7159W        W73700   7.133   5.838  11.192
 7160W        W73701   9.651  35.788  13.069
 7161W        W73702  38.085  21.399   4.766
 7162W        W73703  44.502   4.186   1.979
 7163W        W73704   2.931  19.836  14.282
 7164W        W73705   5.871   4.364   3.832
 7165W        W73706  21.553  10.622  14.866
 7166W        W73707  41.025  10.817   9.857
 7167W        W73708  31.373  40.526   1.211
 7168W        W73709   7.200  30.323  12.216
 7169W        W73710  33.636   4.477  11.452
 7170W        W73711  37.760  32.291  11.975
 7171W        W73712  22.596  20.022  10.328
 7172W        W73713   7.385  38.556  14.784
 7173W        W73714  33.160  12.978  12.172
 7174W        W73715  25.288   6.386  13.861
 7175W        W73716   2.008  39.468   2.450
 7176W        W73717  13.385  20.083   0.922
 7177W        W73718  37.805   2.881   3.404
 7178W        W73719   7.338  12.633   4.590
 7179W        W73720  32.562   3.929  12.017
 7180W        W73721  27.890  17.026  14.438
 7181W        W73722  19.770  16.547  12.153
 7182W        W73723  26.186   1.367  13.864
 7183W        W73724  37.381  41.529  12.843
 7184W        W73725  19.237  19.015  11.051
 7185W        W73726  39.110  29.396  13.065
 7186W        W73727  18.850  21.218  10.437
 7187W        W73728  14.286   3.316  12.051
 7188W        W73729  20.570   0.446   0.405
 7189W        W73730   6.694  14.083   4.117
 7190W        W73731   7.657  26.464  12.043
 7191W        W73732  18.745  24.505   3.128
 7192W        W73733  24.147  38.978  13.636
 7193W        W73734  23.430  34.077   3.808
 7194W        W73735   9.642  31.860  12.033
 7195W        W73736  40.897  25.990  12.885
 7196W        W73737  30.072   2.794  12.553
 7197W        W73738  14.935   0.405   4.075
 7198W        W73739  30.462  26.614  11.602
 7199W        W73740  43.778  11.561  11.521
 7200W        W73741  10.129   8.012   2.365
 7201W        W73742  17.671   5.756   2.817
 7202W        W73743  15.560   2.033  12.096
 7203W        W73744  31.464  32.474   0.127
 7204W        W73745  33.354  24.452   4.677
 7205W        W73746  41.315  38.659  10.811
 7206W        W73747   4.851  23.599   1.120
 7207W        W73748   9.441  19.064  11.234
 7208W        W73749   5.008  30.470  13.638
 7209W        W73750  36.097  15.707   2.685
 7210W        W73751  10.680   4.332   2.179
 7211W        W73752  21.842   4.212  11.974
 7212W        W73753   9.795  40.314   1.035
 7213W        W73754  23.077  28.099   4.231
 7214W        W73755  12.361  22.165  12.785
 7215W        W73756  10.662  10.472   1.494
 7216W        W73757  40.412  30.078   1.189
 7217W        W73758  19.709   4.277  12.302
 7218W        W73759  27.723  44.697  12.515
 7219W        W73760  24.810  43.559   0.971
 7220W        W73761  35.892   1.205   2.982
 7221W        W73762  21.928   0.404  14.893
 7222W        W73763  23.099  13.635  14.513
 7223W        W73764  43.875  26.619  14.500
 7224W        W73765  35.144  10.752   4.014
 7225W        W73766  42.956  33.880  14.924
 7226W        W73767  12.792   9.684   2.044
 7227W        W73768  15.705  37.314   1.987
 7228W        W73769  13.579  35.079   2.760
 7229W        W73770  22.581  18.135  10.714
 7230W        W73771   3.403  33.520   4.484
 7231W        W73772   6.863   7.027  13.997
 7232W        W73773  44.371  29.705  11.738
 7233W        W73774  39.278   2.809  11.320
 7234W        W73775  38.926  24.280  14.938
 7235W        W73776  22.394  22.250  13.854
 7236W        W73777  29.390  21.068   9.874
 7237W        W73778  20.125  11.803  12.673
 7238W        W73779  12.182  16.465   1.350
 7239W        W73780  14.078  17.920   4.061
 7240W        W73781  36.531  15.794   3.646
 7241W        W73782  18.691  36.335   2.090
 7242W        W73783  15.321   2.829  12.243
 7243W        W73784  41.099  12.709   4.418
 7244W        W73785  37.195  18.095  11.167
 7245W        W73786  12.833  23.938   4.556
 7246W        W73787  34.656  32.684   3.311
 7247W        W73788  15.023  35.118   3.628
 7248W        W73789  43.547   3.749  10.448
 7249W        W73790   3.997  11.125  12.743
 7250W        W73791  32.308  24.400  11.174
 7251W        W73792   8.079   4.038  13.531
 7252W        W73793  14.048  37.471   4.092
 7253W        W73794  31.004  13.241   9.747
 7254W        W73795  15.191  44.535   4.647
 7255W        W73796  34.208   1.378  12.446
 7256W        W73797   7.621  11.817   3.201
 7257W        W73798  38.314  43.973  14.502
 7258W        W73799  30.919   2.831   2.443
 7259W        W73800  13.743  14.726   4.160
 7260W        W73801  44.265  13.491  10.104
 7261W        W73802   1.842  11.650  10.834
 7262W        W73803   7.649   8.844  11.102
 7263W        W73804  36.884  34.279  12.093
 7264W        W73805   5.687  30.921  12.456
 7265W        W73806  23.546  33.907   1.315
 7266W        W73807  33.489  22.078   4.504
 7267W        W73808   9.067  36.621   0.761
 7268W        W73809   4.421  24.539   1.628
 7269W        W73810  36.913  24.585  14.452
 7270W        W73811  12.937  41.524   1.360
 7271W        W73812  21.804  33.138  11.369
 7272W        W73813  35.188  20.270  12.276
 7273W        W73814   8.386  11.232  10.573
 7274W        W73815  31.333  40.624  12.515
 7275W        W73816  44.809   5.917  11.135
 7276W        W73817  10.310  11.405   1.485
 7277W        W73818  18.457  11.212   5.428
 7278W        W73819  40.541  41.632   3.685
 7279W        W73820   6.423  22.181  14.983
 7280W        W73821   7.907   8.272  14.835
 7281W        W73822  18.832  42.305  11.594
 7282W        W73823   1.927  41.799  13.835
 7283W        W73824  19.260   4.309  14.014
 7284W        W73825   5.806  32.139   1.347
 7285W        W73826  30.485   6.928  11.114
 7286W        W73827  32.494  34.467  12.969
 7287W        W73828  36.105  11.966   1.329
 7288W        W73829   9.908  23.643   1.403
 7289W        W73830   2.523  34.435   0.122
 7290W        W73831  20.033  42.785  13.388
 7291W        W73832  29.453   6.176   4.707
 7292W        W73833   2.935  11.659  11.636
 7293W        W73834  15.518  36.285  12.529
 7294W        W73835  13.843  32.451  12.369
 7295W        W73836  24.460  12.398  13.460
 7296W        W73837  34.553  28.471  14.843
 7297W        W73838  44.765  44.444   2.632
 7298W        W73839  34.095  19.110  12.031
 7299W        W73840  34.352   5.846  11.206
 7300W        W73841  11.786  35.505   0.316
 7301W        W73842  13.873   0.476   4.183
 7302W        W73843  18.826  29.572  10.941
 7303W        W73844  12.697  24.927  11.377
 7304W        W73845  38.020  28.921  10.593
 7305W        W73846  29.041  33.034   0.443
 7306W        W73847  21.747  35.617   4.246
 7307W        W73848   3.156  10.330  11.928
 7308W        W73849   4.716  43.667   4.147
 7309W        W73850  41.917  36.390   4.625
 7310W        W73851  32.990  31.380   3.289
 7311W        W73852  26.849  36.074  12.039
 7312W        W73853  16.117  28.996  12.442
 7313W        W73854  21.485  18.568   1.907
 7314W        W73855   0.922  11.153  13.193
 7315W        W73856  23.286  23.552  10.401
 7316W        W73857  28.301  15.349   0.220
 7317W        W73858  12.271  36.877   4.617
 7318W        W73859  44.270  20.269  14.835
 7319W        W73860   9.955   0.110   4.473
 7320W        W73861  31.467  37.403  13.472
 7321W        W73862  28.391  41.186  11.019
 7322W        W73863  26.633  26.096   0.003
 7323W        W73864  15.800  15.698  14.439
 7324W        W73865  39.035  36.719  14.371
 7325W        W73866  27.199  30.858   0.761
 7326W        W73867   1.066  23.232   1.867
 7327W        W73868  32.415  39.696  12.877
 7328W        W73869   7.347  16.200   1.692
 7329W        W73870  14.258   7.604  12.416
 7330W        W73871   9.670  22.223  10.541
 7331W        W73872  16.570   8.917  13.864
 7332W        W73873  12.343  30.489  13.839
 7333W        W73874  21.720  33.539   1.434
 7334W        W73875  36.000  31.656  11.522
 7335W        W73876  13.044  10.783  13.598
 7336W        W73877  26.248   2.212  10.526
 7337W        W73878  32.762  20.195   1.962
 7338W        W73879  20.281   9.972  11.650
 7339W        W73880  25.698  23.909   4.701
 7340W        W73881   9.357  23.999  13.350
 7341W        W73882  30.717   4.991   4.413
 7342W        W73883   4.322  14.357  12.879
 7343W        W73884  39.755  42.587  13.050
 7344W        W73885  36.940  43.307  11.352
 7345W        W73886  24.179  13.215  10.668
 7346W        W73887  31.363  27.931  10.518
 7347W        W73888  10.561  33.357   2.359
 7348W        W73889   4.925   7.716   0.346
 7349W        W73890  44.528  13.840   1.675
 7350W        W73891  26.979  43.775   4.598
 7351W        W73892  38.643  39.807  13.409
 7352W        W73893  29.678   1.426  10.832
 7353W        W73894  35.582  11.168  13.868
 7354W        W73895  43.383  34.557   0.756
 7355W        W73896   3.035  10.814   0.381
 7356W        W73897  28.394  32.649  13.526
 7357W        W73898  33.137  17.839  10.641
 7358W        W73899  41.061  36.107   3.712
 7359W        W73900   5.195  29.532  11.654
 7360W        W73901  21.213  13.784   0.391
 7361W        W73902   5.980  15.955  11.897
 7362W        W73903  43.603  42.765  12.561
 7363W        W73904  36.708   2.792  14.530
 7364W        W73905  35.960  25.830   1.163
 7365W        W73906   5.200  35.901  12.491
 7366W        W73907  20.935  43.402  11.209
 7367W        W73908  19.008  31.666  13.806
 7368W        W73909  20.586  39.291  14.347
 7369W        W73910  29.683  35.328   3.062
 7370W        W73911  31.681   6.249  11.922
 7371W        W73912   8.316   8.960   0.862
 7372W        W73913   6.313  28.698  12.059
 7373W        W73914  28.647  14.107  11.174
 7374W        W73915  13.859  26.389   2.782
 7375W        W73916   1.939  23.750  12.132
 7376W        W73917  33.413   2.908  13.890
 7377W        W73918   8.446   2.498  14.452
 7378W        W73919  36.103  44.455   0.164
 7379W        W73920  32.536  14.342  14.242
 7380W        W73921  36.811  39.946  12.516
 7381W        W73922  35.337  30.406   3.936
 7382W        W73923  41.792  27.982  12.493
 7383W        W73924  31.592   3.268  10.294
 7384W        W73925  44.471  15.128  12.946
 7385W        W73926  41.290   6.527   0.324
 7386W        W73927   7.078  25.903  13.397
 7387W        W73928   7.490   8.169   1.281
 7388W        W73929  33.796  29.483  10.347
 7389W        W73930  24.454  13.657   3.410
 7390W        W73931  22.288  28.075  12.728
 7391W        W73932   1.682   0.342   0.126
 7392W        W73933  36.536   2.815  13.132
 7393W        W73934  43.648  33.614  13.641
 7394W        W73935  27.700  39.478   0.726
 7395W        W73936   8.246  29.550  13.733
 7396W        W73937  11.682  27.744   1.245
 7397W        W73938  12.429   6.137   0.527
 7398W        W73939   4.517  15.765  11.647
 7399W        W73940  38.828   3.562   4.473
 7400W        W73941   0.867  22.741   0.764
 7401W        W73942  29.137  16.222   4.878
 7402W        W73943  13.064   4.721   2.387
 7403W        W73944   5.666  13.066  12.865
 7404W        W73945  37.414  40.397   2.162
 7405W        W73946  37.046  31.843   1.416
 7406W        W73947  17.476   5.800  11.550
 7407W        W73948  18.513  16.238   3.061
 7408W        W73949   8.399  19.845  11.499
 7409W        W73950  25.695   5.119   1.849
 7410W        W73951  22.482  20.315  11.294
 7411W        W73952  11.122  40.876   2.428
 7412W        W73953  32.552   0.016  11.448
 7413W        W73954  15.712   8.165   1.536
 7414W        W73955  10.584  44.865  12.418
 7415W        W73956  38.902  25.365   3.257
 7416W        W73957  35.533  11.400   3.235
 7417W        W73958  27.254   6.720  13.977
 7418W        W73959  24.147  11.110  13.318
 7419W        W73960  21.832   3.870  10.643
 7420W        W73961  26.638   9.699  13.107
 7421W        W73962  17.804  31.606   2.157
 7422W        W73963  26.057  29.193  12.018
 7423W        W73964  41.556   5.352   3.788
 7424W        W73965   8.211  22.538  14.788
 7425W        W73966  27.100  18.732  11.265
 7426W        W73967  39.374  31.114   3.255
 7427W        W73968   6.128   2.781   2.933
 7428W        W73969  28.854  26.233   3.130
 7429W        W73970  13.280   4.450  10.609
 7430W        W73971   6.124  42.529   0.912
 7431W        W73972  43.250   6.252   4.793
 7432W        W73973  34.497   0.928   4.581
 7433W        W73974  43.925   4.312   4.171
 7434W        W73975   0.216  37.950   0.946
 7435W        W73976  41.417  27.281  13.381
 7436W        W73977  29.974  23.230   1.741
 7437W        W73978  15.932  19.166   2.413
 7438W        W73979  10.272  34.621  12.423
 7439W        W73980  39.456  19.579  12.440
 7440W        W73981   7.488  42.172   1.700
 7441W        W73982   1.914  11.151  12.477
 7442W        W73983  42.458  14.267   3.462
 7443W        W73984   3.471   8.387  13.867
 7444W        W73985  30.153  32.670   4.324
 7445W        W73986  35.991  37.510   3.659
 7446W        W73987  19.070  33.922  11.010
 7447W        W73988  40.173  30.525  12.759
 7448W        W73989  40.796  11.123   2.492
 7449W        W73990  43.306  42.749   0.038
 7450W        W73991  18.088  30.614   4.209
 7451W        W73992   7.734  39.108   2.348
 7452W        W73993  27.065  33.913   2.851
 7453W        W73994   8.847  23.206  12.996
 7454W        W73995  21.275  17.026   1.848
 7455W        W73996  28.703   7.706   1.813
 7456W        W73997   5.398   1.833   1.627
 7457W        W73998   4.085   9.950   0.754
 7458W        W73999  25.143  26.559   4.327
 7459W        W74000   8.127  37.506   2.320
 7460W        W74001  23.543  26.164  12.585
 7461W        W74002  43.506  22.037   0.931
 7462W        W74003   5.333  12.164   1.688
 7463W        W74004  16.537  35.381   0.672
 7464W        W74005  44.060  29.415   0.357
 7465W        W74006   1.213   2.169   2.809
 7466W        W74007  19.292  33.930  11.472
 7467W        W74008   0.781  30.070   2.696
 7468W        W74009  25.287  42.494   1.410
 7469W        W74010  26.432  13.484   0.380
 7470W        W74011   4.820  28.960  13.378
 7471W        W74012   4.252  11.115   0.770
 7472W        W74013   5.785   4.840  12.456
 7473W        W74014  10.592  33.074  11.930
 7474W        W74015  31.052  22.188  11.246
 7475W        W74016   1.614  20.170   1.243
 7476W        W74017  38.794  35.937   5.006
 7477W        W74018   5.043  19.086   0.515
 7478W        W74019  35.596  14.771   2.460
 7479W        W74020  43.811  37.647  11.847
 7480W        W74021  25.464  29.201  13.567
 7481W        W74022  16.129  29.433   4.577
 7482W        W74023  38.714  14.175  13.609
 7483W        W74024  44.822  16.494  11.243
 7484W        W74025   9.326  28.701  14.600
 7485W        W74026  32.960  25.504   1.349
 7486W        W74027  31.416  20.241   4.794
 7487W        W74028  18.331  29.857   3.638
 7488W        W74029  30.933   2.226  11.881
 7489W        W74030  13.710  11.994   1.868
 7490W        W74031  22.707   8.106   0.752
 7491W        W74032   9.276   7.889   1.795
 7492W        W74033  34.468  19.166   3.302
 7493W        W74034   4.263  19.903  14.891
 7494W        W74035   5.664  12.889  12.348
 7495W        W74036  39.883  13.654  13.855
 7496W        W74037   8.854  17.658   0.003
 7497W        W74038  11.746  27.250  14.177
 7498W        W74039  35.862   9.891  12.087
 7499W        W74040   0.201  22.420   3.233
 7500W        W74041  26.668  25.947  14.509
 7501W        W74042  34.849   4.940   5.143
 7502W        W74043   0.743  12.569   1.623
 7503W        W74044  29.042  18.630   3.804
 7504W        W74045  11.308   8.125  14.427
 7505W        W74046  38.804   7.236   1.299
 7506W        W74047  16.597  29.097   1.803
 7507W        W74048  17.808  26.326   1.204
 7508W        W74049  14.587   5.354   4.590
 7509W        W74050   2.860  13.591  14.588
 7510W        W74051   0.337  43.768  14.321
 7511W        W74052  36.116  22.255  12.994
 7512W        W74053  37.372   5.717  10.800
 7513W        W74054  28.133  23.185  12.828
 7514W        W74055   5.620  39.179  10.335
 7515W        W74056  14.849  29.434  13.694
 7516W        W74057  17.554  35.448  12.320
 7517W        W74058   4.139  31.992   4.021
 7518W        W74059  28.538  18.223  10.542
 7519W        W74060  31.241  33.577   2.655
 7520W        W74061   4.868  40.823   4.840
 7521W        W74062  32.473  19.711   2.677
 7522W        W74063  15.079  43.413  13.899
 7523W        W74064  43.999  22.647  12.539
 7524W        W74065   0.938   9.625   3.145
 7525W        W74066  43.254  37.540   5.114
 7526W        W74067  13.293  43.806   2.221
 7527W        W74068  19.181  15.630   1.085
 7528W        W74069   0.997  26.520   0.796
 7529W        W74070  39.962  27.776  14.760
 7530W        W74071  29.148   4.879  10.924
 7531W        W74072  19.188  22.543  13.416
 7532W        W74073   8.344  39.073   0.103
 7533W        W74074  11.229  26.934   2.337
 7534W        W74075  35.843  27.686   1.517
 7535W        W74076  42.317   1.188   1.788
 7536W        W74077   5.264  15.308   2.719
 7537W        W74078   8.830   0.940   0.497
 7538W        W74079  33.215  14.378  14.676
 7539W        W74080   8.156  43.438   2.269
 7540W        W74081  32.625  36.308  12.016
 7541W        W74082  19.841  38.924   3.652
 7542W        W74083  22.691  33.048  13.028
 7543W        W74084  15.703  15.193  14.543
 7544W        W74085  39.630  29.476  14.846
 7545W        W74086  32.136  37.023  13.665
 7546W        W74087  42.299  15.816   1.748
 7547W        W74088  36.062  17.130   4.360
 7548W        W74089   9.370  39.320  13.841
 7549W        W74090  40.268  18.111  14.325
 7550W        W74091  33.910  13.664  14.798
 7551W        W74092  30.083  22.748   3.588
 7552W        W74093  39.586  17.857   3.568
 7553W        W74094  25.897   8.333  11.429
 7554W        W74095  21.303  14.741   2.173
 7555W        W74096  26.082   3.995   2.664
 7556W        W74097  19.629  16.834  13.129
 7557W        W74098   6.920  21.684  13.305
 7558W        W74099   4.235   7.940   4.747
 7559W        W74100  22.036  44.835  14.921
 7560W        W74101  17.180   1.304  10.172
 7561W        W74102  31.788   5.245  12.037
 7562W        W74103  30.456  16.144  14.257
 7563W        W74104   0.790  27.683   0.867
 7564W        W74105  30.071   9.653   4.253
 7565W        W74106   4.963  15.202   1.963
 7566W        W74107   4.690  31.426  13.516
 7567W        W74108  11.898  28.709  14.636
 7568W        W74109  21.308  27.498   1.349
 7569W        W74110  44.303  19.692  12.733
 7570W        W74111  34.785  43.376  13.151
 7571W        W74112  12.580  44.482  14.659
 7572W        W74113  31.305   1.239  13.570
 7573W        W74114  41.763   4.704  13.427
 7574W        W74115  27.835  11.645  12.990
 7575W        W74116   8.314  36.950  10.737
 7576W        W74117  37.522  27.449   1.762
 7577W        W74118  31.927  25.471   3.712
 7578W        W74119  20.862  21.796  12.935
 7579W        W74120  34.649  34.121   3.657
 7580W        W74121  13.629  21.510   4.878
 7581W        W74122  39.036  36.449  12.202
 7582W        W74123   7.755  19.244   0.806
 7583W        W74124   8.015  30.822   0.245
 7584W        W74125  33.418  42.351  11.043
 7585W        W74126  44.814  42.457   0.004
 7586W        W74127  15.767  11.424   1.354
 7587W        W74128  19.771  13.426  13.999
 7588W        W74129  40.437  32.441   2.950
 7589W        W74130   1.463  25.119  14.390
 7590W        W74131  38.086   7.299   5.037
 7591W        W74132   5.951   7.309   4.609
 7592W        W74133  41.382  33.017  12.470
 7593W        W74134  44.911   4.181   4.061
 7594W        W74135  33.899  23.061  12.789
 7595W        W74136  28.121  41.030  14.723
 7596W        W74137  21.174  36.076   4.611
 7597W        W74138  38.760  16.241   1.831
 7598W        W74139  33.476  35.936  11.156
 7599W        W74140  36.934   6.706  12.241
 7600W        W74141  12.670  23.970   4.069
 7601W        W74142  30.360  35.483   4.398
 7602W        W74143  37.779  32.359  11.047
 7603W        W74144  17.816  11.808   4.384
 7604W        W74145  35.762  42.038  12.450
 7605W        W74146  41.253   4.740  13.300
 7606W        W74147  23.731  20.696  12.930
 7607W        W74148  12.341  34.557   3.394
 7608W        W74149  41.921  17.006  14.955
 7609W        W74150  14.329  39.678   3.807
 7610W        W74151  27.937   0.582  13.984
 7611W        W74152  41.219  23.229  12.452
 7612W        W74153  27.455  11.901  10.897
 7613W        W74154  38.122  26.569  10.429
 7614W        W74155  16.050   0.516   0.170
 7615W        W74156  23.532  10.836  14.429
 7616W        W74157  35.571  12.234  12.624
 7617W        W74158  16.413  21.209  13.341
 7618W        W74159  11.092   5.240   3.322
 7619W        W74160  15.117  27.423   3.779
 7620W        W74161  14.720   1.521   0.932
 7621W        W74162  44.990  16.202  10.833
 7622W        W74163   2.542  44.720   3.214
 7623W        W74164  14.088  35.633   2.352
 7624W        W74165  15.165  20.851   4.921
 7625W        W74166  32.323  29.010   3.651
 7626W        W74167  23.030  13.637   1.241
 7627W        W74168  24.674  13.188   4.183
 7628W        W74169  14.234  10.673   4.757
 7629W        W74170  17.076  12.029   3.712
 7630W        W74171   6.783  25.168  14.386
 7631W        W74172   9.120  34.701  14.943
 7632W        W74173  39.377   9.866  11.518
 7633W        W74174  10.388  38.950  11.978
 7634W        W74175   0.552  16.221  10.891
 7635W        W74176  40.534  11.117  12.945
 7636W        W74177   4.830  43.644  11.913
 7637W        W74178  35.071  33.583  11.864
 7638W        W74179  38.310  25.956  12.162
 7639W        W74180  20.611  24.803   1.184
 7640W        W74181  43.465  28.545   3.596
 7641W        W74182  26.365  34.258   2.302
 7642W        W74183   3.019  44.181  13.956
 7643W        W74184  43.425  38.068   2.466
 7644W        W74185  26.121  20.947  11.104
 7645W        W74186  32.397  38.871   2.270
 7646W        W74187   1.062  19.481   5.237
 7647W        W74188  37.855  32.629   0.206
 7648W        W74189   9.278  12.798   2.731
 7649W        W74190   2.458  17.818  13.548
 7650W        W74191  33.019  40.562   1.353
 7651W        W74192  11.004   9.140   3.199
 7652W        W74193  25.048   4.217  11.622
 7653W        W74194  34.516   5.699   4.626
 7654W        W74195  26.008   0.437  11.119
 7655W        W74196  38.145  23.442   3.963
 7656W        W74197  12.077   9.008   2.217
 7657W        W74198  31.403  37.502  11.986
 7658W        W74199   7.793  44.225  14.942
 7659W        W74200  37.259  36.977  11.389
 7660W        W74201  30.908   2.212  14.337
 7661W        W74202  18.490   0.893  12.912
 7662W        W74203  32.177  37.008  11.085
 7663W        W74204  10.317  30.652   3.937
 7664W        W74205  42.836   7.499  11.935
 7665W        W74206  43.249   4.726  12.628
 7666W        W74207  44.939  41.604   3.535
 7667W        W74208   8.265  44.130  13.319
 7668W        W74209  29.806   5.399   4.167
 7669W        W74210  19.251  36.656   0.190
 7670W        W74211  17.166  44.496  14.857
 7671W        W74212  42.701  19.038  12.055
 7672W        W74213  39.456  22.083   2.106
 7673W        W74214  40.531  16.665   4.006
 7674W        W74215  13.055  36.075   1.980
 7675W        W74216  17.141   0.257  14.400
 7676W        W74217  29.056  11.788  11.573
 7677W        W74218   6.803  22.735   3.550
 7678W        W74219  16.676  35.922   1.268
 7679W        W74220   6.956   4.905  14.999
 7680W        W74221  35.613  21.188  13.057
 7681W        W74222  36.861  24.900  13.366
 7682W        W74223  18.314  39.370   1.249
 7683W        W74224  15.292  22.168   1.355
 7684W        W74225  28.777  28.381  14.963
 7685W        W74226  19.147  42.972  12.126
 7686W        W74227  21.139  42.826   2.727
 7687W        W74228  42.435  37.197   3.820
 7688W        W74229  37.092  14.233  10.495
 7689W        W74230   1.252  35.951  13.532
 7690W        W74231  12.642  18.038  12.904
 7691W        W74232  27.068  26.451  12.402
 7692W        W74233   2.300   1.433   2.531
 7693W        W74234  42.943   6.378  14.457
 7694W        W74235  25.562   4.235  14.801
 7695W        W74236   2.999  30.503   1.344
 7696W        W74237  29.671  44.815  10.854
 7697W        W74238  13.353   5.008  12.068
 7698W        W74239  14.871  27.205   2.426
 7699W        W74240  32.771  17.654  12.641
 7700W        W74241  16.727  33.600  14.954
 7701W        W74242   3.024  12.106   0.559
 7702W        W74243  34.821  12.269   3.728
 7703W        W74244   0.799   5.979   3.637
 7704W        W74245  37.960  18.189  14.730
 7705W        W74246  36.527   5.485   3.634
 7706W        W74247  19.746  24.263  12.907
 7707W        W74248  32.048   9.880   3.519
 7708W        W74249  41.963  22.774   3.841
 7709W        W74250  16.637  15.579  11.438
 7710W        W74251  41.269   9.275  11.259
 7711W        W74252  12.825  35.075   4.542
 7712W        W74253  15.958  20.071   2.674
 7713W        W74254  30.385  30.041   1.487
 7714W        W74255  34.919  17.151  11.923
 7715W        W74256  28.663   1.245   2.591
 7716W        W74257   3.264  24.400  13.028
 7717W        W74258  13.864  28.233  13.758
 7718W        W74259  30.563  37.092  14.667
 7719W        W74260  41.999  16.721  10.767
 7720W        W74261   6.923  41.409  14.291
 7721W        W74262   6.849  29.569   0.507
 7722W        W74263  13.201  33.717   1.426
 7723W        W74264  42.018  23.466  14.056
 7724W        W74265  32.065  14.615   2.184
 7725W        W74266   1.539  28.114  13.560
 7726W        W74267   8.765   9.279   4.072
 7727W        W74268  30.970  22.704  11.205
 7728W        W74269  41.046   0.437  14.825
 7729W        W74270  12.274  30.407   4.056
 7730W        W74271  37.371  44.985  14.779
 7731W        W74272   8.176  38.118   0.323
 7732W        W74273  20.191  12.439  11.066
 7733W        W74274  24.681  36.285  10.698
 7734W        W74275  44.983  41.288  11.583
 7735W        W74276  40.880  29.385  11.598
 7736W        W74277  32.372  30.121  13.620
 7737W        W74278   9.256  31.791  10.677
 7738W        W74279  11.244  27.909   0.954
 7739W        W74280  43.745   0.041  12.542
 7740W        W74281   4.891  19.178   4.362
 7741W        W74282   2.287  13.419  12.332
 7742W        W74283  43.304  42.721   3.213
 7743W        W74284  30.851  15.289   2.428
 7744W        W74285  35.082   0.424   3.081
 7745W        W74286   6.862  31.000  12.999
 7746W        W74287  43.955   7.382   2.110
 7747W        W74288  10.145  32.085   3.378
 7748W        W74289  44.753  33.183   0.251
 7749W        W74290  17.129  39.971   0.565
 7750W        W74291  31.863   3.766   4.553
 7751W        W74292  29.427  25.680  11.449
 7752W        W74293  13.096   1.130   4.069
 7753W        W74294  23.421   2.197   0.032
 7754W        W74295   6.434   7.850  11.449
 7755W        W74296  22.677  24.226   3.303
 7756W        W74297  17.563  23.111   0.544
 7757W        W74298  16.776  33.135  14.439
 7758W        W74299  32.649   0.844  13.421
 7759W        W74300  39.811  36.419   0.803
 7760W        W74301  29.143  13.176  14.461
 7761W        W74302  19.139  15.604  11.561
 7762W        W74303  11.699  19.353  10.875
 7763W        W74304  20.590   8.288  14.483
 7764W        W74305  29.731  27.119   4.617
 7765W        W74306  22.799  21.593   2.604
 7766W        W74307  42.762  37.669  14.412
 7767W        W74308  11.428  16.743  12.383
 7768W        W74309   0.949  14.869   4.086
 7769W        W74310  20.254  36.990   2.580
 7770W        W74311   1.065  24.242  11.444
 7771W        W74312   3.803  17.987   3.670
 7772W        W74313  41.830   6.202  12.759
 7773W        W74314  21.887  31.573  12.533
 7774W        W74315  34.454  39.575   1.735
 7775W        W74316  42.293  12.133  11.160
 7776W        W74317   4.959  25.211   2.174
 7777W        W74318  39.112  16.552  14.427
 7778W        W74319  18.432   7.778  10.984
 7779W        W74320  15.756   3.756  10.174
 7780W        W74321  39.146  37.756   4.145
 7781W        W74322  27.673  30.227   1.441
 7782W        W74323  40.056  15.971   9.802
 7783W        W74324  17.178   3.966  12.049
 7784W        W74325  21.085  38.111   1.733
 7785W        W74326  12.176  16.682   3.313
 7786W        W74327   8.214  32.183   3.246
 7787W        W74328  10.198  29.935  14.461
 7788W        W74329  17.284  15.063   0.718
 7789W        W74330  33.910  32.523   4.592
 7790W        W74331  20.063  24.059  14.733
 7791W        W74332  38.023  27.855  14.237
 7792W        W74333   9.692  42.700   4.278
 7793W        W74334  40.954  24.810   0.470
 7794W        W74335  11.273  19.451  11.870
 7795W        W74336  40.359  28.254  11.594
 7796W        W74337  16.799  23.281   3.276
 7797W        W74338  20.754   3.011   0.465
 7798W        W74339  20.279   0.924  10.565
 7799W        W74340  15.752  40.381  10.923
 7800W        W74341  36.927  16.294  14.351
 7801W        W74342   6.001  28.229  11.108
 7802W        W74343  15.588  20.395   1.971
 7803W        W74344  25.640  13.148   3.522
 7804W        W74345   1.994  38.306   4.183
 7805W        W74346  28.662  36.554  14.571
 7806W        W74347  29.484  27.614   1.164
 7807W        W74348   7.776  42.362   2.788
 7808W        W74349  29.944  10.256  13.435
 7809W        W74350  44.670  43.790  13.590
 7810W        W74351  42.573  20.215  10.559
 7811W        W74352  44.735  14.826  11.565
 7812W        W74353  14.793   8.889  12.389
 7813W        W74354  24.459  31.667   2.390
 7814W        W74355  32.627  28.953   4.056
 7815W        W74356   4.432  35.232  11.468
 7816W        W74357  18.202  23.218   2.657
 7817W        W74358  32.874  43.335  10.424
 7818W        W74359  18.551  44.690   0.818
 7819W        W74360  20.578  28.464  10.829
 7820W        W74361   1.289   2.288  10.266
 7821W        W74362  36.952  44.207  10.692
 7822W        W74363   9.346  41.416   5.003
 7823W        W74364   1.196  18.818  12.410
 7824W        W74365  19.462  10.904   1.770
 7825W        W74366  40.032  41.555   3.821
 7826W        W74367  44.728  22.748   3.112
 7827W        W74368  43.301  23.010   3.158
 7828W        W74369  18.816  29.236  11.884
 7829W        W74370   6.925  12.361  11.946
 7830W        W74371  27.357   7.888   1.859
 7831W        W74372  40.388   3.773  13.077
 7832W        W74373  23.189  30.420   2.386
 7833W        W74374   3.243  28.925  12.640
 7834W        W74375  41.283   8.661   3.782
 7835W        W74376  43.530  37.973   3.787
 7836W        W74377  17.792  15.840  11.428
 7837W        W74378  40.225  44.275  11.026
 7838W        W74379  28.544  32.294  12.016
 7839W        W74380  10.075  18.658  13.251
 7840W        W74381  43.551  34.684  13.064
 7841W        W74382  36.681  43.928   3.288
 7842W        W74383  32.615  20.311  14.872
 7843W        W74384  15.372  23.571   1.157
 7844W        W74385  16.910  31.160  11.533
 7845W        W74386  43.867  33.304   4.024
 7846W        W74387  27.254  13.807  10.879
 7847W        W74388  15.126  13.044  13.325
 7848W        W74389  21.233   5.250  12.616
 7849W        W74390  31.213  12.335   2.945
 7850W        W74391  24.941  35.417  10.457
 7851W        W74392  22.735  17.195  11.190
 7852W        W74393  26.251  19.496   4.133
 7853W        W74394   7.865  12.153   3.500
 7854W        W74395  43.353  22.485   3.383
 7855W        W74396  10.709  42.328   3.188
 7856W        W74397  44.895   5.393   2.030
 7857W        W74398  10.378  26.213   3.411
 7858W        W74399  40.137  16.077  12.619
 7859W        W74400   9.867   3.971   4.922
 7860W        W74401  28.464   1.312  13.470
 7861W        W74402  37.410  21.047  12.490
 7862W        W74403  20.673  41.483   4.223
 7863W        W74404  44.875  28.690  11.209
 7864W        W74405  20.154  28.407  14.974
 7865W        W74406   7.361  26.933   1.161
 7866W        W74407   1.133   5.892   0.364
 7867W        W74408  16.717   2.076   0.608
 7868W        W74409   3.746  37.493   0.886
 7869W        W74410  16.436  22.504   1.211
 7870W        W74411  17.714   7.363  10.692
 7871W        W74412  38.104   1.707  14.806
 7872W        W74413  14.850  34.524   1.272
 7873W        W74414   4.779  29.821  11.853
 7874W        W74415   5.883  31.700  11.976
 7875W        W74416   4.271  28.886  13.163
 7876W        W74417  23.627   2.648  12.022
 7877W        W74418  39.005  37.624   1.340
 7878W        W74419  29.647  13.765  13.362
 7879W        W74420  41.809  39.897  12.335
 7880W        W74421  11.150  22.569  11.610
 7881W        W74422   5.422  27.050  13.356
 7882W        W74423  11.577  37.074  10.755
 7883W        W74424  18.177  35.852  10.946
 7884W        W74425  14.204  12.328   2.539
 7885W        W74426  44.314  22.065  14.074
 7886W        W74427  36.100   2.472  13.921
 7887W        W74428  37.513   3.648   2.840
 7888W        W74429  23.983  13.635  12.027
 7889W        W74430  28.226  41.333   3.285
 7890W        W74431   6.169  29.779   1.268
 7891W        W74432  34.454  36.863  12.430
 7892W        W74433  14.132  22.145   4.452
 7893W        W74434  29.625  32.807   4.516
 7894W        W74435  44.023  44.044  12.655
 7895W        W74436  28.979  41.556  13.516
 7896W        W74437  37.774   7.674  12.031
 7897W        W74438  29.351  27.998   5.408
 7898W        W74439  15.333  24.647   0.825
 7899W        W74440  31.442  30.051  14.430
 7900W        W74441   9.712   4.928   2.218
 7901W        W74442  22.240   4.063  12.352
 7902W        W74443  32.448  28.722  13.976
 7903W        W74444   6.318  11.392   2.156
 7904W        W74445   5.158  22.696  12.925
 7905W        W74446  17.206  23.526  10.150
 7906W        W74447  16.253  21.722   3.216
 7907W        W74448  27.423   0.455  12.123
 7908W        W74449  10.605  28.054  14.298
 7909W        W74450   0.765  26.421   0.336
 7910W        W74451   5.992  36.447   1.719
 7911W        W74452  27.988  20.001   0.244
 7912W        W74453  27.394   6.741   1.422
 7913W        W74454  11.230   1.589   3.564
 7914W        W74455   5.856  30.684   3.733
 7915W        W74456  33.594   0.477   4.576
 7916W        W74457  26.661  33.139   0.104
 7917W        W74458  22.248  37.310   1.389
 7918W        W74459  40.344  24.729  11.534
 7919W        W74460   1.386  26.121  11.684
 7920W        W74461   1.519  26.869  11.367
 7921W        W74462   6.134  35.816   2.070
 7922W        W74463  38.099  36.618   1.337
 7923W        W74464  21.131  18.037   1.775
 7924W        W74465  41.920  15.180  10.804
 7925W        W74466  17.041  36.933  12.406
 7926W        W74467  32.040   7.894  14.649
 7927W        W74468  14.163  11.436   3.112
 7928W        W74469   0.856  26.119  14.902
 7929W        W74470  15.229  28.015  13.811
 7930W        W74471  19.617  36.316   3.285
 7931W        W74472  36.810  21.876  11.173
 7932W        W74473  41.734  25.174  10.111
 7933W        W74474  34.610  37.882   2.678
 7934W        W74475  14.284   2.897   1.244
 7935W        W74476  22.520  37.980  10.339
 7936W        W74477   2.566  24.261   1.188
 7937W        W74478  21.032  12.399   4.232
 7938W        W74479  38.876  30.676   1.770
 7939W        W74480  16.715  25.826   0.932
 7940W        W74481  30.133  17.082  11.381
 7941W        W74482  25.918  40.758  14.892
 7942W        W74483   4.939  15.580   1.435
 7943W        W74484   8.590  10.760  11.636
 7944W        W74485   5.111  36.410  14.332
 7945W        W74486  37.500  39.819   4.727
 7946W        W74487   2.881  23.412   3.725
 7947W        W74488  36.721   7.565   4.558
 7948W        W74489   4.319   6.781  12.347
 7949W        W74490   2.003  43.132  14.029
 7950W        W74491   5.174  25.097  13.463
 7951W        W74492  16.094  42.363   0.212
 7952W        W74493  29.077  19.038  10.452
 7953W        W74494  32.743  29.750   0.124
 7954W        W74495  19.788  27.385  13.487
 7955W        W74496  44.009  15.952   4.980
 7956W        W74497   9.867  30.569   1.688
 7957W        W74498  15.065   5.078  13.126
 7958W        W74499  39.477  39.672  13.515
 7959W        W74500  11.257  42.052  10.734
 7960W        W74501   2.346  25.587   0.495
 7961W        W74502  16.151  39.165   1.338
 7962W        W74503  32.491  35.229  13.528
 7963W        W74504  24.421  34.016   0.014
 7964W        W74505  29.551  42.827   2.412
 7965W        W74506  29.080  40.616   0.512
 7966W        W74507  36.530  25.560  12.421
 7967W        W74508  31.065  31.088   2.223
 7968W        W74509  29.089  35.094  12.908
 7969W        W74510   5.434  28.026  13.551
 7970W        W74511   6.702   8.896   1.287
 7971W        W74512  14.688  10.537   2.405
 7972W        W74513  33.302  22.724   3.245
 7973W        W74514  28.178  20.570   2.753
 7974W        W74515  27.265   9.946   3.221
 7975W        W74516  19.572   6.632   4.642
 7976W        W74517  21.682  21.536  11.616
 7977W        W74518  20.701  17.902  11.086
 7978W        W74519  25.576  21.272   2.820
 7979W        W74520  14.005  41.959   2.250
 7980W        W74521  23.808  14.219  13.056
 7981W        W74522  23.759  39.148   4.249
 7982W        W74523  15.624  30.547  11.438
 7983W        W74524   2.016  16.622   1.278
 7984W        W74525  15.056  12.779  14.714
 7985W        W74526  20.914  33.145  12.598
 7986W        W74527   6.150  24.964   2.699
 7987W        W74528  25.395  14.732  10.722
 7988W        W74529   7.933  16.647   0.259
 7989W        W74530   5.599  43.886   4.573
 7990W        W74531  21.177  23.462  13.395
 7991W        W74532   5.610  43.892  13.872
 7992W        W74533  24.207   6.752  12.575
 7993W        W74534  30.673   8.429   2.277
 7994W        W74535  15.657  26.808   0.889
 7995W        W74536  14.637  43.447   2.300
 7996W        W74537   5.447  34.041   3.665
 7997W        W74538  29.698   9.857   3.332
 7998W        W74539  41.385  24.563   1.885
 7999W        W74540  14.263  33.460   2.662
 8000W        W74541  36.849  38.212  11.629
 8001W        W74542  17.733  19.826   1.520
 8002W        W74543  29.710  15.373   1.324
 8003W        W74544  13.449   6.817  10.655
 8004W        W74545  22.223  15.306   4.195
 8005W        W74546  23.108   5.318  13.524
 8006W        W74547  30.161   7.326   1.780
 8007W        W74548  16.110  41.403   3.156
 8008W        W74549  15.269  31.066   3.699
 8009W        W74550  44.080  30.111  13.120
 8010W        W74551  24.478  44.626  14.786
 8011W        W74552  28.270   5.668   1.184
 8012W        W74553  26.571  44.331   0.455
 8013W        W74554  37.540  25.265  10.377
 8014W        W74555  19.668  34.924  13.052
 8015W        W74556  29.395   8.881   5.008
 8016W        W74557  28.080  37.083   1.391
 8017W        W74558  37.637  38.317  14.504
 8018W        W74559  26.141  33.851   1.425
 8019W        W74560   4.777  26.306   4.830
 8020W        W74561  38.383   8.944   2.332
 8021W        W74562  36.660  12.316   3.640
 8022W        W74563  33.449  28.617   3.453
 8023W        W74564  15.264  14.261   0.299
 8024W        W74565  31.376  15.507  14.696
 8025W        W74566  13.658  24.265   0.438
 8026W        W74567   4.810  32.107   2.440
 8027W        W74568  11.964  20.260   3.237
 8028W        W74569  30.211  11.556  13.016
 8029W        W74570  23.061  32.474   3.254
 8030W        W74571   3.322  20.059  13.940
 8031W        W74572  31.874  37.936   3.699
 8032W        W74573  17.864   5.487   0.352
 8033W        W74574  25.080  31.660   1.327
 8034W        W74575  20.239   9.187   2.897
 8035W        W74576   9.109  25.123  13.877
 8036W        W74577  13.356  16.765  12.130
 8037W        W74578  41.953   6.462  14.326
 8038W        W74579   5.752  32.536   2.290
 8039W        W74580   6.250   4.614   4.103
 8040W        W74581  17.832   5.653   4.552
 8041W        W74582  18.293  11.630  10.668
 8042W        W74583  38.603  23.702  11.184
 8043W        W74584  31.446   1.324   0.843
 8044W        W74585  40.515  24.202   0.895
 8045W        W74586  18.196  13.167   9.857
 8046W        W74587  16.957  27.199   1.657
 8047W        W74588  33.375   9.902   3.900
 8048W        W74589  18.600  28.596  13.757
 8049W        W74590  24.725   2.908   3.515
 8050W        W74591  38.343  32.387  14.035
 8051W        W74592  22.501  27.342  11.630
 8052W        W74593  27.886  19.678  13.745
 8053W        W74594  21.241   7.769  11.216
 8054W        W74595  44.467  41.375  13.509
 8055W        W74596  19.446  42.325   2.300
 8056W        W74597  21.337   0.972   1.512
 8057W        W74598  30.586  37.230   2.153
 8058W        W74599  13.916   3.622   3.122
 8059W        W74600  37.055   5.434   1.001
 8060W        W74601  32.884   1.500  14.416
 8061W        W74602  31.175  21.265  10.959
 8062W        W74603   9.904  17.925  12.050
 8063W        W74604  44.424  16.239   4.130
 8064W        W74605  10.342  25.739  11.220
 8065W        W74606   1.743  17.995   4.602
 8066W        W74607   0.642  11.321   4.746
 8067W        W74608  44.682  37.458  10.457
 8068W        W74609  33.748   1.116  12.394
 8069W        W74610  29.989  34.075  11.588
 8070W        W74611  36.009  36.572   0.843
 8071W        W74612  29.483  13.201  14.056
 8072W        W74613  20.486  22.074   3.208
 8073W        W74614  44.588  38.594   1.011
 8074W        W74615   6.416  24.434  10.466
 8075W        W74616   2.277  43.373   3.117
 8076W        W74617  25.756  22.242  13.310
 8077W        W74618   4.164  19.718  12.427
 8078W        W74619  14.649  24.831   1.154
 8079W        W74620  15.304   1.266  11.905
 8080W        W74621  22.724  19.663   3.150
 8081W        W74622  23.680  42.411  12.418
 8082W        W74623  23.629  26.348  14.761
 8083W        W74624  10.388   7.755   2.727
 8084W        W74625  33.886  36.297  14.428
 8085W        W74626  20.158  40.336   1.235
 8086W        W74627  29.978  41.463   3.620
 8087W        W74628  11.399  10.422  10.309
 8088W        W74629   0.928  31.852   1.261
 8089W        W74630  41.795  10.773   4.791
 8090W        W74631  26.805  21.086   2.684
 8091W        W74632  36.126   0.552   4.474
 8092W        W74633   4.324  38.431   3.154
 8093W        W74634  32.915  39.486  11.266
 8094W        W74635  27.480  34.722   2.375
 8095W        W74636  44.135  41.709  13.268
 8096W        W74637  15.826  38.550  10.971
 8097W        W74638  20.496  34.417  12.541
 8098W        W74639  24.971  16.096  11.415
 8099W        W74640  15.092  37.198  14.715
 8100W        W74641  17.021  38.862   1.216
 8101W        W74642   1.699   1.743  11.032
 8102W        W74643  31.816   5.743  12.189
 8103W        W74644   2.766  39.352   3.922
 8104W        W74645  16.906  38.571   2.361
 8105W        W74646  23.542   7.492  12.100
 8106W        W74647   3.869  33.475   0.850
 8107W        W74648  28.873   2.479  13.846
 8108W        W74649  13.595   4.062   0.525
 8109W        W74650  23.555  12.293  11.615
 8110W        W74651  31.637  11.649   1.804
 8111W        W74652  38.386  15.265  13.985
 8112W        W74653  11.834  10.127  10.754
 8113W        W74654   2.252  38.066  12.259
 8114W        W74655  30.556  28.608   4.248
 8115W        W74656   7.685  43.275   2.332
 8116W        W74657  11.397   5.515  14.004
 8117W        W74658  24.074  36.961   2.263
 8118W        W74659  11.875  23.368   4.021
 8119W        W74660  42.275  12.926  12.007
 8120W        W74661  31.526   7.408   4.262
 8121W        W74662   1.534  28.600   9.840
 8122W        W74663   9.242   2.221  13.501
 8123W        W74664  19.551  11.576   3.282
 8124W        W74665  17.769  40.268   2.734
 8125W        W74666  31.608  10.841  10.618
 8126W        W74667  35.821  34.006  11.696
 8127W        W74668  40.105   5.384  13.408
 8128W        W74669   8.073   4.236   2.903
 8129W        W74670  30.077  32.142   4.265
 8130W        W74671  12.620  18.258  12.051
 8131W        W74672  34.381   4.801  13.405
 8132W        W74673  41.125  32.336  12.026
 8133W        W74674  13.178  18.817  11.519
 8134W        W74675   4.401  35.889   4.254
 8135W        W74676  18.296  30.353   1.397
 8136W        W74677  40.272   0.944  14.873
 8137W        W74678   2.404  35.229  11.643
 8138W        W74679  17.520  20.697  14.890
 8139W        W74680   7.598  31.073  11.175
 8140W        W74681  40.491  13.223  10.789
 8141W        W74682  14.153  10.219   4.483
 8142W        W74683  30.604  14.910   9.909
 8143W        W74684  42.396   2.523  11.421
 8144W        W74685  35.825   4.949   0.822
 8145W        W74686  32.533  25.653  11.567
 8146W        W74687  34.381   0.509   1.691
 8147W        W74688  18.804  43.896   1.074
 8148W        W74689   6.235   2.907   5.451
 8149W        W74690   9.194  43.449  11.699
 8150W        W74691  18.803  41.249   4.425
 8151W        W74692   0.504  28.407  12.003
 8152W        W74693  41.569  18.010  14.910
 8153W        W74694  32.505  21.692  11.648
 8154W        W74695  11.948  12.685  11.620
 8155W        W74696  10.407  20.537   3.403
 8156W        W74697  18.639   7.909  10.490
 8157W        W74698  17.901  20.927  12.883
 8158W        W74699  28.618  15.093  14.050
 8159W        W74700  38.929  38.945  10.565
 8160W        W74701  36.792  30.112   4.820
 8161W        W74702  24.483  35.013   2.432
 8162W        W74703  35.359  30.050   2.189
 8163W        W74704   9.303  35.928  12.677
 8164W        W74705  30.097  15.676  11.530
 8165W        W74706  30.400  24.583   2.827
 8166W        W74707   9.452   2.490   1.578
 8167W        W74708  37.480  14.791   0.360
 8168W        W74709  34.169  30.182   1.599
 8169W        W74710  23.188   7.589  10.240
 8170W        W74711  32.378  40.396   0.236
 8171W        W74712  17.112   4.018  14.671
 8172W        W74713  13.657   1.625   2.038
 8173W        W74714  22.001   7.613   4.156
 8174W        W74715  41.964   3.864   0.460
 8175W        W74716   7.030  37.466   5.014
 8176W        W74717  40.756  23.531  14.047
 8177W        W74718  13.983  33.777   1.948
 8178W        W74719  15.468  24.590  14.881
 8179W        W74720  15.821   0.291  14.701
 8180W        W74721  26.298  37.791  12.009
 8181W        W74722   4.939  35.650   4.176
 8182W        W74723  44.602  17.814  14.905
 8183W        W74724  19.622  27.756  12.112
 8184W        W74725  12.754   7.968  14.399
 8185W        W74726  41.482  37.329  10.793
 8186W        W74727  40.953  31.944  14.848
 8187W        W74728   3.040  25.330   2.349
 8188W        W74729  21.385  32.586   1.195
 8189W        W74730  32.192  19.073  14.964
 8190W        W74731   3.719  40.492   4.491
 8191W        W74732  22.641   5.834   1.449
 8192W        W74733  22.007  42.231  14.386
 8193W        W74734   8.052  33.092   2.782
 8194W        W74735   9.017  37.263   4.304
 8195W        W74736  37.980  37.481  13.951
 8196W        W74737  23.946  17.566   4.807
 8197W        W74738  27.160  25.561  11.695
 8198W        W74739  25.903   0.923   4.038
 8199W        W74740  30.825  10.828   1.826
 8200W        W74741  41.286  29.508   3.413
 8201W        W74742  21.106  15.931   4.029
 8202W        W74743   5.382   0.499   0.711
 8203W        W74744  44.179  41.042   3.321
 8204W        W74745  14.368  42.933  14.146
 8205W        W74746  36.160  25.994   1.977
 8206W        W74747   2.749   5.438  12.769
 8207W        W74748  25.590   6.923  11.043
 8208W        W74749  11.506  10.715   4.887
 8209W        W74750  26.120  17.578   2.252
 8210W        W74751  29.818  27.725  11.972
 8211W        W74752  30.468  42.758   2.545
 8212W        W74753   0.930  37.617   1.784
 8213W        W74754  15.133  28.783   0.142
 8214W        W74755  16.366   1.381  13.373
 8215W        W74756   0.261  21.027  14.426
 8216W        W74757  44.077  43.266  13.026
 8217W        W74758  36.993  30.089  12.462
 8218W        W74759  28.473  32.217   3.710
 8219W        W74760   5.192   1.313  13.031
 8220W        W74761  42.412  21.479  14.360
 8221W        W74762  33.038  24.057   1.398
 8222W        W74763  19.765  43.887  11.127
 8223W        W74764  12.641  17.219   1.167
 8224W        W74765  12.772  41.149  11.936
 8225W        W74766  23.487  12.745   4.050
 8226W        W74767  10.379  41.493   1.424
 8227W        W74768   5.554  30.468  10.722
 8228W        W74769  37.877  10.452   0.057
 8229W        W74770  42.039  28.144   1.834
 8230W        W74771  16.270  15.819   2.647
 8231W        W74772  32.946   9.944   3.606
 8232W        W74773  31.678  29.227   0.900
 8233W        W74774   8.301  40.825  11.200
 8234W        W74775   9.928  14.088  12.556
 8235W        W74776  21.825   8.876   1.981
 8236W        W74777  26.927  29.916   4.175
 8237W        W74778   8.027   4.212  14.263
 8238W        W74779  30.931   5.818  14.013
 8239W        W74780  30.093   8.298  12.972
 8240W        W74781  41.190  20.282  12.895
 8241W        W74782  22.022  44.920  13.997
 8242W        W74783  21.146  27.790   3.258
 8243W        W74784  35.320  19.838   3.725
 8244W        W74785  38.384  42.499   4.154
 8245W        W74786  34.214  18.653   3.278
 8246W        W74787  14.728  26.184  10.457
 8247W        W74788   3.747   7.205   4.540
 8248W        W74789  19.410   9.645  10.757
 8249W        W74790  15.302  23.204  14.754
 8250W        W74791  31.179  35.777   1.665
 8251W        W74792  43.976  11.054   3.829
 8252W        W74793  23.549  35.951  13.825
 8253W        W74794  12.259  43.395   2.704
 8254W        W74795  24.521  10.108   0.803
 8255W        W74796  42.411  39.579   0.195
 8256W        W74797  34.780  28.462   4.026
 8257W        W74798  23.608   0.771  13.468
 8258W        W74799  34.636  31.446   3.736
 8259W        W74800  27.988   8.837   2.762
 8260W        W74801  21.565  24.394   1.398
 8261W        W74802  33.613  21.268   4.068
 8262W        W74803  28.182  39.884   2.323
 8263W        W74804  34.131  17.809  14.909
 8264W        W74805  43.785  27.489   4.110
 8265W        W74806  10.796  29.075   4.313
 8266W        W74807  36.283  34.879  13.892
 8267W        W74808  35.415  26.490   2.277
 8268W        W74809  29.911  20.959  14.834
 8269W        W74810  40.441  22.629   1.785
 8270W        W74811  19.128  14.393   3.705
 8271W        W74812  34.886  38.818   1.199
 8272W        W74813  21.174  43.838   3.508
 8273W        W74814  32.648  28.075   3.228
 8274W        W74815  18.381   7.459   4.518
 8275W        W74816  23.165   7.899   1.422
 8276W        W74817  29.507  30.376  13.843
 8277W        W74818  15.050  40.029  10.830
 8278W        W74819  13.347  21.502  10.489
 8279W        W74820  22.647  23.041  14.307
 8280W        W74821  36.538  44.961   1.318
 8281W        W74822  42.086  27.107  11.544
 8282W        W74823  32.116  22.426   1.481
 8283W        W74824   0.841  41.386   4.461
 8284W        W74825  24.653  24.019   1.784
 8285W        W74826  40.054  41.379   4.819
 8286W        W74827  35.427  30.148   1.653
 8287W        W74828  31.549  39.202  14.759
 8288W        W74829  10.108  18.332   1.373
 8289W        W74830  18.902  18.054   2.684
 8290W        W74831   9.588  41.403   4.523
 8291W        W74832  23.504  21.451   4.608
 8292W        W74833  32.900  40.687   4.089
 8293W        W74834  42.051   2.488   1.813
 8294W        W74835   1.451  32.542  13.398
 8295W        W74836   9.153  38.158   0.747
 8296W        W74837  13.492  35.349  10.961
 8297W        W74838  37.582  41.803  10.632
 8298W        W74839  37.987  16.097   2.269
 8299W        W74840  13.385  23.537  13.514
 8300W        W74841  16.376  34.095  12.457
 8301W        W74842  31.302  22.192  12.850
 8302W        W74843  26.989  18.573  14.755
 8303W        W74844  36.404   7.850  13.014
 8304W        W74845  37.162  32.942  13.509
 8305W        W74846  39.957  34.169  14.602
 8306W        W74847  19.660  32.999  13.029
 8307W        W74848   4.763  11.316  14.986
 8308W        W74849  21.734  14.163   0.026
 8309W        W74850  35.510  41.978   3.407
 8310W        W74851  42.251  24.108  14.318
 8311W        W74852   9.166   9.383   3.404
 8312W        W74853   6.805  30.863  11.605
 8313W        W74854  25.644  42.320  11.115
 8314W        W74855  40.652   5.540   1.771
 8315W        W74856  39.480  37.759   4.574
 8316W        W74857  44.266  32.318   3.630
 8317W        W74858   6.299  23.249  14.191
 8318W        W74859  39.165  19.853  11.567
 8319W        W74860   7.677  35.143  13.379
 8320W        W74861  28.536  32.983  10.592
 8321W        W74862   7.665  43.703   4.369
 8322W        W74863  25.565  43.843   2.698
 8323W        W74864  24.227  35.701  12.113
 8324W        W74865  40.012  19.586  11.147
 8325W        W74866  27.250   5.441  13.610
 8326W        W74867  26.603   1.248   3.201
 8327W        W74868  18.995  29.200   1.993
 8328W        W74869  24.094  34.622  12.950
 8329W        W74870   7.215   8.136  11.142
 8330W        W74871  40.345  42.535  12.081
 8331W        W74872  23.748  29.100  14.954
 8332W        W74873  29.615  11.250   0.740
 8333W        W74874  24.464  11.779  12.826
 8334W        W74875  23.552  40.618   0.824
 8335W        W74876  41.221  12.410  14.959
 8336W        W74877  22.467  32.928  10.556
 8337W        W74878  32.591  13.822   0.475
 8338W        W74879  27.415   2.800   1.232
 8339W        W74880   7.807  25.509   1.621
 8340W        W74881  30.383   3.174   1.895
 8341W        W74882  43.970  13.177   1.585
 8342W        W74883  28.917  10.099  13.418
 8343W        W74884   4.458   0.392  11.667
 8344W        W74885  10.971  39.514   9.855
 8345W        W74886   7.424  12.928   0.806
 8346W        W74887  20.684  14.445   1.031
 8347W        W74888  42.922  37.100  12.676
 8348W        W74889  18.216   1.301  11.181
 8349W        W74890  11.366  28.753  11.923
 8350W        W74891  23.658  29.107  11.150
 8351W        W74892   9.726   3.200  10.996
 8352W        W74893  38.006  33.769   2.617
 8353W        W74894  34.386  42.574  11.599
 8354W        W74895  44.386  38.449  13.804
 8355W        W74896  23.892   6.663   1.242
 8356W        W74897  32.958  28.201  12.137
 8357W        W74898  11.207  37.363   0.461
 8358W        W74899  43.445  37.573  13.750
 8359W        W74900  17.609  25.394   2.660
 8360W        W74901  25.028   8.818   4.621
 8361W        W74902  41.837  25.542  14.331
 8362W        W74903  14.262  14.556   4.742
 8363W        W74904   8.201   8.818  11.095
 8364W        W74905   8.790  26.611   2.682
 8365W        W74906  24.360  21.675   4.245
 8366W        W74907  38.767  42.916  11.194
 8367W        W74908  22.978   2.556   2.833
 8368W        W74909   8.608   0.407   3.306
 8369W        W74910   9.375  40.348   3.299
 8370W        W74911  12.967  42.366  13.555
 8371W        W74912   7.975  37.016  13.287
 8372W        W74913  29.721  11.201   2.836
 8373W        W74914  44.446   2.420   0.211
 8374W        W74915  24.504  29.937   1.689
 8375W        W74916   7.965  11.759   2.848
 8376W        W74917  16.050  11.955   0.857
 8377W        W74918  14.764  10.882  12.437
 8378W        W74919  39.433  13.148   2.867
 8379W        W74920   3.810  42.243   4.114
 8380W        W74921  34.228   5.503   2.329
 8381W        W74922  30.056  43.996   2.212
 8382W        W74923   0.460  18.145   3.336
 8383W        W74924   9.075  43.797  14.845
 8384W        W74925   8.224  17.571   1.784
 8385W        W74926  21.522  44.330   2.658
 8386W        W74927   4.834   7.253   0.566
 8387W        W74928  27.938  42.349   4.322
 8388W        W74929   3.941  43.610   9.698
 8389W        W74930  26.063  20.048   2.261
 8390W        W74931  29.000   5.516  12.084
 8391W        W74932   5.144   4.656  13.083
 8392W        W74933   4.265  22.237   3.025
 8393W        W74934  38.145  27.985  13.454
 8394W        W74935  19.256  34.565   1.145
 8395W        W74936  40.364  13.659   2.736
 8396W        W74937  43.222  27.270   4.152
 8397W        W74938  33.927  27.927   1.482
 8398W        W74939  25.592  41.059   4.216
 8399W        W74940  21.585   3.332  14.557
 8400W        W74941  34.139  41.064   4.512
 8401W        W74942  25.419  13.581   3.286
 8402W        W74943  30.502  42.101   3.276
 8403W        W74944  38.618  19.630   5.009
 8404W        W74945  16.002  35.103  14.914
 8405W        W74946  39.289  20.625  10.198
 8406W        W74947  32.048  23.834   3.140
 8407W        W74948   3.767  35.301   4.562
 8408W        W74949  27.499  27.346   2.289
 8409W        W74950  40.256  21.362   3.298
 8410W        W74951  30.177  13.687  12.710
 8411W        W74952   9.409  14.252   1.637
 8412W        W74953  22.096  24.042  11.579
 8413W        W74954  19.653  43.035   3.801
 8414W        W74955  11.446   3.652   1.430
 8415W        W74956  10.245  27.509  13.921
 8416W        W74957  23.808   2.218  11.837
 8417W        W74958  34.946   1.433  10.254
 8418W        W74959   6.914   5.142  12.278
 8419W        W74960  12.626  29.731   1.101
 8420W        W74961  40.145  20.994   1.446
 8421W        W74962  26.400  27.749  13.526
 8422W        W74963  23.291  41.466  13.794
 8423W        W74964  15.695  36.139   0.271
 8424W        W74965  24.750   1.296  12.897
 8425W        W74966   3.944  44.522  13.925
 8426W        W74967  26.218  17.144  11.184
 8427W        W74968   3.566  18.640  12.119
 8428W        W74969   8.770  44.753   0.773
 8429W        W74970  24.518  14.588  14.535
 8430W        W74971  12.867   5.912  11.989
 8431W        W74972  23.788  31.222  14.332
 8432W        W74973  18.543  14.826  13.805
 8433W        W74974  27.388  35.329  13.935
 8434W        W74975   7.593  36.592  12.469
 8435W        W74976  32.445  11.427   0.103
 8436W        W74977   3.034  36.672  14.059
 8437W        W74978  21.683  33.617  10.656
 8438W        W74979  40.446  14.808   1.211
 8439W        W74980  11.733   1.935   0.878
 8440W        W74981  18.674  39.088   2.721
 8441W        W74982  28.698   8.172   3.074
 8442W        W74983  44.549  26.604  10.681
 8443W        W74984   3.890  39.408  13.861
 8444W        W74985  12.413  42.479   1.416
 8445W        W74986  11.913  25.539  14.853
 8446W        W74987  24.157   2.280   0.538
 8447W        W74988  43.250  28.640  12.037
 8448W        W74989  28.630  24.499   1.451
 8449W        W74990  23.245  26.631   2.914
 8450W        W74991  12.452  29.580  11.789
 8451W        W74992  17.367   5.855  14.315
 8452W        W74993   9.087  30.543  11.685
 8453W        W74994  14.755  43.091  13.018
 8454W        W74995  20.600  13.684  14.340
 8455W        W74996  37.902  38.450  13.471
 8456W        W74997  36.337  17.069  10.373
 8457W        W74998   3.820  33.753   0.402
 8458W        W74999  14.801   8.939   3.531
 8459W        W75000   2.797  40.132   1.375
 8460W        W75001  16.603   1.512  14.264
 8461W        W75002  11.332  11.432  14.960
 8462W        W75003  31.473  32.827   2.730
 8463W        W75004  21.383   3.027  14.023
 8464W        W75005  39.831  36.429  11.683
 8465W        W75006  10.618   5.943   0.659
 8466W        W75007  39.317  20.327   2.740
 8467W        W75008  28.023  27.525  14.293
 8468W        W75009  24.646  38.072   1.730
 8469W        W75010  34.507  34.238  13.075
 8470W        W75011  40.570  21.023  11.553
 8471W        W75012  17.685   8.406   2.268
 8472W        W75013   3.706   9.402   1.364
 8473W        W75014  43.992   3.804  10.770
 8474W        W75015  25.761  35.378  11.584
 8475W        W75016  33.241  10.068  14.506
 8476W        W75017  27.548  33.779   0.397
 8477W        W75018  36.093  23.714   1.293
 8478W        W75019  42.972  16.995   0.660
 8479W        W75020  27.021  40.908  14.807
 8480W        W75021  28.492  24.684   1.916
 8481W        W75022   0.819  41.351  13.335
 8482W        W75023  38.456  17.477  11.419
 8483W        W75024  36.800  27.140  13.039
 8484W        W75025  26.280  36.297  14.485
 8485W        W75026  43.817   8.599  10.657
 8486W        W75027  28.717  18.999   2.299
 8487W        W75028  30.520  44.186   2.716
 8488W        W75029  22.611  38.645   0.025
 8489W        W75030  15.252   6.858   0.432
 8490W        W75031  10.599   9.117   4.589
 8491W        W75032  22.760   3.851   4.542
 8492W        W75033  38.778  33.937  13.519
 8493W        W75034  26.026   9.933  10.428
 8494W        W75035   7.429   7.683  11.117
 8495W        W75036  17.213  23.499   1.773
 8496W        W75037  11.629  17.773   4.369
 8497W        W75038  16.348  42.058  11.621
 8498W        W75039   8.768  25.691  11.068
 8499W        W75040  23.941  29.841   0.920
 8500W        W75041   6.552  24.564  10.951
 8501W        W75042  23.997  39.668  14.248
 8502W        W75043  25.545  35.141   2.451
 8503W        W75044   1.108   8.244  11.221
 8504W        W75045  16.803  41.506  11.991
 8505W        W75046   9.700  12.053   2.732
 8506W        W75047  20.781  13.691  14.823
 8507W        W75048   5.269   7.628  14.944
 8508W        W75049   1.794  35.188   1.768
 8509W        W75050   1.824  38.406   1.412
 8510W        W75051  22.171  20.478   0.833
 8511W        W75052  39.162  39.258  12.027
 8512W        W75053  31.186   4.076  10.712
 8513W        W75054  41.833   2.126  14.316
 8514W        W75055  27.238  25.162   2.060
 8515W        W75056  24.255   9.583  14.298
 8516W        W75057   0.824  23.105  14.508
 8517W        W75058  35.661  36.719  11.177
 8518W        W75059   4.265  39.505   3.378
 8519W        W75060  32.960  28.422   3.588
 8520W        W75061  13.503  11.528  11.405
 8521W        W75062  12.396  16.955   4.206
 8522W        W75063  26.930   3.456   2.488
 8523W        W75064  12.256  15.259   4.687
 8524W        W75065   9.435  41.523   3.372
 8525W        W75066  16.120   6.949   0.885
 8526W        W75067  31.341  18.258   4.455
 8527W        W75068  12.886  32.987  14.477
 8528W        W75069  27.660   4.819   1.288
 8529W        W75070   0.684   8.046   4.119
 8530W        W75071  44.524  41.411  14.999
 8531W        W75072   7.859   9.275   1.770
 8532W        W75073  18.982  17.626   0.016
 8533W        W75074   2.813  33.926   0.448
 8534W        W75075  17.576  12.205  10.629
 8535W        W75076  19.254  43.368   3.789
 8536W        W75077  12.168  18.571   2.387
 8537W        W75078  12.551  30.087   3.582
 8538W        W75079  29.212   9.559  12.066
 8539W        W75080  21.200  15.833  13.469
 8540W        W75081  15.345  37.140  12.994
 8541W        W75082   3.899  35.146  11.450
 8542W        W75083  10.434  18.365   0.973
 8543W        W75084  26.075  43.835   1.703
 8544W        W75085  23.648  36.552   3.651
 8545W        W75086  26.780   8.701   0.723
 8546W        W75087  43.456  44.620  12.687
 8547W        W75088  35.784   3.489   2.246
 8548W        W75089   5.033  27.895  12.419
 8549W        W75090  38.066  38.605  14.686
 8550W        W75091  42.398  13.329  10.712
 8551W        W75092   3.680  21.964  12.708
 8552W        W75093  24.500   1.574   3.137
 8553W        W75094  32.881   7.145  12.893
 8554W        W75095   0.357  24.765   1.786
 8555W        W75096  15.062   5.723  11.391
 8556W        W75097  44.381  12.967  10.294
 8557W        W75098  27.934  40.312   3.665
 8558W        W75099  34.231   6.689   3.322
 8559W        W75100  31.904  30.572   3.630
 8560W        W75101  41.986   9.681   3.793
 8561W        W75102  37.310  13.571   3.729
 8562W        W75103  37.998   5.627   2.789
 8563W        W75104   7.781  21.654  14.864
 8564W        W75105  14.354  21.896   1.346
 8565W        W75106  19.201  17.259   3.341
 8566W        W75107  21.726  15.870  11.124
 8567W        W75108  19.128  22.047  14.102
 8568W        W75109  42.362  38.048  14.396
 8569W        W75110  23.798   6.344  14.083
 8570W        W75111  37.934   4.275  13.490
 8571W        W75112   5.356   5.360  12.727
 8572W        W75113  23.011  36.210   4.158
 8573W        W75114  33.948   8.619  14.916
 8574W        W75115   0.326  15.183  14.033
 8575W        W75116  20.671  17.550   3.319
 8576W        W75117  20.286  23.534  12.397
 8577W        W75118  17.143  44.391  12.521
 8578W        W75119  11.705  26.157   2.121
 8579W        W75120  17.043  39.522   4.879
 8580W        W75121  30.019  15.185   2.711
 8581W        W75122  18.098   9.692   0.742
 8582W        W75123  42.034   3.391  13.590
 8583W        W75124  37.455   7.039   1.138
 8584W        W75125  18.225  16.023   2.200
 8585W        W75126   8.421  34.150   2.569
 8586W        W75127  38.044  26.512   3.247
 8587W        W75128  27.532  15.602   4.634
 8588W        W75129  13.143  29.303   4.157
 8589W        W75130   5.259   1.034   1.462
 8590W        W75131   4.027   9.549  10.613
 8591W        W75132  36.739  43.390  11.824
 8592W        W75133  20.171  44.884  12.030
 8593W        W75134   8.115  22.832   0.208
 8594W        W75135  42.518  21.395  11.079
 8595W        W75136  18.046  12.055   0.418
 8596W        W75137  10.719  28.653  13.020
 8597W        W75138  12.009   1.985   1.320
 8598W        W75139   2.441  15.205   0.243
 8599W        W75140   8.909  33.223   4.081
 8600W        W75141  39.004  20.466  13.553
 8601W        W75142  13.777  12.904  12.445
 8602W        W75143  37.906  39.301  14.602
 8603W        W75144  25.040  13.920  14.731
 8604W        W75145  12.326  25.237  10.480
 8605W        W75146   4.339  26.179  12.175
 8606W        W75147  27.571  33.638  13.524
 8607W        W75148   6.868  32.359   3.311
 8608W        W75149  15.644  36.208  10.288
 8609W        W75150  19.020  34.812  13.806
 8610W        W75151  37.143   1.746   0.990
 8611W        W75152   0.214  32.082  14.069
 8612W        W75153  34.344  20.234  13.504
 8613W        W75154   7.161  23.192   1.907
 8614W        W75155  37.974  30.677  12.684
 8615W        W75156  33.547  30.078  14.762
 8616W        W75157   6.786   8.752   5.172
 8617W        W75158   7.417  22.573  14.354
 8618W        W75159  28.667  29.646  13.640
 8619W        W75160  28.430  36.569   3.628
 8620W        W75161  17.798   2.250  11.875
 8621W        W75162   9.376  43.919  13.825
 8622W        W75163   3.949  30.197  12.306
 8623W        W75164  30.760  22.615  12.608
 8624W        W75165  10.948  36.085  11.134
 8625W        W75166   7.113  36.822   3.028
 8626W        W75167  22.149  19.125  14.764
 8627W        W75168  37.971   6.247   1.297
 8628W        W75169  26.175   1.548  13.381
 8629W        W75170   0.702  30.077   4.346
 8630W        W75171  25.102   5.890   0.815
 8631W        W75172  21.054  39.546   2.264
 8632W        W75173  35.548  28.490  13.841
 8633W        W75174  29.691  19.634   3.108
 8634W        W75175  39.950   9.682  12.574
 8635W        W75176  32.310  18.205   4.618
 8636W        W75177  24.575  18.220   3.374
 8637W        W75178  18.772  42.725   1.017
 8638W        W75179  35.489  14.043   3.199
 8639W        W75180  33.698  16.581  11.156
 8640W        W75181   3.984  36.974  13.693
 8641W        W75182  43.810  13.389  13.046
 8642W        W75183   0.379   0.369   0.227
 8643W        W75184  38.451  27.689   2.864
 8644W        W75185  27.028  33.243   4.565
 8645W        W75186   7.296  31.868   3.660
 8646W        W75187   4.636  27.624  12.648
 8647W        W75188   4.738  20.281   1.586
 8648W        W75189   4.977  41.175   1.963
 8649W        W75190  15.749   5.219  12.676
 8650W        W75191  42.410  15.312   1.627
 8651W        W75192  25.933  38.156   0.374
 8652W        W75193  15.217  26.628  13.021
 8653W        W75194  38.607   0.991   0.846
 8654W        W75195  31.175   6.284  11.966
 8655W        W75196  14.217  19.996  14.145
 8656W        W75197  40.999  39.066   0.872
 8657W        W75198   3.019  29.028   0.564
 8658W        W75199   7.023  33.488  11.724
 8659W        W75200  37.788  41.454   4.994
 8660W        W75201  16.159  43.413  14.804
 8661W        W75202  32.659  29.099   0.760
 8662W        W75203   6.224  37.320   4.099
 8663W        W75204  38.944   7.623   2.196
 8664W        W75205  35.794  28.696  14.470
 8665W        W75206   1.752  29.412   1.431
 8666W        W75207   4.222  30.940  14.717
 8667W        W75208  23.108  38.415  13.026
 8668W        W75209  43.414  10.773   1.850
 8669W        W75210   0.469  42.128  11.573
 8670W        W75211   0.565  25.929   0.306
 8671W        W75212  36.569   5.706  14.202
 8672W        W75213  12.648  16.116  13.513
 8673W        W75214  35.476   5.363   1.138
 8674W        W75215  27.635  30.943   2.122
 8675W        W75216   7.247   9.467   0.025
 8676W        W75217   9.936  18.076   9.951
 8677W        W75218   6.426  21.302  14.899
 8678W        W75219  27.461  29.636  14.531
 8679W        W75220  43.992  30.590  13.280
 8680W        W75221  32.084  16.142   0.895
 8681W        W75222  21.686  23.464   0.419
 8682W        W75223  12.596  37.893   2.709
 8683W        W75224  34.522  16.974  10.686
 8684W        W75225  41.505  14.151   3.132
 8685W        W75226  16.174  20.315  13.496
 8686W        W75227  27.854   1.977  13.046
 8687W        W75228  16.037  19.015   1.925
 8688W        W75229  18.741   7.466  10.715
 8689W        W75230  15.891  16.238   4.433
 8690W        W75231   4.209  11.947  10.357
 8691W        W75232  20.816  24.569  13.135
 8692W        W75233   5.977  17.852   4.933
 8693W        W75234   8.809  24.028  11.285
 8694W        W75235  35.029   9.560  14.404
 8695W        W75236  21.521  24.907  10.708
 8696W        W75237  34.501  26.369   0.155
 8697W        W75238  34.429   7.688  13.400
 8698W        W75239  16.721  15.841  13.044
 8699W        W75240  39.903  12.653  10.317
 8700W        W75241  35.547  27.552  13.297
 8701W        W75242   1.649  40.126   3.688
 8702W        W75243  15.830  36.400  14.253
 8703W        W75244  42.209  16.338   1.598
 8704W        W75245   6.601   5.475  11.450
 8705W        W75246  19.074  30.503   3.336
 8706W        W75247  32.992  27.408  10.400
 8707W        W75248   4.841  28.865  10.785
 8708W        W75249   4.734   9.718   4.532
 8709W        W75250  24.998  43.838  11.459
 8710W        W75251   4.249  34.402  13.463
 8711W        W75252  26.706  29.487  12.457
 8712W        W75253   2.879  33.650   4.673
 8713W        W75254  15.849  43.118   2.836
 8714W        W75255  37.350  29.176   3.155
 8715W        W75256  28.178  16.644  10.533
 8716W        W75257   9.167  32.382   4.171
 8717W        W75258  30.140   6.989  12.462
 8718W        W75259   6.660  42.358  14.692
 8719W        W75260  20.283   1.655  12.544
 8720W        W75261  26.052  13.218   0.156
 8721W        W75262   0.659  40.118  13.955
 8722W        W75263  12.136   0.032  14.165
 8723W        W75264  22.715  32.814   1.188
 8724W        W75265  41.921  28.581  11.526
 8725W        W75266   4.413   5.599  12.393
 8726W        W75267   8.377  36.290  14.397
 8727W        W75268  21.249  21.454   0.702
 8728W        W75269   8.280  28.832  13.028
 8729W        W75270   6.458  34.087   0.850
 8730W        W75271  10.618  25.283  11.251
 8731W        W75272  12.857  43.780  13.960
 8732W        W75273  23.550  11.795   0.352
 8733W        W75274  12.311  17.682   2.430
 8734W        W75275   9.322  39.992  12.519
 8735W        W75276  28.985  14.204  12.983
 8736W        W75277   6.416  19.472   1.329
 8737W        W75278   0.720  41.123   4.035
 8738W        W75279  16.608  41.464   3.960
 8739W        W75280  11.890  44.998   4.609
 8740W        W75281  26.998   7.759   1.354
 8741W        W75282  20.798   2.266  11.126
 8742W        W75283   7.708   4.179   1.749
 8743W        W75284  26.368  15.585   2.754
 8744W        W75285  36.663  22.953  12.908
 8745W        W75286  11.863  11.427   0.192
 8746W        W75287  22.121   0.679   0.598
 8747W        W75288  40.237  40.840  13.311
 8748W        W75289  38.379  13.589  12.470
 8749W        W75290  24.076  35.920   5.412
 8750W        W75291  28.979  18.765  11.596
 8751W        W75292   5.861   6.938  12.992
 8752W        W75293  11.837   2.275  12.408
 8753W        W75294   8.598  35.236   3.470
 8754W        W75295  16.771  32.379  13.338
 8755W        W75296   5.994   2.225  14.836
 8756W        W75297  37.909  16.580  13.806
 8757W        W75298   9.608  40.283   4.780
 8758W        W75299  18.763  37.561  10.725
 8759W        W75300  41.363   0.352  12.880
 8760W        W75301  27.959   8.571   1.625
 8761W        W75302  30.633   7.577   3.278
 8762W        W75303  39.887  28.637   0.379
 8763W        W75304   5.330   6.301   2.206
 8764W        W75305   4.760  28.819  12.074
 8765W        W75306  43.475   3.784  11.975
 8766W        W75307  30.039   4.872   2.481
 8767W        W75308   7.699  21.120   3.803
 8768W        W75309   5.855   3.508  12.979
 8769W        W75310   8.893   0.920  13.936
 8770W        W75311  26.660  16.885   1.395
 8771W        W75312  23.116   7.962  11.505
 8772W        W75313   9.711   8.704   3.178
 8773W        W75314   2.100  40.145  11.869
 8774W        W75315   4.325  15.422  12.055
 8775W        W75316  35.068  34.467  12.369
 8776W        W75317   1.400   5.868   4.751
 8777W        W75318  20.925  32.175  11.063
 8778W        W75319  12.842  25.298  12.036
 8779W        W75320  25.526   8.351   2.798
 8780W        W75321  21.248   1.814  11.663
 8781W        W75322  15.810   3.662  14.902
 8782W        W75323   5.772   2.939   3.766
 8783W        W75324  20.731   1.638  11.781
 8784W        W75325  21.309   0.195   2.208
 8785W        W75326   0.485  43.414  13.505
 8786W        W75327  34.612  31.966   0.498
 8787W        W75328  25.558  36.139  10.982
 8788W        W75329  32.455  22.317   4.472
 8789W        W75330  16.606  31.333  12.497
 8790W        W75331   7.829  23.760  10.699
 8791W        W75332  12.944  39.315  13.432
 8792W        W75333  17.802  36.955   0.317
 8793W        W75334  31.710  30.196  13.977
 8794W        W75335  41.248  37.211  11.739
 8795W        W75336  25.759   2.778  14.220
 8796W        W75337   1.004  20.778   0.427
 8797W        W75338  11.746   8.977  14.353
 8798W        W75339  34.992  10.349  13.958
 8799W        W75340  26.157   9.457  14.976
 8800W        W75341   5.704  32.664  14.486
 8801W        W75342  19.176  15.891  11.101
 8802W        W75343  35.032  11.370  14.742
 8803W        W75344  26.249  13.985   0.347
 8804W        W75345  29.145  27.707   1.863
 8805W        W75346   0.902   8.101   4.935
 8806W        W75347  10.150   2.436   3.150
 8807W        W75348  43.929  31.569  11.462
 8808W        W75349  35.337  23.937  12.164
 8809W        W75350   9.759  30.049   0.801
 8810W        W75351  41.502  21.963  13.012
 8811W        W75352  13.336  19.220  11.969
 8812W        W75353  14.167  16.059   4.477
 8813W        W75354  36.636  22.919   4.516
 8814W        W75355  35.746  37.947   3.611
 8815W        W75356  43.833  22.374   4.612
 8816W        W75357  23.473  21.654  11.050
 8817W        W75358  24.667   5.201  11.433
 8818W        W75359  28.400  34.584   1.269
 8819W        W75360   8.836  31.989   4.637
 8820W        W75361   7.009   5.621   3.698
 8821W        W75362   4.206  30.159  13.089
 8822W        W75363   3.295   3.086   2.379
 8823W        W75364   0.461  29.358   3.832
 8824W        W75365  30.080   8.208  13.945
 8825W        W75366  22.635  11.559  12.080
 8826W        W75367   8.290  20.234   1.288
 8827W        W75368  15.147  11.324   2.226
 8828W        W75369  19.231  22.502   1.894
 8829W        W75370  25.164  21.355  13.101
 8830W        W75371  22.285  41.026   3.760
 8831W        W75372  42.217  42.856  14.104
 8832W        W75373  10.084  38.018   3.132
 8833W        W75374  24.104  18.270   0.002
 8834W        W75375  34.118  38.660   2.881
 8835W        W75376  41.109  13.718   0.195
 8836W        W75377   1.159  10.754  14.060
 8837W        W75378  14.883  24.763  11.159
 8838W        W75379   6.377  31.348  10.735
 8839W        W75380   8.882   0.255   4.245
 8840W        W75381  20.056  40.019   4.077
 8841W        W75382  39.170  21.069   5.070
 8842W        W75383   9.862  18.919  13.659
 8843W        W75384  27.908  44.763  11.721
 8844W        W75385  29.086  28.902   2.293
 8845W        W75386  27.394  32.144  13.906
 8846W        W75387  43.287  14.369   0.295
 8847W        W75388  37.650  31.507   4.162
 8848W        W75389  12.105  27.753   3.714
 8849W        W75390  30.714  33.960  10.986
 8850W        W75391  23.953  31.928  11.984
 8851W        W75392  37.866  36.924   2.638
 8852W        W75393  42.398  26.982   2.274
 8853W        W75394  29.872  42.866   2.012
 8854W        W75395   5.620  22.170   0.304
 8855W        W75396  14.572  33.462  11.559
 8856W        W75397  18.489  33.301   2.696
 8857W        W75398  27.444  12.217   3.714
 8858W        W75399  20.981  24.164   1.869
 8859W        W75400  25.418  30.995  11.911
 8860W        W75401   1.227   0.742  11.105
 8861W        W75402  27.164  29.928  10.954
 8862W        W75403  32.157  31.992  12.546
 8863W        W75404  27.556  28.443  12.945
 8864W        W75405  18.869  11.189  13.591
 8865W        W75406  19.514  24.736  11.245
 8866W        W75407  24.020   2.939   2.382
 8867W        W75408  20.415  42.787  11.692
 8868W        W75409   4.149   0.348  11.258
 8869W        W75410  29.579   2.647  11.259
 8870W        W75411  24.401   0.263  13.552
 8871W        W75412  18.288   3.277  13.894
 8872W        W75413  44.521  35.535   2.160
 8873W        W75414  20.870   9.244  11.569
 8874W        W75415   1.947  40.568   2.759
 8875W        W75416  17.371   0.184  13.405
 8876W        W75417  37.123   4.345   4.147
 8877W        W75418  28.503  39.273  12.814
 8878W        W75419  44.373   6.134   1.804
 8879W        W75420  13.508  30.936   1.320
 8880W        W75421   7.191  31.349   2.715
 8881W        W75422  15.548   7.089   1.213
 8882W        W75423  10.383  33.601  14.741
 8883W        W75424  15.123  25.257  12.608
 8884W        W75425  19.083   6.852   0.977
 8885W        W75426  44.763  28.290   3.971
 8886W        W75427   9.034  11.384  14.771
 8887W        W75428  40.855  39.531  12.457
 8888W        W75429  37.889  24.622  12.110
 8889W        W75430   4.525  33.771  14.977
 8890W        W75431   2.239  40.819  10.845
 8891W        W75432  40.884  44.726   2.368
 8892W        W75433  22.960  10.932  11.971
 8893W        W75434   8.755  23.076  11.715
 8894W        W75435  34.200  31.358  14.504
 8895W        W75436  28.339  38.470  12.832
 8896W        W75437   9.772  16.684  13.873
 8897W        W75438  12.535  43.006  11.440
 8898W        W75439  31.872   2.164   3.602
 8899W        W75440  21.084   5.018  14.260
 8900W        W75441  44.411  24.918  12.059
 8901W        W75442   0.895  23.142   4.551
 8902W        W75443  11.373  17.290  10.608
 8903W        W75444  15.352  17.542  14.324
 8904W        W75445  25.795   8.902   3.636
 8905W        W75446  14.575   8.615   0.707
 8906W        W75447  42.448  38.690  11.103
 8907W        W75448  29.220   3.800   1.402
 8908W        W75449  22.305  42.330  14.809
 8909W        W75450   8.778  38.728  13.373
 8910W        W75451  44.590   7.634   2.392
 8911W        W75452   2.781  43.775  12.502
 8912W        W75453  38.008  20.277  12.453
 8913W        W75454   2.877   0.030  11.952
 8914W        W75455  43.113  35.909  11.541
 8915W        W75456  40.400  15.393  13.815
 8916W        W75457  24.768  23.590  11.443
 8917W        W75458  18.825  30.220  13.960
 8918W        W75459  29.127  17.958   0.685
 8919W        W75460  22.574   0.664  13.606
 8920W        W75461  13.805  16.810  11.880
 8921W        W75462  33.902  33.333   2.267
 8922W        W75463  27.875  18.001  12.885
 8923W        W75464  19.795  31.945   4.508
 8924W        W75465   8.733  38.805  14.784
 8925W        W75466  40.515  21.115   0.956
 8926W        W75467  10.864   9.638   3.359
 8927W        W75468   1.991   6.269  13.461
 8928W        W75469  17.602  27.887   1.313
 8929W        W75470   1.512  35.331  10.665
 8930W        W75471  28.850  32.888   1.408
 8931W        W75472  25.677  29.683   2.251
 8932W        W75473  20.268  22.018   1.192
 8933W        W75474   6.160  27.624   0.496
 8934W        W75475  29.267   0.660  11.001
 8935W        W75476  36.022  43.489   0.020
 8936W        W75477  25.845  10.862  10.634
 8937W        W75478  15.602  23.497   4.715
 8938W        W75479  10.332  21.515  11.970
 8939W        W75480  30.757  44.905  13.731
 8940W        W75481  42.810  19.199   0.652
 8941W        W75482  27.368  39.791   4.186
 8942W        W75483  11.689  37.128   1.445
 8943W        W75484  23.770  19.269   4.574
 8944W        W75485   3.662  41.336   5.130
 8945W        W75486   0.281  21.252  11.527
 8946W        W75487   8.444  13.421  11.373
 8947W        W75488   0.419   1.054   1.439
 8948W        W75489  11.098  24.988   2.476
 8949W        W75490  41.282  43.447  13.180
 8950W        W75491  35.848   6.418   3.123
 8951W        W75492  43.872  44.465  13.898
 8952W        W75493  39.187   7.652  10.921
 8953W        W75494  17.258  32.878   0.269
 8954W        W75495  31.017  40.407   3.807
 8955W        W75496   4.307  21.170  11.095
 8956W        W75497  34.129   3.786   0.278
 8957W        W75498  18.225  35.129  14.384
 8958W        W75499  31.712  39.646  12.372
 8959W        W75500  28.913  40.338  11.212
 8960W        W75501  19.810   2.725   3.262
 8961W        W75502  29.637  14.090  13.779
 8962W        W75503   2.337  13.246  11.351
 8963W        W75504  12.804   3.914  13.884
 8964W        W75505   2.703  29.479   1.725
 8965W        W75506  36.385  44.516   5.012
 8966W        W75507  41.358  21.163  12.944
 8967W        W75508  27.629  40.393  14.444
 8968W        W75509   3.429  19.306  10.765
 8969W        W75510  13.186  37.813  13.336
 8970W        W75511  26.310  12.223   2.830
 8971W        W75512  18.490  32.916   2.312
 8972W        W75513  24.502  35.422   0.021
 8973W        W75514  10.096  10.905  14.258
 8974W        W75515  27.544   8.640  13.997
 8975W        W75516  43.956  11.545   3.675
 8976W        W75517   6.665  40.031   0.410
 8977W        W75518  36.005   3.196   3.642
 8978W        W75519  11.655  22.561  14.978
 8979W        W75520   7.936   3.224   5.199
 8980W        W75521  13.881  15.375  13.652
 8981W        W75522  16.771  23.194  14.503
 8982W        W75523  44.839  21.079  13.237
 8983W        W75524  12.281   2.583  13.228
 8984W        W75525  12.609   2.715   1.493
 8985W        W75526  16.655  30.410  11.188
 8986W        W75527   7.784  26.228  14.480
 8987W        W75528   9.316  22.245   0.908
 8988W        W75529  27.927  19.699   0.657
 8989W        W75530  29.071  17.914  13.825
 8990W        W75531  10.414  39.827   1.744
 8991W        W75532  30.022  30.431  11.258
 8992W        W75533  29.015  26.753   0.775
 8993W        W75534  35.033  13.877  12.928
 8994W        W75535  36.454  18.792   0.646
 8995W        W75536  40.332  27.923   0.110
 8996W        W75537  11.697  41.411  14.786
 8997W        W75538  25.956  42.115   2.280
 8998W        W75539  12.905   7.795   4.845
 8999W        W75540  29.699  32.907   2.237
 9000W        W75541  16.184  25.828  11.929
 9001W        W75542  10.384   8.321  11.173
 9002W        W75543  29.449  34.113   0.790
 9003W        W75544  36.094  24.034   0.842
 9004W        W75545  40.573  11.379   2.896
 9005W        W75546  26.232  16.589   1.392
 9006W        W75547  21.991  43.820  12.494
 9007W        W75548  25.733  20.315   3.222
 9008W        W75549  33.241  18.227   4.927
 9009W        W75550  25.153  31.461  12.061
 9010W        W75551  38.417  39.573   3.793
 9011W        W75552  41.604  44.496   4.185
 9012W        W75553  38.190  43.992  13.501
 9013W        W75554   7.377  40.053  13.107
 9014W        W75555  16.703   1.939   5.025
 9015W        W75556   2.839  43.807  14.746
 9016W        W75557  36.755  29.358   2.374
 9017W        W75558  44.242  41.835  14.890
 9018W        W75559  40.565  11.315   5.212
 9019W        W75560  19.250  35.374   2.801
 9020W        W75561   6.035   5.817   3.778
 9021W        W75562  26.017  14.084  13.594
 9022W        W75563  40.408  12.053  12.616
 9023W        W75564  10.355  25.728  12.827
 9024W        W75565   0.214   7.729   3.223
 9025W        W75566  15.231  16.762  14.227
 9026W        W75567  37.417  14.058   3.580
 9027W        W75568  36.032   2.826  12.413
 9028W        W75569  19.250  43.860  12.863
 9029W        W75570  28.538   5.340  10.446
 9030W        W75571  30.233  44.960  13.585
 9031W        W75572  36.746   1.191  11.620
 9032W        W75573  25.241  16.582   2.480
 9033W        W75574   2.594  21.670  12.054
 9034W        W75575  25.684  22.736   4.215
 9035W        W75576  31.166  22.496  11.652
 9036W        W75577  27.450  27.690  11.484
 9037W        W75578   5.693  43.309   2.938
 9038W        W75579  44.019  29.312  11.637
 9039W        W75580  12.269  41.471  14.958
 9040W        W75581  37.264  10.972   2.811
 9041W        W75582  16.829  42.876  14.246
 9042W        W75583  37.588  33.065   0.252
 9043W        W75584   1.929  14.284   4.108
 9044W        W75585  39.027  33.067   1.397
 9045W        W75586  36.423  41.936  11.925
 9046W        W75587  38.961  23.061   4.619
 9047W        W75588  17.748  36.584   2.740
 9048W        W75589  26.577  42.442  11.563
 9049W        W75590   6.961  32.856  10.578
 9050W        W75591   5.129  26.027  13.802
 9051W        W75592   1.066  42.826  13.652
 9052W        W75593  29.380   5.427  11.549
 9053W        W75594  42.778  42.755  11.659
 9054W        W75595  25.654  16.320   4.537
 9055W        W75596  26.083   3.025  14.916
 9056W        W75597  18.776   5.414  14.138
 9057W        W75598  42.565  24.981  13.998
 9058W        W75599  21.006   1.213   0.317
 9059W        W75600  18.741  43.893   3.744
 9060W        W75601  26.468  21.894  10.714
 9061W        W75602   1.247  25.292  13.427
 9062W        W75603  24.492   0.974   1.869
 9063W        W75604   0.709  18.778   0.299
 9064W        W75605  12.780  10.722   4.104
 9065W        W75606  17.512  18.690   2.575
 9066W        W75607   3.272  40.160  11.188
 9067W        W75608  16.661  10.003   1.156
 9068W        W75609  41.483  24.511   3.908
 9069W        W75610  39.490   6.326  12.765
 9070W        W75611  12.898  38.242  13.351
 9071W        W75612  15.366  35.341   5.013
 9072W        W75613  32.002   1.184   1.714
 9073W        W75614  16.529   0.623  13.890
 9074W        W75615  22.114   7.869   4.633
 9075W        W75616  17.260  44.782   1.193
 9076W        W75617  35.682  13.663  11.610
 9077W        W75618  24.927   2.713   1.854
 9078W        W75619  33.202  29.159   1.474
 9079W        W75620  34.978  14.293   3.680
 9080W        W75621   5.325  18.026  10.637
 9081W        W75622  40.511  36.681   1.458
 9082W        W75623  12.647  29.935  14.569
 9083W        W75624  33.002  21.202   0.572
 9084W        W75625  24.511  41.917   0.305
 9085W        W75626  22.585  40.884   0.075
 9086W        W75627  44.517  41.294   4.515
 9087W        W75628  24.985  22.833  12.900
 9088W        W75629  32.528   2.316   1.314
 9089W        W75630  38.918  12.893  11.955
 9090W        W75631  32.588  14.125   0.901
 9091W        W75632   8.903  36.223  14.504
 9092W        W75633  23.210   1.284   0.364
 9093W        W75634  23.833  41.061   0.801
 9094W        W75635   2.454  17.268   2.179
 9095W        W75636   0.916  11.849   1.684
 9096W        W75637  27.901  23.604   3.723
 9097W        W75638  35.851  44.028   3.621
 9098W        W75639  40.786   0.312  12.093
 9099W        W75640  34.730   6.876   2.649
 9100W        W75641  19.310  27.377   4.147
 9101W        W75642  30.190  19.704  11.179
 9102W        W75643  17.753  41.735   1.871
 9103W        W75644  21.212  33.113  13.014
 9104W        W75645  26.209  23.003   3.540
 9105W        W75646  39.642  18.596   3.124
 9106W        W75647  10.566  33.489  12.226
 9107W        W75648  34.863  26.708  11.745
 9108W        W75649  18.396  35.144  12.994
 9109W        W75650  29.916   6.985  11.996
 9110W        W75651  26.234   7.408  14.767
 9111W        W75652   8.812  37.776  13.743
 9112W        W75653  44.335  42.773   0.248
 9113W        W75654  21.565  33.217   1.811
 9114W        W75655   4.150   4.750   4.095
 9115W        W75656  32.273  26.271   2.428
 9116W        W75657  34.762  23.812   0.592
 9117W        W75658  28.460  43.386  12.367
 9118W        W75659  30.892   8.262   1.850
 9119W        W75660   8.218  14.099   0.757
 9120W        W75661  37.175   0.713  10.755
 9121W        W75662  28.722  25.198  14.719
 9122W        W75663  35.229  10.475   5.004
 9123W        W75664  44.171   2.442   1.158
 9124W        W75665   7.868   8.287   3.197
 9125W        W75666   8.771   1.987   3.648
 9126W        W75667  11.418  41.821   4.067
 9127W        W75668  16.876  43.073  12.011
 9128W        W75669   0.516  24.353  11.558
 9129W        W75670  33.118  34.579  14.685
 9130W        W75671  36.456   4.358  14.471
 9131W        W75672  16.590  28.866   2.348
 9132W        W75673  27.729   1.198   0.510
 9133W        W75674   3.062  24.155  13.475
 9134W        W75675  12.390  25.069   2.166
 9135W        W75676   2.985  14.529  10.881
 9136W        W75677  41.506  33.067  11.606
 9137W        W75678  24.249  43.089   3.770
 9138W        W75679  18.881  42.830   2.849
 9139W        W75680  34.549  33.074  12.090
 9140W        W75681  18.524   6.801   2.305
 9141W        W75682  43.982  11.742   2.759
 9142W        W75683  28.124  23.183  11.537
 9143W        W75684  28.168  29.934   4.519
 9144W        W75685  44.553  37.020   0.220
 9145W        W75686  13.830  41.564   4.504
 9146W        W75687  17.133  12.785   3.221
 9147W        W75688  35.920  26.160  11.098
 9148W        W75689   7.584  30.486   0.513
 9149W        W75690   9.449  20.907   3.257
 9150W        W75691  13.510  10.882   3.685
 9151W        W75692  38.553  34.428   0.419
 9152W        W75693  16.791  44.154  13.935
 9153W        W75694  31.506  34.941   1.786
 9154W        W75695  12.780  23.596  12.923
 9155W        W75696  15.253  35.464  11.947
 9156W        W75697  40.016   1.360  11.588
 9157W        W75698  36.653  17.526   4.097
 9158W        W75699  41.024   7.270  14.666
 9159W        W75700  32.581   2.159  14.809
 9160W        W75701   5.726  16.055   0.712
 9161W        W75702   7.168  31.843   4.604
 9162W        W75703  25.259  21.375   0.206
 9163W        W75704  28.463  18.310  12.131
 9164W        W75705  27.562  16.117  11.363
 9165W        W75706   4.414  43.108  11.459
 9166W        W75707  23.695  31.558   0.365
 9167W        W75708  24.077   4.806   3.317
 9168W        W75709  29.491  23.193   4.115
 9169W        W75710  16.988  18.177  10.764
 9170W        W75711   2.453  37.086   4.571
 9171W        W75712  33.810  26.223   3.732
 9172W        W75713   9.392  11.333   0.779
 9173W        W75714  13.783  30.605   2.793
 9174W        W75715  13.290  22.338   2.254
 9175W        W75716  23.712  29.564   1.366
 9176W        W75717  30.735   3.346   2.261
 9177W        W75718  43.295  40.822   3.128
 9178W        W75719  26.510  31.578  10.503
 9179W        W75720  12.629  25.588   0.310
 9180W        W75721  39.939  36.355   2.334
 9181W        W75722  39.330  29.996   1.387
 9182W        W75723  37.717   7.862   4.235
 9183W        W75724  42.590  21.167   1.674
 9184W        W75725   2.315  21.950  12.439
 9185W        W75726  10.347  32.480  10.960
 9186W        W75727   8.032  13.554   2.043
 9187W        W75728   4.509   7.921   5.192
 9188W        W75729  22.695  30.502   1.755
 9189W        W75730  40.658   5.177  11.323
 9190W        W75731  37.786  27.281  12.894
 9191W        W75732  43.073  32.044   4.745
 9192W        W75733  44.777  44.817   1.860
 9193W        W75734  27.995  39.395  12.028
 9194W        W75735  27.568  21.885   3.363
 9195W        W75736  33.122  29.433  12.789
 9196W        W75737  32.448  14.298  10.568
 9197W        W75738  35.404  29.907  11.583
 9198W        W75739  22.589  13.676   0.764
 9199W        W75740  39.589  12.705  11.578
 9200W        W75741  31.397   2.276   2.696
 9201W        W75742  21.476  43.848   2.446
 9202W        W75743  37.023   3.232   9.693
 9203W        W75744  12.288   8.716  13.793
 9204W        W75745   0.768  35.798  13.380
 9205W        W75746   9.689  35.852  12.075
 9206W        W75747  40.441  43.992   1.570
 9207W        W75748  16.169  12.298  10.846
 9208W        W75749   6.158   6.392  13.774
 9209W        W75750  15.158   7.431   1.218
 9210W        W75751  39.780  11.196  13.508
 9211W        W75752  19.867   6.423   1.444
 9212W        W75753  32.987  15.743  13.593
 9213W        W75754   4.053  33.459   1.365
 9214W        W75755  38.699  22.586  11.168
 9215W        W75756  25.625  18.805   2.907
 9216W        W75757  37.616  33.099   3.171
 9217W        W75758  34.409   0.912  12.356
 9218W        W75759  29.610  19.270   0.939
 9219W        W75760  35.076  26.712   0.987
 9220W        W75761  29.963   8.510  10.661
 9221W        W75762  19.069   3.028   3.218
 9222W        W75763  10.084  24.063  14.151
 9223W        W75764   5.375  27.751   4.619
 9224W        W75765  33.310  29.256  14.294
 9225W        W75766  29.413  19.291  13.071
 9226W        W75767   1.434  26.688  10.844
 9227W        W75768  20.590  31.271  13.866
 9228W        W75769  36.561  26.207  12.865
 9229W        W75770  24.076  20.974   2.974
 9230W        W75771  10.661   9.209   1.907
 9231W        W75772   6.664  31.094   3.780
 9232W        W75773  20.545  27.029  11.563
 9233W        W75774  20.076  36.292  11.982
 9234W        W75775  31.245   7.596  11.978
 9235W        W75776  13.368  21.946  13.583
 9236W        W75777  11.652  35.335  12.348
 9237W        W75778  42.991   4.272  12.485
 9238W        W75779  31.663  26.990   1.370
 9239W        W75780  28.175  33.496   3.879
 9240W        W75781  11.544  33.302   2.857
 9241W        W75782   4.756   8.177   0.179
 9242W        W75783  43.888  10.919   1.035
 9243W        W75784  32.370  37.367   3.560
 9244W        W75785   4.437  13.368  11.207
 9245W        W75786  10.846  13.402   2.257
 9246W        W75787  39.625  29.173  13.926
 9247W        W75788  44.914  32.464  11.567
 9248W        W75789   4.648  27.630   3.196
 9249W        W75790   4.934  30.630   2.434
 9250W        W75791   3.802  14.663   0.521
 9251W        W75792   1.319  39.091  10.852
 9252W        W75793  21.398  41.890   2.337
 9253W        W75794  35.136  27.567   1.019
 9254W        W75795  22.100  29.196  10.554
 9255W        W75796  37.045  29.313   0.999
 9256W        W75797  10.756   7.096  11.154
 9257W        W75798   9.361  20.789   4.548
 9258W        W75799  43.084  44.497  10.600
 9259W        W75800   4.328  16.306   1.343
 9260W        W75801  36.016  31.115  13.330
 9261W        W75802  27.234  30.639   1.862
 9262W        W75803  31.230   1.922  11.605
 9263W        W75804  31.406   2.938  14.515
 9264W        W75805  43.761  26.063  14.839
 9265W        W75806  43.887  42.087  13.529
 9266W        W75807  37.351  10.252   4.443
 9267W        W75808  32.884  42.439   1.281
 9268W        W75809  44.813  24.273  13.161
 9269W        W75810  43.772  22.737  11.599
 9270W        W75811  36.334   8.199   4.053
 9271W        W75812   6.672  36.748  11.227
 9272W        W75813   5.393  33.359   0.180
 9273W        W75814  28.033  40.891   3.588
 9274W        W75815  14.771  24.651  13.115
 9275W        W75816  11.386   3.140  14.796
 9276W        W75817  44.717   2.755  14.299
 9277W        W75818  34.965  17.650  14.922
 9278W        W75819  10.870  19.510   2.284
 9279W        W75820   4.496  31.142  10.981
 9280W        W75821  12.222  18.226   4.276
 9281W        W75822  34.063  15.918   4.133
 9282W        W75823  13.447  32.028   3.239
 9283W        W75824  24.805  11.752   3.660
 9284W        W75825   6.312  29.969  10.969
 9285W        W75826  12.145  44.184  11.166
 9286W        W75827  44.741  17.137   0.833
 9287W        W75828  40.956  12.312  14.492
 9288W        W75829   8.670  39.234  13.520
 9289W        W75830  26.304  41.360   3.694
 9290W        W75831  41.487  13.417  12.503
 9291W        W75832  25.468  40.840   2.338
 9292W        W75833  22.209  30.716   0.514
 9293W        W75834  18.239  20.040   0.253
 9294W        W75835  27.260  17.268  12.991
 9295W        W75836  39.854  39.251  10.905
 9296W        W75837  43.549   7.748  11.327
 9297W        W75838  10.272  37.765   1.404
 9298W        W75839   5.379  26.573  13.148
 9299W        W75840  41.483  27.800   2.833
 9300W        W75841  24.193  44.922  12.497
 9301W        W75842  41.283   3.828  13.319
 9302W        W75843  21.752  39.888  14.285
 9303W        W75844  39.919   8.396  13.869
 9304W        W75845   3.857  23.937   2.928
 9305W        W75846  12.139   4.049  13.524
 9306W        W75847  28.653  39.356  11.525
 9307W        W75848  25.278  30.073  14.724
 9308W        W75849  20.544  18.223  14.230
 9309W        W75850  27.885  36.560   3.057
 9310W        W75851  13.565   9.982  13.094
 9311W        W75852   3.236  40.406   3.601
 9312W        W75853  37.732  23.727  12.450
 9313W        W75854   5.975  14.059  14.262
 9314W        W75855   5.171  10.301  13.540
 9315W        W75856   0.406  10.726   3.676
 9316W        W75857  24.724  29.069   0.533
 9317W        W75858  28.943  13.566  13.491
 9318W        W75859  16.167  17.581   2.382
 9319W        W75860  13.963  22.795   3.715
 9320W        W75861  37.677  27.424  12.088
 9321W        W75862  38.130   8.075   2.285
 9322W        W75863  22.019  42.617  13.831
 9323W        W75864   0.582  14.693  11.283
 9324W        W75865  43.409  19.216   4.396
 9325W        W75866  17.787   6.188   4.587
 9326W        W75867  12.253  32.942   0.044
 9327W        W75868   3.494  34.128   1.957
 9328W        W75869   3.764  35.697   1.358
 9329W        W75870  16.595  30.648  13.475
 9330W        W75871   5.842  13.797  12.929
 9331W        W75872   4.455  37.443  11.295
 9332W        W75873  34.017   3.977  14.494
 9333W        W75874  22.802   5.248  12.870
 9334W        W75875   0.076  43.724   0.928
 9335W        W75876  16.040  32.546   5.424
 9336W        W75877  19.535  23.947  11.594
 9337W        W75878   8.869  37.965   0.339
 9338W        W75879  28.054  38.256   4.494
 9339W        W75880  43.093  36.413  11.559
 9340W        W75881   5.353   0.307   4.564
 9341W        W75882  40.768  22.767   3.202
 9342W        W75883  42.946  21.339  11.340
 9343W        W75884  19.299  26.173   5.054
 9344W        W75885   7.092  15.202  12.943
 9345W        W75886  38.813  19.574  11.847
 9346W        W75887   0.454  42.036  10.631
 9347W        W75888  36.988  30.872  14.239
 9348W        W75889   8.450  43.682   0.304
 9349W        W75890  10.771   6.925  14.004
 9350W        W75891  23.971  29.564  14.985
 9351W        W75892  30.554  26.723  14.940
 9352W        W75893  18.578   3.625  14.770
 9353W        W75894   8.173  43.810   0.796
 9354W        W75895   9.304  20.810   2.455
 9355W        W75896  15.997  41.250  13.990
 9356W        W75897   4.643  28.192   4.884
 9357W        W75898  16.403   5.819   3.322
 9358W        W75899  37.873  15.220  14.069
 9359W        W75900  17.947   4.454   0.939
 9360W        W75901  34.416  37.985  12.821
 9361W        W75902  44.522  24.798   5.244
 9362W        W75903  21.175  13.809  14.465
 9363W        W75904   3.232  32.695   5.571
 9364W        W75905  26.665   0.522   2.730
 9365W        W75906   1.754  31.414  14.970
 9366W        W75907  39.482  29.238  14.409
 9367W        W75908  16.996  39.804  11.568
 9368W        W75909  44.800  22.579   4.603
 9369W        W75910  12.751  18.334   4.133
 9370W        W75911  27.777  25.127   0.408
 9371W        W75912   8.855   0.547  12.541
 9372W        W75913  39.062  29.973  12.571
 9373W        W75914  28.209   9.792  14.308
 9374W        W75915  42.934  35.560   1.876
 9375W        W75916  14.684   0.244  12.885
 9376W        W75917  30.721   3.448  13.514
 9377W        W75918  43.908  29.837  11.988
 9378W        W75919   7.931  19.255  13.374
 9379W        W75920  29.451  39.000   2.679
 9380W        W75921  22.741  17.681   1.523
 9381W        W75922  39.795  29.589  12.847
 9382W        W75923   0.026  16.363  12.965
 9383W        W75924  12.112  27.985  14.943
 9384W        W75925   9.017   4.861  12.821
 9385W        W75926  36.760  28.648   4.208
 9386W        W75927   5.892  21.782   1.386
 9387W        W75928   8.672  20.474   4.262
 9388W        W75929   2.035  35.087  13.384
 9389W        W75930   6.813  32.102  13.345
 9390W        W75931  27.648  19.554  14.532
 9391W        W75932   6.196  25.024  13.539
 9392W        W75933  27.421   9.642  11.991
 9393W        W75934  42.883  44.452   0.729
 9394W        W75935   9.270  10.265   1.299
 9395W        W75936  19.226  43.569  14.286
 9396W        W75937  14.752  19.531   4.428
 9397W        W75938  23.056  13.542   4.775
 9398W        W75939  10.293  36.733  11.095
 9399W        W75940  27.566  34.180   2.456
 9400W        W75941  23.838   3.679  10.579
 9401W        W75942  25.810  43.424   2.480
 9402W        W75943   6.869  29.169   0.846
 9403W        W75944  28.721  35.986   4.643
 9404W        W75945  22.599  19.213  11.118
 9405W        W75946   9.410  40.520  13.500
 9406W        W75947  42.480  32.127   0.957
 9407W        W75948  11.604  29.066  11.002
 9408W        W75949   7.656  38.012   4.900
 9409W        W75950   7.847  29.933  14.755
 9410W        W75951  41.863  39.960  11.835
 9411W        W75952  10.872  29.177  14.741
 9412W        W75953  38.987  31.446  11.735
 9413W        W75954  17.627  33.119  14.024
 9414W        W75955   0.078  38.946  14.936
 9415W        W75956  28.838   0.287  12.340
 9416W        W75957  34.365  14.097  11.049
 9417W        W75958  41.488  42.761   0.483
 9418W        W75959  20.685  30.649   4.644
 9419W        W75960  19.507  12.622   9.935
 9420W        W75961  14.119   7.906  12.030
 9421W        W75962  38.425   1.791   1.897
 9422W        W75963  11.089  39.027   1.650
 9423W        W75964  38.535  26.100  12.611
 9424W        W75965  31.656   7.720   2.255
 9425W        W75966  30.932  33.663   2.258
 9426W        W75967  36.119  23.138   3.979
 9427W        W75968  16.263  18.475   0.682
 9428W        W75969  28.865  16.603  11.047
 9429W        W75970   3.177  41.446   2.270
 9430W        W75971   0.952   8.180   2.376
 9431W        W75972   0.584   2.405  12.933
 9432W        W75973  17.341   2.340   3.168
 9433W        W75974  14.333   8.944  13.929
 9434W        W75975  11.496  27.083   0.937
 9435W        W75976  20.666  26.451   0.305
 9436W        W75977  21.568  42.608  11.171
 9437W        W75978   6.318  14.412  10.240
 9438W        W75979  10.792  32.587  11.216
 9439W        W75980  17.366  28.898   3.707
 9440W        W75981  43.079  41.833   1.158
 9441W        W75982  15.078  10.010  11.948
 9442W        W75983  11.327  12.334  12.640
 9443W        W75984  40.787  16.097  10.757
 9444W        W75985  18.647  30.201   3.386
 9445W        W75986  23.069  21.285  14.359
 9446W        W75987  22.266  24.450  13.042
 9447W        W75988  12.691  23.964  13.330
 9448W        W75989  21.593  41.702   1.164
 9449W        W75990   1.806   5.325  11.173
 9450W        W75991   5.848  38.634  13.991
 9451W        W75992   2.854  35.715   1.145
 9452W        W75993  39.974  36.596   1.290
 9453W        W75994  35.591  31.625   0.030
 9454W        W75995  30.375   8.324   1.863
 9455W        W75996  30.161  10.874  12.064
 9456W        W75997  24.690   2.795  14.144
 9457W        W75998  18.002  26.514  13.381
 9458W        W75999  36.902   6.859  14.071
 9459W        W76000  25.180  44.266   1.691
 9460W        W76001   9.385  17.024   1.139
 9461W        W76002  37.723  13.819  14.869
 9462W        W76003   1.133  26.997  10.543
 9463W        W76004  25.289  12.534   2.435
 9464W        W76005  26.871   6.769   1.427
 9465W        W76006   8.785  34.381  14.667
 9466W        W76007   0.417  11.467   4.088
 9467W        W76008  24.212  41.576  12.134
 9468W        W76009  19.292  21.632   0.232
 9469W        W76010  38.972  13.854   2.793
 9470W        W76011  19.090  12.086  13.523
 9471W        W76012  26.514  32.558  11.915
 9472W        W76013   3.668  11.156   1.115
 9473W        W76014  13.316   2.744   3.284
 9474W        W76015  32.896  29.981   2.282
 9475W        W76016  17.119  24.915   0.501
 9476W        W76017  11.122   3.382  12.239
 9477W        W76018   1.900  13.155  12.538
 9478W        W76019  44.819  32.447   2.305
 9479W        W76020  43.916  31.934   3.553
 9480W        W76021  24.988  15.152   4.952
 9481W        W76022  22.734  22.549  14.131
 9482W        W76023  39.855   1.935   4.026
 9483W        W76024   7.861  35.369   2.170
 9484W        W76025   4.779   4.885   9.816
 9485W        W76026  22.695  40.496   1.043
 9486W        W76027  41.897  23.165  11.899
 9487W        W76028  11.322   1.705   4.630
 9488W        W76029  31.085  44.240  11.594
 9489W        W76030  31.966  34.922  14.335
 9490W        W76031  39.047  23.586  12.044
 9491W        W76032  31.969  19.568  14.948
 9492W        W76033  12.397  38.048   2.242
 9493W        W76034  36.775   9.567   1.501
 9494W        W76035   2.668  22.599  11.138
 9495W        W76036  27.484  37.325  13.313
 9496W        W76037  35.465  38.047   4.531
 9497W        W76038  43.509   4.344  12.415
 9498W        W76039  13.254  44.028   1.209
 9499W        W76040   8.163  33.313   0.957
 9500W        W76041  44.994   4.165  12.545
 9501W        W76042   5.447  12.089  12.394
 9502W        W76043   2.978  30.183  14.899
 9503W        W76044  24.121  23.354  10.386
 9504W        W76045  38.362  30.200  11.545
 9505W        W76046  43.995  38.052   1.679
 9506W        W76047   9.179  41.212   0.757
 9507W        W76048  25.919  12.664   0.784
 9508W        W76049  15.719  43.883  13.469
 9509W        W76050  34.318  23.615  13.918
 9510W        W76051  19.840  29.105   0.867
 9511W        W76052  44.707  43.287  13.909
 9512W        W76053  15.379  43.839  13.868
 9513W        W76054  20.536  38.071   0.093
 9514W        W76055  33.454  26.173   0.184
 9515W        W76056  10.591  14.611  13.319
 9516W        W76057  33.299   7.223  10.224
 9517W        W76058   4.915   3.681  12.580
 9518W        W76059  11.575  32.177   4.235
 9519W        W76060  16.530  24.275  12.541
 9520W        W76061   0.412   0.469   4.094
 9521W        W76062  12.544  20.185  10.705
 9522W        W76063  27.166  44.249  13.389
 9523W        W76064   4.334  26.946   3.707
 9524W        W76065  33.479  11.822  10.434
 9525W        W76066  23.116  33.118   0.041
 9526W        W76067   0.654  15.736  13.478
 9527W        W76068  36.524   9.917  10.649
 9528W        W76069  29.431  33.722  12.844
 9529W        W76070  17.931   9.238  11.067
 9530W        W76071  30.438  22.360  10.190
 9531W        W76072  26.395  32.156   2.678
 9532W        W76073  36.336  19.547   1.355
 9533W        W76074  30.822  10.045   1.354
 9534W        W76075  31.848  18.457   3.703
 9535W        W76076   4.484  28.111  12.374
 9536W        W76077  18.833   8.864  13.583
 9537W        W76078   9.917   8.567  11.171
 9538W        W76079  16.678  10.683   4.728
 9539W        W76080  28.719  38.033  14.463
 9540W        W76081  18.449  30.488   1.885
 9541W        W76082   2.344  43.298  13.600
 9542W        W76083   2.765  11.247   3.792
 9543W        W76084  27.082   0.500  11.722
 9544W        W76085  35.287  28.955  11.207
 9545W        W76086  10.161  39.233   3.598
 9546W        W76087   7.788   3.203  13.409
 9547W        W76088  40.622   1.937  13.901
 9548W        W76089  10.431  40.094  10.115
 9549W        W76090  15.363   6.805  14.934
 9550W        W76091   5.673  44.806   1.324
 9551W        W76092  14.402  18.866   0.266
 9552W        W76093  13.863  36.390   2.848
 9553W        W76094   8.537  22.499  13.464
 9554W        W76095  28.534   1.994  12.438
 9555W        W76096  12.837  30.959  14.456
 9556W        W76097  10.908  16.626   3.989
 9557W        W76098   9.135  17.159  12.631
 9558W        W76099  39.483   3.966   2.358
 9559W        W76100  20.637  39.632  13.912
 9560W        W76101  34.528  41.998   2.909
 9561W        W76102   2.496  39.705   4.647
 9562W        W76103  19.046  14.727  13.981
 9563W        W76104  31.953  22.635   3.721
 9564W        W76105  42.133  22.377  14.278
 9565W        W76106  26.903  32.094   3.599
 9566W        W76107   3.739  29.292   1.825
 9567W        W76108   7.669   5.057  13.227
 9568W        W76109   2.382   7.979   1.228
 9569W        W76110  23.095  34.064   4.223
 9570W        W76111  26.763  11.641  14.347
 9571W        W76112   3.376  43.301  12.671
 9572W        W76113  15.880  27.848   3.967
 9573W        W76114  28.202   4.743   4.465
 9574W        W76115   3.640   4.387   4.685
 9575W        W76116  30.037  26.848  11.457
 9576W        W76117  42.968  20.537  11.511
 9577W        W76118  42.439  19.547   2.345
 9578W        W76119   0.419  26.047   3.694
 9579W        W76120   2.281  10.190   1.612
 9580W        W76121  13.119  15.274  11.678
 9581W        W76122  14.158  25.188  14.722
 9582W        W76123  29.657  23.984  11.667
 9583W        W76124  23.136  24.746   1.866
 9584W        W76125   2.952  22.070   2.321
 9585W        W76126  32.906  42.916  10.129
 9586W        W76127  29.868  33.382  11.017
 9587W        W76128  21.719  35.540  13.574
 9588W        W76129  39.995  22.005  13.770
 9589W        W76130  31.541  26.460  14.637
 9590W        W76131  17.208  34.989  10.805
 9591W        W76132  36.477   3.959  14.816
 9592W        W76133  26.195  21.606   4.428
 9593W        W76134  18.966  32.512   5.030
 9594W        W76135  30.981  11.312   1.698
 9595W        W76136   8.373   2.654  13.954
 9596W        W76137  30.471  27.741  10.702
 9597W        W76138  13.660  24.142  14.140
 9598W        W76139  11.943   2.126   1.813
 9599W        W76140  10.643  35.044   0.032
 9600W        W76141   3.226  35.095  13.566
 9601W        W76142  27.274  14.112   1.380
 9602W        W76143   0.396  20.569  14.614
 9603W        W76144  12.111   2.177  11.132
 9604W        W76145   1.438  42.348  14.395
 9605W        W76146  38.151  40.721   0.044
 9606W        W76147   6.391  36.293   2.928
 9607W        W76148  17.680  11.637  11.329
 9608W        W76149  23.138  41.296  12.314
 9609W        W76150  39.993  22.152  13.265
 9610W        W76151  25.412  36.338  11.456
 9611W        W76152  13.846   6.447  10.676
 9612W        W76153  44.289  13.783  11.761
 9613W        W76154  19.891  18.658  12.609
 9614W        W76155  34.356  40.623  11.172
 9615W        W76156  37.005  16.303  12.675
 9616W        W76157  12.085   0.564   3.702
 9617W        W76158   3.511   5.926   3.229
 9618W        W76159  33.642  33.636  11.394
 9619W        W76160  15.244  29.696  11.513
 9620W        W76161  29.718   0.236   2.484
 9621W        W76162  36.798  14.106  14.971
 9622W        W76163  40.543   0.476  14.896
 9623W        W76164  29.928  34.418  12.098
 9624W        W76165   8.527  23.403  13.574
 9625W        W76166  15.131  30.163  12.407
 9626W        W76167  13.333  40.006  14.376
 9627W        W76168  41.035  27.346   3.701
 9628W        W76169  32.472  10.719  14.402
 9629W        W76170  23.529  33.630  14.444
 9630W        W76171  26.698  39.838   0.811
 9631W        W76172   5.659  43.213   3.444
 9632W        W76173  18.639  34.656   0.961
 9633W        W76174  25.205   3.703  13.444
 9634W        W76175  34.600  31.172  12.559
 9635W        W76176  18.761   9.035  13.113
 9636W        W76177   1.573  24.224  14.405
 9637W        W76178  43.514  18.783  12.096
 9638W        W76179  33.787  42.791   1.413
 9639W        W76180  38.063  11.419   3.719
 9640W        W76181  39.844  36.570   4.081
 9641W        W76182   3.709  38.415  14.083
 9642W        W76183  25.984  37.639   0.368
 9643W        W76184   7.239  24.834   2.407
 9644W        W76185   8.752  18.061   1.800
 9645W        W76186  44.564   6.420   1.404
 9646W        W76187  33.733   1.297  11.509
 9647W        W76188   3.825  11.637  10.604
 9648W        W76189  12.297  31.919   0.835
 9649W        W76190  27.197  37.696  14.488
 9650W        W76191  41.731   3.775   3.130
 9651W        W76192  40.631  40.938  12.534
 9652W        W76193  44.381  34.621  11.116
 9653W        W76194  17.532  17.043   2.712
 9654W        W76195  28.841  42.038  14.552
 9655W        W76196  24.071  44.270  10.807
 9656W        W76197  21.564  13.570  13.772
 9657W        W76198   7.655  41.053  13.028
 9658W        W76199  13.627   2.717  12.767
 9659W        W76200  43.404  40.469   1.341
 9660W        W76201  14.620  25.692  10.672
 9661W        W76202  24.628  18.068   3.856
 9662W        W76203  28.555   1.018  14.969
 9663W        W76204   7.472  24.514   2.732
 9664W        W76205  30.120  33.681   4.361
 9665W        W76206  17.321  35.109   1.259
 9666W        W76207  10.429   6.808  11.430
 9667W        W76208  23.788   9.718  12.569
 9668W        W76209   6.482  27.605   0.089
 9669W        W76210   7.267  38.644  12.064
 9670W        W76211  41.913  18.677  14.961
 9671W        W76212  20.535  36.783  14.359
 9672W        W76213   5.788  39.446  11.036
 9673W        W76214  17.980  38.365  13.123
 9674W        W76215  17.056   3.454  13.674
 9675W        W76216   6.764  35.948   3.265
 9676W        W76217  31.980  38.590   1.827
 9677W        W76218   4.690  27.088  12.520
 9678W        W76219  29.881   5.314  10.763
 9679W        W76220   9.413   5.424   2.645
 9680W        W76221  18.788  20.491  14.470
 9681W        W76222   5.936  30.854   1.381
 9682W        W76223  31.549  18.466  13.096
 9683W        W76224   2.287  38.860   2.813
 9684W        W76225  11.165  38.588  12.348
 9685W        W76226  17.120  39.379  13.384
 9686W        W76227  41.821  29.848  11.474
 9687W        W76228  33.519  26.765   2.320
 9688W        W76229  41.198  38.269  14.780
 9689W        W76230   8.459  31.984  14.282
 9690W        W76231  35.984  11.570   0.495
 9691W        W76232   7.443  25.118   1.459
 9692W        W76233  41.363   8.597   1.326
 9693W        W76234   5.213  43.309   0.219
 9694W        W76235   0.352  40.863  14.868
 9695W        W76236   9.286   2.961  14.806
 9696W        W76237  22.104  35.000   2.619
 9697W        W76238  14.182  18.761  13.328
 9698W        W76239  16.332  30.112  14.634
 9699W        W76240  37.806   2.008  13.600
 9700W        W76241  42.078  38.084  14.916
 9701W        W76242  18.074   7.002   2.407
 9702W        W76243  23.407   4.669   0.152
 9703W        W76244  33.506   3.788  11.599
 9704W        W76245  20.292  42.205  13.426
 9705W        W76246  22.278  27.271   4.806
 9706W        W76247  26.550  43.984  14.501
 9707W        W76248  28.564  24.516  12.727
 9708W        W76249  34.209  19.966   5.024
 9709W        W76250  20.617  35.564  10.958
 9710W        W76251  30.999  18.278  14.928
 9711W        W76252   2.234  24.856  10.683
 9712W        W76253  37.080  12.901   1.331
 9713W        W76254  37.422   7.898  14.302
 9714W        W76255   2.254  11.184   1.887
 9715W        W76256  26.558   8.784  13.955
 9716W        W76257  26.669   4.889   1.159
 9717W        W76258   7.898   1.716   0.434
 9718W        W76259  15.699   3.946   1.222
 9719W        W76260  17.404  12.823  14.521
 9720W        W76261   6.937   2.602   5.001
 9721W        W76262   8.911  11.812   3.722
 9722W        W76263  21.800   1.630   3.168
 9723W        W76264  32.546  44.916   0.864
 9724W        W76265  33.292  39.418  13.299
 9725W        W76266   4.666   6.982   3.303
 9726W        W76267  35.442  30.521   2.491
 9727W        W76268  23.766  39.584   4.642
 9728W        W76269  22.999  17.519  12.158
 9729W        W76270  19.712   7.341  14.342
 9730W        W76271  39.389  44.977  14.223
 9731W        W76272  31.991  36.387  10.760
 9732W        W76273  17.117  19.633   1.627
 9733W        W76274  20.360  34.613   1.807
 9734W        W76275   8.359  44.860   4.642
 9735W        W76276  39.874   1.365  14.981
 9736W        W76277  12.031  27.491  11.461
 9737W        W76278  14.727  32.694   3.517
 9738W        W76279  23.988  38.536  12.863
 9739W        W76280   1.401  38.103  10.459
 9740W        W76281   3.053  24.146  10.357
 9741W        W76282  18.375  40.006   3.328
 9742W        W76283  20.732  21.359   1.757
 9743W        W76284  39.929  39.950  11.596
 9744W        W76285  22.734  18.076   2.349
 9745W        W76286  14.681  15.219  14.335
 9746W        W76287  24.287  31.099   4.240
 9747W        W76288  27.875   8.982  11.054
 9748W        W76289  13.327  11.196   1.502
 9749W        W76290  28.873  36.949   0.838
 9750W        W76291  15.372  22.851  14.355
 9751W        W76292   9.705   7.990   1.243
 9752W        W76293  29.634  30.576   0.726
 9753W        W76294  20.398  26.549  13.916
 9754W        W76295   2.994  43.985  10.131
 9755W        W76296  43.049  21.297   0.895
 9756W        W76297  10.680  40.388   0.861
 9757W        W76298   6.940  24.562   2.764
 9758W        W76299  19.649   1.510   1.281
 9759W        W76300   5.584  42.430   4.144
 9760W        W76301  31.892  15.648   0.838
 9761W        W76302  40.285   5.876  13.835
 9762W        W76303  16.348  31.091  13.588
 9763W        W76304  13.544  11.096  11.701
 9764W        W76305   9.400  40.868   0.297
 9765W        W76306  28.819  26.047  14.438
 9766W        W76307   2.743  12.697   3.805
 9767W        W76308  32.841   1.319  11.431
 9768W        W76309   9.800  42.436   0.903
 9769W        W76310  40.417   9.267   2.449
 9770W        W76311   5.126  30.656   0.386
 9771W        W76312  29.650  19.132   2.372
 9772W        W76313  24.712  24.717   2.216
 9773W        W76314  33.827  10.788   3.255
 9774W        W76315   4.536   6.512   4.556
 9775W        W76316  26.827   9.215   1.420
 9776W        W76317  17.698  27.727   0.365
 9777W        W76318  22.042  21.659  12.375
 9778W        W76319  30.898   3.156   2.859
 9779W        W76320  28.892   3.336  13.765
 9780W        W76321   1.177  21.267   0.446
 9781W        W76322  18.669  33.476   0.705
 9782W        W76323  39.656   8.452   3.246
 9783W        W76324   2.298  34.463   3.331
 9784W        W76325  29.132   8.855  14.838
 9785W        W76326  21.965  11.826   2.324
 9786W        W76327  42.380  29.774   4.139
 9787W        W76328  31.524   9.863  14.980
 9788W        W76329  39.617  18.977  13.290
 9789W        W76330  43.734  34.511  11.145
 9790W        W76331  37.811  10.314  13.812
 9791W        W76332  41.958   4.180  14.436
 9792W        W76333   1.904   6.489   1.357
 9793W        W76334   3.933  17.630   2.300
 9794W        W76335  10.763  30.080   1.681
 9795W        W76336  17.859  43.488  12.048
 9796W        W76337  33.319  43.206  12.871
 9797W        W76338   3.215  17.824  14.932
 9798W        W76339   6.234  25.969  13.483
 9799W        W76340  19.217  10.168  11.207
 9800W        W76341   8.537   8.825   4.158
 9801W        W76342  14.729  14.569  12.866
 9802W        W76343  35.384  34.253  11.579
 9803W        W76344  12.079  12.671   3.584
 9804W        W76345  27.166  30.100   2.706
 9805W        W76346  20.081  36.166   2.184
 9806W        W76347  10.065   0.739   3.628
 9807W        W76348  39.634  39.923   0.315
 9808W        W76349   7.352  29.580   3.136
 9809W        W76350  33.874  34.687   1.941
 9810W        W76351  42.691  34.418   2.595
 9811W        W76352  27.977  27.611  12.475
 9812W        W76353  12.421   7.735   4.588
 9813W        W76354  26.580  28.002   3.575
 9814W        W76355  32.859   7.273  11.388
 9815W        W76356  32.382  30.231  11.120
 9816W        W76357  34.834  23.285  14.364
 9817W        W76358   7.308  15.475  13.360
 9818W        W76359  43.725  34.137  11.503
 9819W        W76360  18.336  22.591   2.032
 9820W        W76361  39.576  15.668   0.306
 9821W        W76362  19.861  10.798   0.455
 9822W        W76363  41.133  21.969  12.247
 9823W        W76364   4.256  20.322   3.787
 9824W        W76365  36.945  11.252  13.879
 9825W        W76366  25.165  14.150  13.824
 9826W        W76367  40.074   7.170   2.262
 9827W        W76368  25.091  34.946  11.418
 9828W        W76369  19.795  26.043  11.598
 9829W        W76370   9.619  40.930   2.253
 9830W        W76371  37.346   8.570  12.384
 9831W        W76372  40.309  16.007  10.631
 9832W        W76373  20.187  11.138  13.490
 9833W        W76374  43.719  28.825   1.144
 9834W        W76375   4.962  34.635   4.188
 9835W        W76376   5.895  42.048   5.014
 9836W        W76377   2.491  22.061  13.514
 9837W        W76378  22.221  12.141   0.990
 9838W        W76379  42.794  10.061   3.597
 9839W        W76380  43.869  17.670  11.898
 9840W        W76381   8.741  28.587  12.902
 9841W        W76382  37.121  35.371   2.960
 9842W        W76383  40.427  26.808  13.977
 9843W        W76384  22.243  40.789   4.293
 9844W        W76385  25.236  13.076   0.018
 9845W        W76386  15.144  29.735  12.945
 9846W        W76387  35.677  28.424   0.397
 9847W        W76388  30.981  41.908  13.640
 9848W        W76389  18.764   6.120  11.137
 9849W        W76390  42.142   6.193   4.839
 9850W        W76391  22.744  42.657  11.654
 9851W        W76392  19.594  16.265  11.214
 9852W        W76393  13.836   5.435   0.446
 9853W        W76394  30.866  13.957  14.436
 9854W        W76395  37.594  16.770   1.375
 9855W        W76396  41.964  12.858  14.453
 9856W        W76397   9.612   3.712  13.456
 9857W        W76398  30.570  20.963  13.466
 9858W        W76399  20.496  28.186  14.301
 9859W        W76400  13.385  12.582   2.892
 9860W        W76401  22.765   4.748  10.694
 9861W        W76402  33.507   8.618  11.416
 9862W        W76403  41.440  30.860   1.036
 9863W        W76404   5.471  14.055  11.657
 9864W        W76405  22.087  19.636  14.852
 9865W        W76406  28.893   3.773  11.640
 9866W        W76407  36.086  40.781   0.467
 9867W        W76408   4.963  20.549   4.147
 9868W        W76409  30.413  44.262  14.630
 9869W        W76410   7.343  34.848  12.176
 9870W        W76411  27.828  11.173  10.299
 9871W        W76412   4.775   4.457   1.200
 9872W        W76413  26.627  33.635   1.390
 9873W        W76414  38.216  16.071   1.807
 9874W        W76415  16.632  42.205  13.565
 9875W        W76416  24.776  41.477   0.383
 9876W        W76417  26.023  27.143  13.529
 9877W        W76418  31.376  16.306   5.424
 9878W        W76419  15.191  41.307  14.448
 9879W        W76420  29.683  18.036   1.869
 9880W        W76421  13.816   5.001   1.771
 9881W        W76422  42.483  39.692  11.241
 9882W        W76423  43.796   5.009  13.464
 9883W        W76424  34.866   2.767  12.557
 9884W        W76425  44.092  32.447   1.326
 9885W        W76426  15.235  39.175   0.266
 9886W        W76427  29.403  41.464   2.649
 9887W        W76428  21.702   0.307   0.662
 9888W        W76429  19.010   8.198  14.542
 9889W        W76430  13.240  31.312   0.559
 9890W        W76431   3.259  36.918   4.224
 9891W        W76432  40.993  38.959   3.644
 9892W        W76433  38.993  26.995  10.220
 9893W        W76434  20.434  27.727   2.342
 9894W        W76435  21.563  41.009   4.842
 9895W        W76436  16.785  43.854  11.662
 9896W        W76437   8.284   8.360   1.760
 9897W        W76438  11.272  38.334   0.432
 9898W        W76439  34.802  40.588   4.086
 9899W        W76440  22.348  34.512   0.371
 9900W        W76441  21.004  10.968   0.361
 9901W        W76442  12.502  44.750  12.453
 9902W        W76443  22.164   4.245  10.198
 9903W        W76444  10.462  36.553   0.104
 9904W        W76445  38.044  31.552   3.305
 9905W        W76446  36.134   4.007  13.787
 9906W        W76447  23.502  23.295   2.818
 9907W        W76448  30.359   1.401  10.513
 9908W        W76449  14.811  39.792   4.530
 9909W        W76450  42.378   0.054   3.833
 9910W        W76451  41.426  21.858  11.390
 9911W        W76452  12.210  36.341   4.579
 9912W        W76453  14.144  17.120  11.015
 9913W        W76454  19.528  20.763  10.612
 9914W        W76455  33.375  43.760  11.147
 9915W        W76456  18.119   4.834  13.290
 9916W        W76457  13.253   1.695  13.593
 9917W        W76458  22.831  39.124   9.949
 9918W        W76459  43.888  17.862   3.797
 9919W        W76460  15.840  23.355   1.223
 9920W        W76461   5.039  16.613   4.987
 9921W        W76462  14.121  38.990   0.147
 9922W        W76463  12.234  43.450   3.771
 9923W        W76464  23.812  41.030  11.564
 9924W        W76465  34.979  39.360   4.109
 9925W        W76466  44.026  42.331  13.101
 9926W        W76467   0.444  20.215   4.662
 9927W        W76468  40.417   1.433   2.367
 9928W        W76469  38.591  38.475   3.760
 9929W        W76470   6.730  41.541  11.170
 9930W        W76471  25.703  23.179   2.595
 9931W        W76472  16.504  40.365   3.396
 9932W        W76473  34.485  11.380   4.348
 9933W        W76474  37.108  28.167  11.601
 9934W        W76475  38.741  15.655  14.803
 9935W        W76476  42.363  44.994   0.152
 9936W        W76477   9.311   3.217   0.294
 9937W        W76478  23.424  36.089   0.691
 9938W        W76479   2.251  23.894   4.244
 9939W        W76480  16.354  21.359   2.335
 9940W        W76481  31.445  21.569   3.423
 9941W        W76482   3.865  38.623   4.528
 9942W        W76483  14.787  19.196   0.446
 9943W        W76484  28.695  42.557   4.684
 9944W        W76485  33.039  13.404   3.539
 9945W        W76486   7.715  35.247  11.354
 9946W        W76487  38.948  21.429  10.738
 9947W        W76488  44.275   3.244  12.400
 9948W        W76489   8.440  43.303   1.846
 9949W        W76490  36.909  13.419  11.136
 9950W        W76491  37.236  17.177   2.786
 9951W        W76492  18.872  13.161   3.547
 9952W        W76493  10.246  21.873   1.871
 9953W        W76494  19.198   9.597  13.781
 9954W        W76495  39.803   1.744  12.570
 9955W        W76496  41.221  32.660  14.474
 9956W        W76497   7.969  31.647   1.760
 9957W        W76498  37.351  15.079   1.635
 9958W        W76499   4.001  44.756   2.200
 9959W        W76500  32.187  26.666  11.146
 9960W        W76501  30.909  29.835  12.644
 9961W        W76502  16.735  18.350  11.187
 9962W        W76503  28.011  14.097  10.721
 9963W        W76504   6.214  20.207   0.478
 9964W        W76505  29.068  40.631   3.230
 9965W        W76506  25.699  35.391   0.780
 9966W        W76507   2.024  14.064  13.854
 9967W        W76508  33.098   5.063  12.352
 9968W        W76509  23.499   9.322   1.392
 9969W        W76510  34.122   5.271  14.038
 9970W        W76511  27.985  13.179   0.375
 9971W        W76512  22.234  20.244  13.971
 9972W        W76513  12.177  27.464   4.147
 9973W        W76514  26.419  27.961   2.338
 9974W        W76515   9.403   1.449  12.362
 9975W        W76516  25.007   9.435   1.640
 9976W        W76517  44.722   2.236   4.616
 9977W        W76518  27.966  25.032   4.026
 9978W        W76519  12.804  20.632   0.097
 9979W        W76520  22.505  27.871  10.742
 9980W        W76521  15.733  22.114   3.746
 9981W        W76522  41.909   1.517  13.533
 9982W        W76523  41.455   6.465  13.031
 9983W        W76524  34.897  30.073  14.169
 9984W        W76525  37.460  26.935  12.001
 9985W        W76526  26.967   4.252   0.981
 9986W        W76527  22.723  35.785   4.283
 9987W        W76528  11.732  40.514   4.525
 9988W        W76529  14.594  10.101  12.986
 9989W        W76530  15.144  20.906  10.837
 9990W        W76531  24.939  39.032   0.341
 9991W        W76532  37.798  42.486  14.378
 9992W        W76533  34.535   2.343  12.528
 9993W        W76534   4.746  27.548   0.189
 9994W        W76535  43.878   5.775   0.926
 9995W        W76536  40.061   8.724   0.478
 9996W        W76537  25.594  43.372   3.610
 9997W        W76538   8.159  28.679   4.171
 9998W        W76539  15.828  25.636  11.152
 9999W        W76540  30.943  35.897  13.904
10000W        W76541  42.574   3.897   2.731
10001W        W76542  25.003  30.428  10.533
10002W        W76543  39.216   8.226  12.049
10003W        W76544  33.845   8.444  13.196
10004W        W76545  17.684   0.247  14.867
10005W        W76546  17.321  30.189  11.947
10006W        W76547  23.540  19.051   3.356
10007W        W76548  16.326  43.045  13.476
10008W        W76549  30.640  41.719   0.852
10009W        W76550   6.295  35.814   3.114
10010W        W76551  44.470   1.362   4.329
10011W        W76552  18.178   6.896  11.158
10012W        W76553  17.152  20.899   0.220
10013W        W76554   1.031  27.563   0.019
10014W        W76555   2.933  14.733  13.052
10015W        W76556   1.308   6.089  11.541
10016W        W76557  17.217  12.329   2.956
10017W        W76558   4.821  23.722   5.277
10018W        W76559   7.792   2.446   2.185
10019W        W76560   3.648   5.010   4.182
10020W        W76561  18.023  10.700   0.761
10021W        W76562  29.100  20.038  13.976
10022W        W76563  32.565   0.887   0.937
10023W        W76564  23.164   7.865  14.774
10024W        W76565  20.450  29.393   4.214
10025W        W76566  24.582   6.740   3.110
10026W        W76567  21.699  16.695  12.377
10027W        W76568   8.796  38.480   0.957
10028W        W76569  35.247   4.444  14.231
10029W        W76570  32.149  41.552   3.303
10030W        W76571  39.407  10.682  12.305
10031W        W76572   4.012  26.552  12.264
10032W        W76573  32.951  44.988   2.355
10033W        W76574  44.666  20.083   3.176
10034W        W76575  37.961  38.055  11.165
10035W        W76576  38.475  19.576  13.530
10036W        W76577  12.054  16.184   4.812
10037W        W76578  37.473  28.387   1.172
10038W        W76579  37.087   1.950  10.562
10039W        W76580   2.188   0.386  13.902
10040W        W76581  21.997  12.104  11.120
10041W        W76582  11.331  33.707   0.258
10042W        W76583  33.498   9.418   4.006
10043W        W76584  43.900  41.387  14.166
10044W        W76585   1.204   1.156  13.108
10045W        W76586   5.723  13.734   1.434
10046W        W76587  12.899  38.722   3.269
10047W        W76588  36.108   0.778  14.152
10048W        W76589  22.780   4.840  11.628
10049W        W76590  20.362   5.266  11.255
10050W        W76591  42.826   9.621   3.327
10051W        W76592  14.746  17.900   0.280
10052W        W76593  27.680  26.909   0.766
10053W        W76594  23.305  10.132   0.043
10054W        W76595  25.200  31.813  12.450
10055W        W76596   1.298  40.072  13.410
10056W        W76597  27.037  32.873  12.580
10057W        W76598  44.058  40.035  13.416
10058W        W76599  29.115  23.723   0.778
10059W        W76600  39.358  18.733  14.554
10060W        W76601  21.496  41.036  13.570
10061W        W76602  19.022  13.912  13.966
10062W        W76603  38.446  36.924  13.876
10063W        W76604  20.894  41.837   2.285
10064W        W76605  29.257  17.710  10.721
10065W        W76606  11.348  19.172   3.689
10066W        W76607  25.230   9.650   3.614
10067W        W76608   7.424  27.657  14.057
10068W        W76609   8.483  11.613   2.813
10069W        W76610  33.207  32.397  12.734
10070W        W76611  18.593  16.200  12.821
10071W        W76612  41.319  35.334  12.451
10072W        W76613  34.474   7.209   2.187
10073W        W76614  40.730   0.833   4.014
10074W        W76615  33.449   9.171   4.457
10075W        W76616  23.195   0.751   0.273
10076W        W76617  25.021  28.481  13.369
10077W        W76618   1.841  14.232   2.112
10078W        W76619  32.380  21.695  10.727
10079W        W76620  11.806  17.042   3.262
10080W        W76621  39.627  30.521  13.740
10081W        W76622   8.740  26.180   1.401
10082W        W76623  11.826  23.167   1.240
10083W        W76624   9.180  35.884  12.173
10084W        W76625   9.371  21.557   3.843
10085W        W76626   8.770  32.797  11.502
10086W        W76627   9.153  19.513  10.467
10087W        W76628  15.316   9.726   4.321
10088W        W76629  30.981   1.548   0.830
10089W        W76630  18.521  11.153   3.707
10090W        W76631  12.681  22.435   4.085
10091W        W76632  22.034  37.803  11.061
10092W        W76633  41.790  22.115   2.680
10093W        W76634   5.933   9.505  12.737
10094W        W76635  18.557  33.440  13.004
10095W        W76636  13.603  38.839   4.655
10096W        W76637  22.761   3.483   0.861
10097W        W76638  35.968  12.407  12.358
10098W        W76639  33.844  29.370   3.767
10099W        W76640  10.244  21.636   4.138
10100W        W76641  27.485  29.192  11.238
10101W        W76642  18.326  12.879   5.197
10102W        W76643  23.966  17.479  13.009
10103W        W76644  40.087  40.250   2.767
10104W        W76645   8.705  41.012   0.839
10105W        W76646  44.256   3.005   3.451
10106W        W76647  40.542  16.645  13.365
10107W        W76648  13.827  44.481  10.434
10108W        W76649  29.384   6.975   1.307
10109W        W76650  36.229  15.724   1.456
10110W        W76651   7.264  31.343  13.057
10111W        W76652   1.392  42.954  12.364
10112W        W76653  17.764  27.528   2.972
10113W        W76654  15.633  27.526   4.307
10114W        W76655  19.208  14.855   4.985
10115W        W76656   6.630  37.033  11.630
10116W        W76657  29.221  35.271   4.441
10117W        W76658  23.983  10.274  12.950
10118W        W76659  28.718   1.776  13.434
10119W        W76660  38.189  42.656  13.624
10120W        W76661  39.728   4.894   1.031
10121W        W76662  32.448  33.953   3.736
10122W        W76663   8.487  15.455   4.529
10123W        W76664  25.025  42.844  10.549
10124W        W76665   4.405  26.618  11.932
10125W        W76666  33.250  12.060   4.590
10126W        W76667  32.419   4.323   1.121
10127W        W76668  29.154  10.768   0.165
10128W        W76669   7.244  16.298  11.498
10129W        W76670  38.848  32.316  14.892
10130W        W76671  19.695  15.520   1.221
10131W        W76672  17.858   1.277  11.585
10132W        W76673  21.230  42.970   3.220
10133W        W76674  20.520  43.868   1.380
10134W        W76675   8.493  13.036   3.369
10135W        W76676  30.907  29.203   0.301
10136W        W76677   4.833   8.860  12.162
10137W        W76678  30.595  13.314  13.130
10138W        W76679   2.010   8.619   0.589
10139W        W76680  38.616  24.086  11.546
10140W        W76681  18.992  30.310   2.235
10141W        W76682   1.902  42.095   1.963
10142W        W76683   3.006  24.323  14.220
10143W        W76684  33.681  44.400  12.374
10144W        W76685  20.525  44.453   3.653
10145W        W76686  22.966  37.788   3.873
10146W        W76687  36.325  36.610  13.984
10147W        W76688  41.267  41.128  14.374
10148W        W76689   9.549  11.322  14.850
10149W        W76690  12.117  23.198  13.570
10150W        W76691   3.144  42.075   4.286
10151W        W76692  36.775  37.397   0.370
10152W        W76693  44.572  18.848  14.748
10153W        W76694  12.787  33.606  12.982
10154W        W76695  20.646   5.652  13.806
10155W        W76696  22.467   3.239   3.756
10156W        W76697  34.965  19.035   3.547
10157W        W76698  41.704  32.589  12.944
10158W        W76699   8.626   5.315   0.358
10159W        W76700  19.504  12.373  13.444
10160W        W76701  13.682  33.984   4.532
10161W        W76702  13.311   8.206   4.232
10162W        W76703   1.179   1.800  11.083
10163W        W76704  37.355  14.600   3.442
10164W        W76705  36.114  18.468   4.193
10165W        W76706  12.038  39.085  12.566
10166W        W76707  39.413  32.751   1.251
10167W        W76708  16.998  35.989  12.429
10168W        W76709  28.193  39.480   1.796
10169W        W76710  29.005  42.106  12.852
10170W        W76711  27.661  21.570  14.250
10171W        W76712  41.114  10.882   0.855
10172W        W76713  37.486  16.712   2.132
10173W        W76714   7.660  35.768  14.687
10174W        W76715   9.791  37.965  12.568
10175W        W76716  43.247  25.498  11.065
10176W        W76717  18.337  43.339  12.047
10177W        W76718  10.665  18.505  10.533
10178W        W76719  41.386  41.958  13.135
10179W        W76720  39.052   5.713  12.987
10180W        W76721  35.017  24.804  11.986
10181W        W76722  12.746  31.802  13.033
10182W        W76723  31.956  18.475   1.702
10183W        W76724  22.939   6.855  13.298
10184W        W76725  33.941   9.794   3.159
10185W        W76726  35.909  17.076   0.409
10186W        W76727  25.445  28.029  12.039
10187W        W76728  30.862  34.496  13.835
10188W        W76729  22.351  42.940  11.297
10189W        W76730  32.909  38.140  13.978
10190W        W76731  27.408  31.624  11.209
10191W        W76732  20.048  24.544  12.579
10192W        W76733  26.539  43.253   3.199
10193W        W76734  11.795  11.309   1.801
10194W        W76735  31.104  16.841   2.749
10195W        W76736  27.690  25.775  12.532
10196W        W76737  43.636  24.522   4.603
10197W        W76738  33.481  32.463   1.440
10198W        W76739  20.752  23.785  14.310
10199W        W76740  21.519  33.067   1.303
10200W        W76741  21.206  18.158   2.673
10201W        W76742  38.505  30.858  14.755
10202W        W76743   9.119  30.664   0.307
10203W        W76744  28.221   9.034   0.835
10204W        W76745  21.166  18.570   4.605
10205W        W76746  31.031  38.725  10.811
10206W        W76747  40.077  28.925  13.940
10207W        W76748   6.481  22.925   4.893
10208W        W76749  25.405  23.625  12.425
10209W        W76750  20.702  36.225  12.521
10210W        W76751  24.140  19.172   4.178
10211W        W76752   1.919  40.398  10.673
10212W        W76753  38.538  40.937   3.239
10213W        W76754  37.004  35.062  12.548
10214W        W76755  16.685  32.871  13.430
10215W        W76756   5.836  29.637  11.199
10216W        W76757  20.004  38.858  10.947
10217W        W76758  19.615   2.574   1.163
10218W        W76759  38.012  14.127   0.782
10219W        W76760  32.280  43.506  13.090
10220W        W76761  38.603   0.312  14.604
10221W        W76762   1.994  20.501  13.122
10222W        W76763  10.731  18.705  13.909
10223W        W76764  28.051   5.198   1.295
10224W        W76765  43.563  44.463  14.319
10225W        W76766   6.286  41.401   3.698
10226W        W76767  41.550  40.943  10.601
10227W        W76768  22.497  17.063  10.258
10228W        W76769  25.600  29.655  14.509
10229W        W76770   6.701  39.356  11.725
10230W        W76771  11.123  44.849  13.879
10231W        W76772  26.600  22.046   1.008
10232W        W76773  28.416  20.046  14.338
10233W        W76774  23.656  30.466   4.051
10234W        W76775  21.623  27.952  11.612
10235W        W76776   7.312  19.358   4.149
10236W        W76777   9.298  28.040   4.436
10237W        W76778  43.734  20.796   4.222
10238W        W76779  17.351  37.164   0.156
10239W        W76780  16.274  28.538  12.630
10240W        W76781  36.223  21.686  12.871
10241W        W76782   4.418  11.289  13.963
10242W        W76783  11.827  12.130  10.228
10243W        W76784  41.410   0.946   1.509
10244W        W76785  15.796  32.096   5.290
10245W        W76786   2.275   7.705   2.248
10246W        W76787   3.405   2.258  14.672
10247W        W76788  27.948   6.377   0.474
10248W        W76789  28.519  10.640  14.885
10249W        W76790  30.232  13.301  12.373
10250W        W76791  23.761  35.332  11.198
10251W        W76792  32.526  39.118   0.480
10252W        W76793  35.975   9.136   0.284
10253W        W76794  24.728   5.753  11.872
10254W        W76795  17.338  42.366  14.841
10255W        W76796  44.163   6.090   2.285
10256W        W76797  34.331  14.686  10.756
10257W        W76798  30.467  17.565   0.445
10258W        W76799  26.059  20.857  12.934
10259W        W76800  17.555  13.009   2.437
10260W        W76801  31.080  41.209   0.199
10261W        W76802   6.679  44.714  12.157
10262W        W76803  28.715   3.924   3.255
10263W        W76804  19.582   3.977   3.599
10264W        W76805  43.263  30.501   0.615
10265W        W76806  26.008  17.192   2.649
10266W        W76807  35.402   9.756   1.856
10267W        W76808  39.301  32.015  10.163
10268W        W76809  44.558  22.385  13.369
10269W        W76810   9.797  43.794   0.458
10270W        W76811  28.090  12.851  14.833
10271W        W76812  21.995  27.706   3.182
10272W        W76813   6.346  11.586   1.182
10273W        W76814   2.842   0.592  11.102
10274W        W76815   9.192  24.142   2.799
10275W        W76816  44.347  33.497   0.384
10276W        W76817   0.512  16.596   0.785
10277W        W76818  37.559  18.531  14.186
10278W        W76819  42.367  26.790  12.442
10279W        W76820   3.394  18.468   1.168
10280W        W76821  25.506  42.822   0.518
10281W        W76822  23.230  37.052  11.177
10282W        W76823  24.495  18.255   0.377
10283W        W76824  15.171  33.241   2.329
10284W        W76825  35.174   7.477   0.972
10285W        W76826  19.559  29.681  13.506
10286W        W76827  12.890  26.110   3.457
10287W        W76828  29.201  41.990  13.808
10288W        W76829  14.789  11.939  13.974
10289W        W76830  40.307   0.433  13.287
10290W        W76831  29.992  31.379   1.091
10291W        W76832   4.226  16.115  12.541
10292W        W76833  26.485  16.349   4.110
10293W        W76834  30.342  41.363  11.477
10294W        W76835  26.764  25.801   2.745
10295W        W76836  23.266   1.160  13.507
10296W        W76837  24.207  29.538  10.940
10297W        W76838  42.949   0.032  13.825
10298W        W76839  14.166  41.021  12.383
10299W        W76840  41.300  10.627   3.690
10300W        W76841  31.426  24.276  14.064
10301W        W76842  17.633  29.700   2.250
10302W        W76843  35.477  18.539   1.433
10303W        W76844  25.197  42.461   2.775
10304W        W76845   3.246  25.256  13.402
10305W        W76846  20.227   5.930  12.531
10306W        W76847  24.574  43.062   4.952
10307W        W76848  20.711  13.574  10.761
10308W        W76849  43.882  30.454  12.779
10309W        W76850  43.194  37.165   3.392
10310W        W76851  41.991  16.427   4.280
10311W        W76852  28.499  20.112   0.307
10312W        W76853  37.012   5.306  12.215
10313W        W76854  10.761   3.929   0.765
10314W        W76855  10.823   8.239   2.265
10315W        W76856  11.610  38.488   2.321
10316W        W76857   3.488  15.684   4.139
10317W        W76858  23.088  25.206   2.124
10318W        W76859  17.061  30.723   4.175
10319W        W76860   8.497  16.548   2.925
10320W        W76861  13.313  17.011   2.485
10321W        W76862  23.053  16.258  13.762
10322W        W76863  14.730  39.727   0.024
10323W        W76864   8.429  39.927   5.523
10324W        W76865  23.567  40.834   2.123
10325W        W76866  33.842  21.751  14.835
10326W        W76867   7.388   4.044   4.195
10327W        W76868  42.369  34.311  14.790
10328W        W76869  31.935  12.163  12.460
10329W        W76870  28.474  44.303  11.037
10330W        W76871  18.733  35.399   4.504
10331W        W76872  14.636  22.146  14.392
10332W        W76873  26.642  29.542  10.907
10333W        W76874  22.305   0.144   4.258
10334W        W76875  40.305  41.049   4.508
10335W        W76876  20.121  29.442  10.661
10336W        W76877  39.824  42.441  12.054
10337W        W76878  25.049  15.791  14.839
10338W        W76879   0.955   2.950  13.768
10339W        W76880   6.396  22.556   3.283
10340W        W76881   7.284  12.549   2.575
10341W        W76882  42.874  29.626  12.468
10342W        W76883  20.165  32.801  12.091
10343W        W76884   7.911   6.660   2.672
10344W        W76885  22.817   9.890  14.282
10345W        W76886  16.593   9.273   1.900
10346W        W76887  33.022  38.085  14.837
10347W        W76888   3.014  21.019  11.549
10348W        W76889  20.171  32.367  14.250
10349W        W76890  27.551  23.201   5.009
10350W        W76891  32.894  18.647   4.543
10351W        W76892  43.412  15.583  12.649
10352W        W76893  17.589   2.424  12.727
10353W        W76894  13.746  27.863  11.535
10354W        W76895  15.169  35.370  13.326
10355W        W76896  10.833  34.896  13.512
10356W        W76897   8.595  28.444   0.811
10357W        W76898  33.876  18.243  12.522
10358W        W76899  31.683  21.285   0.878
10359W        W76900   6.322  12.863   1.364
10360W        W76901   1.328  25.212  11.644
10361W        W76902  14.179  30.605   0.030
10362W        W76903  26.261   4.636  11.165
10363W        W76904   4.422  24.224  11.159
10364W        W76905   4.773  17.283   4.253
10365W        W76906   3.708  39.525  12.359
10366W        W76907  19.639  17.115  14.513
10367W        W76908  10.342  17.521  14.883
10368W        W76909   8.379  31.039   4.036
10369W        W76910  14.653  20.355  13.369
10370W        W76911  36.971   6.695   3.059
10371W        W76912  35.587  28.433   2.365
10372W        W76913  14.762  42.921   0.080
10373W        W76914  23.096  24.245   2.844
10374W        W76915   2.883  39.984  11.585
10375W        W76916  18.339  22.760   0.544
10376W        W76917  26.425  18.336   2.116
10377W        W76918   5.710  12.358  14.343
10378W        W76919   5.312  16.876  13.797
10379W        W76920  35.487  32.468  10.731
10380W        W76921  23.704  30.099   1.329
10381W        W76922  25.958   7.627   4.147
10382W        W76923  15.353  31.570  12.099
10383W        W76924  32.209  16.633  14.898
10384W        W76925  10.833   6.169  14.444
10385W        W76926  38.470  12.274   0.669
10386W        W76927  40.497  20.100  14.749
10387W        W76928  13.175   6.202  11.686
10388W        W76929  37.173  43.347   0.872
10389W        W76930  12.618  19.954  12.850
10390W        W76931  30.557  11.822  11.197
10391W        W76932  10.331  10.905   1.738
10392W        W76933  25.532  13.678  11.847
10393W        W76934  31.644  22.484  13.822
10394W        W76935  36.677  39.344  12.056
10395W        W76936  30.218  29.101   3.124
10396W        W76937   8.740  24.691   0.379
10397W        W76938  39.497  27.507  11.127
10398W        W76939  28.494  38.075   2.264
10399W        W76940  33.391  11.181   4.493
10400W        W76941  12.045   3.368   5.023
10401W        W76942  39.871  14.413   2.723
10402W        W76943  44.858  30.327  13.894
10403W        W76944  35.296  42.831   0.945
10404W        W76945  16.632   5.171   4.638
10405W        W76946  14.733  29.553  13.191
10406W        W76947  39.543  39.024  11.270
10407W        W76948  27.572  43.548   3.245
10408W        W76949  13.722  44.969   4.215
10409W        W76950  32.950   1.494   4.653
10410W        W76951  11.918  14.609  11.495
10411W        W76952  19.581  20.579   1.478
10412W        W76953  11.667  28.055  10.789
10413W        W76954  32.312  23.569   3.771
10414W        W76955  33.545  42.053  12.444
10415W        W76956  39.119  40.045  13.452
10416W        W76957  37.136   0.873   0.242
10417W        W76958  43.825  12.510   3.875
10418W        W76959  44.188   8.725  12.049
10419W        W76960   4.134  33.846  12.879
10420W        W76961   7.237  15.985  14.963
10421W        W76962  24.398  12.613  10.525
10422W        W76963  34.985  42.996  14.444
10423W        W76964   5.274   0.516  13.392
10424W        W76965  20.718  34.842   4.652
10425W        W76966  11.867  30.663   4.267
10426W        W76967  43.228  29.150  12.071
10427W        W76968  10.640   1.365   4.275
10428W        W76969  36.004  14.540   2.237
10429W        W76970  42.249  24.451  14.698
10430W        W76971  41.791  30.412   1.396
10431W        W76972  40.531  34.573  12.139
10432W        W76973  21.558  39.859  13.817
10433W        W76974  29.041  21.188  12.052
10434W        W76975   1.266  27.698  13.265
10435W        W76976  36.380  15.248  11.549
10436W        W76977  10.721  36.428   0.523
10437W        W76978   2.928  22.893   3.683
10438W        W76979   6.173   0.823   1.366
10439W        W76980  10.629   3.788  11.600
10440W        W76981  23.206  13.416   2.913
10441W        W76982  36.084  31.542   2.474
10442W        W76983  13.018  11.028   3.583
10443W        W76984  39.920  22.994   2.167
10444W        W76985  36.751  11.557   4.132
10445W        W76986  32.172   1.320   2.178
10446W        W76987   3.678  35.895   2.919
10447W        W76988  33.432   0.736   9.667
10448W        W76989  29.560  16.303  10.631
10449W        W76990  38.982  13.619   0.298
10450W        W76991   4.358  14.029  12.467
10451W        W76992  25.747  10.429   1.359
10452W        W76993  39.843  11.260   3.267
10453W        W76994  38.147  42.852  11.528
10454W        W76995  37.858   9.493  14.888
10455W        W76996  22.526  10.547   0.788
10456W        W76997  28.244  23.044   1.972
10457W        W76998  33.122  12.569   4.242
10458W        W76999  13.030  24.647   4.494
10459W        W77000  38.321  20.356   2.872
10460W        W77001  41.746  10.967  13.356
10461W        W77002  44.990   3.246   1.193
10462W        W77003  10.484  39.001  11.086
10463W        W77004  32.195  25.236  13.924
10464W        W77005  25.407  41.980   4.006
10465W        W77006  42.436  11.912   2.892
10466W        W77007  14.659   8.974  11.315
10467W        W77008  35.194  19.134   4.861
10468W        W77009   5.459  18.212  12.403
10469W        W77010  10.588   2.550   4.324
10470W        W77011   1.294  42.927   2.158
10471W        W77012  10.241  42.779   0.947
10472W        W77013  13.214  24.756   4.012
10473W        W77014  38.881  43.437  13.519
10474W        W77015  40.729  27.713   4.699
10475W        W77016  11.807  21.359  11.547
10476W        W77017  14.233  14.277   3.155
10477W        W77018  42.780  31.149  13.100
10478W        W77019  13.406  44.931   2.179
10479W        W77020  16.205   4.622   0.573
10480W        W77021  17.538  16.590  14.764
10481W        W77022  14.831  37.608  12.577
10482W        W77023   3.181   8.326  14.824
10483W        W77024  16.861  41.208  13.826
10484W        W77025  22.407   1.227  13.814
10485W        W77026  35.755  28.789  11.293
10486W        W77027  35.087  38.444  10.699
10487W        W77028   8.199   4.369   1.533
10488W        W77029  22.620  25.178  14.474
10489W        W77030  35.471  10.315   4.574
10490W        W77031  16.044   1.047  11.402
10491W        W77032  21.137  41.889   2.798
10492W        W77033  30.029   7.499  12.371
10493W        W77034  37.600  15.073   3.313
10494W        W77035  26.842  39.370   1.009
10495W        W77036  17.163   1.727  12.505
10496W        W77037  17.257  13.855   1.461
10497W        W77038   5.626  38.730   4.955
10498W        W77039   1.174  44.744  11.999
10499W        W77040  19.022  20.809  12.783
10500W        W77041   7.664   2.153   3.036
10501W        W77042  12.127  27.171  14.524
10502W        W77043  22.702  40.450  13.373
10503W        W77044  21.534  33.012   3.786
10504W        W77045  36.125  27.837   3.939
10505W        W77046  31.649   6.777  14.425
10506W        W77047  31.915   7.274   0.671
10507W        W77048  30.917  43.911  13.961
10508W        W77049  40.370  21.256  12.968
10509W        W77050  43.279  21.294   0.256
10510W        W77051  16.782  14.377   0.316
10511W        W77052   1.448  21.071  12.519
10512W        W77053  27.599  44.475  13.578
10513W        W77054  30.866  32.992  12.033
10514W        W77055   6.915  17.651   0.031
10515W        W77056   3.284  12.454   4.776
10516W        W77057  39.077  28.115   2.688
10517W        W77058  31.211  31.902  14.323
10518W        W77059  25.875  30.322   4.850
10519W        W77060  16.777  16.631  14.470
10520W        W77061   6.750  17.127  13.947
10521W        W77062  10.739  16.129  11.470
10522W        W77063   3.436  10.688   1.309
10523W        W77064   3.695  43.037  13.017
10524W        W77065  33.861  30.119   3.270
10525W        W77066  14.464  35.814  13.368
10526W        W77067  28.178   8.843  13.376
10527W        W77068  42.954  11.692   4.406
10528W        W77069  25.075  18.492   1.304
10529W        W77070  33.049   5.778   5.633
10530W        W77071  29.412  34.826   1.379
10531W        W77072  20.407  35.502   1.878
10532W        W77073   6.917  39.768   0.863
10533W        W77074   1.658   7.798   4.420
10534W        W77075  40.723  41.932  13.938
10535W        W77076   4.434  35.866  12.109
10536W        W77077   4.819   6.014  10.748
10537W        W77078  40.542  40.357  14.468
10538W        W77079  15.271  37.521   1.766
10539W        W77080   3.212  43.991   1.697
10540W        W77081  29.066  19.049   4.187
10541W        W77082  41.764  26.127   3.389
10542W        W77083  11.270  26.068   4.054
10543W        W77084   3.719  21.738   0.398
10544W        W77085  25.402  23.112  11.899
10545W        W77086  16.759  34.508   2.386
10546W        W77087  44.929  24.256   4.578
10547W        W77088  31.365   8.199   4.410
10548W        W77089  10.122  17.629  11.675
10549W        W77090  29.122   7.140   3.769
10550W        W77091  42.260   4.388  13.881
10551W        W77092  10.274  16.888  13.040
10552W        W77093  35.993   9.127  13.009
10553W        W77094  18.934  38.741   3.513
10554W        W77095  10.966  28.210   2.540
10555W        W77096  37.590  18.352   4.633
10556W        W77097  33.047  21.333   1.437
10557W        W77098  36.545   4.782  12.377
10558W        W77099  22.090  38.547   0.923
10559W        W77100  21.110  19.552   3.643
10560W        W77101  14.678  30.902  12.475
10561W        W77102  23.534  37.429  14.038
10562W        W77103  32.147  31.443  11.611
10563W        W77104  24.617  10.719  13.997
10564W        W77105  18.218   5.345  14.946
10565W        W77106  44.261   5.509   1.152
10566W        W77107  24.651  18.304   2.850
10567W        W77108  13.171   8.700   4.937
10568W        W77109  22.820  17.724  14.371
10569W        W77110  31.092  21.899  10.824
10570W        W77111  14.284  39.469  14.947
10571W        W77112  35.948  35.498   4.485
10572W        W77113  30.864  22.043   4.091
10573W        W77114  20.146  20.364   5.015
10574W        W77115  39.076  31.313  13.164
10575W        W77116  28.975  38.632   4.670
10576W        W77117  25.167   9.499  14.886
10577W        W77118  12.103   8.864  12.020
10578W        W77119  39.702  42.761   1.110
10579W        W77120   5.544  39.926  13.449
10580W        W77121  18.363  29.300   2.811
10581W        W77122   5.824  34.478  10.689
10582W        W77123  21.864   7.076   4.183
10583W        W77124  34.584  29.498   3.433
10584W        W77125  19.531  39.075   2.733
10585W        W77126  38.814   5.207  11.726
10586W        W77127  25.469  39.721   0.381
10587W        W77128   2.105  17.406   0.847
10588W        W77129  21.064  10.397  14.837
10589W        W77130  28.919  17.354  10.610
10590W        W77131   1.324  11.046   1.684
10591W        W77132  25.139   4.966  12.108
10592W        W77133  42.960  23.083   1.172
10593W        W77134  23.787  36.012  10.716
10594W        W77135  41.534   5.127  14.154
10595W        W77136   1.768  31.179  13.833
10596W        W77137   5.196  27.172  11.882
10597W        W77138  11.095   4.190  13.355
10598W        W77139   4.237  41.305   3.279
10599W        W77140  17.912   7.967   3.031
10600W        W77141  39.050  35.683   3.675
10601W        W77142  32.461  10.813   4.673
10602W        W77143   6.205  23.768   1.862
10603W        W77144  31.022  13.236  10.283
10604W        W77145  22.898  23.120   0.908
10605W        W77146   9.445  15.350   3.990
10606W        W77147  32.554  44.128  12.379
10607W        W77148  16.971  44.872   4.022
10608W        W77149   5.691  27.520  12.525
10609W        W77150  32.403   5.644   1.764
10610W        W77151  39.494  12.333  10.270
10611W        W77152  33.927  33.764   2.597
10612W        W77153  17.083  41.271   5.013
10613W        W77154   4.817  13.334  12.414
10614W        W77155  18.319   8.889   3.365
10615W        W77156  22.475  38.248  12.517
10616W        W77157   7.162  28.788  13.361
10617W        W77158  36.174  20.048   1.317
10618W        W77159  41.377  39.353   4.783
10619W        W77160  29.509  17.302   2.659
10620W        W77161  11.717  22.133   1.516
10621W        W77162  27.615  41.734   3.559
10622W        W77163  18.973  12.126   1.385
10623W        W77164  30.145  33.050   1.956
10624W        W77165  12.870  22.618   2.577
10625W        W77166  35.862  14.059   0.902
10626W        W77167  27.770  25.791  13.387
10627W        W77168  32.647  24.830  13.602
10628W        W77169  32.551  44.413   0.287
10629W        W77170  21.614  26.156   3.284
10630W        W77171  17.204  27.585  10.776
10631W        W77172  21.824  10.556   0.301
10632W        W77173  40.035  11.682  14.217
10633W        W77174  39.568   8.191  12.441
10634W        W77175  18.115  33.539   2.392
10635W        W77176   9.612  26.012   2.641
10636W        W77177  40.341  38.303  11.598
10637W        W77178  22.074  40.065  13.218
10638W        W77179   5.997   8.270  13.310
10639W        W77180  14.804   0.886   1.636
10640W        W77181  27.391  30.137  12.429
10641W        W77182   1.864  29.154  14.704
10642W        W77183   3.806  28.157  11.005
10643W        W77184  32.544   7.472   1.277
10644W        W77185   5.604  36.890   1.868
10645W        W77186  18.268  41.028   0.549
10646W        W77187  43.822  18.116  13.340
10647W        W77188   1.788  44.935  13.038
10648W        W77189   0.997  36.855   0.217
10649W        W77190  34.659  25.524   0.389
10650W        W77191   3.042  22.453   2.670
10651W        W77192   2.720  17.261   3.384
10652W        W77193  21.303  13.129  10.674
10653W        W77194   2.282  35.314   1.878
10654W        W77195   3.655  43.674  12.501
10655W        W77196  33.828  19.561   2.199
10656W        W77197  44.232  11.611   3.233
10657W        W77198  20.214   0.870  14.979
10658W        W77199   1.343  42.929  10.942
10659W        W77200  31.128   3.803   0.462
10660W        W77201   8.213  39.810   1.043
10661W        W77202  26.606  31.994   4.034
10662W        W77203   1.875   7.867   1.433
10663W        W77204  42.127  42.355   0.203
10664W        W77205  34.914  43.736  10.617
10665W        W77206   4.158  26.932   4.185
10666W        W77207  12.624  23.747  13.814
10667W        W77208  26.451  44.344  10.452
10668W        W77209  34.055  35.454   4.435
10669W        W77210  25.517  30.628  12.685
10670W        W77211  30.923  16.200  10.667
10671W        W77212  10.068  15.050  11.704
10672W        W77213  15.948  39.119  12.676
10673W        W77214  44.079  29.434  14.487
10674W        W77215  33.710  21.443   1.902
10675W        W77216  12.217  30.473  13.337
10676W        W77217  29.493  19.572   5.143
10677W        W77218  22.984   3.795  10.943
10678W        W77219   4.187  44.374  10.707
10679W        W77220   5.865  42.436   2.771
10680W        W77221   8.195  23.682  12.325
10681W        W77222   6.716   8.211  11.142
10682W        W77223  26.787  40.394  12.128
10683W        W77224  22.471  10.578  13.062
10684W        W77225  39.492  35.882   1.463
10685W        W77226  27.390  14.499  12.070
10686W        W77227  35.179  24.631  11.533
10687W        W77228  16.792  37.421  11.184
10688W        W77229   6.740   1.343   0.808
10689W        W77230  36.800  15.157   9.641
10690W        W77231  35.455   7.870   3.301
10691W        W77232  29.071  16.982   1.483
10692W        W77233  28.153  30.087  14.563
10693W        W77234   7.244  37.050   0.978
10694W        W77235  13.557  25.613   3.789
10695W        W77236  39.596   5.187   3.668
10696W        W77237   0.900  42.272  14.429
10697W        W77238  23.689  18.291  11.963
10698W        W77239   0.060   4.329   9.708
10699W        W77240  42.447  28.722  13.955
10700W        W77241  17.291  14.163   0.508
10701W        W77242  28.418  41.251   1.448
10702W        W77243   9.414   5.852   1.803
10703W        W77244  20.853  42.379   3.968
10704W        W77245   7.323  33.093  10.845
10705W        W77246  39.936  32.216  12.435
10706W        W77247  11.703  10.533  13.494
10707W        W77248  18.790   7.827   2.666
10708W        W77249  32.927  20.092   4.567
10709W        W77250   8.128  39.720   2.238
10710W        W77251  25.452  11.855  10.991
10711W        W77252   2.172  44.599  12.900
10712W        W77253  39.606   2.868   1.768
10713W        W77254  19.789  27.200   4.150
10714W        W77255  26.537  20.537  11.269
10715W        W77256  26.307  30.419   4.509
10716W        W77257  32.150  13.330  14.368
10717W        W77258  43.784  33.431  12.640
10718W        W77259  26.162  20.373  13.824
10719W        W77260  31.455  27.577   4.554
10720W        W77261   3.912   4.380   5.142
10721W        W77262  16.900   8.600   0.693
10722W        W77263  37.572  22.486   0.802
10723W        W77264  38.020  33.476   2.185
10724W        W77265  26.205  20.164  14.785
10725W        W77266  43.186  34.075   0.759
10726W        W77267   4.363  22.351  10.729
10727W        W77268   8.151  27.428   2.713
10728W        W77269   6.167   5.329  14.116
10729W        W77270  33.666  32.149   0.549
10730W        W77271  21.934  31.340  14.999
10731W        W77272   9.692  17.411  14.470
10732W        W77273  22.626  19.406  12.482
10733W        W77274  13.152  22.389   1.728
10734W        W77275  23.039  38.551   2.192
10735W        W77276   6.677  24.083  13.906
10736W        W77277   4.701  17.730   3.976
10737W        W77278  15.889  36.024   2.023
10738W        W77279  26.591  23.200  11.207
10739W        W77280  28.623  30.536  13.400
10740W        W77281  43.666  14.788   2.875
10741W        W77282   0.146  22.657   2.767
10742W        W77283   7.427   8.125   0.015
10743W        W77284  19.577  23.441  11.747
10744W        W77285  24.111  25.410  10.855
10745W        W77286  34.081  41.589   4.505
10746W        W77287  24.637  17.205   4.781
10747W        W77288   9.251  41.304   4.163
10748W        W77289  37.416   2.392  13.851
10749W        W77290  16.607  22.148  13.789
10750W        W77291  24.720  42.393   2.096
10751W        W77292  11.357  11.840   2.710
10752W        W77293  22.667  34.167   3.280
10753W        W77294   4.684  40.327   2.219
10754W        W77295  20.691  30.435  10.639
10755W        W77296  12.679  36.585  11.224
10756W        W77297   0.481  20.160  13.891
10757W        W77298  13.291  44.223   3.487
10758W        W77299  16.297  10.704   0.983
10759W        W77300  14.223  19.374   3.676
10760W        W77301  13.599   0.007  11.651
10761W        W77302  20.722  11.013   4.987
10762W        W77303  39.001  39.547   0.167
10763W        W77304  36.680   9.640  11.919
10764W        W77305  42.847  35.891   4.316
10765W        W77306  34.813   8.677  14.536
10766W        W77307   7.680   3.879   2.726
10767W        W77308   2.028  14.723  12.451
10768W        W77309   3.449  26.758  11.616
10769W        W77310  14.540  10.213  12.167
10770W        W77311  22.781  31.591   1.864
10771W        W77312  38.166  27.002  12.396
10772W        W77313  34.863  35.362   3.618
10773W        W77314  27.467   6.499   4.604
10774W        W77315  35.816   9.653   1.535
10775W        W77316  34.031   2.961  13.000
10776W        W77317   8.434   6.743   1.507
10777W        W77318   6.354  33.045  13.445
10778W        W77319  10.744  20.324   2.719
10779W        W77320  25.661  18.370  12.456
10780W        W77321  44.959  26.184   4.532
10781W        W77322  40.731   3.300  12.452
10782W        W77323  16.715  40.045  14.755
10783W        W77324   9.445   8.183  12.404
10784W        W77325  30.978  29.449  11.870
10785W        W77326  44.595   1.996  12.988
10786W        W77327  13.180  19.291   0.569
10787W        W77328  22.017  37.399   4.783
10788W        W77329  35.100  29.594   4.954
10789W        W77330  27.719  17.012   3.207
10790W        W77331  37.797  35.267  12.982
10791W        W77332  39.952  21.529  10.510
10792W        W77333  42.805   8.400   0.439
10793W        W77334  18.665   9.110  11.121
10794W        W77335   4.935  43.010  10.363
10795W        W77336  39.428   5.875  10.983
10796W        W77337  16.023  17.101   2.416
10797W        W77338  29.237   9.199   0.663
10798W        W77339  12.081  12.030   0.451
10799W        W77340  26.463   3.938   0.848
10800W        W77341   7.125  30.033   3.218
10801W        W77342  23.595  25.951   3.885
10802W        W77343  44.053  38.864  14.922
10803W        W77344   3.174  33.196   1.470
10804W        W77345   2.850  13.654  14.065
10805W        W77346  44.671  38.867  13.697
10806W        W77347  11.274  31.810   2.751
10807W        W77348  34.884  19.785  14.384
10808W        W77349   5.297   4.127  13.920
10809W        W77350  35.336  10.843  13.101
10810W        W77351  32.499  39.814   2.314
10811W        W77352  35.849  16.668   1.418
10812W        W77353   1.018   2.173  13.085
10813W        W77354  41.070   7.652  14.312
10814W        W77355   7.282  37.026   2.586
10815W        W77356  39.957  15.005   0.975
10816W        W77357  22.024   3.744  11.104
10817W        W77358  26.949   3.814   0.664
10818W        W77359  42.734   0.929  14.975
10819W        W77360   0.083  22.570   0.380
10820W        W77361  24.067  42.233   4.040
10821W        W77362  41.374  40.203   3.195
10822W        W77363  18.106  35.859  14.500
10823W        W77364  27.472  16.985  11.656
10824W        W77365  37.060  37.173  13.538
10825W        W77366  21.477  17.296   0.894
10826W        W77367  19.235  20.745  14.241
10827W        W77368  32.664  22.297  13.142
10828W        W77369  28.103  26.629  13.812
10829W        W77370  27.641  39.988   0.772
10830W        W77371  10.398   4.382  12.911
10831W        W77372  19.574  15.884   4.610
10832W        W77373   4.228  15.090   1.194
10833W        W77374  30.626  25.919  10.349
10834W        W77375  33.528  36.296   4.300
10835W        W77376  19.242  19.120  12.007
10836W        W77377  35.546  28.490   3.867
10837W        W77378  28.725   5.046   1.830
10838W        W77379  20.496  29.582  14.374
10839W        W77380  14.744  42.238   4.953
10840W        W77381  10.320  27.103  14.250
10841W        W77382  13.173  21.855  14.363
10842W        W77383  36.630  14.234  10.729
10843W        W77384  23.448  42.802   1.439
10844W        W77385  31.388   4.775  12.371
10845W        W77386  24.643  24.008   4.496
10846W        W77387  24.833  11.412   4.105
10847W        W77388  12.773   0.453   1.749
10848W        W77389  16.780  14.180   4.166
10849W        W77390  33.580   1.517  12.126
10850W        W77391   5.652  22.601   4.684
10851W        W77392  34.179   1.303   4.111
10852W        W77393   0.361  19.561  10.699
10853W        W77394   3.365   7.056  12.417
10854W        W77395  16.852  30.340   4.953
10855W        W77396   3.936  19.257   2.704
10856W        W77397  18.347  16.029   0.563
10857W        W77398  37.931  35.485  10.797
10858W        W77399  36.559  36.417  14.906
10859W        W77400  44.715  44.445   0.364
10860W        W77401   2.608  44.442   3.661
10861W        W77402  25.089  18.297  11.993
10862W        W77403  33.375  15.987  13.341
10863W        W77404  43.267  25.186  14.483
10864W        W77405  14.887  15.984   1.315
10865W        W77406  11.340   4.889  13.120
10866W        W77407  34.110  28.421  10.644
10867W        W77408  17.605  43.832  13.545
10868W        W77409  44.307  23.530   1.156
10869W        W77410  30.088  22.194  11.136
10870W        W77411  39.627  20.893   1.661
10871W        W77412   9.103  13.923  11.979
10872W        W77413  29.463  11.315   4.199
10873W        W77414  41.295  41.404   3.631
10874W        W77415   3.651  28.593  14.792
10875W        W77416  42.582  18.061  14.912
10876W        W77417   2.850  40.710  14.932
10877W        W77418  41.272   3.877   4.338
10878W        W77419  14.366  29.205   3.700
10879W        W77420  36.601  18.356   4.406
10880W        W77421  29.362  13.847   2.114
10881W        W77422   2.552   6.719  13.930
10882W        W77423  14.090  13.732  10.683
10883W        W77424  12.335   0.515  12.652
10884W        W77425  17.252   4.663  12.482
10885W        W77426  40.961  19.235   0.321
10886W        W77427  21.554  37.450  14.948
10887W        W77428  33.497   2.445   3.554
10888W        W77429  27.404  14.134  13.056
10889W        W77430   8.351   0.632   2.344
10890W        W77431  33.012  21.452   2.360
10891W        W77432  28.649   9.130  12.521
10892W        W77433  41.706   4.060   4.625
10893W        W77434  14.826  22.670   4.111
10894W        W77435   5.000  18.747   4.591
10895W        W77436  16.262   5.479   3.741
10896W        W77437  35.329  40.461  11.176
10897W        W77438  23.142  15.499   0.884
10898W        W77439  42.863  26.503  11.681
10899W        W77440  40.612   1.751   4.481
10900W        W77441  15.281  38.589   4.008
10901W        W77442  25.521   1.856  11.537
10902W        W77443   8.624  14.022  12.195
10903W        W77444  40.837  39.459   1.197
10904W        W77445  33.461  40.873   3.276
10905W        W77446  15.654  44.279   2.142
10906W        W77447  32.949  41.445  14.825
10907W        W77448  10.878  22.895   0.414
10908W        W77449   1.162   2.676  13.386
10909W        W77450  28.995  17.598  12.123
10910W        W77451   5.929  12.889  10.678
10911W        W77452  19.691  29.726  14.866
10912W        W77453  43.284  18.787  11.216
10913W        W77454  29.945  20.282   0.463
10914W        W77455  30.152  18.971  12.416
10915W        W77456   5.450  32.736  13.613
10916W        W77457  11.187  32.759  12.999
10917W        W77458   7.440  43.465  12.222
10918W        W77459   5.509  39.591   4.067
10919W        W77460   1.356  29.122  14.879
10920W        W77461  19.245  16.604  13.865
10921W        W77462  29.091  39.292   3.546
10922W        W77463  12.046  23.177   3.154
10923W        W77464  11.409  20.594  14.976
10924W        W77465  19.632  31.172  12.542
10925W        W77466  32.856  40.136   1.925
10926W        W77467  19.739  28.669   1.999
10927W        W77468  20.843  36.482  13.991
10928W        W77469  10.235  30.569   2.055
10929W        W77470  25.661   5.772  14.324
10930W        W77471  30.069  41.837   3.268
10931W        W77472  26.626   4.330   1.988
10932W        W77473  43.406   8.913  10.846
10933W        W77474  19.476   3.276   0.654
10934W        W77475  15.614  34.159  10.642
10935W        W77476  39.947  36.494  11.169
10936W        W77477  18.009  10.792  13.434
10937W        W77478  34.010  37.839  13.969
10938W        W77479  34.998  42.875  11.689
10939W        W77480  43.850  38.960   4.306
10940W        W77481  28.572   0.210   3.528
10941W        W77482  21.216  16.045   0.743
10942W        W77483  34.981  19.808   1.264
10943W        W77484  42.327  42.380   1.966
10944W        W77485  29.416   3.182   3.645
10945W        W77486   6.814  26.678   3.190
10946W        W77487   8.317  42.124   4.971
10947W        W77488  40.325  16.275  13.056
10948W        W77489  31.513  26.520   3.653
10949W        W77490  12.784   0.681  12.839
10950W        W77491  29.330  19.949  11.145
10951W        W77492  42.359  15.222   2.566
10952W        W77493   1.328  20.627  11.140
10953W        W77494   9.171   5.332  13.012
10954W        W77495   5.387  28.665   2.439
10955W        W77496  18.215   5.398  12.903
10956W        W77497   3.229  19.106   4.168
10957W        W77498  24.854   7.343   3.735
10958W        W77499  12.453  38.473   3.334
10959W        W77500   6.974  36.947  10.299
10960W        W77501  33.525   8.296   1.243
10961W        W77502  30.069   7.842   4.128
10962W        W77503  43.910   7.298   2.636
10963W        W77504  18.493  33.783  10.344
10964W        W77505   9.668   1.058   4.565
10965W        W77506  34.434  27.610  11.939
10966W        W77507  27.091   8.259   1.145
10967W        W77508  24.642  26.185   1.321
10968W        W77509  43.084  10.091   1.902
10969W        W77510  11.049  20.296  10.742
10970W        W77511  36.803  31.978   4.941
10971W        W77512  25.131  16.631   1.976
10972W        W77513  41.367  43.854   1.956
10973W        W77514  29.129  33.431   4.137
10974W        W77515  29.461  28.504   2.780
10975W        W77516  14.122  27.105   3.769
10976W        W77517   9.839  34.481  12.192
10977W        W77518  24.960  11.689  12.997
10978W        W77519  40.991  35.048   4.711
10979W        W77520   1.098  21.799  14.067
10980W        W77521  14.605  38.543  11.013
10981W        W77522  30.362   2.304  10.671
10982W        W77523  38.880   6.898  11.217
10983W        W77524   7.680  22.345   3.715
10984W        W77525  25.054   4.137   4.172
10985W        W77526  40.527  28.145   1.419
10986W        W77527  34.133  22.206  14.922
10987W        W77528  14.073  16.227   0.946
10988W        W77529  22.505  37.576   4.741
10989W        W77530  35.134  38.936  13.615
10990W        W77531  29.837  34.583  13.687
10991W        W77532  10.245   5.669  14.902
10992W        W77533   8.548  28.824   2.662
10993W        W77534   4.417  18.654   0.979
10994W        W77535  28.694   6.450  11.802
10995W        W77536  35.835  33.839  14.909
10996W        W77537  41.932  41.026   0.653
10997W        W77538  31.089   5.166   2.606
10998W        W77539  44.051  11.387   1.247
10999W        W77540  40.609  38.608   0.245
11000W        W77541  43.089  32.822  14.147
11001W        W77542   8.177  43.513   1.219
11002W        W77543  31.557   4.652  13.254
11003W        W77544  40.425  31.567  12.040
11004W        W77545  21.183  13.280   2.743
11005W        W77546  35.398   1.501  14.374
11006W        W77547  42.258  15.248   0.370
11007W        W77548  41.509  37.501   3.099
11008W        W77549  35.909   3.987  11.850
11009W        W77550  35.784  33.309  14.936
11010W        W77551  39.170  33.652   3.702
11011W        W77552  18.242   0.999   4.557
11012W        W77553  31.597  21.639  11.616
11013W        W77554   0.364  32.463  10.767
11014W        W77555  13.824  32.404   3.251
11015W        W77556   1.231   9.783  14.091
11016W        W77557   2.726  14.317  12.156
11017W        W77558  36.519   3.783  10.684
11018W        W77559  21.962  42.073   4.611
11019W        W77560  38.556   8.388  11.138
11020W        W77561   7.601   7.773  12.452
11021W        W77562  15.121  17.674   1.423
11022W        W77563  14.570  37.089   3.209
11023W        W77564  18.340   5.332   0.450
11024W        W77565  13.235  43.445   2.841
11025W        W77566  31.121   5.915  10.600
11026W        W77567  12.423  11.697   0.752
11027W        W77568   6.426  38.026   1.218
11028W        W77569  27.990  24.661  14.806
11029W        W77570  15.360  29.926   2.388
11030W        W77571  18.226   2.345   2.800
11031W        W77572  36.703  41.169  11.278
11032W        W77573   9.217  14.542   3.957
11033W        W77574   1.252   2.979  11.947
11034W        W77575  26.624   4.747   3.690
11035W        W77576  24.405  33.146   2.381
11036W        W77577  17.993  15.045   2.427
11037W        W77578  38.334  41.825   3.526
11038W        W77579  18.192  28.058  10.708
11039W        W77580  11.446  38.507   3.231
11040W        W77581  27.110  12.233  13.519
11041W        W77582   8.849   5.608  12.711
11042W        W77583  11.546  44.651   1.352
11043W        W77584  31.618  18.026   3.483
11044W        W77585  14.112  39.270  10.781
11045W        W77586  16.095  32.177  12.270
11046W        W77587  19.770   3.692   3.227
11047W        W77588  10.407  38.545  10.395
11048W        W77589  16.022  17.778   1.928
11049W        W77590  41.334  12.202  11.132
11050W        W77591  20.463  22.091  12.784
11051W        W77592   6.339   4.656  13.452
11052W        W77593  11.173  30.663   0.783
11053W        W77594  18.917   5.973  13.575
11054W        W77595   4.048  12.728  12.933
11055W        W77596  41.402  37.057  13.584
11056W        W77597  35.871   8.146   2.355
11057W        W77598   0.275  44.823   1.805
11058W        W77599   7.832  26.904   0.962
11059W        W77600   0.291   2.493   2.622
11060W        W77601  19.354   5.266  14.994
11061W        W77602   6.602  38.484   1.056
11062W        W77603  38.967  38.489  10.258
11063W        W77604  32.401  18.942   2.199
11064W        W77605   9.251  36.094  14.042
11065W        W77606  25.701  20.066  14.836
11066W        W77607  30.603   5.017   2.999
11067W        W77608  10.134   6.349   2.688
11068W        W77609  21.097  35.099  12.652
11069W        W77610  35.964  12.545  10.700
11070W        W77611   5.417  16.303   2.369
11071W        W77612   8.717   5.568   0.962
11072W        W77613  42.940   5.648  12.399
11073W        W77614   2.268   9.411   2.643
11074W        W77615   3.237   0.887   4.985
11075W        W77616  14.244  40.826  12.861
11076W        W77617  32.314   1.685  10.781
11077W        W77618  28.895  39.453   2.670
11078W        W77619  28.943  41.518  10.798
11079W        W77620  44.045  25.607  14.765
11080W        W77621  34.947  41.261   3.078
11081W        W77622  18.589  26.037  11.748
11082W        W77623   9.594   2.897   2.430
11083W        W77624  42.794   0.540  13.180
11084W        W77625  18.117  42.954  12.317
11085W        W77626  28.939   7.104  14.739
11086W        W77627  42.512  32.912  10.493
11087W        W77628   6.857  33.004  13.542
11088W        W77629   2.143  17.085  14.459
11089W        W77630  32.840  35.417   3.353
11090W        W77631  35.100  28.319   2.235
11091W        W77632  40.072   6.190   3.251
11092W        W77633  43.518  44.720  12.200
11093W        W77634  18.040  29.701  14.587
11094W        W77635  11.374  19.350   0.348
11095W        W77636  30.462  32.338  11.518
11096W        W77637  23.022   3.656  10.170
11097W        W77638  18.366   1.355  13.921
11098W        W77639  16.609  31.450  13.968
11099W        W77640  35.029  37.412  10.395
11100W        W77641  34.387  32.551  13.866
11101W        W77642  11.467  41.191  12.914
11102W        W77643  25.722  36.775  11.433
11103W        W77644  31.930  31.910  11.655
11104W        W77645   7.936  16.009   1.088
11105W        W77646  38.430  13.175   3.201
11106W        W77647   5.386   0.331  14.798
11107W        W77648  42.364  29.170  10.820
11108W        W77649  23.732  16.301   2.328
11109W        W77650  31.763  16.800   1.196
11110W        W77651  23.308  31.473  12.635
11111W        W77652  31.478  27.990  13.504
11112W        W77653  42.937  41.080  14.870
11113W        W77654  40.940  20.787  14.484
11114W        W77655  29.060  33.868   1.006
11115W        W77656  44.394  12.596   0.528
11116W        W77657  34.441  28.660   3.417
11117W        W77658   5.329  20.007  13.872
11118W        W77659  11.232  27.995   4.006
11119W        W77660  42.420   4.797  14.884
11120W        W77661  19.589  43.976  12.030
11121W        W77662  25.631  21.129   0.704
11122W        W77663   4.153   0.891  14.972
11123W        W77664  41.366  43.680  11.278
11124W        W77665  14.546   2.406   4.824
11125W        W77666  25.224  30.748   2.860
11126W        W77667  15.144  19.547  11.096
11127W        W77668  17.460  12.223   3.390
11128W        W77669   7.742  22.206   1.420
11129W        W77670  25.957   2.730  11.934
11130W        W77671  26.220  41.097  12.504
11131W        W77672  36.598  42.905  11.452
11132W        W77673  40.709  23.192  14.463
11133W        W77674  18.658  25.563   4.062
11134W        W77675  24.973  32.419   1.924
11135W        W77676  36.060  38.506  14.497
11136W        W77677   1.600   6.874   1.194
11137W        W77678  25.800  36.826   3.191
11138W        W77679  15.823  13.402   2.700
11139W        W77680  14.935  43.734   1.792
11140W        W77681  11.735  10.164  12.996
11141W        W77682  17.692   8.427   3.075
11142W        W77683  41.108  33.576   4.913
11143W        W77684  11.316  29.427  14.633
11144W        W77685  40.988   2.880  12.353
11145W        W77686   8.349   1.472   2.858
11146W        W77687  41.617  12.203   3.259
11147W        W77688  13.361   2.529  12.276
11148W        W77689  25.297   3.425   3.060
11149W        W77690  13.963  35.524  11.053
11150W        W77691  31.605  17.906  14.388
11151W        W77692  29.637  24.103  12.937
11152W        W77693  10.600  19.247   1.906
11153W        W77694   7.484   2.857  10.886
11154W        W77695  37.778   7.238   1.466
11155W        W77696   0.831  43.540   2.154
11156W        W77697  11.265   8.695   3.066
11157W        W77698  20.411  25.555  11.185
11158W        W77699  43.766  35.792   0.287
11159W        W77700  44.921  11.110  13.597
11160W        W77701  43.948  37.068   3.988
11161W        W77702   2.632  33.485  14.302
11162W        W77703  38.115  25.173  12.575
11163W        W77704   6.899  35.916   0.774
11164W        W77705  36.524  17.356   4.553
11165W        W77706   3.870   2.855  12.693
11166W        W77707  27.174   7.420  13.094
11167W        W77708  21.798  25.932  14.858
11168W        W77709  38.609   3.801   3.370
11169W        W77710  13.913  43.466  14.874
11170W        W77711  22.658   8.483   2.972
11171W        W77712  25.386   6.228   4.729
11172W        W77713  41.280  39.182  10.765
11173W        W77714   4.780  41.041   0.012
11174W        W77715  29.917  31.326   0.282
11175W        W77716  21.062  13.629  14.002
11176W        W77717  20.650  21.883   1.834
11177W        W77718  40.901   9.258   0.504
11178W        W77719  22.678  35.839   2.150
11179W        W77720   0.027  15.624   2.649
11180W        W77721   5.811  31.240   4.284
11181W        W77722   2.277  22.088   2.028
11182W        W77723  10.027  35.600   2.422
11183W        W77724  16.181   5.158   2.276
11184W        W77725  13.887  24.643  11.235
11185W        W77726  10.761  42.963   2.753
11186W        W77727  18.980  29.878  11.314
11187W        W77728  19.081  13.023   4.045
11188W        W77729  42.537   4.833  13.962
11189W        W77730  35.857  15.057  11.449
11190W        W77731  40.182  44.678   0.776
11191W        W77732  19.015  12.154  10.769
11192W        W77733  23.538   0.165   0.811
11193W        W77734  28.180   3.372  10.677
11194W        W77735  12.826  14.309   3.146
11195W        W77736  12.625   4.260   3.290
11196W        W77737  35.087  32.402  14.842
11197W        W77738  33.881  17.659   2.536
11198W        W77739  30.402  30.106   0.923
11199W        W77740  16.078  44.527  12.746
11200W        W77741  32.595  34.121  14.376
11201W        W77742  42.696  37.911  12.699
11202W        W77743  18.155  38.082  11.069
11203W        W77744  16.379  24.992  11.684
11204W        W77745  36.001  37.773  13.853
11205W        W77746  36.142  33.974   2.403
11206W        W77747  29.869  42.882   1.211
11207W        W77748  21.978  43.053   1.234
11208W        W77749  23.171   3.330  11.692
11209W        W77750  13.670  38.244   4.288
11210W        W77751  10.772  22.218   1.348
11211W        W77752  38.047  34.508   4.072
11212W        W77753   5.969  20.118   0.925
11213W        W77754   8.614   0.516   2.805
11214W        W77755   5.142  17.596   2.778
11215W        W77756  24.715   5.709   5.222
11216W        W77757  42.002  17.941   4.619
11217W        W77758  13.258  23.268   4.316
11218W        W77759  33.398  23.271   2.370
11219W        W77760  25.510   2.928  11.483
11220W        W77761   1.503  18.760  10.568
11221W        W77762  39.807   0.677  13.415
11222W        W77763  14.912   6.394  12.010
11223W        W77764  19.269   1.164  10.692
11224W        W77765  39.431   2.466  14.456
11225W        W77766  18.167  42.094  12.410
11226W        W77767  11.805  29.353  11.417
11227W        W77768  34.133  31.922   0.694
11228W        W77769  18.756  30.143   1.687
11229W        W77770   9.581  44.784   3.567
11230W        W77771  25.696  34.606   1.714
11231W        W77772  18.663  27.417   2.587
11232W        W77773  22.362   2.235  10.276
11233W        W77774   8.852  35.416  13.906
11234W        W77775  15.775  29.394  12.551
11235W        W77776  35.496  37.484   3.852
11236W        W77777  43.771   1.980   4.857
11237W        W77778  34.557  23.241  11.422
11238W        W77779  22.629  20.076  13.256
11239W        W77780  44.779  20.837  14.280
11240W        W77781  19.766   4.941  10.272
11241W        W77782  12.561  44.399   4.092
11242W        W77783  12.374  14.380   3.813
11243W        W77784  41.749   7.653  10.525
11244W        W77785  19.240  29.090   2.873
11245W        W77786   1.961  36.626  10.725
11246W        W77787  18.394  21.057  12.788
11247W        W77788  15.833  45.000  14.257
11248W        W77789   7.338  40.839  13.492
11249W        W77790  36.840  22.508   0.218
11250W        W77791  17.635  43.484   2.595
11251W        W77792  21.663  13.058   3.628
11252W        W77793   7.631  10.698   0.793
11253W        W77794  12.226  38.783   1.489
11254W        W77795  37.218  28.518  14.312
11255W        W77796  16.493  36.114   1.724
11256W        W77797  15.645   8.425  13.925
11257W        W77798   4.323   4.261   1.330
11258W        W77799  24.010  32.085  13.781
11259W        W77800  13.758  19.464  13.046
11260W        W77801  36.416  18.706   4.738
11261W        W77802   4.378  16.143  13.463
11262W        W77803   6.591  18.102   1.237
11263W        W77804  18.442  10.523  14.525
11264W        W77805  31.038   3.656   5.554
11265W        W77806  17.900   1.930   1.473
11266W        W77807  19.276  41.791   2.761
11267W        W77808  36.758  29.060  11.202
11268W        W77809  13.570   1.275   4.723
11269W        W77810  40.093  29.756  11.968
11270W        W77811  31.245   1.105   1.263
11271W        W77812   9.586  30.167   4.058
11272W        W77813  21.244  31.063   2.891
11273W        W77814  21.067  23.151   1.666
11274W        W77815  17.297  23.968  14.713
11275W        W77816  39.368  15.173  11.903
11276W        W77817  12.324  28.641  14.210
11277W        W77818  18.280  11.050   4.948
11278W        W77819  43.616  13.125   4.091
11279W        W77820  37.331  34.814   3.657
11280W        W77821  44.016   0.322   0.848
11281W        W77822  34.423  16.124   0.718
11282W        W77823  25.245   6.516  14.792
11283W        W77824  16.485  36.089  12.509
11284W        W77825  44.866  30.898   5.134
11285W        W77826  20.651   8.469  10.757
11286W        W77827  36.972  16.398   1.259
11287W        W77828  36.087  22.079  14.044
11288W        W77829  33.849   6.782  14.284
11289W        W77830   6.312  43.793   3.994
11290W        W77831  27.082   0.846   2.617
11291W        W77832  31.008   3.334   1.256
11292W        W77833  30.959   3.451   9.923
11293W        W77834  25.265  40.756  12.884
11294W        W77835   0.423  33.214  11.296
11295W        W77836  37.276  20.052   5.070
11296W        W77837  18.218  34.576  12.084
11297W        W77838  18.470   4.332   0.932
11298W        W77839  41.236  30.779  14.597
11299W        W77840  17.245  42.851  13.333
11300W        W77841  31.899  18.627  14.908
11301W        W77842  22.633   0.136   2.714
11302W        W77843  38.350  16.074  14.501
11303W        W77844  25.962  41.016   0.496
11304W        W77845   8.319  19.637  11.963
11305W        W77846  33.867  25.875  13.509
11306W        W77847  26.164  39.567   1.924
11307W        W77848  38.897  31.919  11.502
11308W        W77849  15.296  26.766  13.819
11309W        W77850   2.370   7.759  12.777
11310W        W77851  26.246   4.043  14.335
11311W        W77852  20.573  26.785   0.802
11312W        W77853  40.221  15.882   5.413
11313W        W77854  23.179  36.084  10.767
11314W        W77855  39.905  28.060   4.726
11315W        W77856   9.772  23.494  14.303
11316W        W77857  31.982  16.452  13.345
11317W        W77858  31.347  42.224  12.622
11318W        W77859  42.954  27.935   0.961
11319W        W77860  32.509  42.941  12.440
11320W        W77861  30.240  42.866  10.475
11321W        W77862  36.061   6.760  11.502
11322W        W77863   7.595  42.817   3.738
11323W        W77864  39.961  41.983  14.083
11324W        W77865  21.087  24.574  14.210
11325W        W77866   8.878  42.347  14.335
11326W        W77867  23.339  39.849  12.126
11327W        W77868  43.474  27.693   1.705
11328W        W77869  16.375  22.325  12.141
11329W        W77870  16.516  25.760   1.884
11330W        W77871   3.874   8.863   1.670
11331W        W77872  35.558  36.190   1.364
11332W        W77873  41.356   9.707  12.059
11333W        W77874  27.692  43.246  11.461
11334W        W77875   1.880  43.943   4.984
11335W        W77876  38.442  19.313  12.102
11336W        W77877  11.372   1.632  11.065
11337W        W77878  25.483  17.601  14.994
11338W        W77879  12.303  37.485   0.369
11339W        W77880  27.507  22.099  12.411
11340W        W77881  18.752  25.385   3.097
11341W        W77882  21.650  32.024  11.615
11342W        W77883   9.203  41.724   2.596
11343W        W77884  36.032  28.621   1.183
11344W        W77885  28.144  40.364  10.128
11345W        W77886  24.996  31.410  14.025
11346W        W77887  36.371  19.121  12.487
11347W        W77888  17.596  26.040  11.468
11348W        W77889  36.494  38.796  14.606
11349W        W77890  43.742  13.868  14.834
11350W        W77891  18.137  13.120   1.423
11351W        W77892  10.766  15.902  11.922
11352W        W77893  18.958  18.641  11.278
11353W        W77894  43.863  24.938   0.971
11354W        W77895  37.803   0.326   3.622
11355W        W77896  19.080  42.969  10.768
11356W        W77897  15.011  38.821  11.208
11357W        W77898  28.372   1.997  10.438
11358W        W77899  32.284  26.521  10.328
11359W        W77900   1.783  31.161  11.124
11360W        W77901  16.794  40.913   1.494
11361W        W77902   5.348  44.827  10.875
11362W        W77903  27.203  37.051   2.901
11363W        W77904   1.381  14.226  11.059
11364W        W77905   0.367  41.019  13.337
11365W        W77906  35.632   3.743   0.987
11366W        W77907  32.444   4.626   4.387
11367W        W77908  40.444  14.615  14.471
11368W        W77909  41.643  33.996  10.892
11369W        W77910  41.850   0.491  13.387
11370W        W77911  29.109  33.034   4.472
11371W        W77912  26.716   5.161   0.444
11372W        W77913  19.277  12.278   0.993
11373W        W77914   0.746  18.538   3.128
11374W        W77915  18.813  41.460  11.958
11375W        W77916   4.118  37.100  12.502
11376W        W77917  30.469   6.486   4.701
11377W        W77918  39.035  38.599  14.307
11378W        W77919  22.201   1.855  14.720
11379W        W77920  27.865  25.973  11.099
11380W        W77921  20.524  25.970   1.970
11381W        W77922  43.435   0.891  11.596
11382W        W77923  37.323   2.043  14.844
11383W        W77924  12.854  37.344   3.623
11384W        W77925  20.013   3.783  14.702
11385W        W77926  26.454   6.145   0.487
11386W        W77927  14.703  23.686  13.004
11387W        W77928  11.224   9.716  13.768
11388W        W77929  42.630  16.844  10.004
11389W        W77930  12.713  39.521  11.704
11390W        W77931  19.186  11.356   4.903
11391W        W77932  25.704  12.259   1.748
11392W        W77933  33.603  43.535  12.581
11393W        W77934  24.026  38.934  11.072
11394W        W77935  31.914  34.515   0.634
11395W        W77936  44.543  21.296   3.855
11396W        W77937  32.360  24.217   1.761
11397W        W77938  34.139  33.318   2.732
11398W        W77939  21.098  44.739  14.754
11399W        W77940   0.316  11.457   2.258
11400W        W77941  44.989  13.799  13.832
11401W        W77942  35.034  40.913   2.210
11402W        W77943  31.404   1.980  12.866
11403W        W77944  22.768   2.750  14.759
11404W        W77945  24.140  33.593   4.105
11405W        W77946  31.061   0.027   0.561
11406W        W77947   7.702   9.646   0.868
11407W        W77948  39.080  28.507  14.073
11408W        W77949  26.630  40.510  11.655
11409W        W77950  24.304   4.788  12.474
11410W        W77951   5.876  28.606   2.716
11411W        W77952  22.020   8.661   3.000
11412W        W77953  41.249  35.860   4.567
11413W        W77954  20.127  43.061  14.715
11414W        W77955  21.250  33.505  10.188
11415W        W77956  30.991  24.057  10.528
11416W        W77957  25.717  10.928  12.599
11417W        W77958  21.578  18.622   4.303
11418W        W77959  19.251   4.090   0.255
11419W        W77960  28.613  20.970  11.832
11420W        W77961  38.453  33.809   2.234
11421W        W77962   8.971  19.776   1.677
11422W        W77963  15.909  21.750   0.914
11423W        W77964   0.459   1.719  13.509
11424W        W77965   2.774  21.638  13.530
11425W        W77966  18.583  30.051  11.632
11426W        W77967  34.451   4.542  11.074
11427W        W77968  34.919  15.612   5.323
11428W        W77969  20.112   9.324  14.919
11429W        W77970  23.089   0.060  11.000
11430W        W77971  30.571  29.383  10.565
11431W        W77972   0.959  16.912  11.621
11432W        W77973  16.674  19.244  13.038
11433W        W77974  21.456  41.444  10.772
11434W        W77975  25.580  17.117   4.506
11435W        W77976   1.436   9.671   1.058
11436W        W77977   3.483  43.971  10.328
11437W        W77978  27.047  43.281  12.073
11438W        W77979  14.345  36.144  14.799
11439W        W77980  42.992  20.533   0.462
11440W        W77981  37.953  39.837  11.629
11441W        W77982  43.062   0.503  14.162
11442W        W77983   9.997  38.048  12.088
11443W        W77984  35.326  23.169  14.461
11444W        W77985  22.958  28.198   4.731
11445W        W77986  16.238  16.184  12.866
11446W        W77987  15.306  14.058  11.118
11447W        W77988  30.521  43.246   2.789
11448W        W77989   1.713  15.567  14.385
11449W        W77990  12.332  35.387   3.784
11450W        W77991  16.196  18.129   3.310
11451W        W77992  11.556  42.478  11.955
11452W        W77993  25.483  37.220  11.552
11453W        W77994  15.891  14.475   4.128
11454W        W77995  19.007  33.953   4.190
11455W        W77996  14.219  44.848   3.887
11456W        W77997   4.558  15.476   1.105
11457W        W77998  21.067  18.565   1.588
11458W        W77999  22.943  16.080   3.677
11459W        W78000  21.657  22.671   3.180
11460W        W78001  18.587  29.517  11.517
11461W        W78002   2.862  33.777  11.642
11462W        W78003   3.395  40.017  14.806
11463W        W78004   2.424  12.990   2.334
11464W        W78005   6.529  34.743   4.786
11465W        W78006  21.620  33.186  10.355
11466W        W78007  44.225  11.624   2.184
11467W        W78008  12.804  22.593   4.577
11468W        W78009   4.536  16.803   1.412
11469W        W78010   0.801  26.042   9.551
11470W        W78011   3.164   4.806  14.179
11471W        W78012  43.253   2.443   4.270
11472W        W78013  34.116  42.903  10.689
11473W        W78014   2.912   9.810  11.474
11474W        W78015  30.680  42.241  14.200
11475W        W78016  16.051  32.873  14.797
11476W        W78017  16.163  40.901  14.389
11477W        W78018  18.777  23.942   1.325
11478W        W78019  44.337  29.697   2.883
11479W        W78020   7.161  21.993   2.444
11480W        W78021  32.710  31.087   1.308
11481W        W78022  18.327   4.673   4.186
11482W        W78023  16.638  35.406  11.918
11483W        W78024   5.215  18.930   0.021
11484W        W78025  17.699  44.394  11.727
11485W        W78026  31.390  32.879  11.183
11486W        W78027  24.222   6.651   2.688
11487W        W78028  39.029  28.976  11.738
11488W        W78029   1.928  12.676  11.629
11489W        W78030  38.358   9.759  10.405
11490W        W78031   3.398   4.412  10.606
11491W        W78032  16.745  11.424   1.143
11492W        W78033   2.320   3.814   0.303
11493W        W78034   5.039  19.718   3.169
11494W        W78035  14.695  30.092  12.997
11495W        W78036   3.861  20.128   0.732
11496W        W78037   5.255  39.051   1.468
11497W        W78038   1.913  24.190  11.030
11498W        W78039  30.534  36.114  13.079
11499W        W78040  19.275  23.699  12.124
11500W        W78041  44.345  24.941   3.219
11501W        W78042   5.117  31.881  12.152
11502W        W78043   4.356  19.803   3.752
11503W        W78044  33.498  32.276   4.442
11504W        W78045  11.940  34.677   3.103
11505W        W78046  14.135  27.500  13.278
11506W        W78047  24.220  22.029   2.614
11507W        W78048  18.208  43.864   3.832
11508W        W78049   5.272  24.655  14.768
11509W        W78050   6.558   0.360   2.819
11510W        W78051  41.992  43.286   1.271
11511W        W78052   9.823  17.726  14.050
11512W        W78053  13.718   4.696  14.322
11513W        W78054   5.200  30.588   3.134
11514W        W78055   5.831  12.917   1.176
11515W        W78056  13.308  10.226  14.980
11516W        W78057  17.724  24.041  12.634
11517W        W78058  19.534   3.730   4.042
11518W        W78059  23.910   0.037   2.914
11519W        W78060  32.538  24.114  14.313
11520W        W78061  17.556  12.313   4.335
11521W        W78062  11.980  40.374   3.269
11522W        W78063  24.584   4.982  13.459
11523W        W78064  27.395  25.122  11.628
11524W        W78065   7.009  11.629  12.924
11525W        W78066  23.990  12.982  12.183
11526W        W78067   3.805  37.547   4.183
11527W        W78068   3.219   5.314   4.523
11528W        W78069  34.574  39.821  13.986
11529W        W78070  16.403  18.239   3.763
11530W        W78071  17.577   2.487   3.964
11531W        W78072   9.277  34.834  11.633
11532W        W78073   6.120  25.496  13.311
11533W        W78074   6.951   5.912   4.435
11534W        W78075  44.741   6.813  14.726
11535W        W78076  25.152  27.233  12.372
11536W        W78077  22.723   5.031   4.953
11537W        W78078  30.031  43.985   0.787
11538W        W78079  27.461  41.800  10.953
11539W        W78080  38.896   5.192   0.882
11540W        W78081   3.306  11.860  13.412
11541W        W78082   2.128   6.680  12.221
11542W        W78083   6.405  20.931  13.734
11543W        W78084   6.413  25.795   3.470
11544W        W78085  16.318   2.319   4.203
11545W        W78086   8.475  41.105   5.164
11546W        W78087  14.805  32.314  11.131
11547W        W78088  44.852  12.737  14.857
11548W        W78089  38.330  21.453  11.247
11549W        W78090  18.975  43.556   3.357
11550W        W78091   4.397  17.362  11.943
11551W        W78092  37.610   4.798   0.063
11552W        W78093  22.579  27.877   4.870
11553W        W78094  24.514   3.045  13.000
11554W        W78095   0.202  44.434  11.997
11555W        W78096  21.751  35.951   1.866
11556W        W78097  36.529  22.046   2.666
11557W        W78098  19.772  35.383   0.910
11558W        W78099  22.496  31.720   4.929
11559W        W78100  19.482  35.980   0.844
11560W        W78101  18.850  33.020   3.645
11561W        W78102   2.818  34.137   2.761
11562W        W78103  33.930  33.299  14.868
11563W        W78104  12.142  40.817   3.528
11564W        W78105  25.062  44.041   0.423
11565W        W78106   1.910   5.472  12.909
11566W        W78107  27.380   6.714   3.110
11567W        W78108   1.730  35.085  13.859
11568W        W78109  15.063   5.378  14.794
11569W        W78110  16.256  23.173  14.570
11570W        W78111  10.754   4.868   2.246
11571W        W78112  33.786  27.124  13.923
11572W        W78113  41.777  35.053  14.283
11573W        W78114  41.583   1.221  14.361
11574W        W78115  27.572   5.408   3.353
11575W        W78116  15.090   7.769   1.882
11576W        W78117  35.477   9.799  14.708
11577W        W78118  40.677  44.759   0.838
11578W        W78119  40.129  10.228  13.399
11579W        W78120   7.823  43.218  11.940
11580W        W78121  15.274  13.671  13.941
11581W        W78122   9.721  15.031  10.906
11582W        W78123  28.651  35.538   4.367
11583W        W78124  32.731  39.797  14.560
11584W        W78125   4.991  16.429   3.979
11585W        W78126  19.095  23.696  11.643
11586W        W78127  33.332  31.551   1.831
11587W        W78128  25.040  20.305  11.371
11588W        W78129  30.697  12.190   0.075
11589W        W78130  20.712  25.753  12.071
11590W        W78131  26.009  34.647   0.450
11591W        W78132  29.980  41.354  14.141
11592W        W78133  39.687  15.344   1.348
11593W        W78134   1.871  24.577  11.889
11594W        W78135  38.805   8.667  11.490
11595W        W78136  20.262  10.252   2.612
11596W        W78137  20.602  31.646  11.206
11597W        W78138  35.652  11.375  10.438
11598W        W78139   7.181   9.752  14.572
11599W        W78140  42.187  12.762   5.001
11600W        W78141   0.788  10.315  14.162
11601W        W78142  25.343  44.825  11.588
11602W        W78143   5.445  21.731   1.039
11603W        W78144   1.953  25.997  10.143
11604W        W78145   3.530   8.020  12.516
11605W        W78146  26.611  26.943  11.686
11606W        W78147  37.139  25.659  11.614
11607W        W78148   8.685  26.281  14.254
11608W        W78149  33.132   4.940  14.031
11609W        W78150  39.032  36.856   4.053
11610W        W78151  38.356  10.994  13.339
11611W        W78152  42.201  43.392  10.780
11612W        W78153  31.228  34.520   4.206
11613W        W78154  44.380  10.686   3.114
11614W        W78155  32.525   8.472   1.198
11615W        W78156  12.459   4.946  12.109
11616W        W78157  15.253  44.943  12.983
11617W        W78158   4.733  37.051   1.652
11618W        W78159  36.035  10.642   3.727
11619W        W78160  33.953  21.607   4.840
11620W        W78161  32.532  27.469  12.556
11621W        W78162  24.359  15.173  11.577
11622W        W78163  14.054  43.061   0.901
11623W        W78164  11.124  13.377   0.931
11624W        W78165  28.158  29.790  13.411
11625W        W78166  35.902  15.885   3.136
11626W        W78167   5.328  33.695   0.583
11627W        W78168  10.435   9.709   3.618
11628W        W78169   3.209  31.046   2.461
11629W        W78170   2.752  38.067   2.643
11630W        W78171  22.465   6.518  12.407
11631W        W78172  22.721   1.212  12.456
11632W        W78173   8.834  25.176   2.397
11633W        W78174  20.750   7.877  14.201
11634W        W78175  14.181  33.648   1.220
11635W        W78176  44.274  44.799   1.784
11636W        W78177  41.006  41.707   3.915
11637W        W78178  24.278  41.836  14.024
11638W        W78179  34.379  29.108  11.146
11639W        W78180  20.494  27.962  11.591
11640W        W78181  29.113  38.095   0.127
11641W        W78182  17.795  23.385  10.562
11642W        W78183  11.173   0.028   3.664
11643W        W78184  38.159  15.742   2.612
11644W        W78185  29.440  12.815   1.866
11645W        W78186   1.785  15.273   4.092
11646W        W78187  15.230  43.042  14.792
11647W        W78188   3.978  31.326   0.831
11648W        W78189  27.406  34.928  14.308
11649W        W78190  25.737  43.886   2.216
11650W        W78191   9.577  13.819  12.202
11651W        W78192  12.184  37.493   3.193
11652W        W78193   2.184  29.595   4.053
11653W        W78194  31.545  17.248   5.009
11654W        W78195   2.875  11.476  10.719
11655W        W78196  19.634  39.245  11.661
11656W        W78197  29.522   4.217   0.247
11657W        W78198   4.065  31.214   4.667
11658W        W78199  17.317   6.815   0.066
11659W        W78200  16.706  36.356   0.942
11660W        W78201  42.636   8.122   0.017
11661W        W78202   1.447  31.066   3.900
11662W        W78203  22.466  43.890   1.466
11663W        W78204   3.497  35.031   5.000
11664W        W78205   0.825  38.669   0.316
11665W        W78206  15.676  24.547   3.630
11666W        W78207  29.552  36.151  14.947
11667W        W78208  40.230   0.888  11.714
11668W        W78209   6.735  18.598   3.087
11669W        W78210  31.795   8.686   1.052
11670W        W78211  30.918  30.922  13.362
11671W        W78212  40.546  13.474   4.512
11672W        W78213  38.091   5.952   3.175
11673W        W78214  10.871  40.631   0.414
11674W        W78215   5.775  21.824  12.978
11675W        W78216  42.399  11.624  13.862
11676W        W78217  42.506  31.381  13.582
11677W        W78218  38.180   2.425  11.882
11678W        W78219   6.779  43.024  13.502
11679W        W78220  32.098  36.262   4.657
11680W        W78221   6.812  41.028   1.343
11681W        W78222  14.260  19.511  14.287
11682W        W78223  10.557   0.454   0.750
11683W        W78224   1.402  29.272   2.793
11684W        W78225  21.090  20.050   2.769
11685W        W78226  37.077   3.940   4.489
11686W        W78227  38.943  10.887  12.517
11687W        W78228   1.045  35.624  14.735
11688W        W78229  30.114  35.748   4.810
11689W        W78230  28.156  17.369  14.097
11690W        W78231   3.246  14.717   1.881
11691W        W78232  18.666  30.566  11.710
11692W        W78233  28.019  18.828  11.365
11693W        W78234  36.261  35.372  11.371
11694W        W78235  28.498  37.364   2.739
11695W        W78236   9.011  31.992   0.166
11696W        W78237  35.205  14.021   2.763
11697W        W78238  25.590   8.150   1.148
11698W        W78239  16.095  37.550  11.906
11699W        W78240  37.349  27.291   3.365
11700W        W78241   5.585  22.040  13.554
11701W        W78242  28.053  12.082  11.633
11702W        W78243  11.324   7.631   2.348
11703W        W78244  23.931  15.660  13.893
11704W        W78245  27.732  19.541   2.900
11705W        W78246  24.951  35.415   4.085
11706W        W78247  43.919  30.061   3.471
11707W        W78248   4.192  12.072  11.487
11708W        W78249  32.663   5.272  12.168
11709W        W78250  29.971  22.625   0.810
11710W        W78251  22.750   7.764   5.353
11711W        W78252  33.886   2.733   0.963
11712W        W78253  14.668  32.813  14.898
11713W        W78254  23.980  19.075   1.681
11714W        W78255  24.001  12.688   4.030
11715W        W78256   5.282  41.121   2.871
11716W        W78257  26.664  38.890  13.408
11717W        W78258   3.264  12.842   1.860
11718W        W78259  36.345  14.642  11.941
11719W        W78260  41.518   8.206  13.563
11720W        W78261  13.258  30.314   0.341
11721W        W78262  22.709  29.236   1.373
11722W        W78263   2.380  30.702  11.690
11723W        W78264   1.773  16.379  12.490
11724W        W78265  25.716  17.926   4.966
11725W        W78266   3.189  30.984   1.231
11726W        W78267  20.575  33.586   3.192
11727W        W78268  26.325   9.322   1.287
11728W        W78269  11.082  30.822   2.842
11729W        W78270  25.198  34.122  13.006
11730W        W78271   6.849  21.160   3.197
11731W        W78272   6.826  34.475  10.710
11732W        W78273  44.774  22.236   2.956
11733W        W78274  29.629  13.751   2.992
11734W        W78275  24.519  26.529  12.539
11735W        W78276  30.807  25.062  11.649
11736W        W78277  26.866   6.575  11.987
11737W        W78278   8.961   5.698  11.682
11738W        W78279  28.303   1.119   1.708
11739W        W78280  43.267  38.057   3.357
11740W        W78281  27.703  21.526   4.501
11741W        W78282  42.109  32.046   4.449
11742W        W78283  31.548  41.804  12.439
11743W        W78284  14.392  20.132   4.919
11744W        W78285   0.878  14.755  14.956
11745W        W78286  17.785  10.059   1.742
11746W        W78287   1.981  11.597   2.677
11747W        W78288   4.377  24.006   5.434
11748W        W78289  33.884  12.851  11.124
11749W        W78290  30.630  28.497  13.340
11750W        W78291  14.026   4.876   1.314
11751W        W78292   2.630  36.331   0.364
11752W        W78293  21.189  31.287   5.054
11753W        W78294  15.697  25.458  13.808
11754W        W78295   3.314  16.076   1.210
11755W        W78296   5.199   6.042   2.654
11756W        W78297  24.495  26.753  12.069
11757W        W78298   1.112  39.212  14.567
11758W        W78299  34.551  35.606  13.556
11759W        W78300  22.727   9.323   3.773
11760W        W78301  24.640  31.398  12.172
11761W        W78302  26.191  42.149   4.910
11762W        W78303  32.188  39.388  13.284
11763W        W78304  27.579  35.134   4.343
11764W        W78305  24.977   7.759   0.319
11765W        W78306  42.352  30.869  13.237
11766W        W78307  42.803   9.651   1.797
11767W        W78308  28.438   3.857   0.043
11768W        W78309   0.448  41.685   1.372
11769W        W78310  13.208   0.992  13.038
11770W        W78311   4.928  35.435   0.953
11771W        W78312  13.860   5.901   2.276
11772W        W78313   2.714  17.279  12.782
11773W        W78314  11.755  40.119   0.235
11774W        W78315  16.395  39.885   0.786
11775W        W78316   6.094  14.159  13.758
11776W        W78317  36.622  27.663   1.820
11777W        W78318   1.872  27.418  14.419
11778W        W78319  10.775  43.274   4.860
11779W        W78320  14.839   3.947   0.915
11780W        W78321  17.194   9.917  11.562
11781W        W78322  22.185  28.379   0.018
11782W        W78323  10.840  21.729   4.817
11783W        W78324   8.942  11.551   1.855
11784W        W78325  26.828   9.316   2.191
11785W        W78326  21.927   0.539  13.351
11786W        W78327  44.513  32.506   0.515
11787W        W78328   5.258  24.346   3.039
11788W        W78329  30.711  26.958   3.505
11789W        W78330   3.405  23.310   4.150
11790W        W78331  21.983  15.769  14.033
11791W        W78332   8.701  22.770  10.756
11792W        W78333   9.740   6.804  14.152
11793W        W78334  22.076  36.852  13.527
11794W        W78335  15.138  20.585   1.738
11795W        W78336  26.438  43.501  14.044
11796W        W78337   2.357  15.853   5.078
11797W        W78338  20.308  31.008   3.616
11798W        W78339   6.183  23.361   2.282
11799W        W78340   4.954  38.379   2.379
11800W        W78341  11.874   3.958   1.396
11801W        W78342  31.085  29.665   0.330
11802W        W78343  12.767  27.973   2.657
11803W        W78344  19.040  21.551   2.227
11804W        W78345   2.277  18.705   0.127
11805W        W78346  41.066  17.375  13.480
11806W        W78347  20.933   9.671  13.008
11807W        W78348  32.023  42.316   0.924
11808W        W78349  19.813  39.342  13.593
11809W        W78350  30.895  28.002  13.030
11810W        W78351  35.020  33.611   2.985
11811W        W78352  17.492   0.976   4.158
11812W        W78353  31.572   6.875   0.749
11813W        W78354   4.327   2.819   2.247
11814W        W78355  35.547  32.334   2.833
11815W        W78356  22.217  38.010  12.885
11816W        W78357  25.685   2.499   0.182
11817W        W78358  29.039  40.508  12.160
11818W        W78359  34.416  28.138   4.749
11819W        W78360  43.978  41.399   0.010
11820W        W78361   9.838  16.392  14.549
11821W        W78362  23.218  27.889   3.150
11822W        W78363  39.817  25.307  14.584
11823W        W78364  16.951  18.836  11.181
11824W        W78365   9.524  32.575   1.716
11825W        W78366  23.040  19.512  13.837
11826W        W78367  33.557   0.370  10.009
11827W        W78368  33.530  30.420   4.141
11828W        W78369  38.431  15.517  10.379
11829W        W78370  24.967   7.732  11.531
11830W        W78371  35.087  24.519   4.045
11831W        W78372  29.196  42.251   1.661
11832W        W78373  35.928   9.630  14.348
11833W        W78374  34.849   2.015   3.200
11834W        W78375  32.499  43.025   4.149
11835W        W78376  11.265  15.854   3.955
11836W        W78377  37.405   4.982   3.330
11837W        W78378  38.830  25.039   0.462
11838W        W78379  12.748   0.186  12.660
11839W        W78380  30.110  20.184  14.087
11840W        W78381  20.490  28.244   2.822
11841W        W78382   1.921  42.979  13.555
11842W        W78383   9.713   7.023   0.974
11843W        W78384  41.911  25.261  12.910
11844W        W78385   3.903  12.352   1.694
11845W        W78386  13.168   4.558  14.814
11846W        W78387  38.897  15.892  12.272
11847W        W78388  34.838  36.130   4.749
11848W        W78389  25.112  28.018   3.860
11849W        W78390   1.437  33.630  12.361
11850W        W78391  27.910  19.200  13.560
11851W        W78392   8.577  20.294   4.773
11852W        W78393  13.486  21.597  11.986
11853W        W78394  42.991  14.168  12.537
11854W        W78395  11.803   5.297   0.713
11855W        W78396   2.304  33.567  10.719
11856W        W78397  17.274  11.418  11.092
11857W        W78398  30.319   7.674  10.719
11858W        W78399  13.709  40.897  12.033
11859W        W78400   0.349  32.166  14.770
11860W        W78401  17.791  18.064   1.799
11861W        W78402  22.101   9.308   5.154
11862W        W78403  41.775  20.800  13.506
11863W        W78404  31.829  38.507   4.174
11864W        W78405  40.254  26.218  11.035
11865W        W78406   4.733  32.391   4.077
11866W        W78407   0.111  27.107   4.076
11867W        W78408  28.253   8.313  10.997
11868W        W78409   2.753  41.322   1.978
11869W        W78410  39.530  42.016  10.712
11870W        W78411  27.701  35.977   3.478
11871W        W78412   5.971  11.104   3.187
11872W        W78413  44.102  19.921   1.863
11873W        W78414  24.131  22.953   1.098
11874W        W78415  26.304  42.918   4.557
11875W        W78416  18.063  38.000   4.692
11876W        W78417  16.216  23.617  12.123
11877W        W78418   6.349  29.928   3.623
11878W        W78419  32.105  13.876  13.438
11879W        W78420  19.588  35.682   1.286
11880W        W78421  38.005  18.038   4.594
11881W        W78422   2.069  25.503   2.707
11882W        W78423  39.736   9.084   3.655
11883W        W78424   0.169  40.950  13.838
11884W        W78425  37.169  16.934  13.307
11885W        W78426  19.790  20.474   1.947
11886W        W78427  20.908   3.449   4.579
11887W        W78428  30.453  41.947  12.265
11888W        W78429  19.020   6.762   5.703
11889W        W78430  19.573  28.130   0.334
11890W        W78431  19.082  33.440  11.201
11891W        W78432  41.482  21.285   2.535
11892W        W78433  29.525  23.154   1.436
11893W        W78434  34.617  25.565   3.360
11894W        W78435  28.164  10.740   5.127
11895W        W78436  29.173  40.456   4.181
11896W        W78437  39.141   6.290  14.384
11897W        W78438  39.123  41.403   4.409
11898W        W78439  23.936   0.038  12.928
11899W        W78440  25.348  19.440   5.326
11900W        W78441  36.066  26.562   4.214
11901W        W78442  37.511   9.708  12.970
11902W        W78443  40.389   5.963  13.019
11903W        W78444  20.640  32.115  14.260
11904W        W78445  21.053  41.267   3.871
11905W        W78446   0.097  32.538  12.048
11906W        W78447  28.998   3.355   0.811
11907W        W78448  44.999  36.133   4.898
11908W        W78449  10.255   1.106   3.300
11909W        W78450  19.483  40.479   0.003
11910W        W78451  43.415  26.555   1.648
11911W        W78452   7.388  44.429  14.748
11912W        W78453  25.778  30.991  13.661
11913W        W78454  24.370  34.871   0.903
11914W        W78455  25.930  19.768   0.879
11915W        W78456   4.095  34.998   0.079
11916W        W78457  20.708  36.405   3.817
11917W        W78458  32.598  37.721   3.249
11918W        W78459  17.306  23.098  13.277
11919W        W78460  13.124  13.659  12.588
11920W        W78461   0.178  19.339  14.139
11921W        W78462  31.611  39.130  10.707
11922W        W78463  24.243  23.589  14.820
11923W        W78464  30.678  36.166  11.705
11924W        W78465  17.888   9.191   2.635
11925W        W78466   6.712  20.226   3.109
11926W        W78467  32.244  34.490  10.632
11927W        W78468  38.768   4.903   4.515
11928W        W78469   8.580  22.603  11.627
11929W        W78470  28.696  21.514  12.764
11930W        W78471   7.840  23.233  10.687
11931W        W78472  43.333  23.067   4.773
11932W        W78473  18.117  38.048   3.304
11933W        W78474  16.072  13.665   4.337
11934W        W78475  17.041   6.363  14.985
11935W        W78476  18.266  16.025   4.925
11936W        W78477  44.471  12.554   2.297
11937W        W78478   6.841   4.869  10.787
11938W        W78479   5.167  31.004  12.975
11939W        W78480   3.948  35.812  12.567
11940W        W78481  11.526   9.715   1.449
11941W        W78482  44.850  43.166   4.474
11942W        W78483  25.536  37.274   0.440
11943W        W78484  29.607  44.951  12.230
11944W        W78485  14.087  26.119   1.285
11945W        W78486  25.484  19.832   3.087
11946W        W78487  38.017  39.959  13.382
11947W        W78488  42.696  29.689   0.406
11948W        W78489  23.564  29.581  13.326
11949W        W78490  40.910   3.770   1.365
11950W        W78491  27.861  30.590   4.996
11951W        W78492   7.305  17.211   2.231
11952W        W78493   6.800  43.486  13.789
11953W        W78494  37.941  44.915  14.067
11954W        W78495  40.735  25.995   3.269
11955W        W78496  42.877  38.483  11.693
11956W        W78497  14.732   8.171  10.764
11957W        W78498   8.061  36.766  11.123
11958W        W78499  40.523   5.325   0.027
11959W        W78500   3.820  36.328  12.513
11960W        W78501  25.975  23.681  10.705
11961W        W78502  32.106  28.152  12.410
11962W        W78503  41.997  43.492   2.616
11963W        W78504  34.784   4.464   4.918
11964W        W78505  31.417  34.440   1.842
11965W        W78506  30.128  30.625  11.777
11966W        W78507   6.356  43.597  14.072
11967W        W78508  44.832  26.880   2.098
11968W        W78509  11.581   4.991   3.765
11969W        W78510  35.409  14.272   0.130
11970W        W78511   2.236   1.705   1.428
11971W        W78512  12.714  37.709   3.198
11972W        W78513  41.487  23.464  12.098
11973W        W78514  20.333  11.222  10.290
11974W        W78515   4.663  16.556   3.489
11975W        W78516  14.141   1.202  14.405
11976W        W78517  24.732  30.016  10.657
11977W        W78518  34.903   5.323  12.391
11978W        W78519   0.978  30.881   3.133
11979W        W78520  17.680  19.831  11.571
11980W        W78521  39.237  40.937  13.404
11981W        W78522  31.078  17.316   0.568
11982W        W78523   6.243  23.943  10.367
11983W        W78524  31.087   9.273   2.574
11984W        W78525   3.790  22.471  14.942
11985W        W78526  40.347   5.148   4.087
11986W        W78527   0.187  22.600  13.489
11987W        W78528  10.694  34.827  11.122
11988W        W78529   0.961  24.051   4.681
11989W        W78530  40.946  12.835  13.596
11990W        W78531  37.126   7.521   3.131
11991W        W78532  33.894  10.837  14.430
11992W        W78533  14.603   2.436   1.469
11993W        W78534  32.991  41.788  11.797
11994W        W78535   1.312  40.925   0.889
11995W        W78536  17.776  37.314  14.931
11996W        W78537   4.992   1.495   1.503
11997W        W78538  10.390  31.539  14.697
11998W        W78539  33.998   7.872  11.891
11999W        W78540  38.419  37.906  11.378
12000W        W78541   6.877  10.518  11.740
12001W        W78542  35.441  18.496  10.786
12002W        W78543  31.373  26.649  13.784
12003W        W78544   8.611  20.452   2.184
12004W        W78545  33.156  27.921   2.008
12005W        W78546  21.682  16.693  10.632
12006W        W78547  16.304  31.221  13.070
12007W        W78548  11.711  27.738  13.940
12008W        W78549  41.921  34.822  12.406
12009W        W78550  39.318  29.352   4.818
12010W        W78551   6.379  43.974   2.523
12011W        W78552   0.795  40.978  11.165
12012W        W78553  20.402   7.400  12.010
12013W        W78554  27.386  44.816   1.396
12014W        W78555  34.343  10.988  12.880
12015W        W78556  24.040  37.963  10.781
12016W        W78557  30.914  16.865   4.996
12017W        W78558  17.206  32.480   4.836
12018W        W78559  37.275  24.056  13.066
12019W        W78560   3.415  11.833  10.869
12020W        W78561  31.777  35.426  10.678
12021W        W78562  23.797  13.832  14.332
12022W        W78563  27.574  24.434   1.913
12023W        W78564  23.645  32.094  13.308
12024W        W78565   5.041   7.897  12.600
12025W        W78566  31.182  43.507  14.855
12026W        W78567   3.398  31.338   2.071
12027W        W78568   5.180  41.128   0.331
12028W        W78569  13.133   7.521   9.935
12029W        W78570   9.249   9.475  12.876
12030W        W78571  34.278  27.097  11.046
12031W        W78572   4.223  11.545  13.560
12032W        W78573  12.792   2.611  14.488
12033W        W78574  44.465   4.332   3.790
12034W        W78575  20.877  20.827   3.421
12035W        W78576  22.402  43.710   3.566
12036W        W78577  18.471  32.562   0.849
12037W        W78578  37.845  21.019   2.690
12038W        W78579  19.357  33.019  11.177
12039W        W78580  38.371  33.534   1.795
12040W        W78581  34.065   4.751  13.898
12041W        W78582   7.644  22.289   0.891
12042W        W78583   3.828  39.590   3.120
12043W        W78584  14.575   0.234   3.674
12044W        W78585  12.074   6.539  10.973
12045W        W78586  31.931  37.169   4.359
12046W        W78587  24.545  13.612  13.844
12047W        W78588   0.728  38.551   1.844
12048W        W78589  20.139  40.746  11.159
12049W        W78590  41.075  17.577   5.042
12050W        W78591  11.890  14.240   1.337
12051W        W78592  30.216   9.807   3.256
12052W        W78593  33.022  34.947   2.792
12053W        W78594  21.017  17.174  12.241
12054W        W78595   7.092  40.909   2.483
12055W        W78596  13.853  38.973  12.081
12056W        W78597  23.265   1.458   4.232
12057W        W78598  18.229  32.454   2.670
12058W        W78599  44.174   1.271  10.977
12059W        W78600  10.615  23.646  10.987
12060W        W78601  17.721   4.783   2.754
12061W        W78602  22.569  24.572   2.362
12062W        W78603  20.759  20.295  13.078
12063W        W78604   8.141  38.087   3.124
12064W        W78605   3.104  38.571  13.295
12065W        W78606  10.333  44.849  12.848
12066W        W78607  41.522  40.987   3.360
12067W        W78608   5.614  40.308   1.969
12068W        W78609  41.350  20.701  12.165
12069W        W78610  12.197   5.323   1.674
12070W        W78611   4.190  44.821  11.039
12071W        W78612  16.785  34.012   2.160
12072W        W78613  15.258  17.204  13.942
12073W        W78614  16.266  28.260   2.920
12074W        W78615  20.095  31.097  13.796
12075W        W78616  28.656   5.330  12.438
12076W        W78617   9.797   6.692   2.969
12077W        W78618  29.847  41.116   0.392
12078W        W78619  42.024  14.303  13.007
12079W        W78620  39.289  26.207  11.222
12080W        W78621  24.905  16.840  11.986
12081W        W78622  29.038  25.611  12.229
12082W        W78623  40.451  17.633   1.108
12083W        W78624  42.498   4.459   2.663
12084W        W78625   4.804  27.094   4.739
12085W        W78626  14.039  24.390  13.822
12086W        W78627  10.785   5.162  14.319
12087W        W78628  24.611  15.683  11.463
12088W        W78629  21.627  36.464  13.567
12089W        W78630  15.735  15.145  13.569
12090W        W78631  37.527  11.337  10.536
12091W        W78632  16.333  27.861   2.241
12092W        W78633  13.480  44.483  14.399
12093W        W78634  42.157  24.143   1.591
12094W        W78635  40.841  11.620   0.273
12095W        W78636  23.004  29.081  12.918
12096W        W78637   6.252  43.048   4.579
12097W        W78638  37.822   9.220  14.351
12098W        W78639  11.830   0.904   3.122
12099W        W78640   5.411  23.931  11.521
12100W        W78641   8.996  35.542  12.510
12101W        W78642  19.215  27.049  11.179
12102W        W78643  10.625  40.026   4.108
12103W        W78644  15.076  24.911  14.833
12104W        W78645  36.342  24.184   1.300
12105W        W78646  10.384  20.237   5.004
12106W        W78647  38.931  30.653  13.524
12107W        W78648  18.479  37.856   0.818
12108W        W78649  17.698  33.420   0.676
12109W        W78650   8.826   7.125  13.977
12110W        W78651  30.352  38.088  13.136
12111W        W78652  35.811  28.852   2.163
12112W        W78653  24.221  44.463  13.676
12113W        W78654  32.885  43.788  12.576
12114W        W78655   4.197  21.071  14.794
12115W        W78656   1.265  27.206  13.048
12116W        W78657   1.862  21.639  12.480
12117W        W78658  33.457  15.923   4.983
12118W        W78659  42.290   8.741  12.206
12119W        W78660  21.197  23.683  12.045
12120W        W78661  35.348  29.914   4.179
12121W        W78662  17.584  18.623   0.991
12122W        W78663  28.115   2.953   1.854
12123W        W78664   8.261  26.358   3.995
12124W        W78665   0.733  10.680  10.395
12125W        W78666  25.025   1.917  14.926
12126W        W78667  41.032   6.675  12.825
12127W        W78668   3.675  30.839   4.612
12128W        W78669  20.681  35.397  14.127
12129W        W78670   4.287  37.398  12.954
12130W        W78671  10.138   8.857   4.679
12131W        W78672  23.167  21.924   1.214
12132W        W78673  12.404   4.263   3.789
12133W        W78674  15.912  34.633  14.747
12134W        W78675  30.703  42.770   1.636
12135W        W78676   4.474  19.849  12.039
12136W        W78677  36.327   4.343  12.568
12137W        W78678  14.040   2.367  10.731
12138W        W78679   9.280   9.634  10.587
12139W        W78680  25.646   5.180  13.286
12140W        W78681   6.217  29.024  11.256
12141W        W78682  27.088  15.811   2.823
12142W        W78683  27.102  11.701   1.842
12143W        W78684  29.878  33.921   0.022
12144W        W78685  22.977   4.733  12.922
12145W        W78686   8.435  16.028  14.058
12146W        W78687  13.398   9.584  12.438
12147W        W78688  20.155  10.103   3.753
12148W        W78689  14.623  26.041  13.257
12149W        W78690  14.177  30.994  14.032
12150W        W78691   7.165  11.661   2.368
12151W        W78692  37.352  12.978  13.081
12152W        W78693   0.301   0.284  12.597
12153W        W78694  27.657  36.938   3.353
12154W        W78695  29.505  36.360  14.066
12155W        W78696  44.783  20.860   3.691
12156W        W78697   2.542  29.946   1.834
12157W        W78698  35.384  20.028   0.968
12158W        W78699  10.075  40.861  14.886
12159W        W78700   8.345   6.873  13.978
12160W        W78701  25.665  41.593   4.287
12161W        W78702  43.433  31.044   4.543
12162W        W78703   2.991  16.172  13.972
12163W        W78704   9.194  21.966  14.977
12164W        W78705  34.727  12.336  12.907
12165W        W78706  16.537  34.361  12.868
12166W        W78707   2.771   1.092  11.144
12167W        W78708   8.371  37.654   5.379
12168W        W78709  25.423   3.385  12.004
12169W        W78710  16.330  28.380   2.416
12170W        W78711  19.040  12.928  12.974
12171W        W78712   8.290  14.499   0.361
12172W        W78713  18.735  19.778   1.312
12173W        W78714  18.781   5.776  10.471
12174W        W78715  34.355  21.160  14.265
12175W        W78716  29.914  41.853   2.776
12176W        W78717  13.371   3.622  12.955
12177W        W78718  41.947  18.026  12.954
12178W        W78719  43.305  10.637  14.285
12179W        W78720  24.426  26.969   1.878
12180W        W78721   6.786  37.232  11.140
12181W        W78722  38.211  43.895  12.559
12182W        W78723  28.073  22.563   4.708
12183W        W78724  28.017  18.814  13.888
12184W        W78725  34.204  18.607  13.873
12185W        W78726  41.608  40.068   0.294
12186W        W78727   4.810  42.415   3.715
12187W        W78728  33.575   1.039  14.336
12188W        W78729  42.611   0.430  10.876
12189W        W78730  22.054  23.033  10.693
12190W        W78731  42.907   0.104  12.941
12191W        W78732  43.071  19.410   1.073
12192W        W78733  41.320  35.373  13.848
12193W        W78734  36.548  23.034  12.408
12194W        W78735  17.725  35.887  13.798
12195W        W78736  29.927  29.914   4.990
12196W        W78737   2.396  11.692  12.986
12197W        W78738  14.984  21.208   3.329
12198W        W78739  24.707  22.763   4.074
12199W        W78740  41.862  41.581  10.274
12200W        W78741   4.964  18.088   1.809
12201W        W78742  12.762  41.374   3.106
12202W        W78743  40.284  38.360  12.431
12203W        W78744  10.865  28.322   4.168
12204W        W78745  26.193   4.398  11.665
12205W        W78746  13.666  35.740  11.548
12206W        W78747  12.819  36.880   3.908
12207W        W78748   9.778   8.338   4.067
12208W        W78749  25.385   9.430  13.404
12209W        W78750  31.125  40.848   4.592
12210W        W78751  15.986   7.218   2.796
12211W        W78752  15.382  35.025   1.062
12212W        W78753  10.673  44.395  12.188
12213W        W78754   8.842  37.938  11.151
12214W        W78755   2.542   5.338   2.785
12215W        W78756  38.056  42.688   1.758
12216W        W78757  41.538  30.509   1.912
12217W        W78758  13.664  42.570   1.632
12218W        W78759  10.628   9.243   0.467
12219W        W78760   2.725   3.929   4.516
12220W        W78761   6.702   9.883  14.370
12221W        W78762   9.647  23.762   1.870
12222W        W78763   3.625  26.431  14.932
12223W        W78764  36.627  39.301   4.880
12224W        W78765  33.995   6.839   3.787
12225W        W78766   8.364  20.627  12.207
12226W        W78767  22.036  12.791   4.991
12227W        W78768  26.251   3.760  11.210
12228W        W78769   9.313  31.595   3.787
12229W        W78770  34.505   7.415  10.692
12230W        W78771  29.195  33.144  14.443
12231W        W78772   0.939  11.898  10.408
12232W        W78773  40.977   2.403  11.637
12233W        W78774   3.234  36.680   3.381
12234W        W78775   9.948  30.952  13.215
12235W        W78776  44.300   0.258  13.923
12236W        W78777  44.197  27.042   2.702
12237W        W78778  19.899  31.233   4.489
12238W        W78779  20.022  17.417   3.641
12239W        W78780   4.175  27.588  13.557
12240W        W78781  37.377  15.271  13.111
12241W        W78782   6.111  23.706  14.455
12242W        W78783  42.985  44.667   3.199
12243W        W78784  20.497  24.089   3.654
12244W        W78785  43.237  22.063   2.704
12245W        W78786  14.071  27.593   2.721
12246W        W78787  32.640  40.333   2.342
12247W        W78788   0.251  22.733   4.788
12248W        W78789  13.748   6.914   0.306
12249W        W78790  25.434  33.050   2.411
12250W        W78791  44.193  30.656  13.740
12251W        W78792  25.147  16.986  11.491
12252W        W78793  40.555  28.606   2.211
12253W        W78794   3.234  37.489   0.921
12254W        W78795  25.707  23.179  12.302
12255W        W78796  26.466  36.179  13.995
12256W        W78797   6.111  44.409  14.596
12257W        W78798  36.480   5.834   3.243
12258W        W78799  36.951   9.978  12.885
12259W        W78800  31.693  27.701   0.742
12260W        W78801  17.283   3.560   3.087
12261W        W78802  23.949  34.614   1.777
12262W        W78803   2.083  25.634   5.300
12263W        W78804  23.529  44.370   4.519
12264W        W78805  14.768  38.505   4.125
12265W        W78806  41.533  18.275   4.564
12266W        W78807  43.294  38.015   0.363
12267W        W78808  38.821  40.327  11.261
12268W        W78809   4.778  25.152   2.638
12269W        W78810  33.971   5.433   0.033
12270W        W78811   4.729  44.380  10.680
12271W        W78812  29.587  30.203   2.099
12272W        W78813  35.040  13.586   1.145
12273W        W78814  15.854  31.657  11.182
12274W        W78815  19.455  23.876   1.804
12275W        W78816   4.779  32.485   1.171
12276W        W78817  40.142  26.590   0.897
12277W        W78818  11.578   0.519   0.863
12278W        W78819  18.706   4.778  13.283
12279W        W78820  39.221  34.016   0.956
12280W        W78821   3.309   7.580  12.333
12281W        W78822  20.248  17.517   0.229
12282W        W78823  22.226   5.272  12.166
12283W        W78824  21.673  42.324   0.496
12284W        W78825  38.497  38.835  13.767
12285W        W78826  32.000  41.953   1.941
12286W        W78827  10.192   1.959  13.498
12287W        W78828  44.925  14.848  12.954
12288W        W78829  24.514  37.090   1.677
12289W        W78830  17.069  32.582   4.336
12290W        W78831  31.145  10.972  14.011
12291W        W78832  14.106  36.870   3.040
12292W        W78833  14.066  17.679  12.687
12293W        W78834  11.747  21.773  13.408
12294W        W78835  43.505  31.183   3.638
12295W        W78836  35.014   2.844  14.434
12296W        W78837  42.469  36.954   0.415
12297W        W78838  21.953  41.781  12.408
12298W        W78839  34.689  35.847  12.483
12299W        W78840  12.855  19.006   4.747
12300W        W78841  21.107  21.631  13.795
12301W        W78842  26.355  43.709   3.409
12302W        W78843  18.041  17.724  13.285
12303W        W78844  12.876  27.654  14.973
12304W        W78845  36.915   9.941   4.392
12305W        W78846  42.491  38.525   3.251
12306W        W78847  11.791   3.330   1.195
12307W        W78848  22.281   4.224   3.642
12308W        W78849   0.511  25.482  12.539
12309W        W78850   1.007  31.393   3.198
12310W        W78851  41.018  32.735  13.687
12311W        W78852  43.234  26.569  10.723
12312W        W78853  10.253  43.321   4.794
12313W        W78854  32.382  40.669   4.123
12314W        W78855  26.460   2.419   2.268
12315W        W78856  33.221   8.203   2.906
12316W        W78857   7.442  17.779   1.383
12317W        W78858  15.370  27.072  14.530
12318W        W78859  35.843  40.975  10.720
12319W        W78860  10.045  31.615   3.145
12320W        W78861  23.793  13.359   0.820
12321W        W78862  33.828   5.880  12.488
12322W        W78863  40.726  40.231   1.822
12323W        W78864   5.316  21.151  12.460
12324W        W78865  18.015  23.886  12.246
12325W        W78866  43.359  37.393   1.173
12326W        W78867   7.282  22.801   2.229
12327W        W78868  39.385  18.962  13.739
12328W        W78869  44.725  37.643  11.974
12329W        W78870  33.841   0.045  14.855
12330W        W78871  19.249  41.066   4.614
12331W        W78872  14.525   5.891   4.586
12332W        W78873  18.636   0.228  13.177
12333W        W78874  33.978  12.796  12.697
12334W        W78875  34.616  29.606  11.270
12335W        W78876   3.678  39.440   3.610
12336W        W78877   8.849  28.002  12.140
12337W        W78878  10.687  12.818  13.787
12338W        W78879  21.575  20.591  12.012
12339W        W78880  17.055  33.343  11.027
12340W        W78881  33.161  25.103   2.960
12341W        W78882  18.814  15.303   1.428
12342W        W78883  21.286  34.841   0.428
12343W        W78884  38.043   2.831  10.702
12344W        W78885  22.039  37.910  10.543
12345W        W78886  19.140  32.070   1.291
12346W        W78887   7.126  39.813   0.373
12347W        W78888  19.288  15.435   3.615
12348W        W78889  43.293  27.479   2.703
12349W        W78890  42.159  34.351  12.601
12350W        W78891  21.256  29.735   1.792
12351W        W78892   7.987  42.973   0.766
12352W        W78893  32.085  26.458   4.499
12353W        W78894  19.005  26.385   4.252
12354W        W78895  13.755  44.417   3.257
12355W        W78896  26.959  44.432   3.236
12356W        W78897  44.691  32.936  11.569
12357W        W78898  13.803  10.310  11.265
12358W        W78899  18.320  43.549  13.836
12359W        W78900  22.791  13.158  12.956
12360W        W78901  20.143  43.318  11.593
12361W        W78902  33.337  35.821   2.453
12362W        W78903  27.144  33.836  10.639
12363W        W78904  26.682  25.985   0.945
12364W        W78905  38.925  24.595   3.669
12365W        W78906  29.530  44.724   2.521
12366W        W78907  42.849  39.343  11.307
12367W        W78908  29.707  34.277  11.188
12368W        W78909  42.813  43.012   2.813
12369W        W78910  33.591  20.599  13.528
12370W        W78911   8.184  12.789  12.001
12371W        W78912   9.776  44.313   0.429
12372W        W78913  31.377  30.359  14.874
12373W        W78914  30.871  40.776   4.157
12374W        W78915  38.468  37.008  12.858
12375W        W78916  23.744  10.706  11.617
12376W        W78917   6.321  35.428  14.491
12377W        W78918  27.497  13.152  13.114
12378W        W78919   7.400  41.455   1.315
12379W        W78920   3.902  17.660   4.596
12380W        W78921  38.684  32.355   3.254
12381W        W78922  27.958  38.707  10.051
12382W        W78923   5.151  12.842   5.282
12383W        W78924  39.967   0.696   1.399
12384W        W78925  33.404  38.366  10.738
12385W        W78926   4.656  28.661   3.915
12386W        W78927   1.803  36.358  14.788
12387W        W78928  26.716  20.648  14.555
12388W        W78929  39.434  29.166  11.411
12389W        W78930  43.960  24.306   2.390
12390W        W78931  18.943  24.035   1.850
12391W        W78932  31.380  26.631  11.564
12392W        W78933  36.528  40.871  12.750
12393W        W78934   4.198  29.268  11.446
12394W        W78935  37.841  41.365  14.234
12395W        W78936  30.049  36.618   4.656
12396W        W78937  44.921  42.163  13.070
12397W        W78938  10.168  19.330   4.150
12398W        W78939  44.168   0.670   3.172
12399W        W78940  24.968  30.074  12.189
12400W        W78941   9.372  17.841   1.223
12401W        W78942   9.620  36.159   0.001
12402W        W78943   6.448  30.089  11.991
12403W        W78944  12.381   9.408   3.133
12404W        W78945  29.173   7.508  10.450
12405W        W78946   7.865  31.691  14.931
12406W        W78947   3.291  27.966  12.674
12407W        W78948  30.566  41.560   4.725
12408W        W78949  37.471   4.199   2.831
12409W        W78950  23.633  43.460  14.501
12410W        W78951  26.563  23.981  13.488
12411W        W78952  39.931  20.106   1.501
12412W        W78953  31.416  39.470   2.715
12413W        W78954  27.131  15.823  11.414
12414W        W78955  43.363  26.511  13.384
12415W        W78956  22.203  25.893   4.554
12416W        W78957  22.952  17.292  13.057
12417W        W78958  35.054   3.967   3.623
12418W        W78959   7.460   4.327  12.897
12419W        W78960   2.049  22.487   1.331
12420W        W78961  22.613   3.715   1.313
12421W        W78962  30.973  15.211   4.344
12422W        W78963  41.405  44.716   2.161
12423W        W78964  32.058   7.413  13.911
12424W        W78965  18.972  43.095  12.618
12425W        W78966  40.010  30.897  13.904
12426W        W78967   3.122  28.566  14.834
12427W        W78968  23.175  36.729  11.858
12428W        W78969   4.235  15.769   0.379
12429W        W78970  29.697  26.319  10.315
12430W        W78971  27.088  15.322   4.538
12431W        W78972   8.998   8.665  14.725
12432W        W78973   7.272  17.393  14.473
12433W        W78974  35.162  37.828   2.656
12434W        W78975   8.899  44.768  13.124
12435W        W78976  20.169  24.122  13.746
12436W        W78977  14.364   9.229   2.627
12437W        W78978  19.287  33.287   4.722
12438W        W78979   2.138   0.889   0.735
12439W        W78980  17.802  24.132  13.126
12440W        W78981  38.257  37.606   1.972
12441W        W78982   8.617  27.585   4.983
12442W        W78983  29.292  20.459  11.231
12443W        W78984  22.247   6.712   4.024
12444W        W78985  28.763  17.836  10.831
12445W        W78986   0.708   2.828   2.058
12446W        W78987  19.021  16.757  10.822
12447W        W78988  18.656  38.482   3.847
12448W        W78989  38.310  33.366  14.041
12449W        W78990  11.876  22.666   2.301
12450W        W78991  19.167  35.701  12.963
12451W        W78992   9.157  34.512   4.213
12452W        W78993  40.825   5.730   0.004
12453W        W78994  26.222  41.475  13.495
12454W        W78995  17.466  18.627   3.113
12455W        W78996  20.512   4.526  12.077
12456W        W78997  25.073  32.842  13.327
12457W        W78998  37.338  23.576   3.400
12458W        W78999  42.807  12.209  11.132
12459W        W79000  19.553  11.341  14.366
12460W        W79001   7.438  36.479  14.242
12461W        W79002  19.181  32.558   1.507
12462W        W79003   8.476  37.640   0.492
12463W        W79004  16.691   6.669   2.640
12464W        W79005  43.146  26.290  12.056
12465W        W79006  37.388  34.327   0.459
12466W        W79007  27.955  24.660  14.276
12467W        W79008  16.194  44.038  12.566
12468W        W79009  32.373  16.106   4.519
12469W        W79010  13.807  29.577   1.833
12470W        W79011  42.819  12.727   1.478
12471W        W79012  22.943  32.038  13.234
12472W        W79013   1.431  40.094   3.203
12473W        W79014   9.895  13.585  12.598
12474W        W79015  23.581  19.511   3.600
12475W        W79016  20.531  16.370   4.646
12476W        W79017  29.621  14.890   2.461
12477W        W79018  40.775  10.579   3.733
12478W        W79019  44.450  17.416  13.335
12479W        W79020  37.525   2.573   0.733
12480W        W79021  20.581   2.930  13.604
12481W        W79022   2.233  34.398  11.460
12482W        W79023  42.255  19.643   0.865
12483W        W79024  34.991  33.962  13.106
12484W        W79025   0.195   8.642   5.065
12485W        W79026  23.730  17.259  13.425
12486W        W79027  32.513  41.790   0.163
12487W        W79028  16.605  36.667  14.106
12488W        W79029   6.247  23.730  12.978
12489W        W79030  35.843  33.823   4.566
12490W        W79031  20.021   3.868  10.884
12491W        W79032  39.887  28.967  11.622
12492W        W79033  23.161  26.585   0.935
12493W        W79034  33.818  43.416   4.452
12494W        W79035  44.652   1.911   2.225
12495W        W79036  10.578  41.358   2.774
12496W        W79037   0.530  23.471  13.977
12497W        W79038  11.174  27.749  12.125
12498W        W79039  13.852   5.187   0.930
12499W        W79040  44.060  42.463  12.084
12500W        W79041   4.223  10.111   2.878
12501W        W79042  27.384   7.315   3.599
12502W        W79043  10.171  10.807  11.923
12503W        W79044  38.443  26.119   0.906
12504W        W79045  44.951  34.498  11.776
12505W        W79046  39.408  24.259  11.557
12506W        W79047  41.961  33.938   2.427
12507W        W79048  10.860  44.894   4.711
12508W        W79049  28.983  15.852   1.101
12509W        W79050  28.737  31.830  11.958
12510W        W79051  19.144  34.059   1.233
12511W        W79052  27.461  36.927  10.640
12512W        W79053  36.572  44.754   4.575
12513W        W79054  32.058  43.974  13.313
12514W        W79055   8.173  22.538   3.662
12515W        W79056  42.376  18.251   2.980
12516W        W79057  25.842  33.567  10.335
12517W        W79058  37.994  30.571  11.266
12518W        W79059  13.098  25.216  11.593
12519W        W79060   2.182   7.249   0.743
12520W        W79061  14.752  10.469   1.896
12521W        W79062  39.116  19.221   0.484
12522W        W79063  29.847   5.945  13.289
12523W        W79064  28.642  10.409  13.088
12524W        W79065  21.074  31.408  13.713
12525W        W79066  19.780  31.407   0.329
12526W        W79067  28.511  10.494  11.616
12527W        W79068  21.761  36.024  13.313
12528W        W79069  36.808  24.093  13.324
12529W        W79070  20.810  22.082  12.376
12530W        W79071  44.190  25.307  14.345
12531W        W79072  32.906   2.290   3.505
12532W        W79073  30.871  16.139   0.014
12533W        W79074  10.383  14.869  12.540
12534W        W79075   9.679   6.197   1.352
12535W        W79076  22.728  36.504   0.291
12536W        W79077  21.314  22.611  12.481
12537W        W79078   1.493   6.638   1.693
12538W        W79079  38.370  42.481   2.305
12539W        W79080   6.381  11.140  12.856
12540W        W79081  19.237  30.997  14.455
12541W        W79082  13.193  25.175   4.416
12542W        W79083  25.051  34.552   3.007
12543W        W79084   9.702  16.258   4.818
12544W        W79085   4.205  14.575   4.721
12545W        W79086   1.084  37.477   4.573
12546W        W79087  34.359  26.167  11.079
12547W        W79088  21.835  20.609   3.326
12548W        W79089   5.456  17.343  13.636
12549W        W79090  16.399  43.961  12.094
12550W        W79091  23.498  16.285  13.490
12551W        W79092  18.661  10.205  14.196
12552W        W79093  11.879  35.873   1.274
12553W        W79094  23.269   4.198  12.107
12554W        W79095   1.237  22.936  14.791
12555W        W79096  10.864  32.169  14.932
12556W        W79097  12.427  35.955  13.484
12557W        W79098  36.008  35.553   0.760
12558W        W79099   4.302  21.684   1.705
12559W        W79100  33.957  43.344   1.223
12560W        W79101  36.706  22.824  10.220
12561W        W79102  26.631   2.274   0.107
12562W        W79103  31.999   0.616   3.710
12563W        W79104  31.291   7.620  10.786
12564W        W79105  27.702  39.626   2.076
12565W        W79106  34.119  18.867  10.832
12566W        W79107  27.728   3.389  10.403
12567W        W79108  43.150   7.818  11.668
12568W        W79109   6.067  34.011   4.761
12569W        W79110   5.419  12.754   0.443
12570W        W79111  13.886  34.612   3.208
12571W        W79112  17.609  42.484  12.893
12572W        W79113  31.319  30.036   2.338
12573W        W79114   3.347  20.239  10.802
12574W        W79115  36.892   8.335   2.123
12575W        W79116  30.677  21.171   4.520
12576W        W79117  43.544  23.545   3.745
12577W        W79118  15.911  15.523   1.776
12578W        W79119   1.792  39.194  13.425
12579W        W79120  10.460  40.710   4.619
12580W        W79121  12.692   1.265  14.967
12581W        W79122   2.142  18.587   1.462
12582W        W79123  15.048  35.766   1.740
12583W        W79124  18.783  37.664   5.076
12584W        W79125  36.405   1.195  12.013
12585W        W79126  12.734  23.807   0.297
12586W        W79127  42.585  21.705  12.790
12587W        W79128  12.768  22.192   2.298
12588W        W79129  24.496  44.693  12.133
12589W        W79130  24.944   7.730  12.880
12590W        W79131  22.976   7.129  14.051
12591W        W79132  13.380  30.510   3.625
12592W        W79133  30.692  21.614   2.340
12593W        W79134  29.975   8.126   3.654
12594W        W79135  31.480   1.483  12.678
12595W        W79136  15.067  28.878  10.290
12596W        W79137  33.606  19.259  12.109
12597W        W79138  21.754  24.027   0.422
12598W        W79139  26.612  26.219   3.676
12599W        W79140   4.859  13.089  14.049
12600W        W79141  27.035  27.117   2.425
12601W        W79142  39.990  32.707   2.766
12602W        W79143  12.652  20.038   1.376
12603W        W79144   9.940  32.409  11.271
12604W        W79145   4.925  11.790  13.251
12605W        W79146  27.438   0.812   0.288
12606W        W79147  31.142  39.772   0.540
12607W        W79148   4.729  15.794   0.188
12608W        W79149  41.553  27.009  11.533
12609W        W79150  19.309  40.786   2.904
12610W        W79151  35.678   1.285   5.025
12611W        W79152  26.385  43.779   3.916
12612W        W79153  40.729  10.991  13.818
12613W        W79154  35.593  44.912  11.167
12614W        W79155  11.673   5.398  12.586
12615W        W79156   1.413  41.990   2.068
12616W        W79157   3.291  13.898   3.319
12617W        W79158  41.830   1.184   1.271
12618W        W79159  11.167  35.537  14.418
12619W        W79160  22.369   0.246  13.328
12620W        W79161  20.157   9.406  12.936
12621W        W79162  26.175   8.954   1.658
12622W        W79163  20.455  28.688   1.321
12623W        W79164  33.789  36.932   2.793
12624W        W79165  27.775  30.740   2.783
12625W        W79166  23.902  21.446   0.213
12626W        W79167   8.268  40.771   2.279
12627W        W79168  39.623  29.609  12.164
12628W        W79169  27.165  28.144  11.572
12629W        W79170  41.026   8.790  11.243
12630W        W79171  17.151  16.180  12.958
12631W        W79172  20.369  44.597  13.336
12632W        W79173  21.101  10.460  11.314
12633W        W79174  34.369  15.174   2.234
12634W        W79175   6.228   4.586  12.440
12635W        W79176  30.990  41.438  12.997
12636W        W79177  26.867  34.763   4.982
12637W        W79178  37.562  27.253   4.083
12638W        W79179  10.831  26.484   2.696
12639W        W79180  12.079  21.965  10.921
12640W        W79181  18.648  18.107   0.686
12641W        W79182  13.091  34.940   3.660
12642W        W79183   5.930  33.131  12.271
12643W        W79184  12.200  10.472  14.276
12644W        W79185  32.915   8.397   3.737
12645W        W79186  22.654  10.294  13.511
12646W        W79187  15.349  19.821  11.525
12647W        W79188  26.438   7.868   1.408
12648W        W79189  25.582   9.473  11.672
12649W        W79190  33.141  33.520   4.299
12650W        W79191  15.546  23.386   2.045
12651W        W79192  17.270   9.764   2.392
12652W        W79193  20.766  12.620  14.374
12653W        W79194  12.326  27.241  12.865
12654W        W79195   1.452  20.544   0.527
12655W        W79196  29.580  11.206   3.343
12656W        W79197   1.987   8.154   3.017
12657W        W79198  15.360   7.546   2.256
12658W        W79199  20.664  30.634  11.477
12659W        W79200  29.242  26.627  14.940
12660W        W79201  31.457  20.466  10.834
12661W        W79202  30.878   3.344   1.767
12662W        W79203   1.080  10.049  14.916
12663W        W79204  39.577  32.406   1.893
12664W        W79205  28.586  38.412  10.744
12665W        W79206  27.213  20.381  14.686
12666W        W79207  18.054  19.388   1.479
12667W        W79208  28.178  18.675   2.609
12668W        W79209  14.129  21.130  10.834
12669W        W79210  37.912   4.007   1.654
12670W        W79211  28.625  36.111   0.815
12671W        W79212  29.434  29.543   2.849
12672W        W79213   0.745  38.474  11.420
12673W        W79214  31.138  39.520  14.590
12674W        W79215  31.239   9.827   0.441
12675W        W79216   5.425   0.205   3.729
12676W        W79217  39.452  32.040  13.431
12677W        W79218   3.030  29.121   2.380
12678W        W79219  30.178  12.111  13.793
12679W        W79220  25.687  18.607   1.769
12680W        W79221  39.820  38.861  13.078
12681W        W79222  25.677  16.172  12.676
12682W        W79223  36.621  16.269  12.294
12683W        W79224  13.541  12.850  14.990
12684W        W79225  42.942  44.887   4.107
12685W        W79226  37.824   7.967  11.083
12686W        W79227  20.700   8.954  10.972
12687W        W79228  30.106  23.539   4.675
12688W        W79229  35.954  16.183   0.020
12689W        W79230   3.350   4.701  13.132
12690W        W79231   3.529  22.232   3.755
12691W        W79232  43.491  36.084  10.109
12692W        W79233  24.053  14.630  10.841
12693W        W79234  10.838  15.068   1.120
12694W        W79235  42.483  16.246  12.159
12695W        W79236  22.666   7.657  11.619
12696W        W79237  20.226  23.943   1.392
12697W        W79238   8.679  27.470   2.839
12698W        W79239  14.209  43.241   3.109
12699W        W79240  30.958   2.769   3.357
12700W        W79241   3.403  22.217  11.073
12701W        W79242  27.344  12.352   0.299
12702W        W79243  41.961  41.570   3.233
12703W        W79244  36.354  17.140  10.876
12704W        W79245  44.251  20.201   4.040
12705W        W79246  23.678  14.776  12.492
12706W        W79247  41.911  26.975  12.656
12707W        W79248   2.999   1.668  11.805
12708W        W79249  17.367  11.566   1.820
12709W        W79250  44.819  11.296   4.965
12710W        W79251  37.796  32.312   4.866
12711W        W79252   7.007  27.958  11.406
12712W        W79253   4.099  42.089  12.962
12713W        W79254  17.288  27.339   3.817
12714W        W79255  17.831  25.889   0.895
12715W        W79256  21.775  36.416  11.553
12716W        W79257   1.256  40.070  10.670
12717W        W79258   8.180  10.179  12.101
12718W        W79259   4.254   6.339  14.382
12719W        W79260   3.877  22.651   3.646
12720W        W79261  35.726   7.482   0.889
12721W        W79262  24.578   4.804   0.104
12722W        W79263   3.236  20.622  14.011
12723W        W79264  14.345   0.167   1.025
12724W        W79265  29.082  29.390   4.097
12725W        W79266  16.854  28.675   0.295
12726W        W79267  23.683  23.713  12.030
12727W        W79268  31.463   2.764  10.325
12728W        W79269   2.339  14.576  11.468
12729W        W79270  31.040  18.790  11.421
12730W        W79271   8.707   0.314  13.926
12731W        W79272  42.437  41.100  12.921
12732W        W79273  30.136  14.369   4.060
12733W        W79274   7.255  15.614  12.210
12734W        W79275  19.831  14.301   0.540
12735W        W79276  42.285   1.969  13.385
12736W        W79277  20.007   1.549   4.961
12737W        W79278  25.571  21.539   4.807
12738W        W79279  38.509  37.936  12.430
12739W        W79280  18.767  20.032   0.853
12740W        W79281  20.948  41.620  13.930
12741W        W79282  10.237  22.152  10.178
12742W        W79283  22.488  35.988   9.942
12743W        W79284   7.168  11.394  12.483
12744W        W79285  17.996  19.713   1.954
12745W        W79286  38.174  34.271  12.079
12746W        W79287  43.637   6.917   2.458
12747W        W79288   6.858  13.553  12.991
12748W        W79289  26.202  22.716  14.893
12749W        W79290  19.299  21.218   0.910
12750W        W79291  43.264  13.147   0.929
12751W        W79292  32.971  17.851  12.202
12752W        W79293   4.155   4.615  12.409
12753W        W79294   3.892  37.001   2.764
12754W        W79295  18.468  44.001  13.204
12755W        W79296  31.317   4.395   4.095
12756W        W79297   4.383  14.758  11.454
12757W        W79298   6.837  22.244   1.398
12758W        W79299  36.930  42.382   1.847
12759W        W79300  24.613  15.530   3.049
12760W        W79301  40.857   8.850   1.803
12761W        W79302   4.853   0.206   3.306
12762W        W79303  13.914  43.866  12.255
12763W        W79304  41.308  10.079  14.762
12764W        W79305  24.999  42.406   4.085
12765W        W79306  29.048  17.858  13.020
12766W        W79307  17.775  12.624  12.439
12767W        W79308  29.693   2.335   4.240
12768W        W79309  44.850   6.436   1.829
12769W        W79310  38.148  20.268   0.381
12770W        W79311  23.553  15.345  10.725
12771W        W79312  23.278   8.867  10.557
12772W        W79313  41.026  41.162   3.282
12773W        W79314   6.735  15.660   1.756
12774W        W79315  27.538  32.725  11.061
12775W        W79316  37.968  12.063  12.408
12776W        W79317   3.422   3.719  13.492
12777W        W79318  28.222  17.074  11.190
12778W        W79319  20.673  41.981  12.025
12779W        W79320   2.439   5.692   4.953
12780W        W79321  25.100  30.527  11.916
12781W        W79322  44.256  11.292  10.714
12782W        W79323  37.039  29.402   3.499
12783W        W79324  10.910  22.105   3.214
12784W        W79325  12.260  26.615   3.672
12785W        W79326  27.036  34.354   3.642
12786W        W79327  33.316  42.486  11.529
12787W        W79328  32.585   6.842   0.327
12788W        W79329  28.130  10.252  12.949
12789W        W79330  24.583  35.114   3.827
12790W        W79331  20.268  16.272  14.338
12791W        W79332  26.088  36.467  14.953
12792W        W79333  34.803  22.611   2.199
12793W        W79334  25.930   3.215  10.612
12794W        W79335  26.744  35.397   4.188
12795W        W79336  37.976  38.573  12.050
12796W        W79337   0.230  43.374  14.834
12797W        W79338  12.945  43.566  10.631
12798W        W79339   6.799  23.794   1.241
12799W        W79340  25.065  15.644  11.096
12800W        W79341  29.243  21.205   2.613
12801W        W79342  31.414  20.327  12.851
12802W        W79343  20.448  19.384  11.509
12803W        W79344  24.688  40.850   3.259
12804W        W79345  16.849  35.386   4.122
12805W        W79346   4.633  43.384  10.135
12806W        W79347  43.467  40.750   0.906
12807W        W79348  25.114   2.720   3.201
12808W        W79349   5.335   5.199   1.319
12809W        W79350  37.657   7.169  12.108
12810W        W79351  44.268   7.108  13.148
12811W        W79352  15.095  29.627  12.391
12812W        W79353  27.770   1.177  12.574
12813W        W79354  31.299   0.796  12.996
12814W        W79355   9.722  43.455  13.492
12815W        W79356  33.416  20.506   1.208
12816W        W79357  25.088  28.680   0.724
12817W        W79358  39.682   5.408  11.063
12818W        W79359  25.710  18.393  14.069
12819W        W79360  19.577  14.540  14.323
12820W        W79361  16.055  43.493  13.365
12821W        W79362  38.493  28.954   1.605
12822W        W79363  27.487  24.852  14.235
12823W        W79364  34.035  20.524   4.486
12824W        W79365  20.052  26.459  11.331
12825W        W79366   6.896  15.124   4.221
12826W        W79367  33.470  31.750  13.401
12827W        W79368  20.997  39.375  12.916
12828W        W79369  22.955  12.754   4.119
12829W        W79370  26.147  25.994  14.427
12830W        W79371  29.577   4.706   0.955
12831W        W79372   3.247   5.291  12.830
12832W        W79373  12.229  38.499   0.335
12833W        W79374  40.962  44.702  10.424
12834W        W79375  25.272  29.144  14.848
12835W        W79376  17.093  15.575  10.736
12836W        W79377  34.183  38.327  12.471
12837W        W79378  20.080  19.521   1.752
12838W        W79379  26.911  27.108  14.012
12839W        W79380  17.298  30.845  10.445
12840W        W79381  13.808  24.244   1.793
12841W        W79382   6.673  17.618   2.767
12842W        W79383  12.287  30.450  14.902
12843W        W79384   0.982  27.403   2.884
12844W        W79385  26.350  37.690  11.399
12845W        W79386  15.756  24.070  13.816
12846W        W79387  40.359  32.141  12.912
12847W        W79388  40.148   2.782  14.852
12848W        W79389  31.957  27.943  14.163
12849W        W79390  40.463  16.799  12.870
12850W        W79391  20.453  17.687   3.756
12851W        W79392   4.291  22.565   5.243
12852W        W79393   3.791  11.578  12.577
12853W        W79394  30.494  31.504   1.053
12854W        W79395  42.379   4.989   0.365
12855W        W79396  11.812  24.702   2.791
12856W        W79397  41.040  39.717  11.544
12857W        W79398   6.891  19.512  10.450
12858W        W79399  12.891  12.527   2.766
12859W        W79400  44.226  11.679  12.769
12860W        W79401  30.032  15.678   4.659
12861W        W79402  27.504  18.219  10.789
12862W        W79403  22.250  36.058  14.845
12863W        W79404  39.252  35.423  11.091
12864W        W79405  25.770  30.916   3.986
12865W        W79406  13.587  23.967   1.430
12866W        W79407  15.834   5.408  14.296
12867W        W79408  42.960  40.761   1.861
12868W        W79409  24.364  25.736   1.355
12869W        W79410   8.379  18.705   1.684
12870W        W79411  29.813  24.565   4.037
12871W        W79412  10.266  34.472   9.891
12872W        W79413  43.821  33.070  14.357
12873W        W79414  10.084  18.193  14.042
12874W        W79415  10.041  34.660   3.368
12875W        W79416   0.666   1.839   0.976
12876W        W79417  11.110  20.541   1.721
12877W        W79418  35.834  35.628   3.758
12878W        W79419  15.381  14.450  14.652
12879W        W79420  28.528  41.305  13.272
12880W        W79421  29.396   9.799  12.648
12881W        W79422  19.785  35.858  11.669
12882W        W79423  29.719  32.641   2.691
12883W        W79424  13.250   7.709  12.386
12884W        W79425  42.770   9.096   1.264
12885W        W79426   3.485  13.718  12.080
12886W        W79427  42.210  16.122  12.993
12887W        W79428   3.723  39.791  14.503
12888W        W79429  23.755   8.176   4.481
12889W        W79430   8.857  42.266   1.425
12890W        W79431  13.346  12.867  13.166
12891W        W79432  26.980   6.897  11.588
12892W        W79433   6.214  10.414   3.551
12893W        W79434  20.153   1.269  10.930
12894W        W79435  12.592  36.562   2.182
12895W        W79436  15.578   7.807  12.493
12896W        W79437   2.944  44.168   4.795
12897W        W79438  29.737  35.861   3.762
12898W        W79439  33.271  19.721   0.173
12899W        W79440  23.844  25.667   2.381
12900W        W79441  33.644  26.943  12.650
12901W        W79442  40.762   0.854  13.521
12902W        W79443  14.764  21.307  12.696
12903W        W79444  42.400  10.682   1.715
12904W        W79445   9.487  37.822   4.799
12905W        W79446  38.807  42.331  12.896
12906W        W79447  32.955  24.616   4.977
12907W        W79448  42.703  20.915  11.129
12908W        W79449  44.784  31.506   3.636
12909W        W79450  16.322  38.292  12.929
12910W        W79451   9.707   0.272  13.848
12911W        W79452  42.436  19.435  10.989
12912W        W79453  43.902  30.654  14.801
12913W        W79454  21.805  28.374  12.996
12914W        W79455  27.100  19.577  13.127
12915W        W79456  14.132  41.917   3.624
12916W        W79457  15.811  33.931  10.243
12917W        W79458   3.037  12.121  12.626
12918W        W79459  37.026  13.397  10.611
12919W        W79460  17.019   7.954  11.668
12920W        W79461   9.733  34.086  14.520
12921W        W79462   2.417  22.282   3.165
12922W        W79463  18.985   9.350  10.793
12923W        W79464  29.578   2.941  13.472
12924W        W79465   0.529  34.367  13.480
12925W        W79466  23.608   0.967  14.484
12926W        W79467  10.715  37.572   0.480
12927W        W79468  24.048   1.655   3.824
12928W        W79469  44.535  25.722  12.221
12929W        W79470  37.076   2.915   2.322
12930W        W79471  16.576   0.460  11.432
12931W        W79472  19.635  29.054   3.709
12932W        W79473  10.525   9.872  14.272
12933W        W79474  32.892  11.121   1.142
12934W        W79475  24.761   8.123  14.985
12935W        W79476   9.865  21.462  11.179
12936W        W79477  19.124   1.970  12.511
12937W        W79478  39.626  29.596   5.167
12938W        W79479  14.044   8.141  14.274
12939W        W79480  19.006  26.668  14.862
12940W        W79481   4.755  39.052   1.906
12941W        W79482  44.495  33.462  13.564
12942W        W79483  22.054  38.307   3.704
12943W        W79484  44.269   7.406   1.448
12944W        W79485  24.597  23.022   4.531
12945W        W79486  23.981  20.685  12.103
12946W        W79487  44.227  40.472  14.748
12947W        W79488  14.210  41.924   4.506
12948W        W79489  22.515   1.521   0.826
12949W        W79490  10.291  17.104   0.666
12950W        W79491  18.371  36.165   4.546
12951W        W79492   9.572   0.308   3.694
12952W        W79493  16.277  26.712  12.906
12953W        W79494   2.937  44.249  12.374
12954W        W79495  34.487  21.198   4.279
12955W        W79496  21.030   2.899  13.075
12956W        W79497   7.379  29.206   1.761
12957W        W79498  19.523  11.687   0.708
12958W        W79499  20.845  28.673  11.271
12959W        W79500  23.012  31.901   3.317
12960W        W79501  22.920   0.016  12.955
12961W        W79502  31.655   3.426   3.285
12962W        W79503  31.383  12.780  14.307
12963W        W79504  11.808  24.266   0.948
12964W        W79505   2.981  14.136  10.545
12965W        W79506  44.785  18.262  10.358
12966W        W79507  26.024  14.996  12.193
12967W        W79508  25.250  34.772  12.223
12968W        W79509  14.872   7.694   2.355
12969W        W79510  43.633  31.522  11.042
12970W        W79511   4.342   3.560   5.367
12971W        W79512  39.958   0.439   3.261
12972W        W79513  18.895   1.864   4.751
12973W        W79514   8.065  36.498  13.444
12974W        W79515  41.664  32.176  10.387
12975W        W79516   5.374  15.573   4.077
12976W        W79517  32.041  40.412  14.837
12977W        W79518   5.344   0.487  14.314
12978W        W79519  19.631  28.115   3.750
12979W        W79520   8.225  12.198   2.805
12980W        W79521   9.493  37.308   1.132
12981W        W79522   9.617  30.926   4.546
12982W        W79523  19.761  26.425  14.283
12983W        W79524  19.737  28.507  12.905
12984W        W79525  17.588  37.941   0.468
12985W        W79526  24.269  14.615   3.809
12986W        W79527  37.333  30.637   0.550
12987W        W79528   7.367  30.342   3.586
12988W        W79529  23.057   8.385  10.593
12989W        W79530  34.211   9.556   0.787
12990W        W79531  32.179  42.824   0.880
12991W        W79532   5.949  33.184   2.390
12992W        W79533   7.802   5.044  13.803
12993W        W79534   6.751  16.237   4.438
12994W        W79535  26.013  26.646  11.848
12995W        W79536  20.104  39.606   0.760
12996W        W79537  36.841  31.129   4.927
12997W        W79538   8.104  21.954  11.945
12998W        W79539  14.314  17.701  13.142
12999W        W79540   9.197   9.426  14.255
13000W        W79541  37.354  10.799   2.303
13001W        W79542  27.123   8.301   2.123
13002W        W79543  28.684   3.790   0.507
13003W        W79544  26.142   1.301   3.771
13004W        W79545  12.171   5.252   2.664
13005W        W79546  41.888  30.349   5.005
13006W        W79547  30.592  28.893  10.732
13007W        W79548  39.948  12.403   4.963
13008W        W79549  22.429  36.087   0.336
13009W        W79550  25.887  40.542   3.112
13010W        W79551  35.274   6.451   3.787
13011W        W79552  21.666  10.959  14.233
13012W        W79553  40.096  10.537  11.025
13013W        W79554  35.328  18.766  12.260
13014W        W79555  24.283  21.127   0.375
13015W        W79556  13.450  36.025  14.383
13016W        W79557  13.055  19.007  12.494
13017W        W79558   8.778  14.494   0.584
13018W        W79559  30.831  35.317  14.955
13019W        W79560  19.169  21.989   1.972
13020W        W79561  44.070  35.310  12.725
13021W        W79562   2.549  14.136  11.687
13022W        W79563  14.680  38.752   4.610
13023W        W79564   9.568  37.128  14.204
13024W        W79565  31.530   4.356   1.028
13025W        W79566  20.976   3.837   4.196
13026W        W79567  31.040   2.668  10.032
13027W        W79568   2.845  40.217   3.886
13028W        W79569  20.649  18.014   2.462
13029W        W79570   8.721  14.777   3.583
13030W        W79571   8.326  44.945   0.974
13031W        W79572  10.348  34.568   0.856
13032W        W79573   3.222  38.443  10.728
13033W        W79574  36.323  19.389  11.079
13034W        W79575  24.558  20.983  12.008
13035W        W79576  11.948   4.898  12.029
13036W        W79577  13.256   2.351   2.346
13037W        W79578  21.138  32.500   2.278
13038W        W79579  10.251   5.104  14.364
13039W        W79580  30.516  14.753   4.961
13040W        W79581  30.121  35.586   2.850
13041W        W79582  11.513  13.659  14.393
13042W        W79583  35.010   8.674   3.200
13043W        W79584  43.481  14.836  14.378
13044W        W79585   5.983  15.456   1.280
13045W        W79586  21.527  32.012  13.085
13046W        W79587  13.935  18.695  13.822
13047W        W79588  16.109  14.572   2.289
13048W        W79589   1.642  18.413  12.177
13049W        W79590  37.064  31.889  12.046
13050W        W79591  30.753   0.349   0.251
13051W        W79592  30.986  20.161   3.715
13052W        W79593  15.143  21.604  12.913
13053W        W79594  35.080  35.381  14.894
13054W        W79595   2.362  23.673  14.306
13055W        W79596  39.195  24.260  12.422
13056W        W79597   1.613  38.796   3.372
13057W        W79598  23.111  33.063   3.962
13058W        W79599  13.146  34.423   2.915
13059W        W79600  21.800  25.707   3.100
13060W        W79601  15.207  43.130   3.384
13061W        W79602  23.973   2.143   3.672
13062W        W79603  18.270  39.545   2.188
13063W        W79604  41.400   3.850  14.731
13064W        W79605  13.892  36.551   4.134
13065W        W79606  35.473  39.098  14.883
13066W        W79607  17.011  38.079   3.156
13067W        W79608  12.045  37.578   0.833
13068W        W79609   1.350  34.314  13.175
13069W        W79610  24.672  37.972  11.567
13070W        W79611  41.520  38.743   3.440
13071W        W79612  11.301  23.210   3.870
13072W        W79613  41.448  27.191  12.518
13073W        W79614  13.497  25.033  14.253
13074W        W79615  31.127  19.467   2.928
13075W        W79616  12.039  21.526  12.130
13076W        W79617  35.641  17.070  12.558
13077W        W79618  16.759  38.052   4.235
13078W        W79619  12.201  29.551   4.310
13079W        W79620   7.429  35.219  10.811
13080W        W79621  37.517  25.687   4.560
13081W        W79622   4.433   2.406  11.288
13082W        W79623  35.096  24.053  13.496
13083W        W79624  22.829  26.314   3.918
13084W        W79625  41.861   3.271   2.229
13085W        W79626  31.180  39.910   2.831
13086W        W79627  44.527   9.092  11.898
13087W        W79628  33.357  30.018   3.395
13088W        W79629  33.493  38.583   2.692
13089W        W79630   2.213  43.042  10.899
13090W        W79631  20.793   9.927   3.295
13091W        W79632  19.873  24.440   0.054
13092W        W79633  17.790  17.853   0.367
13093W        W79634   3.239   9.092  14.329
13094W        W79635   1.511  33.395   0.833
13095W        W79636  25.628  13.267   4.524
13096W        W79637  29.474   7.186   4.605
13097W        W79638  37.530  42.818   1.654
13098W        W79639   9.146   3.001   0.740
13099W        W79640  12.883  32.795  12.534
13100W        W79641  11.564  17.334  12.328
13101W        W79642   0.201   7.352  12.196
13102W        W79643  11.722  43.392  13.450
13103W        W79644  33.112   7.323   1.430
13104W        W79645  41.776  25.158  11.573
13105W        W79646  29.620  28.445   4.103
13106W        W79647  37.820   3.804  14.335
13107W        W79648   8.110  27.406   1.059
13108W        W79649   2.493   1.171  13.028
13109W        W79650  27.029  12.603  14.055
13110W        W79651  13.345  19.180   2.406
13111W        W79652  12.192  18.577  11.963
13112W        W79653   4.415  33.929  13.297
13113W        W79654  11.803  10.138   1.421
13114W        W79655  43.999  33.335  10.246
13115W        W79656  33.937  35.766  10.420
13116W        W79657  36.812  18.144   1.696
13117W        W79658  37.641  41.291   0.847
13118W        W79659  13.938  22.064   3.093
13119W        W79660  41.307  25.787   0.286
13120W        W79661  44.992  32.955   1.426
13121W        W79662  16.225  39.038  13.598
13122W        W79663  29.920   7.274   0.865
13123W        W79664  30.956  19.243   3.386
13124W        W79665  12.572  23.071  14.815
13125W        W79666  32.163  41.786   0.873
13126W        W79667   0.679  38.868  13.448
13127W        W79668  33.007  10.760  13.119
13128W        W79669  30.512  44.189  14.136
13129W        W79670  15.661  41.586  14.399
13130W        W79671  22.474  15.818   4.184
13131W        W79672  25.401  41.770   2.850
13132W        W79673  25.477  17.878  14.564
13133W        W79674  19.764   5.301   4.441
13134W        W79675   2.790  14.162   4.078
13135W        W79676  21.390  31.316   3.369
13136W        W79677   5.569  14.512  11.845
13137W        W79678  11.351  44.936   4.555
13138W        W79679  12.340   4.684   4.766
13139W        W79680  33.145  23.989  14.467
13140W        W79681  12.299  29.025  10.276
13141W        W79682   1.754  30.603   3.989
13142W        W79683   7.771  17.114   3.151
13143W        W79684  44.725   5.160  12.458
13144W        W79685  22.803  31.492  13.353
13145W        W79686  44.935  18.461  11.663
13146W        W79687  38.598  17.824   2.786
13147W        W79688  18.723  22.932  13.049
13148W        W79689  24.062  42.924   3.277
13149W        W79690  41.885  22.024  11.267
13150W        W79691  33.543  30.211  13.784
13151W        W79692  28.047  13.607   2.332
13152W        W79693  40.495   7.192   4.546
13153W        W79694  39.972  44.736   2.332
13154W        W79695  11.109   1.319  14.857
13155W        W79696  42.971  31.060  12.628
13156W        W79697   6.068  30.417  10.756
13157W        W79698  12.412  21.761   4.577
13158W        W79699  10.411  37.003   0.364
13159W        W79700  37.549  31.729   3.269
13160W        W79701  37.736   5.736  11.219
13161W        W79702   4.519  32.016   3.211
13162W        W79703  15.343  21.042   2.642
13163W        W79704   4.875   4.331   3.915
13164W        W79705  23.953  26.778  14.761
13165W        W79706  22.127  43.536  13.920
13166W        W79707  14.289  14.751  13.112
13167W        W79708   1.001   8.770   2.836
13168W        W79709  11.937  27.329  12.502
13169W        W79710   9.255  42.356  12.943
13170W        W79711  10.094  20.853   1.820
13171W        W79712   2.749  10.722   3.296
13172W        W79713  10.167  38.573  11.183
13173W        W79714  32.751  15.046  13.824
13174W        W79715  32.341  20.623  11.115
13175W        W79716  34.064   5.770  10.461
13176W        W79717  33.907   6.508  11.885
13177W        W79718   0.852  16.141   0.521
13178W        W79719  17.174  39.022   1.688
13179W        W79720   6.498  21.194   4.550
13180W        W79721  10.845  21.918  14.028
13181W        W79722  36.909  14.922   1.396
13182W        W79723  20.194  34.253   1.417
13183W        W79724  28.483  23.540  10.658
13184W        W79725  23.725  17.569  14.651
13185W        W79726   8.818  25.280  14.717
13186W        W79727  24.397  30.966  11.960
13187W        W79728   5.319  24.059  11.011
13188W        W79729   5.642  30.074  13.377
13189W        W79730  24.887  41.379  12.488
13190W        W79731  18.473  17.234   1.702
13191W        W79732  34.747  14.266   5.017
13192W        W79733  26.165  24.712   3.199
13193W        W79734  40.510  44.231   0.909
13194W        W79735   1.326  31.384  12.628
13195W        W79736  11.234  34.673   0.335
13196W        W79737  31.289  24.840   0.890
13197W        W79738   5.292  43.513   3.204
13198W        W79739  24.247  27.057  14.384
13199W        W79740   4.706  31.498   1.833
13200W        W79741  36.105  12.800  11.115
13201W        W79742   4.508  24.616   3.708
13202W        W79743  31.684  22.920   0.451
13203W        W79744  24.259  38.978  14.153
13204W        W79745   8.312  11.841  11.545
13205W        W79746  36.503  27.061   0.833
13206W        W79747  15.933  15.216   0.003
13207W        W79748  43.982  27.390   0.123
13208W        W79749   9.548  29.926  13.870
13209W        W79750  24.279  34.040  10.815
13210W        W79751  17.595  10.171   1.252
13211W        W79752  17.482  26.598   2.182
13212W        W79753  11.324  17.735  13.229
13213W        W79754  27.109  33.426   3.646
13214W        W79755  25.499  11.739   1.735
13215W        W79756  11.827  38.117  11.914
13216W        W79757  25.211   4.380  12.986
13217W        W79758   7.452  44.790  11.872
13218W        W79759   8.901  23.768   2.419
13219W        W79760  35.846  30.366   0.890
13220W        W79761  30.607  38.021   4.417
13221W        W79762  31.503   8.159  14.017
13222W        W79763  15.003  33.191  11.617
13223W        W79764  24.437  34.474   1.753
13224W        W79765   3.307  10.143   4.048
13225W        W79766  17.113  40.500   4.618
13226W        W79767  25.538  36.330   3.297
13227W        W79768  30.638  19.293   0.826
13228W        W79769  21.220  22.529   2.929
13229W        W79770  43.437  37.284  13.323
13230W        W79771  22.556  20.255   1.165
13231W        W79772  27.254  12.219  12.964
13232W        W79773  21.971   1.430   4.383
13233W        W79774  31.978   7.323   1.186
13234W        W79775  11.351  29.960   2.290
13235W        W79776   6.866  21.578  14.746
13236W        W79777  10.650  11.013  11.893
13237W        W79778  28.468  13.796  12.436
13238W        W79779  20.418  35.235  12.119
13239W        W79780   3.531  13.169  14.915
13240W        W79781  21.406   6.199   1.441
13241W        W79782  10.260  42.549  12.329
13242W        W79783   7.417  22.707  11.342
13243W        W79784  26.243   7.203   4.113
13244W        W79785   4.484   4.280   0.806
13245W        W79786   1.976  35.337  12.939
13246W        W79787  19.521   2.843   4.546
13247W        W79788  44.896  21.811   3.846
13248W        W79789  39.967   9.001   0.050
13249W        W79790   3.056   7.202   2.441
13250W        W79791   2.206   8.366  13.494
13251W        W79792  35.642   5.693   3.785
13252W        W79793   3.420   0.574  12.523
13253W        W79794   9.996  18.379   0.319
13254W        W79795   2.923   8.476   4.661
13255W        W79796  15.496  17.760  14.771
13256W        W79797   3.275  44.467  11.630
13257W        W79798  18.545   5.407   3.407
13258W        W79799  41.143  21.924   0.982
13259W        W79800  15.652  35.941  14.348
13260W        W79801  44.349  35.871  10.926
13261W        W79802  23.905  36.357  13.518
13262W        W79803   1.803  27.034   2.780
13263W        W79804  16.271  26.420  11.352
13264W        W79805  32.060  26.094   1.446
13265W        W79806  11.122  20.505  14.003
13266W        W79807  26.434  20.117  11.552
13267W        W79808  41.733  32.402   4.610
13268W        W79809  21.647  26.709  12.042
13269W        W79810  15.313  16.142  12.431
13270W        W79811  24.002  35.673  11.645
13271W        W79812  40.517   2.180   2.811
13272W        W79813  34.947  23.335   2.919
13273W        W79814  34.698   0.311   3.414
13274W        W79815  14.510   1.045  12.514
13275W        W79816  12.260  25.148  13.918
13276W        W79817  35.407  40.141  14.865
13277W        W79818  43.352  40.297   3.853
13278W        W79819  25.232   3.603  10.299
13279W        W79820  19.385  34.196  10.690
13280W        W79821  26.032   3.304  13.504
13281W        W79822  20.293   8.653  11.127
13282W        W79823  33.372   2.070   1.412
13283W        W79824  34.676  16.547   4.027
13284W        W79825  43.953  25.294  10.720
13285W        W79826  38.849  19.589   0.217
13286W        W79827   6.345  14.378   4.878
13287W        W79828  16.206   6.131  12.091
13288W        W79829  21.187  30.492  13.581
13289W        W79830  12.261  19.267   0.303
13290W        W79831  18.872  18.293  10.869
13291W        W79832   7.920  38.855  12.437
13292W        W79833  37.400  31.147  14.073
13293W        W79834   7.279  34.689   3.118
13294W        W79835  39.371   1.934  10.127
13295W        W79836  34.659   1.944   2.085
13296W        W79837   9.218  24.384  12.052
13297W        W79838  38.970  30.045   3.885
13298W        W79839  22.347   9.295  11.386
13299W        W79840  21.453  26.390  10.408
13300W        W79841  38.075  37.663   1.460
13301W        W79842   9.374  32.983  12.534
13302W        W79843  10.726  27.672  13.962
13303W        W79844  12.251   4.431  11.577
13304W        W79845  36.089  20.605  11.494
13305W        W79846  30.257  21.756   1.980
13306W        W79847  17.330   2.742  13.437
13307W        W79848  21.211  37.525   3.090
13308W        W79849  20.039   1.400  12.968
13309W        W79850  29.904  30.136   0.756
13310W        W79851  23.155  30.174   1.913
13311W        W79852  36.621  40.506  11.906
13312W        W79853  35.516  31.823   2.856
13313W        W79854   1.901  11.232   0.894
13314W        W79855  28.224  13.300   9.881
13315W        W79856  19.429  23.641  14.248
13316W        W79857  19.144  29.103   4.762
13317W        W79858  10.112  28.692  13.637
13318W        W79859  30.141  38.105  10.781
13319W        W79860  41.156  22.456   3.294
13320W        W79861  26.675  29.816   2.224
13321W        W79862   4.806  43.729   3.135
13322W        W79863   7.091  38.347  12.447
13323W        W79864  24.150  41.589  14.457
13324W        W79865  11.119  12.183  13.099
13325W        W79866  31.359  38.833   2.298
13326W        W79867   2.395  24.634   3.179
13327W        W79868   6.791   9.699  14.938
13328W        W79869   8.968   4.711   0.945
13329W        W79870   5.341   6.401   3.617
13330W        W79871  18.668  13.616   0.363
13331W        W79872   6.180   8.213  11.218
13332W        W79873  28.610  43.802   3.611
13333W        W79874  34.520   7.741  12.483
13334W        W79875   5.033  31.368  14.822
13335W        W79876  43.393  32.389   3.153
13336W        W79877  16.787   2.691  10.681
13337W        W79878  31.234  37.448   0.009
13338W        W79879   9.778  29.622  13.118
13339W        W79880  19.914   9.527   3.200
13340W        W79881  18.467  25.987   3.824
13341W        W79882   7.716  14.371  12.857
13342W        W79883   9.176  38.435  11.963
13343W        W79884  44.416   8.894  14.846
13344W        W79885   3.483  17.499  11.545
13345W        W79886  24.102   9.181   0.493
13346W        W79887   5.309  27.094   5.168
13347W        W79888  36.991  15.559   4.543
13348W        W79889  33.407  32.775   4.550
13349W        W79890  15.062  14.151  10.671
13350W        W79891  44.510  23.651   1.648
13351W        W79892   8.282  19.731   0.299
13352W        W79893  28.162  14.624  10.335
13353W        W79894   1.309  23.806  12.367
13354W        W79895   6.610  41.798   4.511
13355W        W79896  21.104  40.146  13.093
13356W        W79897   6.869  40.953   3.435
13357W        W79898  35.816  13.098  12.969
13358W        W79899  44.145  10.681  13.644
13359W        W79900  27.064   2.986   4.317
13360W        W79901  41.796  20.022   3.784
13361W        W79902  30.771  21.552  11.093
13362W        W79903  44.859   5.131  11.527
13363W        W79904  19.441   9.093  10.824
13364W        W79905  21.597  20.489  12.634
13365W        W79906  25.779  22.877  11.564
13366W        W79907  34.777  13.564   0.699
13367W        W79908  19.622  36.545  14.300
13368W        W79909  12.676  30.116  13.800
13369W        W79910  19.846  19.239   4.659
13370W        W79911   2.888  14.869   0.789
13371W        W79912  40.903  39.542   0.168
13372W        W79913   9.106  30.182  12.966
13373W        W79914  41.808  20.944   3.275
13374W        W79915   8.188  43.703   3.155
13375W        W79916   7.723   7.531  13.874
13376W        W79917  40.376  40.396  14.980
13377W        W79918  25.607  26.299  11.163
13378W        W79919  32.874  44.826   1.497
13379W        W79920  14.666  15.629  13.936
13380W        W79921   2.828   9.149   0.843
13381W        W79922  32.876  28.979  14.163
13382W        W79923  33.847  26.620   0.752
13383W        W79924  29.300  26.181   3.400
13384W        W79925  28.497  25.741   1.446
13385W        W79926  42.040   7.407  14.736
13386W        W79927  12.178  34.045  12.601
13387W        W79928  28.499  43.489  13.399
13388W        W79929   9.902   3.835   0.366
13389W        W79930  25.076  31.951  13.289
13390W        W79931   4.836   1.669   0.698
13391W        W79932  42.319  28.388   4.774
13392W        W79933  20.377  32.387   0.969
13393W        W79934  13.603  30.353   4.998
13394W        W79935  39.108  35.553  14.525
13395W        W79936  21.174  43.275  10.741
13396W        W79937  40.224  33.932   4.327
13397W        W79938   5.977   2.445   3.849
13398W        W79939  42.149  19.731  12.616
13399W        W79940  32.932  28.462   1.210
13400W        W79941  38.486  37.175   0.961
13401W        W79942  12.671  21.211  14.347
13402W        W79943  27.918  44.428   4.754
13403W        W79944  27.999  18.335  14.312
13404W        W79945   4.138  33.896  11.243
13405W        W79946  27.522   3.339   2.420
13406W        W79947  18.644   1.430   4.563
13407W        W79948   2.793  32.767  13.282
13408W        W79949  27.689  34.105  12.730
13409W        W79950  11.052   8.878   4.452
13410W        W79951  23.183   8.414   3.812
13411W        W79952   3.165  14.578  12.122
13412W        W79953  30.605  39.046   4.800
13413W        W79954  33.882   5.364   3.329
13414W        W79955  24.971  38.306   0.675
13415W        W79956  32.381  16.110   3.602
13416W        W79957  37.878  12.580  12.928
13417W        W79958  17.497   7.537  11.150
13418W        W79959  43.286  38.283   1.119
13419W        W79960   6.484  40.833  11.656
13420W        W79961  16.115  15.577   4.050
13421W        W79962  24.548  26.667  10.727
13422W        W79963  17.028  23.787   1.396
13423W        W79964  39.438  30.497  14.778
13424W        W79965  29.926   4.883   4.208
13425W        W79966  33.091   9.456   3.651
13426W        W79967  25.985  20.971   4.135
13427W        W79968  16.075   2.883  11.847
13428W        W79969  13.310  19.026  11.073
13429W        W79970   1.769   7.333  14.256
13430W        W79971  34.833   1.477   0.232
13431W        W79972  21.516   4.782  13.971
13432W        W79973  41.962  41.418   2.732
13433W        W79974   5.663  27.636  13.821
13434W        W79975  34.279   5.008  10.861
13435W        W79976  36.089  33.782  13.029
13436W        W79977   9.200  24.646   0.676
13437W        W79978  34.934  15.317   1.474
13438W        W79979  18.267  35.467  11.294
13439W        W79980  40.852   8.822  12.892
13440W        W79981   9.629  35.062  10.808
13441W        W79982   4.417   5.752   2.325
13442W        W79983  26.115  12.091   3.724
13443W        W79984  22.071  22.980   1.591
13444W        W79985  39.262  22.389  12.556
13445W        W79986  35.460  41.373   4.789
13446W        W79987  31.677   9.843  10.730
13447W        W79988   5.289  39.988  10.165
13448W        W79989   2.471   6.270  14.745
13449W        W79990  25.147   2.262  11.591
13450W        W79991  43.994  44.687   3.278
13451W        W79992  23.885  31.545  11.512
13452W        W79993  23.402  30.021  11.048
13453W        W79994  44.919  32.842  12.906
13454W        W79995  12.675   5.968  13.929
13455W        W79996  25.064  21.314   3.317
13456W        W79997   1.741  33.123   1.741
13457W        W79998  36.264   2.422   3.169
13458W        W79999  30.195  36.562   0.209
13459W        W80000   0.370  12.831  14.765
13460W        W80001  12.239  40.351   0.450
13461W        W80002  25.674  40.273   1.380
13462W        W80003  13.495  21.244  13.365
13463W        W80004  29.280  20.538  14.103
13464W        W80005   7.505  43.623   0.417
13465W        W80006   0.338  43.454   2.790
13466W        W80007  43.194  15.361   0.095
13467W        W80008  36.113  27.432   2.889
13468W        W80009  18.331  40.972  11.472
13469W        W80010   4.443  40.652   0.847
13470W        W80011   9.640  27.505   0.790
13471W        W80012  23.532  34.363  11.642
13472W        W80013  30.663   8.764   4.442
13473W        W80014  11.689  17.357   4.695
13474W        W80015  19.044  18.694   1.924
13475W        W80016  30.625  34.821   2.781
13476W        W80017  27.395  33.372   1.221
13477W        W80018  34.340  24.590  13.065
13478W        W80019  26.430  20.541   0.029
13479W        W80020  11.204  12.985  11.094
13480W        W80021  10.891  41.811   4.101
13481W        W80022  35.772  28.953  14.028
13482W        W80023  33.535   0.005  14.424
13483W        W80024   2.929  27.259   3.715
13484W        W80025  42.016  29.691  12.191
13485W        W80026  36.402   2.216   0.401
13486W        W80027  33.067  16.037   1.810
13487W        W80028  39.513  14.207  14.880
13488W        W80029   8.701   6.572  13.089
13489W        W80030  32.573  41.617  12.049
13490W        W80031  11.901   4.861  10.612
13491W        W80032  36.949   3.117   1.279
13492W        W80033  16.869  34.052   0.718
13493W        W80034  42.022  33.834   3.824
13494W        W80035  37.136  44.524   0.806
13495W        W80036  32.201  11.580   4.017
13496W        W80037  26.175  29.406  12.485
13497W        W80038   7.023  29.396  11.855
13498W        W80039  43.861  33.803  12.987
13499W        W80040   2.942  19.648  11.863
13500W        W80041  25.536  35.008  13.890
13501W        W80042  24.968  29.675   1.832
13502W        W80043  23.048  21.239  13.453
13503W        W80044  22.274   8.340   2.661
13504W        W80045  25.289  23.030   3.561
13505W        W80046  31.662   5.880  14.291
13506W        W80047  19.953  33.045  13.974
13507W        W80048  20.698  34.879  12.918
13508W        W80049  20.980  37.462  13.239
13509W        W80050  30.668  17.044  13.387
13510W        W80051   9.211   8.781  10.818
13511W        W80052  11.460  27.165  11.203
13512W        W80053   1.762  26.712   1.469
13513W        W80054  22.658  28.435   4.261
13514W        W80055  28.591   2.751  11.962
13515W        W80056  21.943  40.770  10.731
13516W        W80057  16.272  17.601   3.280
13517W        W80058  10.184  24.636   4.674
13518W        W80059   8.415  17.570   1.318
13519W        W80060  38.413   2.714   0.322
13520W        W80061  21.232  25.980  11.591
13521W        W80062  44.340   0.397   0.421
13522W        W80063  41.510   3.746   5.002
13523W        W80064  13.806  23.838  14.557
13524W        W80065  22.280  20.799   0.272
13525W        W80066  31.229  10.808  11.013
13526W        W80067  40.387  42.419  14.838
13527W        W80068  36.460  34.878   4.198
13528W        W80069  32.015  42.783   4.081
13529W        W80070   0.449  34.891  13.624
13530W        W80071   4.651   6.826  14.964
13531W        W80072  39.075   9.105  11.267
13532W        W80073  12.427  34.554  14.795
13533W        W80074  38.688  44.651  12.043
13534W        W80075   9.395  22.506  12.048
13535W        W80076   1.293  23.047  14.296
13536W        W80077  29.417   0.832  12.613
13537W        W80078   7.218  44.911  14.777
13538W        W80079  20.285  34.907   3.017
13539W        W80080  37.859  18.626  11.304
13540W        W80081  24.696  41.665   5.122
13541W        W80082  11.868  17.686  14.935
13542W        W80083   9.744  34.143  10.788
13543W        W80084  41.711  29.057  11.641
13544W        W80085  22.649  20.428   0.294
13545W        W80086  11.679  44.368  10.275
13546W        W80087  32.400  13.420   1.847
13547W        W80088  13.409  20.158   4.851
13548W        W80089   0.490   0.211  14.520
13549W        W80090  40.859  23.773   0.577
13550W        W80091  28.464  10.752  12.054
13551W        W80092  30.071   4.899   1.962
13552W        W80093   2.567  27.034   1.461
13553W        W80094  34.789   3.248   0.079
13554W        W80095   1.670   6.245   4.563
13555W        W80096  18.241  34.181  14.464
13556W        W80097  19.107  22.068   3.238
13557W        W80098   0.445  15.689  13.931
13558W        W80099  38.869  17.152  10.203
13559W        W80100  23.191  34.105   3.189
13560W        W80101  41.826  44.780   2.493
13561W        W80102  32.398  31.863   1.816
13562W        W80103  26.235  37.591  13.884
13563W        W80104  19.199   2.019   1.905
13564W        W80105  41.536  12.599  11.428
13565W        W80106  30.649  25.163  11.131
13566W        W80107  34.605  13.297   2.369
13567W        W80108  41.322  27.608   0.366
13568W        W80109  40.710  23.615   4.098
13569W        W80110  11.168   7.215  11.421
13570W        W80111  26.551  24.502   1.882
13571W        W80112  38.444  33.025  10.829
13572W        W80113  16.715  26.951  13.971
13573W        W80114  33.131  25.191   2.462
13574W        W80115  19.521  11.239   0.154
13575W        W80116   5.841   5.530  10.250
13576W        W80117  17.061  41.743   3.858
13577W        W80118   5.474  20.470   3.725
13578W        W80119  44.800  26.743  14.465
13579W        W80120  25.685  14.685   0.385
13580W        W80121  21.423  11.546   4.228
13581W        W80122  28.101  13.394   3.647
13582W        W80123  16.728  11.600  11.970
13583W        W80124  33.859  29.151  11.273
13584W        W80125  11.115  30.488  11.555
13585W        W80126  40.308   4.209  13.954
13586W        W80127  25.183  11.827  11.699
13587W        W80128  40.481  32.483  11.933
13588W        W80129  17.012  20.614   3.707
13589W        W80130   6.642   2.731   2.725
13590W        W80131  12.709  24.151   2.597
13591W        W80132   4.769  24.283   2.616
13592W        W80133   8.951  23.623  13.337
13593W        W80134  28.705  44.778  12.433
13594W        W80135  29.965   3.070   1.545
13595W        W80136  38.998  39.170   3.196
13596W        W80137  42.322   0.853  12.565
13597W        W80138  31.141  19.733   0.332
13598W        W80139   1.274  10.897  14.933
13599W        W80140  34.833  28.891  10.940
13600W        W80141  39.439  15.708  10.452
13601W        W80142   2.030  36.384  11.666
13602W        W80143   4.131  23.873   5.005
13603W        W80144  43.631  32.833   3.970
13604W        W80145  36.963  17.096   4.715
13605W        W80146  28.874  13.278  14.919
13606W        W80147  41.886  10.595  14.321
13607W        W80148  29.944   2.940   2.055
13608W        W80149  11.605  39.484   0.860
13609W        W80150   3.324   3.431   1.983
13610W        W80151   7.656  22.084   0.114
13611W        W80152  14.129  44.242   1.337
13612W        W80153  30.581  16.584  10.732
13613W        W80154   7.206  24.190   0.907
13614W        W80155   7.667  12.832  12.041
13615W        W80156   9.924  24.378  12.571
13616W        W80157   2.752  29.154  12.485
13617W        W80158   2.268  16.206  14.657
13618W        W80159  12.271  28.213  12.507
13619W        W80160  24.190  33.650   0.296
13620W        W80161   3.296   9.723   4.360
13621W        W80162  40.745   6.751  13.992
13622W        W80163  31.391  26.586  10.676
13623W        W80164   5.245  13.050   1.922
13624W        W80165  35.929   6.247  11.622
13625W        W80166  32.902  28.722   0.048
13626W        W80167   4.868  35.047  13.135
13627W        W80168  23.438  38.989  14.237
13628W        W80169  39.921  36.917   0.854
13629W        W80170   6.625  34.101   3.221
13630W        W80171   5.382  14.350   4.511
13631W        W80172  22.592  29.482   1.818
13632W        W80173  16.698  30.858   1.856
13633W        W80174  19.695   0.973  12.482
13634W        W80175   3.214  41.543   4.236
13635W        W80176   7.206   4.817  12.643
13636W        W80177  34.264  27.334  11.544
13637W        W80178   3.028  32.358   3.076
13638W        W80179  43.968  20.948   1.854
13639W        W80180  36.440  14.559   1.858
13640W        W80181  26.217  42.505   1.341
13641W        W80182  33.749  12.921   4.965
13642W        W80183  24.283  18.023  13.463
13643W        W80184  30.194  34.865  13.448
13644W        W80185  28.180   3.209  11.159
13645W        W80186  27.872   2.618  11.939
13646W        W80187  36.704  30.110   3.594
13647W        W80188   7.036   9.890   1.472
13648W        W80189  13.174  38.859  14.086
13649W        W80190  41.912   4.996   3.706
13650W        W80191  23.711  28.222   4.297
13651W        W80192  38.537  40.564   4.155
13652W        W80193  20.310  23.708   4.440
13653W        W80194  34.685  15.257  12.683
13654W        W80195   0.522  40.884   4.448
13655W        W80196  33.921   7.610   1.524
13656W        W80197   5.882  40.836   1.632
13657W        W80198  15.609   1.615  11.153
13658W        W80199  29.156  19.275  11.866
13659W        W80200  10.845  42.470   4.682
13660W        W80201  41.082  25.549   1.921
13661W        W80202  41.875   6.632  11.549
13662W        W80203  33.890  28.353   3.685
13663W        W80204  25.664   4.215  11.965
13664W        W80205   5.366  42.801   3.355
13665W        W80206  16.996  37.348  13.373
13666W        W80207   3.979   5.590   2.569
13667W        W80208  19.654  22.781   4.071
13668W        W80209  33.992  44.723  14.471
13669W        W80210  13.676  26.936   0.867
13670W        W80211  19.256  24.148   1.411
13671W        W80212  31.031  28.282   4.141
13672W        W80213   6.727  18.731  13.448
13673W        W80214  19.809   5.115  14.845
13674W        W80215  33.115  40.137  13.566
13675W        W80216  35.344  22.971  14.937
13676W        W80217  12.153   3.266   3.246
13677W        W80218  38.176  33.526  13.149
13678W        W80219  24.201  27.962   3.545
13679W        W80220  27.358  30.850  11.953
13680W        W80221  13.058  30.176   2.861
13681W        W80222  32.703   0.831  10.339
13682W        W80223   7.957  30.213  11.942
13683W        W80224   2.264  21.637  10.837
13684W        W80225  19.098  26.661  13.513
13685W        W80226  15.796  41.386   2.181
13686W        W80227   4.360  13.846  11.376
13687W        W80228  27.025  40.677   1.707
13688W        W80229  22.928  17.747  10.704
13689W        W80230  23.541  26.975  13.222
13690W        W80231  19.022   7.373  11.121
13691W        W80232   6.400   8.178  12.670
13692W        W80233  23.106   7.205  12.090
13693W        W80234  20.522  22.469  10.669
13694W        W80235  32.244  43.033  12.878
13695W        W80236  19.743  23.502  12.412
13696W        W80237  31.040  41.735   4.586
13697W        W80238   9.767  12.168  12.650
13698W        W80239  13.164  44.854  10.723
13699W        W80240  11.399  36.627  10.508
13700W        W80241   2.268   6.186  13.043
13701W        W80242   8.802  32.486  14.537
13702W        W80243  14.226  39.735   0.426
13703W        W80244   1.991  26.238  14.907
13704W        W80245  20.026  37.559   1.969
13705W        W80246  43.100  38.471   2.442
13706W        W80247  21.947   9.840  12.982
13707W        W80248  30.765  16.772   9.776
13708W        W80249  33.489  32.536  11.027
13709W        W80250  22.245   5.919   0.239
13710W        W80251  41.222  17.101  10.562
13711W        W80252  13.815   7.716  14.490
13712W        W80253  38.818  17.829   2.274
13713W        W80254  20.729  30.513  13.323
13714W        W80255  21.012  17.102  14.952
13715W        W80256  30.011  28.038   0.401
13716W        W80257  25.664  38.095   4.143
13717W        W80258  13.688  36.992  11.877
13718W        W80259   5.659  19.279  14.954
13719W        W80260  12.183  26.887   2.439
13720W        W80261   8.859   8.391  12.884
13721W        W80262  15.136  29.705   5.481
13722W        W80263  43.507  30.919   0.836
13723W        W80264  22.891  12.824   0.710
13724W        W80265  36.353   3.882  12.084
13725W        W80266  23.795   0.444   3.291
13726W        W80267  41.992  11.061  14.682
13727W        W80268  23.981  21.452   1.455
13728W        W80269  44.005  39.877  10.444
13729W        W80270   6.725  17.834  13.071
13730W        W80271  34.026  42.575   4.583
13731W        W80272  19.053   2.296  12.937
13732W        W80273  16.442   3.289  14.994
13733W        W80274   3.393  16.229   2.570
13734W        W80275  14.542  14.664  14.447
13735W        W80276  28.542  28.408  14.054
13736W        W80277  10.796  38.921  10.685
13737W        W80278  38.900  19.134   1.872
13738W        W80279  37.128   7.956   1.369
13739W        W80280  27.458  24.329   3.500
13740W        W80281  11.712  41.207  11.466
13741W        W80282  33.538  28.040   0.667
13742W        W80283  23.010  18.801  13.361
13743W        W80284  44.261   4.147   3.347
13744W        W80285  32.915   0.431  10.680
13745W        W80286  32.284   0.787   2.815
13746W        W80287   6.733  25.868   2.855
13747W        W80288  36.854  17.171  13.002
13748W        W80289  44.377  17.655  12.028
13749W        W80290   6.745  23.903  13.020
13750W        W80291  14.769   8.781   4.967
13751W        W80292  18.334  33.408  10.675
13752W        W80293  13.753  18.243  14.072
13753W        W80294  29.874  42.356   3.291
13754W        W80295  22.044  35.493   2.735
13755W        W80296   1.677  24.867   0.260
13756W        W80297  42.807  41.306   3.779
13757W        W80298  31.065   6.465  12.824
13758W        W80299  34.014  26.967   2.209
13759W        W80300  39.193  39.959  11.282
13760W        W80301  25.199  24.548   1.251
13761W        W80302  15.128  12.131  12.332
13762W        W80303  40.389  35.410  13.412
13763W        W80304  32.199  28.649  12.571
13764W        W80305  41.057   4.855  11.381
13765W        W80306  17.538   4.912   4.063
13766W        W80307   1.549  27.149   1.228
13767W        W80308  27.661  33.713   2.266
13768W        W80309   4.172  36.820   4.283
13769W        W80310  39.204  43.487  12.660
13770W        W80311  24.589  25.614  10.845
13771W        W80312   2.320  37.638  11.430
13772W        W80313  39.405  29.573  10.679
13773W        W80314  41.984  33.399   1.440
13774W        W80315  37.348  20.695  14.138
13775W        W80316  39.814  39.585   2.111
13776W        W80317  28.658  40.766  11.110
13777W        W80318  44.356  23.653   2.404
13778W        W80319  44.427  25.101  10.775
13779W        W80320  32.413  16.709  13.967
13780W        W80321  35.505  16.244   1.359
13781W        W80322  24.935  37.420  13.436
13782W        W80323  12.836   2.391   2.026
13783W        W80324  43.712  21.536  12.445
13784W        W80325  44.878  37.122   3.956
13785W        W80326   0.720  23.610  14.549
13786W        W80327  21.940   1.493  12.059
13787W        W80328   3.744  11.605   2.096
13788W        W80329   5.172   2.507   0.793
13789W        W80330   2.289  24.251   1.778
13790W        W80331  27.781   7.669   4.971
13791W        W80332  30.507  15.868   4.761
13792W        W80333   5.759  15.213   4.079
13793W        W80334  41.937  17.247   1.399
13794W        W80335  33.115  19.064   3.735
13795W        W80336  20.997  23.144   1.090
13796W        W80337  42.013  21.470  11.228
13797W        W80338  33.820  29.120   5.052
13798W        W80339  44.290  18.299   4.699
13799W        W80340  25.423  35.381  10.635
13800W        W80341  17.540  38.839   1.367
13801W        W80342  43.697  15.833  11.448
13802W        W80343  20.226  12.741   4.533
13803W        W80344   2.723  31.101  11.615
13804W        W80345  37.337  27.057   1.011
13805W        W80346  37.791  23.217   2.686
13806W        W80347  38.921  38.581  14.811
13807W        W80348  10.659  26.590  13.555
13808W        W80349  28.971  40.419  14.034
13809W        W80350   0.229  31.256   0.648
13810W        W80351  33.494   6.489  10.732
13811W        W80352   8.416  26.316   2.518
13812W        W80353  21.297   1.495  11.190
13813W        W80354  36.821  25.399   2.331
13814W        W80355  11.298  29.657  13.609
13815W        W80356  27.615   3.996   4.106
13816W        W80357  15.230  17.034  10.967
13817W        W80358  27.146  36.827   3.368
13818W        W80359  12.671  26.026  12.575
13819W        W80360  38.017   9.652   1.838
13820W        W80361  21.740  37.457   0.456
13821W        W80362  19.396   7.257  12.985
13822W        W80363   7.011   2.499  13.927
13823W        W80364   9.257  41.930   2.117
13824W        W80365  30.941  17.937  10.200
13825W        W80366  37.725   8.696   0.192
13826W        W80367  30.258  34.505  11.670
13827W        W80368  18.241   4.717   2.690
13828W        W80369   8.351  35.262  11.783
13829W        W80370  19.793   7.974  11.452
13830W        W80371   1.737   4.153   3.480
13831W        W80372  19.454  22.189  13.177
13832W        W80373  27.908  24.137  14.014
13833W        W80374  27.509  18.949   1.216
13834W        W80375  39.769  19.331   0.789
13835W        W80376  21.306  28.542  12.104
13836W        W80377  30.047  39.943   2.075
13837W        W80378  14.733  37.205  10.630
13838W        W80379   5.812  24.513  13.753
13839W        W80380  39.939  32.454  12.881
13840W        W80381   2.839  33.366  11.960
13841W        W80382  16.241  40.817  12.007
13842W        W80383   5.186   8.376  13.913
13843W        W80384  26.475   1.517   2.787
13844W        W80385  19.006   5.479  13.427
13845W        W80386  22.192  40.989   2.695
13846W        W80387  39.137  43.709  12.187
13847W        W80388   0.255  14.604  14.758
13848W        W80389  17.143  26.387   1.815
13849W        W80390  16.859  42.286  14.028
13850W        W80391  14.089  22.199   2.273
13851W        W80392  26.009  14.851  12.709
13852W        W80393  17.388   3.771   4.245
13853W        W80394  39.466  40.505  11.986
13854W        W80395   9.596  29.033   2.120
13855W        W80396  29.959   0.398   1.898
13856W        W80397   8.837   4.393  12.980
13857W        W80398  43.842  20.463  13.428
13858W        W80399  20.964  40.505   3.357
13859W        W80400  12.103  22.207   2.187
13860W        W80401   6.371  19.743  11.178
13861W        W80402   1.739   9.639  14.098
13862W        W80403  18.280  36.700  10.728
13863W        W80404   0.002  25.751  10.712
13864W        W80405  22.720  33.710  12.259
13865W        W80406  21.245  39.877  12.021
13866W        W80407  28.690   3.867   4.547
13867W        W80408  42.514  30.216  11.159
13868W        W80409   2.266  10.380  13.540
13869W        W80410  24.646   5.161   3.550
13870W        W80411  36.323   0.725  11.082
13871W        W80412  34.022  14.180   2.782
13872W        W80413  23.039  20.190  10.591
13873W        W80414  39.560  21.606   4.126
13874W        W80415  32.394  17.122  14.851
13875W        W80416  34.498   7.149  11.118
13876W        W80417  29.433  38.881  10.418
13877W        W80418  28.515   9.252  10.615
13878W        W80419  30.691  34.067   4.665
13879W        W80420  24.935  14.533  11.024
13880W        W80421  20.571  40.660   2.998
13881W        W80422  32.516  44.099   4.732
13882W        W80423  10.617  35.843   2.703
13883W        W80424  37.471  32.834  13.976
13884W        W80425  41.578  36.129   3.735
13885W        W80426  31.338  18.987   3.155
13886W        W80427  15.873  13.310   4.998
13887W        W80428  19.885  29.444  12.954
13888W        W80429  13.294  29.656   3.547
13889W        W80430  29.504   8.930   3.634
13890W        W80431  28.226  36.910   2.806
13891W        W80432   4.879  26.650  14.060
13892W        W80433  18.149   2.305   4.833
13893W        W80434  39.881  23.223  12.027
13894W        W80435  38.449  33.506   2.652
13895W        W80436  21.617  39.875  12.929
13896W        W80437  11.136  29.840  14.944
13897W        W80438  41.491  40.467  13.035
13898W        W80439  10.554  21.970  12.671
13899W        W80440  38.952   8.711   2.303
13900W        W80441  43.563  14.698   1.212
13901W        W80442   2.783  10.393   4.494
13902W        W80443  24.418  27.659  12.554
13903W        W80444  12.679  32.543  14.250
13904W        W80445   6.084  10.819  11.498
13905W        W80446  14.898   9.436  11.181
13906W        W80447   3.933  32.286   2.913
13907W        W80448  41.026  36.397   0.306
13908W        W80449  13.748   7.997   3.615
13909W        W80450  44.982  11.644  10.689
13910W        W80451  31.541  19.644   3.190
13911W        W80452  39.398  26.484   1.341
13912W        W80453  35.860   1.667   2.722
13913W        W80454  23.107  15.104  10.808
13914W        W80455  27.117  38.673  14.868
13915W        W80456   2.900   0.272   4.369
13916W        W80457  30.217  11.334   2.156
13917W        W80458   7.674  16.935  11.573
13918W        W80459   9.016  15.667  10.065
13919W        W80460  27.868  23.241   4.170
13920W        W80461   6.296  28.620  10.964
13921W        W80462  20.605  28.051  12.535
13922W        W80463  20.403  30.530  12.899
13923W        W80464  10.859  39.334   4.375
13924W        W80465  44.606  37.244   4.421
13925W        W80466  41.970  10.722   1.426
13926W        W80467  11.561  25.579   1.400
13927W        W80468   0.917  25.228   2.654
13928W        W80469  28.225   5.236  13.359
13929W        W80470  32.634  10.660  12.110
13930W        W80471  28.995  31.468   1.208
13931W        W80472  25.734  12.816  12.834
13932W        W80473  30.674   2.383   1.333
13933W        W80474   5.015  29.988   1.818
13934W        W80475  26.029  42.716  14.272
13935W        W80476   4.594  17.698  12.266
13936W        W80477  42.019  20.578  12.970
13937W        W80478  37.772  39.311   2.778
13938W        W80479  40.954   1.089   0.546
13939W        W80480  20.353  39.206  11.101
13940W        W80481   4.822  44.279  13.918
13941W        W80482   6.337   1.767  13.105
13942W        W80483  43.905  44.040   4.942
13943W        W80484  20.264  24.678   0.288
13944W        W80485  27.299  32.994   0.024
13945W        W80486  44.942   8.075  10.753
13946W        W80487   1.829  41.042  11.516
13947W        W80488  13.576  17.483  14.934
13948W        W80489  10.908  35.281   0.898
13949W        W80490  36.095   8.812  14.023
13950W        W80491  30.830  35.703  11.555
13951W        W80492  33.594  11.232   3.086
13952W        W80493  26.980  42.771   1.766
13953W        W80494   9.129   3.904  11.657
13954W        W80495  42.455   0.466  11.351
13955W        W80496  32.628  26.569   9.918
13956W        W80497  36.761   4.072   3.223
13957W        W80498   7.402  10.423   4.826
13958W        W80499  17.662  43.497   1.737
13959W        W80500  11.407   3.685   0.887
13960W        W80501  23.809   4.393   0.912
13961W        W80502  22.591   9.371  12.581
13962W        W80503   6.882   3.800   3.308
13963W        W80504  26.587   6.341   1.425
13964W        W80505  12.883  44.728   4.839
13965W        W80506  11.239  24.132   4.079
13966W        W80507  17.197  38.915  11.575
13967W        W80508  30.565  23.537  14.970
13968W        W80509  30.870  16.579  12.015
13969W        W80510  27.960  16.880   2.771
13970W        W80511   2.973   0.741  14.226
13971W        W80512  16.656  24.664  13.596
13972W        W80513  17.164  27.164  14.712
13973W        W80514  24.956  10.307  14.279
13974W        W80515  43.891  33.047  13.033
13975W        W80516  39.511  43.202   4.159
13976W        W80517  44.982  24.447   3.292
13977W        W80518  16.115   3.809   2.320
13978W        W80519   2.564  14.841  12.493
13979W        W80520  11.841  33.100  10.577
13980W        W80521   4.309   9.412   4.559
13981W        W80522   2.845   9.689   2.211
13982W        W80523  36.984  37.033  13.033
13983W        W80524  30.616  28.096  11.635
13984W        W80525  37.872  29.413   4.625
13985W        W80526  30.163  29.634   3.004
13986W        W80527  24.819  14.270   3.599
13987W        W80528  33.982  18.062   3.759
13988W        W80529  42.498   3.335   3.709
13989W        W80530  39.806   1.216   1.365
13990W        W80531  27.873  16.303   4.193
13991W        W80532   7.859  10.783   3.170
13992W        W80533  26.519  26.413   4.151
13993W        W80534  27.083  25.760  14.769
13994W        W80535  32.331  33.448   1.245
13995W        W80536  26.159  18.292   0.044
13996W        W80537  15.018  20.027   0.560
13997W        W80538  13.435   3.324  11.566
13998W        W80539   8.377  42.870  10.128
13999W        W80540  10.441  42.781  12.815
14000W        W80541   3.035  30.105   4.589
14001W        W80542  13.196  39.326  13.880
14002W        W80543  39.205   5.169  13.647
14003W        W80544  19.973  21.634   2.442
14004W        W80545  15.307  40.963   4.661
14005W        W80546  37.856  32.798   0.825
14006W        W80547  36.992  24.170   4.680
14007W        W80548  21.120  39.541   4.775
14008W        W80549   0.349  23.595  14.899
14009W        W80550  23.226  22.427  13.977
14010W        W80551  30.228  10.581   1.705
14011W        W80552  34.760  33.296   2.075
14012W        W80553  33.978  21.119   4.449
14013W        W80554   6.583  30.778   0.351
14014W        W80555  32.329   6.986   1.376
14015W        W80556   2.406   5.175   4.970
14016W        W80557  40.450   0.084   4.571
14017W        W80558  44.604   4.124  12.896
14018W        W80559  25.797  33.150  11.620
14019W        W80560  37.111  20.053  11.298
14020W        W80561   6.016  35.966   0.282
14021W        W80562  28.618  38.835  11.473
14022W        W80563  25.617  14.209  11.882
14023W        W80564  22.710   5.877  13.399
14024W        W80565  11.505  25.257   3.848
14025W        W80566  29.536  28.027  12.835
14026W        W80567  38.733   6.744   3.971
14027W        W80568  20.719  26.695  11.916
14028W        W80569  42.975  10.762   3.191
14029W        W80570  32.435   7.869   0.422
14030W        W80571   3.810  31.080   1.777
14031W        W80572  33.562   5.874   0.402
14032W        W80573  15.577  16.656  11.896
14033W        W80574  41.776  43.623  12.395
14034W        W80575  18.752  18.749  11.774
14035W        W80576   4.575  24.051  12.157
14036W        W80577   3.022  21.594  13.973
14037W        W80578  16.962  27.429  12.844
14038W        W80579   5.128  33.357   3.156
14039W        W80580  43.333  38.402  11.500
14040W        W80581  41.713   6.858  14.046
14041W        W80582   6.200  36.067  11.600
14042W        W80583  23.969  43.852   0.800
14043W        W80584   1.000  34.873  11.459
14044W        W80585  41.069  25.455   3.745
14045W        W80586  31.083  42.065  14.607
14046W        W80587  36.813  26.560  11.527
14047W        W80588   3.694   0.125  11.282
14048W        W80589  30.343  33.298   4.043
14049W        W80590   2.695  33.910  14.012
14050W        W80591  37.352  15.377  14.457
14051W        W80592  21.063   1.750   1.190
14052W        W80593  21.337  19.320   0.870
14053W        W80594  15.614  32.703   3.129
14054W        W80595  43.867  34.222   4.303
14055W        W80596  29.926  11.249   5.105
14056W        W80597  35.361  40.084   1.681
14057W        W80598   3.527  29.341   2.355
14058W        W80599  30.002   4.150  11.599
14059W        W80600  14.319  10.308   2.119
14060W        W80601  13.613  28.389  13.341
14061W        W80602   3.862  14.247   0.217
14062W        W80603  33.936  16.145   4.582
14063W        W80604  35.109   5.125  14.399
14064W        W80605  32.830  11.175   0.356
14065W        W80606  35.690  43.220  14.713
14066W        W80607  20.006  34.475   0.958
14067W        W80608   2.812  16.767  12.795
14068W        W80609  31.209  38.910  12.059
14069W        W80610  40.754  23.952  11.406
14070W        W80611  10.200  40.178  11.283
14071W        W80612  22.385   1.583  13.436
14072W        W80613  26.566   1.293   1.458
14073W        W80614  14.604  37.619   3.261
14074W        W80615  21.241  34.654  12.013
14075W        W80616  38.842  40.361  13.947
14076W        W80617   3.023  14.044  14.819
14077W        W80618  27.929  40.537  14.011
14078W        W80619  15.494  10.242  12.885
14079W        W80620   9.042  44.457   1.136
14080W        W80621  25.206   3.990   4.910
14081W        W80622  15.142  39.012   4.642
14082W        W80623  23.564  20.359  14.457
14083W        W80624   9.740  24.854  11.651
14084W        W80625  27.536  31.070  14.503
14085W        W80626  42.391  42.280   3.070
14086W        W80627  23.659   8.719   0.763
14087W        W80628  11.781  41.035   4.545
14088W        W80629  31.108  25.722   0.334
14089W        W80630  15.076  38.636  12.386
14090W        W80631  19.963  41.274   1.329
14091W        W80632  15.140  40.234   0.378
14092W        W80633  15.726  39.931  11.180
14093W        W80634  37.931  20.053  11.986
14094W        W80635  37.310  26.551   1.402
14095W        W80636   4.432   0.191   1.222
14096W        W80637   2.421  31.586   2.121
14097W        W80638  24.965  37.474  10.755
14098W        W80639  28.681  17.069  13.133
14099W        W80640   7.382  14.916  14.039
14100W        W80641  27.577  37.072   4.139
14101W        W80642  33.614  44.948  10.545
14102W        W80643  29.180   0.212  11.558
14103W        W80644  18.638  33.026  13.704
14104W        W80645   1.003   4.800  13.494
14105W        W80646  34.967  34.483  11.367
14106W        W80647  28.157   3.039  12.026
14107W        W80648  23.657   0.317   2.485
14108W        W80649  25.029  38.454   4.638
14109W        W80650  29.587  15.426  13.093
14110W        W80651  15.664   5.296   2.338
14111W        W80652  20.445   3.479  12.447
14112W        W80653  43.813  41.144   0.863
14113W        W80654  39.492  34.101  11.632
14114W        W80655   5.648   4.254  10.982
14115W        W80656  13.634  25.956  11.641
14116W        W80657  24.000  20.094   4.157
14117W        W80658   0.428  30.916  12.186
14118W        W80659  20.321  31.611  10.725
14119W        W80660  20.928  37.249   5.082
14120W        W80661  27.490  22.470   0.763
14121W        W80662  30.834  25.063   0.709
14122W        W80663   6.318  25.725   1.093
14123W        W80664   1.224  19.209  10.669
14124W        W80665  42.795  25.183  12.980
14125W        W80666   5.814  24.053   0.812
14126W        W80667  30.081  15.120   4.643
14127W        W80668   6.719   8.687   3.559
14128W        W80669  14.130  43.776   3.816
14129W        W80670   2.463  40.297  11.512
14130W        W80671  22.004  21.090   4.149
14131W        W80672  31.550  25.096  12.380
14132W        W80673  22.061  22.883  14.905
14133W        W80674   3.814  39.530  11.450
14134W        W80675  32.948  12.067   2.377
14135W        W80676  41.423   4.823  10.410
14136W        W80677   2.549  43.465   4.670
14137W        W80678  44.313  34.519  10.040
14138W        W80679   0.372  21.703  13.410
14139W        W80680  30.738  35.415  12.572
14140W        W80681  28.910  40.729  14.500
14141W        W80682  14.236  34.160  11.540
14142W        W80683  18.697   5.447   1.800
14143W        W80684   0.183  25.635   2.758
14144W        W80685  33.615  33.382   2.745
14145W        W80686   8.405  30.094   1.373
14146W        W80687  39.359   0.787   1.891
14147W        W80688   3.478   8.242  11.743
14148W        W80689  14.202  20.333   0.419
14149W        W80690   7.112   1.499  12.996
14150W        W80691  30.644  26.703   1.309
14151W        W80692  15.494  40.962   1.013
14152W        W80693  36.031  36.393  14.924
14153W        W80694  37.540  15.419   4.091
14154W        W80695   9.004  24.699   2.670
14155W        W80696   8.179  17.726   2.578
14156W        W80697  42.823  21.474   0.419
14157W        W80698   5.980  34.570   4.359
14158W        W80699  14.572  24.882  14.849
14159W        W80700  29.093  21.617   3.257
14160W        W80701  35.465  26.762  12.445
14161W        W80702   1.840   3.772   0.060
14162W        W80703  37.844  11.566  13.018
14163W        W80704   4.888  42.464   1.294
14164W        W80705   4.839  16.108  13.818
14165W        W80706  33.193  11.572   4.771
14166W        W80707  33.016  21.518  11.688
14167W        W80708   3.429  26.457  13.978
14168W        W80709  11.637  39.988   3.172
14169W        W80710  34.447   9.626   2.175
14170W        W80711  23.646  15.126   3.245
14171W        W80712   9.416  29.428   2.384
14172W        W80713  13.045  27.391   4.078
14173W        W80714   9.952  27.611   1.201
14174W        W80715   8.097  30.258  13.102
14175W        W80716  12.847   0.730   0.863
14176W        W80717  44.120  15.553  11.538
14177W        W80718  10.841  10.256  14.392
14178W        W80719   1.917  37.053  11.012
14179W        W80720   9.128  28.782  14.142
14180W        W80721  19.634  28.493   2.493
14181W        W80722  34.430  18.824   4.610
14182W        W80723   5.945  41.803   1.798
14183W        W80724  10.344   8.225  14.127
14184W        W80725  17.779  44.284   4.777
14185W        W80726  42.972  21.534   1.801
14186W        W80727  31.076  38.056   1.547
14187W        W80728  29.535  21.574   1.340
14188W        W80729  18.619  42.716  10.820
14189W        W80730  14.749  44.193   4.525
14190W        W80731  36.634  40.305  14.409
14191W        W80732   1.502   5.819   3.229
14192W        W80733  37.361  32.106   2.769
14193W        W80734  21.031  26.439  14.769
14194W        W80735  41.517   8.747   3.303
14195W        W80736  40.086  23.136  13.434
14196W        W80737  32.806  34.548   0.907
14197W        W80738  26.494  29.048  12.276
14198W        W80739   2.868  43.918  13.371
14199W        W80740  12.305  42.641  13.495
14200W        W80741  26.649  19.396   0.173
14201W        W80742  31.902  42.648   0.487
14202W        W80743  15.309  23.561  11.311
14203W        W80744   5.265   2.367  13.497
14204W        W80745  27.967   2.831   4.744
14205W        W80746   9.897  33.713  11.513
14206W        W80747  23.809  15.434  11.187
14207W        W80748   4.869  28.458   0.333
14208W        W80749  30.019   9.131  14.500
14209W        W80750   6.274   7.346   3.641
14210W        W80751  33.580  11.548  14.012
14211W        W80752  44.343  22.683   1.397
14212W        W80753   1.879  16.370  11.553
14213W        W80754  18.782  25.103   0.358
14214W        W80755  12.351  13.887  12.029
14215W        W80756  36.493  40.852  13.292
14216W        W80757  33.926  32.610   0.440
14217W        W80758  23.106  19.589   0.958
14218W        W80759  29.000   6.428   3.036
14219W        W80760   2.390  44.642  10.368
14220W        W80761  43.607  29.483   1.862
14221W        W80762  18.549  13.198  11.383
14222W        W80763   7.787  32.074  10.176
14223W        W80764  37.631  27.210  14.599
14224W        W80765  35.344  40.555   0.182
14225W        W80766  13.159  24.258  10.836
14226W        W80767   0.496   9.181   0.350
14227W        W80768  12.740  28.254  10.813
14228W        W80769  34.037   0.267  13.533
14229W        W80770   4.438  10.310   2.001
14230W        W80771  36.185  23.196  12.764
14231W        W80772  39.980   2.260   1.293
14232W        W80773   2.871  24.623   3.387
14233W        W80774  33.972  25.583   1.161
14234W        W80775  25.531  10.613  12.999
14235W        W80776  41.621   6.451   2.276
14236W        W80777  42.468  24.499   1.816
14237W        W80778  14.909   1.176  12.217
14238W        W80779   6.774  14.697  14.853
14239W        W80780  35.613  11.173  12.846
14240W        W80781  32.099  13.373   1.015
14241W        W80782   9.358  27.749  14.064
14242W        W80783  40.960  15.880   9.944
14243W        W80784  26.998  38.582   0.378
14244W        W80785  28.558  24.768  11.098
14245W        W80786   2.005   5.878   0.788
14246W        W80787  26.657  19.189   1.157
14247W        W80788  23.998  13.515   3.599
14248W        W80789   7.659   8.923  14.202
14249W        W80790   3.985  24.539   3.722
14250W        W80791  31.073  13.211  14.421
14251W        W80792  30.901  16.196  14.503
14252W        W80793  36.938  42.829  14.110
14253W        W80794   7.514  30.064   1.682
14254W        W80795  13.709  21.095   2.414
14255W        W80796  37.618  14.962   3.816
14256W        W80797  20.519  14.905  14.915
14257W        W80798  44.741  23.697  10.480
14258W        W80799  42.854  15.176   4.578
14259W        W80800   8.573  23.418  11.096
14260W        W80801  33.875   8.925   1.274
14261W        W80802  13.127   7.975  13.317
14262W        W80803  44.008  18.662  10.637
14263W        W80804   4.367  36.919   2.000
14264W        W80805  17.736  41.508  11.112
14265W        W80806  36.087   3.660   1.220
14266W        W80807  27.443  36.564   2.797
14267W        W80808  13.071  27.517  13.435
14268W        W80809  37.142  44.920  10.290
14269W        W80810  33.366  15.673  11.484
14270W        W80811  41.104   3.511   4.657
14271W        W80812   3.768  40.323   2.380
14272W        W80813  10.584   8.650  13.464
14273W        W80814   4.638  33.994  13.756
14274W        W80815  36.639  20.967  12.936
14275W        W80816   5.799  34.353  12.879
14276W        W80817  23.723  27.869   3.322
14277W        W80818  22.001  28.692   1.392
14278W        W80819  13.562  36.539  11.169
14279W        W80820  21.215  13.554  11.703
14280W        W80821   6.318  13.560   9.854
14281W        W80822  44.016  21.894   2.532
14282W        W80823  19.073   4.377  11.075
14283W        W80824  20.291  34.409   2.824
14284W        W80825  42.187   4.467   2.041
14285W        W80826  14.147  22.580  13.141
14286W        W80827   8.298  12.434   0.702
14287W        W80828  33.544  13.993   2.661
14288W        W80829  34.126  40.397  14.592
14289W        W80830  18.625  31.184   3.076
14290W        W80831  44.578  40.572  11.113
14291W        W80832  40.235  10.318   1.077
14292W        W80833  38.794  17.640   0.400
14293W        W80834  35.549  13.407   4.380
14294W        W80835  31.566  40.078   1.340
14295W        W80836  32.577  43.327  13.483
14296W        W80837  39.419   5.866   2.149
14297W        W80838  16.282  35.125   3.794
14298W        W80839  36.940  10.948  14.376
14299W        W80840   3.872   8.256  13.568
14300W        W80841  30.228  15.800  14.579
14301W        W80842  29.761  14.643   3.753
14302W        W80843  20.130   9.892   0.748
14303W        W80844  34.561  29.824   1.621
14304W        W80845   4.278   9.518  11.652
14305W        W80846  24.653  26.220  14.803
14306W        W80847  24.704   0.098   1.243
14307W        W80848  37.798  36.058  11.759
14308W        W80849  19.967   0.412  13.168
14309W        W80850  25.578  22.242   4.204
14310W        W80851  41.683  20.618  12.591
14311W        W80852   9.140  37.123   0.788
14312W        W80853  28.814  25.910   4.122
14313W        W80854  44.536  11.265   2.977
14314W        W80855  28.769  10.451  14.423
14315W        W80856  19.017  35.568  14.354
14316W        W80857   7.629  42.571  10.356
14317W        W80858  40.309   4.179  11.145
14318W        W80859   9.287  32.910   4.183
14319W        W80860  32.980  15.248  13.387
14320W        W80861  24.088  21.572   2.350
14321W        W80862  24.543  24.594   0.502
14322W        W80863  41.295  28.500   0.323
14323W        W80864  38.568  37.300   2.252
14324W        W80865  27.004  14.179   4.672
14325W        W80866  41.281  26.391  12.939
14326W        W80867  32.987   2.917  13.362
14327W        W80868   3.790  28.967  11.439
14328W        W80869  24.537  10.074  13.525
14329W        W80870  21.051   2.250   1.310
14330W        W80871  30.516  15.581  11.864
14331W        W80872   8.605  11.003   4.200
14332W        W80873  26.530  40.253  13.505
14333W        W80874   1.007  10.055   2.701
14334W        W80875   6.969  44.499   0.967
14335W        W80876  19.011  15.890  10.597
14336W        W80877  19.390  43.417   1.844
14337W        W80878   5.263  34.119   2.228
14338W        W80879  33.180  42.317  12.015
14339W        W80880   7.948  37.674   0.507
14340W        W80881  31.012  23.683  14.352
14341W        W80882  24.442  28.629  14.926
14342W        W80883   1.886   0.776  12.553
14343W        W80884  17.634   2.752  11.736
14344W        W80885  42.528  41.800   3.861
14345W        W80886   9.661  32.483  14.869
14346W        W80887  11.200  41.092   9.812
14347W        W80888   6.386  26.075   2.014
14348W        W80889  36.053  13.623   4.384
14349W        W80890   6.291  35.011   4.068
14350W        W80891   0.517  43.600   0.211
14351W        W80892  28.209  26.634  11.537
14352W        W80893  38.854  12.229  13.558
14353W        W80894  15.271   3.852  10.330
14354W        W80895  30.652   6.644   1.146
14355W        W80896  13.728  14.293  12.481
14356W        W80897   5.289  41.049  14.360
14357W        W80898  38.595   4.737  11.599
14358W        W80899  42.804   6.804   2.949
14359W        W80900  43.747  20.063   4.775
14360W        W80901  38.325  15.604   3.085
14361W        W80902  27.491  24.809   2.668
14362W        W80903   1.594  30.154   2.310
14363W        W80904  26.097  28.176   4.795
14364W        W80905   4.228  40.541   2.313
14365W        W80906   4.433  30.194   3.198
14366W        W80907  43.396   2.358   4.963
14367W        W80908  25.446  31.382  11.107
14368W        W80909  21.475   0.923   0.401
14369W        W80910  32.284  14.304   4.678
14370W        W80911  33.346   6.303   1.322
14371W        W80912  43.109   2.773   0.442
14372W        W80913  24.801   9.168   2.480
14373W        W80914  10.429   1.896  14.731
14374W        W80915  17.402  32.094  11.001
14375W        W80916  42.670   6.829   4.361
14376W        W80917  35.093  13.056   1.274
14377W        W80918  36.859  21.103   4.673
14378W        W80919  33.301  41.100   4.131
14379W        W80920  28.546  43.968   2.628
14380W        W80921  21.724   2.620   2.965
14381W        W80922  10.188  24.518  11.669
14382W        W80923  11.605  38.008   9.964
14383W        W80924   4.314  12.148   3.610
14384W        W80925   0.159  10.538  13.430
14385W        W80926   1.702  25.738   4.093
14386W        W80927  32.613  25.398  11.120
14387W        W80928  20.084  25.745   2.181
14388W        W80929  39.776  19.622  14.824
14389W        W80930  20.280   3.439   1.947
14390W        W80931   1.980  27.043  13.577
14391W        W80932  27.425  11.404  11.677
14392W        W80933  39.470  28.665  13.683
14393W        W80934  37.455   4.411   0.998
14394W        W80935   2.143   3.739   3.942
14395W        W80936  43.553  37.611   3.375
14396W        W80937  25.678  28.875  13.189
14397W        W80938  18.262  22.742  14.368
14398W        W80939  23.686  25.873   2.880
14399W        W80940  22.892  26.421   5.075
14400W        W80941  39.521  37.339  14.789
14401W        W80942  13.403  25.179   2.608
14402W        W80943   7.145  21.808   3.241
14403W        W80944  25.365  23.471   4.622
14404W        W80945  21.837   6.488   3.153
14405W        W80946   8.362  17.816  13.404
14406W        W80947   5.859   6.720   2.925
14407W        W80948  21.718  29.067  13.477
14408W        W80949  24.636  32.217   2.606
14409W        W80950  41.560  12.852  11.869
14410W        W80951   3.475  15.785  12.185
14411W        W80952  26.268  14.287   2.185
14412W        W80953  37.588  27.651   2.636
14413W        W80954  33.294  41.847  12.872
14414W        W80955   4.869  12.052  11.016
14415W        W80956  39.488  36.990  11.814
14416W        W80957   4.785  18.239  11.718
14417W        W80958  34.374  37.161   0.357
14418W        W80959   8.906   7.457   4.552
14419W        W80960  20.984  18.457  11.399
14420W        W80961   5.691   0.963   1.736
14421W        W80962  11.254  13.869  12.506
14422W        W80963  19.656   5.751   0.196
14423W        W80964  40.021  41.369  14.925
14424W        W80965   8.594   8.838  12.864
14425W        W80966   9.586  35.423  13.435
14426W        W80967  20.290  30.119  12.318
14427W        W80968  20.061  39.317   2.787
14428W        W80969   5.449  15.538   1.365
14429W        W80970   8.931   9.251  10.738
14430W        W80971  37.300  25.114  14.990
14431W        W80972  35.371  43.788  12.092
14432W        W80973  23.984  10.945  11.998
14433W        W80974  26.765  40.521   0.535
14434W        W80975  16.596  33.571  12.474
14435W        W80976  43.751  16.821  12.398
14436W        W80977  11.812  33.132  12.410
14437W        W80978  35.936  41.600   1.724
14438W        W80979  30.615  14.865  14.805
14439W        W80980  43.903  44.219   2.389
14440W        W80981  17.018  33.793   2.839
14441W        W80982  12.668   7.001  11.599
14442W        W80983  41.397  40.934   3.862
14443W        W80984  25.268  12.646  13.058
14444W        W80985   9.463  13.069   0.788
14445W        W80986   6.869   0.839   2.476
14446W        W80987  32.550  19.240   1.767
14447W        W80988  11.341  13.297  10.490
14448W        W80989  31.813  16.693   3.227
14449W        W80990  31.845  25.124  11.518
14450W        W80991  36.256   1.613  10.261
14451W        W80992  40.083  15.609   0.204
14452W        W80993   5.438  34.579  11.493
14453W        W80994  20.601  13.836  13.837
14454W        W80995  25.208  32.442  11.542
14455W        W80996  28.008  30.630   3.763
14456W        W80997   1.862  10.889  12.010
14457W        W80998  27.914  43.621   1.403
14458W        W80999   0.111  30.984  12.930
14459W        W81000   2.245  11.958  14.489
14460W        W81001   0.107  21.335  10.582
14461W        W81002  20.806  11.817  13.817
14462W        W81003   5.111  12.115   3.720
14463W        W81004   5.742  32.526   3.122
14464W        W81005   3.951  20.147   1.756
14465W        W81006  43.020  27.727   2.293
14466W        W81007  19.899   0.375   4.108
14467W        W81008  31.512  10.341  10.679
14468W        W81009  13.659  40.442   4.459
14469W        W81010  37.622  42.831  11.495
14470W        W81011  35.326  13.162  14.896
14471W        W81012   9.550  17.273   2.414
14472W        W81013  24.758  23.049   3.635
14473W        W81014  30.855   4.406   1.916
14474W        W81015  21.605   2.834  12.496
14475W        W81016  33.637  10.447  10.823
14476W        W81017  44.327  34.552   4.320
14477W        W81018  25.447   0.986  14.813
14478W        W81019  24.113  26.340   5.023
14479W        W81020  39.986   7.905  13.557
14480W        W81021  25.609  31.119   4.454
14481W        W81022   3.419   7.350   2.128
14482W        W81023  40.852   6.981  12.458
14483W        W81024  43.871  37.973  12.811
14484W        W81025  10.246  26.142   4.896
14485W        W81026  13.127  32.725   2.351
14486W        W81027  28.855  27.062   1.171
14487W        W81028  19.738  19.023   3.635
14488W        W81029  27.969   2.697   2.290
14489W        W81030  25.282  20.944  14.392
14490W        W81031  23.441   7.765  11.129
14491W        W81032  17.394  18.193   3.584
14492W        W81033   2.598   6.187   0.248
14493W        W81034   0.519  11.383  12.573
14494W        W81035  15.913  11.423   4.138
14495W        W81036  27.898   2.098  10.277
14496W        W81037   2.644  28.479   4.023
14497W        W81038  16.075  11.689   2.352
14498W        W81039  38.044   7.763  11.596
14499W        W81040   8.888   4.401   2.420
14500W        W81041  37.961  12.123  14.574
14501W        W81042  27.783   2.988   3.305
14502W        W81043  24.623  27.174   3.380
14503W        W81044  16.617  34.853   4.749
14504W        W81045  38.133  39.446   0.040
14505W        W81046  13.809  17.180   0.258
14506W        W81047  40.332   3.024  12.062
14507W        W81048  16.339  38.834   4.019
14508W        W81049   1.062  31.888   2.476
14509W        W81050   0.768  43.290  13.085
14510W        W81051   7.242  25.837   2.736
14511W        W81052  43.957  21.808  13.780
14512W        W81053  27.438  42.999  13.506
14513W        W81054  39.979  33.542   1.385
14514W        W81055  26.591  13.653   4.628
14515W        W81056  26.221  11.578  12.116
14516W        W81057  15.396   8.698  11.516
14517W        W81058  20.969  13.730   4.044
14518W        W81059   0.993   9.365  12.676
14519W        W81060  20.680  33.075   1.837
14520W        W81061   3.617  14.645   2.830
14521W        W81062  24.446  42.096  13.595
14522W        W81063   8.395  29.913  12.693
14523W        W81064  14.206  33.749   0.687
14524W        W81065   1.793  39.737  14.557
14525W        W81066   4.255   1.788   3.307
14526W        W81067  42.734   3.124  10.503
14527W        W81068  29.640  34.079   1.757
14528W        W81069  41.065  38.975  11.717
14529W        W81070  12.577  13.580   2.711
14530W        W81071  31.510  12.804   1.375
14531W        W81072  41.203  44.301   1.749
14532W        W81073  30.128  14.093   2.974
14533W        W81074  17.366  44.805  12.958
14534W        W81075  28.244  37.812   2.911
14535W        W81076  44.957  24.230   0.955
14536W        W81077   9.250  17.367  13.109
14537W        W81078  44.153  39.974  14.927
14538W        W81079  31.108  10.927  12.822
14539W        W81080  13.629  24.006  12.946
14540W        W81081  43.424  12.869   5.027
14541W        W81082  29.619  25.252   1.248
14542W        W81083  12.029  13.583   4.386
14543W        W81084  20.408  16.168   2.785
14544W        W81085  40.843  18.538  12.463
14545W        W81086  32.870   8.595  13.590
14546W        W81087  19.513  21.490   3.702
14547W        W81088  14.783  22.179   1.261
14548W        W81089   4.119  25.412  11.657
14549W        W81090  35.563   0.538  12.626
14550W        W81091  37.356  27.472  12.571
14551W        W81092  24.959   2.881  13.202
14552W        W81093  37.515   2.288   5.498
14553W        W81094  14.053  16.936  11.467
14554W        W81095  23.473   3.508   1.832
14555W        W81096  43.170  40.897   4.572
14556W        W81097  35.508  44.983  11.713
14557W        W81098   2.637  17.637   3.727
14558W        W81099  20.613  17.795   1.007
14559W        W81100   3.144  21.614  11.550
14560W        W81101  44.769  23.664   2.084
14561W        W81102  37.786   3.307  12.099
14562W        W81103   4.439  26.493   2.285
14563W        W81104  21.281   5.252   3.236
14564W        W81105  38.357  29.845  14.850
14565W        W81106   0.100  24.449  12.488
14566W        W81107  15.623  22.147   4.840
14567W        W81108   7.442   4.959  14.778
14568W        W81109  28.662  17.767   4.361
14569W        W81110   9.412  33.664  12.861
14570W        W81111  44.365  38.149   2.369
14571W        W81112  32.055  10.237   0.749
14572W        W81113  25.024   4.506  14.441
14573W        W81114  31.803  35.527  13.897
14574W        W81115  27.004  12.266  11.475
14575W        W81116  41.791  41.283   2.245
14576W        W81117   9.646  15.288   0.480
14577W        W81118  21.134  16.695   1.376
14578W        W81119  33.480   9.855   2.900
14579W        W81120  37.764  19.633   3.746
14580W        W81121  22.859  34.863  11.051
14581W        W81122  37.854   1.748  13.129
14582W        W81123  32.163   6.096  11.936
14583W        W81124  24.513  40.599  13.474
14584W        W81125  20.681  25.875  12.580
14585W        W81126  38.010   2.653  14.973
14586W        W81127  32.950  34.092  10.912
14587W        W81128   2.331  16.249   1.059
14588W        W81129  37.467   6.130  10.485
14589W        W81130   4.308   2.474   2.701
14590W        W81131  23.637  43.651  14.991
14591W        W81132   3.230  41.771   4.783
14592W        W81133  40.998  38.625   0.603
14593W        W81134   8.433  10.799  12.469
14594W        W81135  32.912  43.365   0.963
14595W        W81136  41.519  29.517  12.355
14596W        W81137   0.263  23.269   1.204
14597W        W81138   6.427  20.571  12.907
14598W        W81139  25.826  37.238  13.579
14599W        W81140  19.657  41.523   1.855
14600W        W81141  35.476   5.768  14.142
14601W        W81142  39.312  34.098  12.501
14602W        W81143   6.479  34.581   4.285
14603W        W81144  38.126   4.253   0.328
14604W        W81145  41.970   8.831   0.365
14605W        W81146   8.772  29.964   4.264
14606W        W81147  36.529  32.333   4.341
14607W        W81148  33.697  20.610   0.400
14608W        W81149  27.478  34.404   3.384
14609W        W81150  25.909  19.155  10.738
14610W        W81151  35.109  22.074   3.503
14611W        W81152   1.482  11.699   0.904
14612W        W81153   2.685  17.930   4.893
14613W        W81154  10.115  19.067  12.361
14614W        W81155   5.576   7.741  12.544
14615W        W81156   3.789  15.675  13.063
14616W        W81157  42.696   8.684   0.976
14617W        W81158  24.650  26.558   4.171
14618W        W81159  31.966  26.958   1.794
14619W        W81160  42.678  28.800  11.122
14620W        W81161   1.339  29.829   0.462
14621W        W81162  35.449  40.714   3.408
14622W        W81163  17.784  38.942   2.812
14623W        W81164  42.470  18.122   4.441
14624W        W81165  15.105  18.325   3.099
14625W        W81166   7.342  39.017   0.740
14626W        W81167   5.757   3.896   4.072
14627W        W81168  10.923  11.774   1.761
14628W        W81169   6.160  40.495  12.520
14629W        W81170  44.019  39.182  14.444
14630W        W81171  14.113   9.301   3.085
14631W        W81172  16.110  37.392  12.900
14632W        W81173   0.075  38.756   1.286
14633W        W81174   3.393   6.846   1.911
14634W        W81175   2.918   5.943   1.749
14635W        W81176  18.050  27.478  12.970
14636W        W81177  39.000  40.730  10.446
14637W        W81178  37.239  42.024  13.467
14638W        W81179  37.109  10.887   4.225
14639W        W81180  43.954  20.335   2.682
14640W        W81181  29.944  28.279   2.750
14641W        W81182   7.921  19.540  12.942
14642W        W81183  32.538  10.844  12.911
14643W        W81184  29.565  44.911   0.856
14644W        W81185  16.112  31.378   2.321
14645W        W81186   6.731  12.081  12.860
14646W        W81187  29.209  20.669  10.614
14647W        W81188   8.708   2.763   4.303
14648W        W81189   1.809   4.843  11.000
14649W        W81190  20.638  44.830   1.150
14650W        W81191  18.992  31.588  11.209
14651W        W81192   2.960   3.159   2.769
14652W        W81193  30.441  28.226   1.245
14653W        W81194  42.384  14.344   0.518
14654W        W81195  24.309  15.314  13.842
14655W        W81196   6.233  16.275  13.866
14656W        W81197  19.295  31.439  13.435
14657W        W81198   2.729   3.502  14.086
14658W        W81199   5.805  12.694   3.664
14659W        W81200   8.710  30.654  12.024
14660W        W81201  18.091  26.098  11.607
14661W        W81202   6.248  12.792   0.854
14662W        W81203  38.024  41.056   3.209
14663W        W81204   8.291  42.447   2.708
14664W        W81205   9.804  15.540   3.656
14665W        W81206  12.002  21.411   9.843
14666W        W81207  24.254  36.759  13.447
14667W        W81208  31.889   9.824  12.725
14668W        W81209  37.405  24.921  12.133
14669W        W81210  34.779  30.078  11.519
14670W        W81211   6.963  38.938  13.803
14671W        W81212   7.832  40.801   3.562
14672W        W81213   7.533   2.017   0.161
14673W        W81214   0.398  28.545  12.522
14674W        W81215  17.228  34.344  12.012
14675W        W81216   8.170  33.486   4.219
14676W        W81217  23.687  44.825  12.504
14677W        W81218  27.096   9.873  10.990
14678W        W81219   6.548  43.920  11.148
14679W        W81220  17.249  33.369  14.443
14680W        W81221   2.346  26.315   0.711
14681W        W81222   6.828  26.144  14.823
14682W        W81223   3.422   6.132  13.506
14683W        W81224  11.919  20.997   2.110
14684W        W81225   5.503   2.042  12.339
14685W        W81226  31.207  28.980  12.812
14686W        W81227  16.303   0.936   0.017
14687W        W81228   2.321  13.150   1.856
14688W        W81229  37.245   7.233   0.330
14689W        W81230  14.833  14.627  13.952
14690W        W81231  32.499   8.733   3.707
14691W        W81232  41.919  36.648  14.796
14692W        W81233   0.866  34.678  12.129
14693W        W81234  36.581  28.450  14.034
14694W        W81235  12.090  25.100   1.743
14695W        W81236  13.055   9.847  11.171
14696W        W81237  15.728   2.359  11.556
14697W        W81238  33.092   4.764  14.952
14698W        W81239  10.556   0.194  14.466
14699W        W81240  19.034   3.230  11.503
14700W        W81241  10.089   9.478   2.245
14701W        W81242   6.637  19.157  13.765
14702W        W81243  12.724  33.154   3.671
14703W        W81244   9.373  41.025  12.580
14704W        W81245  28.046   1.309  12.154
14705W        W81246  22.806  22.616   4.635
14706W        W81247  18.693  11.829   4.640
14707W        W81248  35.625  15.391  13.565
14708W        W81249  29.972  37.079   4.860
14709W        W81250  18.246  18.709  14.297
14710W        W81251   8.362   0.623  12.419
14711W        W81252   9.130  27.815  10.650
14712W        W81253  44.410  39.494   3.311
14713W        W81254  40.152   4.985   3.649
14714W        W81255  42.226  16.821  14.554
14715W        W81256  11.870  39.480  11.339
14716W        W81257   4.319  30.024   4.784
14717W        W81258   3.482  16.136   3.759
14718W        W81259  35.453  11.597   4.445
14719W        W81260  34.612  18.032  14.817
14720W        W81261  41.027  18.554  11.982
14721W        W81262  20.453  17.126   2.724
14722W        W81263   4.972  21.216   4.771
14723W        W81264  26.507  28.669   0.641
14724W        W81265   2.751  35.913  12.028
14725W        W81266  42.569  42.341  11.958
14726W        W81267  33.786   1.917   0.483
14727W        W81268   0.711   5.683   3.219
14728W        W81269   8.451   2.931  10.916
14729W        W81270  19.283  43.143   0.449
14730W        W81271  25.789  14.233   1.231
14731W        W81272  19.838   1.535  13.840
14732W        W81273   3.882  18.225   4.195
14733W        W81274  18.128  42.240  11.896
14734W        W81275   4.758  22.553   4.342
14735W        W81276   6.043  11.544   0.380
14736W        W81277  16.869  37.091  13.818
14737W        W81278  35.134  14.591  13.458
14738W        W81279  42.431  18.766  11.684
14739W        W81280  40.466   9.472  11.795
14740W        W81281   2.801  15.973   1.979
14741W        W81282  21.233  10.371  13.500
14742W        W81283  15.878  43.992   1.741
14743W        W81284  38.067  32.164  13.510
14744W        W81285   2.383  32.102   2.200
14745W        W81286  27.793  23.813   2.414
14746W        W81287  20.806  40.664  12.460
14747W        W81288  34.493   5.353   5.015
14748W        W81289   8.290  23.305   4.390
14749W        W81290  30.927  23.486  11.613
14750W        W81291  18.042  11.154   0.215
14751W        W81292  24.654  43.426   4.578
14752W        W81293  16.923   1.411  13.450
14753W        W81294  31.749  24.567   0.894
14754W        W81295  25.686   7.904  13.075
14755W        W81296  23.555  24.000   1.762
14756W        W81297  14.288  30.466  12.156
14757W        W81298   3.332  28.566  14.364
14758W        W81299  20.843  22.340  13.585
14759W        W81300   1.009  35.527   2.388
14760W        W81301  44.023  36.019  11.722
14761W        W81302  31.161  43.804  10.875
14762W        W81303   7.138  14.706   1.629
14763W        W81304   5.504  19.241   0.883
14764W        W81305  17.458  30.253   0.806
14765W        W81306   0.198  39.252   2.254
14766W        W81307   4.632  30.655   3.102
14767W        W81308  19.509  19.666   3.960
14768W        W81309   1.506   9.425  12.816
14769W        W81310   8.879   3.223  14.986
14770W        W81311  43.299  23.658   4.189
14771W        W81312  34.941  31.446  10.676
14772W        W81313  29.079  21.109  11.540
14773W        W81314  16.586  27.738  14.517
14774W        W81315  19.485   0.766   1.862
14775W        W81316  16.671   2.333  14.723
14776W        W81317  32.983   8.460  11.894
14777W        W81318  35.373   0.805   4.854
14778W        W81319   0.858   4.392  12.379
14779W        W81320  18.661   0.279   2.306
14780W        W81321   9.846  29.084   3.132
14781W        W81322  41.489   7.940   4.533
14782W        W81323  16.596  31.556  11.612
14783W        W81324   6.559  36.721   3.741
14784W        W81325  29.525  38.120  11.406
14785W        W81326  14.550  39.830  10.753
14786W        W81327  36.446   3.923  11.166
14787W        W81328   4.341  41.241  12.547
14788W        W81329   3.273   7.052   4.661
14789W        W81330  19.698   2.006  12.513
14790W        W81331  27.433   5.699  10.702
14791W        W81332  24.379   4.603  10.372
14792W        W81333  38.255  28.247   0.912
14793W        W81334  25.603  43.346   0.509
14794W        W81335   0.206  37.478   4.151
14795W        W81336  28.926  34.082  12.131
14796W        W81337  11.350  21.633  10.635
14797W        W81338  25.507  38.987   3.191
14798W        W81339  35.213  15.766  11.191
14799W        W81340   0.970  41.520  12.389
14800W        W81341  35.636  36.442  13.458
14801W        W81342  24.367  37.853  14.798
14802W        W81343   2.257  40.636   4.540
14803W        W81344  41.512  11.901  12.133
14804W        W81345  42.826  16.699   4.264
14805W        W81346  16.201  10.297   1.289
14806W        W81347  15.159  42.494   4.063
14807W        W81348  22.080  25.682   1.244
14808W        W81349   7.894  38.586   0.464
14809W        W81350  21.973  22.574  10.970
14810W        W81351  18.796  22.215   4.092
14811W        W81352  15.775  31.044  12.949
14812W        W81353  34.450  16.195   3.719
14813W        W81354  23.808  43.834   2.526
14814W        W81355  30.245   8.162  11.574
14815W        W81356  26.551  19.781   4.922
14816W        W81357  32.963  36.633   3.578
14817W        W81358  29.880  31.013   2.791
14818W        W81359   1.571  36.906   2.405
14819W        W81360   7.875  36.989   4.951
14820W        W81361  15.780  30.386  14.032
14821W        W81362  34.854  12.420  14.271
14822W        W81363  16.612  11.687  14.504
14823W        W81364  44.731   4.237  12.092
14824W        W81365  34.906  13.282  13.992
14825W        W81366  24.117   7.913   2.295
14826W        W81367  26.446  13.559  13.091
14827W        W81368  24.742  44.447   1.894
14828W        W81369   6.105  10.262  10.009
14829W        W81370  43.546  33.345  11.347
14830W        W81371  18.575   1.406  12.085
14831W        W81372  30.998  21.525   0.816
14832W        W81373  25.673  37.493  11.953
14833W        W81374  13.203  24.691  13.505
14834W        W81375  16.801  14.705  14.875
14835W        W81376  17.311  35.414  14.455
14836W        W81377   7.361  14.013  13.951
14837W        W81378   1.745  10.369   0.361
14838W        W81379  26.081   7.248   3.236
14839W        W81380  33.909  38.465   1.733
14840W        W81381  44.748  43.558  11.555
14841W        W81382  13.612  34.960  13.049
14842W        W81383   6.298  19.005  12.844
14843W        W81384  44.366  42.756   4.556
14844W        W81385  12.799   5.835   2.243
14845W        W81386  35.891   5.723  12.371
14846W        W81387  14.845   2.805  13.484
14847W        W81388  21.804   1.001  12.068
14848W        W81389  25.061   7.558  13.357
14849W        W81390  43.866   0.030   4.196
14850W        W81391  10.589  25.466  12.483
14851W        W81392  35.307   6.803   4.165
14852W        W81393  15.938   3.015  14.304
14853W        W81394  36.913  44.261  14.572
14854W        W81395   4.734  40.258   0.253
14855W        W81396  34.134  11.773   9.719
14856W        W81397  10.870  16.621   1.587
14857W        W81398   8.289   2.604   2.250
14858W        W81399   9.951  42.258  14.302
14859W        W81400  44.960  36.378   0.286
14860W        W81401  44.926   1.214   1.239
14861W        W81402  27.212  34.394  13.878
14862W        W81403  22.764  35.372  13.594
14863W        W81404  17.306  43.852   2.414
14864W        W81405  25.555  32.677   1.703
14865W        W81406  44.287  44.634   0.903
14866W        W81407  23.954  28.013  14.728
14867W        W81408  29.015  34.419  10.657
14868W        W81409  44.612  13.937   3.707
14869W        W81410  17.174   9.322  10.310
14870W        W81411  44.252  28.098  14.035
14871W        W81412  20.282  26.033   3.503
14872W        W81413  15.028  17.539   3.810
14873W        W81414  25.011   6.473  12.314
14874W        W81415  27.578  26.759   1.305
14875W        W81416   0.257  30.334   0.399
14876W        W81417  24.758  10.542  13.511
14877W        W81418  40.994  10.572  13.932
14878W        W81419  11.091   9.083   0.279
14879W        W81420  17.772   1.645   1.885
14880W        W81421  35.594  10.847  14.554
14881W        W81422  14.589   4.386  12.082
14882W        W81423  22.600   4.195   9.580
14883W        W81424  35.005  42.738  10.811
14884W        W81425  18.573   4.140   3.703
14885W        W81426  21.171   6.362  11.414
14886W        W81427  17.159  36.404   3.623
14887W        W81428  15.763  10.744   0.951
14888W        W81429  33.385  38.428   1.794
14889W        W81430   2.786  22.713  13.091
14890W        W81431  43.508  25.160   0.026
14891W        W81432  13.598  39.042  11.616
14892W        W81433  24.099  17.519  14.309
14893W        W81434  13.827  32.672   4.122
14894W        W81435  19.709  36.778  11.771
14895W        W81436  20.739  12.071   3.105
14896W        W81437  22.674  22.191   1.776
14897W        W81438  42.117  13.810  12.893
14898W        W81439   1.017  10.794   0.898
14899W        W81440  20.054  30.879   1.018
14900W        W81441  37.111  30.293  13.798
14901W        W81442  15.492  17.208   0.808
14902W        W81443  44.099   6.656   2.524
14903W        W81444  14.858  13.117  10.420
14904W        W81445  43.796   7.069  14.747
14905W        W81446  19.107  28.951  12.216
14906W        W81447  19.462   8.748   1.501
14907W        W81448  26.460  26.725   3.335
14908W        W81449  24.224  34.113   2.856
14909W        W81450   8.216   2.044   1.411
14910W        W81451  25.920  44.809   1.723
14911W        W81452  16.735  26.582  11.525
14912W        W81453  19.089  23.289   2.822
14913W        W81454  11.681  12.708   0.866
14914W        W81455  41.339  37.954   4.885
14915W        W81456  38.662  10.204   4.009
14916W        W81457   3.332  37.849  12.894
14917W        W81458  14.429   3.772   0.620
14918W        W81459   5.704  15.084  14.122
14919W        W81460  26.112  37.467  14.402
14920W        W81461  13.593  16.824   1.881
14921W        W81462   7.794   6.156   2.573
14922W        W81463  37.853  17.736  13.062
14923W        W81464  35.402  21.673   3.372
14924W        W81465  34.594  37.936  11.083
14925W        W81466  33.853  16.412  14.361
14926W        W81467  19.105  14.047   1.658
14927W        W81468  14.799  11.802  12.027
14928W        W81469  25.877  17.648  14.350
14929W        W81470   7.645  22.962   1.875
14930W        W81471  10.737  31.171   1.436
14931W        W81472  34.943  16.596   0.414
14932W        W81473  36.938   6.262  11.490
14933W        W81474   0.787  37.262  11.015
14934W        W81475  38.881  18.004   4.796
14935W        W81476  21.125  39.822   1.798
14936W        W81477  39.456  18.760  12.853
14937W        W81478  13.958  28.574   2.846
14938W        W81479  26.980   8.266  12.781
14939W        W81480  31.084   0.740  13.494
14940W        W81481  41.026  30.579   1.840
14941W        W81482  18.006  20.597  11.007
14942W        W81483   7.272  14.329  14.342
14943W        W81484  12.722  42.795  13.834
14944W        W81485  20.982  43.311  12.077
14945W        W81486  21.727  44.416   3.382
14946W        W81487  42.000  14.608  14.010
14947W        W81488  44.441   8.905   1.234
14948W        W81489  14.072  28.935   4.050
14949W        W81490  36.199  43.748  11.144
14950W        W81491  41.027  15.810   0.533
14951W        W81492  36.982  43.783   0.521
14952W        W81493  38.961   3.637  12.964
14953W        W81494  20.590  11.586  12.503
14954W        W81495  42.227   0.809   3.119
14955W        W81496  16.783  40.443   3.819
14956W        W81497   5.656  32.094   4.283
14957W        W81498  43.708  43.144  11.508
14958W        W81499  35.241  17.704  13.097
14959W        W81500  44.521  41.893  14.439
14960W        W81501  20.046  40.527   3.267
14961W        W81502  38.566   0.895  14.845
14962W        W81503  41.865  34.862   2.630
14963W        W81504  14.261  33.711  12.414
14964W        W81505  34.380  17.185  11.131
14965W        W81506  12.761  24.982   3.712
14966W        W81507  19.658  23.485   0.953
14967W        W81508  19.592  19.486  13.884
14968W        W81509  43.510   5.432  10.943
14969W        W81510   4.194   4.902  14.327
14970W        W81511   7.637   5.856  11.201
14971W        W81512  29.362   8.634  12.416
14972W        W81513   0.560   7.703   1.831
14973W        W81514  38.436  10.316   4.489
14974W        W81515  10.558   0.343   4.745
14975W        W81516  33.928  30.084  14.399
14976W        W81517  32.211  16.427  11.112
14977W        W81518  28.190   7.224   3.305
14978W        W81519   9.816  21.806   2.557
14979W        W81520   4.501   9.730  13.015
14980W        W81521  29.725  37.909   2.806
14981W        W81522  14.016  26.436   9.969
14982W        W81523  12.351  32.210   4.560
14983W        W81524   1.256  36.216   0.767
14984W        W81525  31.400  43.396  12.808
14985W        W81526  15.533  25.762   2.396
14986W        W81527  10.827  18.195  13.379
14987W        W81528   6.080  17.936   1.264
14988W        W81529  19.332  33.495  13.610
14989W        W81530  24.092   2.570   3.935
14990W        W81531  35.471  38.838   1.961
14991W        W81532   8.212  37.890  14.294
14992W        W81533  25.944   8.395   0.836
14993W        W81534  33.519   0.868  13.829
14994W        W81535  11.298  38.302  12.772
14995W        W81536  22.388  44.382   0.670
14996W        W81537  16.194  20.597   2.731
14997W        W81538   0.731  32.407  14.459
14998W        W81539  37.104  15.566  13.844
14999W        W81540  43.826  38.343   0.207
15000W        W81541  21.635  34.299  12.655
15001W        W81542  30.344  37.651  11.962
15002W        W81543  32.182  14.155  14.825
15003W        W81544  30.632  30.496   0.571
15004W        W81545  35.452  10.585   0.439
15005W        W81546  37.469  43.197  14.788
15006W        W81547  26.532  22.947   3.997
15007W        W81548  43.917  12.576  14.323
15008W        W81549  23.458  38.044   3.838
15009W        W81550  35.610  27.531   1.954
15010W        W81551  26.281  40.350   2.302
15011W        W81552  18.590  38.926   1.341
15012W        W81553  19.116  15.146  12.476
15013W        W81554   4.891  14.575  12.104
15014W        W81555  21.229  16.763   2.329
15015W        W81556  35.586  16.249   2.306
15016W        W81557  44.225  42.228  10.622
15017W        W81558   6.428   9.792  13.895
15018W        W81559  41.617  13.960  13.020
15019W        W81560  10.409  21.374   0.300
15020W        W81561   8.806  17.109   0.880
15021W        W81562  10.321  10.247   0.625
15022W        W81563   5.700  17.149  10.611
15023W        W81564   0.264   0.145  11.401
15024W        W81565   7.245  29.015   4.816
15025W        W81566   4.770  11.597  13.698
15026W        W81567   6.883  20.861   3.689
15027W        W81568  12.826  11.778   0.450
15028W        W81569   9.222   1.496   0.907
15029W        W81570  12.203  13.851  10.610
15030W        W81571  27.989  17.706   2.211
15031W        W81572  41.111   5.336   0.886
15032W        W81573  34.846  37.466   1.001
15033W        W81574  34.926  38.905   3.227
15034W        W81575  29.752  27.119   3.244
15035W        W81576  12.047  20.065  13.695
15036W        W81577  22.220   0.046  11.979
15037W        W81578  16.541  40.170  11.590
15038W        W81579  12.357  25.199  13.396
15039W        W81580  21.123  28.520  14.126
15040W        W81581   1.625  28.362  14.451
15041W        W81582  10.170  12.290   2.685
15042W        W81583  25.513  16.684  10.861
15043W        W81584  29.491   5.683   4.494
15044W        W81585   4.469  41.436  10.434
15045W        W81586  30.100   9.115   0.890
15046W        W81587  16.005   1.978  14.557
15047W        W81588  34.081  13.398  13.489
15048W        W81589  13.669  13.840  13.278
15049W        W81590  17.785   9.689   4.556
15050W        W81591   5.637   5.422   5.409
15051W        W81592  36.507   1.163  13.936
15052W        W81593  15.271  20.565  14.844
15053W        W81594   1.997  30.672  11.151
15054W        W81595  32.947  20.732  14.844
15055W        W81596   2.971  23.685  11.058
15056W        W81597   5.807  18.215  10.623
15057W        W81598   1.920  14.873  13.572
15058W        W81599  41.960   1.518   2.605
15059W        W81600  10.184  13.641   4.637
15060W        W81601  16.438  16.852   4.459
15061W        W81602  29.534  23.194  14.018
15062W        W81603  26.968  22.255   1.323
15063W        W81604  19.869   7.975  13.833
15064W        W81605   4.928  21.054   2.342
15065W        W81606  34.626  30.068  14.991
15066W        W81607  30.990   4.363  14.169
15067W        W81608   3.162   5.691  11.166
15068W        W81609  10.964  34.509   1.454
15069W        W81610  17.317  27.497   1.131
15070W        W81611   7.062  25.273  14.806
15071W        W81612  43.038   3.778  12.258
15072W        W81613   7.867  27.336  11.072
15073W        W81614  44.852   4.025   3.566
15074W        W81615  33.409  37.366   0.772
15075W        W81616  40.240  25.240   0.995
15076W        W81617  38.814  20.011   3.494
15077W        W81618  33.206  42.439  13.961
15078W        W81619  25.940  26.915  13.965
15079W        W81620   9.248  35.033   4.680
15080W        W81621   8.130  34.908  13.460
15081W        W81622  20.094  29.663   3.216
15082W        W81623  36.835  33.383  13.631
15083W        W81624  44.526  10.924  12.432
15084W        W81625  18.799  30.476   1.315
15085W        W81626   9.935  16.022  12.164
15086W        W81627  20.159  23.456   1.229
15087W        W81628  31.137  22.514   1.309
15088W        W81629  16.275   9.297   1.222
15089W        W81630   6.074  30.191   0.336
15090W        W81631  43.577  29.610  11.633
15091W        W81632   1.297  30.662   4.216
15092W        W81633   0.431  13.356   1.948
15093W        W81634  16.563  32.339   3.232
15094W        W81635  17.302  11.506   3.953
15095W        W81636  13.547   3.281  10.690
15096W        W81637  22.999  41.345   0.906
15097W        W81638  38.951  43.787  11.668
15098W        W81639  23.347  10.688   2.700
15099W        W81640  42.465   4.512   3.768
15100W        W81641  24.653  17.132  11.566
15101W        W81642  27.199   8.989   3.357
15102W        W81643  21.911  25.818   1.741
15103W        W81644   1.811  26.995  14.057
15104W        W81645  40.090   3.299   3.625
15105W        W81646   6.809  20.099   1.356
15106W        W81647  41.373   1.453   1.396
15107W        W81648   8.940  16.808   1.314
15108W        W81649  42.714  10.250   4.063
15109W        W81650  38.568   7.655  10.835
15110W        W81651  12.599  22.285   0.386
15111W        W81652   7.924  20.982  12.019
15112W        W81653  14.227  42.047   0.906
15113W        W81654  26.620  26.004   1.842
15114W        W81655  25.515   7.438  13.995
15115W        W81656  10.889  13.765  13.427
15116W        W81657  20.709   3.350   3.191
15117W        W81658  35.967  36.957   4.932
15118W        W81659  28.201   1.844   4.402
15119W        W81660  11.696  21.255  13.570
15120W        W81661   5.622  23.708   3.146
15121W        W81662  30.951  25.797  13.204
15122W        W81663  28.643  20.891  12.965
15123W        W81664   7.945  29.115  13.566
15124W        W81665  25.997   6.821  11.697
15125W        W81666  25.477  33.960   3.906
15126W        W81667  10.996  17.389   3.789
15127W        W81668  37.451  42.498   2.430
15128W        W81669  25.499   3.434   3.549
15129W        W81670  17.760   5.893   1.856
15130W        W81671   2.317   0.016   2.411
15131W        W81672  29.730  43.770  12.482
15132W        W81673   5.449  32.958   2.267
15133W        W81674  44.981  21.939   3.347
15134W        W81675  26.086  15.909  10.645
15135W        W81676   8.315  24.454  13.938
15136W        W81677  24.491  36.542  11.686
15137W        W81678  21.200  39.652   1.296
15138W        W81679  36.823  34.442   2.619
15139W        W81680  43.482  13.718  11.445
15140W        W81681  39.811   1.834  10.934
15141W        W81682   0.729   4.214   3.101
15142W        W81683  11.314  17.348  13.588
15143W        W81684  42.995   1.263   2.254
15144W        W81685  34.969   2.327  14.263
15145W        W81686   4.873  34.066  14.692
15146W        W81687  12.704  34.655  13.022
15147W        W81688  15.875  28.523  14.956
15148W        W81689  13.346  20.143  13.637
15149W        W81690  38.532   0.280   2.323
15150W        W81691   8.901  36.332   4.270
15151W        W81692   2.752  24.307   3.005
15152W        W81693  43.952  43.272   2.179
15153W        W81694  36.895  32.997   3.775
15154W        W81695  37.158   5.311  14.505
15155W        W81696  31.127  33.201   0.283
15156W        W81697  33.012   0.792   0.681
15157W        W81698  37.652   5.233  14.755
15158W        W81699  33.905  31.430  12.258
15159W        W81700   8.254  28.501  14.618
15160W        W81701  28.282  14.370   2.765
15161W        W81702  43.924  28.191   2.312
15162W        W81703  32.415   0.810  13.908
15163W        W81704  13.363  16.751  12.632
15164W        W81705  27.748  10.247   3.674
15165W        W81706   5.153  44.794   4.630
15166W        W81707  23.049  14.518   1.939
15167W        W81708   5.143  29.571  14.485
15168W        W81709  10.381  33.829   2.565
15169W        W81710  43.958   6.198  11.469
15170W        W81711  26.644  32.250   1.391
15171W        W81712  34.332  30.431   3.640
15172W        W81713  25.014  27.413  13.500
15173W        W81714  20.603  15.288  10.392
15174W        W81715  10.252  17.606  12.253
15175W        W81716  17.498  31.700   1.220
15176W        W81717  17.525  42.892   4.014
15177W        W81718  38.275   1.184  14.521
15178W        W81719  41.014   7.895   3.168
15179W        W81720  44.831  19.545   2.269
15180W        W81721  34.839  36.885  11.554
15181W        W81722  25.013  35.480   0.928
15182W        W81723  29.074  15.797   0.250
15183W        W81724   8.681  11.900   1.536
15184W        W81725  15.499  34.004   0.418
15185W        W81726  12.125  30.365  11.562
15186W        W81727  42.603  39.604  12.123
15187W        W81728  15.348  35.371   1.768
15188W        W81729  32.003  13.546  11.248
15189W        W81730  31.183  44.526   0.820
15190W        W81731  26.945  26.048  13.832
15191W        W81732  16.356  40.320   2.256
15192W        W81733  44.945  21.291  14.106
15193W        W81734   3.334  22.732  14.994
15194W        W81735  20.249   5.167  10.746
15195W        W81736  20.079  41.025   3.122
15196W        W81737  32.401  25.639   1.801
15197W        W81738  30.726  37.384   0.073
15198W        W81739  24.718  28.439  11.141
15199W        W81740  34.530  16.666  13.905
15200W        W81741  25.345  39.925  10.827
15201W        W81742  42.054  25.530   0.690
15202W        W81743  11.158  26.604  10.479
15203W        W81744  31.025  16.043   0.907
15204W        W81745   8.611  31.084  13.859
15205W        W81746  35.905  26.139   2.972
15206W        W81747  37.855  25.652  12.048
15207W        W81748  15.864  32.908   1.338
15208W        W81749   0.701  15.655   0.278
15209W        W81750   7.788  43.807   2.361
15210W        W81751  23.039  21.276   4.293
15211W        W81752   4.799  21.759   2.207
15212W        W81753  34.020  40.046  12.886
15213W        W81754  26.436  43.017   3.775
15214W        W81755  29.928  31.686   3.311
15215W        W81756   3.905  20.183  10.998
15216W        W81757  29.863  36.846  14.229
15217W        W81758  29.510  43.015   5.029
15218W        W81759  42.226   5.281  14.973
15219W        W81760  39.361  18.118   3.153
15220W        W81761  19.589   7.483   2.279
15221W        W81762  30.128  20.989  11.646
15222W        W81763  18.805   1.752  13.415
15223W        W81764  20.198  34.555  11.570
15224W        W81765  41.945   8.732   4.778
15225W        W81766  24.183  23.520  10.884
15226W        W81767  14.282   9.627  12.546
15227W        W81768  34.809  42.514   0.309
15228W        W81769  44.194  15.325   9.814
15229W        W81770  44.307  35.071   4.251
15230W        W81771  20.940  35.421  11.454
15231W        W81772   0.906  41.844  11.598
15232W        W81773  13.402  21.628  10.991
15233W        W81774  10.407  20.655  11.404
15234W        W81775  29.919  19.155  13.319
15235W        W81776  35.658  42.522  12.525
15236W        W81777  39.066  44.887  10.657
15237W        W81778  16.212  43.317  11.052
15238W        W81779   0.227   3.802   0.379
15239W        W81780  14.754  31.999  11.556
15240W        W81781  26.714  23.724  14.457
15241W        W81782  35.346  13.576   3.034
15242W        W81783  23.273  13.184   1.303
15243W        W81784  33.504  15.586   2.837
15244W        W81785  40.434  16.594   2.573
15245W        W81786  34.025  16.254   0.386
15246W        W81787  12.106  44.787  14.616
15247W        W81788  21.055  25.679  10.637
15248W        W81789   7.813  24.309  10.713
15249W        W81790   3.063   4.414  13.836
15250W        W81791  20.585   5.426   1.459
15251W        W81792  18.138  34.980  13.421
15252W        W81793  23.998   8.882  14.859
15253W        W81794  17.298  43.386   4.207
15254W        W81795  10.749  37.716  11.397
15255W        W81796  14.172  19.143  13.951
15256W        W81797  39.016  30.890  14.878
15257W        W81798  28.052  24.772  12.050
15258W        W81799  38.510   7.110  14.558
15259W        W81800  33.256  12.336   5.484
15260W        W81801  19.459  44.073   4.198
15261W        W81802  29.174   2.704  12.453
15262W        W81803  37.161  10.116  12.406
15263W        W81804   3.687  35.114  10.574
15264W        W81805  37.886  29.693  11.143
15265W        W81806  13.321  31.054  14.579
15266W        W81807  27.120  12.044  12.395
15267W        W81808   7.958   9.783   1.727
15268W        W81809  19.125  29.481   3.211
15269W        W81810  23.670   5.010  13.360
15270W        W81811  18.003  44.365   3.732
15271W        W81812  27.332  16.223  12.289
15272W        W81813  44.863  34.379   1.315
15273W        W81814   6.926  28.509   2.597
15274W        W81815  28.762  11.029   5.026
15275W        W81816  34.223  44.191  11.112
15276W        W81817  37.252  21.319   1.817
15277W        W81818  37.816  27.181   3.611
15278W        W81819  11.908  23.182  13.103
15279W        W81820  12.253  34.962  11.475
15280W        W81821  44.325  22.495   0.918
15281W        W81822  41.046  31.424   0.478
15282W        W81823   5.365  40.540  14.395
15283W        W81824  15.089  28.979   1.955
15284W        W81825  21.780  10.420  10.653
15285W        W81826  28.133  31.922  14.825
15286W        W81827   8.215  42.521   4.147
15287W        W81828   5.946  28.863  12.461
15288W        W81829   7.706  13.013   3.748
15289W        W81830  12.481  24.019   3.591
15290W        W81831  40.404   0.349   2.598
15291W        W81832   9.085  10.830   2.812
15292W        W81833   0.971  42.701   1.031
15293W        W81834  37.012  24.557   0.460
15294W        W81835  40.708   6.490  11.883
15295W        W81836  38.032  29.384   3.701
15296W        W81837  32.664  11.778  12.808
15297W        W81838  42.920  41.892   2.167
15298W        W81839  41.078   5.552   3.901
15299W        W81840  42.510   8.429  12.552
15300W        W81841  13.800   5.290   4.044
15301W        W81842  37.403  42.357  12.137
15302W        W81843  23.520  34.067   2.041
15303W        W81844  41.878  38.221   1.314
15304W        W81845  40.873  10.133   0.058
15305W        W81846  25.684  27.910   4.567
15306W        W81847   3.884  20.136  14.653
15307W        W81848   0.023   6.225   0.979
15308W        W81849  15.190  33.163   0.325
15309W        W81850  21.382  34.710   4.530
15310W        W81851  10.768  29.468  13.432
15311W        W81852  39.457  27.989   1.348
15312W        W81853  37.345  44.293   4.712
15313W        W81854  33.361   7.213  12.119
15314W        W81855   7.175  21.124   2.757
15315W        W81856  17.689   6.283  14.331
15316W        W81857   7.353  12.242   3.329
15317W        W81858  29.854   4.947   2.974
15318W        W81859  29.528  19.640  11.992
15319W        W81860  11.698  29.451   4.428
15320W        W81861  14.230  13.543   2.654
15321W        W81862   3.846  44.485  10.216
15322W        W81863  23.266  17.263   2.293
15323W        W81864  11.097   9.245  12.489
15324W        W81865  23.976  12.343  10.381
15325W        W81866  14.858  41.812   1.945
15326W        W81867  17.883   1.852  14.981
15327W        W81868   5.677   1.473   3.569
15328W        W81869   2.874   9.006   3.781
15329W        W81870   5.625  14.675   0.603
15330W        W81871   8.522  16.337  10.730
15331W        W81872  20.667   1.742  14.948
15332W        W81873  33.659   4.902  11.709
15333W        W81874  34.242  41.257   2.255
15334W        W81875  35.209  23.065  12.447
15335W        W81876   2.364  11.049   4.540
15336W        W81877  17.089   3.505   1.782
15337W        W81878  21.635   4.364  14.332
15338W        W81879  39.889  34.411  11.594
15339W        W81880  27.964   4.764  12.097
15340W        W81881  18.472   2.311  13.855
15341W        W81882  42.736  28.935  11.992
15342W        W81883  24.136  37.924   2.139
15343W        W81884  32.092  28.132  14.624
15344W        W81885  15.370  34.943  13.589
15345W        W81886   7.076  29.272   1.332
15346W        W81887  40.504  41.766   0.825
15347W        W81888   7.357  37.324   4.219
15348W        W81889  36.328   3.510  12.469
15349W        W81890  37.105  34.433  13.851
15350W        W81891  25.672   5.638   1.883
15351W        W81892  29.474  16.545  13.964
15352W        W81893   1.478  30.780  10.931
15353W        W81894  12.228  33.537  11.171
15354W        W81895   0.696  31.805   2.142
15355W        W81896  15.661  42.965   3.646
15356W        W81897  13.161  38.063  10.841
15357W        W81898  22.587  25.113   2.930
15358W        W81899  33.674  27.717   1.928
15359W        W81900   0.659  22.693  12.829
15360W        W81901  33.973  30.033   2.322
15361W        W81902   8.402  25.587  14.752
15362W        W81903  10.755  22.505   4.907
15363W        W81904  15.085  36.601  12.540
15364W        W81905  33.618  22.828  11.148
15365W        W81906  36.857   8.277   4.048
15366W        W81907  15.267  40.031  13.827
15367W        W81908  38.892  44.825   1.163
15368W        W81909   4.165  28.481  13.496
15369W        W81910  28.326   0.273   0.723
15370W        W81911  34.467   1.568  14.362
15371W        W81912  22.569  32.482  10.776
15372W        W81913  21.723  30.397   1.287
15373W        W81914  21.591  35.595  14.521
15374W        W81915  22.131  42.403  12.984
15375W        W81916  33.404  21.482   2.734
15376W        W81917  26.658   5.826  11.939
15377W        W81918  34.643  18.257   0.667
15378W        W81919  38.540  22.569   3.668
15379W        W81920  38.104   6.452   1.749
15380W        W81921  14.772  21.630  11.038
15381W        W81922  21.612  33.173  11.849
15382W        W81923   9.626  27.912  14.482
15383W        W81924  23.651  21.303   2.396
15384W        W81925  29.643  26.666  11.806
15385W        W81926   4.775   1.162   1.195
15386W        W81927  28.593   5.844   1.567
15387W        W81928   6.204  21.371   9.787
15388W        W81929  32.608  27.010   2.197
15389W        W81930   5.935  30.188  12.010
15390W        W81931   6.370   4.941   9.892
15391W        W81932  39.764  27.953   3.767
15392W        W81933   0.953  15.784  14.064
15393W        W81934   5.726  39.354  12.080
15394W        W81935  12.640   7.721   2.340
15395W        W81936  20.016  10.381  14.692
15396W        W81937   8.000   6.702   3.648
15397W        W81938   3.289  32.254   1.239
15398W        W81939  44.290  25.651   4.373
15399W        W81940  44.434  28.430  11.297
15400W        W81941  22.620   5.614   0.447
15401W        W81942  35.645  15.263   4.259
15402W        W81943  26.117  34.157  11.145
15403W        W81944  22.491  35.167  10.778
15404W        W81945  18.665   6.447  11.530
15405W        W81946  37.966  37.347  12.989
15406W        W81947   2.930  28.122   0.026
15407W        W81948  28.053   0.193  13.462
15408W        W81949  37.895  15.194  11.520
15409W        W81950  27.539   9.811  13.005
15410W        W81951  42.003  12.169   2.754
15411W        W81952  22.517  36.922  12.953
15412W        W81953  13.791  22.864  13.988
15413W        W81954  44.527  37.932  14.951
15414W        W81955  32.493  17.155  10.701
15415W        W81956   5.689  37.576  10.567
15416W        W81957  26.180  36.441  11.443
15417W        W81958  20.868   0.535  11.152
15418W        W81959   4.057   9.405  13.722
15419W        W81960   7.013   4.187  14.532
15420W        W81961  27.938  22.182   2.642
15421W        W81962   0.711  12.783   0.698
15422W        W81963   9.884   9.635   1.306
15423W        W81964   1.784   5.980  12.894
15424W        W81965  26.870   7.382   0.914
15425W        W81966  10.423  33.019   3.065
15426W        W81967  43.040  11.267  10.336
15427W        W81968  37.956  27.755   0.462
15428W        W81969  31.609  16.200   4.973
15429W        W81970  41.861  29.098  10.813
15430W        W81971   7.341   0.343  11.218
15431W        W81972   5.342  23.653  13.422
15432W        W81973  31.624  20.683  14.253
15433W        W81974  12.372  32.859  13.712
15434W        W81975  22.468  13.887  11.209
15435W        W81976  44.008  12.074   2.292
15436W        W81977  22.890  31.149  14.013
15437W        W81978  38.408  34.866  10.442
15438W        W81979  17.082  19.498  11.689
15439W        W81980  36.069  36.742  13.486
15440W        W81981  39.426  40.854  12.849
15441W        W81982  13.700  29.635   2.746
15442W        W81983   6.619  14.756   3.362
15443W        W81984  12.856  21.565  14.860
15444W        W81985  24.161  15.622   3.782
15445W        W81986   8.683  43.832   0.730
15446W        W81987  26.290  10.494   2.040
15447W        W81988   3.767  25.037  12.489
15448W        W81989   6.612  40.340   1.737
15449W        W81990  44.175  33.709  14.935
15450W        W81991   0.308  34.120  11.608
15451W        W81992  28.112   4.175  10.889
15452W        W81993  21.769  29.610   2.925
15453W        W81994   3.563  32.881   3.639
15454W        W81995  27.490   1.453   3.204
15455W        W81996  15.761  44.278  11.585
15456W        W81997  18.868  12.875  11.112
15457W        W81998  37.308  33.457  13.378
15458W        W81999  12.411   5.281  14.879
15459W        W82000  12.342  33.452   9.988
15460W        W82001  17.189  34.761   0.788
15461W        W82002  21.725  28.032   4.562
15462W        W82003  16.197  36.889  11.266
15463W        W82004  30.979  25.598  11.929
15464W        W82005  17.360  39.443  11.105
15465W        W82006  28.607  19.621   3.750
15466W        W82007  25.078  12.239   3.691
15467W        W82008  41.315  23.571   1.743
15468W        W82009  37.852  27.022  13.754
15469W        W82010  27.411  20.437  14.166
15470W        W82011  13.480  33.860   1.846
15471W        W82012  35.913  27.179  13.275
15472W        W82013  28.297  15.533  14.062
15473W        W82014  23.319   4.469  13.907
15474W        W82015  35.123  11.837  11.575
15475W        W82016  27.493  40.558  13.309
15476W        W82017  17.983   9.388  14.964
15477W        W82018   5.656  17.693   2.881
15478W        W82019  25.472  23.566   0.838
15479W        W82020   4.640  42.047   1.439
15480W        W82021  30.544   0.911  13.616
15481W        W82022  16.383  14.951   5.388
15482W        W82023  43.584  40.444  14.115
15483W        W82024  18.857  23.990  12.000
15484W        W82025  21.531  39.475   0.633
15485W        W82026  27.590   0.574   1.290
15486W        W82027   8.662  42.926   2.808
15487W        W82028  36.900  34.798  12.117
15488W        W82029   4.867  28.045  14.989
15489W        W82030   6.378  33.406   0.490
15490W        W82031   4.519  22.183  14.443
15491W        W82032  35.830  30.546  12.519
15492W        W82033   4.266  15.595   4.582
15493W        W82034   1.436   7.038   3.961
15494W        W82035  35.457  18.147   1.062
15495W        W82036  28.600  28.794   2.415
15496W        W82037  36.855  18.556  11.170
15497W        W82038  20.052  27.127  10.780
15498W        W82039  20.769  26.880  14.853
15499W        W82040   0.862  44.776  13.625
15500W        W82041  12.153  40.362   4.805
15501W        W82042  11.046  23.338   0.146
15502W        W82043   4.654  26.259  13.823
15503W        W82044  36.579  35.404  11.760
15504W        W82045  26.101  15.372  14.785
15505W        W82046  44.847   4.972   1.713
15506W        W82047  31.721  32.430   4.798
15507W        W82048  38.016  29.784  12.440
15508W        W82049  10.179  44.581  11.515
15509W        W82050   5.737  36.250   4.723
15510W        W82051  19.764  10.336   2.395
15511W        W82052  11.653  41.739  10.578
15512W        W82053  18.318  11.921  10.260
15513W        W82054  30.614  23.036  12.350
15514W        W82055  37.396  10.539  14.826
15515W        W82056  20.111  26.378  13.421
15516W        W82057  37.018  30.036  14.310
15517W        W82058  39.771  15.245   1.917
15518W        W82059  19.701   0.298  10.845
15519W        W82060  37.877  33.941  13.242
15520W        W82061  24.940  20.573  14.520
15521W        W82062   0.786  34.581  13.869
15522W        W82063   4.268  13.111   2.906
15523W        W82064  24.173  17.058   4.625
15524W        W82065  20.521  11.639  11.049
15525W        W82066  31.845  41.814   3.653
15526W        W82067  20.309  22.454   2.431
15527W        W82068  14.705   7.406  12.511
15528W        W82069  12.346  36.129   4.113
15529W        W82070  32.556  22.831   4.544
15530W        W82071  24.491  20.008   4.299
15531W        W82072  35.333  26.145   3.682
15532W        W82073  41.892  29.602  12.690
15533W        W82074  22.429  42.562   2.688
15534W        W82075  28.527  40.364   1.739
15535W        W82076  23.604  29.705   4.623
15536W        W82077  23.771  21.125  14.446
15537W        W82078  10.806  14.213  14.028
15538W        W82079  13.384  36.151   4.101
15539W        W82080  17.665  26.477   1.706
15540W        W82081  41.357  14.281  11.754
15541W        W82082   2.026  41.876   0.079
15542W        W82083  28.138   0.621   1.720
15543W        W82084  26.606   4.297  12.022
15544W        W82085  17.788   1.905  13.580
15545W        W82086  38.973  15.887  13.878
15546W        W82087  22.954   4.611   4.041
15547W        W82088  34.925   5.713   3.142
15548W        W82089  42.835  37.745   0.367
15549W        W82090   0.225  31.633   2.257
15550W        W82091  30.916  43.353  11.648
15551W        W82092  10.633   2.520  13.035
15552W        W82093  17.683  41.839  14.115
15553W        W82094  44.961   3.320   0.281
15554W        W82095  40.992  25.004   1.366
15555W        W82096  34.001   9.887   2.147
15556W        W82097  41.611   3.412  12.116
15557W        W82098  43.547  30.558   0.176
15558W        W82099  30.657  22.497  14.866
15559W        W82100  19.614   3.298  14.646
15560W        W82101   8.165  35.618   0.891
15561W        W82102  25.190  30.211  11.535
15562W        W82103   8.153  41.064   1.854
15563W        W82104  30.092  10.380   4.993
15564W        W82105   7.335  42.885   3.066
15565W        W82106   2.764  35.092   1.720
15566W        W82107  31.506   4.155   4.547
15567W        W82108  28.754  40.891  13.987
15568W        W82109  10.228  12.759  14.010
15569W        W82110  17.203  42.121   4.797
15570W        W82111  10.234  23.030   3.822
15571W        W82112  43.964  14.148  12.154
15572W        W82113   8.612  36.092   3.854
15573W        W82114  40.900  27.569   3.253
15574W        W82115  34.151  31.952  11.433
15575W        W82116  43.903   0.677   0.321
15576W        W82117  22.933  33.402  13.603
15577W        W82118  21.148  25.908   2.195
15578W        W82119  10.850  40.499   3.328
15579W        W82120  11.944   9.642  13.495
15580W        W82121  19.744  39.866   4.475
15581W        W82122   2.232  17.217  12.527
15582W        W82123   0.462  11.165  13.617
15583W        W82124  12.564   7.412   1.178
15584W        W82125  20.118   8.181   4.402
15585W        W82126   7.304   5.053  11.145
15586W        W82127  24.101  40.053  11.442
15587W        W82128  35.846  19.841  12.673
15588W        W82129  40.364  20.356  11.185
15589W        W82130  20.042  23.914  13.258
15590W        W82131  44.377   4.919  10.865
15591W        W82132  28.116  20.750   1.417
15592W        W82133   0.315  44.872  12.291
15593W        W82134  27.968   5.302  12.065
15594W        W82135   5.478  39.853  14.795
15595W        W82136  23.743  31.192   3.072
15596W        W82137  23.701  34.990  12.950
15597W        W82138  43.770  20.126  14.872
15598W        W82139  29.721  20.469   2.620
15599W        W82140  38.714   4.725   3.605
15600W        W82141   8.091  11.259   1.366
15601W        W82142  36.320  26.032  10.725
15602W        W82143  39.881  35.179   2.650
15603W        W82144  15.143  29.892  10.261
15604W        W82145  23.379  27.207   2.833
15605W        W82146  22.296  26.661   1.183
15606W        W82147   9.442  27.141  13.021
15607W        W82148  42.496  24.954   3.194
15608W        W82149  42.376   5.193   0.858
15609W        W82150  15.688  28.862  10.786
15610W        W82151  12.835  14.477   5.055
15611W        W82152   1.199  33.901   3.736
15612W        W82153  18.172  15.405   9.847
15613W        W82154   4.377  14.979  14.225
15614W        W82155  32.103  30.728   4.648
15615W        W82156  44.826   0.232   3.220
15616W        W82157  18.724  29.928   4.879
15617W        W82158  16.770  12.636  14.044
15618W        W82159   9.721  24.938   4.742
15619W        W82160  43.493  24.171   4.086
15620W        W82161  28.656  22.900   2.695
15621W        W82162  35.822  42.447  14.399
15622W        W82163  11.462  14.247   4.713
15623W        W82164   2.173  29.583   1.680
15624W        W82165  27.033  25.550  13.878
15625W        W82166  44.498  18.679   3.973
15626W        W82167   6.503  14.678   3.865
15627W        W82168  27.123  40.459  14.527
15628W        W82169  14.064  11.347  14.096
15629W        W82170  38.224  11.903  11.949
15630W        W82171  33.857   3.259   0.819
15631W        W82172  43.910  26.419   2.651
15632W        W82173  40.673   5.978  11.970
15633W        W82174   6.006  19.711   3.660
15634W        W82175  31.646  43.954   3.539
15635W        W82176  25.704   9.137   3.118
15636W        W82177   2.111  13.587   3.719
15637W        W82178  44.199  26.232  13.907
15638W        W82179  22.758  25.689  10.933
15639W        W82180   9.678  20.793   1.308
15640W        W82181  30.237  35.087   0.305
15641W        W82182  18.185  37.544   3.356
15642W        W82183  13.861  43.905  12.784
15643W        W82184  17.149   6.009  11.952
15644W        W82185  11.164   2.718   2.061
15645W        W82186  43.597  16.565   3.790
15646W        W82187  14.159   5.730   1.873
15647W        W82188  41.107  29.641  11.995
15648W        W82189  10.052  12.521  12.412
15649W        W82190  19.777  34.149   2.338
15650W        W82191  13.713  39.919   0.344
15651W        W82192  39.053  26.133  12.614
15652W        W82193  32.659  35.413   1.460
15653W        W82194   4.209  26.055  14.342
15654W        W82195   8.005  10.190  14.437
15655W        W82196  31.707   1.981   5.424
15656W        W82197  27.198  32.502   3.698
15657W        W82198  36.006  29.856  11.202
15658W        W82199  25.776  29.974  11.505
15659W        W82200  41.519  15.558  13.921
15660W        W82201  44.313  16.122   2.659
15661W        W82202  30.618   9.629   1.123
15662W        W82203  29.412  10.771   3.561
15663W        W82204  34.031  34.637   2.785
15664W        W82205  17.891  38.434   4.917
15665W        W82206  26.206  10.606   4.902
15666W        W82207  28.811   0.294  14.245
15667W        W82208  24.461  31.889  12.037
15668W        W82209  30.164   3.360   3.314
15669W        W82210  15.349   1.290   4.438
15670W        W82211  30.673  31.147  12.132
15671W        W82212  15.282  34.982   2.102
15672W        W82213  27.956  20.332  14.266
15673W        W82214   0.181   3.766   3.884
15674W        W82215   2.845  33.565  12.445
15675W        W82216  23.148  25.734   4.719
15676W        W82217   3.445  37.438   0.456
15677W        W82218   5.452  40.453   4.332
15678W        W82219  44.194  36.957  10.130
15679W        W82220  41.737  10.247   1.458
15680W        W82221  13.576   1.689  11.937
15681W        W82222   9.278  18.558   5.045
15682W        W82223  28.028  41.963   2.676
15683W        W82224   9.096   8.392   3.684
15684W        W82225   2.346  43.680   4.086
15685W        W82226  25.150  19.535  14.465
15686W        W82227  33.011  35.884  10.938
15687W        W82228  11.752  26.594  13.420
15688W        W82229   6.933  16.235   1.364
15689W        W82230  11.167   8.605   0.431
15690W        W82231   1.459  16.665   4.627
15691W        W82232   3.378  44.723  10.628
15692W        W82233  10.330  38.718  13.938
15693W        W82234  15.231  42.838   1.674
15694W        W82235  22.877  15.763   1.260
15695W        W82236   1.912  29.765   1.091
15696W        W82237  19.097  11.200   2.518
15697W        W82238  28.417   6.688  12.154
15698W        W82239   7.156  26.660  12.521
15699W        W82240  22.128  13.181  14.463
15700W        W82241  44.154  21.801  12.582
15701W        W82242  18.511   1.941  13.007
15702W        W82243  14.746  21.910   0.271
15703W        W82244   3.147  12.210  10.660
15704W        W82245  43.875  39.095   1.643
15705W        W82246  21.930  16.845   3.316
15706W        W82247  22.554  28.176   1.941
15707W        W82248  44.764  35.122   2.805
15708W        W82249  37.871  43.635   2.831
15709W        W82250   0.217  30.868  11.254
15710W        W82251  44.480   1.747   1.727
15711W        W82252   3.793   9.947   4.147
15712W        W82253  41.072   9.272  14.091
15713W        W82254  44.450  26.696   1.808
15714W        W82255   9.216  28.217  14.514
15715W        W82256  31.140   1.497  13.042
15716W        W82257  19.184  31.751   2.388
15717W        W82258  22.281  15.758   3.277
15718W        W82259   5.920  16.522  14.809
15719W        W82260  36.611   5.915   0.481
15720W        W82261   1.003  23.008  13.033
15721W        W82262  10.149   4.250  14.036
15722W        W82263  44.793  42.503   3.298
15723W        W82264  36.882  25.205  13.777
15724W        W82265   3.306   9.852   2.909
15725W        W82266  21.222  12.895  14.375
15726W        W82267  27.822  25.113  14.519
15727W        W82268   4.257   9.123  11.309
15728W        W82269  32.116  13.769   0.707
15729W        W82270  37.608   4.028  12.832
15730W        W82271   0.753   8.216   3.636
15731W        W82272  25.004   4.871  13.068
15732W        W82273  24.278  18.024  14.459
15733W        W82274   2.771  37.526   1.822
15734W        W82275  38.946  40.757  12.987
15735W        W82276  36.969   5.512   1.935
15736W        W82277  14.888  37.764  10.409
15737W        W82278  35.345  28.966   3.633
15738W        W82279  38.861  21.338  12.535
15739W        W82280  28.482  39.853  12.421
15740W        W82281   8.990   1.929  11.629
15741W        W82282   8.335  18.626   0.454
15742W        W82283  38.140  30.091   2.393
15743W        W82284  29.615  14.205   4.592
15744W        W82285  10.361  43.342  10.393
15745W        W82286  38.459  20.509  12.571
15746W        W82287   3.571  36.335   2.694
15747W        W82288  37.875  25.119  10.744
15748W        W82289  40.244  22.398  10.663
15749W        W82290  26.999  19.100   1.933
15750W        W82291  37.838  44.089   4.987
15751W        W82292  31.330  33.641  10.727
15752W        W82293   5.378  40.375   0.830
15753W        W82294  26.977  22.036  10.705
15754W        W82295  12.678  14.487   2.671
15755W        W82296  23.734  28.939   2.181
15756W        W82297   3.087  34.438   0.240
15757W        W82298  16.354  16.152   2.249
15758W        W82299  35.474  21.765  11.674
15759W        W82300   6.179  27.081  10.723
15760W        W82301   7.112  31.443  11.084
15761W        W82302  22.876  33.357   1.856
15762W        W82303  36.155   5.301  12.493
15763W        W82304  27.637  21.109   0.854
15764W        W82305  35.962  17.701   3.625
15765W        W82306  25.428  30.856   1.199
15766W        W82307  22.059  42.574  12.090
15767W        W82308  38.730  21.657   3.195
15768W        W82309  36.115  12.176   0.847
15769W        W82310  22.958   1.322   2.450
15770W        W82311  44.742  18.272   0.152
15771W        W82312  20.637  26.268  12.232
15772W        W82313  18.576  35.587   1.275
15773W        W82314  25.557  23.008  14.826
15774W        W82315  22.342  30.174   3.505
15775W        W82316  12.232  44.335   2.627
15776W        W82317  25.792  40.445   2.344
15777W        W82318  28.879   0.932   3.545
15778W        W82319   0.267   9.163   4.573
15779W        W82320  12.132  38.015  13.329
15780W        W82321  18.292  12.655  12.340
15781W        W82322  25.060   6.666  13.072
15782W        W82323  11.701  35.893  14.021
15783W        W82324  26.416  22.738  14.409
15784W        W82325  38.405   8.427   4.078
15785W        W82326  23.567  24.340   2.616
15786W        W82327  10.659  24.980   2.177
15787W        W82328   7.085  37.914  11.617
15788W        W82329  16.072  11.424  10.561
15789W        W82330  33.549  34.089  14.251
15790W        W82331  12.271   1.595  11.940
15791W        W82332  23.914  44.708   1.981
15792W        W82333  30.982  38.176   3.625
15793W        W82334   4.957  33.728  12.879
15794W        W82335  31.213  40.422  13.408
15795W        W82336  41.809  18.187  14.425
15796W        W82337  44.484  28.833  10.909
15797W        W82338  13.107  43.443  12.867
15798W        W82339   4.029  43.544   0.678
15799W        W82340   9.479  43.079   5.096
15800W        W82341  42.117  24.521   4.534
15801W        W82342  16.814  13.693  13.805
15802W        W82343  25.531  26.969   2.918
15803W        W82344  30.106  10.022   4.609
15804W        W82345  40.344  23.447   0.437
15805W        W82346  28.139   0.486  11.517
15806W        W82347  14.308  23.017  12.509
15807W        W82348   1.782  42.420   0.256
15808W        W82349  42.397  20.794   0.825
15809W        W82350  40.702  32.943  12.781
15810W        W82351  11.005  10.253   3.598
15811W        W82352  17.325   5.944   4.534
15812W        W82353  31.971   9.753   4.015
15813W        W82354  12.416  44.234   3.355
15814W        W82355  23.524  32.396  11.812
15815W        W82356  15.853  28.575   1.824
15816W        W82357  19.321   5.397   5.523
15817W        W82358   1.254  24.759  13.384
15818W        W82359  13.633  22.437  14.265
15819W        W82360  21.021   4.757   3.219
15820W        W82361  16.096   9.478  14.910
15821W        W82362  29.532  15.625   2.101
15822W        W82363  43.750  22.694  12.988
15823W        W82364  34.207  38.145   4.695
15824W        W82365  22.586  26.520   0.012
15825W        W82366  37.431   5.461  11.531
15826W        W82367  13.588  37.691   4.098
15827W        W82368   0.022  14.973   1.507
15828W        W82369  44.758   6.088   0.489
15829W        W82370   8.893  20.571   0.259
15830W        W82371  38.380  43.207   1.204
15831W        W82372   5.958   6.693   0.473
15832W        W82373  19.334  42.258  12.465
15833W        W82374  20.699  42.441  14.873
15834W        W82375  16.738  38.567   4.165
15835W        W82376  23.551  40.100   3.767
15836W        W82377   5.570  32.550  10.961
15837W        W82378  30.514  21.120  13.946
15838W        W82379  23.087  29.385   2.353
15839W        W82380  22.071  15.262   3.310
15840W        W82381  11.649  26.761   4.202
15841W        W82382  21.544  25.575  14.476
15842W        W82383   2.354   5.430   2.311
15843W        W82384  40.051  31.390   3.622
15844W        W82385  22.849  38.890  12.935
15845W        W82386  38.527   9.827  13.952
15846W        W82387  31.865  12.975  12.133
15847W        W82388  36.856  33.535   0.052
15848W        W82389  28.227  43.937  14.324
15849W        W82390  28.658  18.110   2.671
15850W        W82391   8.880  19.721   2.932
15851W        W82392  24.429  33.953  11.383
15852W        W82393   9.547  25.762  11.635
15853W        W82394  27.544  43.188   2.329
15854W        W82395  20.593  22.741  11.555
15855W        W82396  22.209  10.812  10.668
15856W        W82397  15.663   4.365  12.875
15857W        W82398  15.472   7.414   4.115
15858W        W82399  24.486   3.254  11.158
15859W        W82400   9.808  26.544  14.905
15860W        W82401  34.865   6.768  14.571
15861W        W82402  35.943  40.809   3.582
15862W        W82403  20.649  35.209   2.769
15863W        W82404  20.587  19.643  14.210
15864W        W82405  39.091   5.772   4.179
15865W        W82406   2.683  22.184  12.131
15866W        W82407  14.544  35.424  11.112
15867W        W82408   3.682  43.710   0.315
15868W        W82409  18.981   2.662   4.606
15869W        W82410   3.703  39.502   1.347
15870W        W82411  43.481  36.027   1.268
15871W        W82412  28.741  19.749   3.276
15872W        W82413  30.933  12.814  12.486
15873W        W82414  43.990  19.578  13.127
15874W        W82415  16.391  28.667  12.122
15875W        W82416  19.387  35.185  13.933
15876W        W82417  29.144  32.136   4.612
15877W        W82418   0.187  35.695   4.161
15878W        W82419   6.709  10.013   1.845
15879W        W82420   0.839  30.455  12.480
15880W        W82421   7.648   1.638  13.395
15881W        W82422  29.779  40.902  13.287
15882W        W82423  44.470  31.597   0.420
15883W        W82424  22.517  18.913  12.606
15884W        W82425  27.662  25.470   1.966
15885W        W82426  44.454  16.865  14.739
15886W        W82427  11.677  31.414   2.440
15887W        W82428  33.931   0.548  13.082
15888W        W82429   7.839  41.622  14.193
15889W        W82430  42.552  27.206   1.802
15890W        W82431   3.081  37.162  13.876
15891W        W82432  21.974  17.894   2.354
15892W        W82433  33.102  27.900  11.229
15893W        W82434   0.124  34.073  11.100
15894W        W82435  26.944  32.191  10.192
15895W        W82436   2.544  24.178   3.451
15896W        W82437  14.922  24.909   2.944
15897W        W82438  31.509  43.398  11.835
15898W        W82439  44.488  29.921  12.186
15899W        W82440  38.143  32.665  13.167
15900W        W82441  19.370  13.111   2.436
15901W        W82442   7.266  34.558  13.841
15902W        W82443  35.062   7.755  14.586
15903W        W82444  24.175  33.538  14.348
15904W        W82445  32.050   9.463   2.268
15905W        W82446  25.269  34.585   3.481
15906W        W82447  36.726   0.569  14.941
15907W        W82448   2.168  29.510  10.770
15908W        W82449   5.453  11.381  10.463
15909W        W82450  13.908  16.101   2.288
15910W        W82451  22.526   9.793  11.186
15911W        W82452  29.892  28.944  12.680
15912W        W82453  31.018  32.644   2.520
15913W        W82454   8.000   2.485  11.944
15914W        W82455  15.207  21.423  10.858
15915W        W82456  25.021   6.763   2.160
15916W        W82457  25.127  41.526  12.058
15917W        W82458  15.253  41.554   4.425
15918W        W82459   6.928  13.905  14.284
15919W        W82460  36.501  32.785   4.008
15920W        W82461   3.254  43.587   4.142
15921W        W82462  11.615  20.693   1.793
15922W        W82463   2.693  29.373  14.510
15923W        W82464  33.046  12.085   5.057
15924W        W82465  17.560  21.490   0.816
15925W        W82466  20.157  22.699  14.023
15926W        W82467  44.491  21.182  11.990
15927W        W82468   2.927   5.576  14.797
15928W        W82469  15.751  36.825   2.888
15929W        W82470  22.580  13.478   2.626
15930W        W82471   2.683  34.888  12.523
15931W        W82472  16.819  35.062  10.455
15932W        W82473  31.603  41.025  14.021
15933W        W82474  30.888  41.147   3.227
15934W        W82475   5.904  20.756  13.822
15935W        W82476  37.535  12.259   3.329
15936W        W82477  38.173  22.790   2.732
15937W        W82478  10.645   5.805  10.500
15938W        W82479  19.993  38.837   1.412
15939W        W82480  22.630   3.066   3.299
15940W        W82481  42.337   6.607   1.107
15941W        W82482  44.003  33.900  13.922
15942W        W82483  14.667  34.712  12.036
15943W        W82484   3.727  24.219   1.998
15944W        W82485   6.446  43.309   3.881
15945W        W82486   7.955  44.204  12.218
15946W        W82487  41.382  38.984  12.146
15947W        W82488   0.526  20.511   3.349
15948W        W82489  37.293  29.080  14.998
15949W        W82490   0.991  29.976   0.835
15950W        W82491   6.058  34.541   4.890
15951W        W82492  21.093  20.378   2.311
15952W        W82493  32.682  11.879   0.692
15953W        W82494  34.595  33.423  14.377
15954W        W82495  34.087   1.515   9.881
15955W        W82496  37.366  30.320   0.968
15956W        W82497  10.062  33.960  14.942
15957W        W82498  35.388  44.627   1.216
15958W        W82499  30.997  40.875  11.570
15959W        W82500   9.773  30.296   0.337
15960W        W82501  31.897   0.639   5.018
15961W        W82502  37.261  37.502  12.966
15962W        W82503  37.275  13.467  13.310
15963W        W82504  35.278  30.728  11.196
15964W        W82505   9.830   0.473   1.494
15965W        W82506  25.868  38.881  14.978
15966W        W82507  26.538  32.078  11.391
15967W        W82508  25.147  21.188  13.932
15968W        W82509  22.062  37.496   0.023
15969W        W82510   2.233  31.935  10.963
15970W        W82511  29.154  35.233   3.092
15971W        W82512  15.519  41.862   2.188
15972W        W82513  18.497  31.671  13.798
15973W        W82514  39.342  43.252  11.900
15974W        W82515  38.811  25.267   1.827
15975W        W82516  31.579  28.943   4.665
15976W        W82517   7.774  24.821  12.906
15977W        W82518  19.098  24.668   3.728
15978W        W82519  44.053  43.000  12.530
15979W        W82520  27.537  44.227  12.573
15980W        W82521  42.992  25.074   2.926
15981W        W82522  15.860  43.732  14.039
15982W        W82523  38.230   7.906  12.068
15983W        W82524  12.662  15.680  13.837
15984W        W82525   9.641  35.800   2.769
15985W        W82526  15.366   2.131   4.137
15986W        W82527   9.083  16.020   1.237
15987W        W82528  30.362   7.286   3.594
15988W        W82529  41.509   2.969   1.298
15989W        W82530  28.609  34.570  14.354
15990W        W82531  24.225  25.171  14.011
15991W        W82532  39.126  38.630   1.361
15992W        W82533   5.827  14.255  10.378
15993W        W82534   5.525  33.250   0.754
15994W        W82535  25.000  28.540   4.599
15995W        W82536  22.267  13.781   2.966
15996W        W82537  44.522  10.904  13.350
15997W        W82538  21.657  11.578   3.769
15998W        W82539  33.965  25.332   2.811
15999W        W82540  24.954   2.330   4.484
16000W        W82541  20.554  37.375   2.790
16001W        W82542  13.680  25.658   3.299
16002W        W82543  38.655  11.696  14.085
16003W        W82544   6.463  36.655   1.793
16004W        W82545   4.469   6.759   1.803
16005W        W82546   1.381  29.316   0.391
16006W        W82547  32.123  25.518   0.222
16007W        W82548   1.674  17.773  12.833
16008W        W82549  26.921   6.658   0.527
16009W        W82550  11.799  20.433  12.967
16010W        W82551  37.166  14.808  11.784
16011W        W82552  20.638  26.780   3.824
16012W        W82553  42.807  16.750   0.247
16013W        W82554   0.026  18.555  10.736
16014W        W82555  44.104  32.643   4.000
16015W        W82556  15.998   0.548  14.264
16016W        W82557  33.989  36.471   3.505
16017W        W82558   9.302   8.925  11.725
16018W        W82559  30.062   6.270   2.647
16019W        W82560  35.079  33.941   3.408
16020W        W82561   2.259  39.346   1.258
16021W        W82562  37.395   4.611  11.858
16022W        W82563  39.094  22.129   3.422
16023W        W82564   5.978  18.235  13.643
16024W        W82565  31.079  36.065  10.663
16025W        W82566   7.683   3.321  10.909
16026W        W82567  17.269  13.686  12.773
16027W        W82568  16.984  32.027  14.831
16028W        W82569  32.048  38.843   0.466
16029W        W82570   5.263  44.352  10.693
16030W        W82571  41.313   0.862  14.645
16031W        W82572  28.487   5.243   0.871
16032W        W82573  10.310   6.755   2.973
16033W        W82574  34.342  41.620   3.695
16034W        W82575  32.649  24.998  14.702
16035W        W82576  22.662  33.182   0.319
16036W        W82577  42.303  27.911  13.386
16037W        W82578   9.892  40.841  14.386
16038W        W82579   5.871  41.737   9.753
16039W        W82580   8.132   5.309  10.704
16040W        W82581  25.674   7.774   3.422
16041W        W82582  30.028  26.325  12.080
16042W        W82583  29.897  11.109  12.471
16043W        W82584   7.760  28.378  11.637
16044W        W82585  20.349  28.971  10.708
16045W        W82586   8.907  27.156  12.157
16046W        W82587   1.908  31.814   1.272
16047W        W82588  42.243  21.718  11.993
16048W        W82589  38.806  11.793  13.010
16049W        W82590  44.126  24.174   0.441
16050W        W82591  14.665  41.489  14.458
16051W        W82592   4.862   4.749   3.576
16052W        W82593   4.998  25.149   3.086
16053W        W82594  39.518  13.545   2.118
16054W        W82595  11.299   6.378  12.853
16055W        W82596   5.198  28.055   1.452
16056W        W82597   8.652  10.401  12.056
16057W        W82598  11.893  36.764   3.597
16058W        W82599  23.831  35.441  13.299
16059W        W82600   7.204  12.083  13.103
16060W        W82601   6.635  37.803   3.789
16061W        W82602  28.959   5.418   3.173
16062W        W82603  43.761  32.587  12.403
16063W        W82604  35.401   9.845   2.772
16064W        W82605   5.583  17.695  14.000
16065W        W82606  42.035  39.952  11.367
16066W        W82607  11.384  26.600   2.698
16067W        W82608  23.023  15.596  10.641
16068W        W82609  37.808  12.670   2.651
16069W        W82610   9.945  31.161   4.230
16070W        W82611   4.758   2.351   0.506
16071W        W82612  27.029  23.669  13.814
16072W        W82613  14.263  23.006  11.112
16073W        W82614  40.284  33.025  14.880
16074W        W82615   5.679  31.594   0.482
16075W        W82616  41.094  25.147  13.909
16076W        W82617  34.858  20.276  13.531
16077W        W82618  10.424   2.848  12.427
16078W        W82619  33.856  37.615  10.839
16079W        W82620  31.415  15.275  14.229
16080W        W82621  40.740  30.947  13.456
16081W        W82622  18.027  43.244  13.510
16082W        W82623   0.608  12.363   0.991
16083W        W82624  13.209  39.443   1.886
16084W        W82625  26.606  16.074   4.537
16085W        W82626  39.274   6.753  13.010
16086W        W82627  39.300  21.879  12.567
16087W        W82628  34.837  38.515  11.989
16088W        W82629  21.095  31.452  11.441
16089W        W82630   0.522  23.735   1.352
16090W        W82631  44.668  29.698  10.930
16091W        W82632  12.324  26.949   3.299
16092W        W82633   4.527  32.484   5.003
16093W        W82634   9.962  20.598   3.662
16094W        W82635  30.438   6.556   0.354
16095W        W82636  34.656  11.835   4.838
16096W        W82637  34.484  12.280   2.267
16097W        W82638  15.121  19.650  14.360
16098W        W82639   1.150  18.439  12.084
16099W        W82640  27.020  14.089   0.927
16100W        W82641  39.116   9.425  11.687
16101W        W82642   5.872  26.895   4.350
16102W        W82643   3.332  39.033  13.416
16103W        W82644  10.263  30.977   2.394
16104W        W82645   2.344  25.300   0.911
16105W        W82646  20.625  33.231  13.495
16106W        W82647   3.080  35.127   9.875
16107W        W82648  13.356  34.847  10.740
16108W        W82649  25.042  19.088   2.006
16109W        W82650   6.985  41.098  11.261
16110W        W82651  41.743  34.022  12.113
16111W        W82652  41.321   6.748  12.420
16112W        W82653  31.086  24.893   1.682
16113W        W82654  28.502  28.129  14.501
16114W        W82655  10.633  15.711  14.333
16115W        W82656   4.902   7.921   1.220
16116W        W82657  11.800  18.644   0.772
16117W        W82658  40.031  12.589   4.481
16118W        W82659  39.381  38.546   2.787
16119W        W82660  33.431   7.330  13.578
16120W        W82661  20.232  26.554   1.115
16121W        W82662  16.701  15.856  14.950
16122W        W82663  36.030  34.490   1.007
16123W        W82664  21.731  28.930   4.340
16124W        W82665  32.212  37.865   2.316
16125W        W82666  19.369  19.486   4.462
16126W        W82667  27.555  37.802  13.567
16127W        W82668   0.663  10.722  13.867
16128W        W82669  41.091   4.792   3.229
16129W        W82670  25.924   0.452  12.465
16130W        W82671  31.358   9.133  14.485
16131W        W82672  25.076  35.851  14.358
16132W        W82673  25.232  25.062  11.248
16133W        W82674  28.107  36.565   1.235
16134W        W82675  18.987  18.570   4.165
16135W        W82676   7.885   9.262   2.726
16136W        W82677   2.233  37.448  10.436
16137W        W82678  13.137  14.796   4.795
16138W        W82679  40.547   1.766  12.137
16139W        W82680  13.425  33.999   2.710
16140W        W82681  27.530  18.039   3.139
16141W        W82682  23.739  38.554   2.651
16142W        W82683  34.153   7.804  14.539
16143W        W82684   3.592   3.304  12.619
16144W        W82685  26.858  24.154  13.896
16145W        W82686   1.007  30.592  11.064
16146W        W82687  13.669  21.045   0.665
16147W        W82688  37.930  15.566   4.513
16148W        W82689  20.623  15.354  11.831
16149W        W82690   2.923  28.083   2.125
16150W        W82691  34.358  24.639   0.438
16151W        W82692  39.049  36.489  13.495
16152W        W82693  10.677  36.433  10.796
16153W        W82694  31.889   7.188  10.299
16154W        W82695   0.218  20.618   2.436
16155W        W82696  26.125  33.151   3.395
16156W        W82697  32.182   7.500  14.935
16157W        W82698  36.332   7.182  10.298
16158W        W82699  26.604  33.995  11.440
16159W        W82700  35.557   2.766  13.944
16160W        W82701  32.858  29.083   3.619
16161W        W82702  14.141  42.046  12.146
16162W        W82703  30.513  13.035  11.133
16163W        W82704  30.643  28.398  10.610
16164W        W82705  32.169  35.501  12.360
16165W        W82706  26.185   1.627   2.389
16166W        W82707  19.289  17.236  13.204
16167W        W82708  11.298   9.381   4.513
16168W        W82709  27.143  26.109   3.649
16169W        W82710  27.464  29.485   4.026
16170W        W82711  12.749  39.334   2.170
16171W        W82712  26.207  18.707   1.783
16172W        W82713  19.054  25.627   2.739
16173W        W82714  17.088  35.542  12.115
16174W        W82715  35.021  12.865   5.091
16175W        W82716  12.590  26.739  10.694
16176W        W82717  42.939  35.489   3.556
16177W        W82718  33.121  18.880  10.789
16178W        W82719  19.279   6.591   1.404
16179W        W82720  25.412  16.716   4.770
16180W        W82721  18.271  27.037   1.952
16181W        W82722  38.408  31.541  13.547
16182W        W82723  27.145   4.985   3.682
16183W        W82724   5.317  14.547  12.837
16184W        W82725  17.387  24.999   0.071
16185W        W82726   3.875  11.915   4.211
16186W        W82727  34.444   0.796   5.311
16187W        W82728  32.252  20.794  10.136
16188W        W82729  43.454  17.124   0.489
16189W        W82730  15.598   4.264   2.235
16190W        W82731  11.149  22.305  11.179
16191W        W82732  21.139  43.684   4.401
16192W        W82733   5.750  14.661  14.597
16193W        W82734  39.980   4.655  14.106
16194W        W82735  16.661  27.929  13.060
16195W        W82736  28.279  34.584  11.184
16196W        W82737  42.534  13.909  12.321
16197W        W82738  26.417  16.871  10.777
16198W        W82739  44.405   3.172  11.472
16199W        W82740  23.171  12.191   1.291
16200W        W82741  26.921  18.688   3.268
16201W        W82742  21.276  13.409   1.823
16202W        W82743  39.911  23.130  12.536
16203W        W82744  40.801  35.435   2.944
16204W        W82745  34.871  20.221  10.904
16205W        W82746  29.863   5.390  11.265
16206W        W82747  19.363  26.231   3.898
16207W        W82748  37.071  30.551   4.152
16208W        W82749  34.648  42.564   1.896
16209W        W82750  40.178  32.440  11.527
16210W        W82751  15.218   0.550  11.429
16211W        W82752   2.365  37.002  10.705
16212W        W82753   3.827   4.607  13.346
16213W        W82754  30.398  33.344  11.729
16214W        W82755   1.847  15.828   1.610
16215W        W82756  27.592  29.413   1.048
16216W        W82757  29.087  33.498   0.205
16217W        W82758   9.504  35.503  12.464
16218W        W82759  37.971  18.511  11.846
16219W        W82760  31.807  32.480  13.825
16220W        W82761  29.554   1.260   0.914
16221W        W82762  32.921  18.074   1.333
16222W        W82763  36.603   2.011   1.800
16223W        W82764   9.499  12.761  11.566
16224W        W82765   6.632   7.691  14.772
16225W        W82766  41.304  26.881   3.722
16226W        W82767  38.975  16.204   0.187
16227W        W82768  20.807  35.007  13.795
16228W        W82769  37.371  40.827   0.903
16229W        W82770  31.574  16.727  10.452
16230W        W82771  19.067  12.717   0.769
16231W        W82772  31.906   5.486   4.117
16232W        W82773  28.439   7.404   1.442
16233W        W82774   7.467  10.479  12.369
16234W        W82775  37.134  14.197   2.736
16235W        W82776  10.662   3.393  13.618
16236W        W82777   2.337  19.578   0.505
16237W        W82778  29.889  32.172  10.625
16238W        W82779   3.453  41.287   0.274
16239W        W82780  21.089  17.583  10.968
16240W        W82781   5.505   6.917   2.561
16241W        W82782  41.543   6.679  13.528
16242W        W82783  21.154   5.240  12.114
16243W        W82784  35.531  28.514   4.844
16244W        W82785  40.790  21.697  11.975
16245W        W82786  30.166   1.235   3.382
16246W        W82787   5.670  11.213   0.068
16247W        W82788  16.290  14.730  14.518
16248W        W82789  30.783  12.577   4.013
16249W        W82790  12.850  29.229  11.157
16250W        W82791  41.481  30.472  14.061
16251W        W82792   1.278   5.719   3.737
16252W        W82793  40.344   0.820  12.591
16253W        W82794  28.116  24.049   3.866
16254W        W82795  33.085  32.496  13.216
16255W        W82796   9.204  12.660  11.161
16256W        W82797   4.716  33.096   4.359
16257W        W82798  27.124  40.200   0.809
16258W        W82799  27.620  13.168  12.208
16259W        W82800   0.537  38.927  11.426
16260W        W82801  27.003  15.376  14.045
16261W        W82802  38.831   2.760   2.254
16262W        W82803  29.855  15.466  10.533
16263W        W82804  13.194  26.038  11.897
16264W        W82805  19.237   2.274   1.458
16265W        W82806  16.991   6.631   3.388
16266W        W82807  18.012  25.786  11.121
16267W        W82808  14.099  31.355   2.187
16268W        W82809  10.356  20.215  14.748
16269W        W82810  25.501  31.361   1.304
16270W        W82811  28.962  17.612   2.818
16271W        W82812  40.710   5.691   2.867
16272W        W82813   9.565  25.402  12.479
16273W        W82814   1.858  20.306   0.794
16274W        W82815  25.188  28.490  12.002
16275W        W82816   1.486  36.413   2.135
16276W        W82817  31.124  11.850  13.899
16277W        W82818  15.268   8.274   1.826
16278W        W82819  11.145   8.234  10.394
16279W        W82820  40.992  18.695   0.458
16280W        W82821  41.802  25.502   1.735
16281W        W82822  15.694  40.261  14.054
16282W        W82823  38.326   2.783   2.102
16283W        W82824  44.881  23.389  14.881
16284W        W82825  19.757   7.399   4.234
16285W        W82826  20.995  17.563  14.030
16286W        W82827  25.296  41.498   0.400
16287W        W82828  33.520  42.296  12.913
16288W        W82829  19.237  14.918   3.665
16289W        W82830   7.268   8.090   1.739
16290W        W82831  10.904  15.140  10.593
16291W        W82832  27.655  31.466   2.059
16292W        W82833   6.378   3.326   5.175
16293W        W82834  21.757  27.004   3.616
16294W        W82835   0.442   5.449   1.234
16295W        W82836  23.487  35.086  12.472
16296W        W82837  19.257  31.884  14.500
16297W        W82838   9.559  44.887   0.252
16298W        W82839  31.078  33.561  13.762
16299W        W82840  38.940  14.409   3.655
16300W        W82841  26.443   3.368  10.885
16301W        W82842  34.332  27.693  14.037
16302W        W82843   6.612  29.557  13.867
16303W        W82844   9.384  34.557   3.773
16304W        W82845  16.124  24.468   3.906
16305W        W82846  40.847   6.035   4.636
16306W        W82847   7.029   1.034  13.892
16307W        W82848  10.059  10.465   1.604
16308W        W82849   1.724  37.559  12.684
16309W        W82850  34.360  16.096   2.776
16310W        W82851  18.847   8.173  11.750
16311W        W82852   2.430  24.207  12.963
16312W        W82853  19.811  15.535  12.202
16313W        W82854  31.104  11.865  11.962
16314W        W82855  39.345  22.761  11.601
16315W        W82856   0.263  33.069  13.388
16316W        W82857  40.220  19.043   3.743
16317W        W82858  16.873  44.224   4.638
16318W        W82859   7.639  33.915   1.427
16319W        W82860  43.476   4.742  10.811
16320W        W82861  14.165   9.875   0.502
16321W        W82862  14.508  14.036  12.573
16322W        W82863   8.292  14.788   3.889
16323W        W82864  30.119  26.829  11.957
16324W        W82865  38.449  31.947   0.824
16325W        W82866  24.604  31.897  13.048
16326W        W82867  16.669  38.749   3.635
16327W        W82868   7.179  25.560   0.226
16328W        W82869  18.175   3.874  14.969
16329W        W82870  16.110  24.900   4.993
16330W        W82871   7.321  35.929  13.078
16331W        W82872  35.914  30.051   1.559
16332W        W82873   2.439  14.514   3.281
16333W        W82874  37.041   7.811  13.948
16334W        W82875  29.656   2.048   2.571
16335W        W82876   7.762  36.344  13.843
16336W        W82877  16.540   3.597  10.685
16337W        W82878  14.684   2.246   2.195
16338W        W82879  27.925  38.450   4.998
16339W        W82880  34.735  13.849  11.669
16340W        W82881  14.496  31.504  11.668
16341W        W82882  25.290  10.260   2.776
16342W        W82883  43.229  18.151  12.518
16343W        W82884   1.029   2.765   1.652
16344W        W82885  22.100   0.958   4.922
16345W        W82886  26.523  42.502   0.916
16346W        W82887   9.027  12.852   2.292
16347W        W82888  31.906  15.893   1.311
16348W        W82889  24.195  28.440  11.193
16349W        W82890  32.983  29.634   1.476
16350W        W82891  10.823  14.145  12.611
16351W        W82892   5.161  15.009  12.978
16352W        W82893  18.285   9.830   4.617
16353W        W82894  25.299  26.484  14.539
16354W        W82895  32.418  38.542   4.932
16355W        W82896  18.185   0.753  14.480
16356W        W82897  28.593  40.664  11.939
16357W        W82898  13.249  25.349   2.137
16358W        W82899   2.060  20.336   4.344
16359W        W82900  32.185  25.484   0.754
16360W        W82901  40.005  43.902  11.893
16361W        W82902  27.534   9.160   0.796
16362W        W82903   0.436  19.325   2.196
16363W        W82904  20.468   4.406   3.226
16364W        W82905   9.767  44.541  14.362
16365W        W82906  22.993  19.538   3.549
16366W        W82907   7.113  27.524   4.642
16367W        W82908  35.596  12.774  12.607
16368W        W82909  44.985  24.694  12.917
16369W        W82910  33.457  10.585   0.898
16370W        W82911  30.379  39.345  13.938
16371W        W82912  39.846  19.157   1.729
16372W        W82913  37.849  29.615   4.126
16373W        W82914   3.352  26.340   3.537
16374W        W82915  20.053  20.760  12.235
16375W        W82916   8.417   4.724  12.978
16376W        W82917  14.378   3.822  12.917
16377W        W82918  35.351  28.654  11.664
16378W        W82919  16.319   6.363  13.430
16379W        W82920  14.900  11.282  13.037
16380W        W82921  33.140  34.029   0.232
16381W        W82922  24.565   4.861   1.686
16382W        W82923  29.631  41.573  14.453
16383W        W82924  31.350  36.255   1.805
16384W        W82925  41.005  44.796   1.836
16385W        W82926   6.801  18.105   2.866
16386W        W82927  44.427   8.114  12.841
16387W        W82928  28.424   1.063   3.729
16388W        W82929  28.116   8.596   4.688
16389W        W82930  37.030  41.771  10.622
16390W        W82931  32.414   3.325   0.290
16391W        W82932  12.810   0.303  13.182
16392W        W82933   4.268   6.837  14.615
16393W        W82934  14.296   5.632   3.696
16394W        W82935  12.939  30.564  11.156
16395W        W82936  28.422  42.868   3.821
16396W        W82937  20.518   9.897  11.204
16397W        W82938  33.558  26.474  12.402
16398W        W82939  43.336  35.999   4.184
16399W        W82940  35.852  44.535   3.634
16400W        W82941   7.282  40.750   1.385
16401W        W82942  12.231  39.780  13.986
16402W        W82943  44.306  21.780   5.017
16403W        W82944  41.333  13.024   2.234
16404W        W82945  12.773   5.941  11.471
16405W        W82946  42.863   2.000   0.915
16406W        W82947  36.885  41.050   4.542
16407W        W82948   4.433   2.759   0.341
16408W        W82949   7.748   0.057  13.061
16409W        W82950  36.695  31.846  11.227
16410W        W82951  34.816  30.085   2.914
16411W        W82952  26.999  19.781   5.254
16412W        W82953  14.075  39.246  11.495
16413W        W82954   2.723   1.351   3.832
16414W        W82955   0.769   6.348   5.122
16415W        W82956  15.604  12.862  13.337
16416W        W82957   8.708   8.201  10.644
16417W        W82958  37.526  20.234  12.220
16418W        W82959  35.122  37.061   3.115
16419W        W82960  31.669   4.816   0.841
16420W        W82961  28.594  28.675  13.099
16421W        W82962   9.749  28.938  10.563
16422W        W82963  27.133  27.574   0.260
16423W        W82964   8.618   1.559  11.579
16424W        W82965  34.926  23.972   1.597
16425W        W82966  14.747  13.107  10.967
16426W        W82967  34.488  14.616   4.421
16427W        W82968  40.401  37.385   3.106
16428W        W82969  35.718  29.610  14.432
16429W        W82970  39.703  27.585   4.610
16430W        W82971  37.463   8.195  13.831
16431W        W82972  29.303  23.055   4.582
16432W        W82973  28.421  15.690  11.972
16433W        W82974  41.893   7.745  11.167
16434W        W82975   8.680  32.305  11.626
16435W        W82976  34.215  15.112  13.935
16436W        W82977   0.270  15.816   1.302
16437W        W82978  13.761  20.543  12.988
16438W        W82979  29.684  26.204   4.374
16439W        W82980  44.278  36.961   2.699
16440W        W82981  39.912   8.913   3.182
16441W        W82982   9.693  21.905  13.029
16442W        W82983  42.032  44.093  12.379
16443W        W82984   1.917  25.952  12.937
16444W        W82985  37.821  13.747  10.266
16445W        W82986  10.029  14.195   1.042
16446W        W82987  12.888  32.307  12.398
16447W        W82988  20.018   4.723  10.701
16448W        W82989  22.245  22.278  11.403
16449W        W82990  17.304  37.552   4.573
16450W        W82991  19.549  39.801  13.545
16451W        W82992  19.143   8.458   3.324
16452W        W82993  27.605  37.958  11.312
16453W        W82994  34.625  40.562   0.745
16454W        W82995  32.863  10.612  10.664
16455W        W82996  34.346   8.199  14.112
16456W        W82997  33.273  13.424   9.892
16457W        W82998  34.287  43.028   3.725
16458W        W82999  15.519  34.836   0.003
16459W        W83000  18.527  39.700   0.764
16460W        W83001  13.301   8.028   0.821
16461W        W83002  24.241   9.251  11.103
16462W        W83003  13.264  20.139  12.039
16463W        W83004  41.601  28.253   2.611
16464W        W83005  37.545  43.316  13.414
16465W        W83006  44.289  20.985   0.415
16466W        W83007  37.593  32.490  14.411
16467W        W83008  41.957  19.561  12.150
16468W        W83009   1.908  26.651  10.663
16469W        W83010  16.989  10.217  11.927
16470W        W83011  40.609  42.902   3.232
16471W        W83012  35.661  15.748   1.429
16472W        W83013   1.351  43.971   4.196
16473W        W83014  29.893  41.924   0.426
16474W        W83015  13.322   5.236   0.934
16475W        W83016  12.039  33.616  13.453
16476W        W83017  21.081  22.296   4.412
16477W        W83018  11.436  43.729   0.994
16478W        W83019  36.410  38.369  11.904
16479W        W83020  17.556   4.195  13.892
16480W        W83021   5.422   8.637   0.895
16481W        W83022   9.318  27.131   4.870
16482W        W83023  32.210  39.328  11.517
16483W        W83024   5.317  28.233   0.453
16484W        W83025  35.118   5.887   5.429
16485W        W83026  44.303  10.517   5.162
16486W        W83027  40.509  12.292   0.362
16487W        W83028  27.738  25.080   4.759
16488W        W83029  18.334  41.525   4.130
16489W        W83030  27.112  18.796   2.785
16490W        W83031  35.460   9.070  11.630
16491W        W83032  21.016  40.814  12.013
16492W        W83033  44.787  33.187   1.971
16493W        W83034  32.835  40.054  14.043
16494W        W83035   5.944  34.998  10.729
16495W        W83036  38.006  39.283  10.767
16496W        W83037  10.251  39.412  11.803
16497W        W83038   6.472  38.522   4.423
16498W        W83039  26.473  23.226   2.267
16499W        W83040  11.270  29.547  12.634
16500W        W83041  40.335  23.472   3.196
16501W        W83042  37.999  27.054  10.591
16502W        W83043  28.447   6.912  13.006
16503W        W83044   2.756   9.289  14.361
16504W        W83045  24.941  41.316  11.618
16505W        W83046  44.518   6.753  11.211
16506W        W83047  23.139  26.708   3.730
16507W        W83048  27.643  42.538  10.735
16508W        W83049  39.836  12.348   9.855
16509W        W83050  41.423  38.783   0.879
16510W        W83051  14.162  34.604  11.082
16511W        W83052  16.197  12.089  12.163
16512W        W83053  28.699  40.818   1.396
16513W        W83054  16.260  34.402  14.450
16514W        W83055  25.620  18.848   4.067
16515W        W83056   9.069  28.398  11.911
16516W        W83057  26.143  16.799  13.992
16517W        W83058  39.688  37.864  10.544
16518W        W83059   9.718  44.775  11.376
16519W        W83060  39.107  11.582   0.787
16520W        W83061   6.100  33.838   0.590
16521W        W83062  35.376  39.532   1.724
16522W        W83063  39.875  27.704   0.260
16523W        W83064  24.125  26.055   2.580
16524W        W83065  26.881  20.147  11.208
16525W        W83066  23.192   6.726  12.350
16526W        W83067  31.557  35.059   4.529
16527W        W83068   1.598   8.015   3.680
16528W        W83069   9.045  14.120   4.202
16529W        W83070  36.882   9.101   0.427
16530W        W83071   6.359  33.312  14.445
16531W        W83072  15.565  14.797  10.170
16532W        W83073  38.340  28.739   0.752
16533W        W83074  15.942  16.523   9.911
16534W        W83075  30.654  43.264   0.205
16535W        W83076  17.586   3.684  13.023
16536W        W83077  41.530  17.503  13.291
16537W        W83078  10.147   6.462   2.194
16538W        W83079  14.885  23.500   1.339
16539W        W83080  19.471   4.402   0.719
16540W        W83081  13.443  34.566   1.157
16541W        W83082  33.998  27.471   0.359
16542W        W83083  31.383  14.263   1.742
16543W        W83084  24.925  10.209   4.438
16544W        W83085  32.609   9.918   2.298
16545W        W83086   1.383  28.405   4.410
16546W        W83087  25.816  18.303   0.432
16547W        W83088   4.630  13.798   4.598
16548W        W83089  39.824  32.482   1.433
16549W        W83090  34.588   0.789   3.630
16550W        W83091  44.783  37.664  14.019
16551W        W83092   1.834  30.543  14.464
16552W        W83093  40.707  23.492  11.629
16553W        W83094  12.776   0.940   0.389
16554W        W83095   9.434  35.613  11.175
16555W        W83096  40.293  27.636   3.198
16556W        W83097  27.501  33.955  13.962
16557W        W83098  12.806  31.063   5.130
16558W        W83099  39.754  26.027  11.101
16559W        W83100   1.497   2.862   1.815
16560W        W83101  44.128  11.255  12.440
16561W        W83102  31.384  41.950   3.324
16562W        W83103   7.710   0.156   4.462
16563W        W83104  27.245  33.935  12.530
16564W        W83105  40.083  16.116   3.309
16565W        W83106  17.227  32.890  14.270
16566W        W83107  43.933  32.938   3.566
16567W        W83108  29.492  11.848   3.116
16568W        W83109  17.805   9.861   2.241
16569W        W83110   5.257  21.850  13.140
16570W        W83111  33.070   4.207   3.950
16571W        W83112  15.378  33.059   5.228
16572W        W83113  14.478   4.725  14.547
16573W        W83114  32.873  41.100  13.756
16574W        W83115  20.219  29.215   2.480
16575W        W83116  36.938  26.198  11.968
16576W        W83117  28.670   4.358  14.336
16577W        W83118   1.060   6.326  13.589
16578W        W83119  44.478  16.226  10.855
16579W        W83120  23.111   4.488   1.423
16580W        W83121  18.744  43.753  14.083
16581W        W83122  23.736  28.395   1.005
16582W        W83123  42.703  17.303   2.775
16583W        W83124  28.438  30.437  11.102
16584W        W83125  25.134  42.130   1.072
16585W        W83126  23.531   6.378   2.549
16586W        W83127   3.472  10.821  10.697
16587W        W83128  43.932  40.930  12.899
16588W        W83129  15.755   3.962   0.332
16589W        W83130  21.908   9.159   3.162
16590W        W83131   4.830  32.576  13.029
16591W        W83132  23.195   5.827  13.607
16592W        W83133  24.192  34.161   0.452
16593W        W83134  36.389  26.256   2.349
16594W        W83135  24.647  22.290  11.487
16595W        W83136  30.479  21.540   0.984
16596W        W83137  34.405   9.338  11.479
16597W        W83138  14.503  18.638   4.228
16598W        W83139  35.799  13.783  14.300
16599W        W83140  16.822  37.830   1.745
16600W        W83141  21.052  24.168  14.550
16601W        W83142  28.484  18.566  12.600
16602W        W83143  30.691   3.262   4.190
16603W        W83144  25.366  15.586  14.456
16604W        W83145  15.812  34.635  14.244
16605W        W83146   1.212  36.260  13.084
16606W        W83147  13.175  22.799  10.684
16607W        W83148  10.674  17.562   1.922
16608W        W83149  21.665  15.589  13.507
16609W        W83150  36.959  24.628   3.860
16610W        W83151  32.951   0.521   3.756
16611W        W83152  27.502  43.939   1.244
16612W        W83153   7.450  32.666   1.907
16613W        W83154  26.007  21.719  10.536
16614W        W83155  13.631  26.375  13.038
16615W        W83156  42.067   0.321   3.130
16616W        W83157  41.235  33.425   1.015
16617W        W83158  17.296  31.518   1.949
16618W        W83159  19.128  32.429  11.059
16619W        W83160  36.243  32.659  14.283
16620W        W83161  13.107  34.976  12.999
16621W        W83162  16.786  40.781  10.708
16622W        W83163   8.402   3.898   0.450
16623W        W83164  10.313  22.201   4.933
16624W        W83165  12.337  25.684  12.859
16625W        W83166  28.358   7.033   4.168
16626W        W83167  31.041  35.319   1.897
16627W        W83168  18.792  16.469  13.637
16628W        W83169  16.226  13.702   0.032
16629W        W83170  19.569   7.644  14.774
16630W        W83171   1.237  20.630  12.127
16631W        W83172  10.301   3.660   5.007
16632W        W83173  30.430  31.186  14.046
16633W        W83174  38.507   2.816  11.988
16634W        W83175  39.213  16.150  13.495
16635W        W83176  20.562  22.684   3.772
16636W        W83177  12.577  12.069  12.078
16637W        W83178   8.672  16.150  12.482
16638W        W83179  22.642  14.717   3.281
16639W        W83180  44.322  32.610   2.688
16640W        W83181   8.450   9.107  10.558
16641W        W83182  36.732  29.120   0.041
16642W        W83183  17.138  30.772  11.791
16643W        W83184   7.777  24.207  14.067
16644W        W83185  27.009   9.111   0.929
16645W        W83186  44.864  37.158  13.961
16646W        W83187  24.735  38.495   4.221
16647W        W83188  29.567   4.022   2.331
16648W        W83189  26.450  33.058  14.147
16649W        W83190  42.547  17.816  11.717
16650W        W83191  44.325  17.407  14.735
16651W        W83192   7.296   5.561  14.602
16652W        W83193  28.491   1.524   4.691
16653W        W83194  40.979  14.809   1.341
16654W        W83195  40.442  37.812   3.937
16655W        W83196   0.655  27.528  12.384
16656W        W83197  11.767   5.706  14.371
16657W        W83198  18.598  15.855   3.846
16658W        W83199  15.795  19.638  13.894
16659W        W83200  22.031  25.649  12.429
16660W        W83201  14.680   7.083  14.914
16661W        W83202   7.221  18.275   3.683
16662W        W83203   0.864   7.898  11.538
16663W        W83204  14.176  16.842   2.258
16664W        W83205  37.817  13.715   3.797
16665W        W83206   0.001  13.846  12.874
16666W        W83207  10.170  15.716   2.855
16667W        W83208  25.647  33.436   1.386
16668W        W83209  27.688   9.914  14.372
16669W        W83210  16.341  33.893  13.818
16670W        W83211  19.072  29.994   3.141
16671W        W83212  16.566   7.129   1.075
16672W        W83213  16.687  26.602  12.430
16673W        W83214  25.673  35.926   4.150
16674W        W83215  27.664   3.339  13.519
16675W        W83216  37.483  11.299  13.864
16676W        W83217  10.407  14.559  14.760
16677W        W83218   3.705  44.678  11.038
16678W        W83219  27.133   5.305   0.741
16679W        W83220  28.523  44.783   0.695
16680W        W83221  18.537  23.713   0.241
16681W        W83222   3.531  28.169  13.569
16682W        W83223  17.681  11.308   4.268
16683W        W83224  17.707  32.474  12.829
16684W        W83225  21.418  22.619  13.811
16685W        W83226   1.986  24.841   4.134
16686W        W83227  43.026  39.963  13.341
16687W        W83228  40.005   2.444  13.824
16688W        W83229  25.414  27.433  11.517
16689W        W83230  22.301  43.054   3.136
16690W        W83231  43.105  37.283   4.259
16691W        W83232  14.575  40.275   4.556
16692W        W83233  10.660  23.128  12.154
16693W        W83234   4.979  15.294   4.769
16694W        W83235  26.721  23.127  12.598
16695W        W83236  26.450  41.603  11.868
16696W        W83237  27.435   1.690  10.960
16697W        W83238   1.508  23.581   3.854
16698W        W83239   9.600  34.889  14.867
16699W        W83240  15.772  33.041  10.276
16700W        W83241  37.645  10.420   4.047
16701W        W83242  19.775   8.128   3.268
16702W        W83243  40.375  36.926  11.636
16703W        W83244   2.382  18.502  10.825
16704W        W83245   2.491  12.625  12.923
16705W        W83246  43.359  36.850  12.829
16706W        W83247  39.048  34.580   4.120
16707W        W83248   2.843  38.501   2.331
16708W        W83249  36.240   2.461   2.655
16709W        W83250  19.116  25.315   0.754
16710W        W83251  14.170  34.175   3.788
16711W        W83252   0.097  32.354  12.940
16712W        W83253   3.921   1.497  11.973
16713W        W83254  28.047  17.046   3.609
16714W        W83255  14.098   9.874  12.972
16715W        W83256   6.405  29.463   1.781
16716W        W83257  40.766  12.294  12.942
16717W        W83258  25.928  44.814  14.839
16718W        W83259  27.453  19.464   1.258
16719W        W83260  13.653   7.798   3.134
16720W        W83261  25.599  20.302   2.275
16721W        W83262  23.236  24.937  11.393
16722W        W83263  23.624  25.534   1.804
16723W        W83264   1.892  40.059   0.964
16724W        W83265  37.036  12.147  13.525
16725W        W83266  26.140  44.347   1.695
16726W        W83267   0.506  32.040  12.604
16727W        W83268  14.174  39.415  12.819
16728W        W83269   2.735  27.438   3.290
16729W        W83270  38.266   3.468   0.991
16730W        W83271  19.477   4.542  13.441
16731W        W83272   0.522  27.192  13.517
16732W        W83273  34.042   0.730   4.466
16733W        W83274  44.012  17.691  12.417
16734W        W83275  25.416  14.204  14.445
16735W        W83276  10.453  38.776   3.221
16736W        W83277  13.944  28.163  11.141
16737W        W83278  21.183  36.481   4.021
16738W        W83279  31.444  38.066  12.485
16739W        W83280  18.453  40.509  11.230
16740W        W83281  13.398  33.228  13.498
16741W        W83282  28.142  36.472  13.017
16742W        W83283  41.565  14.275   0.827
16743W        W83284  20.005  36.359  11.483
16744W        W83285  10.717   4.593   4.106
16745W        W83286  17.052   5.678  12.349
16746W        W83287   0.918   6.875  11.438
16747W        W83288  20.593  31.658   2.029
16748W        W83289  16.002   5.835   4.670
16749W        W83290  38.413  38.238   4.179
16750W        W83291  42.845  41.000   0.898
16751W        W83292  36.813  16.280   3.475
16752W        W83293  44.332   5.292   3.627
16753W        W83294  26.930  21.808  14.422
16754W        W83295   7.759  11.992   3.977
16755W        W83296  27.855  12.678  14.405
16756W        W83297   8.505   1.159   3.801
16757W        W83298   3.973  41.767  13.382
16758W        W83299  14.808   5.560  12.933
16759W        W83300  43.357  37.933  10.731
16760W        W83301  11.137  36.825   2.693
16761W        W83302   8.336  16.491  11.233
16762W        W83303  27.879  23.659  12.837
16763W        W83304  37.182  41.747   2.628
16764W        W83305  17.683   4.944   0.873
16765W        W83306  31.971   8.634   0.135
16766W        W83307  44.846  23.616  11.994
16767W        W83308   8.804   6.909   1.163
16768W        W83309  20.760  13.187  14.847
16769W        W83310  29.342  18.857  12.107
16770W        W83311  10.240  40.969   4.145
16771W        W83312  15.158  42.025   0.759
16772W        W83313  24.266  17.710   1.712
16773W        W83314   1.796  11.670   4.869
16774W        W83315  40.923   1.394  11.694
16775W        W83316   4.003  25.163  14.778
16776W        W83317  27.470  10.203   1.415
16777W        W83318  38.977   5.872   2.856
16778W        W83319  17.746  27.475   2.041
16779W        W83320  17.378   9.292   3.821
16780W        W83321  19.088   6.360   0.787
16781W        W83322  24.500   1.424   2.165
16782W        W83323   3.995   3.881  11.989
16783W        W83324  15.078  26.862   4.509
16784W        W83325  18.793  36.089  12.956
16785W        W83326  18.431  41.503   1.337
16786W        W83327  36.534  27.458  13.557
16787W        W83328  14.181  11.989   4.518
16788W        W83329  30.442   2.513  11.153
16789W        W83330  28.696  34.854  11.145
16790W        W83331   4.780   6.480   3.204
16791W        W83332  15.095  16.284   0.948
16792W        W83333  34.369  37.283   1.791
16793W        W83334  22.532  12.054   4.549
16794W        W83335  24.505  28.671   3.899
16795W        W83336  22.615   5.478  12.443
16796W        W83337  29.694  13.248  11.543
16797W        W83338   6.785   3.663  11.691
16798W        W83339  28.887   0.862   0.362
16799W        W83340  25.724  20.826   2.212
16800W        W83341  24.710  14.864   1.826
16801W        W83342  32.858   7.792  11.115
16802W        W83343  31.938  16.280  14.430
16803W        W83344  35.594   4.863  12.006
16804W        W83345  22.786  13.791  13.290
16805W        W83346  15.804  23.118  14.816
16806W        W83347  42.832  29.472  11.960
16807W        W83348   7.289  21.020  13.459
16808W        W83349   9.085  15.578   3.684
16809W        W83350  31.271   9.298  12.636
16810W        W83351  25.006  41.819  11.627
16811W        W83352  33.549  35.362   1.518
16812W        W83353  16.261  20.488  14.494
16813W        W83354  37.832  28.737   2.345
16814W        W83355   1.709   1.927  12.017
16815W        W83356  15.642   3.444  12.465
16816W        W83357  17.517  40.606   1.105
16817W        W83358  22.095   8.101  13.737
16818W        W83359  33.958  19.215   1.844
16819W        W83360  28.602   8.437   1.380
16820W        W83361  36.355  31.631   2.922
16821W        W83362  28.053   4.831   0.929
16822W        W83363  31.053  39.445   3.061
16823W        W83364  14.815  26.654  12.051
16824W        W83365  22.226  25.099   2.348
16825W        W83366  42.637   9.550  10.700
16826W        W83367  19.521  28.716  13.334
16827W        W83368  23.012  20.646   4.544
16828W        W83369  20.818   3.266  14.948
16829W        W83370  40.099  39.160  11.365
16830W        W83371  12.692  26.454  13.459
16831W        W83372   6.832   4.878   2.831
16832W        W83373  11.819  21.368   5.069
16833W        W83374  24.164  39.417  10.295
16834W        W83375  28.574  26.432   0.739
16835W        W83376   6.116  24.313   1.889
16836W        W83377  36.150  41.216  13.439
16837W        W83378  41.318   8.882   2.791
16838W        W83379  21.669   9.414  11.900
16839W        W83380  12.176   8.061   1.286
16840W        W83381  31.511   6.330  14.643
16841W        W83382   3.139  14.102  11.911
16842W        W83383   8.892   7.783  13.490
16843W        W83384   7.088  25.967   1.501
16844W        W83385  25.461  24.165   0.458
16845W        W83386  11.117  24.218   1.477
16846W        W83387  28.038  13.577  10.619
16847W        W83388  42.016  42.897   0.463
16848W        W83389  20.194   7.407  10.727
16849W        W83390  20.439   0.629  13.123
16850W        W83391  32.994  39.351  11.771
16851W        W83392  27.584  26.693  13.801
16852W        W83393  30.513  41.722  13.541
16853W        W83394  24.617   6.088   0.906
16854W        W83395  15.572  38.121   2.595
16855W        W83396  43.889  16.399   2.846
16856W        W83397  27.450  13.613  11.411
16857W        W83398  25.595  11.955  13.846
16858W        W83399  24.275  28.469  12.259
16859W        W83400  23.058  28.628  14.054
16860W        W83401  31.957  22.852  11.087
16861W        W83402   7.398  15.527  14.756
16862W        W83403  44.931  44.890   2.365
16863W        W83404  35.896  22.050  10.606
16864W        W83405  37.084   5.821  11.686
16865W        W83406  32.092   6.485  14.454
16866W        W83407  30.873  42.409   1.956
16867W        W83408   5.395  44.249  13.045
16868W        W83409  25.490  14.704  11.793
16869W        W83410  40.462  30.460   4.150
16870W        W83411  11.062   2.740  11.571
16871W        W83412  26.542  27.943   4.600
16872W        W83413  32.006   5.699  13.086
16873W        W83414  17.803  20.197   0.551
16874W        W83415   8.568  11.930  14.405
16875W        W83416  22.679  10.197   5.108
16876W        W83417  13.063  30.336  10.708
16877W        W83418  31.015   7.912   4.670
16878W        W83419  31.375  30.907  11.564
16879W        W83420  41.934  21.076  12.136
16880W        W83421  10.567  36.483  13.832
16881W        W83422  34.338   4.360  11.981
16882W        W83423  42.758  38.891  14.026
16883W        W83424  32.331  20.790  11.952
16884W        W83425  17.349   1.084  14.834
16885W        W83426  42.976  34.825   0.936
16886W        W83427   6.536  25.147  12.560
16887W        W83428   8.076  31.217  14.879
16888W        W83429  12.800  32.031   0.847
16889W        W83430   1.865  37.890  14.451
16890W        W83431  33.879  15.189   2.886
16891W        W83432  44.421  10.861   2.107
16892W        W83433  16.059  39.455  13.893
16893W        W83434   8.323   4.984  13.441
16894W        W83435  17.268   5.448  12.899
16895W        W83436  23.095  23.454   0.309
16896W        W83437   6.361   7.905   1.232
16897W        W83438   2.942   2.361   2.409
16898W        W83439  12.062   7.528   1.249
16899W        W83440   9.756   7.320  12.502
16900W        W83441   1.189   7.807  13.392
16901W        W83442   9.770  40.026   3.246
16902W        W83443  31.602   8.617   3.703
16903W        W83444   2.953  18.073  11.821
16904W        W83445  13.298  31.895  14.327
16905W        W83446   1.500   1.900   5.361
16906W        W83447  10.553  30.977  12.593
16907W        W83448  37.931   1.859   5.017
16908W        W83449  15.823  17.168   5.082
16909W        W83450  31.700  12.403  14.127
16910W        W83451  44.479  26.195   1.689
16911W        W83452  23.704  29.610  11.007
16912W        W83453  15.228   4.805   2.849
16913W        W83454  39.470   9.671  11.963
16914W        W83455   7.726  30.559   2.754
16915W        W83456  29.147   5.942   0.751
16916W        W83457  30.446  31.747   4.124
16917W        W83458  37.057   0.242   1.316
16918W        W83459  42.996  22.710  12.530
16919W        W83460  20.709  13.626  12.368
16920W        W83461  13.734  10.143   0.310
16921W        W83462  44.820  26.953  10.372
16922W        W83463  29.921  16.858   2.024
16923W        W83464  16.506  11.550  11.501
16924W        W83465  26.110  20.497   2.899
16925W        W83466  40.083  36.878   2.889
16926W        W83467  44.564  10.095   1.676
16927W        W83468  28.117   6.046   3.298
16928W        W83469  16.835  23.395  11.437
16929W        W83470  25.945  30.436  12.401
16930W        W83471  27.674  37.332   3.696
16931W        W83472  16.542   9.411   4.143
16932W        W83473   2.189   2.859  11.640
16933W        W83474  37.968  23.527  12.036
16934W        W83475  42.283  30.274  13.758
16935W        W83476  27.511  42.313  14.012
16936W        W83477  15.359  26.083   1.969
16937W        W83478   1.163  33.445  12.988
16938W        W83479  43.691  26.152  12.155
16939W        W83480  24.873  11.790  12.491
16940W        W83481  12.092  42.126   1.236
16941W        W83482  19.619  28.603   3.996
16942W        W83483  30.231  18.800  13.095
16943W        W83484  26.194   7.374  11.209
16944W        W83485   4.222  19.145   0.913
16945W        W83486  23.762  35.918  14.753
16946W        W83487  25.264   3.277   1.188
16947W        W83488  27.576  35.823  14.028
16948W        W83489  20.011  31.076  10.396
16949W        W83490  27.186  36.048  12.429
16950W        W83491  14.225  19.678  12.805
16951W        W83492  29.989  31.170  13.750
16952W        W83493  36.636  40.690  11.419
16953W        W83494  34.393  32.555  14.964
16954W        W83495  37.021  32.641  14.783
16955W        W83496  29.230  33.617  11.636
16956W        W83497  24.656  34.466   0.262
16957W        W83498  37.570   8.723  13.744
16958W        W83499   3.155  19.760  10.902
16959W        W83500  35.882  42.036  13.281
16960W        W83501   4.989  19.890  12.098
16961W        W83502  15.782  22.197   9.966
16962W        W83503  16.208   9.960   2.764
16963W        W83504  18.304  33.478  11.587
16964W        W83505  34.019  28.680  12.622
16965W        W83506  16.295  18.791   1.095
16966W        W83507  39.442  44.499  14.932
16967W        W83508  40.032  35.068   1.742
16968W        W83509  14.039   3.718  13.305
16969W        W83510   9.157  13.692  10.609
16970W        W83511  12.296   3.198   0.268
16971W        W83512  29.412  39.030  11.795
16972W        W83513  19.355  18.558  13.479
16973W        W83514  34.803  34.900   0.851
16974W        W83515  16.464  15.689  11.997
16975W        W83516  44.180  44.111  13.172
16976W        W83517   0.521  39.131  13.058
16977W        W83518  17.214  33.431  14.958
16978W        W83519  27.464  29.132   2.762
16979W        W83520  16.783  28.857   4.095
16980W        W83521  38.028   6.817  12.071
16981W        W83522  23.997  33.932  12.574
16982W        W83523  26.195  32.638  13.963
16983W        W83524   4.856  25.959   1.132
16984W        W83525  27.632   5.330   0.407
16985W        W83526   5.250  31.436  14.046
16986W        W83527  12.345  26.120  10.863
16987W        W83528   8.301  16.037   1.476
16988W        W83529   3.730  36.181   1.573
16989W        W83530   6.109  39.812  11.908
16990W        W83531  27.554  17.980  13.379
16991W        W83532   1.763  38.388   2.358
16992W        W83533  44.050  11.213   4.571
16993W        W83534  17.839  22.491   1.896
16994W        W83535  23.500  32.932   3.343
16995W        W83536  41.111  19.453   3.817
16996W        W83537  12.419  20.188  12.433
16997W        W83538  24.927  27.895   5.191
16998W        W83539  26.456  11.947   2.325
16999W        W83540   1.389  16.379  13.426
17000W        W83541   5.869  15.486  13.791
17001W        W83542  14.608  34.048   0.467
17002W        W83543   8.899  24.425   3.096
17003W        W83544   6.466   2.614   1.905
17004W        W83545  15.229  20.539   2.540
17005W        W83546   1.867  32.686   9.842
17006W        W83547  32.664  25.508  12.792
17007W        W83548  31.484  20.511   2.813
17008W        W83549   5.297   7.171  11.536
17009W        W83550  33.148   2.593   2.279
17010W        W83551   1.465  31.895  14.484
17011W        W83552  34.831   3.002   2.806
17012W        W83553  11.136   3.447  11.061
17013W        W83554  29.214  15.249   3.782
17014W        W83555  23.257  14.285  10.630
17015W        W83556  30.356  39.562   2.787
17016W        W83557  31.996  41.744  11.704
17017W        W83558  24.080   6.361   2.235
17018W        W83559   7.673  20.988   0.506
17019W        W83560  26.318  35.433  10.946
17020W        W83561   4.156  37.401   2.201
17021W        W83562  12.171  19.592  13.943
17022W        W83563  39.029  41.983   0.756
17023W        W83564   8.762  12.584   3.346
17024W        W83565  35.917  16.881   1.899
17025W        W83566  35.428  21.861   0.786
17026W        W83567  23.703  29.109  10.235
17027W        W83568  22.228  14.420   2.256
17028W        W83569  40.204  32.055  12.027
17029W        W83570  30.862  15.737   4.267
17030W        W83571  35.012  13.882  11.247
17031W        W83572  39.633  25.997  12.557
17032W        W83573  23.574  29.326   3.608
17033W        W83574  17.084  35.281   2.812
17034W        W83575  38.215  13.674   9.947
17035W        W83576  28.571  32.924   1.856
17036W        W83577  16.234  30.578   3.698
17037W        W83578  38.361  39.769  13.859
17038W        W83579   6.416  22.631   4.224
17039W        W83580  29.468  30.341   0.284
17040W        W83581   9.988   9.906   0.862
17041W        W83582   9.916  37.879  11.600
17042W        W83583  20.706  27.492  12.986
17043W        W83584  18.236  44.706   2.179
17044W        W83585  28.281   1.955   1.301
17045W        W83586  24.169  26.831   4.866
17046W        W83587  30.037  41.147   2.140
17047W        W83588  10.031  40.429   4.505
17048W        W83589  13.455  43.205  11.600
17049W        W83590   2.834  26.820   0.061
17050W        W83591  36.373  15.770  11.543
17051W        W83592  20.671  32.916  13.060
17052W        W83593  16.988  28.019   4.993
17053W        W83594  33.356   7.260  13.059
17054W        W83595   6.731  24.057   0.744
17055W        W83596   0.988   7.867   2.775
17056W        W83597  43.933  33.863   2.427
17057W        W83598  22.484  25.742  12.214
17058W        W83599  38.654   8.513  14.306
17059W        W83600  43.247  39.519   0.538
17060W        W83601   3.399  44.560   0.466
17061W        W83602   8.742  14.731  13.280
17062W        W83603  39.489  23.699  12.876
17063W        W83604  25.672  25.675   0.886
17064W        W83605  38.419  15.912  12.491
17065W        W83606   8.129  29.597  12.350
17066W        W83607  25.693  15.285  13.048
17067W        W83608  35.602  18.070   3.678
17068W        W83609  37.570  36.420  14.868
17069W        W83610  26.889  43.678   4.088
17070W        W83611  26.703   3.328  12.306
17071W        W83612  30.092  22.928   1.237
17072W        W83613   5.343   3.273  11.841
17073W        W83614  32.931  23.151  12.354
17074W        W83615   9.715  28.706   3.977
17075W        W83616  17.799  42.415   0.187
17076W        W83617  27.506  35.622   2.774
17077W        W83618  10.176  21.478  13.555
17078W        W83619  43.294  29.669  12.036
17079W        W83620  32.849  23.563   1.343
17080W        W83621  29.038  14.675   0.326
17081W        W83622   7.740  34.823   3.337
17082W        W83623  34.946   1.976  13.890
17083W        W83624  17.508  19.195   0.858
17084W        W83625  35.061  20.508  13.980
17085W        W83626   3.797  30.542   1.840
17086W        W83627  14.334   2.805  12.114
17087W        W83628  38.547  31.479   3.117
17088W        W83629  43.268  42.493   2.011
17089W        W83630  10.627  22.812   1.781
17090W        W83631   6.321  21.837  11.607
17091W        W83632  37.884  14.056  14.420
17092W        W83633   5.228  20.191   3.355
17093W        W83634  44.492   8.401   2.476
17094W        W83635  16.513  27.087  12.479
17095W        W83636   1.972  13.985   4.544
17096W        W83637  22.762   5.310  11.414
17097W        W83638  19.600   9.422  11.189
17098W        W83639   7.694   3.965   0.911
17099W        W83640  34.035   5.584   9.977
17100W        W83641  13.010  20.143  14.960
17101W        W83642   8.301  15.339   0.687
17102W        W83643  19.065   3.435   3.914
17103W        W83644   8.307   3.302  11.615
17104W        W83645  18.694   1.869  11.658
17105W        W83646   3.156   6.411   1.781
17106W        W83647  36.126  12.137  14.909
17107W        W83648  33.672  10.799  10.246
17108W        W83649  11.141  22.841   1.812
17109W        W83650  18.317  13.563   3.201
17110W        W83651  19.588  42.523   3.935
17111W        W83652  16.384  43.582   2.314
17112W        W83653   2.452  34.635  11.860
17113W        W83654  32.439  37.390  14.477
17114W        W83655  29.840  14.077  12.524
17115W        W83656  28.724  27.065   3.027
17116W        W83657  21.229  34.008   4.730
17117W        W83658  26.525  34.820  12.526
17118W        W83659   5.047  34.926  10.762
17119W        W83660  29.048  26.360   1.721
17120W        W83661  10.773   6.854   2.743
17121W        W83662  26.356   7.302   0.870
17122W        W83663   2.596  19.305   1.282
17123W        W83664   9.248  20.593  13.110
17124W        W83665   1.208  37.378  10.693
17125W        W83666  18.120  28.209  11.565
17126W        W83667  25.238  39.040   2.771
17127W        W83668  30.691  11.200   2.299
17128W        W83669  42.127  42.678   2.373
17129W        W83670  28.364   5.132   4.122
17130W        W83671   8.397  31.679   3.111
17131W        W83672  15.175  37.616  14.401
17132W        W83673  19.667  33.101   0.772
17133W        W83674  18.522   7.735  13.820
17134W        W83675  17.722  21.413  10.578
17135W        W83676  15.463  22.648   1.600
17136W        W83677  38.013  36.956   3.839
17137W        W83678  22.970  19.947   1.328
17138W        W83679  44.236  30.697   2.809
17139W        W83680  11.700   1.303   2.255
17140W        W83681  22.955  19.799   1.824
17141W        W83682  17.915  15.920   4.553
17142W        W83683   9.205  14.907  13.071
17143W        W83684  37.417  42.446   0.525
17144W        W83685  41.388  17.298   3.041
17145W        W83686  18.159  14.836  12.059
17146W        W83687   8.790  23.263  10.647
17147W        W83688  43.353   3.762   0.056
17148W        W83689  17.706  15.249   0.484
17149W        W83690   2.772  34.661  11.442
17150W        W83691  11.181   2.290   3.325
17151W        W83692  17.020  24.421   0.432
17152W        W83693  15.806  36.046  13.838
17153W        W83694   5.445   2.972  12.251
17154W        W83695  33.656  39.751   1.404
17155W        W83696  13.671  33.190   0.386
17156W        W83697  16.011  15.727  12.781
17157W        W83698  31.362  30.096   0.326
17158W        W83699   3.426  16.320  11.110
17159W        W83700  19.627  27.892  13.581
17160W        W83701   5.935   3.625  14.818
17161W        W83702  41.378  10.899   0.164
17162W        W83703  27.731  17.617   1.772
17163W        W83704  12.348   1.934  13.098
17164W        W83705   2.794  23.817   3.145
17165W        W83706  26.210  35.901   1.714
17166W        W83707   3.726   2.266  13.379
17167W        W83708  29.254  12.667  12.038
17168W        W83709  13.228  16.521  13.056
17169W        W83710  28.717  19.535   2.282
17170W        W83711  40.115  29.551  12.437
17171W        W83712  35.623  40.927   1.387
17172W        W83713  15.670  37.943   4.535
17173W        W83714  25.033  38.759   2.376
17174W        W83715  43.904  11.804   0.987
17175W        W83716   2.827  10.953  13.384
17176W        W83717   4.727  27.004  12.005
17177W        W83718  28.732   4.212  13.510
17178W        W83719  33.201  33.828  13.384
17179W        W83720  37.365   3.344   2.122
17180W        W83721  13.119  23.955   4.993
17181W        W83722  34.548  14.611   0.505
17182W        W83723  42.298  31.996   1.436
17183W        W83724  17.593  22.717   2.310
17184W        W83725  14.609   6.890   2.217
17185W        W83726   6.686  30.029  14.404
17186W        W83727  20.022  12.160  11.460
17187W        W83728  13.678  18.306  14.580
17188W        W83729  28.976  24.546  12.382
17189W        W83730  37.638   6.898   1.855
17190W        W83731   9.951   3.841  12.528
17191W        W83732  11.296   3.396   0.263
17192W        W83733  10.083  11.903   2.342
17193W        W83734  33.946  28.099   0.981
17194W        W83735   6.702  30.587  12.019
17195W        W83736  22.126   6.743   0.012
17196W        W83737   7.381  13.672  11.692
17197W        W83738   5.651  27.531   5.005
17198W        W83739  27.025   9.186  10.576
17199W        W83740   3.037   8.802   5.095
17200W        W83741  10.649  42.350  11.085
17201W        W83742   6.269  24.442   3.587
17202W        W83743  43.180  39.653  11.063
17203W        W83744  21.750  26.919   0.515
17204W        W83745  21.745  16.277   1.747
17205W        W83746  23.401  27.398  11.678
17206W        W83747  33.491   0.232   1.480
17207W        W83748  12.909  25.167   0.227
17208W        W83749  15.086  30.891   0.857
17209W        W83750  38.494  39.304   3.342
17210W        W83751   8.961  14.596  12.753
17211W        W83752   1.544  17.337  13.345
17212W        W83753  33.472  15.569  13.070
17213W        W83754  17.215   5.021  14.799
17214W        W83755  32.293   0.837   4.095
17215W        W83756  17.285  29.875  13.041
17216W        W83757  18.569   4.166  11.892
17217W        W83758   7.697  13.058   1.229
17218W        W83759  35.506  42.960  14.324
17219W        W83760  32.588  17.751   3.882
17220W        W83761  16.479   1.325  14.723
17221W        W83762  19.970  18.564   1.514
17222W        W83763  35.960  14.746   0.380
17223W        W83764   7.915  35.500  11.959
17224W        W83765  28.452  18.557   2.167
17225W        W83766  11.221   0.560   3.556
17226W        W83767  34.797  37.900   1.305
17227W        W83768  22.738  41.389   2.282
17228W        W83769  39.434   3.498  14.507
17229W        W83770  11.756  25.600   2.431
17230W        W83771   8.788   2.326  13.846
17231W        W83772  13.444  43.283   1.692
17232W        W83773  44.821   4.623  11.583
17233W        W83774  32.627  32.967   0.418
17234W        W83775  23.169  23.709   2.845
17235W        W83776   5.426  35.705  13.792
17236W        W83777  26.702   5.253   3.660
17237W        W83778   3.402  10.023  11.054
17238W        W83779  34.020  38.852   4.695
17239W        W83780  36.307  16.019  10.970
17240W        W83781  17.383  34.509  10.794
17241W        W83782  18.160  44.437  14.051
17242W        W83783  11.749  18.842  12.608
17243W        W83784  16.162  35.382  13.104
17244W        W83785  16.860   8.565  13.326
17245W        W83786  14.884  44.381   0.903
17246W        W83787   6.936  22.029  12.932
17247W        W83788   5.728  33.641   2.351
17248W        W83789   7.125  28.731   1.068
17249W        W83790  32.105  35.430   2.830
17250W        W83791  14.190  21.237  11.675
17251W        W83792   8.403   8.396  12.622
17252W        W83793  31.086  22.567   4.121
17253W        W83794  34.940  40.756   3.233
17254W        W83795  26.020  43.876  12.536
17255W        W83796  34.172  24.082  13.598
17256W        W83797  42.740  39.557   0.644
17257W        W83798   8.456  12.672  10.514
17258W        W83799  42.423  41.813   3.349
17259W        W83800   8.474  38.287  14.488
17260W        W83801   4.781  38.784  11.159
17261W        W83802  40.129   7.164  13.009
17262W        W83803   1.469  22.595   2.464
17263W        W83804  14.320  10.690   4.241
17264W        W83805   8.786   0.200   1.045
17265W        W83806  12.175   7.631   2.588
17266W        W83807  23.102   2.071  11.000
17267W        W83808  35.471  19.936  11.149
17268W        W83809  10.917  40.013   2.640
17269W        W83810  34.110  28.111   4.114
17270W        W83811   7.665  29.177   3.066
17271W        W83812  21.178   7.637   2.680
17272W        W83813  29.068  30.175  14.939
17273W        W83814   8.713  42.669  11.917
17274W        W83815   2.280   8.823  11.714
17275W        W83816   1.485  42.628   1.207
17276W        W83817  29.472  37.886   4.108
17277W        W83818  31.080   5.772  11.092
17278W        W83819  38.353  32.064  12.390
17279W        W83820   8.894  36.124   0.769
17280W        W83821  36.567  11.184   2.676
17281W        W83822   8.574  32.807   2.768
17282W        W83823  29.038  31.569   2.304
17283W        W83824  16.401  30.733   4.181
17284W        W83825  25.154  22.976   1.845
17285W        W83826  11.598  14.220  11.622
17286W        W83827   1.161   8.287  12.107
17287W        W83828  38.947  23.419   4.192
17288W        W83829   8.236   3.377  10.172
17289W        W83830   5.763  38.037  13.099
17290W        W83831  20.100   1.236   4.054
17291W        W83832  32.473  31.183   0.447
17292W        W83833  22.677   1.801   4.909
17293W        W83834  25.812   9.226   1.367
17294W        W83835  33.368  16.543  10.767
17295W        W83836  25.853  30.548  14.457
17296W        W83837  33.583  27.745   0.248
17297W        W83838  22.493  12.837  11.143
17298W        W83839   8.456  29.242  14.725
17299W        W83840  33.168  23.999  13.456
17300W        W83841   0.922  38.475   2.893
17301W        W83842  44.016  21.229  12.923
17302W        W83843  17.993   3.820   2.708
17303W        W83844   7.380  28.331   2.059
17304W        W83845  12.853   6.396   0.374
17305W        W83846  34.613   2.781  11.311
17306W        W83847  19.743   8.969   2.314
17307W        W83848  28.166   8.081   3.049
17308W        W83849  11.311  18.931  11.907
17309W        W83850  16.796  39.087   4.048
17310W        W83851  38.481  43.442  14.672
17311W        W83852   0.994  22.336  11.747
17312W        W83853  28.251  29.888   1.500
17313W        W83854  23.481  41.951   2.104
17314W        W83855  30.600  15.311  12.957
17315W        W83856  34.394  36.244  13.304
17316W        W83857  13.868  21.274   2.898
17317W        W83858  26.857  30.010  12.383
17318W        W83859  30.424  33.634   1.868
17319W        W83860  41.696  31.409  13.399
17320W        W83861  34.455  37.998   3.262
17321W        W83862  17.369  42.820   3.197
17322W        W83863   1.308  35.041  13.086
17323W        W83864  24.168  10.688   4.447
17324W        W83865  27.677  44.392   1.457
17325W        W83866  15.958  39.874  10.742
17326W        W83867   1.032  21.087  12.219
17327W        W83868   8.513   4.180  12.642
17328W        W83869  36.858  40.104  13.508
17329W        W83870  26.746  28.157  14.378
17330W        W83871   4.895   9.020  10.824
17331W        W83872   8.148  38.804  14.228
17332W        W83873  11.841   6.972  12.025
17333W        W83874   2.449   5.916   2.009
17334W        W83875  25.706   0.861   2.489
17335W        W83876  43.518  15.108  11.615
17336W        W83877  13.788  42.925  14.850
17337W        W83878  14.592  36.417  14.041
17338W        W83879  41.335  10.324  10.244
17339W        W83880  44.790  32.828   3.254
17340W        W83881   8.680  19.565   2.465
17341W        W83882  12.777   9.219   0.936
17342W        W83883  29.908  16.801   0.451
17343W        W83884  10.249  28.900   0.967
17344W        W83885  13.394  28.418   0.005
17345W        W83886  25.232  18.211   0.740
17346W        W83887  27.400  15.610  12.824
17347W        W83888  29.245   7.717   2.899
17348W        W83889  22.002  34.059   3.698
17349W        W83890  42.825   3.971   4.096
17350W        W83891  41.796  33.000   3.284
17351W        W83892  15.953  15.777   2.235
17352W        W83893  22.300   6.154  13.550
17353W        W83894  42.900  28.412  13.024
17354W        W83895   5.726  32.831   9.620
17355W        W83896  15.579  22.107  10.477
17356W        W83897   3.788  14.977  10.504
17357W        W83898  37.806  30.367   0.663
17358W        W83899  19.717  25.791   1.435
17359W        W83900  43.968  13.784   1.408
17360W        W83901  29.432  17.778   2.871
17361W        W83902   6.728  41.975  10.871
17362W        W83903   3.938  28.224  13.891
17363W        W83904  33.779  31.903  13.793
17364W        W83905  31.118  38.409  11.886
17365W        W83906  43.774   3.404  11.206
17366W        W83907   1.341  43.746  13.481
17367W        W83908  27.635  13.583   3.353
17368W        W83909  32.227  23.711  10.303
17369W        W83910  27.447  15.691   2.206
17370W        W83911  44.502   9.797  10.634
17371W        W83912   4.839  13.824   0.901
17372W        W83913   9.030  41.024   5.210
17373W        W83914  10.081  11.794   4.759
17374W        W83915  12.095  21.037   0.337
17375W        W83916  33.657   4.169  12.744
17376W        W83917   7.718   8.990  14.744
17377W        W83918  38.413  10.720  11.605
17378W        W83919  25.334   9.567  10.933
17379W        W83920   2.032  39.741   4.240
17380W        W83921  33.983   9.076  12.622
17381W        W83922  38.832   6.413  13.971
17382W        W83923  31.440   8.655  13.938
17383W        W83924  36.796  22.994   2.775
17384W        W83925   2.838  24.020   0.227
17385W        W83926  28.085  13.164   4.480
17386W        W83927  14.319  13.356  14.936
17387W        W83928  37.897   6.180   3.634
17388W        W83929  17.155  43.984   0.761
17389W        W83930  24.021  15.150  10.790
17390W        W83931  15.633  39.415   4.458
17391W        W83932  21.031  11.256   3.265
17392W        W83933  20.757  30.968   2.706
17393W        W83934  32.017  34.722   1.843
17394W        W83935  32.552  21.751   2.274
17395W        W83936  13.204   1.365  11.777
17396W        W83937  39.936   1.243  12.610
17397W        W83938  43.509  34.129   1.235
17398W        W83939  30.901   4.400  11.007
17399W        W83940  33.191  29.620  14.809
17400W        W83941  36.371   8.738   3.397
17401W        W83942  30.979  20.063  12.121
17402W        W83943  41.354   8.935  13.831
17403W        W83944  32.626   7.898  13.924
17404W        W83945  27.917   8.889   4.095
17405W        W83946  24.977  27.553   3.224
17406W        W83947  23.523  19.172   0.304
17407W        W83948  11.029  22.661  14.020
17408W        W83949  38.853  23.549   0.375
17409W        W83950  28.006  37.856   4.810
17410W        W83951  18.694  28.185  11.231
17411W        W83952  21.801  18.034   0.495
17412W        W83953  20.039  19.720  13.078
17413W        W83954  42.914  25.007   4.358
17414W        W83955  16.462  23.489   3.957
17415W        W83956   6.778  31.500  12.926
17416W        W83957  11.356   0.187   0.480
17417W        W83958  27.020  36.596   0.354
17418W        W83959  41.838  38.839  13.001
17419W        W83960  36.509   2.881   1.494
17420W        W83961  27.722  16.293  10.921
17421W        W83962  15.545  15.143   1.795
17422W        W83963  22.078   2.695  12.832
17423W        W83964   8.336   7.460  12.288
17424W        W83965   0.957  12.096  12.946
17425W        W83966  41.831  28.401   3.770
17426W        W83967  23.914  31.483   4.350
17427W        W83968   3.816  30.940  13.572
17428W        W83969  15.078  44.441   1.360
17429W        W83970   2.564   3.281   1.408
17430W        W83971  41.072  19.167  11.319
17431W        W83972  15.262  29.108  13.761
17432W        W83973  13.085  28.702   3.133
17433W        W83974  40.499  11.562  13.496
17434W        W83975  20.466   7.835   0.054
17435W        W83976  41.539  43.550   1.191
17436W        W83977  21.270  23.768  14.294
17437W        W83978   8.805  17.758   3.238
17438W        W83979  23.716  10.362  10.773
17439W        W83980  13.113   8.859  11.139
17440W        W83981  27.758  40.287   0.332
17441W        W83982  11.706  19.129  14.486
17442W        W83983  33.770  15.680   1.282
17443W        W83984  39.334  41.478   0.238
17444W        W83985  11.574  19.484  10.395
17445W        W83986  20.093  21.075  12.829
17446W        W83987  16.644  19.704   0.716
17447W        W83988  44.306  37.136  13.421
17448W        W83989  24.959   0.825  12.907
17449W        W83990   4.988   1.372   5.715
17450W        W83991  39.485  33.851   3.118
17451W        W83992  18.556  32.136   5.056
17452W        W83993   7.201   2.351  13.015
17453W        W83994  27.374  28.115   2.699
17454W        W83995  25.045  40.302  12.856
17455W        W83996  37.272  19.170   2.094
17456W        W83997  40.568  43.420   3.320
17457W        W83998   3.118  20.721  11.010
17458W        W83999  11.079  44.726  11.543
17459W        W84000   3.656   5.537  11.046
17460W        W84001  32.072  16.673  10.291
17461W        W84002  38.326  34.052   4.043
17462W        W84003  25.702  10.227   2.288
17463W        W84004   1.773  23.090  13.611
17464W        W84005  18.675  24.810  11.298
17465W        W84006   6.716  16.715   2.740
17466W        W84007   4.668   1.498  13.027
17467W        W84008  41.568  10.629   0.615
17468W        W84009  35.959  41.519  11.591
17469W        W84010  28.209   1.841  13.408
17470W        W84011  31.005  15.003   2.816
17471W        W84012  38.986   1.126   2.195
17472W        W84013  12.880  21.337  10.273
17473W        W84014   9.878   4.170   3.914
17474W        W84015  33.015  17.623   3.108
17475W        W84016   4.451  37.871  10.495
17476W        W84017   1.343  30.863   0.487
17477W        W84018  44.524  43.528   2.924
17478W        W84019   1.538  25.058  10.322
17479W        W84020   1.027  28.131  13.633
17480W        W84021  41.740   3.024   0.825
17481W        W84022  19.154  10.261  14.396
17482W        W84023  13.844  27.022  11.168
17483W        W84024   0.130  25.501   0.406
17484W        W84025  18.789  38.949   3.993
17485W        W84026  25.285  25.734   4.236
17486W        W84027  16.108  29.743   1.417
17487W        W84028  43.770  35.545   3.202
17488W        W84029  27.864  33.008  13.414
17489W        W84030  37.850  19.022  13.496
17490W        W84031   9.048  35.867   4.044
17491W        W84032  16.083  16.621   3.286
17492W        W84033   3.686  20.402  12.398
17493W        W84034  10.210  18.038   1.803
17494W        W84035  39.760  27.261  12.981
17495W        W84036   9.369  41.755  11.226
17496W        W84037  23.053  25.600   0.858
17497W        W84038  22.600   7.843  12.107
17498W        W84039  25.179  17.587  12.580
17499W        W84040  44.990  17.328   3.639
17500W        W84041  36.794  39.338   3.853
17501W        W84042   2.751  37.446  11.658
17502W        W84043  34.764  22.430  12.672
17503W        W84044  14.098   4.952   3.225
17504W        W84045   4.692  11.813   3.649
17505W        W84046  28.722  41.488   1.812
17506W        W84047  20.108  33.335   1.905
17507W        W84048  39.536  35.532  14.807
17508W        W84049  25.385  12.076  12.127
17509W        W84050  40.026  21.522   4.347
17510W        W84051   7.197  13.091  12.973
17511W        W84052  14.758  37.423   4.585
17512W        W84053   9.420  18.073  12.427
17513W        W84054  28.436  25.227   4.168
17514W        W84055  33.304  19.163   2.468
17515W        W84056  43.522  17.890   2.576
17516W        W84057  30.071   4.254   4.763
17517W        W84058  23.534  21.690  10.539
17518W        W84059  22.097  14.646   3.132
17519W        W84060  20.043  13.379   1.167
17520W        W84061  33.846  33.919  12.260
17521W        W84062   3.902  21.320  11.396
17522W        W84063  17.810   7.448  13.466
17523W        W84064  26.087  44.789   0.748
17524W        W84065  19.565  42.349  13.056
17525W        W84066  44.960  33.530  13.281
17526W        W84067  10.896   8.348   3.280
17527W        W84068  40.434  29.538   4.625
17528W        W84069   0.365  18.292  12.971
17529W        W84070  24.260  11.868  14.816
17530W        W84071  30.483  37.856  12.404
17531W        W84072  23.456  17.658   1.181
17532W        W84073  21.694   5.238   0.458
17533W        W84074  16.559  43.436   2.782
17534W        W84075  17.782  20.499  12.145
17535W        W84076  37.263  31.335   0.019
17536W        W84077  22.148  38.441  10.597
17537W        W84078   6.070  23.887   2.363
17538W        W84079  10.284  35.658   0.297
17539W        W84080   6.082  41.878   2.301
17540W        W84081  25.013  43.804   1.445
17541W        W84082  30.322  29.903   3.909
17542W        W84083  33.439   5.968  10.700
17543W        W84084  17.269  18.274   1.821
17544W        W84085  44.883  35.617  13.065
17545W        W84086  12.349   8.880   3.110
17546W        W84087  32.583  24.704   4.607
17547W        W84088  31.263  27.291   0.075
17548W        W84089  14.280  15.299  13.983
17549W        W84090   2.535  19.584  11.551
17550W        W84091  31.042  17.326  13.876
17551W        W84092  36.015  44.930  13.898
17552W        W84093  12.888  43.863  13.054
17553W        W84094  15.298  33.181  12.452
17554W        W84095  31.447  42.681   1.428
17555W        W84096  18.680  41.392   2.628
17556W        W84097  14.256  29.978  11.142
17557W        W84098   6.925   3.823  13.344
17558W        W84099  30.111  15.219   3.762
17559W        W84100  39.314  32.566   2.346
17560W        W84101  41.409  31.008   0.036
17561W        W84102   7.283  37.507  13.819
17562W        W84103   6.002  29.152   1.702
17563W        W84104   4.711  11.701  10.661
17564W        W84105  27.356  17.252   4.647
17565W        W84106  29.155  19.270   2.393
17566W        W84107  42.589  14.191   0.971
17567W        W84108   2.429   5.284   1.298
17568W        W84109  16.060  37.071  12.488
17569W        W84110  33.614  40.414   0.771
17570W        W84111  37.044   1.527  12.535
17571W        W84112  22.879  22.087  12.042
17572W        W84113  12.400  25.731  11.191
17573W        W84114  31.603  40.788   3.789
17574W        W84115  31.970  41.008   4.080
17575W        W84116   0.283  27.709  14.415
17576W        W84117  26.267  33.373   2.295
17577W        W84118  27.758  39.050  12.403
17578W        W84119  43.227  15.874   4.232
17579W        W84120  11.290  18.614   1.000
17580W        W84121  27.067  13.560  14.992
17581W        W84122  23.476  14.606  12.964
17582W        W84123  40.875  30.146   3.458
17583W        W84124  36.650   2.687  10.311
17584W        W84125  27.680  20.080   4.490
17585W        W84126  28.984  13.791  14.783
17586W        W84127   5.861  21.332   3.740
17587W        W84128   6.390   6.814  13.518
17588W        W84129  24.997  29.618  10.458
17589W        W84130  15.706  32.316   2.732
17590W        W84131  30.765  13.255  13.620
17591W        W84132  24.158  32.702  11.084
17592W        W84133   3.885  40.819   2.589
17593W        W84134  22.643   2.490   2.462
17594W        W84135  13.853   0.689  14.778
17595W        W84136  25.829   4.279   3.070
17596W        W84137  30.326  15.699  12.739
17597W        W84138  10.447  29.104   1.903
17598W        W84139  32.489   7.928  14.906
17599W        W84140   3.935  15.222   2.310
17600W        W84141   3.778  41.580   3.404
17601W        W84142   1.333  20.604   1.940
17602W        W84143  26.961  30.592   2.318
17603W        W84144  36.908  39.205  13.886
17604W        W84145   6.843   7.424  12.869
17605W        W84146   7.356  43.194   1.746
17606W        W84147   9.618  43.542  12.005
17607W        W84148  31.725  19.656   3.665
17608W        W84149  20.374  16.163  12.101
17609W        W84150  12.372  32.520   3.216
17610W        W84151   8.307  43.460  12.031
17611W        W84152  18.820  16.066  13.258
17612W        W84153   4.430  32.289   2.761
17613W        W84154  10.607  25.073   3.731
17614W        W84155  16.777  20.489  12.151
17615W        W84156  13.761  20.190  14.408
17616W        W84157  38.424  44.347  12.809
17617W        W84158  37.909  29.933  11.625
17618W        W84159  21.697  18.792   3.351
17619W        W84160  26.027  42.622   2.361
17620W        W84161  18.822  35.924   4.485
17621W        W84162  37.572   0.417   1.479
17622W        W84163  38.447  12.724  10.755
17623W        W84164  41.524  20.715   1.739
17624W        W84165  36.484  10.674   3.445
17625W        W84166  21.198  36.019  10.593
17626W        W84167  14.780  15.107   3.314
17627W        W84168  19.662   6.094  11.261
17628W        W84169   7.150   2.783   2.833
17629W        W84170  28.012  14.362   3.752
17630W        W84171  31.949  19.699  11.395
17631W        W84172  26.582  36.283   4.208
17632W        W84173   6.131  39.303   2.803
17633W        W84174  18.075  13.324  13.042
17634W        W84175  31.432  33.318  13.467
17635W        W84176   6.835   5.751  13.788
17636W        W84177  36.734  37.960  12.549
17637W        W84178   8.752  10.149   3.130
17638W        W84179   3.225  38.213  13.997
17639W        W84180   5.888  12.743   2.630
17640W        W84181   8.149  38.445  12.656
17641W        W84182  30.074   1.767   3.725
17642W        W84183  32.732  14.174  14.663
17643W        W84184  26.463  33.603  11.100
17644W        W84185  28.980  16.710   4.838
17645W        W84186  19.677  38.437   4.362
17646W        W84187  29.205  42.725   1.914
17647W        W84188  33.192  26.302  14.751
17648W        W84189  12.870   4.830   3.682
17649W        W84190   9.364  44.854  11.728
17650W        W84191  15.384  30.504   3.072
17651W        W84192  44.783  32.421   3.599
17652W        W84193  34.089   3.595   2.367
17653W        W84194  38.912  40.487  14.442
17654W        W84195  20.126  16.092   0.685
17655W        W84196   3.956   4.073  14.208
17656W        W84197   1.180  33.738  14.807
17657W        W84198  19.864  16.710  11.141
17658W        W84199  30.451  11.186   4.233
17659W        W84200  24.175  15.232   1.204
17660W        W84201  21.165   8.257   4.059
17661W        W84202  41.807  37.877   4.220
17662W        W84203  37.794  33.358   3.606
17663W        W84204  41.067  41.371  14.809
17664W        W84205  39.359  30.655   3.545
17665W        W84206  34.795  37.837  12.358
17666W        W84207  38.603   5.332   2.206
17667W        W84208   0.088   1.002  12.938
17668W        W84209  19.420  44.986   4.488
17669W        W84210  37.460  25.064  12.982
17670W        W84211  30.983  32.491  14.353
17671W        W84212   1.917  42.875   4.166
17672W        W84213   0.664  16.728  10.682
17673W        W84214   4.506  16.118   1.916
17674W        W84215  41.066  18.043  12.722
17675W        W84216   5.452  40.737   1.256
17676W        W84217  41.019  29.248   3.934
17677W        W84218  17.804  21.875   0.582
17678W        W84219  26.980   5.439  12.015
17679W        W84220  11.701  38.012  14.024
17680W        W84221  39.305   7.684  14.044
17681W        W84222  19.601   9.404   0.416
17682W        W84223  32.882  15.859   0.760
17683W        W84224  30.472  35.550  13.013
17684W        W84225   3.636  34.890  12.400
17685W        W84226  10.093  40.483  13.837
17686W        W84227   4.273  37.918  12.967
17687W        W84228  14.827   3.431  11.918
17688W        W84229   4.792  21.233  12.511
17689W        W84230  37.652   4.443   2.420
17690W        W84231  33.078   4.894   0.884
17691W        W84232   7.688  21.742  14.352
17692W        W84233  39.396  44.979  12.413
17693W        W84234   4.746  25.435  13.371
17694W        W84235  15.607  10.148  10.716
17695W        W84236  14.016  22.066   0.048
17696W        W84237   4.310  10.603   0.787
17697W        W84238  36.442  41.391   3.790
17698W        W84239  26.499   3.871  11.670
17699W        W84240  32.380  36.052   0.239
17700W        W84241   1.656  16.025   2.061
17701W        W84242   2.521  39.504  14.791
17702W        W84243  11.398  19.846   0.485
17703W        W84244  37.378  14.591  10.791
17704W        W84245  26.518  15.194   0.742
17705W        W84246  26.665  25.363  12.897
17706W        W84247  44.657  28.781   4.031
17707W        W84248  30.906  34.555   4.662
17708W        W84249  26.514  21.711  11.993
17709W        W84250  22.219  25.839   2.817
17710W        W84251   6.195  17.164   2.104
17711W        W84252  21.173  38.130  10.085
17712W        W84253  44.517  30.551   3.232
17713W        W84254  29.073   4.516  11.287
17714W        W84255  13.258  27.651  11.567
17715W        W84256  11.292  16.826  10.369
17716W        W84257  13.379   4.725   1.798
17717W        W84258   2.723  10.842   4.223
17718W        W84259   5.418  25.611   3.633
17719W        W84260  38.553  23.422   1.503
17720W        W84261  19.768  10.877  13.294
17721W        W84262  24.053  39.742   1.625
17722W        W84263  25.560   8.833  13.575
17723W        W84264  14.092  28.611  12.469
17724W        W84265  11.642  42.296   0.449
17725W        W84266  13.827  30.931  13.398
17726W        W84267  26.690   2.153   1.187
17727W        W84268  18.876   6.413   3.130
17728W        W84269  11.323  21.985   2.906
17729W        W84270  21.132  25.448   1.311
17730W        W84271  17.109  38.657  13.901
17731W        W84272  14.843   1.306   4.686
17732W        W84273  11.665  39.331   3.814
17733W        W84274  22.687  17.236   3.186
17734W        W84275  34.476  36.379   2.746
17735W        W84276   2.042  19.576   1.974
17736W        W84277  15.266  39.206  13.281
17737W        W84278  16.111  27.206   3.650
17738W        W84279  12.330   8.674   4.173
17739W        W84280  32.699  27.951   3.737
17740W        W84281  35.337  43.196  13.894
17741W        W84282   3.007  38.595  12.021
17742W        W84283  38.693  32.589   0.456
17743W        W84284  36.819  30.087   4.237
17744W        W84285   3.633  44.951  14.857
17745W        W84286  22.152   5.714   0.699
17746W        W84287   3.421   1.863  13.511
17747W        W84288  43.047  25.064  12.483
17748W        W84289  40.355  37.357  11.344
17749W        W84290  39.633  22.860  11.114
17750W        W84291  32.381  37.864   3.705
17751W        W84292   7.426  25.965   5.585
17752W        W84293   4.269   9.090   2.885
17753W        W84294  24.120  35.847  10.368
17754W        W84295  33.455   7.249   0.437
17755W        W84296  22.719  26.229  12.930
17756W        W84297  21.528  44.311   0.434
17757W        W84298  41.396  29.441  11.463
17758W        W84299  38.869  22.237   3.880
17759W        W84300  31.442   8.493  14.445
17760W        W84301  15.461  28.470   2.274
17761W        W84302  18.006  36.719  14.374
17762W        W84303   0.314   3.769   1.925
17763W        W84304   4.363  28.671   3.450
17764W        W84305  38.907  26.161   3.584
17765W        W84306  29.989  20.221  13.611
17766W        W84307  40.728   5.814  10.564
17767W        W84308  16.503  18.062  10.810
17768W        W84309   6.717   5.358  14.791
17769W        W84310  32.915  23.561  13.756
17770W        W84311  18.843  42.326  11.068
17771W        W84312  36.228  37.366  12.557
17772W        W84313  36.516  26.140  14.454
17773W        W84314   9.840  43.247   0.215
17774W        W84315  41.359  23.761   0.753
17775W        W84316  32.722   1.799   2.594
17776W        W84317  41.031  42.037   2.141
17777W        W84318  13.371  38.099  14.243
17778W        W84319   7.221   1.916  13.286
17779W        W84320  40.309   1.824  10.763
17780W        W84321   0.529  11.664  10.634
17781W        W84322  39.011  16.275  11.965
17782W        W84323  25.668  21.240  11.032
17783W        W84324  19.199  36.282  10.689
17784W        W84325  13.785   9.656  10.736
17785W        W84326  17.036  15.431   2.256
17786W        W84327   2.840  33.087   1.060
17787W        W84328  31.096  40.045   5.075
17788W        W84329  44.332  36.493  10.410
17789W        W84330  31.781  30.931   1.068
17790W        W84331  41.431  23.679   2.841
17791W        W84332  37.767  13.662   0.748
17792W        W84333  40.027  42.323   1.317
17793W        W84334  43.006   0.736   0.379
17794W        W84335  42.001  40.940   3.603
17795W        W84336  18.159  12.639  10.638
17796W        W84337  28.352   3.377   0.244
17797W        W84338  39.581  41.826   3.176
17798W        W84339   4.654  19.705   1.711
17799W        W84340  42.065  19.349  14.733
17800W        W84341  19.805   8.349   1.437
17801W        W84342  15.091  30.939   3.213
17802W        W84343  14.021  12.172  12.874
17803W        W84344  12.246  27.209  11.867
17804W        W84345  33.709  12.256   4.712
17805W        W84346   0.354  42.415   4.516
17806W        W84347  12.421  43.562  12.414
17807W        W84348  24.295   7.176  12.254
17808W        W84349  25.772  32.379   0.478
17809W        W84350   7.023  11.394  13.571
17810W        W84351  26.075  33.820   0.489
17811W        W84352  22.669   9.816   4.669
17812W        W84353  23.382  39.323   1.371
17813W        W84354   8.946   1.807   3.213
17814W        W84355  30.563  14.370   2.084
17815W        W84356  13.025  10.276  14.018
17816W        W84357  20.530  27.005   1.752
17817W        W84358  19.568  30.894  12.106
17818W        W84359  14.668  43.697  10.744
17819W        W84360  10.642  40.793  12.156
17820W        W84361  41.087  30.609   0.755
17821W        W84362   5.411  26.488   1.422
17822W        W84363  34.658   8.261   0.475
17823W        W84364  43.837  43.276   4.169
17824W        W84365  26.112  33.433  14.263
17825W        W84366  28.135  23.490  11.084
17826W        W84367  20.762  13.575   3.606
17827W        W84368  18.546  36.613  14.475
17828W        W84369  36.010  20.539  13.943
17829W        W84370   5.814  17.474   1.054
17830W        W84371   7.932  21.576   4.248
17831W        W84372  13.764   6.204   4.017
17832W        W84373  15.873   2.764  10.741
17833W        W84374  12.622   2.860   1.982
17834W        W84375   4.269   3.805   4.066
17835W        W84376  23.541  38.386   2.177
17836W        W84377   5.339   4.012  12.499
17837W        W84378  19.220  39.983  12.850
17838W        W84379   1.672  17.096  14.722
17839W        W84380  16.161  33.004  12.739
17840W        W84381  14.222  21.840   0.479
17841W        W84382   8.144  13.785   5.022
17842W        W84383  17.641  25.235   4.572
17843W        W84384  33.388  37.576   0.298
17844W        W84385   4.210  29.044   1.731
17845W        W84386  35.413   0.394   4.050
17846W        W84387   1.884  25.903   1.238
17847W        W84388  21.457  13.791   4.152
17848W        W84389  37.092  20.699   3.821
17849W        W84390  39.498  30.096  14.022
17850W        W84391  34.875   2.339  12.902
17851W        W84392   1.881   4.239  11.587
17852W        W84393   1.972  10.084  13.866
17853W        W84394  20.656  16.572  13.356
17854W        W84395   3.372  44.525  12.547
17855W        W84396  31.105  32.638  10.676
17856W        W84397  22.788  36.715  12.545
17857W        W84398   6.032   2.388  13.971
17858W        W84399  44.243  44.408  11.276
17859W        W84400  24.913  33.060   2.387
17860W        W84401  30.326   6.287   3.716
17861W        W84402   5.620  15.240  12.941
17862W        W84403  25.445  11.110  13.855
17863W        W84404  20.995  32.982   3.771
17864W        W84405  11.591  18.702  13.392
17865W        W84406  28.754  35.086   4.608
17866W        W84407   7.792  29.744   5.121
17867W        W84408  12.879  10.595  13.152
17868W        W84409  17.153   1.377   4.090
17869W        W84410  19.783  17.705   1.928
17870W        W84411   4.414  24.456   0.236
17871W        W84412  36.480  22.650   2.242
17872W        W84413  14.739   4.603   4.063
17873W        W84414  27.596   9.972  11.116
17874W        W84415  20.656  40.527   2.452
17875W        W84416  34.985  28.326   1.719
17876W        W84417  41.316   2.985   2.641
17877W        W84418  30.125  39.920  14.536
17878W        W84419  23.957  17.554   1.244
17879W        W84420  28.630   2.444   3.123
17880W        W84421  35.438  12.186  13.510
17881W        W84422  33.510  34.600  14.335
17882W        W84423  42.960  12.786   2.416
17883W        W84424  28.349  27.460  14.689
17884W        W84425  35.547  39.534   1.220
17885W        W84426  39.517   5.718  11.445
17886W        W84427   0.299  27.484   0.712
17887W        W84428  12.255  20.709  12.454
17888W        W84429  22.011   4.373  13.243
17889W        W84430  37.712  32.459   2.089
17890W        W84431   2.928  42.034  14.617
17891W        W84432  17.720  30.561   5.001
17892W        W84433  15.280  30.911  10.237
17893W        W84434  44.440  16.724   1.935
17894W        W84435  37.491  24.707  14.194
17895W        W84436  35.520  37.481  11.460
17896W        W84437   5.637  15.891   0.227
17897W        W84438  36.996  13.399   1.199
17898W        W84439  16.252  15.057  12.015
17899W        W84440  27.823  16.433  14.569
17900W        W84441  40.776  19.512   2.833
17901W        W84442  40.782  20.535  11.523
17902W        W84443   1.849  26.089   0.752
17903W        W84444  24.044  39.824  14.753
17904W        W84445  36.436  17.465  13.107
17905W        W84446  38.460  37.767  10.378
17906W        W84447  16.381  23.705  10.756
17907W        W84448  28.622  13.676   0.197
17908W        W84449  20.596  23.147  12.951
17909W        W84450  34.852  43.040   0.758
17910W        W84451  38.199  32.419   0.551
17911W        W84452   0.786   3.858  13.339
17912W        W84453  44.219   3.562   0.348
17913W        W84454   1.545  14.246  11.551
17914W        W84455  34.826  39.844   4.307
17915W        W84456  18.366   6.068  13.604
17916W        W84457  44.629   5.166   3.199
17917W        W84458  22.727  23.180   1.475
17918W        W84459  18.756  39.255   0.959
17919W        W84460  38.936  12.086  11.541
17920W        W84461  37.831  13.281  11.065
17921W        W84462  32.025   6.589  12.124
17922W        W84463  23.705   2.774  12.500
17923W        W84464  31.117  43.789  12.636
17924W        W84465   9.456  31.046   0.201
17925W        W84466  42.192   6.906  14.239
17926W        W84467  40.770  25.722  11.106
17927W        W84468  36.755   2.329  10.683
17928W        W84469  31.491   0.062  11.472
17929W        W84470  13.578  21.106   3.311
17930W        W84471  12.821  31.119   4.251
17931W        W84472  33.390   2.019   0.849
17932W        W84473   3.503  41.585   2.881
17933W        W84474  35.951  28.537  12.930
17934W        W84475  29.613   6.882   4.180
17935W        W84476  20.580  24.493   2.156
17936W        W84477  38.816   0.490   4.576
17937W        W84478   1.089  41.439  12.880
17938W        W84479   8.084  16.560  13.437
17939W        W84480  25.711  36.038   2.614
17940W        W84481  16.439  25.362   2.257
17941W        W84482  24.495  17.102   0.850
17942W        W84483   3.964  34.090   3.353
17943W        W84484   7.989  10.219  13.910
17944W        W84485   8.326  15.557  13.854
17945W        W84486   7.460  33.844   2.807
17946W        W84487  19.724   6.312  13.293
17947W        W84488  21.127  41.214  14.392
17948W        W84489  40.322   4.071   3.276
17949W        W84490   8.947  19.727  14.776
17950W        W84491   4.225  43.595   3.006
17951W        W84492  35.463  39.017  12.347
17952W        W84493   8.158  31.850   2.695
17953W        W84494   0.471  33.518  13.252
17954W        W84495   0.374  12.912   4.240
17955W        W84496  27.668  36.102   2.968
17956W        W84497  37.105  29.678   1.515
17957W        W84498  41.266   1.159   4.571
17958W        W84499  43.891  22.634   1.154
17959W        W84500  10.786   4.854   3.242
17960W        W84501  21.014   8.978   3.623
17961W        W84502   1.781  41.519   4.745
17962W        W84503   3.213  25.930  12.717
17963W        W84504  39.081  22.555   1.174
17964W        W84505   4.422  31.684   2.268
17965W        W84506  10.349  21.217   4.508
17966W        W84507   9.928  21.655  14.902
17967W        W84508  27.021  43.329   1.763
17968W        W84509  28.170  35.596  13.415
17969W        W84510  30.589  15.287   0.227
17970W        W84511  21.171  25.727  12.948
17971W        W84512  42.788  34.915  11.158
17972W        W84513  23.206   7.335   0.680
17973W        W84514   4.982  33.540  14.844
17974W        W84515  34.711  34.751  13.078
17975W        W84516  25.178  36.984  14.391
17976W        W84517  31.947  40.864  12.002
17977W        W84518  22.944  27.104  11.724
17978W        W84519  14.292  32.884   4.129
17979W        W84520  19.010  29.823  12.589
17980W        W84521  40.881  40.908  13.540
17981W        W84522   8.707  25.527   2.796
17982W        W84523  31.226  30.905   1.768
17983W        W84524  42.827  44.838   2.158
17984W        W84525  22.277  33.051   1.259
17985W        W84526  23.019   7.487   2.331
17986W        W84527   7.211  10.586  10.818
17987W        W84528  27.346   4.900  12.225
17988W        W84529  13.265   2.606   3.792
17989W        W84530  39.784   9.307   2.854
17990W        W84531  21.842   1.479   1.414
17991W        W84532  43.506  42.961  13.428
17992W        W84533  20.980  31.576   3.845
17993W        W84534  33.829   7.256  14.471
17994W        W84535  27.005  40.460   1.241
17995W        W84536  44.823  28.155  14.701
17996W        W84537  40.258   6.848  13.846
17997W        W84538  22.207  34.548   1.286
17998W        W84539  38.449  39.091  10.601
17999W        W84540  28.645  13.136  13.554
18000W        W84541  12.483  11.893   1.874
18001W        W84542  42.379   1.933   4.930
18002W        W84543  19.266   2.406  14.286
18003W        W84544  23.702  19.626   2.230
18004W        W84545  19.533  24.515  12.476
18005W        W84546  37.356  20.879   2.840
18006W        W84547  23.110  40.250  14.368
18007W        W84548  23.765  19.393   2.947
18008W        W84549   1.533   3.398   2.299
18009W        W84550   5.878  16.062   2.168
18010W        W84551  16.554  27.896  11.681
18011W        W84552  44.198  28.699   0.258
18012W        W84553  44.407  30.453  12.938
18013W        W84554  19.039  43.977  13.725
18014W        W84555  40.438  40.111  11.237
18015W        W84556  38.429  13.834  13.331
18016W        W84557  39.152  21.931  11.589
18017W        W84558  32.776   6.019   1.750
18018W        W84559   0.205  18.731  13.544
18019W        W84560   2.811  22.991   1.834
18020W        W84561   2.213   2.032  12.035
18021W        W84562  34.398  17.260  12.071
18022W        W84563  16.040   3.486  13.453
18023W        W84564  17.845  38.083  11.480
18024W        W84565   8.587  17.769  10.664
18025W        W84566  44.533  40.108  13.599
18026W        W84567  28.445  29.956   2.819
18027W        W84568  11.919  12.219   3.740
18028W        W84569  27.471   1.916  10.505
18029W        W84570  41.492  28.675  13.965
18030W        W84571  37.298  11.636   1.274
18031W        W84572  14.869  29.931   9.829
18032W        W84573  17.739  16.669   0.850
18033W        W84574   9.462  22.365   3.164
18034W        W84575  43.400  39.206  11.955
18035W        W84576  39.690  26.503  11.595
18036W        W84577  43.537   4.801  14.798
18037W        W84578  29.392  37.053   4.635
18038W        W84579  28.086  24.941  13.450
18039W        W84580  40.541  33.860  14.235
18040W        W84581   8.680  34.649  10.473
18041W        W84582   6.730  41.575   2.925
18042W        W84583   9.706   4.395  13.826
18043W        W84584  24.955  31.968  12.038
18044W        W84585  40.619  32.299   1.708
18045W        W84586  24.170  18.093  12.059
18046W        W84587   6.834   3.679  10.733
18047W        W84588  11.693   6.683   0.458
18048W        W84589  23.263  29.015  13.366
18049W        W84590  29.064   7.878  13.957
18050W        W84591  40.705  21.849   1.276
18051W        W84592  23.462  14.190   1.814
18052W        W84593  38.502   4.251  13.539
18053W        W84594   2.369  13.507   2.309
18054W        W84595  14.817   9.905  13.426
18055W        W84596  22.307  36.553   4.934
18056W        W84597   7.733  36.125   1.648
18057W        W84598  18.088  40.437  14.536
18058W        W84599  34.511   6.483   1.705
18059W        W84600  38.153  35.879  14.384
18060W        W84601  38.609   3.780   0.768
18061W        W84602  40.978  33.875   3.651
18062W        W84603   1.036  37.017   2.451
18063W        W84604  43.286  18.135  13.356
18064W        W84605   9.079  30.133   3.408
18065W        W84606  26.608   0.801   9.970
18066W        W84607  34.933  27.701  12.052
18067W        W84608  28.950  13.297  13.969
18068W        W84609  28.749  11.107  13.394
18069W        W84610   9.183  25.738   2.838
18070W        W84611  40.533  12.861   1.231
18071W        W84612  34.493  13.614  12.075
18072W        W84613  23.974  34.111   3.427
18073W        W84614   4.486   3.414   2.801
18074W        W84615  12.612  26.626  11.506
18075W        W84616  21.061   9.689   2.421
18076W        W84617   8.187  41.701  14.611
18077W        W84618  38.204  41.234   0.051
18078W        W84619  25.611  36.716  14.261
18079W        W84620  31.494  33.731   1.269
18080W        W84621  34.460   8.905  10.653
18081W        W84622  15.706   6.668  11.562
18082W        W84623   0.430  32.746  12.980
18083W        W84624  11.846  20.065   0.597
18084W        W84625  13.617  15.357  11.115
18085W        W84626   9.062  15.496   1.302
18086W        W84627  36.809  17.041   0.438
18087W        W84628   9.077   8.250  13.328
18088W        W84629  27.279   5.775   1.413
18089W        W84630   2.806  16.172   0.404
18090W        W84631   4.328  35.805  12.954
18091W        W84632  39.022  42.611   3.628
18092W        W84633   3.712  16.245  14.802
18093W        W84634  30.003  23.257   3.642
18094W        W84635  25.654   4.204   0.390
18095W        W84636   9.878  33.440  12.877
18096W        W84637  14.266   8.337   0.397
18097W        W84638  22.090  16.730  11.613
18098W        W84639   5.846   7.703   1.196
18099W        W84640  12.906   2.224  10.635
18100W        W84641  37.382  19.485   0.034
18101W        W84642  40.347  26.200   1.872
18102W        W84643  29.208  40.876  13.072
18103W        W84644  36.866  13.840  14.483
18104W        W84645   6.943  33.062   0.863
18105W        W84646  44.501  25.618  12.789
18106W        W84647   8.145  35.992   4.119
18107W        W84648  10.078  20.046  10.668
18108W        W84649  44.286  10.104   0.754
18109W        W84650   7.087  25.251  10.925
18110W        W84651  14.049   7.775   2.779
18111W        W84652  11.773  35.647  10.744
18112W        W84653  17.257   3.461  11.973
18113W        W84654  40.421  20.072  12.476
18114W        W84655   3.203  34.399   2.957
18115W        W84656  37.802  39.923  12.541
18116W        W84657  32.688  32.857  11.144
18117W        W84658  26.430  12.497   0.673
18118W        W84659  29.464  21.043   5.104
18119W        W84660  32.421  17.731   1.884
18120W        W84661  39.049  44.813   1.673
18121W        W84662  30.178  24.944   3.178
18122W        W84663  29.975  31.836   4.695
18123W        W84664  40.273  36.658  13.050
18124W        W84665  32.618  17.614  13.118
18125W        W84666  25.398   8.208  10.906
18126W        W84667   8.839  33.002  12.343
18127W        W84668  40.140  42.738  13.792
18128W        W84669  13.882  44.337   1.771
18129W        W84670  39.439  37.800   2.257
18130W        W84671  36.285  15.943   4.097
18131W        W84672  27.803  30.416   0.137
18132W        W84673   2.389  33.547   3.737
18133W        W84674  28.982  28.051  12.855
18134W        W84675   8.967   2.207  11.078
18135W        W84676   3.415   2.379  13.774
18136W        W84677  12.751  38.526   1.711
18137W        W84678  38.055   5.884  13.655
18138W        W84679  18.031  20.213  11.632
18139W        W84680  39.126   5.427  11.083
18140W        W84681  20.329  32.350   2.888
18141W        W84682  31.970  33.486  14.382
18142W        W84683  33.887  17.230   2.811
18143W        W84684  42.740  31.302   3.126
18144W        W84685  24.989  31.123   3.779
18145W        W84686  37.465  34.008   1.859
18146W        W84687  37.939  24.734   0.868
18147W        W84688  38.213  43.003   2.138
18148W        W84689  28.134  25.537  12.528
18149W        W84690  13.770   6.175  11.128
18150W        W84691  41.362  43.886   2.481
18151W        W84692   3.311   9.513  11.342
18152W        W84693   4.631  35.109  11.016
18153W        W84694  35.549  12.797   1.394
18154W        W84695  11.512  40.918   1.070
18155W        W84696  10.812  34.517  14.004
18156W        W84697   5.703   5.725   4.161
18157W        W84698   2.424   4.904  13.485
18158W        W84699  36.546  26.677   2.075
18159W        W84700  15.560  10.145  14.660
18160W        W84701  18.555  41.901  11.837
18161W        W84702  34.009  25.149   0.866
18162W        W84703  10.905  35.994  14.520
18163W        W84704  22.474  32.067  11.054
18164W        W84705   4.174  43.880  10.898
18165W        W84706  42.766  21.647   4.205
18166W        W84707  22.463  31.499   1.460
18167W        W84708  21.033  32.939   1.020
18168W        W84709  17.687  24.169   3.819
18169W        W84710  23.352  27.638  13.404
18170W        W84711   9.892  18.547   2.977
18171W        W84712  44.013   6.296   0.850
18172W        W84713  40.250  36.408   1.824
18173W        W84714  13.279  29.904   0.022
18174W        W84715  21.513  21.846   2.453
18175W        W84716   1.280  25.925   3.157
18176W        W84717  43.342  30.379  12.672
18177W        W84718   8.800   8.720   0.761
18178W        W84719  16.824  24.098  12.946
18179W        W84720  39.972  31.654  12.266
18180W        W84721  39.670  21.598   2.848
18181W        W84722  20.727   6.865  12.102
18182W        W84723   2.036  12.091   3.804
18183W        W84724  17.992  35.723   0.902
18184W        W84725  18.475   9.879   4.137
18185W        W84726  27.143  19.165   0.899
18186W        W84727   1.385   2.962   1.313
18187W        W84728  37.838  39.071  11.197
18188W        W84729   4.374  29.667  12.974
18189W        W84730   7.281  18.019  13.818
18190W        W84731  38.347   8.064  14.215
18191W        W84732  15.331  17.996   2.639
18192W        W84733   1.223  39.139  12.164
18193W        W84734  24.551  26.441   0.815
18194W        W84735   8.392  26.023   0.055
18195W        W84736   4.696  35.879   0.829
18196W        W84737  41.619  24.613   2.338
18197W        W84738  32.461  14.246  13.422
18198W        W84739  19.546   1.726   3.562
18199W        W84740  16.595  42.525   2.831
18200W        W84741  44.032   4.885   2.220
18201W        W84742  17.043  27.082   0.732
18202W        W84743  25.423  12.625  14.413
18203W        W84744  43.762  14.669  11.455
18204W        W84745   2.006  31.610  13.454
18205W        W84746   0.172  22.756   1.105
18206W        W84747  27.655  13.753   1.427
18207W        W84748  18.045  35.523  12.198
18208W        W84749  36.315  26.056   1.487
18209W        W84750  16.881  33.118   4.373
18210W        W84751  30.103  19.460  12.564
18211W        W84752  43.348  25.412   3.294
18212W        W84753  31.093  28.462   3.630
18213W        W84754  21.004  16.610  13.743
18214W        W84755  17.332   0.436   4.286
18215W        W84756  33.101   9.624   2.609
18216W        W84757  16.347  27.658  10.491
18217W        W84758  44.507  34.193   1.725
18218W        W84759  25.484  17.895   0.423
18219W        W84760  25.292  34.924  14.553
18220W        W84761  28.574  28.571   1.759
18221W        W84762  41.553  29.499  10.983
18222W        W84763  19.036  39.731  13.271
18223W        W84764  35.436  30.865  14.258
18224W        W84765  16.693   1.767  11.211
18225W        W84766  36.179  24.619  11.699
18226W        W84767  27.839  28.467   0.218
18227W        W84768  39.851  15.866   3.707
18228W        W84769  34.507  36.341  12.448
18229W        W84770   5.231  26.286   1.877
18230W        W84771  44.518   4.802   5.219
18231W        W84772   8.180  17.301  10.644
18232W        W84773  34.483  20.991  13.062
18233W        W84774  34.498  16.189   1.219
18234W        W84775  30.569   1.712   2.374
18235W        W84776  23.928  28.664  14.172
18236W        W84777  19.554  34.545  14.190
18237W        W84778  35.104  38.485   0.406
18238W        W84779  22.933  18.285   3.319
18239W        W84780  23.959  31.714   2.173
18240W        W84781   4.013  19.734   5.311
18241W        W84782  43.074  21.149   3.764
18242W        W84783  33.296   9.113  10.109
18243W        W84784  30.727  16.249   4.141
18244W        W84785  13.945  32.999   1.798
18245W        W84786  42.715   4.304  11.124
18246W        W84787  15.353  28.422  11.256
18247W        W84788  12.236   6.716  14.843
18248W        W84789  12.619  41.435   4.547
18249W        W84790  22.409   3.454  13.462
18250W        W84791  36.075   5.768  11.875
18251W        W84792  39.529  18.583  14.072
18252W        W84793  21.866   6.875   1.995
18253W        W84794   6.889  35.524   0.281
18254W        W84795   3.969  25.975  11.828
18255W        W84796  27.785  41.409  14.994
18256W        W84797  37.930  40.439   0.427
18257W        W84798  41.884   5.720  12.100
18258W        W84799  10.071  40.033   2.319
18259W        W84800  39.313  11.606   5.359
18260W        W84801  16.494  37.260  12.068
18261W        W84802  34.984   3.992   1.738
18262W        W84803  43.980  10.183  13.848
18263W        W84804   5.381   1.018   5.550
18264W        W84805  39.914   2.863   4.338
18265W        W84806   9.189   5.223  11.563
18266W        W84807  19.587  30.928  13.902
18267W        W84808  34.759  17.883  13.100
18268W        W84809  13.589  13.578  11.795
18269W        W84810  36.132  23.553  10.657
18270W        W84811  36.943   2.913   1.789
18271W        W84812   0.318   4.234   1.709
18272W        W84813   8.162  37.856   4.926
18273W        W84814   1.462  22.516  11.889
18274W        W84815  39.407  12.441  12.001
18275W        W84816  43.530   3.721  12.484
18276W        W84817  29.294  19.620   0.632
18277W        W84818   2.396   9.269   1.733
18278W        W84819  11.819  43.938   3.967
18279W        W84820  36.502  40.724   4.365
18280W        W84821  11.644  19.772  12.360
18281W        W84822  24.246  13.235   1.007
18282W        W84823  24.003   7.718   4.509
18283W        W84824  10.825  17.301  13.408
18284W        W84825  33.375  18.802  12.018
18285W        W84826  39.491   6.927  13.534
18286W        W84827  42.113  19.573   1.848
18287W        W84828  38.446   1.348   4.341
18288W        W84829  34.468  26.886  12.626
18289W        W84830  33.872   1.583   2.631
18290W        W84831   3.728  42.956  12.498
18291W        W84832  33.982   8.785  11.439
18292W        W84833   6.453  38.807   2.086
18293W        W84834   4.252   0.739  10.228
18294W        W84835  32.526  23.235  11.566
18295W        W84836  10.368  37.341   2.819
18296W        W84837  23.947  17.765  10.774
18297W        W84838  24.845  10.580  10.756
18298W        W84839  12.511  25.727   1.272
18299W        W84840   6.105   3.695  11.935
18300W        W84841  12.780  31.932  14.348
18301W        W84842   4.768   6.538   2.198
18302W        W84843  43.881  36.571  12.969
18303W        W84844   5.345  36.103   0.822
18304W        W84845  12.143  41.693   1.917
18305W        W84846   1.921  23.151  10.266
18306W        W84847  39.064  43.961   4.559
18307W        W84848   3.854   2.531   1.483
18308W        W84849  33.856  15.744  13.391
18309W        W84850  18.074  37.428   2.067
18310W        W84851  36.845  18.126  14.471
18311W        W84852   4.787   8.699   0.166
18312W        W84853  36.128  34.000   1.826
18313W        W84854  25.393  44.526   4.150
18314W        W84855  40.500  43.046  11.208
18315W        W84856  29.410   6.398   0.764
18316W        W84857  42.126   9.304   1.734
18317W        W84858   8.279  40.562   2.778
18318W        W84859   5.922   1.294  13.973
18319W        W84860  12.591  22.119  13.983
18320W        W84861  13.142  27.748  12.466
18321W        W84862   6.664  41.998   1.335
18322W        W84863   2.862  44.279  14.441
18323W        W84864  21.880  21.650  12.878
18324W        W84865  13.749  14.625  10.696
18325W        W84866  14.527   9.365   3.373
18326W        W84867   6.340  15.770  14.026
18327W        W84868  36.376  21.197  10.769
18328W        W84869   5.599  35.762   4.879
18329W        W84870  14.294  30.455   3.037
18330W        W84871  44.286  12.622   4.647
18331W        W84872   2.971  16.816  14.953
18332W        W84873  34.914  11.578  11.981
18333W        W84874  10.895  12.163   4.573
18334W        W84875  41.198  24.331   2.370
18335W        W84876  14.300  22.557   0.860
18336W        W84877  32.941  31.774   4.134
18337W        W84878  30.692  34.702  13.384
18338W        W84879   6.296   4.443  14.775
18339W        W84880   0.395  11.200   1.811
18340W        W84881  16.763   8.419  10.638
18341W        W84882   3.969  18.591  14.797
18342W        W84883   2.852  39.742  10.744
18343W        W84884  34.582  31.640   3.267
18344W        W84885  32.146  26.442   0.287
18345W        W84886  32.611  38.574   1.351
18346W        W84887  44.649   7.140   4.238
18347W        W84888  27.205  41.551  13.140
18348W        W84889  25.160  19.706  13.967
18349W        W84890  16.541  11.524   3.117
18350W        W84891   0.615  23.563   2.435
18351W        W84892  12.258  27.927   2.403
18352W        W84893   0.395  17.713   2.870
18353W        W84894  27.982  42.892  10.551
18354W        W84895  13.663   5.856  10.719
18355W        W84896  23.013   7.272  12.998
18356W        W84897  35.565   1.826   3.516
18357W        W84898  15.859  33.986  11.056
18358W        W84899  18.303  34.585   3.076
18359W        W84900  11.830  37.601   1.326
18360W        W84901  20.383  19.268  10.791
18361W        W84902  11.238  20.053  13.728
18362W        W84903  44.958  32.282  11.071
18363W        W84904   2.466   2.737  13.912
18364W        W84905  17.076  23.286   1.307
18365W        W84906   3.250   3.475  13.934
18366W        W84907   7.356  27.543   3.109
18367W        W84908  37.248   4.680   3.754
18368W        W84909  19.748   9.857  12.399
18369W        W84910  26.742  17.861   2.794
18370W        W84911  24.151  21.583  14.794
18371W        W84912  36.388  42.549   3.288
18372W        W84913   5.478  29.840   1.694
18373W        W84914  36.812  42.570  11.768
18374W        W84915   7.247  12.067  14.845
18375W        W84916  37.598  23.203  12.556
18376W        W84917  42.505  41.884   1.825
18377W        W84918  11.249  35.649  11.436
18378W        W84919   7.835  31.218  10.725
18379W        W84920  10.916  18.967   4.596
18380W        W84921  20.059  24.091   0.941
18381W        W84922   7.967  14.062  12.439
18382W        W84923   2.770  16.077   4.725
18383W        W84924  37.570  21.812   1.773
18384W        W84925  12.100  23.505  11.055
18385W        W84926  22.464   0.812  12.679
18386W        W84927  38.313   3.003   3.329
18387W        W84928  13.546  30.135   2.761
18388W        W84929  41.102   9.338   1.011
18389W        W84930   4.800  21.700  14.625
18390W        W84931  34.200  28.700   1.775
18391W        W84932  26.694   1.350  14.574
18392W        W84933  28.143  13.329  13.582
18393W        W84934  28.406   8.780   0.395
18394W        W84935  31.585  30.024   1.894
18395W        W84936   9.676  18.179  13.127
18396W        W84937  31.708  34.068   3.196
18397W        W84938  24.690  12.420   0.379
18398W        W84939  15.178  35.446   3.233
18399W        W84940   4.759   3.893   4.157
18400W        W84941  26.450   8.608   0.325
18401W        W84942   5.400  20.197  14.386
18402W        W84943   6.369  42.357  10.984
18403W        W84944  39.543  28.469   2.376
18404W        W84945  29.824   8.143   4.552
18405W        W84946  20.068  21.741  11.111
18406W        W84947  16.245   8.607   2.291
18407W        W84948  30.475   1.722  14.945
18408W        W84949  41.347  32.444   0.989
18409W        W84950  43.077  37.783   1.304
18410W        W84951  41.857  40.112   3.043
18411W        W84952  23.074   8.878   3.999
18412W        W84953  36.530  13.162   1.013
18413W        W84954   7.899  35.508   0.405
18414W        W84955  32.264  42.837   1.734
18415W        W84956  28.093  39.263  11.502
18416W        W84957  11.212   5.921   4.346
18417W        W84958   1.356  30.002  11.967
18418W        W84959  36.991  40.396   1.798
18419W        W84960  43.685   6.159   1.223
18420W        W84961   3.815  22.722   4.571
18421W        W84962  43.631   3.882   1.518
18422W        W84963  41.875  23.053  12.395
18423W        W84964  19.423  25.743  11.370
18424W        W84965   3.344   5.871   0.966
18425W        W84966  41.965   4.175  10.715
18426W        W84967  23.111   1.022   1.231
18427W        W84968  28.704  15.814  11.499
18428W        W84969   0.445  30.513  10.291
18429W        W84970   0.148  35.574  10.799
18430W        W84971   4.185  16.257  10.641
18431W        W84972  41.871  41.000   4.641
18432W        W84973   8.459  38.213   1.265
18433W        W84974   0.546  15.855  12.185
18434W        W84975  32.561  35.134   2.902
18435W        W84976   2.450  12.328   1.479
18436W        W84977   0.704  15.269  14.887
18437W        W84978  13.736  33.614  13.547
18438W        W84979   6.383  14.201  12.178
18439W        W84980   1.879  10.392  14.693
18440W        W84981  43.799   6.205   4.141
18441W        W84982  22.660  24.749   3.303
18442W        W84983  43.645  35.184  12.985
18443W        W84984  13.781   0.302  12.411
18444W        W84985   2.913   3.874   1.347
18445W        W84986   8.262  40.585  12.107
18446W        W84987  17.612  33.837  13.832
18447W        W84988   3.903  22.622  10.170
18448W        W84989   1.664   5.499  10.350
18449W        W84990  29.876   4.451   2.209
18450W        W84991  26.266  14.781  11.454
18451W        W84992   0.295  38.838  14.418
18452W        W84993   1.087  42.532   3.325
18453W        W84994  42.347  44.697  13.385
18454W        W84995  30.783  29.180   1.228
18455W        W84996   4.215  39.007   2.571
18456W        W84997  14.688  15.760  14.876
18457W        W84998  27.462  39.337  11.349
18458W        W84999  14.171   0.059  11.674
18459W        W85000  31.467  39.949  14.378
18460W        W85001  41.024  25.498  13.017
18461W        W85002  31.042  17.370   5.013
18462W        W85003  21.259  43.384  12.980
18463W        W85004  21.406   7.410   1.424
18464W        W85005  18.310  25.900   4.701
18465W        W85006   8.647  29.926  11.267
18466W        W85007  13.800  32.989   0.839
18467W        W85008  19.644  42.787   1.224
18468W        W85009  14.502  43.488   4.068
18469W        W85010  29.774  32.420   0.324
18470W        W85011   8.739  34.470   2.236
18471W        W85012  40.056  43.791  14.414
18472W        W85013   7.752  43.784   3.823
18473W        W85014  17.390  17.559   3.811
18474W        W85015  36.620  25.521   4.075
18475W        W85016   2.777  35.855  13.408
18476W        W85017  29.427   0.448   1.927
18477W        W85018  20.656  18.749  14.204
18478W        W85019  33.509  12.362  14.443
18479W        W85020  10.557  26.818   0.404
18480W        W85021  41.656  35.655  12.655
18481W        W85022  11.340  27.929   2.172
18482W        W85023  35.099  35.042  14.511
18483W        W85024  39.896  15.719   0.715
18484W        W85025  22.695  25.440   0.482
18485W        W85026  19.615  15.988   2.809
18486W        W85027   4.442   1.868  11.338
18487W        W85028  41.245   4.170  13.976
18488W        W85029  20.037   7.903   1.043
18489W        W85030  40.793   9.215  11.090
18490W        W85031  41.998  31.178  10.676
18491W        W85032  23.799  21.589  11.996
18492W        W85033  24.674   3.261  12.539
18493W        W85034  43.863  11.049  11.627
18494W        W85035  25.321  43.543   2.337
18495W        W85036  19.114  28.083   2.831
18496W        W85037  16.604  41.502  12.864
18497W        W85038  41.280   9.730   4.116
18498W        W85039  29.211  15.832  14.005
18499W        W85040  30.626   6.077   0.510
18500W        W85041  13.133  34.068  11.149
18501W        W85042   3.406  24.715  12.032
18502W        W85043  14.207   5.897   4.149
18503W        W85044  24.700   2.789   4.538
18504W        W85045  10.859  34.621   2.304
18505W        W85046  14.123  34.072  11.032
18506W        W85047  43.263  44.248  10.999
18507W        W85048  14.785   1.363   2.400
18508W        W85049  13.188  42.856  13.591
18509W        W85050  38.465   8.175  14.687
18510W        W85051  27.346  36.996   1.948
18511W        W85052   2.806   9.153  12.607
18512W        W85053  11.685   2.175  10.203
18513W        W85054  14.826  10.589  13.995
18514W        W85055   6.259   2.044   0.692
18515W        W85056  18.328  26.665  11.935
18516W        W85057  21.008  18.095   4.543
18517W        W85058  15.102  36.916  11.524
18518W        W85059   1.522  17.626  13.911
18519W        W85060  25.092  15.836   3.298
18520W        W85061  16.674  36.573  12.502
18521W        W85062   6.947  34.953   0.961
18522W        W85063   3.349  22.700  12.404
18523W        W85064  35.419  37.683  11.914
18524W        W85065   1.891  31.510  11.675
18525W        W85066  44.909  32.709  10.759
18526W        W85067  13.635  14.237   0.052
18527W        W85068  38.364  29.690   4.152
18528W        W85069  16.436  28.105   0.318
18529W        W85070  31.644  16.394   4.068
18530W        W85071  34.104  24.639  11.659
18531W        W85072  23.522  16.491   2.778
18532W        W85073  17.019  44.382   4.169
18533W        W85074  35.928   1.474   3.438
18534W        W85075  25.472  31.754   2.131
18535W        W85076  34.446  16.040   4.743
18536W        W85077  18.472   6.471  12.021
18537W        W85078  41.482  13.375   0.382
18538W        W85079  37.396  16.383  14.523
18539W        W85080  19.144  23.742   0.769
18540W        W85081  19.018  19.546   4.098
18541W        W85082  37.873  23.478  12.912
18542W        W85083   0.956   5.778   1.876
18543W        W85084  33.446  39.551  12.456
18544W        W85085  31.013   9.841  14.953
18545W        W85086   3.732  37.004   0.595
18546W        W85087  26.536  30.164   3.211
18547W        W85088  19.752  32.573   0.661
18548W        W85089  10.630  23.098  12.659
18549W        W85090   7.753  12.652   3.357
18550W        W85091   2.402  29.227  11.635
18551W        W85092  18.103  27.560  10.498
18552W        W85093  32.323   9.118   4.711
18553W        W85094  14.494   8.394  10.375
18554W        W85095   9.131  18.977   3.027
18555W        W85096  42.980  36.093   1.881
18556W        W85097   5.310   9.658  12.387
18557W        W85098  26.036  23.980  12.032
18558W        W85099  36.326  29.446  11.212
18559W        W85100  12.323  21.371   4.887
18560W        W85101  16.385  38.852   2.689
18561W        W85102  18.689  20.998   4.732
18562W        W85103  26.660  15.231  13.267
18563W        W85104  42.570  41.389   1.668
18564W        W85105  28.286  41.325  14.278
18565W        W85106  13.232  22.257   4.218
18566W        W85107  27.313  29.860  13.538
18567W        W85108   3.939   3.414   2.817
18568W        W85109   1.054  23.218  11.718
18569W        W85110  10.352   4.397   1.533
18570W        W85111   6.864  25.698  14.480
18571W        W85112  15.354  24.057   0.891
18572W        W85113  32.972  39.246   4.609
18573W        W85114  24.269  12.592  11.402
18574W        W85115  18.471  18.573  13.050
18575W        W85116   9.415  40.729  11.283
18576W        W85117   8.497  21.650   3.400
18577W        W85118  31.452  31.375  14.929
18578W        W85119  22.942  16.755  13.022
18579W        W85120  44.267  32.898   3.146
18580W        W85121  26.921  35.893   4.067
18581W        W85122  30.419  23.816   5.023
18582W        W85123  29.485  30.938   4.287
18583W        W85124  37.047   4.187   3.648
18584W        W85125  20.231  10.809   3.389
18585W        W85126  35.881  25.212  10.658
18586W        W85127  30.138  36.801   1.321
18587W        W85128   4.280  26.343   4.932
18588W        W85129   0.326  17.946   4.497
18589W        W85130  14.406   8.891   3.187
18590W        W85131  23.401   0.870  10.677
18591W        W85132  31.167  16.199  14.045
18592W        W85133  44.259  28.953  11.956
18593W        W85134   1.335  35.674   4.704
18594W        W85135  33.441  18.615   0.883
18595W        W85136  18.550   2.458  12.925
18596W        W85137   7.875  29.589  13.353
18597W        W85138  30.122  34.690   0.645
18598W        W85139   6.949   4.971   4.318
18599W        W85140  39.073  32.386  10.758
18600W        W85141  29.217  14.713   3.801
18601W        W85142   5.988  31.178  11.120
18602W        W85143  36.420  41.802   1.700
18603W        W85144   1.669   1.266  12.942
18604W        W85145  32.161  25.687  12.783
18605W        W85146  18.654  19.777  12.867
18606W        W85147  39.074  16.663   4.366
18607W        W85148   4.417   9.369   3.283
18608W        W85149  38.269  33.841  14.273
18609W        W85150  19.273  40.298   2.718
18610W        W85151  43.920  29.444  10.514
18611W        W85152   1.980  12.615  13.887
18612W        W85153  33.334   4.656  14.442
18613W        W85154  28.104   1.242   0.880
18614W        W85155   6.899   7.709  11.115
18615W        W85156   6.794  14.749  12.856
18616W        W85157   2.744  14.851  11.234
18617W        W85158  37.346  22.705   3.295
18618W        W85159   4.669   6.258   1.768
18619W        W85160  34.483  22.471   2.904
18620W        W85161  22.320  18.240  13.855
18621W        W85162  31.658   2.324   3.154
18622W        W85163   1.760  24.640   2.334
18623W        W85164  42.375  16.585  13.520
18624W        W85165  22.781  16.953  14.770
18625W        W85166  23.314  24.002  12.216
18626W        W85167  11.164  12.896  13.572
18627W        W85168  26.624  22.212  12.853
18628W        W85169  39.904  13.835   1.868
18629W        W85170   4.413  18.338  12.051
18630W        W85171  25.532  14.217   2.577
18631W        W85172   5.403  29.852   4.663
18632W        W85173   2.635  15.526   2.212
18633W        W85174   1.948  31.049   3.130
18634W        W85175   0.841  26.628   3.478
18635W        W85176  17.660  24.684  13.888
18636W        W85177  31.377  16.435   4.544
18637W        W85178   4.348   0.103  13.640
18638W        W85179  27.946  36.877  11.535
18639W        W85180   0.367  26.953  11.994
18640W        W85181  33.529  31.174  12.014
18641W        W85182  36.322  18.268  11.993
18642W        W85183  36.581  29.423  11.655
18643W        W85184  18.145  15.980   0.062
18644W        W85185  26.331  11.407   1.534
18645W        W85186  20.294  32.050   2.238
18646W        W85187  27.598  26.905  10.897
18647W        W85188  35.063  17.987  13.498
18648W        W85189  32.378  30.661   9.753
18649W        W85190  44.275   1.997   4.992
18650W        W85191  11.163  20.678   2.726
18651W        W85192   6.881   4.443  10.487
18652W        W85193   9.923  13.801   0.260
18653W        W85194   2.909   9.289   1.845
18654W        W85195  35.551   0.182  13.975
18655W        W85196  33.733   4.924   4.347
18656W        W85197  33.054  19.255  13.815
18657W        W85198  17.294  19.572   4.669
18658W        W85199  42.240  38.539   2.600
18659W        W85200  44.572  16.454   2.367
18660W        W85201  11.503  12.079  14.489
18661W        W85202  14.682  35.796  14.614
18662W        W85203  23.560  14.197  11.703
18663W        W85204  15.588  27.454  11.039
18664W        W85205  38.374  35.611   1.735
18665W        W85206   2.356   1.932  14.372
18666W        W85207  33.131  29.178  13.314
18667W        W85208  14.043   2.422   1.369
18668W        W85209  36.032  20.620  13.402
18669W        W85210  31.613  10.129   1.778
18670W        W85211  40.584  18.576  14.194
18671W        W85212  43.468  15.379   1.013
18672W        W85213  23.465  26.558   3.363
18673W        W85214  17.866  22.591   3.314
18674W        W85215  25.768   1.145   0.828
18675W        W85216  23.280  26.682   4.612
18676W        W85217  21.197   6.182   2.896
18677W        W85218  20.984   4.308  13.536
18678W        W85219  23.126   0.827  11.492
18679W        W85220   4.336   5.881  10.397
18680W        W85221  27.928  10.244   5.061
18681W        W85222   4.818  40.858  14.527
18682W        W85223   7.776   1.061  11.704
18683W        W85224   5.110  15.141   4.108
18684W        W85225  37.606   9.372  12.547
18685W        W85226  17.589   5.239  11.589
18686W        W85227  11.396  40.192   3.721
18687W        W85228   7.320  12.101  14.014
18688W        W85229  35.447  38.728   0.710
18689W        W85230   2.199  33.839  13.471
18690W        W85231  23.612  14.420  11.020
18691W        W85232   9.293  39.656   1.856
18692W        W85233  19.245  36.450   4.475
18693W        W85234  26.475  16.387   0.495
18694W        W85235   2.408   5.688  11.622
18695W        W85236  27.725  42.551  13.619
18696W        W85237  20.303  23.058  14.835
18697W        W85238  13.236   7.259   1.810
18698W        W85239  37.415   0.685   2.676
18699W        W85240  40.254  36.398  12.597
18700W        W85241  37.996  42.920   0.391
18701W        W85242  18.125   8.439   4.210
18702W        W85243  35.425   2.177   1.031
18703W        W85244   9.379  27.069   0.767
18704W        W85245   6.317  18.286   2.682
18705W        W85246  14.997  12.563   3.167
18706W        W85247   1.538  41.036  14.029
18707W        W85248  44.436  42.296   3.805
18708W        W85249  35.216  38.279  12.418
18709W        W85250  29.848   4.819   0.526
18710W        W85251  28.637  28.116  13.274
18711W        W85252  17.661  28.217  14.463
18712W        W85253  29.692   0.769   0.816
18713W        W85254   2.753  17.517   2.831
18714W        W85255  33.462  19.129   1.986
18715W        W85256   7.909  32.929  13.175
18716W        W85257   3.271   0.632   2.361
18717W        W85258  35.626   1.533   2.250
18718W        W85259  22.080  13.175   4.425
18719W        W85260  37.797  44.727   0.002
18720W        W85261  36.925   3.190  11.087
18721W        W85262  40.571  11.158  11.674
18722W        W85263  20.699  27.716  14.409
18723W        W85264  30.992  31.823   4.714
18724W        W85265  17.653  33.609   0.186
18725W        W85266  39.974  26.435   0.416
18726W        W85267  12.280  15.143  14.957
18727W        W85268  27.927   2.721   3.733
18728W        W85269   3.699  43.795  12.003
18729W        W85270  25.037   3.395  13.817
18730W        W85271  43.349  31.131   1.797
18731W        W85272  32.116  43.550  13.575
18732W        W85273   2.442  25.091  14.756
18733W        W85274  34.996  42.559  12.108
18734W        W85275  20.261  40.243  13.314
18735W        W85276  15.204  12.145   2.798
18736W        W85277  35.369  44.203   3.605
18737W        W85278   1.146  26.401   5.308
18738W        W85279  32.756  16.992   4.078
18739W        W85280  19.600   8.940  12.222
18740W        W85281  31.094   2.915   0.975
18741W        W85282  19.716   4.029  13.404
18742W        W85283  14.136  27.792   2.246
18743W        W85284  17.811  17.282   1.385
18744W        W85285  26.264   3.546  14.274
18745W        W85286   7.822   0.031   3.433
18746W        W85287  39.284  38.816  13.092
18747W        W85288   2.975  41.177   0.056
18748W        W85289  22.782   1.011   0.098
18749W        W85290  14.764   6.291  14.402
18750W        W85291  29.131  13.884  11.132
18751W        W85292  42.501   3.529   2.362
18752W        W85293  32.498  15.837   0.397
18753W        W85294  43.906  12.722   0.664
18754W        W85295  38.008  24.822  14.370
18755W        W85296  11.873  21.584  10.518
18756W        W85297   9.748  31.078  11.340
18757W        W85298   6.760  10.708   3.757
18758W        W85299   4.436  12.664  12.602
18759W        W85300  14.718  37.412   0.459
18760W        W85301  14.191  13.193  12.956
18761W        W85302  43.956   2.253   4.050
18762W        W85303   5.103  12.603  11.669
18763W        W85304  11.567   9.158   2.151
18764W        W85305  44.401  33.622   1.299
18765W        W85306  11.633  34.943  14.884
18766W        W85307  14.751   5.381   0.793
18767W        W85308  39.513   3.774   3.793
18768W        W85309  29.475   3.266  12.055
18769W        W85310  16.163   7.695   2.723
18770W        W85311  43.064   7.270   3.805
18771W        W85312  26.991  40.956   4.402
18772W        W85313  12.659  36.615  14.998
18773W        W85314  17.183  41.003   1.168
18774W        W85315  42.451  38.460  13.453
18775W        W85316   6.127  39.891  10.353
18776W        W85317  20.010  34.388  12.414
18777W        W85318  33.426  15.327   1.421
18778W        W85319  42.831  39.281   0.223
18779W        W85320  26.068   3.690  12.535
18780W        W85321  26.471   2.036   2.662
18781W        W85322   3.426  42.554   1.060
18782W        W85323  41.371  23.024  12.902
18783W        W85324  39.424  39.384   0.965
18784W        W85325   7.893  24.013  11.138
18785W        W85326  40.280   8.718   1.971
18786W        W85327  26.753   2.939  13.642
18787W        W85328   6.209   2.344  10.367
18788W        W85329  41.389  15.782  11.532
18789W        W85330  10.880   5.241  11.127
18790W        W85331  35.806   6.878   1.924
18791W        W85332  40.939  40.296   3.859
18792W        W85333  15.352  15.184   4.152
18793W        W85334  43.770   6.791   2.932
18794W        W85335  29.203  17.678   3.351
18795W        W85336  20.295  23.585  14.861
18796W        W85337   3.298  44.750  12.093
18797W        W85338  43.835   7.318  11.963
18798W        W85339  10.186  15.749  14.932
18799W        W85340  30.243  20.252  11.140
18800W        W85341  27.365  12.569   0.770
18801W        W85342  30.402   4.828  12.072
18802W        W85343  19.577  22.570  14.882
18803W        W85344  37.941  35.373   1.945
18804W        W85345  25.705  16.875   0.426
18805W        W85346  12.085  43.694   0.297
18806W        W85347   1.341  16.967  14.186
18807W        W85348  25.115  33.748  12.056
18808W        W85349  43.477  21.372  11.985
18809W        W85350  40.571  42.295   2.748
18810W        W85351  20.146  33.227  13.099
18811W        W85352  27.072   0.607  12.478
18812W        W85353  25.173  35.229   0.511
18813W        W85354  37.121  26.143  11.486
18814W        W85355  22.100  30.683  12.521
18815W        W85356  39.061  31.588  14.368
18816W        W85357  42.635  32.951   3.653
18817W        W85358  11.713  14.240  12.507
18818W        W85359  35.316  13.029  13.054
18819W        W85360  26.690  31.653  12.726
18820W        W85361  40.319  10.084  10.879
18821W        W85362  32.969  14.649  14.078
18822W        W85363  42.910  39.912   1.754
18823W        W85364   9.330  30.656  13.066
18824W        W85365  10.123  28.246  13.393
18825W        W85366   7.773  37.997  12.178
18826W        W85367  14.173  42.556   0.852
18827W        W85368  37.535  40.526  10.522
18828W        W85369   5.379  35.570   0.711
18829W        W85370  11.633  13.361  12.665
18830W        W85371  31.472  39.368  12.008
18831W        W85372   5.400  26.132  12.864
18832W        W85373  30.018   4.471   2.834
18833W        W85374  30.471  24.994   1.074
18834W        W85375  40.703  43.490   1.690
18835W        W85376  44.563   3.293   4.398
18836W        W85377  29.940  26.136  12.567
18837W        W85378  42.987   4.212  13.529
18838W        W85379  23.667   2.301   4.116
18839W        W85380  35.087  11.079  12.031
18840W        W85381  37.171  10.971  10.711
18841W        W85382  43.977  32.858  13.910
18842W        W85383  29.303  26.926  14.375
18843W        W85384  16.391   6.284   2.854
18844W        W85385  11.601  13.391   2.557
18845W        W85386  42.894  26.408   1.995
18846W        W85387  23.421   9.473   5.428
18847W        W85388  20.568  29.362  13.882
18848W        W85389  35.877   0.856  14.629
18849W        W85390   1.377  34.879   0.368
18850W        W85391  24.525  32.396  10.851
18851W        W85392  42.925  19.309   4.169
18852W        W85393  43.818  24.985   4.287
18853W        W85394  27.740  37.457  11.600
18854W        W85395   6.187  26.776  11.142
18855W        W85396  23.300   5.282   3.102
18856W        W85397  36.877  17.135  11.108
18857W        W85398   7.156   1.007  12.002
18858W        W85399  10.249  24.048  10.357
18859W        W85400  21.670  34.508  11.219
18860W        W85401  18.852  16.409  12.030
18861W        W85402  35.904   6.734  11.017
18862W        W85403   0.848  41.057   2.174
18863W        W85404  21.302  40.827  13.991
18864W        W85405   3.715  14.361   3.990
18865W        W85406  32.797   3.955  13.006
18866W        W85407  31.563  39.443  14.296
18867W        W85408  44.035  33.366  13.861
18868W        W85409  21.495  24.537  13.875
18869W        W85410  30.592  23.501  11.086
18870W        W85411  44.895  15.024  13.450
18871W        W85412  44.467  41.480  10.990
18872W        W85413  37.089  24.720   2.906
18873W        W85414  22.816  18.568   2.249
18874W        W85415   7.869  29.174  13.051
18875W        W85416   9.273   6.929   3.147
18876W        W85417  19.203  32.037  11.393
18877W        W85418  32.666  39.071  11.485
18878W        W85419   9.523  14.142  11.771
18879W        W85420  13.681  32.603  11.895
18880W        W85421   5.859  41.491   0.210
18881W        W85422  18.734  28.247  12.978
18882W        W85423  37.208  12.655   3.193
18883W        W85424  29.394   8.231   1.695
18884W        W85425   0.031  16.639   4.710
18885W        W85426  38.498  44.864   3.936
18886W        W85427  37.083  24.948   2.295
18887W        W85428  36.265  37.929   3.730
18888W        W85429  16.906  41.129  14.832
18889W        W85430  20.146  17.629   9.929
18890W        W85431  16.075  15.321   3.600
18891W        W85432   4.734  43.860  13.618
18892W        W85433  38.638  24.373   0.976
18893W        W85434   2.073   7.381   1.356
18894W        W85435  39.963  22.628  12.443
18895W        W85436   4.959   0.981   0.157
18896W        W85437  35.779  15.146   2.812
18897W        W85438  28.846  29.721   0.261
18898W        W85439  26.709   0.909  14.283
18899W        W85440  27.511   3.877  10.320
18900W        W85441  12.290  14.746   4.772
18901W        W85442  36.958  39.612  11.195
18902W        W85443  38.119  38.067   0.199
18903W        W85444  27.114  12.182   2.102
18904W        W85445   0.702   6.224  10.837
18905W        W85446  14.376  37.033   2.616
18906W        W85447  42.116  41.044  13.342
18907W        W85448  39.003   6.688  13.458
18908W        W85449  40.097  14.135   3.183
18909W        W85450  29.513  21.291  11.837
18910W        W85451  35.397  30.160   0.698
18911W        W85452  31.583  32.272  13.380
18912W        W85453  39.848  21.480   2.338
18913W        W85454  36.452  29.396   1.413
18914W        W85455  19.831  13.267   3.697
18915W        W85456  24.813  11.318  14.426
18916W        W85457  21.469  32.160  11.128
18917W        W85458   0.751  18.495  11.275
18918W        W85459   4.749   7.752  14.825
18919W        W85460  21.487  39.800  10.649
18920W        W85461  33.680  34.992   3.365
18921W        W85462  10.843   8.167  12.088
18922W        W85463  10.808   6.609  13.041
18923W        W85464  27.968  25.830  14.261
18924W        W85465  13.684  14.965  14.264
18925W        W85466  37.927  35.855   0.877
18926W        W85467  17.110  21.986  11.702
18927W        W85468   4.786  21.501   1.738
18928W        W85469   9.673   6.191   4.258
18929W        W85470  22.167  21.311  13.605
18930W        W85471  22.667  21.108  10.692
18931W        W85472  22.546  29.986  12.910
18932W        W85473  37.920   9.564   2.760
18933W        W85474  22.573  14.357   2.686
18934W        W85475  34.304  22.671   0.840
18935W        W85476  26.886  17.045  14.709
18936W        W85477  35.364   1.689   4.865
18937W        W85478  33.101   3.125   2.296
18938W        W85479  29.020  36.653   4.505
18939W        W85480  27.971  22.530   0.475
18940W        W85481  34.372  27.952  10.612
18941W        W85482  29.555  39.040  13.605
18942W        W85483  39.238  26.766   1.769
18943W        W85484  26.561  42.804   2.216
18944W        W85485  17.006  37.858  13.432
18945W        W85486   3.998  16.653  14.971
18946W        W85487   9.830  31.062   0.942
18947W        W85488  11.376  37.292   2.725
18948W        W85489  24.493  29.504  11.376
18949W        W85490  40.100  43.999  13.940
18950W        W85491  21.549  34.659   3.142
18951W        W85492  42.037  20.087  13.895
18952W        W85493  43.215  28.712  14.343
18953W        W85494  10.608   9.766  12.017
18954W        W85495  44.049   5.786  13.803
18955W        W85496  43.986  25.152   1.447
18956W        W85497  34.133  21.231   0.974
18957W        W85498  25.517  39.821   3.482
18958W        W85499  24.807   4.312  10.241
18959W        W85500  31.286  42.104   4.312
18960W        W85501  36.497  40.356  12.949
18961W        W85502  30.090  31.912  11.013
18962W        W85503  17.096  20.433  12.548
18963W        W85504  13.263  25.670  14.464
18964W        W85505   6.823  34.319   0.559
18965W        W85506  29.101  29.339   2.008
18966W        W85507   1.456  33.107  12.384
18967W        W85508   4.426  29.080   0.302
18968W        W85509  28.902  19.674  11.167
18969W        W85510  28.415   9.221   0.104
18970W        W85511  31.385  13.232  14.833
18971W        W85512  16.230  43.478  14.287
18972W        W85513  41.574  22.440   0.035
18973W        W85514  40.826   0.228   2.316
18974W        W85515   3.222  21.015   2.359
18975W        W85516   6.204   9.956  11.647
18976W        W85517  29.949  25.821   1.762
18977W        W85518  36.995  12.494   2.755
18978W        W85519  36.945  12.499  10.709
18979W        W85520  27.985  30.868  14.812
18980W        W85521   5.808   7.832  12.056
18981W        W85522  40.708  17.747  10.212
18982W        W85523  38.897  18.729  14.761
18983W        W85524  10.262  18.792   1.202
18984W        W85525  37.259  22.083   0.790
18985W        W85526  24.031  36.624  12.983
18986W        W85527  27.283  14.799  10.174
18987W        W85528  10.182  32.630  13.749
18988W        W85529  31.119   6.697   0.892
18989W        W85530  40.070  34.706   2.768
18990W        W85531  30.903   6.888   3.477
18991W        W85532  29.310  10.429   2.766
18992W        W85533   9.777  42.918   1.133
18993W        W85534   9.795  19.055   4.372
18994W        W85535  30.098  38.872  11.190
18995W        W85536   6.183  16.621   4.690
18996W        W85537  42.546  34.597   1.171
18997W        W85538  19.371   4.801   1.819
18998W        W85539   7.157  26.058  10.545
18999W        W85540  28.490  37.003   2.354
19000W        W85541  33.137  38.937  13.192
19001W        W85542  21.435   5.480  11.729
19002W        W85543  40.895  38.577   4.450
19003W        W85544  40.121  32.936   2.310
19004W        W85545  38.865   7.453  13.917
19005W        W85546  22.256  11.267   4.318
19006W        W85547   6.679  29.261   3.183
19007W        W85548  12.924  44.806   0.410
19008W        W85549  20.219  32.835   1.870
19009W        W85550  40.083  38.137   3.176
19010W        W85551  21.555  29.680  14.077
19011W        W85552  27.608  23.589   1.938
19012W        W85553   5.173  22.286   3.274
19013W        W85554  12.594  32.191   2.703
19014W        W85555   3.180  12.959   4.691
19015W        W85556  15.146  17.649   1.920
19016W        W85557  41.491   5.221  10.740
19017W        W85558  27.204  27.509  12.845
19018W        W85559  32.615  11.315  12.581
19019W        W85560  16.645  25.095   2.745
19020W        W85561  40.620  44.662  14.562
19021W        W85562  35.417  13.607   3.560
19022W        W85563  29.437  13.652   3.849
19023W        W85564  40.954  38.176   0.351
19024W        W85565  19.224  39.445   1.693
19025W        W85566  31.658  31.890  12.517
19026W        W85567  30.349   8.422  12.519
19027W        W85568  28.060   5.616  11.469
19028W        W85569  28.734  17.132   1.099
19029W        W85570   3.969  20.614  14.802
19030W        W85571  33.601  38.060   4.119
19031W        W85572  31.124   7.379   3.345
19032W        W85573  38.517  21.291  14.792
19033W        W85574  38.096  19.149   0.382
19034W        W85575  10.299  20.144   4.489
19035W        W85576  32.533  36.555  12.906
19036W        W85577   1.648  10.171  10.723
19037W        W85578  22.283  17.861  13.492
19038W        W85579  43.734   1.279  10.511
19039W        W85580  10.278  38.245   3.548
19040W        W85581  14.605  42.270  11.938
19041W        W85582   5.209  28.068  10.729
19042W        W85583  37.582  21.100  13.860
19043W        W85584  35.008  31.744  11.653
19044W        W85585  20.591  43.468  12.392
19045W        W85586  24.489  33.171   4.348
19046W        W85587   1.157  39.750   1.451
19047W        W85588  39.419   1.502  13.502
19048W        W85589  18.236  31.709  13.114
19049W        W85590  42.854  44.586  12.878
19050W        W85591  37.843  22.302  13.380
19051W        W85592   6.767  33.394   4.765
19052W        W85593  30.057  22.675   2.598
19053W        W85594  37.927  32.187  14.940
19054W        W85595  12.322  39.422   3.182
19055W        W85596  34.077  17.326  13.398
19056W        W85597  41.359  21.649  11.841
19057W        W85598  15.515  30.188   4.323
19058W        W85599   1.556  27.366  11.462
19059W        W85600  38.761  33.396  10.621
19060W        W85601  39.211   4.416  14.306
19061W        W85602   3.194  44.826   5.390
19062W        W85603  13.138  21.296   1.145
19063W        W85604   9.070   7.735   0.466
19064W        W85605  16.870  23.719  10.982
19065W        W85606  25.474  21.052   4.642
19066W        W85607  14.837  26.077  10.937
19067W        W85608  25.324  28.986   1.063
19068W        W85609  44.000  43.549  10.803
19069W        W85610  19.068  14.793  11.171
19070W        W85611  22.608   4.640   0.197
19071W        W85612  12.505  30.987   9.861
19072W        W85613  42.947  31.439   1.838
19073W        W85614  42.984   8.311  11.639
19074W        W85615   4.196  17.667   2.746
19075W        W85616  30.368   3.871   3.744
19076W        W85617  20.614  18.514  11.875
19077W        W85618  37.573  34.826   0.489
19078W        W85619  42.937  26.197   3.248
19079W        W85620   7.326  37.441   1.752
19080W        W85621   0.026  33.456   4.018
19081W        W85622  36.997  11.468  10.634
19082W        W85623   6.280   1.040   0.824
19083W        W85624   4.494  14.567  12.448
19084W        W85625  34.302   0.532   3.190
19085W        W85626  38.341  23.528   0.447
19086W        W85627  13.272  19.765   0.200
19087W        W85628   7.805  16.021   4.256
19088W        W85629  37.551  15.247  10.215
19089W        W85630  30.148  31.189  12.090
19090W        W85631  22.339   2.494   0.959
19091W        W85632  38.285  15.222   2.664
19092W        W85633  21.023  38.912   4.554
19093W        W85634  38.382  36.992  13.357
19094W        W85635  38.495   5.776  12.412
19095W        W85636  33.363  17.095   1.743
19096W        W85637   5.683  41.901   4.555
19097W        W85638  37.502  21.685   0.322
19098W        W85639  11.862  35.855  13.020
19099W        W85640  40.868  35.350  13.229
19100W        W85641   3.124  44.988   4.018
19101W        W85642  20.287  33.948  12.362
19102W        W85643  34.566  14.221  14.089
19103W        W85644  11.555  13.771   4.270
19104W        W85645  29.697  38.840  10.850
19105W        W85646  27.883  34.833  11.436
19106W        W85647  40.502   6.472   3.292
19107W        W85648  41.744  26.648   0.211
19108W        W85649  37.585  32.186   0.353
19109W        W85650  18.281  32.051  10.929
19110W        W85651  37.128   4.165  10.772
19111W        W85652  32.398  22.113  12.142
19112W        W85653   8.244   6.351  14.893
19113W        W85654  18.187   5.747   4.154
19114W        W85655   1.899   0.739   1.406
19115W        W85656  42.053   9.723  11.211
19116W        W85657  42.364   2.975   0.029
19117W        W85658  16.258  28.400   1.514
19118W        W85659  32.572   5.448  13.137
19119W        W85660  20.243  43.605  13.046
19120W        W85661  10.529  21.208  12.607
19121W        W85662  44.458  31.798   4.673
19122W        W85663  27.013  33.734  11.914
19123W        W85664  20.680  17.241  11.619
19124W        W85665  34.925   1.726  13.446
19125W        W85666   2.366  26.544   3.224
19126W        W85667  10.910  38.016   3.556
19127W        W85668  44.920  28.122   2.327
19128W        W85669  28.602   2.398  12.769
19129W        W85670  27.972  34.381   3.212
19130W        W85671  30.476  15.771   0.028
19131W        W85672  34.955  10.029  11.672
19132W        W85673  43.443  27.295  14.458
19133W        W85674  41.371  15.129   1.657
19134W        W85675  13.908   9.474  11.811
19135W        W85676  25.865  42.738   3.629
19136W        W85677  34.886   0.996   1.911
19137W        W85678  26.588  44.071   0.004
19138W        W85679   1.365  22.678  13.249
19139W        W85680  14.092  14.333   4.316
19140W        W85681  37.618  40.296   3.762
19141W        W85682   4.608   5.461   3.762
19142W        W85683  18.170  22.815   2.988
19143W        W85684  38.381  27.346   0.517
19144W        W85685   2.034  31.020  12.918
19145W        W85686   6.381  44.468  12.493
19146W        W85687  40.428  42.952   5.249
19147W        W85688   3.643  29.851   0.986
19148W        W85689  32.609   9.410   4.361
19149W        W85690  28.219  21.002   1.866
19150W        W85691  24.505  23.167   1.373
19151W        W85692  28.497  20.110  12.540
19152W        W85693   7.048  16.288  10.455
19153W        W85694  32.264   9.213  13.757
19154W        W85695  43.420  35.519   2.814
19155W        W85696  29.050  29.032   0.710
19156W        W85697  22.773  20.685  11.481
19157W        W85698  13.830   7.709  13.957
19158W        W85699  33.969  14.111   3.791
19159W        W85700  12.814   4.197  14.887
19160W        W85701   5.810  43.156  12.410
19161W        W85702  28.027  42.840   3.497
19162W        W85703  15.245  10.966   4.480
19163W        W85704  25.455  33.870   3.190
19164W        W85705  43.466   6.360   3.515
19165W        W85706  37.372   3.003  11.991
19166W        W85707   3.881   6.359  10.944
19167W        W85708   2.192  29.722   0.205
19168W        W85709  19.975  19.403  13.512
19169W        W85710  28.567   4.818   2.556
19170W        W85711  18.715  41.756   4.497
19171W        W85712  42.494  41.052  14.524
19172W        W85713  22.262  29.440  12.392
19173W        W85714  36.374  43.535   2.219
19174W        W85715  41.976  30.906   2.801
19175W        W85716  35.051  27.178   4.446
19176W        W85717  10.149  19.557   2.808
19177W        W85718   6.929  33.929   3.599
19178W        W85719  42.362  12.605  14.856
19179W        W85720   5.439  12.708   1.479
19180W        W85721  23.190   2.652   0.905
19181W        W85722   4.179   7.796  13.123
19182W        W85723  35.589  43.419   2.675
19183W        W85724  10.297  20.563   2.844
19184W        W85725  25.233  14.915  11.185
19185W        W85726  22.165   7.296  10.579
19186W        W85727  39.400  10.398   4.627
19187W        W85728  19.663  23.175   4.378
19188W        W85729  28.153  19.627  13.316
19189W        W85730  21.712   4.007   2.857
19190W        W85731  27.992  16.281   1.485
19191W        W85732   1.315  30.604   3.700
19192W        W85733   1.503  34.333   1.877
19193W        W85734  37.350  27.169   0.501
19194W        W85735   0.376  44.840  13.774
19195W        W85736  28.108  41.895   3.686
19196W        W85737   4.902  23.526  10.538
19197W        W85738  20.922  27.899   4.124
19198W        W85739  30.438   9.171   1.300
19199W        W85740   1.811  33.401  10.710
19200W        W85741  34.574   8.514   0.929
19201W        W85742  30.946  10.187   5.175
19202W        W85743  23.140  38.563   0.674
19203W        W85744  27.381   1.067   1.194
19204W        W85745  16.439  14.615   9.800
19205W        W85746  44.854   9.088   4.243
19206W        W85747  28.217  33.468  10.280
19207W        W85748  19.141  42.290   2.763
19208W        W85749   6.814   4.747   3.341
19209W        W85750   7.269  37.048   9.876
19210W        W85751   1.482  40.559   3.003
19211W        W85752  14.638   6.200   4.199
19212W        W85753   0.119  39.989   5.161
19213W        W85754  17.503  17.314  12.617
19214W        W85755  10.948   7.421   3.799
19215W        W85756   9.529  38.709   3.176
19216W        W85757  39.548  31.852  12.449
19217W        W85758  30.349   2.024  11.108
19218W        W85759  19.189  23.210  13.979
19219W        W85760   6.217   9.686   4.274
19220W        W85761  33.497  21.054   0.679
19221W        W85762   2.420  36.477   1.221
19222W        W85763   1.308   2.947  10.950
19223W        W85764  29.212  20.642  12.517
19224W        W85765  38.991  38.615   2.264
19225W        W85766  24.288  42.045  11.959
19226W        W85767  43.398  35.547   1.055
19227W        W85768  14.737  28.161  13.755
19228W        W85769  44.561   3.719  10.200
19229W        W85770  40.039  37.318  11.758
19230W        W85771   2.032  23.176  11.200
19231W        W85772  26.907  42.065  11.579
19232W        W85773  38.013  13.932  12.288
19233W        W85774  18.297  37.270   2.804
19234W        W85775  14.310  20.312  14.529
19235W        W85776  40.033   1.342   1.838
19236W        W85777  12.637  30.990  11.217
19237W        W85778  12.705  22.821   0.289
19238W        W85779  43.477  30.139  14.894
19239W        W85780  29.834  30.541  12.601
19240W        W85781   1.035  18.444   4.179
19241W        W85782  11.356   5.419  13.015
19242W        W85783  44.010  35.990  13.242
19243W        W85784  37.992   1.898  12.602
19244W        W85785  17.833  26.504  10.688
19245W        W85786  22.507  41.175   4.607
19246W        W85787   2.900  11.687   5.052
19247W        W85788  41.322  26.180  13.782
19248W        W85789  23.162  18.113   2.868
19249W        W85790  37.265  19.505   3.835
19250W        W85791  10.661  29.238  11.082
19251W        W85792  25.760  33.399   0.344
19252W        W85793  42.340  38.435  11.547
19253W        W85794  11.351   7.314   0.083
19254W        W85795  40.961   7.385   0.698
19255W        W85796   7.729  25.270   3.031
19256W        W85797   5.233  10.278   1.827
19257W        W85798  12.934  34.178  12.969
19258W        W85799  23.502  13.280   4.636
19259W        W85800  27.050  44.986  10.999
19260W        W85801  21.293  38.111  11.632
19261W        W85802  13.154  14.881  14.450
19262W        W85803  32.935  39.262   4.090
19263W        W85804  38.006   0.886  13.483
19264W        W85805  44.309  27.452   3.952
19265W        W85806  14.121  18.497  11.232
19266W        W85807  26.344  21.998  11.189
19267W        W85808  22.652  14.690   0.279
19268W        W85809   3.413  22.672  10.334
19269W        W85810  43.937  30.581  11.496
19270W        W85811  20.696  30.925   4.204
19271W        W85812  11.144  30.266   1.937
19272W        W85813  23.002   3.200   2.802
19273W        W85814  39.430  13.705  12.579
19274W        W85815  34.613  25.997  12.809
19275W        W85816  12.388  35.686  12.071
19276W        W85817  30.083  22.988  12.440
19277W        W85818  39.462   7.291   4.619
19278W        W85819   0.597  40.285   0.735
19279W        W85820   3.759  31.011   9.928
19280W        W85821  26.317  11.349  13.564
19281W        W85822  34.439  15.205   1.362
19282W        W85823   2.147  26.198  10.579
19283W        W85824  36.872  18.360   2.573
19284W        W85825  18.358   5.612   2.178
19285W        W85826  21.715   0.508   2.318
19286W        W85827  29.386   3.381   2.715
19287W        W85828   8.786  42.984   0.227
19288W        W85829  38.157  36.259  12.105
19289W        W85830  40.550  11.752   4.930
19290W        W85831  22.802  33.401   3.704
19291W        W85832  29.370  26.009   2.884
19292W        W85833  36.535  28.807   4.667
19293W        W85834  19.530  33.710  10.924
19294W        W85835  13.693  12.160   2.733
19295W        W85836  20.455  22.349   1.902
19296W        W85837  11.495  12.272  13.997
19297W        W85838  12.965  19.311   3.939
19298W        W85839  22.545   3.818   4.084
19299W        W85840  12.846  28.126  13.910
19300W        W85841  10.318  15.762   0.826
19301W        W85842   8.058  16.003  11.278
19302W        W85843   3.351  22.935  14.226
19303W        W85844  18.222  21.495  11.261
19304W        W85845  40.222   0.904   4.021
19305W        W85846  44.053  31.893   5.039
19306W        W85847  11.747  33.334   5.030
19307W        W85848  36.990  43.447   4.789
19308W        W85849  44.824  27.470   2.906
19309W        W85850  40.722  29.600   4.181
19310W        W85851  43.124  10.537  12.181
19311W        W85852  30.295  21.631  12.351
19312W        W85853  11.990  16.823  14.386
19313W        W85854  37.907  33.107  12.995
19314W        W85855  34.014  21.188  13.089
19315W        W85856  21.782  43.905   2.863
19316W        W85857  37.861  14.588  14.392
19317W        W85858  24.735   9.851   3.540
19318W        W85859   9.566  31.539   4.242
19319W        W85860  16.661  10.497   1.300
19320W        W85861   8.589  38.288   3.327
19321W        W85862   4.321  27.758   3.595
19322W        W85863  26.460  19.247  11.672
19323W        W85864   0.813  21.931   3.911
19324W        W85865  13.233  21.687   3.484
19325W        W85866  18.699  35.360   0.201
19326W        W85867  11.655  41.555   3.662
19327W        W85868   5.909  31.702   4.523
19328W        W85869  10.971   3.085   2.914
19329W        W85870  35.671  16.648  10.868
19330W        W85871   6.715  26.203   2.436
19331W        W85872   7.741   0.825  14.663
19332W        W85873  18.517  32.858  11.964
19333W        W85874  35.463  20.432  11.072
19334W        W85875  35.422  37.868  12.899
19335W        W85876  41.466  36.787   1.722
19336W        W85877  33.082   3.840   0.663
19337W        W85878  23.164  30.401   4.156
19338W        W85879  38.794   9.114   2.606
19339W        W85880  19.644  18.635  10.326
19340W        W85881  40.880   1.797   4.052
19341W        W85882  20.626  42.307   2.243
19342W        W85883  10.092   7.394   0.709
19343W        W85884   4.495  16.757   2.209
19344W        W85885  39.978  30.905  12.458
19345W        W85886  25.991  44.487  12.573
19346W        W85887   5.453   7.920  13.949
19347W        W85888  32.906   0.284   0.789
19348W        W85889   9.260  44.494   0.377
19349W        W85890  42.725  12.188  12.032
19350W        W85891   4.766  19.160   4.911
19351W        W85892   1.912  33.225   9.871
19352W        W85893   5.323  35.183  12.048
19353W        W85894  13.870  32.964  12.513
19354W        W85895  13.437  34.786   2.350
19355W        W85896  31.582  12.730   1.873
19356W        W85897  27.070  24.593   3.298
19357W        W85898   4.049  10.402   4.536
19358W        W85899  16.129  14.401   1.794
19359W        W85900  20.946  23.912  10.801
19360W        W85901   4.299  19.094   4.673
19361W        W85902  38.768  29.494  11.240
19362W        W85903  25.087  33.655   4.063
19363W        W85904   5.166  41.006  11.497
19364W        W85905  44.927  25.227  10.790
19365W        W85906  44.785   0.995   0.744
19366W        W85907  18.231  10.318   1.905
19367W        W85908  11.404   8.148   0.457
19368W        W85909  21.724  43.975   4.674
19369W        W85910  14.150  24.552   0.436
19370W        W85911  10.708  19.062  13.083
19371W        W85912  10.182  22.082   1.368
19372W        W85913   5.822   5.299   0.499
19373W        W85914  34.949  21.528   3.583
19374W        W85915   9.091  40.283  12.159
19375W        W85916  21.598   6.132   2.205
19376W        W85917   8.257   6.273  11.565
19377W        W85918   6.846  23.693  12.522
19378W        W85919  35.833   5.639   2.853
19379W        W85920  29.175   6.649   3.930
19380W        W85921  43.068  27.063  11.952
19381W        W85922  16.622   9.940   2.315
19382W        W85923  38.977  28.329  14.915
19383W        W85924  25.515  18.130  13.097
19384W        W85925   5.610  20.476  12.095
19385W        W85926  15.785   3.866   4.033
19386W        W85927   8.272  27.612  11.200
19387W        W85928   1.222  28.629   3.968
19388W        W85929  42.099  33.412   4.093
19389W        W85930  21.809  18.350  11.963
19390W        W85931  44.931  25.796  11.734
19391W        W85932  41.138   1.656   4.488
19392W        W85933  31.602   9.317   0.485
19393W        W85934  23.720  37.766   0.348
19394W        W85935   9.573  26.527  13.555
19395W        W85936  15.466  21.680   3.629
19396W        W85937  23.285  37.610  11.037
19397W        W85938  41.943  28.040   0.805
19398W        W85939  23.727  34.463   0.263
19399W        W85940   7.471  39.561  13.001
19400W        W85941  25.663   5.381  13.787
19401W        W85942  16.381  17.788   4.933
19402W        W85943   3.315  20.411   4.688
19403W        W85944  43.438  15.773   3.391
19404W        W85945   5.410  31.628   4.304
19405W        W85946  14.523  24.049  13.314
19406W        W85947  17.661  24.602  10.710
19407W        W85948  14.696  21.782   4.096
19408W        W85949  25.513  12.168   3.262
19409W        W85950   8.763  26.704  11.096
19410W        W85951  17.942   2.747   4.630
19411W        W85952   5.404   1.153  12.589
19412W        W85953  22.203  30.138  11.661
19413W        W85954  29.876  34.137   3.553
19414W        W85955  20.103  23.090  11.456
19415W        W85956   5.526  43.346   4.000
19416W        W85957  34.891  11.697   0.942
19417W        W85958  30.486  23.756   2.343
19418W        W85959  26.083  31.864  14.321
19419W        W85960  24.766  17.305   2.213
19420W        W85961  39.768   4.786  11.990
19421W        W85962  32.669  19.024  11.599
19422W        W85963   3.710  32.633  14.515
19423W        W85964   3.502  15.236  13.388
19424W        W85965  16.325  10.638   0.478
19425W        W85966  24.982  13.560   0.104
19426W        W85967  38.098  42.066  11.089
19427W        W85968  28.830  22.404   4.112
19428W        W85969  35.589  42.742   4.369
19429W        W85970   3.302   4.313  12.443
19430W        W85971  37.326  26.599  11.617
19431W        W85972  13.734   2.271   4.638
19432W        W85973  43.564  39.875  13.294
19433W        W85974  17.133  32.700  13.184
19434W        W85975  16.659  30.369   3.935
19435W        W85976  29.645  22.485   2.870
19436W        W85977  17.761  26.537  11.564
19437W        W85978   5.969  14.154   2.239
19438W        W85979  36.908  32.271   1.667
19439W        W85980  13.888  13.392  12.597
19440W        W85981  38.598   9.314  11.133
19441W        W85982  26.798  28.968  12.994
19442W        W85983  43.868  19.097  10.918
19443W        W85984  36.801   9.610  14.161
19444W        W85985   3.132  37.667   4.711
19445W        W85986  22.615  26.989   0.290
19446W        W85987  21.143  32.910  14.394
19447W        W85988   2.347  19.696   0.020
19448W        W85989  12.638  29.238   1.240
19449W        W85990  39.009  37.955  12.626
19450W        W85991  24.098  24.670  13.398
19451W        W85992  26.145  26.727   4.819
19452W        W85993  38.522  29.915  12.395
19453W        W85994  44.186  28.640  14.007
19454W        W85995  37.212  41.193   1.908
19455W        W85996  41.441  28.889  12.988
19456W        W85997   4.675  23.812   3.561
19457W        W85998  14.685  16.596   3.265
19458W        W85999   7.474  12.776  10.711
19459W        W86000  29.942  25.063   4.036
19460W        W86001   9.689  31.446  12.563
19461W        W86002  43.801  25.500  12.850
19462W        W86003  34.875   4.232  14.520
19463W        W86004  37.053   6.241   3.819
19464W        W86005  43.576  34.476  12.555
19465W        W86006  20.175  15.324   3.664
19466W        W86007   1.861  40.310  12.847
19467W        W86008  40.050  42.259  10.752
19468W        W86009  30.396  11.270  12.429
19469W        W86010   8.734   7.091  13.066
19470W        W86011  30.593  32.516  10.670
19471W        W86012  31.674  10.331   0.400
19472W        W86013  12.433  10.751  12.025
19473W        W86014  26.684  25.510   4.099
19474W        W86015  19.182  27.338   3.378
19475W        W86016  26.082   5.433  13.488
19476W        W86017   6.464  11.649  12.971
19477W        W86018  36.579  13.178  10.462
19478W        W86019  30.581   8.103  13.872
19479W        W86020   8.965   8.393  11.048
19480W        W86021  29.958  35.621  12.971
19481W        W86022  27.952  42.820  14.465
19482W        W86023  18.959  41.737  12.631
19483W        W86024   1.040  41.965   1.657
19484W        W86025   5.037   9.798  10.002
19485W        W86026   4.768  39.504  14.268
19486W        W86027   0.379   1.714  14.234
19487W        W86028  13.844  37.030  10.895
19488W        W86029  21.164   8.535   1.401
19489W        W86030  14.825  18.142  13.987
19490W        W86031  15.855  30.609   0.779
19491W        W86032   2.316  43.442   2.532
19492W        W86033  23.054   9.746  13.834
19493W        W86034   5.220  43.428   2.151
19494W        W86035  15.711   9.350   2.268
19495W        W86036  18.296  27.499   2.981
19496W        W86037  11.187  34.878   3.632
19497W        W86038  11.081   3.183   4.265
19498W        W86039  43.544  42.991   0.496
19499W        W86040  41.834  33.365   4.539
19500W        W86041  29.020  39.272   1.387
19501W        W86042  15.417  12.753  14.296
19502W        W86043  33.637  34.147   2.392
19503W        W86044  14.519  21.994  13.874
19504W        W86045  35.997  17.209   2.328
19505W        W86046  37.369  18.164   4.172
19506W        W86047  21.709   1.786  14.893
19507W        W86048  42.734  23.450   0.375
19508W        W86049  18.814  18.735   2.379
19509W        W86050  44.420  15.721   0.780
19510W        W86051  44.422  20.734  14.640
19511W        W86052  24.771  38.933  14.255
19512W        W86053  37.908  32.033   3.528
19513W        W86054  25.068   9.335   0.738
19514W        W86055  12.675  32.151   3.708
19515W        W86056  21.100  23.266  12.935
19516W        W86057   1.739  20.759  12.225
19517W        W86058  41.218  26.111   2.449
19518W        W86059   1.881  26.749   3.204
19519W        W86060  29.681  33.622  13.285
19520W        W86061  37.370  15.793   0.399
19521W        W86062  38.407  18.169  14.439
19522W        W86063  19.797  21.079   3.615
19523W        W86064  18.780  28.740   1.864
19524W        W86065   0.355  28.123  11.611
19525W        W86066  35.774  44.285   1.371
19526W        W86067  15.328  23.540   0.610
19527W        W86068  38.299  41.342  10.810
19528W        W86069  14.181   5.980  13.900
19529W        W86070  20.493  10.209   1.487
19530W        W86071   4.976  25.496  11.233
19531W        W86072  31.517  28.211   2.184
19532W        W86073  15.237   6.776  11.957
19533W        W86074  11.583  42.214   2.283
19534W        W86075  31.619  28.059   3.073
19535W        W86076  27.917  14.965   2.112
19536W        W86077   6.224  23.239   1.771
19537W        W86078  37.570  33.825   0.495
19538W        W86079  24.920  34.016   0.922
19539W        W86080  29.061  26.495  13.483
19540W        W86081  43.823  44.488   1.092
19541W        W86082  42.083  17.256   1.904
19542W        W86083  18.062   2.331   4.329
19543W        W86084  40.618  28.399   2.687
19544W        W86085  27.016   2.763  10.661
19545W        W86086  30.679  21.617  14.013
19546W        W86087  37.518  24.775   2.628
19547W        W86088  18.195   5.504  11.959
19548W        W86089  38.022  16.311  14.824
19549W        W86090  31.543  34.958   2.703
19550W        W86091  21.781  16.229   0.140
19551W        W86092  43.197  21.041  11.700
19552W        W86093  17.037  25.882   1.848
19553W        W86094   5.105  23.109   2.241
19554W        W86095   1.985  22.135   4.451
19555W        W86096   3.836  23.128  14.259
19556W        W86097  42.367   9.777   3.455
19557W        W86098  33.025  17.184  12.870
19558W        W86099  30.689  38.093   0.698
19559W        W86100  38.599  43.806  12.081
19560W        W86101  32.724  18.532   2.269
19561W        W86102  11.680   5.566   4.071
19562W        W86103  37.684  10.920  10.783
19563W        W86104   3.167   0.276   0.733
19564W        W86105  24.183   4.609  11.375
19565W        W86106  33.895  19.183   4.294
19566W        W86107  40.811  39.328  13.825
19567W        W86108  22.152  31.556   4.587
19568W        W86109  15.710  27.539   0.308
19569W        W86110  24.525  33.075  11.194
19570W        W86111  42.789   6.355   4.206
19571W        W86112  34.567  19.651   4.066
19572W        W86113  10.388  41.028  14.470
19573W        W86114  23.041  23.712   4.259
19574W        W86115  26.414  17.088   3.611
19575W        W86116  35.079  11.509   4.875
19576W        W86117   6.435  34.874   2.253
19577W        W86118  19.218  44.039  14.502
19578W        W86119  37.921  43.009  12.507
19579W        W86120  38.100  38.288  10.723
19580W        W86121  24.252   3.968  12.110
19581W        W86122  12.320  23.439   2.777
19582W        W86123  41.066  37.830   2.250
19583W        W86124  28.008  18.999  11.927
19584W        W86125  11.888  43.317   2.315
19585W        W86126  10.392  16.738   2.257
19586W        W86127   3.940  26.409   2.400
19587W        W86128   0.733  15.730   2.259
19588W        W86129  15.117  22.128   0.845
19589W        W86130  21.645   7.727  14.281
19590W        W86131  28.720  37.494   4.759
19591W        W86132  15.494  34.346  11.097
19592W        W86133  23.021  17.048   3.781
19593W        W86134  36.452  38.613   2.360
19594W        W86135  29.956  20.058   4.362
19595W        W86136  10.261  26.134  12.512
19596W        W86137  40.760  20.117  13.848
19597W        W86138  24.505  10.901  12.997
19598W        W86139   0.717  26.426   2.054
19599W        W86140  39.013  18.079   1.851
19600W        W86141  39.659  16.046   3.020
19601W        W86142  43.939  44.035  10.580
19602W        W86143  33.976  20.828  14.877
19603W        W86144  15.096   4.262  11.997
19604W        W86145  22.997  28.093  11.517
19605W        W86146  23.062   9.597   1.367
19606W        W86147   7.232  21.079  10.923
19607W        W86148   8.617   1.908   4.603
19608W        W86149  39.285  39.495   2.908
19609W        W86150  38.524   9.704  14.924
19610W        W86151  26.001  39.811  12.990
19611W        W86152   9.743  21.073   3.635
19612W        W86153  12.318   3.748  13.901
19613W        W86154   5.438  37.953  10.806
19614W        W86155   6.904  43.476   2.624
19615W        W86156  36.317  17.426   0.272
19616W        W86157  40.411   7.232  12.495
19617W        W86158  42.892  24.752  10.676
19618W        W86159  24.684  41.541  14.300
19619W        W86160  42.411  14.639  12.947
19620W        W86161  12.889  41.354   3.617
19621W        W86162  43.441  27.678  10.770
19622W        W86163  17.503  35.587   2.752
19623W        W86164   5.358  18.202  14.504
19624W        W86165   2.742  43.414  13.265
19625W        W86166  19.113  21.987  14.615
19626W        W86167  19.709  16.836   0.518
19627W        W86168  17.204   2.856   3.870
19628W        W86169  36.841   6.520   1.722
19629W        W86170  17.608   5.020  12.572
19630W        W86171  16.323  27.677   3.740
19631W        W86172   1.504  16.442  10.687
19632W        W86173  42.551  41.508  14.801
19633W        W86174   5.969  10.205   2.295
19634W        W86175  28.172  15.161   1.103
19635W        W86176   4.219  32.622  14.453
19636W        W86177  42.758  29.616   3.256
19637W        W86178   7.869  13.362   4.142
19638W        W86179   2.661  24.954  13.488
19639W        W86180  18.124  19.643   0.570
19640W        W86181  39.017  11.791   1.233
19641W        W86182  19.260  14.262   0.127
19642W        W86183  27.746  22.983  12.549
19643W        W86184  22.772  38.102   2.109
19644W        W86185  17.048   0.364   3.867
19645W        W86186  37.744  36.271  11.279
19646W        W86187   7.236  22.548   4.666
19647W        W86188  10.950  30.027  13.441
19648W        W86189  16.159   1.836   5.076
19649W        W86190  13.082  40.048  10.514
19650W        W86191  30.775  28.985   0.747
19651W        W86192  41.215   3.204   0.936
19652W        W86193  31.950   4.237  11.684
19653W        W86194  40.968  18.160   0.487
19654W        W86195  26.085  39.012   3.223
19655W        W86196  20.703   4.185  10.699
19656W        W86197  20.848  38.015  13.112
19657W        W86198  27.826  11.213   4.049
19658W        W86199   7.593  31.011   3.593
19659W        W86200  22.732  35.482   2.530
19660W        W86201   6.722   7.209  13.528
19661W        W86202  25.080  23.924  14.778
19662W        W86203  20.165  41.264   3.586
19663W        W86204  34.657   9.063  11.101
19664W        W86205  40.986  14.467  11.208
19665W        W86206   7.460  19.230   2.296
19666W        W86207  27.833  13.307  14.883
19667W        W86208  30.537  35.131  14.305
19668W        W86209  16.630  37.876  13.789
19669W        W86210  10.057  26.615  11.979
19670W        W86211  21.210  18.459   1.016
19671W        W86212  40.019  17.635  14.098
19672W        W86213  19.160   9.959   4.639
19673W        W86214  30.115   8.657   0.647
19674W        W86215  22.450  35.896  12.443
19675W        W86216  24.164  16.512  14.426
19676W        W86217   3.286   8.912   0.714
19677W        W86218  34.724  37.660  11.875
19678W        W86219  23.410  35.041  14.587
19679W        W86220  19.172  33.310   0.737
19680W        W86221  34.537  33.316  11.242
19681W        W86222  40.879  42.246  14.859
19682W        W86223  34.909  25.503  11.188
19683W        W86224  41.844  35.789   2.395
19684W        W86225   9.996   3.197   1.832
19685W        W86226  33.855  43.336   3.255
19686W        W86227  10.116   3.339   1.325
19687W        W86228   4.587  18.171  13.041
19688W        W86229   8.401  22.641   4.985
19689W        W86230   7.547  44.893   4.926
19690W        W86231  22.780  11.979  13.830
19691W        W86232  34.466   2.177   3.893
19692W        W86233  43.102   6.364  10.749
19693W        W86234  39.508  32.922  10.665
19694W        W86235   7.344  13.356   0.390
19695W        W86236  24.151   9.359   4.914
19696W        W86237   8.369  15.726   1.039
19697W        W86238  14.799   8.735  14.401
19698W        W86239  26.418  31.309   2.308
19699W        W86240   4.659  23.096  13.569
19700W        W86241  27.956  31.172   3.084
19701W        W86242  13.187  28.934   0.011
19702W        W86243  37.131  13.120  12.486
19703W        W86244  24.624  41.563  13.768
19704W        W86245  38.386  35.818  14.927
19705W        W86246   8.315  16.514  12.209
19706W        W86247  38.875  31.018   2.421
19707W        W86248  40.086  32.220   3.297
19708W        W86249  30.739  15.326  13.882
19709W        W86250   1.018  21.086   4.007
19710W        W86251  14.739  43.278  14.262
19711W        W86252  24.749  30.513  11.486
19712W        W86253  23.380  41.651   4.534
19713W        W86254  36.083  16.689  11.516
19714W        W86255   2.254  20.943  12.960
19715W        W86256  40.562  22.727  13.735
19716W        W86257   5.308  16.549  13.419
19717W        W86258  20.974  30.995   0.828
19718W        W86259  38.096  13.507  13.538
19719W        W86260   9.450  30.439   4.500
19720W        W86261  39.003  11.803   0.332
19721W        W86262  11.090  41.345   4.111
19722W        W86263  27.617  10.527   2.363
19723W        W86264  11.336  15.403   4.848
19724W        W86265  39.930  23.573  11.535
19725W        W86266   1.396  21.518  12.245
19726W        W86267  22.999  38.063   1.479
19727W        W86268   4.427  28.552   0.997
19728W        W86269  41.540  33.421   0.032
19729W        W86270  15.400   9.379  11.138
19730W        W86271  13.673   0.326   3.328
19731W        W86272  25.144  27.645  13.051
19732W        W86273  12.010   6.279   4.444
19733W        W86274  26.348  35.971  12.049
19734W        W86275  31.837   1.660  12.358
19735W        W86276  11.054   1.435   3.047
19736W        W86277   8.120   0.451  11.985
19737W        W86278   8.380   7.318   0.263
19738W        W86279  10.784   4.803  12.537
19739W        W86280   6.654  22.700  10.803
19740W        W86281   8.293  17.696   4.566
19741W        W86282  15.344  38.134  11.496
19742W        W86283  24.106  44.111   1.277
19743W        W86284  24.157  25.311  11.742
19744W        W86285  11.029  25.487   0.110
19745W        W86286  27.606  18.015  14.460
19746W        W86287  36.536  24.200  14.438
19747W        W86288  15.818  17.614  11.916
19748W        W86289   6.922  10.547   4.580
19749W        W86290  29.186  13.429  11.659
19750W        W86291  26.131   8.199   2.215
19751W        W86292   2.908  44.799  14.612
19752W        W86293  39.319  34.734  13.852
19753W        W86294  23.820  14.031   1.475
19754W        W86295  36.552  34.894   0.215
19755W        W86296  17.655   4.063   2.250
19756W        W86297  40.442  26.711  12.006
19757W        W86298  27.194  15.552  13.515
19758W        W86299  36.014  12.202   2.739
19759W        W86300  34.048  14.411  13.310
19760W        W86301   6.045  35.618  12.460
19761W        W86302  32.974  37.646   2.881
19762W        W86303   0.700  13.329   4.082
19763W        W86304  29.390  12.590  13.294
19764W        W86305   3.675  19.675   1.722
19765W        W86306  30.592   6.947   2.625
19766W        W86307  30.467  18.412   0.036
19767W        W86308  40.351  40.618   0.488
19768W        W86309  33.406  41.506  12.517
19769W        W86310  34.157  26.447   1.122
19770W        W86311  44.829  28.584   1.422
19771W        W86312  27.925  31.151   1.727
19772W        W86313  19.435   0.008  12.660
19773W        W86314  31.219   9.824  11.592
19774W        W86315  10.956   2.815   3.450
19775W        W86316  13.193  28.681   3.621
19776W        W86317  24.576  28.072   0.318
19777W        W86318   2.945  15.256   2.548
19778W        W86319  23.097  18.793   4.555
19779W        W86320   9.890   4.646   1.744
19780W        W86321   9.280  10.871   3.288
19781W        W86322  18.178  20.232   3.561
19782W        W86323  22.519  28.404  10.733
19783W        W86324  25.474   7.860   1.550
19784W        W86325  13.709  31.497   0.688
19785W        W86326  17.769   4.146  10.846
19786W        W86327  41.355  35.346  14.865
19787W        W86328  33.346  10.884  10.666
19788W        W86329  12.748  37.648   0.056
19789W        W86330   8.335  28.277  13.732
19790W        W86331  11.535  26.520  10.814
19791W        W86332  26.200   9.689   4.667
19792W        W86333  22.158  18.329  13.315
19793W        W86334  29.299  35.715   3.087
19794W        W86335  39.282  15.643  13.535
19795W        W86336  33.459   1.697   2.989
19796W        W86337   4.143   1.628  14.557
19797W        W86338  37.292  31.370  11.999
19798W        W86339   1.350   4.357  12.596
19799W        W86340  44.329  28.569   3.676
19800W        W86341  22.149  35.160  12.888
19801W        W86342  22.542   6.222  12.987
19802W        W86343  44.798  16.024   3.408
19803W        W86344   7.107  10.363   1.706
19804W        W86345  17.524  19.986  14.275
19805W        W86346  39.972  38.269   1.231
19806W        W86347   1.721  44.055  14.870
19807W        W86348  24.252  23.486   1.710
19808W        W86349   9.301  31.035  11.744
19809W        W86350  25.548  22.502   0.953
19810W        W86351   3.915  14.722  14.465
19811W        W86352  24.244  42.631  13.642
19812W        W86353  35.145  40.559   0.700
19813W        W86354   4.824  20.841  12.132
19814W        W86355  29.349  15.185  11.387
19815W        W86356  11.848   7.941   4.497
19816W        W86357  14.162  41.281  14.288
19817W        W86358  44.792  14.566   0.048
19818W        W86359   1.189  27.376  12.315
19819W        W86360  42.699  16.124   1.744
19820W        W86361  43.538  14.214  11.257
19821W        W86362  11.143  40.830  13.054
19822W        W86363   6.816   1.949  12.958
19823W        W86364  43.716  43.812   0.883
19824W        W86365  38.426   7.193  13.918
19825W        W86366  21.723  29.096   2.320
19826W        W86367   3.661   6.732   0.859
19827W        W86368  34.494   1.432  13.391
19828W        W86369   2.281  27.473  12.104
19829W        W86370  38.503  23.472  12.079
19830W        W86371  10.660  29.587   4.578
19831W        W86372   9.399  31.309   2.003
19832W        W86373  15.767   1.067  12.052
19833W        W86374  13.287  36.251  10.820
19834W        W86375  43.700   9.392   0.943
19835W        W86376  21.028   5.431   2.397
19836W        W86377  44.396   4.948   4.718
19837W        W86378  37.941  22.429   0.421
19838W        W86379  30.638  39.505  10.777
19839W        W86380   8.927  14.556   4.469
19840W        W86381  39.736  12.762   5.329
19841W        W86382  27.658  17.001  12.357
19842W        W86383  39.381  15.794   3.901
19843W        W86384  40.833  21.634  10.607
19844W        W86385  25.722  19.710   4.506
19845W        W86386   6.889  39.860   2.775
19846W        W86387  37.417  40.521   0.436
19847W        W86388   3.893  10.221  14.177
19848W        W86389  18.178  43.017   5.096
19849W        W86390  17.687  13.449   2.178
19850W        W86391  12.241  27.387   0.621
19851W        W86392  44.246  20.696  13.638
19852W        W86393   3.326  18.876   4.638
19853W        W86394  27.063  32.523   2.012
19854W        W86395   3.545  29.467  10.835
19855W        W86396   1.461  12.367   1.251
19856W        W86397  28.924   8.032  11.722
19857W        W86398  13.239  26.276  13.824
19858W        W86399  43.966  27.486   1.695
19859W        W86400  32.627  44.004  14.305
19860W        W86401   1.791  27.184   1.773
19861W        W86402  22.650  35.020  11.997
19862W        W86403  43.657   7.012   4.328
19863W        W86404  38.388  44.390   3.755
19864W        W86405  16.833  39.950   2.499
19865W        W86406  23.039   4.451   9.755
19866W        W86407  39.608   7.893   2.761
19867W        W86408   9.021  19.562  12.684
19868W        W86409  37.873  18.228   4.137
19869W        W86410  24.682  35.443   2.251
19870W        W86411  15.914  37.862   2.868
19871W        W86412  33.315  44.971  13.148
19872W        W86413  20.197  26.535   3.631
19873W        W86414  32.578   1.091   3.114
19874W        W86415  28.915   6.424  14.033
19875W        W86416  12.025   2.468  11.968
19876W        W86417   8.373  29.467  14.271
19877W        W86418  29.734  20.501   3.663
19878W        W86419  39.834   3.005   2.243
19879W        W86420  18.609   4.750   5.046
19880W        W86421  38.667  44.365  13.241
19881W        W86422  32.980  18.062  13.772
19882W        W86423  22.006  15.321  13.792
19883W        W86424  21.310  28.179  10.443
19884W        W86425  37.899  20.404  14.880
19885W        W86426  12.726  32.572   1.713
19886W        W86427  27.682  31.625   3.771
19887W        W86428  12.002  14.819   0.245
19888W        W86429  42.365   6.757  11.383
19889W        W86430  40.039  39.982   4.590
19890W        W86431  15.634  37.158   0.325
19891W        W86432  18.950  41.787   0.281
19892W        W86433   4.305  40.021   4.488
19893W        W86434  13.681  30.418  14.302
19894W        W86435  18.932  22.027   1.487
19895W        W86436  41.582   3.728   3.948
19896W        W86437  15.014  23.553  10.540
19897W        W86438  23.093  39.427   3.191
19898W        W86439  28.466   7.915  13.013
19899W        W86440  41.368  34.873  14.540
19900W        W86441  33.532   9.913  10.819
19901W        W86442  42.852   0.546  13.699
19902W        W86443  32.436  39.356   1.797
19903W        W86444  16.468  39.872  10.713
19904W        W86445  29.099   6.252   0.339
19905W        W86446   7.248  37.546   2.684
19906W        W86447  40.286  23.319   4.145
19907W        W86448  40.104  13.279  13.524
19908W        W86449  26.686  19.707   2.823
19909W        W86450  30.741  44.761  14.229
19910W        W86451  31.096  27.577  12.778
19911W        W86452  35.961  16.041   0.541
19912W        W86453  31.794   0.978   2.931
19913W        W86454  36.046  10.280   4.101
19914W        W86455  30.077  42.947  14.338
19915W        W86456  22.508  21.019   4.268
19916W        W86457  34.830  23.509   1.798
19917W        W86458  13.266  18.632   4.043
19918W        W86459  14.213  19.657   4.153
19919W        W86460  25.292  21.101   1.102
19920W        W86461  42.319   9.260  11.196
19921W        W86462  40.484  29.459   3.012
19922W        W86463  23.486  37.494  11.588
19923W        W86464  39.277   4.880   4.501
19924W        W86465  19.724  43.828   0.706
19925W        W86466  13.829  11.794  11.723
19926W        W86467  38.661  10.928   0.408
19927W        W86468  32.653   3.887   0.952
19928W        W86469  43.499  10.736   3.831
19929W        W86470  21.160  19.230  11.661
19930W        W86471  42.764   6.170  13.277
19931W        W86472  10.339  42.924  10.100
19932W        W86473  10.435   3.865   1.214
19933W        W86474  34.672   5.255   3.223
19934W        W86475  11.574   2.730  11.604
19935W        W86476   4.706  44.813  13.400
19936W        W86477  33.702  27.913  12.385
19937W        W86478  12.900  39.846   1.830
19938W        W86479  36.047  33.106  11.715
19939W        W86480  29.705  26.373   5.079
19940W        W86481  37.792  22.921   0.436
19941W        W86482   4.932  36.861  13.400
19942W        W86483  33.894  32.805   2.378
19943W        W86484   3.863   7.471  11.589
19944W        W86485  32.847  19.659   1.957
19945W        W86486  23.152   3.162   0.866
19946W        W86487  41.080  37.014   3.731
19947W        W86488  36.783  18.169  13.938
19948W        W86489  35.074  44.307  14.609
19949W        W86490   6.162  39.973  14.542
19950W        W86491  27.927  14.650   1.667
19951W        W86492  44.867   4.033   2.691
19952W        W86493  19.623  43.591  13.657
19953W        W86494  33.056  14.160  14.236
19954W        W86495  44.297  25.042   3.731
19955W        W86496  27.301   8.782  10.749
19956W        W86497  25.637  26.601   4.500
19957W        W86498  10.938   3.708  12.607
19958W        W86499   7.724  37.062  10.122
19959W        W86500   1.609  34.001   9.967
19960W        W86501  31.469  38.276  13.971
19961W        W86502   1.468  33.672   2.185
19962W        W86503   0.540  18.640  10.786
19963W        W86504  20.610   4.684   4.045
19964W        W86505  18.797   8.713   2.130
19965W        W86506  38.253  20.009  14.921
19966W        W86507  18.101   2.798  12.996
19967W        W86508   6.333  15.543   4.894
19968W        W86509  33.346  36.696  11.518
19969W        W86510  13.724  26.266  14.788
19970W        W86511   4.058  15.545   1.399
19971W        W86512   7.745  15.752   5.088
19972W        W86513  30.930  22.757  12.055
19973W        W86514   6.502   8.471  11.513
19974W        W86515  32.937  20.071  13.095
19975W        W86516  37.889  22.720  11.572
19976W        W86517  13.819  40.488   0.212
19977W        W86518  38.408  39.587   4.302
19978W        W86519   0.185   0.234   4.529
19979W        W86520   7.891  38.060  10.352
19980W        W86521  44.434  25.716   2.261
19981W        W86522  34.370   8.796   1.360
19982W        W86523  28.802  32.374   1.471
19983W        W86524   4.919  12.337  14.859
19984W        W86525  42.039  13.776  14.246
19985W        W86526   7.957   2.910   3.149
19986W        W86527  14.344  14.190   3.887
19987W        W86528  44.192  37.498   4.204
19988W        W86529  14.725  15.779   4.685
19989W        W86530  39.969  35.578  13.173
19990W        W86531  33.426  23.111  10.192
19991W        W86532  26.711  36.521  10.619
19992W        W86533  37.425  36.240  13.960
19993W        W86534   9.298  19.830   2.647
19994W        W86535  25.590   3.931  12.533
19995W        W86536  20.279  42.464   4.175
19996W        W86537  17.277  40.771   5.021
19997W        W86538  37.031   8.030   3.076
19998W        W86539   9.316   1.817   2.852
19999W        W86540  18.400   1.907   4.592
20000W        W86541  42.459  35.765  11.892
20001W        W86542  28.904  13.525  12.416
20002W        W86543  17.602  23.579   1.401
20003W        W86544   3.982  14.079   4.930
20004W        W86545   1.006   6.480  11.805
20005W        W86546   3.831   0.356   4.397
20006W        W86547  12.096  32.160   1.272
20007W        W86548   9.761  23.560   4.232
20008W        W86549  27.219  44.007   2.398
20009W        W86550  28.750  22.269  11.071
20010W        W86551   4.633   0.863  14.768
20011W        W86552  32.557   3.782   0.459
20012W        W86553  24.594   0.231  11.117
20013W        W86554  41.620  16.186   4.615
20014W        W86555  28.550  44.477   4.710
20015W        W86556   5.366  11.777   0.929
20016W        W86557  25.256  12.851   3.798
20017W        W86558  25.638  18.124  13.633
20018W        W86559  15.490   6.128  13.882
20019W        W86560  11.602  24.074  12.555
20020W        W86561  20.762  34.810   0.440
20021W        W86562  28.095  17.230   1.785
20022W        W86563  26.639   8.811   4.622
20023W        W86564  39.097  25.732   2.640
20024W        W86565  20.230   3.930  11.348
20025W        W86566  26.195  29.342   2.194
20026W        W86567  13.047  34.435  12.527
20027W        W86568   7.918  32.428   1.008
20028W        W86569  43.363  44.362  11.850
20029W        W86570  26.252  23.621   1.430
20030W        W86571   4.079  32.935   3.498
20031W        W86572   5.882  26.822   3.756
20032W        W86573  27.584  19.234   4.704
20033W        W86574  11.236  37.522   1.776
20034W        W86575  20.936   9.258  14.262
20035W        W86576  30.220  31.907  14.447
20036W        W86577  39.457  27.696   2.772
20037W        W86578  25.078   6.479   3.146
20038W        W86579   7.262  35.892   3.271
20039W        W86580  42.280  36.262  13.143
20040W        W86581  10.851  26.794  14.936
20041W        W86582  38.619  23.988   3.331
20042W        W86583  36.352  40.923   2.675
20043W        W86584  15.089   8.835  12.867
20044W        W86585   8.810  40.084  11.521
20045W        W86586   7.426  13.666  13.582
20046W        W86587  25.382  39.093   4.099
20047W        W86588   6.300  29.344  14.253
20048W        W86589  37.312   8.772  11.124
20049W        W86590   6.101  37.039   1.853
20050W        W86591   4.578  17.088   0.734
20051W        W86592   8.266  40.589   3.757
20052W        W86593   0.267  30.321   4.585
20053W        W86594   5.500  33.238  12.037
20054W        W86595  14.851  11.639  10.994
20055W        W86596  25.994  20.947   2.657
20056W        W86597  15.702  19.661   2.444
20057W        W86598  22.902  37.683   2.410
20058W        W86599   5.453  38.872  12.581
20059W        W86600   0.387   5.887   3.963
20060W        W86601   5.748  41.999  14.348
20061W        W86602   8.412  20.822   2.523
20062W        W86603  29.113   9.208  10.696
20063W        W86604  43.711  29.714   0.101
20064W        W86605  15.116  14.675  12.504
20065W        W86606   9.442   3.869   4.406
20066W        W86607  24.222   2.497  10.612
20067W        W86608  34.257   2.464  12.107
20068W        W86609  29.409  37.054  14.407
20069W        W86610  34.810  41.093   4.175
20070W        W86611  38.638  11.484  14.578
20071W        W86612   6.788  27.220  14.931
20072W        W86613   6.763  24.261  13.424
20073W        W86614  40.436  30.852   3.120
20074W        W86615  32.027  34.973  10.477
20075W        W86616  17.172  42.050   1.409
20076W        W86617  12.737  12.062  11.086
20077W        W86618   9.246  12.672   5.077
20078W        W86619  29.797  31.118   1.862
20079W        W86620  34.923  24.404   3.554
20080W        W86621  18.440   2.393   1.013
20081W        W86622  34.939  44.721  13.414
20082W        W86623  37.874  13.827   4.382
20083W        W86624  29.590  28.229   2.346
20084W        W86625  13.890  32.143  11.837
20085W        W86626  30.744  40.840   3.651
20086W        W86627  37.107  36.784   3.096
20087W        W86628  11.871  34.461  11.501
20088W        W86629  29.284  41.793  13.143
20089W        W86630  35.016   0.218   0.377
20090W        W86631  36.487  19.382   4.151
20091W        W86632   1.626   4.143  13.483
20092W        W86633  15.380  29.457  11.959
20093W        W86634  36.608   1.472   2.686
20094W        W86635   5.776  13.085  11.120
20095W        W86636  43.305   3.278   2.854
20096W        W86637   2.704  32.556   3.733
20097W        W86638  26.981   2.557   1.411
20098W        W86639  16.605   5.942   0.587
20099W        W86640  25.102  14.751   2.745
20100W        W86641  19.781  44.712  12.977
20101W        W86642  17.642  27.407  13.965
20102W        W86643  33.990  25.511  11.482
20103W        W86644   2.394  26.281   1.893
20104W        W86645  10.176  16.228   3.064
20105W        W86646  39.969   7.988  12.667
20106W        W86647  26.532  22.065   1.508
20107W        W86648  23.354  39.544  12.550
20108W        W86649   6.372  12.872  13.591
20109W        W86650  37.689  19.893  12.607
20110W        W86651  30.605   4.903   1.795
20111W        W86652  23.510  42.956  14.498
20112W        W86653  34.403  29.959   0.756
20113W        W86654  20.704   1.238   0.814
20114W        W86655  30.172  40.932  14.405
20115W        W86656  40.130  15.837   2.849
20116W        W86657  23.495   3.449   4.575
20117W        W86658  32.859  14.991   2.725
20118W        W86659  13.559   8.391  14.218
20119W        W86660  13.080  18.817   2.730
20120W        W86661  16.120  36.479   3.769
20121W        W86662  27.668  24.075  12.578
20122W        W86663  35.842  19.021   2.724
20123W        W86664  13.903  42.478  13.542
20124W        W86665   4.419  20.245  10.971
20125W        W86666  22.606  21.832  11.067
20126W        W86667  14.254  26.079   2.749
20127W        W86668  35.602  21.203  12.193
20128W        W86669  11.199  31.675   0.405
20129W        W86670  35.658   2.542  12.645
20130W        W86671   1.777  28.711   4.141
20131W        W86672  33.194  38.455   2.264
20132W        W86673  43.983  31.997   1.551
20133W        W86674  18.133  19.014  13.910
20134W        W86675  30.915  24.558   2.963
20135W        W86676   5.817  38.273   4.287
20136W        W86677  32.828  29.525   2.782
20137W        W86678  16.820   0.200  13.982
20138W        W86679  12.381  17.367  10.565
20139W        W86680  12.979  41.625   4.076
20140W        W86681  37.600  18.021   3.736
20141W        W86682  24.508  41.741   3.781
20142W        W86683  18.086  42.845   0.110
20143W        W86684  19.181  12.277   2.394
20144W        W86685   9.367  14.066   4.637
20145W        W86686  30.940  15.671   1.252
20146W        W86687  38.621  10.899  11.166
20147W        W86688  26.858  25.706   4.539
20148W        W86689   6.898  14.534  11.402
20149W        W86690  39.919   5.887   2.397
20150W        W86691  35.205  41.070   2.663
20151W        W86692  41.824  15.253   3.321
20152W        W86693  43.046  12.236  11.603
20153W        W86694  25.171  26.924  14.267
20154W        W86695   2.673  39.627   1.398
20155W        W86696  12.093  20.000  14.734
20156W        W86697  39.772   6.370  11.917
20157W        W86698   3.393  26.963  13.856
20158W        W86699  13.036  31.725  13.471
20159W        W86700  39.666  37.204  12.721
20160W        W86701  14.726   4.854   1.006
20161W        W86702  25.667  13.385   0.836
20162W        W86703  15.159  31.096  12.376
20163W        W86704  25.810  43.017  11.605
20164W        W86705  12.418  25.726  14.863
20165W        W86706  31.822   1.283  11.772
20166W        W86707  19.599  20.197   3.226
20167W        W86708  27.131  36.995  11.073
20168W        W86709  27.465  22.677  13.460
20169W        W86710  39.201   2.794   0.759
20170W        W86711  25.869  27.811   2.378
20171W        W86712   6.526  40.511   4.028
20172W        W86713   9.232  24.483  13.465
20173W        W86714   6.302   9.091  14.442
20174W        W86715   4.315  39.927  12.522
20175W        W86716   6.581   0.634  13.880
20176W        W86717  11.865  44.282   2.247
20177W        W86718  19.296   5.351  13.006
20178W        W86719  16.648  22.783  10.729
20179W        W86720  42.397  13.384   2.839
20180W        W86721  30.444  26.552   3.700
20181W        W86722   4.615  41.763   3.723
20182W        W86723  30.097   9.792  12.892
20183W        W86724  44.271  30.659   0.177
20184W        W86725   2.153  15.148   1.089
20185W        W86726  16.115  36.833  14.215
20186W        W86727   8.871  32.958   1.230
20187W        W86728   5.859  29.480  13.400
20188W        W86729   2.486  11.596  14.815
20189W        W86730  38.400  26.932   3.813
20190W        W86731  42.624  13.018  10.059
20191W        W86732  15.540  19.222  11.123
20192W        W86733  33.029  20.295   1.497
20193W        W86734   4.869  40.914   3.761
20194W        W86735  23.017  10.211   3.290
20195W        W86736  17.570  36.083   0.896
20196W        W86737  11.796  30.345  13.060
20197W        W86738  31.157  19.171  14.928
20198W        W86739  28.455   5.829  11.716
20199W        W86740  12.595   2.448   2.729
20200W        W86741  21.943  20.741   1.244
20201W        W86742  32.560  27.170   4.289
20202W        W86743  25.997  24.361   4.726
20203W        W86744  31.222  16.207  11.970
20204W        W86745  23.139   3.347  11.166
20205W        W86746   1.380  28.157   0.776
20206W        W86747  12.881  29.882   3.246
20207W        W86748  14.585  35.845   2.025
20208W        W86749  21.785  41.082  11.124
20209W        W86750   9.665  20.194  10.358
20210W        W86751  12.605  31.651  10.596
20211W        W86752  40.218  28.361   1.858
20212W        W86753  28.156  19.234   0.907
20213W        W86754  35.400  38.880  11.531
20214W        W86755  40.618  32.008   4.158
20215W        W86756   2.466  35.477  12.124
20216W        W86757   9.663  37.226  10.735
20217W        W86758  35.067   6.824   4.610
20218W        W86759   8.395  35.459   1.715
20219W        W86760  42.678  32.840   2.936
20220W        W86761  33.873   0.835   4.929
20221W        W86762  39.878   0.143  12.433
20222W        W86763   7.566  16.847   1.777
20223W        W86764  31.954  11.428   0.282
20224W        W86765   0.236  20.655  12.097
20225W        W86766   1.812   6.785   2.081
20226W        W86767   1.821  25.451   3.634
20227W        W86768  14.083  44.371  12.927
20228W        W86769  15.775  38.725  10.475
20229W        W86770  33.905  11.246   2.389
20230W        W86771  28.110  28.472  12.970
20231W        W86772  37.254   5.962  11.219
20232W        W86773  24.614  34.979  11.166
20233W        W86774  18.215  18.067   1.451
20234W        W86775  21.227   7.281  10.968
20235W        W86776  12.918   6.388  12.821
20236W        W86777  14.181  40.042  11.099
20237W        W86778  13.292  33.869  10.699
20238W        W86779  36.991   7.452  14.925
20239W        W86780  28.933  18.408   0.039
20240W        W86781  20.968  37.492   2.202
20241W        W86782   7.738  41.871   3.630
20242W        W86783  29.420  42.228  13.386
20243W        W86784  30.095  12.930   3.616
20244W        W86785  33.898  39.900  11.172
20245W        W86786   8.809   4.611   3.085
20246W        W86787  14.927  27.471   1.720
20247W        W86788  38.058  35.708   4.800
20248W        W86789  44.424  31.339   1.904
20249W        W86790  22.499  37.955   1.634
20250W        W86791   0.897  28.839  14.773
20251W        W86792  14.990   4.779   1.472
20252W        W86793  12.290   6.715  11.385
20253W        W86794   7.388  13.339   3.982
20254W        W86795  15.329  26.446   3.625
20255W        W86796  35.130   5.917   0.353
20256W        W86797  44.368  10.332  11.439
20257W        W86798  38.070   4.685   2.137
20258W        W86799  44.909  12.540  11.774
20259W        W86800  17.512  21.669  14.759
20260W        W86801  14.680   6.864  12.036
20261W        W86802  43.411  19.213   3.878
20262W        W86803  32.274   9.918   4.823
20263W        W86804  16.536  44.061  11.250
20264W        W86805  44.003  17.278   1.386
20265W        W86806  12.814  22.175   2.825
20266W        W86807  41.287  30.089  14.983
20267W        W86808  17.560  28.199   4.579
20268W        W86809  27.726  31.054   4.822
20269W        W86810  30.618  31.586  13.765
20270W        W86811  16.874   2.504  13.450
20271W        W86812  19.659  31.851   3.727
20272W        W86813  31.189  16.881  12.434
20273W        W86814   1.468  16.642  14.847
20274W        W86815  27.527  28.511  11.949
20275W        W86816  16.793  27.582  13.728
20276W        W86817  17.458  29.970   4.464
20277W        W86818   1.173  37.891  13.456
20278W        W86819   2.593   1.478  12.600
20279W        W86820  14.043  25.626  12.424
20280W        W86821  41.239  33.555   2.830
20281W        W86822   2.348  13.648   1.796
20282W        W86823  22.495  11.743  10.252
20283W        W86824   3.895  13.915   4.192
20284W        W86825  21.023  19.083  12.667
20285W        W86826  18.171  15.865   2.686
20286W        W86827  39.952  42.445   0.764
20287W        W86828   3.303  27.243  14.495
20288W        W86829  42.955  13.599   0.424
20289W        W86830  12.577  12.921   4.916
20290W        W86831  12.654  33.014   4.714
20291W        W86832  22.666  32.302   0.392
20292W        W86833   9.433  37.741  11.479
20293W        W86834   3.684  17.362  13.068
20294W        W86835  26.653   9.447   4.565
20295W        W86836  25.989   8.782  13.316
20296W        W86837   7.933  26.888  11.331
20297W        W86838  29.451  17.831  12.091
20298W        W86839   5.201   3.933   1.729
20299W        W86840  31.063   0.404  14.829
20300W        W86841  17.299  17.267   1.677
20301W        W86842   3.348  38.076  12.438
20302W        W86843  35.993  24.796  14.816
20303W        W86844  43.802  12.643   2.855
20304W        W86845   6.158   1.409   4.211
20305W        W86846  38.012   4.057  12.482
20306W        W86847   4.714  20.001   0.101
20307W        W86848  37.173  13.334  14.350
20308W        W86849  26.213  30.882  14.629
20309W        W86850  35.860  41.939   3.018
20310W        W86851   7.322  21.828  14.743
20311W        W86852  15.750  30.346   3.859
20312W        W86853  22.583   3.758   2.271
20313W        W86854  36.263  12.349  11.952
20314W        W86855  43.481   1.075   4.210
20315W        W86856  18.846  44.764  10.701
20316W        W86857   6.791  19.494   2.832
20317W        W86858   3.837   8.154  12.121
20318W        W86859  10.591   2.244  13.858
20319W        W86860   6.340  26.730   4.513
20320W        W86861   7.635  25.664   4.552
20321W        W86862   4.298  20.273   4.307
20322W        W86863   8.679   0.443   4.693
20323W        W86864  38.445  41.714   4.580
20324W        W86865   8.199   1.269  11.486
20325W        W86866  22.015  12.694  13.912
20326W        W86867   3.210  18.553   0.230
20327W        W86868   4.160  23.729  12.025
20328W        W86869  22.002  17.665  13.901
20329W        W86870   0.774  39.947   4.356
20330W        W86871  24.937   8.068  11.143
20331W        W86872  25.031  10.670   2.039
20332W        W86873  25.659  24.276   1.810
20333W        W86874  38.066   0.745  14.915
20334W        W86875  44.163   5.421   0.634
20335W        W86876  27.229   6.962   2.637
20336W        W86877   4.920   4.886  14.920
20337W        W86878  14.130  22.710  10.710
20338W        W86879  40.322  28.689  14.354
20339W        W86880  35.682  44.767  12.173
20340W        W86881  20.143   0.632   3.123
20341W        W86882  21.010  10.679  10.769
20342W        W86883  23.147  21.413   1.107
20343W        W86884  40.336  30.118   3.778
20344W        W86885  35.909  14.850   1.279
20345W        W86886  23.038   4.180  10.219
20346W        W86887  20.268   3.798  14.247
20347W        W86888  11.726  38.930   1.561
20348W        W86889  16.502  37.423  13.531
20349W        W86890   4.718  41.111   1.060
20350W        W86891  23.962  43.855   3.500
20351W        W86892   4.986  40.698  11.043
20352W        W86893   5.679  24.097  14.048
20353W        W86894  36.538  19.429   3.283
20354W        W86895  31.017  19.659  11.802
20355W        W86896  34.901  25.942  13.769
20356W        W86897  32.396   7.181   0.880
20357W        W86898  21.600   9.825   3.547
20358W        W86899  24.539  31.384   3.787
20359W        W86900   7.196  42.983  12.123
20360W        W86901   1.208  15.113  14.020
20361W        W86902  28.355  19.853   0.883
20362W        W86903  36.661  24.832  14.058
20363W        W86904   6.795   2.960  13.841
20364W        W86905   2.187  28.488  13.570
20365W        W86906  43.965  17.598  13.510
20366W        W86907  13.827  10.770   0.851
20367W        W86908  24.541   5.314  14.849
20368W        W86909  15.195  27.466   1.257
20369W        W86910  22.547   7.503  12.511
20370W        W86911  31.076  14.945   5.603
20371W        W86912   5.494   4.512   3.273
20372W        W86913  24.604   9.073   0.678
20373W        W86914  15.250  11.499   1.291
20374W        W86915  29.146  32.701   4.062
20375W        W86916  39.352  20.061   3.387
20376W        W86917  33.120  12.153   0.524
20377W        W86918  29.911  39.212  14.966
20378W        W86919  44.374  24.103   3.921
20379W        W86920  10.672  42.886   3.258
20380W        W86921  14.280  29.440  12.046
20381W        W86922  15.636  26.089   4.532
20382W        W86923   1.907   3.304  11.929
20383W        W86924  33.610  42.861  13.969
20384W        W86925  16.336  28.913  11.263
20385W        W86926  14.719  19.558  13.970
20386W        W86927  42.287  43.053   2.709
20387W        W86928  13.363  25.183  10.668
20388W        W86929  42.887  12.628   2.897
20389W        W86930  21.163  39.674  12.504
20390W        W86931  41.880  25.510  13.808
20391W        W86932  27.052  16.341   2.761
20392W        W86933  37.321  38.494  11.633
20393W        W86934  14.940  18.539  12.432
20394W        W86935   1.414   7.826  11.224
20395W        W86936  41.995  28.402   2.291
20396W        W86937  27.718  37.863   2.868
20397W        W86938   0.791  13.045   3.035
20398W        W86939  22.060  21.725  14.248
20399W        W86940  20.773  32.422   2.640
20400W        W86941  20.902  38.111   0.513
20401W        W86942  29.864  10.700   2.952
20402W        W86943  38.086   4.990  14.863
20403W        W86944  19.262  14.700   1.497
20404W        W86945  19.230  31.111   1.846
20405W        W86946  33.460  13.420  10.714
20406W        W86947  38.322  14.362  14.464
20407W        W86948  14.855  28.013   2.725
20408W        W86949   5.830  43.399  14.776
20409W        W86950   7.810   2.681  13.407
20410W        W86951   2.679  10.219   3.492
20411W        W86952  35.470  39.506   2.666
20412W        W86953   2.370  27.924  13.477
20413W        W86954  10.850  24.991  10.896
20414W        W86955   4.719  32.521  14.359
20415W        W86956  35.331  15.746  12.436
20416W        W86957  19.238  21.102   4.540
20417W        W86958  16.207  30.479   1.614
20418W        W86959  14.057  14.131  11.623
20419W        W86960  22.247  26.208   1.831
20420W        W86961   8.322  42.803   1.882
20421W        W86962  41.278   4.315   0.471
20422W        W86963  26.269  44.035  12.019
20423W        W86964  43.435  37.418  10.675
20424W        W86965  42.772   4.379  13.973
20425W        W86966   6.107  41.067   2.840
20426W        W86967  23.196  44.658   4.241
20427W        W86968  28.555  21.773   1.686
20428W        W86969  32.488  28.295   1.396
20429W        W86970  10.171  13.866  10.661
20430W        W86971  31.125  40.163   1.902
20431W        W86972   0.556  34.271   0.252
20432W        W86973  10.774  34.884   0.517
20433W        W86974  36.033  29.136   1.244
20434W        W86975  17.366  26.118   0.963
20435W        W86976  22.805  28.863   3.192
20436W        W86977  40.193  43.525  12.191
20437W        W86978  30.512   9.227  11.578
20438W        W86979  33.384   9.886  12.633
20439W        W86980  21.310  42.485  12.493
20440W        W86981  16.488   7.537   1.373
20441W        W86982  30.397  10.089   4.166
20442W        W86983  15.280  23.632   1.668
20443W        W86984  44.962   6.655   2.287
20444W        W86985   6.300  30.701   2.104
20445W        W86986  22.269  29.653   4.779
20446W        W86987  43.673  26.121  11.640
20447W        W86988  39.320  41.855  11.562
20448W        W86989  43.778  25.188  14.612
20449W        W86990   1.870  11.674  11.350
20450W        W86991  41.669  33.841  11.392
20451W        W86992  22.136  20.289   0.303
20452W        W86993  22.254   3.852   4.510
20453W        W86994  26.099  13.192  13.010
20454W        W86995   2.242   9.881   0.769
20455W        W86996  27.962  30.453  14.036
20456W        W86997  26.927  33.563   4.139
20457W        W86998   5.428   9.647  14.822
20458W        W86999  41.491  18.443   3.686
20459W        W87000  23.680   0.474   0.431
20460W        W87001  14.527  22.863  12.954
20461W        W87002  44.745  13.411   1.265
20462W        W87003  11.888   1.694  11.088
20463W        W87004  17.867  28.720   2.315
20464W        W87005  24.595  11.045   2.533
20465W        W87006  31.586  21.235   2.071
20466W        W87007  16.766  38.275   0.975
20467W        W87008   8.619  20.130   0.369
20468W        W87009  37.443  19.262   0.585
20469W        W87010  38.650  15.116   1.063
20470W        W87011  17.196  44.732  14.381
20471W        W87012  30.726  29.771  13.910
20472W        W87013   9.715  42.050  10.981
20473W        W87014  17.897  19.223   4.571
20474W        W87015  28.618  39.284  14.355
20475W        W87016  20.827   6.788   0.840
20476W        W87017  44.808  28.183  11.049
20477W        W87018  37.951  43.165   1.532
20478W        W87019  25.697  28.059  14.505
20479W        W87020  42.699   7.301  12.425
20480W        W87021   6.446   9.836  12.980
20481W        W87022  31.891  23.204  13.291
20482W        W87023  21.666   7.839   2.789
20483W        W87024  42.782   3.408  10.944
20484W        W87025  43.508  21.223   4.045
20485W        W87026  42.424  27.622  14.821
20486W        W87027  17.147  20.314   1.080
20487W        W87028   6.975  35.482   3.393
20488W        W87029  25.025  37.619   1.162
20489W        W87030   2.542  16.996   1.725
20490W        W87031  30.165  20.298   3.509
20491W        W87032  40.495  30.612   4.661
20492W        W87033  15.317  13.959   3.666
20493W        W87034  20.312  25.566  11.711
20494W        W87035  18.296  10.065  13.840
20495W        W87036  18.755   9.780  14.464
20496W        W87037  29.192  32.289  14.353
20497W        W87038   1.494   7.929  12.993
20498W        W87039  25.931  25.464  12.133
20499W        W87040  29.284  10.731  13.867
20500W        W87041   7.379  32.950  13.577
20501W        W87042  35.880  24.996   3.202
20502W        W87043  39.375  15.592   4.921
20503W        W87044  27.756   4.516   4.231
20504W        W87045  41.293  35.469  12.960
20505W        W87046  34.647  23.941   2.306
20506W        W87047  23.937  33.034   2.022
20507W        W87048  14.827  29.831  14.917
20508W        W87049  42.082  31.776   2.595
20509W        W87050  10.095   3.747   3.703
20510W        W87051  31.874   4.732  12.138
20511W        W87052  19.566  26.349   0.358
20512W        W87053  35.116  32.427   3.217
20513W        W87054  34.711   3.194  13.028
20514W        W87055  15.558   1.769   2.341
20515W        W87056  36.731  34.555  10.469
20516W        W87057  22.297  20.224   2.439
20517W        W87058  43.268  12.387   2.637
20518W        W87059  28.977  23.975   0.332
20519W        W87060  37.243   6.708   0.365
20520W        W87061  28.049  27.158  10.796
20521W        W87062  32.029  15.138   1.750
20522W        W87063  36.568  14.311  11.603
20523W        W87064  17.744  22.185   1.006
20524W        W87065   1.009  39.538   4.115
20525W        W87066  36.173  19.700   2.069
20526W        W87067  35.589   8.605   2.354
20527W        W87068  27.673  20.462   1.374
20528W        W87069  14.701  42.730   4.750
20529W        W87070  38.332  23.062   1.182
20530W        W87071  42.723   7.965   3.545
20531W        W87072  13.635  31.120  12.070
20532W        W87073  24.801  14.832   0.504
20533W        W87074  34.457  43.245  12.398
20534W        W87075  25.680   6.225   4.333
20535W        W87076  15.381  38.096   4.122
20536W        W87077  19.234  22.708  12.897
20537W        W87078  33.384  23.037  10.708
20538W        W87079   9.875  25.992  14.683
20539W        W87080   6.820  12.880  13.314
20540W        W87081  44.747  31.164   0.514
20541W        W87082  42.003  15.709  13.724
20542W        W87083   9.321  37.605  13.114
20543W        W87084   7.628  10.520   3.554
20544W        W87085  14.373  23.549  13.381
20545W        W87086  28.430  20.103   2.675
20546W        W87087  37.190  28.003  14.524
20547W        W87088  33.672  33.491   0.514
20548W        W87089  30.485  33.059   2.811
20549W        W87090  27.935  12.182   4.592
20550W        W87091   1.997   0.036  13.489
20551W        W87092  35.714  40.599   1.878
20552W        W87093  44.664   0.232   0.026
20553W        W87094  24.498  10.472  14.469
20554W        W87095  44.333   4.739  11.713
20555W        W87096   1.529   3.716  12.602
20556W        W87097   6.136  18.101  11.465
20557W        W87098  30.292  20.657  13.887
20558W        W87099   4.464  15.326   0.180
20559W        W87100   7.900  24.285   3.175
20560W        W87101  33.657  44.013  11.518
20561W        W87102   6.109  34.697  10.325
20562W        W87103  29.881   2.724   4.543
20563W        W87104   4.757   6.881   4.191
20564W        W87105  25.976  16.632   1.850
20565W        W87106  13.293  16.976  13.737
20566W        W87107  39.873  30.929   0.766
20567W        W87108  35.895  23.195  11.695
20568W        W87109  36.677  43.961   1.472
20569W        W87110  20.008   0.747  10.987
20570W        W87111  10.953  41.554   9.838
20571W        W87112   0.753   0.719  13.359
20572W        W87113  37.898  36.915  10.476
20573W        W87114  28.139  28.640   2.159
20574W        W87115  17.722  34.078   2.351
20575W        W87116  27.948   0.828   2.532
20576W        W87117  16.038  14.926  12.489
20577W        W87118  22.509  44.329  13.087
20578W        W87119  12.446  25.601   4.111
20579W        W87120  11.265  26.602   3.534
20580W        W87121  12.465  26.026  13.261
20581W        W87122  38.889  41.298  13.859
20582W        W87123  25.995  33.303  14.747
20583W        W87124  42.030   6.822  13.386
20584W        W87125  19.267   6.674  14.055
20585W        W87126  21.364  27.695  11.969
20586W        W87127   7.380  14.725  12.048
20587W        W87128  37.916   6.104   2.631
20588W        W87129  17.379  23.802  11.090
20589W        W87130  27.435  42.991   1.843
20590W        W87131  10.181  39.529  14.688
20591W        W87132  42.038  28.358   3.279
20592W        W87133  33.699  12.080  14.044
20593W        W87134   6.931   8.935   1.740
20594W        W87135  20.785  26.624  10.970
20595W        W87136   8.314  27.602   0.300
20596W        W87137  25.769  41.456   0.881
20597W        W87138  29.473  34.443   3.181
20598W        W87139   2.411  41.037  13.876
20599W        W87140  28.423  29.522   3.652
20600W        W87141  38.077  31.726  14.465
20601W        W87142  29.319  41.222  11.570
20602W        W87143  40.241  18.271   3.228
20603W        W87144   2.465   8.045  11.972
20604W        W87145  26.483  38.684  11.740
20605W        W87146  43.535  23.060   0.787
20606W        W87147   2.959   0.294   4.878
20607W        W87148   1.741  20.527  10.390
20608W        W87149  30.566  31.232  13.037
20609W        W87150  27.654   8.153  14.948
20610W        W87151  24.420  24.086   2.239
20611W        W87152  35.068  30.283  11.176
20612W        W87153  32.810  19.601  12.959
20613W        W87154  26.955  34.235  14.802
20614W        W87155   3.303   3.983   0.442
20615W        W87156  26.973   9.804  14.403
20616W        W87157  14.268  23.165   0.229
20617W        W87158  28.422  38.573   2.191
20618W        W87159  35.813  23.695  11.507
20619W        W87160   3.271  21.245   1.338
20620W        W87161  28.673   3.372   2.185
20621W        W87162  29.529  22.719   4.262
20622W        W87163   6.667   0.692  12.533
20623W        W87164  36.608  34.681   0.688
20624W        W87165  27.915  23.329   2.266
20625W        W87166  39.793   8.226  11.987
20626W        W87167   8.856  18.478   3.549
20627W        W87168  12.130  28.237  14.491
20628W        W87169   4.929   5.215   2.631
20629W        W87170  26.720   5.192   2.782
20630W        W87171  15.280  17.767  11.925
20631W        W87172   4.661   5.284  12.017
20632W        W87173   0.200  19.851   1.295
20633W        W87174   6.477  24.067  10.811
20634W        W87175  29.201  42.551   0.787
20635W        W87176  39.949  43.285  10.637
20636W        W87177  21.545  37.249  11.579
20637W        W87178  38.116  40.352   0.910
20638W        W87179  23.671  13.875   2.191
20639W        W87180  25.170  38.091  11.534
20640W        W87181  22.683  26.686  13.441
20641W        W87182  21.432  13.319   0.574
20642W        W87183  22.236  10.850   3.366
20643W        W87184  24.230  13.171  14.958
20644W        W87185  37.794  43.932  14.544
20645W        W87186  34.287  43.535   3.432
20646W        W87187   1.080  44.772   2.928
20647W        W87188  44.220  33.013  13.464
20648W        W87189  32.941  21.673  14.827
20649W        W87190  35.520  36.957   4.036
20650W        W87191   2.872   2.755   0.409
20651W        W87192   1.476   9.124  11.523
20652W        W87193  30.103  28.858  11.299
20653W        W87194   1.834  34.613  14.723
20654W        W87195  43.007  25.609  13.187
20655W        W87196  22.239  41.023   1.795
20656W        W87197  36.368  38.873  11.130
20657W        W87198  29.912  18.485  10.685
20658W        W87199  17.651  13.827  14.440
20659W        W87200  21.072  32.399   1.769
20660W        W87201  37.288   7.200   1.606
20661W        W87202  44.243   6.983   2.890
20662W        W87203   3.832   0.467  14.995
20663W        W87204  42.613  12.868  10.584
20664W        W87205   8.229  43.929   2.112
20665W        W87206  44.331   4.310   2.831
20666W        W87207  37.319  14.973  13.537
20667W        W87208  12.435   0.576   0.548
20668W        W87209  40.989  10.443   3.271
20669W        W87210  40.608  21.730   2.332
20670W        W87211  37.045  18.204  13.028
20671W        W87212   7.776   3.463   4.714
20672W        W87213  44.547  18.298   2.281
20673W        W87214  30.687  42.790  14.944
20674W        W87215   9.564  27.221   0.286
20675W        W87216  19.237   1.996  14.981
20676W        W87217  42.576  21.282   4.841
20677W        W87218  35.871  34.392   2.885
20678W        W87219  15.096  33.097  14.824
20679W        W87220  12.203  31.596   2.370
20680W        W87221  30.034  37.929  14.962
20681W        W87222  28.885  11.056  12.086
20682W        W87223  13.095  39.813  11.518
20683W        W87224  31.469  14.827   4.911
20684W        W87225  11.388  16.336  13.907
20685W        W87226   6.372  26.063   3.927
20686W        W87227  32.328   6.741  14.863
20687W        W87228  26.882  34.685  12.185
20688W        W87229  26.488  23.803  13.988
20689W        W87230  25.995  13.242   2.684
20690W        W87231  22.238  42.204  12.413
20691W        W87232  42.524  10.676  11.106
20692W        W87233  16.251  41.385   0.326
20693W        W87234  34.488  35.374   2.716
20694W        W87235  15.249  18.751  14.762
20695W        W87236   5.497  19.095   2.622
20696W        W87237  32.071  37.347  11.557
20697W        W87238  41.598  14.269   1.727
20698W        W87239   7.875  14.599   3.655
20699W        W87240  39.630  24.692  11.088
20700W        W87241   9.869  18.827  11.905
20701W        W87242  40.019   7.171   0.862
20702W        W87243   9.616  14.144   3.325
20703W        W87244  15.603  29.603  14.435
20704W        W87245  27.167  27.269  14.440
20705W        W87246  39.761  15.747  11.793
20706W        W87247  42.431  42.831   3.152
20707W        W87248   4.867  44.150   4.155
20708W        W87249   0.992  22.257   4.616
20709W        W87250  39.318   4.246   1.891
20710W        W87251  43.797  20.602   1.518
20711W        W87252  29.229  43.904  13.269
20712W        W87253  44.408  19.369   1.365
20713W        W87254  26.009  24.381   3.604
20714W        W87255  23.216  40.907   3.859
20715W        W87256  25.016  27.842   0.464
20716W        W87257  33.467  15.625  13.712
20717W        W87258  16.151  27.405   2.418
20718W        W87259  31.083  41.919   2.560
20719W        W87260   9.927  43.954   3.744
20720W        W87261  23.060  40.447   4.002
20721W        W87262   9.611  36.514  13.438
20722W        W87263  34.128   1.953   1.332
20723W        W87264  14.564   9.452   3.881
20724W        W87265  17.540  37.421   2.258
20725W        W87266   2.489  19.744   3.216
20726W        W87267  37.964  42.783   3.877
20727W        W87268  36.891  36.834   2.618
20728W        W87269  20.303  31.581   1.317
20729W        W87270  31.303  20.139  11.727
20730W        W87271   3.401  41.298   1.236
20731W        W87272  11.209  11.910  10.662
20732W        W87273  37.207  31.647   5.069
20733W        W87274  14.167  17.223   1.219
20734W        W87275  12.813  17.092  10.655
20735W        W87276  25.027  36.752  12.183
20736W        W87277  16.303  16.312   3.628
20737W        W87278  15.089  42.763  13.300
20738W        W87279  29.998  39.113   1.909
20739W        W87280  27.466  19.466  13.496
20740W        W87281  26.041  23.154  10.716
20741W        W87282  26.482  13.076   1.515
20742W        W87283   0.743  43.377   4.594
20743W        W87284  34.488  25.119   0.661
20744W        W87285  29.101   9.281   1.181
20745W        W87286  28.194  15.284  10.328
20746W        W87287  44.386  23.460  12.237
20747W        W87288   1.917  12.974  11.218
20748W        W87289   6.669  14.771   0.365
20749W        W87290  42.893  12.782   3.377
20750W        W87291   9.856  28.497  11.656
20751W        W87292  25.938  22.186   2.682
20752W        W87293  14.609  17.735   1.707
20753W        W87294  27.525   3.070   4.529
20754W        W87295  29.095  30.017   2.140
20755W        W87296  34.936  41.341  11.218
20756W        W87297   3.770  37.807   3.168
20757W        W87298  40.617  19.002  10.521
20758W        W87299  28.930  13.240  13.086
20759W        W87300  22.532   0.460  10.277
20760W        W87301   9.245  30.805  14.370
20761W        W87302  41.981  13.128   0.421
20762W        W87303  41.094  15.783  13.155
20763W        W87304  39.985  24.824  12.721
20764W        W87305   6.910   1.498   5.089
20765W        W87306   8.380  10.280  14.772
20766W        W87307  15.716  29.373  13.957
20767W        W87308  12.557  11.034  12.438
20768W        W87309  44.599  12.213   4.664
20769W        W87310  44.526  31.835  12.908
20770W        W87311  12.266  33.431  14.814
20771W        W87312   3.213   9.690   1.709
20772W        W87313   6.472  28.939   1.762
20773W        W87314  39.896  21.358  12.752
20774W        W87315  38.580  14.034  12.289
20775W        W87316  29.901  31.564  12.384
20776W        W87317   3.558  43.034  11.363
20777W        W87318   1.785  41.827   1.014
20778W        W87319   7.309  33.884  12.197
20779W        W87320   5.649   9.211  14.301
20780W        W87321   4.446  23.939   2.374
20781W        W87322  43.074  29.720  11.112
20782W        W87323  35.549  22.393   3.957
20783W        W87324  42.283  39.757  13.925
20784W        W87325  30.583  23.352  10.594
20785W        W87326   8.842  41.959   3.787
20786W        W87327  26.877   1.825   4.852
20787W        W87328   8.250  28.384  10.712
20788W        W87329  22.333  24.169  11.135
20789W        W87330  41.246  10.816  10.671
20790W        W87331  28.623  11.243   2.235
20791W        W87332  12.206  10.949   3.199
20792W        W87333  27.380  27.578   2.758
20793W        W87334  30.511  13.802   0.752
20794W        W87335   0.004  17.991   3.150
20795W        W87336  14.345  28.440  12.053
20796W        W87337   1.864  13.862  14.973
20797W        W87338  19.472  43.465   3.302
20798W        W87339  32.104  34.659  13.879
20799W        W87340  39.597  42.978   4.625
20800W        W87341  32.306  40.930   1.048
20801W        W87342  31.599  40.445   0.766
20802W        W87343   8.250  39.534  14.869
20803W        W87344  18.716  35.215   2.107
20804W        W87345  27.597  31.647  12.249
20805W        W87346  32.450   8.215   3.672
20806W        W87347  42.788  20.992   0.586
20807W        W87348  13.173  28.649  13.480
20808W        W87349   9.734  24.520  12.061
20809W        W87350  37.266  39.488   0.591
20810W        W87351  11.763  32.496  11.637
20811W        W87352  12.644   9.798   3.678
20812W        W87353  14.586  40.774   1.774
20813W        W87354  29.994  12.100   3.168
20814W        W87355  35.687  11.278   2.249
20815W        W87356  13.700  19.432   2.848
20816W        W87357  14.304   9.727  11.613
20817W        W87358  15.251  30.166   3.884
20818W        W87359  16.823  24.323   2.194
20819W        W87360  32.936  26.576  10.363
20820W        W87361  36.247  12.396   3.934
20821W        W87362  13.489  28.207   0.727
20822W        W87363  44.507  43.962   0.283
20823W        W87364  37.414  28.299  11.994
20824W        W87365  36.518  43.707   4.585
20825W        W87366  19.601  38.884  14.550
20826W        W87367  29.948  43.245   4.928
20827W        W87368  36.894  21.160  12.497
20828W        W87369  39.399  44.794   3.506
20829W        W87370   5.300   7.605   0.955
20830W        W87371  37.057  28.656  13.818
20831W        W87372   0.275  34.112   4.129
20832W        W87373  41.214  33.898  11.179
20833W        W87374  22.242  15.179  10.693
20834W        W87375  42.317  41.354   4.064
20835W        W87376  20.481  24.716  13.513
20836W        W87377  36.297   8.669  13.186
20837W        W87378  15.943  13.805  12.527
20838W        W87379  19.599   0.798  11.982
20839W        W87380  27.998  36.096   2.145
20840W        W87381  24.954   1.234   3.688
20841W        W87382  22.206  30.557   1.014
20842W        W87383  27.257   6.170   3.091
20843W        W87384  15.380   9.348  11.964
20844W        W87385  36.065  39.624  13.044
20845W        W87386  14.340  21.604   4.429
20846W        W87387   7.389  37.033  13.662
20847W        W87388  12.398   3.420  13.072
20848W        W87389  17.754  44.472   0.359
20849W        W87390  43.856  35.790   3.664
20850W        W87391  41.469  15.317   4.108
20851W        W87392   2.865   5.463   1.571
20852W        W87393  43.619   9.618   1.414
20853W        W87394   6.438  16.812   4.258
20854W        W87395  17.118  34.346   1.105
20855W        W87396  11.628  31.339  14.587
20856W        W87397   5.171  25.474  11.700
20857W        W87398  16.170  11.194   4.519
20858W        W87399  33.285  22.551  10.879
20859W        W87400  18.339  39.670   1.675
20860W        W87401   2.552   7.304   1.173
20861W        W87402   7.574   4.345   2.951
20862W        W87403  11.698  41.056   3.680
20863W        W87404   5.287  27.181  10.693
20864W        W87405   4.321  40.385   4.921
20865W        W87406   8.837  19.600  11.796
20866W        W87407  28.463  24.074  10.621
20867W        W87408  35.550  24.073  14.384
20868W        W87409  18.948  29.533  14.362
20869W        W87410   3.605   5.173  11.896
20870W        W87411  28.123  39.684  13.915
20871W        W87412  12.194  33.964   1.379
20872W        W87413  19.755  15.757  12.690
20873W        W87414  40.346  33.436  10.412
20874W        W87415  12.286  14.547   4.299
20875W        W87416  29.601   2.440  13.642
20876W        W87417  24.923  40.397   3.083
20877W        W87418   3.790  32.540   1.219
20878W        W87419   5.335  20.904  12.018
20879W        W87420  11.322  28.914   3.627
20880W        W87421   5.691  20.619  10.429
20881W        W87422   1.509  10.694  14.461
20882W        W87423  20.137  31.339  12.540
20883W        W87424  29.079  43.269   4.913
20884W        W87425  12.310  33.611   3.141
20885W        W87426  30.948  39.491   0.966
20886W        W87427  14.357  23.558   3.312
20887W        W87428  14.338  23.874  14.733
20888W        W87429  12.615  20.037   3.253
20889W        W87430  18.069  25.098   3.624
20890W        W87431  30.130   4.152  12.522
20891W        W87432  35.938  44.757   4.116
20892W        W87433   6.598   1.313   2.607
20893W        W87434  22.807  40.841  13.039
20894W        W87435  41.703  38.535   4.515
20895W        W87436  31.533  42.441  14.299
20896W        W87437   7.653  12.289  10.689
20897W        W87438  25.037  23.848  12.004
20898W        W87439  40.661  21.666  11.100
20899W        W87440  23.359  22.391  12.115
20900W        W87441   1.283  36.015   1.369
20901W        W87442  34.571  40.765   3.620
20902W        W87443  18.759   4.065  13.473
20903W        W87444   4.247   1.195   1.288
20904W        W87445  40.461  15.638  11.934
20905W        W87446  44.980  37.769   4.510
20906W        W87447  38.133  29.875   3.735
20907W        W87448   0.990  32.995  12.158
20908W        W87449  44.977  12.294  13.570
20909W        W87450  33.113  42.406   2.650
20910W        W87451  38.347  10.051   1.260
20911W        W87452  10.843  42.647  11.487
20912W        W87453  15.114  32.386  14.811
20913W        W87454  23.593  34.575  12.102
20914W        W87455  31.470  19.685   1.755
20915W        W87456  42.902  33.428   4.336
20916W        W87457  27.384  36.018   0.941
20917W        W87458  42.432   9.443   2.133
20918W        W87459  12.291  28.818   3.686
20919W        W87460  18.090  42.608  14.234
20920W        W87461  32.509  34.030  10.657
20921W        W87462  21.251  18.390  12.086
20922W        W87463  10.651  29.155  13.876
20923W        W87464  29.310  29.485  14.817
20924W        W87465  42.861  11.571  13.208
20925W        W87466  42.004  37.171   1.398
20926W        W87467  17.242  18.228  14.589
20927W        W87468   7.748  29.854  14.244
20928W        W87469   5.292   9.283  10.610
20929W        W87470   0.652  19.161  14.013
20930W        W87471   7.624   5.415  11.540
20931W        W87472   4.787  23.278   3.585
20932W        W87473   2.429   9.908  11.369
20933W        W87474  42.304   9.247  12.083
20934W        W87475  12.555  24.923   0.961
20935W        W87476   3.955  27.081   4.630
20936W        W87477  19.098  41.874   0.805
20937W        W87478  20.545  19.747  13.712
20938W        W87479  29.237  11.076  11.692
20939W        W87480  42.421  44.894  12.900
20940W        W87481  38.412  24.128  14.675
20941W        W87482  23.410   9.440   2.229
20942W        W87483  10.312  41.985   0.522
20943W        W87484   7.858  38.530   4.203
20944W        W87485  34.258  39.463  11.099
20945W        W87486  37.830  40.559   4.629
20946W        W87487  28.172  33.545   1.387
20947W        W87488  44.599  31.701   2.780
20948W        W87489  39.855  16.387   1.275
20949W        W87490  23.968  44.534   4.274
20950W        W87491  29.011  31.643  13.857
20951W        W87492   9.765  16.080  13.146
20952W        W87493  34.279   2.656   3.989
20953W        W87494  21.472  42.280  10.782
20954W        W87495  36.101   6.734   2.796
20955W        W87496  28.155  35.243   3.289
20956W        W87497  44.840   8.682  10.698
20957W        W87498  31.864   5.326  11.079
20958W        W87499  22.093   7.759   1.990
20959W        W87500  34.235  12.093   4.992
20960W        W87501  20.287   2.277  11.167
20961W        W87502   0.261  32.215   3.564
20962W        W87503  23.479  27.761   4.174
20963W        W87504  19.507   6.448   5.124
20964W        W87505   4.351  35.475  12.460
20965W        W87506  10.295  37.874   0.499
20966W        W87507  37.494  16.688   4.020
20967W        W87508   6.366  40.519   2.136
20968W        W87509  29.762   1.079   4.613
20969W        W87510  21.041   8.169   3.094
20970W        W87511  24.070   6.995   4.537
20971W        W87512   6.432  41.318  11.502
20972W        W87513   5.507  44.657   3.818
20973W        W87514  17.862   2.190  10.904
20974W        W87515  36.281  44.392   2.464
20975W        W87516  43.962  10.732   4.740
20976W        W87517  18.442  43.011  12.725
20977W        W87518  28.237  16.729   2.353
20978W        W87519  41.412  12.199  10.594
20979W        W87520  16.700   2.844  14.796
20980W        W87521  20.299  20.549   0.325
20981W        W87522  13.756   9.281  14.836
20982W        W87523   2.518  11.192   3.325
20983W        W87524   7.463  18.238  12.153
20984W        W87525  31.616  33.589   3.003
20985W        W87526   5.143  10.295  10.795
20986W        W87527  27.049  10.393  13.942
20987W        W87528  13.856  35.751   0.452
20988W        W87529  39.007  44.403   2.951
20989W        W87530  20.827  29.693  11.157
20990W        W87531  39.323  35.684   2.720
20991W        W87532  17.030  43.837   3.426
20992W        W87533  37.044  20.669  12.491
20993W        W87534  14.700  43.291  10.408
20994W        W87535  25.591  24.653   4.620
20995W        W87536  12.533  10.663   1.330
20996W        W87537  42.066  25.465  14.812
20997W        W87538  38.368   2.804  12.994
20998W        W87539  43.991  36.447   0.341
20999W        W87540  11.137  34.394   0.821
21000W        W87541   5.717   6.721   3.425
21001W        W87542  19.167  27.526  11.019
21002W        W87543  18.129  32.436   5.042
21003W        W87544  29.527   9.156  12.001
21004W        W87545  19.324   2.587   3.346
21005W        W87546  24.284   5.181  14.397
21006W        W87547  21.756  12.958  10.815
21007W        W87548  11.397  26.567  12.640
21008W        W87549  13.517  13.139   3.257
21009W        W87550  21.158   4.805   1.321
21010W        W87551  17.790   6.838  10.683
21011W        W87552  33.175  24.608   1.841
21012W        W87553  17.555  42.348  10.415
21013W        W87554  44.560  39.676  14.796
21014W        W87555   4.244  16.252   3.393
21015W        W87556  41.805  34.573  12.936
21016W        W87557  37.681   3.774  11.551
21017W        W87558  38.754   9.536   0.353
21018W        W87559   8.339   5.812   4.514
21019W        W87560  31.442  14.389  13.902
21020W        W87561  12.494  36.056   4.899
21021W        W87562  22.998  24.707   4.548
21022W        W87563  35.899  12.072   0.390
21023W        W87564  33.642  25.729  13.960
21024W        W87565  36.566  19.678  10.707
21025W        W87566   8.403  18.523  11.189
21026W        W87567   8.081  19.794  13.385
21027W        W87568   9.793  41.918   3.339
21028W        W87569  13.627   6.188   3.527
21029W        W87570  32.508  18.089   0.976
21030W        W87571  36.569  40.470   2.595
21031W        W87572  19.491   6.429  11.998
21032W        W87573  24.162   2.988  14.077
21033W        W87574  41.566  22.953  14.898
21034W        W87575  34.673  44.404   0.489
21035W        W87576  43.350   5.556  11.405
21036W        W87577   6.493  26.887   0.235
21037W        W87578  22.705  12.818  14.329
21038W        W87579  19.655  29.363  13.906
21039W        W87580  39.747   4.090  12.887
21040W        W87581  29.340  15.883   0.691
21041W        W87582   9.830  40.019  11.944
21042W        W87583  37.039  44.759   2.713
21043W        W87584  19.472  16.040   3.309
21044W        W87585  41.430  34.570   2.654
21045W        W87586  11.408  39.620  10.118
21046W        W87587  15.206  43.903  10.416
21047W        W87588  39.922  27.944  11.583
21048W        W87589  15.735  41.919   2.650
21049W        W87590  34.800  31.939   3.734
21050W        W87591  39.971  24.679   2.239
21051W        W87592   3.544  31.993   2.676
21052W        W87593  16.865   0.022  10.693
21053W        W87594  15.967  43.888   3.615
21054W        W87595  42.401  18.099  10.730
21055W        W87596  32.060  35.582   3.674
21056W        W87597  15.760  43.263   0.924
21057W        W87598  33.663  38.129  14.389
21058W        W87599   9.306  43.900  12.262
21059W        W87600  13.926  44.599  11.654
21060W        W87601  15.090   7.658   3.738
21061W        W87602  42.559  29.213  11.580
21062W        W87603  21.994  24.109  13.467
21063W        W87604   5.459  27.957  12.700
21064W        W87605  19.697  11.024   4.153
21065W        W87606  13.123  12.536   1.444
21066W        W87607  24.999  13.391   1.882
21067W        W87608  25.054  19.637   4.821
21068W        W87609  41.025  12.437  11.574
21069W        W87610  25.948   0.231  13.362
21070W        W87611  12.036   1.983   3.766
21071W        W87612  32.027  15.251   3.901
21072W        W87613  23.227   8.265   5.149
21073W        W87614  41.386  32.016   4.639
21074W        W87615  11.160   3.954   3.744
21075W        W87616   1.520  36.263  11.553
21076W        W87617  31.820  33.888   4.548
21077W        W87618  28.619  36.311  12.969
21078W        W87619  34.134  27.761   4.503
21079W        W87620  24.577  12.057   4.557
21080W        W87621  36.142  33.102  10.721
21081W        W87622  23.878  37.808   4.644
21082W        W87623   6.892   5.399  11.022
21083W        W87624   0.775  24.947   5.050
21084W        W87625  35.459   1.728   4.045
21085W        W87626  20.073  16.466  12.982
21086W        W87627  13.627  44.387   1.310
21087W        W87628  33.582   0.485  11.825
21088W        W87629  12.781  24.401  13.607
21089W        W87630  16.699   6.275  14.607
21090W        W87631  17.982   3.714  13.947
21091W        W87632  30.971   3.354   0.212
21092W        W87633  14.254  25.714  12.907
21093W        W87634   1.794   9.868  12.958
21094W        W87635   7.329   5.490  14.042
21095W        W87636  37.108  41.792  14.459
21096W        W87637  12.567  20.803  11.997
21097W        W87638  19.750  16.052  13.473
21098W        W87639  23.611  38.014   0.843
21099W        W87640  11.090  12.575  14.001
21100W        W87641  43.284  39.330   2.406
21101W        W87642   5.692  17.415   4.750
21102W        W87643  25.808  26.566   0.952
21103W        W87644   1.909  23.077   4.580
21104W        W87645  37.618  27.970   1.834
21105W        W87646   5.928  43.928   1.173
21106W        W87647  33.519  35.810  12.539
21107W        W87648   6.716   8.898  11.998
21108W        W87649  24.507  44.570   5.057
21109W        W87650   7.660  23.320   1.007
21110W        W87651  35.666  26.463  13.922
21111W        W87652   7.409  36.019   2.804
21112W        W87653  44.886   2.869   2.693
21113W        W87654  30.246  27.019  13.723
21114W        W87655  38.420  26.707  14.029
21115W        W87656  26.767   9.202   3.129
21116W        W87657  23.992  11.455  12.028
21117W        W87658   3.340  21.467   4.715
21118W        W87659  33.695  40.253   3.643
21119W        W87660  30.114  22.523   3.118
21120W        W87661  16.282   8.757   1.372
21121W        W87662  23.453   6.958   2.172
21122W        W87663  21.753  40.370   2.264
21123W        W87664   1.987  28.390  11.915
21124W        W87665  37.019  27.900   2.672
21125W        W87666  25.422  30.260   4.590
21126W        W87667   2.244   6.502  14.317
21127W        W87668  41.446  20.201  13.418
21128W        W87669   9.191  43.592  13.465
21129W        W87670  24.453   8.420  11.553
21130W        W87671  42.043  20.520  14.243
21131W        W87672  16.630  13.431   3.000
21132W        W87673  16.301  32.901   3.234
21133W        W87674  18.913  15.196  12.931
21134W        W87675   0.250   4.701   1.960
21135W        W87676   5.344  32.395   0.428
21136W        W87677  37.640  17.029  13.012
21137W        W87678   1.767  37.282   4.084
21138W        W87679  19.626   0.572  14.068
21139W        W87680   5.712  44.345  10.134
21140W        W87681  12.682  25.100  14.264
21141W        W87682  21.316  30.435  12.358
21142W        W87683  26.610  39.890   3.315
21143W        W87684  19.161   8.246  10.740
21144W        W87685  37.835  11.231   4.163
21145W        W87686  21.146  25.249  13.197
21146W        W87687   0.446  36.938   1.859
21147W        W87688  39.954   6.138  10.450
21148W        W87689   5.044  21.289  14.855
21149W        W87690   5.865   1.955  12.997
21150W        W87691  44.763  24.101   1.813
21151W        W87692  37.952   1.467   0.292
21152W        W87693   9.855   3.779  10.890
21153W        W87694  10.248   6.246   3.682
21154W        W87695   4.270  34.983  12.240
21155W        W87696  43.093  28.506  12.552
21156W        W87697  12.830  15.564   4.919
21157W        W87698  39.921  10.077  11.210
21158W        W87699   7.109  30.955  11.196
21159W        W87700   9.262  27.625  12.879
21160W        W87701  37.296  40.674   2.861
21161W        W87702  33.626  42.526   4.893
21162W        W87703   0.473  26.275   4.191
21163W        W87704  19.103   3.430   2.851
21164W        W87705  35.226  38.074  14.461
21165W        W87706  23.749  26.485   4.695
21166W        W87707  38.098  13.970  12.918
21167W        W87708  16.671  12.501  11.517
21168W        W87709  26.532   5.074  11.141
21169W        W87710   9.852  41.809  11.439
21170W        W87711  14.386  15.846   0.823
21171W        W87712  41.534  26.351   2.836
21172W        W87713  38.297  34.804   3.662
21173W        W87714  44.870   6.440   4.626
21174W        W87715  14.310  28.635   1.693
21175W        W87716  36.741   1.067   3.194
21176W        W87717   2.201  25.739   4.062
21177W        W87718  25.152  35.423   3.161
21178W        W87719  16.148  18.569   3.021
21179W        W87720  19.186  38.370   1.820
21180W        W87721  17.647  23.999   1.043
21181W        W87722   6.415  11.458   4.474
21182W        W87723  12.892  33.017   1.880
21183W        W87724  36.232  16.299   0.932
21184W        W87725  43.438  38.421  12.449
21185W        W87726  19.033  37.995   1.298
21186W        W87727  26.399   7.397   3.623
21187W        W87728   0.744  40.250  11.598
21188W        W87729   5.408  25.162  13.941
21189W        W87730  10.779  32.105   1.808
21190W        W87731   4.270  16.558   1.799
21191W        W87732  42.381  33.561   2.752
21192W        W87733   3.782  10.095  14.710
21193W        W87734  12.630  35.500  13.349
21194W        W87735   6.811  34.554   3.302
21195W        W87736  38.973   4.847   3.181
21196W        W87737  44.809  19.046  14.340
21197W        W87738  27.490   2.726   0.291
21198W        W87739   4.374   3.034  13.010
21199W        W87740  17.719  41.590  13.256
21200W        W87741  14.422  40.927   4.486
21201W        W87742   2.654  11.126  11.181
21202W        W87743  22.852  17.019   4.563
21203W        W87744  19.668   7.093  13.514
21204W        W87745  34.537  21.616  13.492
21205W        W87746   1.721  29.985  11.584
21206W        W87747  24.271  14.791  13.904
21207W        W87748  43.777   6.371   0.399
21208W        W87749  18.152  30.157   3.259
21209W        W87750   6.769   1.795   2.465
21210W        W87751  42.282  29.087   2.698
21211W        W87752  27.018   5.300   4.070
21212W        W87753  30.542  32.388   3.146
21213W        W87754   1.364  25.139   2.857
21214W        W87755   5.769  28.453   0.363
21215W        W87756   1.675  29.016   1.766
21216W        W87757   6.329   3.438  11.515
21217W        W87758   6.788  44.425   1.458
21218W        W87759   1.676   5.909  11.960
21219W        W87760  24.047  18.022  11.200
21220W        W87761  11.406  43.765  11.661
21221W        W87762  43.410  18.067   3.919
21222W        W87763   5.094  42.118  13.123
21223W        W87764   6.896   0.290   2.444
21224W        W87765  16.845   6.934   4.144
21225W        W87766   9.287   1.992   0.778
21226W        W87767  41.937  38.633  11.110
21227W        W87768  15.813  23.605   1.668
21228W        W87769  24.121  23.813   0.835
21229W        W87770  17.999  24.667   0.348
21230W        W87771   2.026  32.657   3.007
21231W        W87772   0.956  31.018  12.399
21232W        W87773  11.711  11.086  10.681
21233W        W87774   8.454  31.782   0.868
21234W        W87775  22.514  27.870  11.614
21235W        W87776  33.158   7.015   1.885
21236W        W87777  15.854  32.822   2.682
21237W        W87778  28.226   2.438   1.877
21238W        W87779  33.874   1.309   0.806
21239W        W87780  32.099  33.056   0.340
21240W        W87781  32.463  34.174   0.933
21241W        W87782  29.865  43.779   0.337
21242W        W87783  38.362  32.485   1.410
21243W        W87784  24.534   7.463   0.340
21244W        W87785  22.635   1.910  11.116
21245W        W87786  40.641  43.725   1.171
21246W        W87787  12.616   6.392   1.519
21247W        W87788   9.238  18.823   1.980
21248W        W87789  33.541  17.368  14.258
21249W        W87790  12.270  27.784  12.841
21250W        W87791  34.424  38.132   3.805
21251W        W87792   0.418  26.489  12.385
21252W        W87793  38.470  12.280  11.693
21253W        W87794  28.626  29.958  14.739
21254W        W87795  41.682  21.530  13.207
21255W        W87796  29.165  17.972   1.815
21256W        W87797   7.470  24.944  14.130
21257W        W87798  24.645  34.526   4.073
21258W        W87799  19.275  23.190  12.125
21259W        W87800  26.629  24.500   4.156
21260W        W87801  13.561  24.053   4.117
21261W        W87802   4.707  38.971  13.591
21262W        W87803  42.534  44.824  11.151
21263W        W87804  22.469  40.177  13.785
21264W        W87805  14.627  11.635   4.508
21265W        W87806  38.396   9.196  14.934
21266W        W87807  18.488  23.000  12.087
21267W        W87808   6.340  41.873  11.224
21268W        W87809  19.994  32.897   2.795
21269W        W87810  12.232  40.382   3.779
21270W        W87811  34.963  12.772   3.208
21271W        W87812  30.000  44.361  12.854
21272W        W87813  13.151  18.158   3.128
21273W        W87814   7.585  20.357   0.578
21274W        W87815  18.272  30.529   3.596
21275W        W87816  31.854  38.796  10.381
21276W        W87817   2.186   8.730  13.889
21277W        W87818   7.905  15.617  13.472
21278W        W87819   5.350  35.053   0.490
21279W        W87820  23.417  20.917   4.291
21280W        W87821  27.987  17.548   1.327
21281W        W87822  34.819  16.120  12.044
21282W        W87823  44.751   6.429  11.991
21283W        W87824  42.425  25.482   0.327
21284W        W87825  31.962   8.297   1.909
21285W        W87826   3.747  40.131  12.945
21286W        W87827  23.406  14.852   4.039
21287W        W87828  12.162  43.346  11.198
21288W        W87829   5.388  33.053   4.944
21289W        W87830   4.707  25.060   3.502
21290W        W87831  13.882  26.996   3.328
21291W        W87832  44.003   2.927   0.945
21292W        W87833  31.877   1.702  12.952
21293W        W87834  36.664  24.130   2.171
21294W        W87835   3.484   1.973  12.507
21295W        W87836  19.130   2.812  13.999
21296W        W87837  39.930  44.010   0.826
21297W        W87838  39.835  21.099   0.224
21298W        W87839  13.735  11.791  13.112
21299W        W87840  36.787  11.344  12.308
21300W        W87841  33.772  41.279  10.471
21301W        W87842  30.445  34.641   1.977
21302W        W87843  22.714  16.200   0.961
21303W        W87844  30.015  24.719  13.573
21304W        W87845  18.294  11.565   5.037
21305W        W87846   6.731  24.977   0.717
21306W        W87847  12.370  14.222   4.910
21307W        W87848  16.609  40.613  14.478
21308W        W87849   8.250  38.381   2.307
21309W        W87850  15.135  24.123  10.583
21310W        W87851  14.425  19.078   4.634
21311W        W87852  15.353   8.186   0.597
21312W        W87853  34.185   8.265   2.860
21313W        W87854  25.096  42.159   2.378
21314W        W87855  38.970  44.511  11.052
21315W        W87856  17.680  13.407   9.789
21316W        W87857  41.488   5.346  12.578
21317W        W87858  32.686  28.518  12.463
21318W        W87859   5.952  28.401   4.652
21319W        W87860  14.302  39.049  13.427
21320W        W87861  32.586  19.136  12.918
21321W        W87862   0.332  27.042  10.537
21322W        W87863  14.977   9.202  14.256
21323W        W87864  37.664  26.538  10.704
21324W        W87865  36.642  37.949  12.048
21325W        W87866  41.256   4.959  12.816
21326W        W87867   1.562   3.753  13.834
21327W        W87868   6.307  34.153  12.955
21328W        W87869   9.440  19.305   1.296
21329W        W87870  42.874   7.016   3.411
21330W        W87871   4.451   5.198  10.726
21331W        W87872  27.811  44.475   2.924
21332W        W87873  24.134   3.855   4.336
21333W        W87874  32.444  38.836   0.910
21334W        W87875  22.271   2.000  11.463
21335W        W87876  40.491  15.048   1.676
21336W        W87877  22.734   3.990   2.761
21337W        W87878  14.096  41.505   0.105
21338W        W87879   3.254  16.897  14.534
21339W        W87880   3.924  10.265  12.083
21340W        W87881  10.332  15.368   4.174
21341W        W87882  10.809  43.404  10.693
21342W        W87883  34.644  36.828   1.870
21343W        W87884  17.490  21.238   0.378
21344W        W87885   4.173  14.852  13.747
21345W        W87886  35.661  15.699   2.332
21346W        W87887  26.653  14.728  11.120
21347W        W87888  38.324   6.879   3.593
21348W        W87889  19.860  16.040  12.190
21349W        W87890  23.203  44.313   0.310
21350W        W87891   1.313  14.319   1.941
21351W        W87892   0.821   8.262  12.556
21352W        W87893  37.122  11.630  13.578
21353W        W87894  39.841  33.217   2.680
21354W        W87895  11.265  34.995  12.482
21355W        W87896  43.230  20.921   2.346
21356W        W87897  28.698  32.942   2.341
21357W        W87898  22.447  31.362  14.294
21358W        W87899   8.311   3.293   4.807
21359W        W87900  22.156  14.879   0.216
21360W        W87901  40.296  26.964  14.863
21361W        W87902  14.317  38.346   2.361
21362W        W87903  34.449  42.267  11.220
21363W        W87904  25.189  11.103   2.310
21364W        W87905   1.259   3.377  10.635
21365W        W87906   0.195  24.718   4.535
21366W        W87907  11.331  10.240  11.575
21367W        W87908   9.450  36.062   4.963
21368W        W87909  44.472  26.976  11.509
21369W        W87910  30.151  33.349  13.351
21370W        W87911  28.713   4.831  12.606
21371W        W87912  24.470   2.259  11.035
21372W        W87913  20.185  33.387  14.487
21373W        W87914  29.013  12.654   0.181
21374W        W87915   2.630   2.950  13.460
21375W        W87916   7.975  42.054   4.077
21376W        W87917  34.419  30.640   2.936
21377W        W87918  14.567  40.475   1.327
21378W        W87919  39.046  40.824  13.906
21379W        W87920  39.488  20.256  11.503
21380W        W87921  21.091  19.856   4.069
21381W        W87922  10.284  34.435  14.831
21382W        W87923   3.831   2.366  12.518
21383W        W87924  32.393  37.944  12.508
21384W        W87925  44.538  14.065  13.863
21385W        W87926   3.762  31.967  13.456
21386W        W87927  38.613  37.775   4.088
21387W        W87928  12.238  39.723  10.996
21388W        W87929  13.994  39.477  12.320
21389W        W87930  26.655   2.925   1.589
21390W        W87931   7.903   4.770   3.155
21391W        W87932  19.482  17.347   4.847
21392W        W87933  16.222  23.487   0.893
21393W        W87934   4.155  23.047  11.858
21394W        W87935  16.626  25.662  13.522
21395W        W87936  18.782  25.953   2.387
21396W        W87937   0.037  10.772  11.834
21397W        W87938  39.006  15.873  10.739
21398W        W87939  15.134  30.244  13.412
21399W        W87940  12.849  33.462  13.836
21400W        W87941  18.734  16.660  12.592
21401W        W87942   0.033  18.049  11.369
21402W        W87943   7.644   6.229   0.700
21403W        W87944   9.531  26.628   4.759
21404W        W87945   0.887   6.475   1.454
21405W        W87946  33.319  30.621  10.100
21406W        W87947  11.141  18.438  12.055
21407W        W87948   4.990  28.431  10.995
21408W        W87949  37.887  28.928   9.952
21409W        W87950  18.567  32.572   4.279
21410W        W87951  40.731  24.240   1.433
21411W        W87952  24.614  24.528  11.685
21412W        W87953   3.304  33.371  12.552
21413W        W87954  37.801  31.281  14.444
21414W        W87955  15.401  13.840   1.885
21415W        W87956  43.490  38.108  14.880
21416W        W87957  29.891   3.906  12.048
21417W        W87958  21.596  22.719  14.759
21418W        W87959  35.688  37.014   3.098
21419W        W87960  31.230  21.546   1.624
21420W        W87961  37.480   1.879   1.371
21421W        W87962   3.665   4.769   1.725
21422W        W87963  32.014  11.315   3.621
21423W        W87964  26.401  27.629   1.450
21424W        W87965  31.902  15.043  12.581
21425W        W87966  39.103  33.046   3.694
21426W        W87967  36.340  42.239  13.426
21427W        W87968  39.930  33.558   4.084
21428W        W87969  22.200  11.295   0.651
21429W        W87970  40.403  15.703   3.301
21430W        W87971  33.304  31.179  14.424
21431W        W87972  27.761  33.781   3.983
21432W        W87973  36.075  12.678  12.786
21433W        W87974  21.338  26.511   4.386
21434W        W87975   0.442  33.930   1.915
21435W        W87976  23.507   4.957  12.057
21436W        W87977  30.310  11.056  12.951
21437W        W87978  28.118   1.830  12.149
21438W        W87979  11.812  23.646  12.898
21439W        W87980   9.828  17.525   3.191
21440W        W87981  41.148  19.324  14.839
21441W        W87982  32.134  23.162   4.279
21442W        W87983  22.459  39.037   2.832
21443W        W87984   9.354  28.594   0.444
21444W        W87985  28.722  39.033   3.830
21445W        W87986   0.246  30.102  12.556
21446W        W87987  30.193  25.646  12.541
21447W        W87988  41.989   6.012   2.867
21448W        W87989  42.416   8.789  13.116
21449W        W87990  20.413  29.631   2.779
21450W        W87991  19.514  38.833   4.661
21451W        W87992  32.516  38.350   3.868
21452W        W87993  39.312  40.075   4.097
21453W        W87994  33.696  13.767   1.878
21454W        W87995  18.057  20.725  14.887
21455W        W87996  23.946   7.196   3.595
21456W        W87997  39.722  42.044   3.660
21457W        W87998   3.855  31.004   3.693
21458W        W87999  34.652  15.446   0.954
21459W        W88000  29.475   4.588   4.138
21460W        W88001  36.079  27.980   2.988
21461W        W88002  11.932  12.655  10.781
21462W        W88003  12.661  39.404   0.650
21463W        W88004  44.933  39.473  12.588
21464W        W88005  31.614  12.753  14.779
21465W        W88006   2.278  19.974   4.050
21466W        W88007  21.645  11.726   2.798
21467W        W88008  16.218   2.695   4.529
21468W        W88009   3.818  44.235  14.442
21469W        W88010  14.900   1.245   0.515
21470W        W88011  40.027   7.175   3.246
21471W        W88012  43.306  33.040  12.188
21472W        W88013  33.703  38.436  12.661
21473W        W88014  35.875  44.704   1.057
21474W        W88015   4.376  37.604   3.804
21475W        W88016  18.063  17.724  14.211
21476W        W88017  30.423  41.247   3.502
21477W        W88018   7.722  19.744  12.521
21478W        W88019   8.373  34.972   1.568
21479W        W88020   7.708  30.046   0.776
21480W        W88021  42.089  18.197   1.958
21481W        W88022  29.001  12.347  14.264
21482W        W88023  15.791   6.736  12.652
21483W        W88024  43.386  30.135   4.115
21484W        W88025  39.873  34.933  11.518
21485W        W88026  36.821  17.079   2.481
21486W        W88027   2.469  38.376   3.032
21487W        W88028  22.487  28.855   1.096
21488W        W88029  13.488  33.415  12.627
21489W        W88030  23.636  37.880   2.237
21490W        W88031  40.389  11.479   2.404
21491W        W88032   2.972  40.657   0.935
21492W        W88033  18.487  18.308  11.734
21493W        W88034  38.354  43.828   2.687
21494W        W88035  17.869  39.197  13.978
21495W        W88036  27.573  20.063  14.474
21496W        W88037  31.645  12.305   1.292
21497W        W88038  37.885  23.665   2.390
21498W        W88039   5.417  35.030  14.400
21499W        W88040  14.492   4.313  11.178
21500W        W88041  37.918  33.170  14.872
21501W        W88042  40.768  34.059  13.516
21502W        W88043   6.152  40.272  10.761
21503W        W88044  18.728  41.495  11.444
21504W        W88045   0.304  43.550  13.015
21505W        W88046  42.961  20.933   2.786
21506W        W88047  25.718  35.612   2.302
21507W        W88048   9.907  21.216   0.292
21508W        W88049  14.891  42.762   2.866
21509W        W88050  36.338  20.779  11.910
21510W        W88051  36.095   6.160  12.537
21511W        W88052  14.968  15.568   2.171
21512W        W88053   9.967  40.393   3.559
21513W        W88054  35.082  40.888  10.976
21514W        W88055  22.973  32.888  11.995
21515W        W88056  36.033  39.981   4.624
21516W        W88057  24.717   0.257  10.614
21517W        W88058   6.571  31.910  12.352
21518W        W88059  30.026   2.375  11.447
21519W        W88060   7.844  42.272  13.407
21520W        W88061  20.151  31.979   4.944
21521W        W88062   1.459  23.547  11.035
21522W        W88063   0.406  18.619  14.902
21523W        W88064   8.177  11.774   2.386
21524W        W88065  41.322  31.672   2.283
21525W        W88066  16.855  18.596   1.880
21526W        W88067  30.358  22.043   3.172
21527W        W88068  28.734  41.534  14.410
21528W        W88069   7.329  43.264   5.022
21529W        W88070  38.524  42.996  12.195
21530W        W88071   5.550  31.416  14.998
21531W        W88072  23.414   6.929   3.124
21532W        W88073   2.699  29.839   2.673
21533W        W88074  38.649  36.973  11.102
21534W        W88075  23.150  21.538  12.886
21535W        W88076  11.614  18.307  13.836
21536W        W88077   5.608  42.474  10.536
21537W        W88078  27.166  28.537   1.215
21538W        W88079  29.956   6.599  11.639
21539W        W88080  24.570  22.319   2.085
21540W        W88081   0.731  44.944  12.657
21541W        W88082   3.896  11.364   1.627
21542W        W88083  27.051  38.314   3.183
21543W        W88084   3.736  15.187  12.900
21544W        W88085   3.927   5.340  10.646
21545W        W88086  17.031  42.541   4.541
21546W        W88087   3.699  24.986   3.730
21547W        W88088  35.917  35.631  11.658
21548W        W88089  22.586  38.098   2.600
21549W        W88090   0.905  15.712  13.019
21550W        W88091  40.143  40.076  10.821
21551W        W88092  36.886  37.705  11.621
21552W        W88093  10.034  33.580   0.826
21553W        W88094   4.967  20.304  14.116
21554W        W88095  36.925  40.194   4.328
21555W        W88096  39.954  34.328   1.978
21556W        W88097  12.102  22.965   2.679
21557W        W88098  14.274  43.731   1.297
21558W        W88099  32.820  25.209   3.753
21559W        W88100  32.556  34.447  11.966
21560W        W88101  31.945  10.911   1.190
21561W        W88102  11.468  31.841  11.060
21562W        W88103  26.399   2.992  12.027
21563W        W88104  17.585  13.179   4.067
21564W        W88105   6.484   3.331  11.984
21565W        W88106  29.674   2.865   0.675
21566W        W88107   5.816   5.348  12.469
21567W        W88108  31.038  10.277  10.245
21568W        W88109  23.124   2.534  13.842
21569W        W88110  19.041   3.857  14.827
21570W        W88111  22.164   2.882   3.163
21571W        W88112  16.043  18.046  11.710
21572W        W88113  31.942  19.951  13.992
21573W        W88114   4.008   2.146  11.190
21574W        W88115   9.672   4.219  13.351
21575W        W88116  37.829  20.295   2.179
21576W        W88117  26.250  35.279   4.086
21577W        W88118  40.759  24.460   2.595
21578W        W88119  27.272   1.082  12.479
21579W        W88120   8.008   3.631  11.144
21580W        W88121   2.295  42.069  12.740
21581W        W88122  43.967  34.359   1.365
21582W        W88123  20.353   7.425  12.544
21583W        W88124  31.664  32.585  12.997
21584W        W88125   3.934  21.740   2.096
21585W        W88126  42.220  21.029  10.937
21586W        W88127  36.289  28.478   4.381
21587W        W88128  26.177  43.524   1.235
21588W        W88129  20.481  24.208   0.017
21589W        W88130   9.619  26.205   1.228
21590W        W88131  37.298  23.848  11.481
21591W        W88132  14.814  17.389   0.346
21592W        W88133  43.472  37.057  13.824
21593W        W88134   7.529  21.518  10.944
21594W        W88135  32.528  38.028  10.419
21595W        W88136  30.577   3.388  12.687
21596W        W88137  33.886  20.947   2.508
21597W        W88138  22.447  36.896  12.190
21598W        W88139  27.506  15.263   0.291
21599W        W88140  29.537   2.939  10.843
21600W        W88141   4.797  42.923   3.672
21601W        W88142  34.503   6.658  14.951
21602W        W88143  23.759  23.558   1.873
21603W        W88144  21.742  18.260   2.625
21604W        W88145  25.565  28.384  11.677
21605W        W88146   4.761  42.699   2.286
21606W        W88147  36.081  34.999   2.301
21607W        W88148  37.621   1.908  12.218
21608W        W88149  18.120  31.420  14.931
21609W        W88150  26.037  18.200  10.715
21610W        W88151  39.716  17.784   4.421
21611W        W88152   2.675   3.673   4.060
21612W        W88153  35.033  16.913   4.831
21613W        W88154  18.151  27.883  13.564
21614W        W88155  34.528   2.780   3.149
21615W        W88156  43.408  23.605  14.966
21616W        W88157  32.942   6.463  11.817
21617W        W88158  33.814  39.520   0.926
21618W        W88159  26.504   5.765  11.463
21619W        W88160  23.961  41.980  13.369
21620W        W88161  30.560  37.968   3.379
21621W        W88162  39.016  32.535   3.592
21622W        W88163  27.351  43.263  12.491
21623W        W88164  15.549  10.971   1.461
21624W        W88165  44.982   1.418   4.286
21625W        W88166  17.807  32.979  13.040
21626W        W88167  30.076  32.174   3.236
21627W        W88168  13.810  10.214  10.259
21628W        W88169  18.998  41.488   4.860
21629W        W88170  35.581  20.696  11.493
21630W        W88171  19.530  34.174   0.911
21631W        W88172  15.714  10.050   4.314
21632W        W88173  25.558  15.288  13.588
21633W        W88174  26.181   0.403   4.234
21634W        W88175  11.815  21.486  12.891
21635W        W88176  40.874  29.464   0.712
21636W        W88177  33.545   3.949   2.369
21637W        W88178  33.119  10.472   0.471
21638W        W88179  37.444  10.386   4.966
21639W        W88180   1.875   9.634  12.486
21640W        W88181  14.533  13.687   0.958
21641W        W88182  23.197   1.707  14.284
21642W        W88183  24.617  30.114   2.177
21643W        W88184   1.061  14.310   4.168
21644W        W88185  35.036  28.185  11.498
21645W        W88186   6.323  13.072  14.077
21646W        W88187   5.477   1.942   2.685
21647W        W88188  31.907  28.024  11.081
21648W        W88189   6.678  35.348   1.389
21649W        W88190   9.888  28.366   3.627
21650W        W88191  20.395  15.234  10.913
21651W        W88192  13.315  20.013   1.895
21652W        W88193   5.703  28.228  13.095
21653W        W88194  17.078  17.736  14.715
21654W        W88195   2.827   7.682  11.996
21655W        W88196  29.910  19.659  11.643
21656W        W88197   6.675  25.684  12.476
21657W        W88198  22.192   9.732   4.411
21658W        W88199   8.475  23.482  11.929
21659W        W88200  14.088  41.043  13.478
21660W        W88201  41.136   8.603  10.622
21661W        W88202  17.941  37.571   2.538
21662W        W88203  41.910  29.500  14.027
21663W        W88204  26.902   6.527   3.172
21664W        W88205   3.562  34.752   2.870
21665W        W88206  24.435  17.844   3.057
21666W        W88207  22.443  37.828   0.244
21667W        W88208  22.550  39.598   3.697
21668W        W88209  41.389  41.855   0.517
21669W        W88210  24.497  13.696  12.775
21670W        W88211  42.271  13.246   0.827
21671W        W88212   2.304  18.165   1.807
21672W        W88213  28.399  31.614   4.311
21673W        W88214  13.129  23.033   2.860
21674W        W88215  27.536  30.995  12.859
21675W        W88216  18.227  18.252   0.964
21676W        W88217  36.819   6.954   4.581
21677W        W88218  16.201  15.400  10.251
21678W        W88219  12.703   0.898  12.370
21679W        W88220  18.508   6.734   3.300
21680W        W88221  44.050  24.014  14.947
21681W        W88222  17.786  44.659   4.411
21682W        W88223   0.286   1.546   2.753
21683W        W88224  31.124  25.457  12.868
21684W        W88225  26.714   7.137   0.480
21685W        W88226  29.741  19.399  11.214
21686W        W88227  13.101  35.546   3.337
21687W        W88228  26.055  29.624   2.638
21688W        W88229  44.100  17.654  10.375
21689W        W88230   6.228   3.328   2.210
21690W        W88231  15.106   2.901   0.829
21691W        W88232  42.508  31.161   3.668
21692W        W88233  32.574  19.269  12.049
21693W        W88234  35.551  27.272  12.501
21694W        W88235  18.245  31.016   3.404
21695W        W88236  12.125  41.745   3.663
21696W        W88237  19.748  40.482   4.060
21697W        W88238  33.681  34.863   0.281
21698W        W88239  10.266  37.478  13.022
21699W        W88240  24.107  22.840  12.258
21700W        W88241  14.351  43.701   2.803
21701W        W88242  35.609  38.333   1.910
21702W        W88243  44.967   2.933  13.890
21703W        W88244  24.105  11.386   3.879
21704W        W88245   9.121  34.265   1.708
21705W        W88246  15.303  25.062  10.663
21706W        W88247  31.123  27.238   1.387
21707W        W88248   8.750  31.577  10.742
21708W        W88249  11.357  16.784   4.211
21709W        W88250  36.146   9.185  11.173
21710W        W88251  22.591  22.085  14.311
21711W        W88252  11.142  29.185  11.760
21712W        W88253  24.555  31.009   1.216
21713W        W88254  10.777  18.108   4.307
21714W        W88255   7.612  28.141  14.144
21715W        W88256  18.235  39.273  14.848
21716W        W88257  35.720  34.168   3.346
21717W        W88258  11.325   3.201   3.266
21718W        W88259  30.905  35.371  13.758
21719W        W88260  39.720  30.918  11.173
21720W        W88261  12.284  26.931   0.375
21721W        W88262  16.081  31.410  13.905
21722W        W88263  11.351  36.310  14.182
21723W        W88264  12.361   7.662  10.821
21724W        W88265  21.025  14.973  11.821
21725W        W88266  10.762   8.394  10.766
21726W        W88267  30.776  18.698  13.746
21727W        W88268  30.462  25.424   0.758
21728W        W88269  10.603  37.201  11.215
21729W        W88270  29.311  20.352  13.606
21730W        W88271   1.413  17.866   2.443
21731W        W88272  11.687  18.142   0.230
21732W        W88273   6.568  35.893   4.175
21733W        W88274   2.423  13.380   4.095
21734W        W88275  23.210  44.376  13.558
21735W        W88276  34.654  10.610  12.706
21736W        W88277  31.464  18.599   2.823
21737W        W88278   7.867   6.307   3.073
21738W        W88279   9.136  31.597  11.974
21739W        W88280  25.573  16.204  12.172
21740W        W88281   1.779  21.820   2.710
21741W        W88282  22.239   8.237   1.330
21742W        W88283  43.422  38.339  14.420
21743W        W88284  19.202   5.167   3.516
21744W        W88285   2.901  38.538  13.770
21745W        W88286  34.842  36.531   1.423
21746W        W88287   2.232  31.992   0.739
21747W        W88288  13.047  35.024  12.063
21748W        W88289  13.225  24.315  13.878
21749W        W88290  32.263  20.188   3.803
21750W        W88291   5.791  36.731   4.503
21751W        W88292  40.459   3.898   2.251
21752W        W88293  41.963  30.832   4.624
21753W        W88294  33.603   4.705   1.842
21754W        W88295  26.467   5.371   2.353
21755W        W88296   8.645   4.770   2.134
21756W        W88297  36.166  16.772  14.528
21757W        W88298  38.870   2.450   2.675
21758W        W88299  24.115  25.529   4.836
21759W        W88300   1.301  28.920  13.992
21760W        W88301  14.302  26.484  12.110
21761W        W88302  13.123  30.647  11.720
21762W        W88303  23.698  17.999   3.773
21763W        W88304  41.733   8.152  14.306
21764W        W88305  16.014  43.924  14.507
21765W        W88306   4.237  30.697   3.488
21766W        W88307  41.569  10.451  12.263
21767W        W88308  44.632  44.260   3.717
21768W        W88309   2.916  35.854   3.349
21769W        W88310  37.929   2.011   1.965
21770W        W88311  29.451  30.356  10.445
21771W        W88312  36.370  27.300   3.334
21772W        W88313  22.101   0.554  11.982
21773W        W88314  35.387  26.392  11.116
21774W        W88315  23.754  35.056   1.944
21775W        W88316  44.827  41.029  11.163
21776W        W88317   2.577  35.020   3.130
21777W        W88318  42.896  42.230  11.583
21778W        W88319  38.014  38.785  10.661
21779W        W88320   1.459  17.884   1.940
21780W        W88321   2.298  25.840   0.931
21781W        W88322  14.392  11.565  11.344
21782W        W88323  35.898  20.637   4.524
21783W        W88324  44.204   0.692   1.845
21784W        W88325  23.587  19.059   1.987
21785W        W88326  11.228   9.223  14.753
21786W        W88327  26.663   8.420  12.394
21787W        W88328  14.811  44.284  12.575
21788W        W88329  39.035  15.715  13.067
21789W        W88330   8.380  18.674   3.711
21790W        W88331  26.013  15.293  13.853
21791W        W88332  12.313  24.597   1.864
21792W        W88333  37.837  16.179  10.712
21793W        W88334  34.519  41.943  11.638
21794W        W88335  18.960  38.361  14.038
21795W        W88336  28.073  35.008   4.291
21796W        W88337  25.732   3.082   2.528
21797W        W88338  12.546  22.470   0.884
21798W        W88339  34.943  24.550  13.383
21799W        W88340  31.768   3.266  11.186
21800W        W88341   4.282   9.371   1.428
21801W        W88342  43.602  35.639  12.042
21802W        W88343  20.509   4.887   3.025
21803W        W88344   3.101  16.862   1.696
21804W        W88345  33.516  30.928   4.111
21805W        W88346   2.295  30.588   9.987
21806W        W88347   2.341  25.838   9.825
21807W        W88348   4.202  22.715   3.227
21808W        W88349   0.704  43.668   4.162
21809W        W88350  24.481  14.586   0.852
21810W        W88351  19.154  40.989  13.024
21811W        W88352   4.279  10.856   3.319
21812W        W88353   9.610  36.279  12.957
21813W        W88354  23.436  17.753  10.710
21814W        W88355  19.235   6.832  12.174
21815W        W88356  11.359  25.348   2.219
21816W        W88357  12.350  38.035   0.897
21817W        W88358  43.565   0.497  14.293
21818W        W88359  20.200  15.868   3.863
21819W        W88360  16.199  43.023   3.516
21820W        W88361  38.921  38.695   2.965
21821W        W88362  32.551   8.944  14.875
21822W        W88363  14.336  26.131  10.815
21823W        W88364   9.730  10.157   3.214
21824W        W88365  23.061   4.307   0.303
21825W        W88366   6.636  41.021   2.788
21826W        W88367  23.794  31.406   1.727
21827W        W88368  31.690  10.788   3.354
21828W        W88369   7.446  19.339  14.393
21829W        W88370  21.615  36.066  14.318
21830W        W88371  44.178  30.884   1.700
21831W        W88372  23.556   1.377  12.325
21832W        W88373  18.833   8.418  10.383
21833W        W88374  43.572   0.543  11.208
21834W        W88375  35.597  18.291   4.545
21835W        W88376  33.560  26.447  10.968
21836W        W88377  21.530  36.920  14.337
21837W        W88378  38.202  15.882  13.362
21838W        W88379  30.941   4.673  12.618
21839W        W88380  17.600  38.014   1.001
21840W        W88381  34.391  12.387  11.595
21841W        W88382  44.281  33.961   4.470
21842W        W88383   8.604  15.163  11.526
21843W        W88384  25.531   6.431   0.217
21844W        W88385   7.442  20.260   2.949
21845W        W88386  10.368  18.073   0.497
21846W        W88387   1.969  30.778   1.359
21847W        W88388  28.950  19.626  13.102
21848W        W88389  38.349  18.555  13.464
21849W        W88390   9.832   0.418  11.455
21850W        W88391  10.801  13.418   0.523
21851W        W88392  29.872  33.907   0.547
21852W        W88393  16.884  26.911   4.092
21853W        W88394  21.557  13.537   2.381
21854W        W88395  11.591   6.633   3.135
21855W        W88396  34.453  13.608   4.600
21856W        W88397   9.905   9.504  14.926
21857W        W88398  17.655  21.696   1.285
21858W        W88399  37.125   7.355   0.857
21859W        W88400  37.165  33.122  14.933
21860W        W88401  26.356  29.284  13.814
21861W        W88402  37.693  13.391   4.610
21862W        W88403  31.973  39.099   1.814
21863W        W88404   0.338  25.216   1.496
21864W        W88405  25.800  26.529   2.798
21865W        W88406  15.680  26.866   3.679
21866W        W88407   7.206   1.477   4.132
21867W        W88408  20.750  26.808   1.304
21868W        W88409  40.268  17.099  12.490
21869W        W88410  26.775  10.129  12.327
21870W        W88411   5.915  26.859  13.343
21871W        W88412  44.065   4.193   1.699
21872W        W88413  42.787  44.969  14.785
21873W        W88414  41.745  22.837  11.521
21874W        W88415  15.522  14.686   4.409
21875W        W88416   8.561  14.874   2.177
21876W        W88417  23.760  36.990  12.392
21877W        W88418  11.205  43.194   4.081
21878W        W88419  10.823  25.604   2.897
21879W        W88420  29.540  37.512   1.760
21880W        W88421  31.610  26.636   4.632
21881W        W88422   9.251  13.672   1.958
21882W        W88423  32.498  22.737   3.612
21883W        W88424  40.251  14.664  14.938
21884W        W88425  39.276  35.881   0.491
21885W        W88426  43.235  21.657  10.560
21886W        W88427   2.927  10.663   1.352
21887W        W88428   9.827  12.256   4.668
21888W        W88429   6.943  38.270  11.956
21889W        W88430  17.378   8.434   0.802
21890W        W88431  30.418  29.553  13.505
21891W        W88432  41.289  15.313   5.083
21892W        W88433  16.225   3.365  14.009
21893W        W88434  22.115  37.787   3.910
21894W        W88435   6.202   6.816   1.985
21895W        W88436  29.164  27.327   1.510
21896W        W88437  20.339  19.654  12.673
21897W        W88438  42.629   3.908  12.561
21898W        W88439  14.855   3.357  13.885
21899W        W88440  10.320  42.018   3.360
21900W        W88441  30.520  12.712   2.732
21901W        W88442  37.159  13.679  13.952
21902W        W88443  38.453  36.170   2.764
21903W        W88444   5.500  43.732   3.657
21904W        W88445  43.684   2.329   2.272
21905W        W88446  41.817  31.658  10.499
21906W        W88447   2.323  33.064   2.364
21907W        W88448  26.945  32.110   0.445
21908W        W88449  32.788  20.967  12.469
21909W        W88450  28.379  19.682  13.940
21910W        W88451  15.423  27.472  10.556
21911W        W88452  19.242   9.651   2.181
21912W        W88453  13.056  12.362   3.221
21913W        W88454  28.136  39.239   4.586
21914W        W88455  18.522  20.269   3.190
21915W        W88456  28.652  34.455  11.552
21916W        W88457  27.454   7.045  13.325
21917W        W88458  26.784  42.029  12.929
21918W        W88459  42.375  43.498   2.973
21919W        W88460  17.387  31.879  10.516
21920W        W88461  16.979   6.952   2.942
21921W        W88462  22.811  22.848  13.305
21922W        W88463  44.738  33.121   0.771
21923W        W88464  42.681  18.787   1.345
21924W        W88465  33.964  31.975  10.203
21925W        W88466  44.072  44.305   1.902
21926W        W88467  14.465   0.025  12.480
21927W        W88468  27.110  13.780  12.803
21928W        W88469  42.715  32.967   1.122
21929W        W88470  36.133  38.384  11.462
21930W        W88471  31.986  22.062  13.922
21931W        W88472  22.982  33.076   4.472
21932W        W88473  38.510  41.988   4.080
21933W        W88474  13.026  16.169   0.852
21934W        W88475  26.172  14.031  14.082
21935W        W88476  32.057  35.009   0.691
21936W        W88477   6.478  25.983   5.108
21937W        W88478  37.985  33.387   4.500
21938W        W88479  31.636  42.891  11.039
21939W        W88480  21.754  10.726   3.723
21940W        W88481  18.289  18.236   3.325
21941W        W88482   3.333  14.150  11.019
21942W        W88483  34.876  35.958  14.051
21943W        W88484   3.849  32.099   3.583
21944W        W88485  14.688  40.746  14.948
21945W        W88486  37.110  20.766  13.017
21946W        W88487   2.296  27.972  14.866
21947W        W88488   9.337  34.422  11.930
21948W        W88489  40.555  19.179  14.924
21949W        W88490  44.988  30.516  10.002
21950W        W88491  19.800  16.028   0.270
21951W        W88492  28.643  13.101   2.408
21952W        W88493   1.864  25.499  13.417
21953W        W88494   4.656  17.750  11.738
21954W        W88495  30.972  43.353   3.480
21955W        W88496  11.125  25.691  12.502
21956W        W88497  11.874   5.684   1.479
21957W        W88498  20.583  31.447   4.254
21958W        W88499  35.106  13.858   4.323
21959W        W88500  21.977  10.689  11.109
21960W        W88501   1.780  16.902  12.473
21961W        W88502  13.353  35.941   1.582
21962W        W88503  37.407  31.583   2.783
21963W        W88504  19.328   3.393  13.812
21964W        W88505   0.792   8.897  12.652
21965W        W88506  16.365   5.539  12.871
21966W        W88507  19.770  15.002   1.187
21967W        W88508  29.465  27.486   0.667
21968W        W88509  44.602  31.427  10.764
21969W        W88510   6.119   1.355   2.368
21970W        W88511  39.891  28.269  12.882
21971W        W88512  13.870  29.127  11.993
21972W        W88513  38.951  24.488  11.636
21973W        W88514   8.368  36.310  12.055
21974W        W88515  13.245  42.781  10.818
21975W        W88516  35.098  22.536   0.109
21976W        W88517  33.805   6.229   4.493
21977W        W88518   7.369  36.394   3.201
21978W        W88519  10.830  27.165   3.202
21979W        W88520  38.018   1.236   1.303
21980W        W88521  35.335  44.001  10.794
21981W        W88522  11.186   2.236  11.597
21982W        W88523  33.836  40.506   0.116
21983W        W88524  22.747  40.895   4.153
21984W        W88525  10.548  15.690   0.329
21985W        W88526  27.521   3.635  11.772
21986W        W88527   6.264   2.883   3.975
21987W        W88528   3.856  20.997   3.120
21988W        W88529  20.094  11.621  13.646
21989W        W88530  41.886   7.933   1.478
21990W        W88531  25.853   7.473  13.350
21991W        W88532  34.086  30.480  12.078
21992W        W88533  43.439  28.583  11.559
21993W        W88534  11.257   5.081  11.408
21994W        W88535  20.663  38.387  13.952
21995W        W88536  33.452  34.011  12.698
21996W        W88537  35.499  18.872   0.457
21997W        W88538   0.945  23.587  13.180
21998W        W88539  29.894  31.161  14.774
21999W        W88540  44.414  34.149   1.214
22000W        W88541  36.902   5.877  13.857
22001W        W88542  43.855  36.235  10.464
22002W        W88543  27.699  44.808  10.749
22003W        W88544  37.110  30.109   2.318
22004W        W88545  41.372  41.115  11.411
22005W        W88546  10.254  10.295  10.924
22006W        W88547  39.174  37.583  13.932
22007W        W88548  26.110  15.121   1.097
22008W        W88549   3.427   6.757  11.383
22009W        W88550  16.346  26.990   2.185
22010W        W88551  32.466  21.719  14.536
22011W        W88552  27.085   6.866   3.559
22012W        W88553  19.290  32.471   2.741
22013W        W88554  36.253  43.458  13.869
22014W        W88555  26.023  39.306   3.672
22015W        W88556  11.805   6.925   3.643
22016W        W88557  26.143  35.522  11.889
22017W        W88558  10.257  43.305   4.275
22018W        W88559  25.669  20.085   3.674
22019W        W88560   1.764  18.945   4.010
22020W        W88561  19.325  35.067  14.438
22021W        W88562  12.645  41.294   0.288
22022W        W88563  22.132  34.606  11.501
22023W        W88564  25.923  34.617  13.210
22024W        W88565  29.491  22.660  11.927
22025W        W88566  31.559   0.125   2.685
22026W        W88567   3.908  34.608   3.277
22027W        W88568  33.431  12.670  13.471
22028W        W88569  36.550   2.188  13.940
22029W        W88570  20.031  20.047  11.243
22030W        W88571  21.704  44.526   4.786
22031W        W88572  32.067  35.862  10.747
22032W        W88573  16.839   0.055   1.302
22033W        W88574  30.372  35.936   2.349
22034W        W88575  38.039  40.831  12.857
22035W        W88576  28.343  41.879  14.368
22036W        W88577  25.556  28.050  10.740
22037W        W88578  14.376  18.777   1.112
22038W        W88579  33.735  12.059  12.119
22039W        W88580  34.474   0.478  14.388
22040W        W88581  23.092  20.199   2.676
22041W        W88582   3.968  18.969   0.404
22042W        W88583  40.571  40.866   0.022
22043W        W88584   4.003  38.115  11.312
22044W        W88585   5.825  41.772  12.641
22045W        W88586  10.061  37.199   4.215
22046W        W88587  33.447   9.959   3.405
22047W        W88588  17.891   7.121   2.871
22048W        W88589   9.345   3.968   3.262
22049W        W88590   7.366  38.558   3.523
22050W        W88591  39.113  10.386  10.273
22051W        W88592   6.924  27.626   3.733
22052W        W88593   9.842   5.570  11.116
22053W        W88594   1.141  11.575   2.377
22054W        W88595  20.567  41.895  13.730
22055W        W88596  34.826  31.440   2.817
22056W        W88597   8.741  44.008  11.570
22057W        W88598  41.646   8.934  10.621
22058W        W88599  10.657  38.531  12.452
22059W        W88600   5.028  34.853  12.350
22060W        W88601  39.262   4.776   3.616
22061W        W88602   6.823   2.253  13.413
22062W        W88603  43.517   4.852   4.917
22063W        W88604  23.092   0.191  11.961
22064W        W88605   5.315  41.982   2.277
22065W        W88606  41.011  25.692   0.757
22066W        W88607   0.371  28.342   0.295
22067W        W88608  28.852   6.003  12.011
22068W        W88609  33.633  43.461   0.292
22069W        W88610  26.047  30.175  12.830
22070W        W88611  19.984   4.471  13.381
22071W        W88612  40.540  17.157   4.640
22072W        W88613  25.200  30.473  13.057
22073W        W88614  15.071  26.995   1.549
22074W        W88615   0.368  17.371  13.239
22075W        W88616  32.844  12.897   0.766
22076W        W88617  42.848  18.763   1.830
22077W        W88618  42.494  41.571  11.231
22078W        W88619  10.354   4.032   4.088
22079W        W88620  35.405  39.626  14.808
22080W        W88621  15.327  26.864  11.700
22081W        W88622  24.517   6.754   3.663
22082W        W88623  23.729  41.300  11.130
22083W        W88624  20.727  36.317  14.452
22084W        W88625  21.731  13.035  13.565
22085W        W88626   5.185  16.256  10.726
22086W        W88627  25.083  34.723  10.975
22087W        W88628  13.145  13.438   3.901
22088W        W88629   8.862   3.276  10.846
22089W        W88630   1.754  22.593   4.651
22090W        W88631  22.917  32.739   0.330
22091W        W88632  24.199  44.698   0.251
22092W        W88633  27.984  43.921   0.955
22093W        W88634   1.056  30.227  12.897
22094W        W88635  23.038   5.398   3.536
22095W        W88636  41.902  38.801   0.364
22096W        W88637  15.058   0.016   4.870
22097W        W88638  44.083  31.610   4.318
22098W        W88639   1.993  20.213  14.006
22099W        W88640   5.158   4.361  13.491
22100W        W88641  18.682  38.722  13.775
22101W        W88642   3.053   6.274  12.535
22102W        W88643  24.721  29.644   0.499
22103W        W88644   1.868  25.756  14.796
22104W        W88645  33.398  14.229  12.400
22105W        W88646  23.519  10.166   4.816
22106W        W88647  11.105  24.720   0.150
22107W        W88648   7.427   0.317  12.495
22108W        W88649  14.092  15.678  14.827
22109W        W88650  19.318  35.256   3.660
22110W        W88651  41.352  23.080  13.563
22111W        W88652  28.028   9.174  11.492
22112W        W88653   6.431   6.127   4.299
22113W        W88654  14.699  25.685   4.554
22114W        W88655  37.515   0.565   0.391
22115W        W88656   2.790   5.954  14.486
22116W        W88657  28.896  20.150  11.358
22117W        W88658  32.089   5.602   0.559
22118W        W88659  39.190  30.180  14.443
22119W        W88660  12.139   5.681   0.518
22120W        W88661  30.465  16.827   4.750
22121W        W88662  26.663   0.786  11.599
22122W        W88663  17.776  19.151  12.344
22123W        W88664  30.888  31.002  11.509
22124W        W88665  30.549  26.904   0.830
22125W        W88666  30.218  27.393  11.035
22126W        W88667  12.721   2.980   0.991
22127W        W88668  11.290   5.314  11.857
22128W        W88669  10.401  11.650   0.556
22129W        W88670  13.319  23.499   0.178
22130W        W88671   6.732  20.726   4.545
22131W        W88672  44.409  36.903  13.858
22132W        W88673  36.312  23.937  12.093
22133W        W88674  37.870  39.346  12.584
22134W        W88675  18.681  18.117  11.295
22135W        W88676  12.308  33.951  10.860
22136W        W88677  11.106  27.998  14.319
22137W        W88678  31.867  13.711  12.039
22138W        W88679   5.482  15.004  14.886
22139W        W88680  18.519  25.666   2.741
22140W        W88681  31.163   1.508  11.952
22141W        W88682  20.727   2.323   2.639
22142W        W88683  37.451   7.369  11.669
22143W        W88684  11.818  18.587   1.800
22144W        W88685  12.912  34.022   2.697
22145W        W88686   7.301  25.876  10.086
22146W        W88687  13.028  42.893   3.406
22147W        W88688  12.335  28.481  11.050
22148W        W88689  23.610  42.015   2.581
22149W        W88690  19.853  37.493   4.613
22150W        W88691   5.821  28.439   2.225
22151W        W88692   0.548   7.430  10.779
22152W        W88693  40.531  20.815  12.033
22153W        W88694  32.154  19.303  11.132
22154W        W88695   9.371   6.356   1.733
22155W        W88696  25.581  17.807   4.145
22156W        W88697  11.282  30.468  13.079
22157W        W88698  33.950  36.448   4.925
22158W        W88699  11.367  17.496  11.850
22159W        W88700   3.492   4.439   3.725
22160W        W88701  16.288   4.640  10.676
22161W        W88702  11.912  17.470   3.512
22162W        W88703  27.009  43.522   0.400
22163W        W88704  12.969  39.144  11.479
22164W        W88705   5.124   5.376  13.598
22165W        W88706  36.892  23.244   3.654
22166W        W88707  30.191  27.351  12.035
22167W        W88708  12.179  42.972   4.703
22168W        W88709  15.698  23.533  12.002
22169W        W88710   5.454  34.367   1.784
22170W        W88711  29.207   7.289   3.194
22171W        W88712   7.777   3.887   2.192
22172W        W88713  36.091   7.936  11.556
22173W        W88714  12.612   9.759  11.971
22174W        W88715   6.556  28.240  11.190
22175W        W88716  15.633  38.871   4.582
22176W        W88717  33.133  37.374   4.765
22177W        W88718  18.149   8.699   0.373
22178W        W88719  35.108   9.041  14.326
22179W        W88720  34.781   6.387  10.050
22180W        W88721  21.800  26.747  11.006
22181W        W88722   0.790  23.649   4.421
22182W        W88723  19.076  19.905  13.160
22183W        W88724  33.359  19.156   4.281
22184W        W88725  36.984   7.143  12.536
22185W        W88726   0.182  33.005  10.435
22186W        W88727   0.358  41.420  14.056
22187W        W88728   5.133  22.315   1.845
22188W        W88729  44.438  26.608  10.147
22189W        W88730  23.655  11.410  10.906
22190W        W88731  43.408  20.484   3.439
22191W        W88732  38.987   4.311  13.834
22192W        W88733  10.645  25.573   3.752
22193W        W88734  32.231  17.692  12.765
22194W        W88735  41.214  38.157  10.805
22195W        W88736  34.535   6.112  14.961
22196W        W88737  22.944  39.476   4.016
22197W        W88738  12.968  11.038   2.739
22198W        W88739   6.270   3.263  12.809
22199W        W88740  21.292   4.567  10.215
22200W        W88741  40.275  14.272   0.379
22201W        W88742  42.415  29.620  14.821
22202W        W88743   4.510  32.120   0.791
22203W        W88744  17.595  24.258  11.169
22204W        W88745  12.278  16.220   0.368
22205W        W88746  16.239  16.786   1.132
22206W        W88747  27.739   5.376   1.748
22207W        W88748  24.567  25.944   2.840
22208W        W88749  44.519  32.961   4.619
22209W        W88750  12.169  16.313  10.790
22210W        W88751  10.809  37.308   0.039
22211W        W88752  20.836  16.503   2.548
22212W        W88753   2.962   0.724  12.891
22213W        W88754  23.713  25.166   0.870
22214W        W88755   7.884  18.804   3.945
22215W        W88756  31.182  29.460  13.933
22216W        W88757  41.029  37.877  13.944
22217W        W88758   5.890  10.412  13.323
22218W        W88759  10.317   6.688  13.459
22219W        W88760   4.970  37.404   0.195
22220W        W88761  13.248   9.211   3.638
22221W        W88762  27.629   7.848  13.570
22222W        W88763  12.767  23.880  11.671
22223W        W88764  21.022  19.814  14.422
22224W        W88765   9.383   5.689  11.397
22225W        W88766   0.488  33.426  14.280
22226W        W88767  29.284  23.420  14.455
22227W        W88768   9.560   5.946   0.897
22228W        W88769  26.109  12.734   2.797
22229W        W88770  15.000  36.311   3.090
22230W        W88771  35.641   2.244  13.968
22231W        W88772  12.127  16.874   3.776
22232W        W88773  36.561  29.581   3.598
22233W        W88774  30.675  38.443  11.568
22234W        W88775   9.349  26.064  13.438
22235W        W88776  41.803  42.864  13.010
22236W        W88777  33.170  33.498  11.513
22237W        W88778  32.505  36.865   3.694
22238W        W88779  15.199  34.525  12.079
22239W        W88780  31.228  32.213  14.745
22240W        W88781  41.206  10.369   0.901
22241W        W88782  42.968  18.989   4.575
22242W        W88783  19.582   9.854   2.532
22243W        W88784  40.629  19.555  13.877
22244W        W88785   4.443  25.139   3.077
22245W        W88786  36.127   5.855   3.724
22246W        W88787   1.255  36.770  14.401
22247W        W88788  41.554  37.985  14.030
22248W        W88789  30.604   3.701   1.201
22249W        W88790  26.087  14.157   0.806
22250W        W88791  14.806   4.152  13.022
22251W        W88792  24.388  19.612   0.957
22252W        W88793   0.720   3.254   0.794
22253W        W88794  28.881  42.843   4.160
22254W        W88795  38.473  26.029  11.442
22255W        W88796  16.121  28.076  10.219
22256W        W88797  26.588  22.599   0.240
22257W        W88798  17.407  11.698   3.503
22258W        W88799  19.094   6.867  10.279
22259W        W88800   3.932  28.750   1.152
22260W        W88801  13.364  41.723  10.919
22261W        W88802  33.934   3.460  12.146
22262W        W88803  23.405   7.214  11.660
22263W        W88804  19.201   4.614   4.244
22264W        W88805  25.535  26.616  12.154
22265W        W88806  23.703  11.259  13.099
22266W        W88807   4.202  33.192   4.356
22267W        W88808  40.269   4.696   1.585
22268W        W88809  41.576   9.763   2.250
22269W        W88810  17.304  10.627   1.676
22270W        W88811  12.667   6.426  11.582
22271W        W88812  34.921  23.989   1.042
22272W        W88813   6.974  42.285   0.497
22273W        W88814  38.544  27.451   3.812
22274W        W88815  38.277  16.703   4.569
22275W        W88816  27.890  31.683   4.225
22276W        W88817  41.094   6.605  11.539
22277W        W88818   7.613  36.904   4.052
22278W        W88819  38.028  16.576  11.612
22279W        W88820  22.694  28.676  11.134
22280W        W88821  41.766  43.533  13.431
22281W        W88822  21.868  16.653  11.152
22282W        W88823  23.876  23.120   1.585
22283W        W88824  30.838  33.481  10.844
22284W        W88825  14.623   9.138   0.801
22285W        W88826  19.193  29.068   0.181
22286W        W88827  18.351  44.744  12.506
22287W        W88828  13.654  15.768  13.935
22288W        W88829  37.924   8.499  12.986
22289W        W88830  15.792  38.882   9.954
22290W        W88831  42.325   6.832  10.358
22291W        W88832  30.108  16.017   5.074
22292W        W88833  29.120  23.454   0.325
22293W        W88834  40.372   6.434   1.944
22294W        W88835  30.131  20.423   1.823
22295W        W88836  44.473   6.357  13.846
22296W        W88837  35.107  26.197   4.149
22297W        W88838  33.198  12.897   3.651
22298W        W88839  14.171   9.615   4.638
22299W        W88840  10.865  22.609   4.385
22300W        W88841  13.234  10.419   4.996
22301W        W88842  29.879  21.753  12.041
22302W        W88843  19.695  42.731  14.717
22303W        W88844   9.845   6.749   0.547
22304W        W88845  34.533   1.023  13.770
22305W        W88846   3.593  24.169   3.772
22306W        W88847  13.214   1.302  14.423
22307W        W88848  27.106  39.478  12.157
22308W        W88849  16.305   6.077  12.596
22309W        W88850   6.148  13.677  14.690
22310W        W88851  14.814  26.334   3.688
22311W        W88852   2.334  36.100   0.764
22312W        W88853  27.909   7.142  14.391
22313W        W88854  39.466  30.863  12.400
22314W        W88855  36.006  20.610  14.886
22315W        W88856  12.787  13.738   3.697
22316W        W88857  37.618   8.769   4.122
22317W        W88858  35.546   5.580  10.672
22318W        W88859  40.011  25.748  12.891
22319W        W88860  40.269  35.360  10.544
22320W        W88861  11.110  31.066   4.577
22321W        W88862   2.218  33.741  14.061
22322W        W88863   8.695  12.675  13.875
22323W        W88864  12.505   2.248  13.565
22324W        W88865  21.667  26.609  13.484
22325W        W88866  27.570  38.160  13.946
22326W        W88867  40.548  37.983   2.287
22327W        W88868  28.482  42.716   1.239
22328W        W88869  35.896  16.590  12.833
22329W        W88870  27.222  18.688   3.689
22330W        W88871   7.307   2.449  12.517
22331W        W88872  32.471  31.701  12.817
22332W        W88873  11.345  44.810   0.889
22333W        W88874   2.047   7.971  11.207
22334W        W88875   3.836  23.979  14.554
22335W        W88876  17.093  41.016   4.567
22336W        W88877  36.895  33.501  12.601
22337W        W88878  10.046  21.166   1.370
22338W        W88879  23.523  41.007   1.228
22339W        W88880  17.563  25.957   1.932
22340W        W88881  37.638   2.286   4.995
22341W        W88882  28.514  20.051   4.032
22342W        W88883  13.962  40.898  13.981
22343W        W88884  20.970  44.032   1.178
22344W        W88885   4.913  27.547   4.526
22345W        W88886  36.769  44.502  13.186
22346W        W88887  42.602  40.093  13.047
22347W        W88888   3.669  21.721   3.686
22348W        W88889  19.409  17.749  13.151
22349W        W88890  25.962  40.929   2.522
22350W        W88891  33.976  11.293   9.899
22351W        W88892  22.392  38.845  13.205
22352W        W88893  26.255  29.521  11.218
22353W        W88894  32.430  21.489  11.189
22354W        W88895  18.817  26.394   1.398
22355W        W88896  20.137  18.594  12.135
22356W        W88897  40.330  17.736   1.585
22357W        W88898  24.976  28.495   3.354
22358W        W88899  12.009   5.960   0.950
22359W        W88900  42.312  43.857   2.231
22360W        W88901  16.371  42.151   2.016
22361W        W88902   1.456  26.594  13.928
22362W        W88903   3.589  12.138   1.255
22363W        W88904   0.495  43.879   3.750
22364W        W88905  40.561  26.444  12.411
22365W        W88906  29.413   0.066   3.747
22366W        W88907  25.708  21.273  10.522
22367W        W88908  34.658  11.766   2.382
22368W        W88909  44.501  27.513  10.659
22369W        W88910  28.579   3.161   1.723
22370W        W88911  40.957  24.754  10.790
22371W        W88912   5.387  43.756  12.983
22372W        W88913  30.949   1.428  13.952
22373W        W88914  23.142  13.754  10.669
22374W        W88915  19.685  36.696  11.271
22375W        W88916  28.545   5.223  14.846
22376W        W88917  17.009  11.349  11.556
22377W        W88918  39.880   7.322   1.822
22378W        W88919  36.419   9.382   0.354
22379W        W88920  39.289   5.887   1.388
22380W        W88921  21.715  20.279   3.833
22381W        W88922  33.292  32.314  10.616
22382W        W88923  12.308  29.263   5.087
22383W        W88924  10.007   8.346   4.955
22384W        W88925  32.640  17.606   4.855
22385W        W88926  32.684  20.536   1.122
22386W        W88927  10.210  22.942  13.533
22387W        W88928   8.818  31.075  14.331
22388W        W88929  11.331  35.130  11.566
22389W        W88930  40.081  44.745  13.486
22390W        W88931  30.740  21.267  14.408
22391W        W88932  25.228   6.559   3.644
22392W        W88933  13.688  41.847  13.913
22393W        W88934  23.617   2.515   0.388
22394W        W88935  11.197  25.665   0.585
22395W        W88936  26.272   1.299   4.287
22396W        W88937   8.236  28.413  12.715
22397W        W88938  14.110  39.482  14.413
22398W        W88939  42.827   5.224   4.835
22399W        W88940   5.755  29.467   2.264
22400W        W88941  29.383   9.941   2.909
22401W        W88942  21.290  35.439  11.079
22402W        W88943  12.836  34.668   0.107
22403W        W88944  22.209  12.840   0.357
22404W        W88945  39.667  37.268   0.271
22405W        W88946  13.958  40.019   4.583
22406W        W88947  10.803  34.364   4.099
22407W        W88948  37.657  40.986  10.356
22408W        W88949  30.977  14.260   4.407
22409W        W88950  21.093  33.581   3.153
22410W        W88951  20.167  43.144  12.071
22411W        W88952  37.254  13.594   0.766
22412W        W88953   6.197  44.368  13.461
22413W        W88954  10.911   0.094   4.245
22414W        W88955  39.989  24.988   2.845
22415W        W88956   5.689   0.279  11.072
22416W        W88957  32.655  20.748   4.528
22417W        W88958   1.024   4.323   2.150
22418W        W88959   6.206  27.199   2.705
22419W        W88960  22.521  12.266  14.479
22420W        W88961  30.958   6.723   3.986
22421W        W88962   3.276  34.824  11.318
22422W        W88963  32.504   9.253   2.411
22423W        W88964  39.045  24.115  12.888
22424W        W88965  24.988   3.680  11.811
22425W        W88966  35.779   0.286   2.886
22426W        W88967  19.828  12.600  13.081
22427W        W88968  43.068  19.546  11.412
22428W        W88969  11.772  16.242   0.346
22429W        W88970  18.612  22.440   3.673
22430W        W88971  36.246  10.227  11.933
22431W        W88972  20.162  41.042   4.610
22432W        W88973  15.861  24.209   0.958
22433W        W88974  44.720  16.557  14.276
22434W        W88975   1.404  23.207   4.684
22435W        W88976  14.664   0.929   2.752
22436W        W88977  44.408  28.768   5.228
22437W        W88978  17.548  16.870  12.355
22438W        W88979  20.242  44.341  13.772
22439W        W88980  27.959  34.849  10.879
22440W        W88981  40.388   6.508   1.442
22441W        W88982  23.049  13.780   0.008
22442W        W88983  19.604  39.399   2.329
22443W        W88984   8.396  26.174   3.116
22444W        W88985  12.950  21.733  13.912
22445W        W88986  41.808  44.134   3.260
22446W        W88987  32.448  36.696  11.614
22447W        W88988   3.030   3.759  13.080
22448W        W88989  22.200  28.019  14.367
22449W        W88990  33.404  16.213   4.555
22450W        W88991   1.352  37.826  11.587
22451W        W88992  16.355  43.739   1.781
22452W        W88993   4.755   0.999  13.097
22453W        W88994  32.383   2.256   1.815
22454W        W88995  14.728  30.124   3.558
22455W        W88996  36.931  18.598   2.047
22456W        W88997  44.353  15.585  10.261
22457W        W88998  22.428  16.035  13.118
22458W        W88999  15.660  39.963   1.204
22459W        W89000  17.308   7.519   3.700
22460W        W89001  11.069  44.984   1.308
22461W        W89002  26.862  28.807   1.547
22462W        W89003  35.731   8.364   2.806
22463W        W89004  37.713   8.873  12.674
22464W        W89005  28.812   8.995   4.180
22465W        W89006   1.872  25.077   0.732
22466W        W89007  27.604  38.005  14.450
22467W        W89008  43.042  15.470   3.638
22468W        W89009  37.627  11.970  14.950
22469W        W89010  29.439   2.170  10.223
22470W        W89011  11.314  35.369   3.617
22471W        W89012  38.261   1.352  13.994
22472W        W89013  11.247  38.916   2.955
22473W        W89014   3.782   8.752  12.053
22474W        W89015   9.404  15.265   3.423
22475W        W89016   3.793  36.109   1.041
22476W        W89017   2.018  17.548   4.521
22477W        W89018  15.719  35.664   1.247
22478W        W89019  21.195  15.951  11.165
22479W        W89020  43.887   7.188   1.104
22480W        W89021  23.659  10.117   1.844
22481W        W89022  39.380  21.340  12.674
22482W        W89023  43.752  28.951  13.046
22483W        W89024  32.088  31.940  10.095
22484W        W89025  33.936  36.599  10.805
22485W        W89026  35.018  14.828   3.145
22486W        W89027  12.590  17.215   2.545
22487W        W89028  12.146  24.552   4.740
22488W        W89029  25.738  13.202  10.708
22489W        W89030   3.722  11.471   3.977
22490W        W89031   6.867  25.949   0.326
22491W        W89032  16.500  39.182  11.061
22492W        W89033   1.897  23.238  12.127
22493W        W89034   7.737  36.236   4.653
22494W        W89035  20.621  20.593   2.396
22495W        W89036  37.462  42.780  10.652
22496W        W89037  22.570  42.300  10.682
22497W        W89038  32.446  38.474  12.621
22498W        W89039   3.760  27.651  11.032
22499W        W89040  25.796  25.066  13.830
22500W        W89041  12.800   0.475   3.142
22501W        W89042  20.656  20.583  12.460
22502W        W89043  39.450  31.438   4.541
22503W        W89044  41.281  28.330   5.039
22504W        W89045  11.645   6.126   1.375
22505W        W89046  12.160  12.184   2.688
22506W        W89047  40.025  22.414   1.998
22507W        W89048  34.532   1.434  12.002
22508W        W89049   8.484   2.434   2.697
22509W        W89050  27.390  23.871  12.978
22510W        W89051   2.236  20.049  12.704
22511W        W89052  27.471  25.326  14.018
22512W        W89053  42.462   1.827  14.934
22513W        W89054  27.272   0.370   0.907
22514W        W89055  21.238  37.716  14.048
22515W        W89056  15.010   6.793  14.516
22516W        W89057  34.179  11.602   3.059
22517W        W89058  35.588  37.639   2.426
22518W        W89059   3.371  43.366   0.537
22519W        W89060   8.684  11.318  12.608
22520W        W89061  40.529  37.265   0.175
22521W        W89062  13.679  14.124  10.656
22522W        W89063  10.241  23.400   2.772
22523W        W89064   7.358  11.934  11.243
22524W        W89065   5.345  29.854  11.175
22525W        W89066  36.601  35.611   4.179
22526W        W89067  39.467  30.808   1.489
22527W        W89068  21.150  35.438   1.300
22528W        W89069  36.610  13.100  12.361
22529W        W89070  35.408  37.392   2.845
22530W        W89071  16.177  20.519  11.383
22531W        W89072  20.331  11.396   4.117
22532W        W89073  20.520  40.726  14.840
22533W        W89074  41.607  36.940  13.109
22534W        W89075  30.726  29.203  13.214
22535W        W89076   9.699   0.830   2.617
22536W        W89077  11.784  42.323  12.472
22537W        W89078  10.859  30.896  13.001
22538W        W89079  15.640  11.368   4.577
22539W        W89080   0.345  21.648  13.946
22540W        W89081  41.903  38.838   4.138
22541W        W89082  40.534   4.053  12.218
22542W        W89083  19.092  34.536   4.890
22543W        W89084  30.873  14.113   1.770
22544W        W89085  30.874  34.913  10.689
22545W        W89086   8.654  12.036   2.026
22546W        W89087  21.548  28.369   1.341
22547W        W89088  13.806  29.979  11.677
22548W        W89089  13.775   7.149   3.931
22549W        W89090   9.857  12.870   0.232
22550W        W89091   4.922  15.823  10.773
22551W        W89092   1.004  14.488   3.259
22552W        W89093  14.678  26.926  14.248
22553W        W89094  32.454  31.607  14.836
22554W        W89095  13.440  41.591   1.505
22555W        W89096  43.035  11.814  14.482
22556W        W89097  43.827  35.192   4.081
22557W        W89098  24.448  40.523   0.823
22558W        W89099  21.501  43.494   3.744
22559W        W89100   1.783  32.025  11.542
22560W        W89101  31.749  11.685   0.969
22561W        W89102  36.413   0.539   2.644
22562W        W89103  12.819  31.153  13.852
22563W        W89104  37.955  29.648  13.522
22564W        W89105  42.539  32.447  13.854
22565W        W89106  27.020  42.123  10.258
22566W        W89107   8.411  23.759   4.169
22567W        W89108  31.804  13.328  11.701
22568W        W89109   8.587  26.631  10.198
22569W        W89110   9.312  37.942  13.812
22570W        W89111  17.090   7.919   4.045
22571W        W89112   3.290   0.384  11.111
22572W        W89113  38.061  21.553   1.787
22573W        W89114  33.637  39.622   4.081
22574W        W89115  14.787  13.633  12.846
22575W        W89116  44.416  18.745   2.041
22576W        W89117  31.587  40.967   1.814
22577W        W89118  17.722  40.163   3.767
22578W        W89119  15.706  27.081  10.331
22579W        W89120  20.470  35.534  10.458
22580W        W89121  44.475  39.799   3.741
22581W        W89122   1.862  17.162  12.030
22582W        W89123   8.894  18.114  12.442
22583W        W89124  41.855  36.649   1.379
22584W        W89125  32.429  17.353   0.325
22585W        W89126  41.042  14.326   2.198
22586W        W89127   6.589  23.447  11.206
22587W        W89128  10.208  37.551   1.881
22588W        W89129  25.529  34.455  14.698
22589W        W89130   1.517  44.018  13.898
22590W        W89131   7.211  24.605   0.150
22591W        W89132   0.399  24.635  14.844
22592W        W89133   1.290  33.562   0.282
22593W        W89134  41.410  29.387   0.591
22594W        W89135   4.031  27.665  14.543
22595W        W89136  16.984  15.254  11.141
22596W        W89137  15.384  31.452  11.133
22597W        W89138  33.634  23.329   3.890
22598W        W89139   3.905  14.684   2.426
22599W        W89140   8.314  24.037  14.265
22600W        W89141  14.628  12.316   2.835
22601W        W89142  32.424  44.251  10.600
22602W        W89143  38.363   2.282   0.009
22603W        W89144  30.915   6.221   0.924
22604W        W89145  13.678  28.899  13.306
22605W        W89146   5.643  31.679   1.757
22606W        W89147   8.457   2.773   3.099
22607W        W89148  34.409  19.847  14.544
22608W        W89149  42.486  15.764  13.945
22609W        W89150  17.305  19.602  14.561
22610W        W89151  28.560  18.109  14.279
22611W        W89152   7.821   7.756   1.015
22612W        W89153  24.698  37.936  12.076
22613W        W89154  29.250  41.626   0.799
22614W        W89155  11.797  38.979  11.544
22615W        W89156   6.860   6.892   4.163
22616W        W89157  37.040  40.763   2.197
22617W        W89158  10.284  32.128   3.855
22618W        W89159   0.944  14.777   1.056
22619W        W89160  21.653  16.754   2.641
22620W        W89161   1.244   2.305  11.258
22621W        W89162   9.949  26.114  12.093
22622W        W89163  14.879  34.467  11.646
22623W        W89164  40.466  16.665   1.850
22624W        W89165  43.086   7.293  11.530
22625W        W89166  36.056  28.898   0.752
22626W        W89167  23.260   0.364  10.571
22627W        W89168  26.584  25.493   1.878
22628W        W89169   3.498  44.312   0.004
22629W        W89170  44.691  19.987   4.180
22630W        W89171  16.222  17.676  13.003
22631W        W89172  32.632   4.937  12.561
22632W        W89173  40.214  38.063  13.636
22633W        W89174  27.211  12.791  13.575
22634W        W89175  23.238   3.915   4.688
22635W        W89176   3.869  17.047  10.855
22636W        W89177  12.571   3.319   4.209
22637W        W89178  37.879  35.821   1.690
22638W        W89179  13.769   2.293  12.494
22639W        W89180  24.056  37.323   4.032
22640W        W89181  35.318  41.852   4.923
22641W        W89182  15.706  40.914   3.326
22642W        W89183  18.626   4.372  10.817
22643W        W89184  41.620  42.017   1.428
22644W        W89185  34.087  36.959   3.237
22645W        W89186  22.643  29.138   2.248
22646W        W89187   1.487  41.421  11.644
22647W        W89188  42.467   0.477   3.492
22648W        W89189  14.092   5.514  10.755
22649W        W89190   9.027  31.091   1.651
22650W        W89191  40.630  35.833  12.508
22651W        W89192  40.048  27.861   1.968
22652W        W89193   2.857   1.052  12.493
22653W        W89194  15.528  34.467  12.784
22654W        W89195  16.190  29.030  10.784
22655W        W89196  19.114  18.117   3.927
22656W        W89197  35.894  10.927  14.956
22657W        W89198   0.757  29.954  12.504
22658W        W89199  25.450  20.301   2.777
22659W        W89200  28.697  11.957  14.489
22660W        W89201  25.356  23.590  13.371
22661W        W89202  38.603  10.886  12.915
22662W        W89203  22.058  40.581  12.858
22663W        W89204  16.973  31.706   2.688
22664W        W89205  38.343  20.035   3.273
22665W        W89206   1.365  35.408   1.977
22666W        W89207  44.559  44.192   0.788
22667W        W89208  38.804  36.488  13.972
22668W        W89209  29.412   5.836   2.304
22669W        W89210  15.209  15.268  11.838
22670W        W89211   9.185  43.355  12.198
22671W        W89212  25.800  14.760   4.545
22672W        W89213  26.199  21.305  10.755
22673W        W89214  39.620  11.227   1.440
22674W        W89215  13.581  14.476  14.108
22675W        W89216   6.724  34.054   1.775
22676W        W89217  44.321  20.264   2.226
22677W        W89218  15.504  42.758  10.741
22678W        W89219   3.443  33.042   1.872
22679W        W89220  33.623  12.269   0.337
22680W        W89221   9.154   5.726   4.263
22681W        W89222  41.316  17.011   2.594
22682W        W89223  32.505  12.338   2.585
22683W        W89224  11.427  24.318   1.913
22684W        W89225  41.539  38.248   0.883
22685W        W89226  10.383   9.586   0.175
22686W        W89227  22.586  42.530  14.414
22687W        W89228   4.442  23.481   1.428
22688W        W89229  12.654   3.198  11.982
22689W        W89230  38.819  27.504  11.969
22690W        W89231   3.263  11.397   4.776
22691W        W89232  44.985   8.884  11.739
22692W        W89233  24.353  20.439   1.381
22693W        W89234  21.965  44.130  12.082
22694W        W89235  39.905   5.737   3.401
22695W        W89236   0.970  10.747  11.903
22696W        W89237  35.380  33.184   3.133
22697W        W89238  24.614  28.056  13.877
22698W        W89239   2.850  22.940  11.541
22699W        W89240  24.493  26.122   4.401
22700W        W89241  29.971  39.318  12.045
22701W        W89242  34.026  16.246  13.445
22702W        W89243   9.272  26.527  14.012
22703W        W89244  39.509  25.962   2.404
22704W        W89245  30.079  16.333   0.637
22705W        W89246  13.269  31.515   3.122
22706W        W89247  19.325  27.424  14.413
22707W        W89248  17.308  18.522  11.029
22708W        W89249  27.570   4.806  11.762
22709W        W89250  41.466   2.769  12.423
22710W        W89251  33.007  39.687  12.192
22711W        W89252  15.357  20.579  11.169
22712W        W89253  36.508   7.210   4.239
22713W        W89254   4.167  34.714   3.761
22714W        W89255   2.072  36.997   2.324
22715W        W89256   5.471  16.676  10.666
22716W        W89257  14.712  26.630   3.269
22717W        W89258  39.059  26.004   1.293
22718W        W89259   2.234  21.947  11.825
22719W        W89260   9.185   7.587   4.140
22720W        W89261  17.789   6.524  11.101
22721W        W89262  25.317  36.789   3.288
22722W        W89263  39.139  34.109  13.133
22723W        W89264  15.154  33.625   2.706
22724W        W89265  23.758  31.442  12.028
22725W        W89266  34.460  20.785  14.622
22726W        W89267  34.092  19.023  14.556
22727W        W89268  30.433  39.619  12.911
22728W        W89269  14.313  27.975  14.012
22729W        W89270  22.003  15.044   3.763
22730W        W89271  14.521  14.228  14.090
22731W        W89272   3.384  24.946   2.357
22732W        W89273  40.048   0.995  12.177
22733W        W89274  40.853  28.987  13.488
22734W        W89275  43.342   5.793   1.354
22735W        W89276   9.678  11.843  11.668
22736W        W89277   4.669  15.086  12.949
22737W        W89278  44.282   8.235  11.955
22738W        W89279   2.516  42.832  14.757
22739W        W89280  32.989   7.668  10.208
22740W        W89281   3.264  41.963  12.689
22741W        W89282  38.265   6.664   1.139
22742W        W89283  12.002  12.556   9.979
22743W        W89284  26.496   5.754  13.527
22744W        W89285  16.732  21.072   0.725
22745W        W89286  21.705  15.159   4.169
22746W        W89287  31.930  29.694  11.984
22747W        W89288  34.522  13.015   3.353
22748W        W89289  43.472   0.319   1.936
22749W        W89290  16.608  23.690  13.642
22750W        W89291  23.103   0.676  14.307
22751W        W89292  38.573  24.488  13.392
22752W        W89293  32.731  13.837  10.775
22753W        W89294  38.037  14.918  10.912
22754W        W89295  38.507  15.376   3.509
22755W        W89296  30.668  14.286   0.880
22756W        W89297  30.447  25.156   4.021
22757W        W89298  20.908  18.995  10.464
22758W        W89299  30.556   7.754  11.606
22759W        W89300   6.654  36.858   0.758
22760W        W89301  11.510  32.853  12.086
22761W        W89302  18.741   3.312   0.692
22762W        W89303  35.159  15.399   3.450
22763W        W89304  44.016  25.551  13.831
22764W        W89305  10.015  32.648  12.163
22765W        W89306  36.911  26.225  13.253
22766W        W89307  21.333  16.542  11.983
22767W        W89308  32.212  28.987  13.549
22768W        W89309  11.600  25.260   5.028
22769W        W89310   2.510  23.450   4.099
22770W        W89311  29.897  19.723  13.880
22771W        W89312   5.232  40.040   4.111
22772W        W89313   4.234   4.335  10.724
22773W        W89314   4.991  38.151   4.170
22774W        W89315  21.970  19.322   0.241
22775W        W89316  39.460  27.484   3.630
22776W        W89317   7.351  36.927  12.150
22777W        W89318  15.846  16.386  14.900
22778W        W89319   1.680   5.334   3.109
22779W        W89320  24.152  27.906  10.959
22780W        W89321  21.063   4.790   4.287
22781W        W89322  41.350   0.272   1.032
22782W        W89323  42.795  42.822  12.924
22783W        W89324  23.689   6.862   1.713
22784W        W89325  30.903  16.628   4.537
22785W        W89326  14.365  27.205   2.409
22786W        W89327  12.377  29.417   3.820
22787W        W89328   5.873  30.909  11.584
22788W        W89329   8.722   3.489   1.388
22789W        W89330  27.488  15.773   0.166
22790W        W89331   7.666   2.900   3.602
22791W        W89332  15.861  21.609   2.275
22792W        W89333  35.487  26.896   3.261
22793W        W89334  23.687  23.049  11.505
22794W        W89335  12.865  14.114  11.202
22795W        W89336  20.296  34.820   3.766
22796W        W89337   2.511  14.382  10.739
22797W        W89338  12.302  14.111  14.925
22798W        W89339  40.599   0.994   1.197
22799W        W89340  14.252  39.387   2.422
22800W        W89341  40.973  25.687   2.900
22801W        W89342  34.404  19.262   4.357
22802W        W89343  39.343  27.230  10.567
22803W        W89344  10.910  37.309  13.572
22804W        W89345  33.960  44.020   2.608
22805W        W89346  38.292   9.353   0.965
22806W        W89347  18.888  11.920   2.157
22807W        W89348  31.886  37.370   0.804
22808W        W89349  42.293  36.434  14.489
22809W        W89350  35.124  20.636  12.686
22810W        W89351  15.711  39.231  12.235
22811W        W89352  31.615  22.516  14.342
22812W        W89353  22.780  36.501  12.078
22813W        W89354  25.216  27.257  14.639
22814W        W89355  39.527  30.166   3.157
22815W        W89356  17.365  26.644   0.842
22816W        W89357   5.229  14.100  13.591
22817W        W89358  19.646  41.335   3.142
22818W        W89359  27.568  31.666  11.719
22819W        W89360  17.147  14.908   1.467
22820W        W89361   2.281  32.225   3.660
22821W        W89362   1.258  10.270  13.929
22822W        W89363   7.450   9.682   4.132
22823W        W89364  18.303  39.790  11.936
22824W        W89365  35.535  26.021  12.940
22825W        W89366  42.059   9.021  10.302
22826W        W89367  32.625   3.793   2.316
22827W        W89368  24.823   8.333   4.567
22828W        W89369  32.926  26.494  14.351
22829W        W89370  32.316  37.760   1.825
22830W        W89371  13.043   6.286  11.213
22831W        W89372   8.183  11.195   3.402
22832W        W89373   0.226  43.438  13.941
22833W        W89374  18.103   0.896  13.986
22834W        W89375  34.978  18.980   2.637
22835W        W89376   0.312  13.114  13.515
22836W        W89377  10.216  35.953  11.546
22837W        W89378   6.491  18.130   0.269
22838W        W89379  16.294  38.037   0.980
22839W        W89380  41.919  20.105   2.898
22840W        W89381  38.930  43.491  11.050
22841W        W89382  10.553  14.427   3.785
22842W        W89383   3.292  32.646  13.253
22843W        W89384  28.277  37.490   5.068
22844W        W89385  40.771  25.727   0.266
22845W        W89386   6.239  41.854  14.433
22846W        W89387  37.588   0.907   3.187
22847W        W89388  25.983  25.614   3.347
22848W        W89389  31.907  37.796  12.519
22849W        W89390  29.041   6.163  11.551
22850W        W89391   5.203  19.989   1.492
22851W        W89392  32.324  12.332  13.423
22852W        W89393  27.364  16.107   1.820
22853W        W89394  38.522  27.445  13.309
22854W        W89395  19.603  21.453  11.099
22855W        W89396  25.000  38.838  12.078
22856W        W89397  38.013  14.337   1.288
22857W        W89398  41.830  18.209   3.230
22858W        W89399  10.899  35.490  14.890
22859W        W89400  32.110  30.680  11.203
22860W        W89401  43.046  10.669  11.069
22861W        W89402  27.909  18.107   1.852
22862W        W89403   3.991  18.626   2.332
22863W        W89404  23.240  37.955   4.305
22864W        W89405   3.286  12.640  12.501
22865W        W89406  10.222  14.853  13.052
22866W        W89407  18.860   8.968  10.317
22867W        W89408   5.106  44.483  13.403
22868W        W89409  19.526   1.774   3.047
22869W        W89410   7.286   0.207  13.497
22870W        W89411   9.298  30.535   3.151
22871W        W89412  22.627  11.590   0.778
22872W        W89413  44.840  14.553  11.998
22873W        W89414   3.840   5.747  14.804
22874W        W89415  30.636  30.641  11.947
22875W        W89416   1.885  25.989  11.477
22876W        W89417  21.007  35.579  12.818
22877W        W89418  21.495   4.895   2.925
22878W        W89419   3.881   1.636  10.219
22879W        W89420  12.968  43.324  14.739
22880W        W89421  16.831  28.456  14.832
22881W        W89422  13.802  28.608   0.923
22882W        W89423  17.569  30.176  11.203
22883W        W89424  42.289  31.871  12.969
22884W        W89425  38.321  20.707  14.641
22885W        W89426  12.911  16.857   2.776
22886W        W89427   4.486  20.175   2.894
22887W        W89428  42.450  11.306  12.944
22888W        W89429  41.917   8.367  12.316
22889W        W89430  37.108  10.346   2.245
22890W        W89431  32.399   1.379   3.518
22891W        W89432  23.797  19.606   0.212
22892W        W89433  28.172   6.752  13.451
22893W        W89434  24.051  23.174   2.076
22894W        W89435  24.740  22.003  13.973
22895W        W89436  34.180  30.917   0.772
22896W        W89437  38.965  35.538  13.523
22897W        W89438  39.950  20.146  12.221
22898W        W89439  43.316  14.356   3.710
22899W        W89440  12.286  41.977  14.787
22900W        W89441  30.641  38.524   3.781
22901W        W89442  43.427  38.061  13.518
22902W        W89443  43.258  12.268  13.547
22903W        W89444  43.409   2.789   1.895
22904W        W89445  39.189  20.017   1.969
22905W        W89446  24.418  33.020   4.889
22906W        W89447  22.431   1.278   4.606
22907W        W89448  25.744  26.044   0.285
22908W        W89449  21.108   3.259  11.875
22909W        W89450  18.664  42.960  10.377
22910W        W89451  43.025  12.334  10.427
22911W        W89452  40.435  32.394  12.436
22912W        W89453   8.639  42.845  14.341
22913W        W89454  25.547  26.815  11.119
22914W        W89455   8.241   7.822  10.986
22915W        W89456  32.304  30.394  12.501
22916W        W89457  13.878  30.880   2.212
22917W        W89458  24.259  40.361   2.245
22918W        W89459  40.389  22.090   1.755
22919W        W89460  15.811  40.769  14.023
22920W        W89461  36.311  39.548   3.863
22921W        W89462   0.648  18.961   0.818
22922W        W89463  18.777   0.217   3.254
22923W        W89464  15.784  14.793  10.650
22924W        W89465  21.129  43.824  11.653
22925W        W89466  26.089   4.311  14.759
22926W        W89467   8.360   8.609  10.639
22927W        W89468  36.470  44.271  12.824
22928W        W89469  26.372  25.505  14.510
22929W        W89470   6.380  18.450   2.186
22930W        W89471  26.547  36.405   0.243
22931W        W89472  28.805   3.999  12.102
22932W        W89473  29.111  38.407  13.965
22933W        W89474  42.961  13.074   5.171
22934W        W89475  13.724  34.931   3.612
22935W        W89476   2.664  28.717   3.568
22936W        W89477  10.508  26.979  12.840
22937W        W89478  28.875  44.339  14.810
22938W        W89479  28.029  26.531  14.326
22939W        W89480  20.120  43.178   3.594
22940W        W89481  21.164   3.791  12.361
22941W        W89482  34.959  35.245   1.889
22942W        W89483  36.532  18.129  12.991
22943W        W89484  20.004  41.138   4.109
22944W        W89485   9.404  13.096  12.408
22945W        W89486  38.449  21.417  13.908
22946W        W89487  22.353  31.084  10.974
22947W        W89488  11.189  19.704   5.066
22948W        W89489  22.113  13.689   4.655
22949W        W89490   4.967  34.658  10.331
22950W        W89491  23.984   5.618   1.294
22951W        W89492  37.420  13.805  14.417
22952W        W89493  13.314  27.456  12.040
22953W        W89494  27.715  35.591   0.845
22954W        W89495  10.634   8.163   4.246
22955W        W89496   7.447  25.591   0.728
22956W        W89497  35.631  30.057  13.849
22957W        W89498  26.560  39.729   1.302
22958W        W89499  44.477  38.514  12.461
22959W        W89500  34.080  13.158  14.382
22960W        W89501  24.029  37.446  11.504
22961W        W89502  44.330  19.543   2.921
22962W        W89503   0.313  32.522  12.514
22963W        W89504  21.641  41.621  12.025
22964W        W89505   2.754   4.947   3.739
22965W        W89506  37.071  37.303  14.038
22966W        W89507  39.381  29.955  14.875
22967W        W89508  42.492  21.516  11.569
22968W        W89509  22.649  20.583  14.026
22969W        W89510  34.926  33.585   4.770
22970W        W89511  19.561  37.952  13.436
22971W        W89512  33.917  11.747  13.676
22972W        W89513   5.276  39.361  13.442
22973W        W89514  37.367  19.722  14.031
22974W        W89515  26.856  24.795  11.990
22975W        W89516  44.921  16.045  14.882
22976W        W89517  16.850  29.946  11.911
22977W        W89518  27.084  16.605  14.943
22978W        W89519  20.476   4.756  13.854
22979W        W89520  39.892  32.033  13.724
22980W        W89521  34.539  13.611  11.169
22981W        W89522   6.423  43.733   0.110
22982W        W89523  36.862  43.006   2.432
22983W        W89524  29.727   1.686   0.137
22984W        W89525   3.741   6.572  10.051
22985W        W89526  27.048  18.253  12.492
22986W        W89527  44.942  17.370  12.930
22987W        W89528  28.828  13.087  11.884
22988W        W89529  26.301   5.560   3.604
22989W        W89530  42.900  42.550  11.197
22990W        W89531  29.241  43.849   4.413
22991W        W89532  22.683  43.463   3.218
22992W        W89533  17.212   8.448   4.115
22993W        W89534  33.943  25.212   3.690
22994W        W89535  30.083  41.425  14.674
22995W        W89536  14.269  20.741   3.434
22996W        W89537  29.969   6.317   4.619
22997W        W89538  39.524   7.469  13.562
22998W        W89539   8.234  10.232  13.444
22999W        W89540  33.655  44.912  11.262
23000W        W89541  22.033  39.390  14.308
23001W        W89542   3.244  19.949  12.148
23002W        W89543  34.928  14.310  12.474
23003W        W89544  27.005  16.491   1.274
23004W        W89545   0.368  43.326   2.289
23005W        W89546  14.635  29.521   3.381
23006W        W89547   6.810   8.942  13.035
23007W        W89548  32.455  41.270   0.026
23008W        W89549  37.959  12.215  11.492
23009W        W89550  15.105  32.053  12.773
23010W        W89551  43.254  16.600  11.663
23011W        W89552  21.306  22.135  11.563
23012W        W89553  11.098  40.370  11.337
23013W        W89554  15.151  43.011  10.454
23014W        W89555   7.183  25.260   3.762
23015W        W89556  42.340  39.022   4.434
23016W        W89557  13.913  32.193   2.612
23017W        W89558   8.564   1.594  13.365
23018W        W89559  27.574  32.551  14.193
23019W        W89560  35.705  21.962   3.733
23020W        W89561  15.268   2.351   0.348
23021W        W89562   2.274  21.725   2.861
23022W        W89563   0.962   7.390   3.615
23023W        W89564   0.522  30.648   3.192
23024W        W89565  22.717   8.620   0.860
23025W        W89566  41.335  20.010   1.067
23026W        W89567  22.416  13.033   0.924
23027W        W89568  26.267  40.703   0.839
23028W        W89569  18.794  43.979   3.138
23029W        W89570  27.425  33.441  12.064
23030W        W89571   4.824  14.109  13.950
23031W        W89572  24.142  43.500  12.050
23032W        W89573  22.056   8.384   4.741
23033W        W89574  16.458  44.132  10.366
23034W        W89575  21.635  29.739  11.179
23035W        W89576  31.254  30.584   4.785
23036W        W89577  44.899  24.446   1.418
23037W        W89578   9.708  42.399  14.757
23038W        W89579   0.301   4.475  11.332
23039W        W89580  27.572  35.089   2.754
23040W        W89581  12.688  15.037  13.261
23041W        W89582  38.882  29.574   4.644
23042W        W89583   5.981  41.379   3.288
23043W        W89584  44.899  20.330   2.779
23044W        W89585  35.224  25.059  14.130
23045W        W89586  36.910   9.215  11.705
23046W        W89587   7.528   7.225  11.777
23047W        W89588   2.183  34.898   0.049
23048W        W89589  30.020  40.912  11.556
23049W        W89590  28.418  29.552  10.972
23050W        W89591  30.679  41.988  10.892
23051W        W89592  30.067  14.050  11.234
23052W        W89593  21.908  42.351   1.741
23053W        W89594  14.769   2.342   2.688
23054W        W89595  11.770  27.267  13.379
23055W        W89596  24.062  42.980   9.617
23056W        W89597   6.392  36.312   0.463
23057W        W89598   9.673  34.861   1.266
23058W        W89599  43.898  39.262   1.136
23059W        W89600  29.181  41.255  14.488
23060W        W89601  19.382  16.805   4.098
23061W        W89602  20.179  41.831   2.681
23062W        W89603  42.901  20.461  12.930
23063W        W89604  16.850  34.199  11.058
23064W        W89605  11.662  36.625   1.592
23065W        W89606  11.694  28.254   1.246
23066W        W89607   3.429  37.268  11.103
23067W        W89608   4.980   7.404   3.207
23068W        W89609  41.006  18.781   3.303
23069W        W89610   6.397  42.579   2.756
23070W        W89611  13.892  40.918   4.493
23071W        W89612  33.507  30.413   1.157
23072W        W89613  26.272  22.192  14.550
23073W        W89614  37.500   5.827   2.774
23074W        W89615  40.631  38.949   1.212
23075W        W89616  33.545   6.632   4.699
23076W        W89617  16.007  38.883   0.860
23077W        W89618   4.008  31.161  11.163
23078W        W89619   9.758  31.154  10.828
23079W        W89620   2.617  42.424  10.659
23080W        W89621   2.317  29.741  14.239
23081W        W89622  38.989  13.690   1.422
23082W        W89623  29.236   7.409  12.757
23083W        W89624  32.088   6.088  14.071
23084W        W89625   6.734  21.039   4.131
23085W        W89626  37.807  31.091   3.223
23086W        W89627   3.931  41.040   1.657
23087W        W89628  44.536  18.354  14.595
23088W        W89629  23.991  29.752   3.145
23089W        W89630  24.621  17.074  14.773
23090W        W89631  32.121  44.043   0.215
23091W        W89632  40.432  40.533  10.865
23092W        W89633  30.425  23.201   0.340
23093W        W89634  41.804  43.758   2.222
23094W        W89635  23.112  10.260  13.848
23095W        W89636  34.115   4.637  11.626
23096W        W89637  11.155   0.106   2.203
23097W        W89638  17.950  30.878   4.663
23098W        W89639  37.583  34.936  13.395
23099W        W89640  15.791  28.196  14.558
23100W        W89641  35.347  40.918  10.537
23101W        W89642  24.799  26.042  13.822
23102W        W89643  25.874  10.161  12.144
23103W        W89644  15.703  22.026  14.033
23104W        W89645   6.688  22.936  13.275
23105W        W89646  18.539   5.359  12.474
23106W        W89647  19.601   9.556  14.923
23107W        W89648  12.631  14.302  13.383
23108W        W89649  17.938  11.409   1.780
23109W        W89650  22.801  41.451  13.642
23110W        W89651  31.366  44.008   0.780
23111W        W89652  39.451  24.930   3.676
23112W        W89653  37.356  38.353  13.620
23113W        W89654  13.706  24.171   0.955
23114W        W89655  13.049  17.129  14.165
23115W        W89656  22.622  15.304  14.527
23116W        W89657   3.839  43.425   1.478
23117W        W89658   1.386  38.641  10.627
23118W        W89659  24.157   4.294   0.456
23119W        W89660  29.190  14.287  14.840
23120W        W89661  23.455  27.662  14.850
23121W        W89662  25.183  17.530  11.443
23122W        W89663   9.362   1.420  13.822
23123W        W89664  29.096  32.453  10.467
23124W        W89665  43.962  27.525  10.660
23125W        W89666   1.733   3.320   1.830
23126W        W89667  12.438  13.768   4.624
23127W        W89668   0.323   9.377   4.112
23128W        W89669   7.409  34.352   2.734
23129W        W89670  11.120  40.908  12.094
23130W        W89671  14.097  19.483   3.185
23131W        W89672  40.719  28.294  12.708
23132W        W89673   7.890  33.188  12.224
23133W        W89674  37.021   0.034  12.537
23134W        W89675  24.166   6.134   2.681
23135W        W89676  25.201  13.008   4.652
23136W        W89677  23.000  43.551   4.733
23137W        W89678   0.299  40.649  12.824
23138W        W89679  16.731  34.978   2.070
23139W        W89680  10.655  15.698   1.415
23140W        W89681  14.274  30.925  13.105
23141W        W89682  19.530   5.194  12.565
23142W        W89683  16.904  17.147   1.179
23143W        W89684   7.500  11.674  12.155
23144W        W89685   6.348  23.589  11.651
23145W        W89686  26.336  40.059   3.709
23146W        W89687  21.227  29.929  11.403
23147W        W89688  12.874  30.535   1.112
23148W        W89689   0.904  40.439   4.117
23149W        W89690   2.042   2.409  12.330
23150W        W89691  23.273   7.319  14.439
23151W        W89692  18.679  14.325  12.527
23152W        W89693  17.258  13.551   1.890
23153W        W89694  35.226  39.006   0.335
23154W        W89695  10.367  40.692   3.680
23155W        W89696  16.138  15.680  13.769
23156W        W89697   4.338  12.654  10.661
23157W        W89698  25.013   6.646   0.282
23158W        W89699   1.477  30.942  12.427
23159W        W89700   6.781  40.530   4.875
23160W        W89701  11.289  20.222  11.198
23161W        W89702   9.404   7.847  13.487
23162W        W89703  43.586  14.125   4.089
23163W        W89704  13.109  26.086   4.382
23164W        W89705  24.491  32.449   1.298
23165W        W89706  11.098  10.705  14.318
23166W        W89707  12.757  35.390  14.307
23167W        W89708  37.169  24.468  13.359
23168W        W89709  38.437  37.385  14.180
23169W        W89710   3.114  29.101   4.501
23170W        W89711  21.898   8.182   1.745
23171W        W89712  25.675  10.417   3.673
23172W        W89713  36.399  19.786  14.855
23173W        W89714   3.803  10.698   0.878
23174W        W89715  41.836  40.585  13.428
23175W        W89716  41.369   7.737   2.345
23176W        W89717  43.481  30.113   3.177
23177W        W89718  13.328  23.567  10.345
23178W        W89719  29.907   7.747   0.262
23179W        W89720  13.011  29.785  10.998
23180W        W89721  28.651  16.130   1.387
23181W        W89722  27.033  29.096  11.497
23182W        W89723  26.602  27.161  14.425
23183W        W89724  23.230  18.490  11.101
23184W        W89725   9.315  30.869   2.284
23185W        W89726  42.379  29.243  13.944
23186W        W89727  20.844  21.373  11.229
23187W        W89728   7.913  33.074   3.496
23188W        W89729   7.319  32.916   1.472
23189W        W89730  13.266  23.898   3.201
23190W        W89731  24.206   6.318   3.654
23191W        W89732  38.140   8.186   3.684
23192W        W89733  17.083   7.933   2.758
23193W        W89734   8.829  31.977  10.429
23194W        W89735  29.636  20.104   0.917
23195W        W89736  44.446  21.948  13.593
23196W        W89737  11.893  12.342  11.205
23197W        W89738  14.769   1.701   1.451
23198W        W89739  17.799  13.517   5.305
23199W        W89740  35.612  20.231   0.550
23200W        W89741  41.823   0.335   2.644
23201W        W89742   9.119  29.982  10.973
23202W        W89743  43.843  32.454   2.461
23203W        W89744  26.932  13.689   3.841
23204W        W89745  24.042   5.646   2.732
23205W        W89746  37.459   6.223   0.677
23206W        W89747  38.168   4.186  13.982
23207W        W89748  36.580  23.722   4.376
23208W        W89749  16.684  29.360   2.253
23209W        W89750   0.797  23.280   4.062
23210W        W89751  29.554  25.909  10.602
23211W        W89752  13.674   0.328   1.798
23212W        W89753  26.588  33.137  12.663
23213W        W89754   5.120  23.197  12.080
23214W        W89755  13.219  29.141  14.297
23215W        W89756   4.381  11.718   4.407
23216W        W89757   3.396  27.818   2.645
23217W        W89758   1.491  42.246   0.840
23218W        W89759  40.045  26.156   1.258
23219W        W89760  39.992  41.927   2.794
23220W        W89761  19.203  29.596  13.912
23221W        W89762  26.498  41.238  11.051
23222W        W89763  10.024  22.701   4.156
23223W        W89764  22.525  32.900  13.500
23224W        W89765  25.673  15.905  10.310
23225W        W89766  43.917   7.161  13.722
23226W        W89767  12.632  43.510  13.452
23227W        W89768  19.143  15.402   4.953
23228W        W89769   7.598  30.009   2.216
23229W        W89770  26.414   0.354   0.518
23230W        W89771  17.789  24.236   4.722
23231W        W89772   8.576  28.573  11.056
23232W        W89773   4.865  43.622   0.431
23233W        W89774  33.474  28.023   4.669
23234W        W89775   3.061  26.477  11.934
23235W        W89776   4.446  30.581  12.889
23236W        W89777  28.920  39.397  11.113
23237W        W89778  26.143  31.203   0.031
23238W        W89779  11.521  27.472  11.641
23239W        W89780  14.247  13.013   4.668
23240W        W89781  33.185  20.772   0.343
23241W        W89782   1.881   1.758  13.005
23242W        W89783  43.458  26.250  14.432
23243W        W89784  23.538  40.864  14.112
23244W        W89785  38.677  34.022   4.830
23245W        W89786   2.448  28.217  11.671
23246W        W89787  44.246  33.907  12.676
23247W        W89788   1.187  14.579   3.734
23248W        W89789  14.530  38.044  11.166
23249W        W89790  25.069   3.292  12.907
23250W        W89791  10.729   2.445   1.907
23251W        W89792  20.558   9.458   3.217
23252W        W89793  32.621   5.353  11.665
23253W        W89794  15.197  15.542   3.548
23254W        W89795  34.519  36.997  14.003
23255W        W89796  13.910  15.678  10.826
23256W        W89797  15.118  12.378   0.065
23257W        W89798  12.776   3.274   0.039
23258W        W89799  38.136  26.854  11.427
23259W        W89800  19.445  27.514  12.977
23260W        W89801   2.787  26.682   2.378
23261W        W89802   6.168  32.947   4.314
23262W        W89803  14.332  13.062   2.482
23263W        W89804   5.479  32.172   1.732
23264W        W89805  12.651  44.010  13.520
23265W        W89806  14.628   5.541   2.778
23266W        W89807   2.711  25.610   1.164
23267W        W89808  23.059   5.833   0.332
23268W        W89809  27.049   1.439   1.366
23269W        W89810   4.040  40.596  11.804
23270W        W89811  17.170  18.332   0.857
23271W        W89812  31.623  41.714  14.839
23272W        W89813  33.969  35.416   3.385
23273W        W89814  21.188  25.560   0.804
23274W        W89815   2.818  15.731  11.481
23275W        W89816  36.238  12.661   2.929
23276W        W89817  17.439  30.238   1.757
23277W        W89818  27.680  19.511  12.570
23278W        W89819  35.929   0.073  13.405
23279W        W89820  11.808   0.583  11.945
23280W        W89821  39.934  21.500   1.536
23281W        W89822  41.633  19.076  14.759
23282W        W89823  10.005  18.291  14.530
23283W        W89824  16.255   2.388   2.306
23284W        W89825  42.894   1.968   2.782
23285W        W89826  20.271  30.665   9.964
23286W        W89827  42.439  14.106  13.304
23287W        W89828  41.900   5.692  12.613
23288W        W89829  17.381   8.029   3.175
23289W        W89830  20.695   4.138  14.563
23290W        W89831  20.529   4.692  12.995
23291W        W89832  28.396   7.311   0.892
23292W        W89833  16.383  30.719   0.112
23293W        W89834  10.252  41.483  11.573
23294W        W89835  40.712  25.494  13.896
23295W        W89836   7.657  21.191  11.633
23296W        W89837  23.131  43.759   3.157
23297W        W89838  44.652  25.984  13.940
23298W        W89839  30.496  26.017   3.327
23299W        W89840  10.820  25.834   0.945
23300W        W89841   4.480  20.415   1.163
23301W        W89842  25.448   3.713   0.900
23302W        W89843   7.054  34.452  11.962
23303W        W89844  41.033  35.335   2.095
23304W        W89845  34.983   6.635   3.396
23305W        W89846   7.010  40.255   3.987
23306W        W89847  41.796  28.665  12.038
23307W        W89848  16.780  19.594   0.218
23308W        W89849  27.626  17.968   0.368
23309W        W89850  13.668   9.101  11.584
23310W        W89851  17.823  20.137   2.422
23311W        W89852  12.253  19.664   3.806
23312W        W89853  32.411   7.184  11.647
23313W        W89854  21.306  20.571   3.631
23314W        W89855  29.568  21.311  12.873
23315W        W89856   3.258   8.932   3.448
23316W        W89857  12.370  44.493  11.544
23317W        W89858  34.813  25.193  14.912
23318W        W89859  26.127  12.372  12.502
23319W        W89860  25.757  14.988   4.984
23320W        W89861  37.383  20.010   3.891
23321W        W89862  42.570  19.050  13.860
23322W        W89863  37.421  23.833   4.773
23323W        W89864  43.836  25.497   4.188
23324W        W89865  32.817  39.068   9.883
23325W        W89866   8.752  31.484   4.794
23326W        W89867  16.780  20.675   1.610
23327W        W89868  39.244  35.947   4.086
23328W        W89869   6.211  24.586   0.134
23329W        W89870  25.589  22.365  10.588
23330W        W89871  10.324   3.409  13.209
23331W        W89872  26.648  41.733   1.378
23332W        W89873  14.618  19.217  10.745
23333W        W89874  33.130  30.429  13.049
23334W        W89875  17.600  17.301   2.280
23335W        W89876  22.114  32.433  12.823
23336W        W89877   4.756   5.069  10.311
23337W        W89878  38.208  39.383   1.047
23338W        W89879  16.266   0.935   3.833
23339W        W89880   1.990  35.732  13.794
23340W        W89881  17.280  15.247   0.202
23341W        W89882  30.899  41.238  12.446
23342W        W89883  35.981  35.938   2.167
23343W        W89884  23.413  37.920  12.490
23344W        W89885  35.894  40.972   0.937
23345W        W89886  40.868  42.050  10.785
23346W        W89887   8.516   2.470   1.414
23347W        W89888  17.238  32.004   4.669
23348W        W89889   2.269   1.599   3.959
23349W        W89890   1.290  44.884   3.380
23350W        W89891  23.634  20.753  14.794
23351W        W89892  23.784  10.496   2.846
23352W        W89893  14.716  30.182  12.024
23353W        W89894  40.152   1.755   2.730
23354W        W89895   8.238  11.098  11.078
23355W        W89896  22.097  26.443  12.019
23356W        W89897  31.444   6.253   1.695
23357W        W89898  27.979   5.222  11.154
23358W        W89899   0.790  28.640   0.268
23359W        W89900  44.724  26.637  11.220
23360W        W89901   1.834  33.468   5.482
23361W        W89902  24.814  18.035  14.414
23362W        W89903  16.687  13.108  10.790
23363W        W89904  43.284  22.664  10.773
23364W        W89905  29.049  12.659   0.717
23365W        W89906  40.361   2.702   2.796
23366W        W89907  34.685  18.344  13.373
23367W        W89908   4.040   0.259   3.314
23368W        W89909  22.834  39.929   4.816
23369W        W89910   2.754  12.652   4.743
23370W        W89911   1.772  24.552  13.357
23371W        W89912   1.152  28.904   1.759
23372W        W89913   1.018  11.431   3.244
23373W        W89914  40.419  11.672   1.910
23374W        W89915  40.392  35.953  13.417
23375W        W89916  35.970  32.794  12.126
23376W        W89917  42.336  18.353  14.498
23377W        W89918  43.155  26.527  10.016
23378W        W89919  32.846  32.621   2.405
23379W        W89920  39.935  13.120  12.158
23380W        W89921  43.125   5.267   2.656
23381W        W89922  15.273  15.598   3.039
23382W        W89923  33.356   0.880  10.173
23383W        W89924  34.365  25.850  12.356
23384W        W89925  13.176   3.293   0.381
23385W        W89926   8.896   0.365  13.420
23386W        W89927  44.818  20.280  11.693
23387W        W89928  16.709  42.775  12.429
23388W        W89929  18.787  17.746  12.601
23389W        W89930   8.794  13.796  14.351
23390W        W89931  21.257  38.796   4.087
23391W        W89932  37.480  37.924  12.481
23392W        W89933  40.201  38.902   1.478
23393W        W89934   9.768  27.534  13.037
23394W        W89935  21.721  33.207   4.224
23395W        W89936  33.643  29.626  14.513
23396W        W89937  28.472  36.861  11.431
23397W        W89938   8.838  20.279  12.940
23398W        W89939  13.312  19.202  12.948
23399W        W89940  24.122  13.999   5.085
23400W        W89941  24.125   0.603   1.754
23401W        W89942   2.534  22.552   3.613
23402W        W89943  37.147  43.957  11.156
23403W        W89944  27.296   0.731  13.373
23404W        W89945  14.432  25.058   2.791
23405W        W89946  24.026  13.094   1.849
23406W        W89947  22.177   5.375   0.322
23407W        W89948  39.536  35.229  12.424
23408W        W89949  30.462   6.242   2.273
23409W        W89950  14.089   1.501  13.034
23410W        W89951  37.902  13.266  10.068
23411W        W89952  15.268  13.874   4.607
23412W        W89953  38.814  34.563   2.151
23413W        W89954  21.120   9.389  14.732
23414W        W89955  25.244  33.686  14.238
23415W        W89956   2.091   0.961  10.175
23416W        W89957   7.163  38.142   9.910
23417W        W89958  37.363   2.810   0.295
23418W        W89959  18.349  15.755   1.770
23419W        W89960  11.316   8.830  14.124
23420W        W89961  21.132  37.856   1.280
23421W        W89962   1.837  29.979  13.355
23422W        W89963   9.941  33.376  11.117
23423W        W89964  34.067  32.954   1.903
23424W        W89965  36.110   9.850   2.407
23425W        W89966  40.790  32.501   1.050
23426W        W89967  26.455  30.800   2.266
23427W        W89968  40.608  21.456   2.801
23428W        W89969  35.563  26.673   0.818
23429W        W89970  34.893  22.564  11.787
23430W        W89971   3.957  13.866  12.167
23431W        W89972  37.529  43.754   4.408
23432W        W89973  32.925  14.908  12.456
23433W        W89974   4.136  26.606  14.968
23434W        W89975   9.812  22.563  12.434
23435W        W89976  38.619  31.999  10.060
23436W        W89977  43.243   6.345   3.971
23437W        W89978  28.922  30.921   1.520
23438W        W89979  22.670   6.585   0.720
23439W        W89980  38.276  35.333  14.338
23440W        W89981  11.724   2.707  14.907
23441W        W89982  21.580  17.424  12.019
23442W        W89983  39.738  17.815  11.603
23443W        W89984   0.283  43.772   3.302
23444W        W89985   3.669  29.219   4.508
23445W        W89986   7.307  26.010  14.997
23446W        W89987  31.915  18.802   2.692
23447W        W89988  43.916   3.512  14.469
23448W        W89989  32.621  41.304   3.344
23449W        W89990  33.218  13.824   1.662
23450W        W89991  20.149  17.809   1.205
23451W        W89992   8.158  29.098  11.175
23452W        W89993  23.199  42.326  12.569
23453W        W89994  16.508  39.835   1.746
23454W        W89995  15.787  21.755  14.464
23455W        W89996  20.323  18.185  13.315
23456W        W89997  26.108  18.068  12.449
23457W        W89998  13.578  26.569   0.193
23458W        W89999  19.742  16.222   1.680
23459W        W90000  11.596  43.959   3.166
23460W        W90001   7.957   1.287   4.579
23461W        W90002  12.648  26.624   2.282
23462W        W90003  43.817  31.538  14.747
23463W        W90004  13.605  35.007   0.708
23464W        W90005  28.052  33.777  12.841
23465W        W90006  37.980  11.682  11.535
23466W        W90007  40.418   0.490   1.182
23467W        W90008   1.639  26.983   0.369
23468W        W90009  37.500  29.902  12.503
23469W        W90010  33.411  33.494  10.925
23470W        W90011  44.226  43.772   0.675
23471W        W90012  14.024  14.421   2.307
23472W        W90013   9.146  32.112  12.062
23473W        W90014  28.160  23.598   1.155
23474W        W90015  30.018  42.360   1.891
23475W        W90016  34.415  17.128   3.524
23476W        W90017  30.542  36.193   1.932
23477W        W90018  13.679  25.171   3.114
23478W        W90019  22.395   8.665   3.363
23479W        W90020  21.000  25.246   2.809
23480W        W90021  42.967  25.059   1.476
23481W        W90022  17.177  16.690   3.384
23482W        W90023   8.658  18.346  14.225
23483W        W90024  13.743  24.668   3.062
23484W        W90025  34.497  39.561   3.989
23485W        W90026  17.297   0.444  13.935
23486W        W90027  16.012  29.758   4.958
23487W        W90028  33.559  17.799  12.164
23488W        W90029  22.970   7.619  11.115
23489W        W90030  14.677   3.545   1.791
23490W        W90031  21.183  16.714  11.496
23491W        W90032  40.862   7.208  14.179
23492W        W90033  31.501  16.880   4.190
23493W        W90034  36.261  22.074   0.915
23494W        W90035  18.533  33.087  14.719
23495W        W90036   5.612  44.386   2.768
23496W        W90037   3.791  10.182  10.235
23497W        W90038  13.090  40.751  11.757
23498W        W90039  28.137  27.070  14.976
23499W        W90040  20.477  33.587  11.124
23500W        W90041  34.204  26.829   3.142
23501W        W90042  17.356  11.214  13.942
23502W        W90043  17.160  42.295  12.019
23503W        W90044  29.312  32.248   1.620
23504W        W90045   0.477   5.893   4.972
23505W        W90046  31.755   1.934  10.232
23506W        W90047  18.946  38.679  12.952
23507W        W90048  23.237  37.350  13.584
23508W        W90049   6.447  25.825  11.073
23509W        W90050  43.189  27.123  12.609
23510W        W90051  22.061  22.556  13.021
23511W        W90052  38.973  28.401  10.448
23512W        W90053  38.427  24.449   3.459
23513W        W90054  35.708  28.090   1.818
23514W        W90055   8.300  24.766   1.448
23515W        W90056  30.599   3.336  10.285
23516W        W90057  10.370   4.193  10.369
23517W        W90058   6.241   7.579  14.454
23518W        W90059   2.010  23.759   0.737
23519W        W90060  35.971  11.245  14.539
23520W        W90061  18.316  44.467   1.712
23521W        W90062   4.248  39.156   2.082
23522W        W90063   3.018   6.928  13.935
23523W        W90064  18.185  28.922   3.178
23524W        W90065  40.743   4.414   3.263
23525W        W90066   0.289  29.799   4.553
23526W        W90067  23.972  21.155  10.276
23527W        W90068  16.051  29.726  12.889
23528W        W90069  11.696   6.691  12.995
23529W        W90070  41.290  33.075   3.148
23530W        W90071  19.631  27.250  12.042
23531W        W90072   1.502   1.350   3.151
23532W        W90073   4.246  26.283  10.744
23533W        W90074   2.340  19.756  10.286
23534W        W90075   6.614  21.746   3.266
23535W        W90076  13.977  44.852  12.602
23536W        W90077   6.630  33.532   2.013
23537W        W90078   4.993  16.256  14.300
23538W        W90079  42.027   7.310   2.782
23539W        W90080  41.224   6.873   3.563
23540W        W90081  42.018  31.828  12.502
23541W        W90082   1.568   3.380   0.539
23542W        W90083  40.749   8.244   2.375
23543W        W90084  29.330  15.637   1.629
23544W        W90085  39.360   1.303   2.998
23545W        W90086  22.260  12.778   2.780
23546W        W90087  43.571  11.239   1.990
23547W        W90088  17.619  15.708  13.269
23548W        W90089  13.651  18.416   4.302
23549W        W90090  30.684  40.373   3.342
23550W        W90091   9.182  40.680   0.754
23551W        W90092  29.654  41.332   1.660
23552W        W90093  34.919  15.730   3.126
23553W        W90094  21.470  37.759   1.772
23554W        W90095  29.925  16.151  11.574
23555W        W90096  44.402  23.235  12.689
23556W        W90097  38.126  14.761  13.950
23557W        W90098  11.433  25.097   3.362
23558W        W90099   0.350  40.843  10.868
23559W        W90100  17.506  43.179  14.856
23560W        W90101  17.427  17.083   0.803
23561W        W90102   5.937  32.988   3.227
23562W        W90103   8.905  15.942  12.032
23563W        W90104  18.708  17.183   3.196
23564W        W90105  20.239  39.890  12.950
23565W        W90106  26.921  38.457  11.484
23566W        W90107  16.032  33.641   2.942
23567W        W90108   6.256   1.719   3.793
23568W        W90109   1.882   9.516   0.848
23569W        W90110   8.736   6.357  13.558
23570W        W90111  31.467  29.028  12.368
23571W        W90112  42.882  27.889  13.892
23572W        W90113  20.530  39.270   2.404
23573W        W90114  11.994  23.077  11.312
23574W        W90115  40.996   9.597   4.541
23575W        W90116  25.527  14.015  11.423
23576W        W90117   3.470   9.298   4.583
23577W        W90118  17.379  32.686  10.128
23578W        W90119  13.542  31.804   2.757
23579W        W90120  16.182  24.268   2.856
23580W        W90121   4.979  24.002  11.822
23581W        W90122  44.797  27.921   4.323
23582W        W90123  27.058  25.134   0.806
23583W        W90124  19.996   7.063  11.107
23584W        W90125  23.527  26.462  13.033
23585W        W90126   6.354  40.533  11.216
23586W        W90127   5.686  29.149  14.862
23587W        W90128  37.763  17.090   0.812
23588W        W90129  36.637  31.495  10.728
23589W        W90130  30.108  40.735  12.071
23590W        W90131  27.161   3.333   2.048
23591W        W90132  27.257  17.784   3.670
23592W        W90133  20.131  24.286   2.264
23593W        W90134  28.148  12.645   1.149
23594W        W90135  26.611  21.951   2.032
23595W        W90136  32.451  22.475  10.226
23596W        W90137  36.310  35.504   0.321
23597W        W90138  37.039  40.127  11.181
23598W        W90139  29.634  41.111  12.862
23599W        W90140  23.637  18.134   1.343
23600W        W90141  25.631  13.896   0.845
23601W        W90142  17.677  21.960   2.806
23602W        W90143  16.744  23.997   0.448
23603W        W90144  15.602  18.302   2.277
23604W        W90145   4.682  24.090  14.564
23605W        W90146  22.136  12.653   1.886
23606W        W90147  23.081  27.593  10.514
23607W        W90148   0.551   8.361  13.983
23608W        W90149   9.759  43.311   4.570
23609W        W90150  29.575  43.278   2.146
23610W        W90151   4.830  12.876   1.661
23611W        W90152  10.757  19.219  14.078
23612W        W90153  11.254  13.680   1.638
23613W        W90154  21.307  38.087   2.191
23614W        W90155  25.970  36.070   2.164
23615W        W90156  12.238  30.141  12.876
23616W        W90157  15.329  23.058   4.647
23617W        W90158  24.593  43.954   1.832
23618W        W90159  13.330   3.819  11.543
23619W        W90160  18.275  12.761   1.780
23620W        W90161  18.471  17.270   0.846
23621W        W90162  43.719  23.452   1.942
23622W        W90163   0.496   2.307   4.165
23623W        W90164  40.102  12.820  11.602
23624W        W90165   4.383  19.850  10.635
23625W        W90166  29.987  22.913   0.325
23626W        W90167  21.029  38.106  12.466
23627W        W90168  38.061   6.366  14.942
23628W        W90169  12.913   1.418   2.125
23629W        W90170  44.236  19.630  13.865
23630W        W90171   1.823  15.674  13.002
23631W        W90172  33.408  16.282   3.671
23632W        W90173   3.503  38.844   0.776
23633W        W90174  41.492  40.310  14.106
23634W        W90175  22.463  31.921   4.394
23635W        W90176  32.879  11.223  10.679
23636W        W90177  13.274  19.801  11.414
23637W        W90178  30.945  26.571   0.882
23638W        W90179  39.572  28.451   4.613
23639W        W90180  24.645   1.643  12.058
23640W        W90181  30.645  31.694  13.253
23641W        W90182  25.557  36.611  12.241
23642W        W90183   6.275  35.538  12.016
23643W        W90184   3.323  16.118   4.633
23644W        W90185  31.645  11.917  13.943
23645W        W90186  32.415  11.264   2.416
23646W        W90187  16.078   2.959  12.755
23647W        W90188  44.714  28.952  13.164
23648W        W90189   8.948  14.323   3.555
23649W        W90190  23.055  30.263  14.098
23650W        W90191  23.245  34.597   0.445
23651W        W90192  35.485  31.264  12.945
23652W        W90193  32.957  38.561   2.694
23653W        W90194  33.439  18.048   1.258
23654W        W90195  37.756  32.936   4.339
23655W        W90196  30.166  15.093  14.953
23656W        W90197  29.438   0.320  13.649
23657W        W90198   1.829   0.195   0.614
23658W        W90199  16.486  38.848   1.039
23659W        W90200  18.350  21.988   3.783
23660W        W90201   0.849  19.353  11.147
23661W        W90202  22.530  35.117  14.441
23662W        W90203  24.080  19.624   3.852
23663W        W90204  19.805  36.947  13.956
23664W        W90205  25.231  26.403   4.797
23665W        W90206  26.041  17.292  13.024
23666W        W90207  22.941   2.580  11.033
23667W        W90208  21.800  26.131   2.791
23668W        W90209  27.413  29.680  14.019
23669W        W90210  35.243  12.239  13.013
23670W        W90211  29.225   3.712   0.489
23671W        W90212   2.985   8.021  11.633
23672W        W90213   6.895  36.777   2.345
23673W        W90214   1.413  13.309   1.900
23674W        W90215  22.129  44.920   2.143
23675W        W90216  25.656  13.320   4.003
23676W        W90217   5.511   0.737   3.783
23677W        W90218   0.898  22.093   2.953
23678W        W90219  39.052   5.433   1.320
23679W        W90220  27.949  17.672  11.522
23680W        W90221  31.986   1.918   1.316
23681W        W90222  12.471  22.198  13.278
23682W        W90223  30.870   6.362  10.582
23683W        W90224  42.035  41.683  11.560
23684W        W90225  44.824   9.721   3.203
23685W        W90226   3.865  35.511   0.853
23686W        W90227  22.135   6.605  14.097
23687W        W90228  41.708   0.166  10.419
23688W        W90229  36.517   2.363   1.388
23689W        W90230   9.642   3.877  11.698
23690W        W90231  36.970   4.391   2.865
23691W        W90232  14.090  12.711   2.183
23692W        W90233  12.844   2.978  14.107
23693W        W90234  40.536  38.247   4.216
23694W        W90235   1.435   5.630  14.986
23695W        W90236  28.271  10.372  14.506
23696W        W90237   9.085  22.174   2.334
23697W        W90238   9.831  43.481   1.764
23698W        W90239   0.485   7.766   0.733
23699W        W90240  12.302   3.890  10.741
23700W        W90241   8.956  33.024   0.145
23701W        W90242  33.160   0.116   0.333
23702W        W90243  44.365  17.132  14.278
23703W        W90244  16.759   4.922   1.861
23704W        W90245  23.458  17.202   4.124
23705W        W90246   2.896   2.383   0.913
23706W        W90247   1.259  36.957   4.289
23707W        W90248  15.696  11.688  11.884
23708W        W90249  26.420  31.496   4.164
23709W        W90250  11.765   9.921   3.715
23710W        W90251  28.922   1.406  14.782
23711W        W90252   2.960   9.140   0.309
23712W        W90253   1.225  32.342  14.363
23713W        W90254   2.283   0.893  11.056
23714W        W90255  13.429  24.649   2.651
23715W        W90256  29.132  22.117   1.861
23716W        W90257  40.582   1.271   3.784
23717W        W90258  30.957  11.042   4.183
23718W        W90259   5.917  37.474   3.113
23719W        W90260  36.980   3.913   1.677
23720W        W90261  28.221  32.273  10.943
23721W        W90262  35.076  19.727  10.145
23722W        W90263  39.721  29.203   3.130
23723W        W90264  24.427  12.662  14.983
23724W        W90265  35.047  32.767  10.752
23725W        W90266  21.193  30.603  11.874
23726W        W90267  10.824  36.521   1.364
23727W        W90268   3.364  38.667   4.645
23728W        W90269  23.900  32.022   0.192
23729W        W90270  30.490  15.002   2.650
23730W        W90271  32.905  11.126   2.730
23731W        W90272  22.560  12.521   0.942
23732W        W90273  19.658  31.134   0.805
23733W        W90274  26.113  42.478  11.370
23734W        W90275  40.032  41.968  12.091
23735W        W90276  41.573  19.254   4.014
23736W        W90277  24.692  44.021   2.752
23737W        W90278  41.649  39.271  13.350
23738W        W90279  23.173  20.473   3.200
23739W        W90280  32.431   8.182  14.434
23740W        W90281  42.447   7.195   3.167
23741W        W90282  32.675  32.104   3.370
23742W        W90283  35.547  32.622   1.861
23743W        W90284   1.732   4.784   1.777
23744W        W90285  32.499  28.137  11.198
23745W        W90286  35.593  11.844   2.953
23746W        W90287  16.242  22.232  14.922
23747W        W90288  41.297  20.826   4.141
23748W        W90289  40.839  25.749   2.374
23749W        W90290  16.232  20.811   3.220
23750W        W90291  29.346  43.806   1.368
23751W        W90292  24.256  10.548  13.307
23752W        W90293   2.520  21.241  13.304
23753W        W90294   1.030  40.299   2.890
23754W        W90295  37.658  27.726  11.180
23755W        W90296   2.226  10.751   3.331
23756W        W90297   4.400  17.985   4.826
23757W        W90298  29.835  24.875  13.107
23758W        W90299  16.380  34.619   1.920
23759W        W90300  33.175  44.772   1.941
23760W        W90301  29.237  28.112   4.646
23761W        W90302  23.466  17.002  13.855
23762W        W90303   5.389  31.510  11.909
23763W        W90304  18.043  35.352  10.829
23764W        W90305  13.763  30.796  14.767
23765W        W90306  20.004   9.737   1.593
23766W        W90307  24.625  31.785  12.533
23767W        W90308  31.940  15.751  13.085
23768W        W90309  35.124  42.917   4.560
23769W        W90310  26.074   9.953  14.919
23770W        W90311  43.805  31.977  10.665
23771W        W90312  34.117  18.563   2.319
23772W        W90313   4.205   6.329  13.861
23773W        W90314  24.441  35.406   1.778
23774W        W90315  18.063   6.603  14.552
23775W        W90316  32.032  32.924   2.667
23776W        W90317   7.956  25.430   0.712
23777W        W90318  19.700   6.030   2.194
23778W        W90319  12.604  44.833   3.829
23779W        W90320  10.380  23.982   3.252
23780W        W90321  15.789  15.723  11.435
23781W        W90322  34.938  33.973   0.854
23782W        W90323   0.499  10.762  12.133
23783W        W90324  31.168  22.479  14.096
23784W        W90325  29.890  19.964   1.883
23785W        W90326  31.273  39.768   3.720
23786W        W90327  10.642  30.469  12.449
23787W        W90328   7.990  25.073   3.438
23788W        W90329   0.426  22.075  14.732
23789W        W90330   9.070  16.384   1.668
23790W        W90331  11.307  15.383  13.464
23791W        W90332  23.612  16.623   0.882
23792W        W90333  36.982  31.129  11.635
23793W        W90334  10.862  40.835  11.198
23794W        W90335   0.724   4.745   2.216
23795W        W90336   9.250  15.033  14.041
23796W        W90337  24.447  31.957  14.027
23797W        W90338  32.990  18.201   3.928
23798W        W90339  41.232  18.628   1.863
23799W        W90340   6.428  24.126  14.382
23800W        W90341  10.950  44.893   2.656
23801W        W90342  20.116   9.574   3.678
23802W        W90343  44.563  20.009  13.773
23803W        W90344  38.969  32.215  13.533
23804W        W90345  33.663  13.269   1.204
23805W        W90346  41.886  38.147  12.394
23806W        W90347  27.604   5.318  12.446
23807W        W90348  28.006   9.750  12.807
23808W        W90349   5.856  31.069   2.755
23809W        W90350   5.475  32.695   0.820
23810W        W90351  16.063  23.546  11.638
23811W        W90352  32.161  40.953  12.462
23812W        W90353  37.506  19.482  10.362
23813W        W90354   8.018  17.098   2.694
23814W        W90355  17.074  44.054  10.407
23815W        W90356  40.092  31.489   2.016
23816W        W90357  15.801   6.907   0.266
23817W        W90358  29.393  42.984   4.092
23818W        W90359  33.502  18.566  12.687
23819W        W90360  15.689  15.757  12.364
23820W        W90361  38.994  37.964   4.615
23821W        W90362   4.210  37.849   4.220
23822W        W90363  39.465  10.151  10.562
23823W        W90364  26.564  41.941   4.623
23824W        W90365  24.541  39.892   1.557
23825W        W90366  26.797  33.267   2.309
23826W        W90367   8.386   3.091   2.070
23827W        W90368  19.988  22.972   1.208
23828W        W90369  24.387  12.732   0.902
23829W        W90370  34.330  28.485  11.829
23830W        W90371  40.816  36.852  12.559
23831W        W90372   4.176  11.785   1.857
23832W        W90373  36.691  14.828  11.585
23833W        W90374  44.943  43.219   0.924
23834W        W90375  11.331  35.643   4.657
23835W        W90376  36.064  35.078  12.516
23836W        W90377   4.787  29.796   1.385
23837W        W90378  14.831  29.472   4.203
23838W        W90379   7.310  10.810   1.506
23839W        W90380  30.893  43.975   1.734
23840W        W90381  41.517  17.667   2.346
23841W        W90382   5.570  37.022   9.787
23842W        W90383  10.270  32.625  12.684
23843W        W90384  16.353  36.986  13.787
23844W        W90385  34.863  33.758   2.288
23845W        W90386  24.328  18.722   0.186
23846W        W90387  15.312  36.557   1.290
23847W        W90388  20.252  27.001  12.043
23848W        W90389  19.206  42.805  12.980
23849W        W90390  37.564  33.765   2.317
23850W        W90391   7.685  24.663   0.347
23851W        W90392  12.199  34.156   3.756
23852W        W90393  16.132   6.449  12.938
23853W        W90394  42.788  42.029  14.861
23854W        W90395   9.296   7.111   2.281
23855W        W90396  18.645  17.198  12.403
23856W        W90397  31.445   4.906  11.873
23857W        W90398   0.821  23.209   0.513
23858W        W90399  20.344   2.738   2.581
23859W        W90400  19.538   3.736  14.921
23860W        W90401  22.576   3.963  14.022
23861W        W90402  12.150  29.436   1.557
23862W        W90403  26.664   8.271   3.223
23863W        W90404  41.704  36.610  11.153
23864W        W90405  29.370  25.932  14.467
23865W        W90406  32.061  27.253   2.233
23866W        W90407   3.030  25.265  11.876
23867W        W90408  37.643  27.065  12.455
23868W        W90409  28.462  20.280  10.644
23869W        W90410   4.753   9.749   3.273
23870W        W90411  21.019  16.123  14.815
23871W        W90412  36.972  17.797  14.884
23872W        W90413  30.454  20.204   4.364
23873W        W90414  21.649  14.841  12.854
23874W        W90415  10.977  41.404  12.025
23875W        W90416   6.024  39.506   5.024
23876W        W90417  19.576   5.782   4.590
23877W        W90418   0.292  21.482   4.105
23878W        W90419  29.342   7.795   1.397
23879W        W90420  16.391   2.873  11.455
23880W        W90421  26.603  44.366   1.393
23881W        W90422  38.472  39.357   1.974
23882W        W90423  30.753  14.809   2.234
23883W        W90424  11.777   2.788   1.387
23884W        W90425  19.814  37.167   0.214
23885W        W90426  19.017  29.946   2.624
23886W        W90427   7.509  13.968   0.000
23887W        W90428  20.159  38.368  11.388
23888W        W90429  39.374  27.952   3.355
23889W        W90430   8.237  14.525   2.366
23890W        W90431   6.182  42.902   1.261
23891W        W90432   8.263  10.387   4.065
23892W        W90433  43.297  23.093   3.683
23893W        W90434  19.308   3.692   2.304
23894W        W90435  29.664  24.892   3.622
23895W        W90436  26.454  42.775  13.440
23896W        W90437  29.693  38.451   2.088
23897W        W90438  19.572  19.077  12.430
23898W        W90439  26.224   7.773   3.187
23899W        W90440  38.907  26.199   0.678
23900W        W90441  39.504  11.291  14.938
23901W        W90442   3.767  40.093   3.206
23902W        W90443  16.529  29.044   4.526
23903W        W90444  30.540  36.234  14.347
23904W        W90445  21.710  29.482   4.500
23905W        W90446   9.656  28.473   4.454
23906W        W90447  30.383   2.481   4.487
23907W        W90448  26.246  44.239   4.120
23908W        W90449   5.832  30.525   2.356
23909W        W90450  26.252  17.751  10.545
23910W        W90451  17.561  40.973  10.263
23911W        W90452  44.474   5.878  14.079
23912W        W90453  32.305   5.868  12.369
23913W        W90454  18.250  30.960  14.274
23914W        W90455  11.757  25.779   4.504
23915W        W90456  36.689  30.448  14.316
23916W        W90457   7.908  11.291   4.562
23917W        W90458   4.444  37.625  13.404
23918W        W90459  37.783  33.593  10.830
23919W        W90460   3.651  19.007   2.302
23920W        W90461  29.579   1.552   2.644
23921W        W90462  26.296  40.603   2.764
23922W        W90463  40.602  40.029   2.714
23923W        W90464  15.355  16.003  11.144
23924W        W90465  15.699  24.225   4.146
23925W        W90466  33.119  19.791   1.429
23926W        W90467  33.687  35.045  14.145
23927W        W90468   3.085  21.861  12.026
23928W        W90469  27.480   0.472   2.304
23929W        W90470  15.618   7.169  12.862
23930W        W90471  43.736  25.576   1.623
23931W        W90472  39.807  24.358   1.856
23932W        W90473   9.666  26.152   4.249
23933W        W90474  19.557  26.933  10.729
23934W        W90475  17.505  32.947   0.740
23935W        W90476   7.057  38.328  13.376
23936W        W90477  12.778  13.083   3.984
23937W        W90478   8.136  26.892  14.831
23938W        W90479  43.242   1.404  11.693
23939W        W90480  12.100  14.332  13.446
23940W        W90481   6.844  31.685   0.218
23941W        W90482  16.730  19.233  11.441
23942W        W90483  15.346  28.943  12.010
23943W        W90484   0.556  44.873   4.593
23944W        W90485  28.779  38.407   2.560
23945W        W90486   8.461   9.966   1.683
23946W        W90487  32.539  40.274  14.741
23947W        W90488  24.946  40.322  14.902
23948W        W90489  14.172   2.506   4.472
23949W        W90490  40.812  23.659   3.117
23950W        W90491  42.017   7.193  12.974
23951W        W90492  11.366  41.682  12.159
23952W        W90493   0.974   4.959  14.370
23953W        W90494  36.886   2.021  12.470
23954W        W90495  35.256   3.425   1.188
23955W        W90496  41.305  33.562  10.810
23956W        W90497  42.666  38.753   2.369
23957W        W90498  41.040   8.273  14.905
23958W        W90499   7.902  13.362  13.791
23959W        W90500  42.261  44.403   0.156
23960W        W90501   2.908   9.794   3.246
23961W        W90502  41.322  29.823  10.681
23962W        W90503  34.954  23.113  11.003
23963W        W90504   3.964  30.213  14.835
23964W        W90505  36.404  31.556  14.895
23965W        W90506  38.509  15.711   0.369
23966W        W90507   1.890  37.138   2.783
23967W        W90508   5.559  10.924   0.481
23968W        W90509  38.153   7.089   4.565
23969W        W90510   2.653  28.850   4.563
23970W        W90511  17.589  17.596  11.757
23971W        W90512   1.908  27.637  11.195
23972W        W90513  10.505   9.284   3.233
23973W        W90514  14.137  30.027   0.921
23974W        W90515  38.159   3.542   5.057
23975W        W90516  14.133  32.468   3.705
23976W        W90517  35.202  10.828  11.581
23977W        W90518  43.770  19.022  11.421
23978W        W90519  41.308  16.031  11.978
23979W        W90520  10.246  15.856  13.932
23980W        W90521  28.558  29.383   0.860
23981W        W90522  32.660  27.726  13.569
23982W        W90523  39.805  26.151   3.632
23983W        W90524  32.426   1.973  12.166
23984W        W90525  36.469   5.465  10.617
23985W        W90526  24.209  41.383   4.159
23986W        W90527  14.877  23.716  12.134
23987W        W90528   1.714   4.109  14.198
23988W        W90529  28.600  42.444  13.559
23989W        W90530  15.834  39.984  14.499
23990W        W90531  39.856   6.210   0.877
23991W        W90532   3.733  18.511   0.258
23992W        W90533  19.545  27.615   3.662
23993W        W90534  21.102  39.274  14.560
23994W        W90535  27.623  36.907  12.135
23995W        W90536  29.448   9.425  13.445
23996W        W90537  40.411  29.851  10.701
23997W        W90538   3.610  30.865   2.210
23998W        W90539   3.423  34.668   1.983
23999W        W90540  42.446  20.574   0.346
24000W        W90541   7.715  18.282   2.203
24001W        W90542  24.907  23.695   3.015
24002W        W90543  32.060   0.188  14.473
24003W        W90544  20.027  27.002   2.966
24004W        W90545  28.601  19.399  11.997
24005W        W90546  41.952  40.537  13.964
24006W        W90547  19.210  31.437   2.846
24007W        W90548   9.715  28.923   0.246
24008W        W90549  39.356  43.444   4.612
24009W        W90550  13.905   6.467   0.582
24010W        W90551  22.080  10.828   0.921
24011W        W90552  20.057  15.599   0.404
24012W        W90553   7.248  11.627   4.839
24013W        W90554  23.023  17.771   3.283
24014W        W90555   1.835  44.372   1.917
24015W        W90556  36.396  23.456   3.622
24016W        W90557  38.460   2.913   4.020
24017W        W90558  17.191  34.859   2.314
24018W        W90559  38.492  28.575  10.640
24019W        W90560  30.911   0.401  13.887
24020W        W90561  31.131  19.644  13.541
24021W        W90562  39.901   7.765  11.718
24022W        W90563  37.530  44.218   2.168
24023W        W90564   7.652  14.175   4.983
24024W        W90565  38.467   8.927  12.180
24025W        W90566  39.472  22.848  12.438
24026W        W90567  34.287  26.186   0.638
24027W        W90568  31.589  43.921   4.055
24028W        W90569  16.660  21.324  14.743
24029W        W90570  11.844  14.692  12.980
24030W        W90571   0.465  40.474  14.535
24031W        W90572  14.341  21.627  10.737
24032W        W90573  41.636  11.774   2.200
24033W        W90574  43.490   8.354   0.513
24034W        W90575  10.330  13.224   0.731
24035W        W90576  13.519   0.851   4.121
24036W        W90577   0.478  39.909  10.374
24037W        W90578  24.610  21.826  11.719
24038W        W90579  38.138  30.012   0.380
24039W        W90580  41.871  44.330  10.708
24040W        W90581  12.447  43.779  11.159
24041W        W90582  23.592  38.816   0.399
24042W        W90583   0.989  21.903   3.422
24043W        W90584   3.176  34.223   0.701
24044W        W90585  12.300  26.949  14.029
24045W        W90586  18.106  40.990  14.410
24046W        W90587   6.202  39.478   0.855
24047W        W90588  43.311  39.773  11.910
24048W        W90589  14.807  25.259   4.269
24049W        W90590   1.799  30.557  13.079
24050W        W90591  37.951  35.424  13.452
24051W        W90592  38.431  16.325   1.413
24052W        W90593  44.813  15.340  13.944
24053W        W90594   8.901  44.124   2.360
24054W        W90595  12.109   4.935   2.011
24055W        W90596  29.966  23.739   1.752
24056W        W90597  36.654  33.928   2.578
24057W        W90598   9.594  44.023   1.380
24058W        W90599  21.298  13.809   2.728
24059W        W90600  27.600  28.653   1.511
24060W        W90601  30.709  34.858  11.209
24061W        W90602  33.699   9.936  13.997
24062W        W90603   2.343  36.135   2.245
24063W        W90604   3.160  19.216  13.095
24064W        W90605   3.258  28.198   4.580
24065W        W90606  39.467  17.589  11.973
24066W        W90607  17.025  16.176   0.819
24067W        W90608  37.504   5.512   4.068
24068W        W90609  29.162  18.637   2.876
24069W        W90610  35.523  33.545   1.285
24070W        W90611   3.252  33.764   1.603
24071W        W90612  31.189  38.863  12.572
24072W        W90613   8.339   7.155   1.179
24073W        W90614  38.056   9.905  12.256
24074W        W90615  30.395  26.906  10.906
24075W        W90616  29.141  40.084  10.820
24076W        W90617  11.911  31.582   0.889
24077W        W90618  26.456  27.417  14.909
24078W        W90619  17.648  28.591   2.766
24079W        W90620   7.793  33.703   0.939
24080W        W90621  37.547  37.783   4.135
24081W        W90622  16.510  40.534   1.310
24082W        W90623  40.953  17.643   9.691
24083W        W90624  10.788  33.224   3.386
24084W        W90625  26.559  29.739  13.626
24085W        W90626  21.238  13.098  11.497
24086W        W90627  33.668  22.263   1.381
24087W        W90628  24.586  17.569  14.436
24088W        W90629  22.109  14.755   4.164
24089W        W90630  18.102  28.917  11.278
24090W        W90631  13.326   5.834  13.345
24091W        W90632  11.307  19.064  13.783
24092W        W90633   2.330  17.314   0.400
24093W        W90634  41.977  37.013   3.952
24094W        W90635   9.844  40.931   2.733
24095W        W90636  18.264  16.758   0.812
24096W        W90637  19.099  18.371   3.461
24097W        W90638   0.905   7.484  14.403
24098W        W90639  41.121  38.942   1.384
24099W        W90640   9.116  22.478   0.166
24100W        W90641   8.911   5.729   3.565
24101W        W90642  33.601  38.188   1.402
24102W        W90643  24.120  15.027   2.322
24103W        W90644  44.299   8.949   0.363
24104W        W90645  13.292  37.303   1.370
24105W        W90646  18.025   8.364   2.673
24106W        W90647  33.878  22.734   1.697
24107W        W90648  32.517   8.722  12.622
24108W        W90649  41.582  42.538  13.363
24109W        W90650  26.581  26.589  14.447
24110W        W90651  35.479   9.829  14.191
24111W        W90652  41.360   3.800   3.474
24112W        W90653  19.526  39.398  14.487
24113W        W90654  26.092  16.371  11.559
24114W        W90655  20.504  22.859   1.234
24115W        W90656  37.786  37.984   1.166
24116W        W90657  39.664  31.722   2.687
24117W        W90658  21.456  35.923   1.431
24118W        W90659  21.208  19.514   4.980
24119W        W90660  24.538   2.563   3.196
24120W        W90661   7.535   0.662  11.996
24121W        W90662  24.170  21.598   2.888
24122W        W90663  31.484  23.399  13.562
24123W        W90664  10.367  28.079  12.589
24124W        W90665  23.298   9.215   2.722
24125W        W90666  24.224  37.998   1.167
24126W        W90667  15.131   6.486  10.705
24127W        W90668  28.318  14.054   2.354
24128W        W90669  32.267  29.482  12.437
24129W        W90670  32.613   8.807   3.201
24130W        W90671  44.363  23.569  11.755
24131W        W90672  20.882  36.177  13.497
24132W        W90673   1.485  34.848  14.436
24133W        W90674  39.804   9.926   1.821
24134W        W90675   3.410  36.427  14.977
24135W        W90676  31.319  11.202  11.459
24136W        W90677  39.555  38.866   4.708
24137W        W90678  42.838   2.145  11.953
24138W        W90679   0.148  42.456  10.710
24139W        W90680  44.645   7.592   0.822
24140W        W90681  19.075   6.170  10.276
24141W        W90682  26.034  35.646   3.787
24142W        W90683   4.993  18.689   4.059
24143W        W90684  29.793  10.188  14.419
24144W        W90685  26.221  12.542  14.090
24145W        W90686  20.904  40.508   4.823
24146W        W90687   9.049  21.219  11.563
24147W        W90688  31.210  16.304  11.079
24148W        W90689  31.685  20.775   0.806
24149W        W90690  11.775  25.693  14.366
24150W        W90691   1.229  18.640  11.426
24151W        W90692  26.441  37.533   4.136
24152W        W90693  41.354   6.315  14.859
24153W        W90694  18.871  13.113   2.609
24154W        W90695  17.654  26.286   0.566
24155W        W90696  23.774   2.914   4.528
24156W        W90697  14.810   6.422   1.621
24157W        W90698  40.084  40.358  13.408
24158W        W90699   2.445  30.521   1.390
24159W        W90700   1.181  13.903  11.697
24160W        W90701  43.674  26.991  12.677
24161W        W90702   8.816  11.409  12.129
24162W        W90703  27.133   9.389   0.107
24163W        W90704  38.873  24.441   3.172
24164W        W90705   4.384   4.994   3.696
24165W        W90706   8.872  15.452   4.154
24166W        W90707  38.315  31.716   2.737
24167W        W90708   4.898  12.793  12.429
24168W        W90709   7.236  22.085  14.306
24169W        W90710   4.647  15.673   3.323
24170W        W90711   8.802  42.943   4.341
24171W        W90712  19.297   4.258  12.619
24172W        W90713   1.918   0.350   2.156
24173W        W90714   7.192   2.344  11.583
24174W        W90715  26.232   9.134   3.802
24175W        W90716  27.964  29.107  12.491
24176W        W90717   4.778   4.731   2.615
24177W        W90718  25.720  44.953  12.509
24178W        W90719  26.607  33.321   3.539
24179W        W90720   4.084  10.746  11.928
24180W        W90721   0.996  25.662  12.463
24181W        W90722  35.932  38.557  11.914
24182W        W90723  29.187  32.527   1.176
24183W        W90724  42.077   9.312  14.044
24184W        W90725  31.197  21.660   2.121
24185W        W90726  14.589  44.787   0.776
24186W        W90727  42.079  12.720   4.508
24187W        W90728  44.808  27.636   2.421
24188W        W90729   2.729  17.151   4.770
24189W        W90730  15.109  43.465  10.688
24190W        W90731  40.778  21.810  14.383
24191W        W90732  30.414  26.142  11.813
24192W        W90733   9.817  23.621  12.436
24193W        W90734  11.373  43.368  10.482
24194W        W90735  25.477  19.270   0.207
24195W        W90736  25.485  32.100  13.654
24196W        W90737  42.536  36.787  11.344
24197W        W90738  13.052  19.700   3.180
24198W        W90739  43.753   6.419   2.220
24199W        W90740   5.688  35.160  14.906
24200W        W90741   3.897  31.356   3.312
24201W        W90742   1.485  11.295  10.656
24202W        W90743   5.313   1.255   4.443
24203W        W90744  26.004  40.481  11.168
24204W        W90745   6.908  17.057  11.179
24205W        W90746   2.495  39.845   2.741
24206W        W90747  32.485  15.236   4.156
24207W        W90748  12.953  34.426   1.229
24208W        W90749  30.793   2.850  12.821
24209W        W90750   2.266  15.701  12.148
24210W        W90751   6.683  42.907   3.667
24211W        W90752  38.497  41.498  14.126
24212W        W90753  39.011  16.752  12.166
24213W        W90754  11.793  42.248  10.624
24214W        W90755  22.648   8.127  13.053
24215W        W90756  41.648  17.745  14.198
24216W        W90757  13.754  35.638   1.961
24217W        W90758   7.326  14.994   2.463
24218W        W90759   6.412  39.850   1.715
24219W        W90760   4.666  34.949   2.191
24220W        W90761   7.777   3.945  11.603
24221W        W90762  20.768  28.571  12.395
24222W        W90763  40.823   2.652  13.122
24223W        W90764  36.483  20.989   2.481
24224W        W90765   1.120  15.367   4.892
24225W        W90766  21.579  36.351   3.677
24226W        W90767   3.092  41.494  12.891
24227W        W90768   4.415  34.775  14.759
24228W        W90769   8.399  31.902   1.835
24229W        W90770  29.792  39.833  12.654
24230W        W90771  10.377  42.434  10.643
24231W        W90772  26.121  15.204   3.584
24232W        W90773  35.129  13.060  12.562
24233W        W90774   5.757  41.410   4.231
24234W        W90775  41.378  26.183   1.395
24235W        W90776  29.683  17.788   2.402
24236W        W90777  35.980   6.459   1.712
24237W        W90778  21.597  24.362   0.885
24238W        W90779  13.623  24.474  11.655
24239W        W90780  25.981   0.795  12.933
24240W        W90781  23.818  44.519   3.036
24241W        W90782  39.749  40.943  11.670
24242W        W90783  19.814  17.626  11.226
24243W        W90784  19.796  21.208   2.706
24244W        W90785  37.189  16.011   1.952
24245W        W90786   1.673  33.137  11.602
24246W        W90787   7.591  27.064   0.539
24247W        W90788  13.657  18.772  13.404
24248W        W90789  26.910  35.501   1.640
24249W        W90790  24.265   5.856   2.225
24250W        W90791  42.902  20.915   0.100
24251W        W90792  24.062  20.673   0.508
24252W        W90793  28.143   1.016   9.995
24253W        W90794   3.672  37.757   4.655
24254W        W90795  35.824  29.364   2.218
24255W        W90796  13.718  41.805  14.839
24256W        W90797  16.449   0.399  13.359
24257W        W90798   4.595  37.792   3.115
24258W        W90799  19.610  29.008  12.859
24259W        W90800  26.933  13.074  14.984
24260W        W90801  42.491  25.221   3.727
24261W        W90802  44.143  22.628  14.285
24262W        W90803   4.731  18.351   2.781
24263W        W90804  36.199  44.873  14.404
24264W        W90805  25.909  16.361  14.808
24265W        W90806  15.856  36.903   0.713
24266W        W90807  30.581  13.853  14.930
24267W        W90808   8.393  11.102   4.688
24268W        W90809   2.427  44.232  13.180
24269W        W90810  34.309  12.349  13.426
24270W        W90811   0.466  42.505   5.038
24271W        W90812  40.044  42.809  14.803
24272W        W90813  12.837  19.046   2.334
24273W        W90814  14.359  29.854   3.086
24274W        W90815  22.388  34.960  12.480
24275W        W90816  31.594   8.371   2.865
24276W        W90817   6.542  29.553  12.026
24277W        W90818  39.997  29.991  14.077
24278W        W90819  44.949  25.776   3.731
24279W        W90820   7.571  25.960  13.520
24280W        W90821  15.131   3.477  14.460
24281W        W90822  28.024  15.350  11.292
24282W        W90823   2.382  33.037  14.304
24283W        W90824  31.603  29.627  11.091
24284W        W90825  21.866  22.454   4.782
24285W        W90826  27.518  26.021  10.709
24286W        W90827  34.676  26.075  11.929
24287W        W90828  18.287   8.216  13.507
24288W        W90829  12.459  11.145   2.722
24289W        W90830   0.861  36.611   1.849
24290W        W90831   9.838  15.681  13.547
24291W        W90832  31.968  10.159  10.973
24292W        W90833  10.947  19.533   1.346
24293W        W90834  28.443   7.677   3.231
24294W        W90835  11.672   4.364  10.887
24295W        W90836  29.687  35.008  14.155
24296W        W90837  11.849  13.882  13.427
24297W        W90838  15.104  33.670   0.417
24298W        W90839  42.275   9.953   4.961
24299W        W90840   1.218  41.302  11.204
24300W        W90841  31.490  22.194  10.635
24301W        W90842  22.015  25.813   3.713
24302W        W90843   5.911  42.393   1.353
24303W        W90844  10.119  19.274  11.888
24304W        W90845  25.333  16.187   4.144
24305W        W90846  44.362  22.824   1.901
24306W        W90847  16.528   5.671  12.385
24307W        W90848   8.703   6.231   2.211
24308W        W90849   4.062  25.671  13.073
24309W        W90850   7.263  31.077   3.162
24310W        W90851  13.857  19.273  12.118
24311W        W90852  14.905  11.675  12.530
24312W        W90853  20.256   8.384  12.996
24313W        W90854   1.847   1.936  14.459
24314W        W90855   4.236  43.721  13.745
24315W        W90856   1.070  40.843   3.774
24316W        W90857  18.805  39.213   3.367
24317W        W90858  29.962  24.274   3.622
24318W        W90859  27.535   9.787   4.124
24319W        W90860  42.810   1.761   2.299
24320W        W90861  22.826  34.409   0.196
24321W        W90862   7.267  40.371  12.512
24322W        W90863   1.138   4.232  11.103
24323W        W90864  14.661  25.938  14.770
24324W        W90865  14.311  27.090  14.536
24325W        W90866  15.624  10.403  11.183
24326W        W90867   3.775  41.958   1.184
24327W        W90868  25.469  14.798  14.895
24328W        W90869   5.861   1.186  13.481
24329W        W90870  44.529  44.157  12.741
24330W        W90871   5.525  37.744   2.655
24331W        W90872  31.225  21.052   0.738
24332W        W90873  17.254  39.542   3.265
24333W        W90874  33.939   5.903   4.099
24334W        W90875  11.604  17.183   2.253
24335W        W90876  24.345  31.389   0.891
24336W        W90877  29.184  11.317  10.771
24337W        W90878  14.927  30.369  14.974
24338W        W90879  13.253  22.320  14.597
24339W        W90880  16.200  31.695  12.459
24340W        W90881  29.162  37.568  12.758
24341W        W90882  20.298  21.642  12.110
24342W        W90883  10.406  21.640   0.796
24343W        W90884  11.576   7.291  10.682
24344W        W90885  37.819  20.018   0.747
24345W        W90886   1.140  39.417   1.844
24346W        W90887   9.474   2.799   3.766
24347W        W90888  38.900  44.714  13.849
24348W        W90889  44.587  11.946  12.453
24349W        W90890  36.461  23.242   0.480
24350W        W90891  22.464  44.036  12.237
24351W        W90892  42.353  21.633   2.905
24352W        W90893   6.417  13.860  11.646
24353W        W90894   4.046  32.577  10.165
24354W        W90895  40.349  23.962   0.450
24355W        W90896   8.078  22.718   1.713
24356W        W90897  24.941  20.185  10.813
24357W        W90898  34.879  20.185  10.387
24358W        W90899  38.816  27.399  12.903
24359W        W90900   9.070  33.328  13.548
24360W        W90901  20.249  17.645  10.945
24361W        W90902  39.218   6.313  11.218
24362W        W90903  24.447  39.421   1.349
24363W        W90904  14.110  17.247  12.399
24364W        W90905  24.037   2.458   0.070
24365W        W90906  23.579   3.021  11.670
24366W        W90907  26.536  20.795  13.116
24367W        W90908   6.335   8.348   4.629
24368W        W90909  34.362  33.584   2.234
24369W        W90910  42.077  24.312   3.641
24370W        W90911   5.236  34.467  14.403
24371W        W90912  43.320  37.170  11.120
24372W        W90913  15.776  10.007  12.434
24373W        W90914  28.903  25.749   3.312
24374W        W90915  20.165  25.668   1.682
24375W        W90916   0.091  37.244  11.953
24376W        W90917   7.326  22.349  12.983
24377W        W90918  41.032   3.452  14.799
24378W        W90919   1.227   2.797  11.463
24379W        W90920  19.289  44.677  13.115
24380W        W90921  26.274  36.822   3.361
24381W        W90922  11.825  25.516  12.030
24382W        W90923   4.780  10.184  12.265
24383W        W90924  21.903  17.356  11.614
24384W        W90925  37.880  22.288   2.683
24385W        W90926   8.860  30.858   4.033
24386W        W90927  22.702  34.858   4.511
24387W        W90928  14.122  43.401   4.524
24388W        W90929  22.690  30.725  11.156
24389W        W90930  35.344  37.330   0.841
24390W        W90931  10.066  28.613   3.220
24391W        W90932  14.999  40.148  11.579
24392W        W90933  40.733   7.157  13.367
24393W        W90934  20.094  25.152  10.763
24394W        W90935  23.628  37.082  14.789
24395W        W90936  15.441  41.518  11.978
24396W        W90937  24.657  15.572   2.513
24397W        W90938  33.359  29.624  11.682
24398W        W90939  15.823  29.174  12.053
24399W        W90940  32.952  22.280  11.439
24400W        W90941  31.177  21.251   2.440
24401W        W90942   1.318  26.739   3.821
24402W        W90943   5.360  13.734   0.772
24403W        W90944   5.322  16.054  13.494
24404W        W90945   0.442  19.288   4.625
24405W        W90946  43.802  44.524  14.760
24406W        W90947  20.296  29.903   0.291
24407W        W90948  40.607   5.604   4.148
24408W        W90949   1.501  14.132   4.392
24409W        W90950  11.791  33.148   4.002
24410W        W90951  13.875  34.385   1.322
24411W        W90952   2.703   3.935  11.207
24412W        W90953   6.143  10.176   0.158
24413W        W90954  11.201  41.288  12.472
24414W        W90955  25.448  11.790   4.512
24415W        W90956   3.860  16.010   1.223
24416W        W90957  27.774   9.884   1.699
24417W        W90958  10.350  42.412  13.709
24418W        W90959  17.653  29.514  11.809
24419W        W90960   4.603  32.488  13.483
24420W        W90961  28.176  29.995  11.063
24421W        W90962   2.704   8.331  13.402
24422W        W90963  23.173  14.862  12.577
24423W        W90964   5.327  27.823   2.811
24424W        W90965  37.312  16.191   3.303
24425W        W90966  24.035  29.626  14.098
24426W        W90967  38.206  12.747   1.825
24427W        W90968  43.921  16.219   1.361
24428W        W90969   6.371   4.363   3.664
24429W        W90970  30.259  29.166  13.938
24430W        W90971  18.621  30.553   0.421
24431W        W90972  41.485  25.889   1.960
24432W        W90973  27.526  39.721   1.193
24433W        W90974  13.846  37.816   4.528
24434W        W90975   6.728  20.561   1.809
24435W        W90976  42.572   9.883  13.385
24436W        W90977  34.636   3.464   4.544
24437W        W90978  10.886   2.677  12.615
24438W        W90979  20.877  31.414   3.361
24439W        W90980  38.417  15.051   4.580
24440W        W90981  24.552  10.656   1.736
24441W        W90982   6.178   5.900  13.033
24442W        W90983  42.884  18.293  10.556
24443W        W90984  20.567  34.105  11.105
24444W        W90985  34.485  22.023  10.758
24445W        W90986  35.866   4.458   0.713
24446W        W90987   9.253  26.433   0.208
24447W        W90988   3.245  39.796   1.275
24448W        W90989  42.329  27.129  14.042
24449W        W90990  13.156  14.140   0.251
24450W        W90991   5.796   0.047   1.766
24451W        W90992  26.034  27.579   1.843
24452W        W90993  16.625  28.967  12.916
24453W        W90994  15.676  35.103   0.419
24454W        W90995  19.860  16.461   2.699
24455W        W90996  26.502  19.796  14.382
24456W        W90997  20.160  32.656  10.824
24457W        W90998  30.694  16.738  12.510
24458W        W90999   1.777   8.732   0.129
24459W        W91000  39.581  23.517  13.338
24460W        W91001  26.597  14.868  12.436
24461W        W91002  35.840  12.768   2.628
24462W        W91003  24.799  20.093   4.705
24463W        W91004  40.970  10.599   4.631
24464W        W91005  34.705  11.275  10.600
24465W        W91006   8.376  31.540  14.007
24466W        W91007  13.677  23.707   1.879
24467W        W91008  35.425  10.780   1.795
24468W        W91009   1.365  24.934  14.850
24469W        W91010  12.439  15.217  14.011
24470W        W91011  43.453  40.805  12.147
24471W        W91012  44.926  27.065  12.780
24472W        W91013  30.135  14.158   0.933
24473W        W91014   6.439  18.513  12.808
24474W        W91015  22.292  40.039  12.033
24475W        W91016  27.544  43.923   0.685
24476W        W91017  34.426  36.531   2.242
24477W        W91018   0.279  20.439   0.736
24478W        W91019  22.687   7.746   1.174
24479W        W91020  36.700  41.577  10.233
24480W        W91021  39.408   7.428   2.630
24481W        W91022  11.840  39.983  11.173
24482W        W91023  26.109   3.079   4.964
24483W        W91024   5.755  39.339   3.184
24484W        W91025  24.066  30.420   2.268
24485W        W91026  38.516  31.953  13.820
24486W        W91027  18.776   5.987  14.977
24487W        W91028  31.223  23.292   3.798
24488W        W91029  19.586   7.866  11.919
24489W        W91030  36.531   1.207   0.667
24490W        W91031  18.341  35.564   2.311
24491W        W91032   7.857  32.591  14.498
24492W        W91033  17.342  37.856   1.771
24493W        W91034  28.243  24.193   5.127
24494W        W91035  12.645  28.589   2.928
24495W        W91036  19.051  36.942  12.611
24496W        W91037  21.302  16.515   1.849
24497W        W91038   1.715   3.639  10.588
24498W        W91039   4.017  28.108   3.218
24499W        W91040  33.059  11.441  11.838
24500W        W91041   9.008   6.465  11.074
24501W        W91042  11.200  43.023   4.991
24502W        W91043  32.490   2.654  14.811
24503W        W91044  37.135  27.803   1.709
24504W        W91045  14.056   7.383  11.985
24505W        W91046   3.148  31.306  13.142
24506W        W91047  21.573   5.825  14.067
24507W        W91048   9.423  27.922  11.070
24508W        W91049  43.339  33.531   4.594
24509W        W91050   1.781  16.502   3.309
24510W        W91051  28.478  10.681  13.519
24511W        W91052  35.427  44.490   1.701
24512W        W91053   8.545  10.298   0.639
24513W        W91054  31.060  29.179   2.216
24514W        W91055  24.113  38.786   0.919
24515W        W91056  38.031   6.868  14.785
24516W        W91057  19.658  24.118  13.575
24517W        W91058  19.731  18.741   4.710
24518W        W91059  43.250  36.327   2.262
24519W        W91060  33.616  13.290  11.185
24520W        W91061  23.682   6.737  11.659
24521W        W91062   8.137  28.611   4.673
24522W        W91063  11.282  16.142   3.291
24523W        W91064  25.123   3.880   2.805
24524W        W91065   1.589  42.354   3.411
24525W        W91066   9.797  30.602  12.852
24526W        W91067  21.965   6.766   3.598
24527W        W91068  13.322  30.590   3.088
24528W        W91069  44.710  25.371  14.488
24529W        W91070   8.016  23.512  13.432
24530W        W91071  24.314   3.258   1.388
24531W        W91072   7.938  20.928   2.407
24532W        W91073  43.873  18.796   0.279
24533W        W91074  21.292  11.805   1.936
24534W        W91075  27.533  41.828  11.921
24535W        W91076  11.604   9.775   4.647
24536W        W91077   6.975  22.930  12.833
24537W        W91078   3.930  36.530   0.707
24538W        W91079  42.227   1.356   4.695
24539W        W91080  38.572  23.131  12.453
24540W        W91081  32.961  23.000  14.802
24541W        W91082   7.215  18.679  12.160
24542W        W91083  44.860  14.698   4.932
24543W        W91084  15.185   3.803   2.751
24544W        W91085   5.683  21.039  11.239
24545W        W91086   4.722   6.912  11.247
24546W        W91087  23.786   9.304  11.441
24547W        W91088  25.662  18.646  13.521
24548W        W91089  12.630  18.068   3.155
24549W        W91090  29.085  33.090   3.725
24550W        W91091  24.074   3.843  14.888
24551W        W91092  42.364   9.442  14.485
24552W        W91093   3.789   2.400   2.362
24553W        W91094  17.184  14.200  12.851
24554W        W91095  21.368  28.090  14.326
24555W        W91096  13.899  33.132  13.528
24556W        W91097  21.218  44.697   0.263
24557W        W91098  35.016  28.067  13.268
24558W        W91099  26.474   9.849  14.172
24559W        W91100  41.847  37.354   4.331
24560W        W91101  25.078  35.569   4.909
24561W        W91102   0.926  11.906  10.966
24562W        W91103   3.968  16.217   0.310
24563W        W91104  26.522  28.506   2.700
24564W        W91105  27.663  27.566  13.878
24565W        W91106  31.763  25.276  14.208
24566W        W91107   2.243  12.620   4.599
24567W        W91108  35.556  37.162   2.267
24568W        W91109   2.468   1.012   2.303
24569W        W91110  41.327  10.861  13.663
24570W        W91111  19.649  10.434  11.177
24571W        W91112  38.075  37.576   0.954
24572W        W91113  39.069   1.376  12.093
24573W        W91114   3.916  35.566  10.667
24574W        W91115  25.271  12.120  13.034
24575W        W91116  37.637  20.695   4.612
24576W        W91117  23.174  15.582   4.638
24577W        W91118  11.335   7.294  14.556
24578W        W91119  15.037  14.085  14.828
24579W        W91120  21.068  34.128  11.847
24580W        W91121  31.998  39.892   3.174
24581W        W91122  27.706  41.839  13.961
24582W        W91123  37.278   0.918  12.028
24583W        W91124   7.700  12.565   1.341
24584W        W91125  36.504  29.639   4.125
24585W        W91126  36.501  22.690  10.675
24586W        W91127  37.267  25.164  11.711
24587W        W91128  35.916  16.615   4.433
24588W        W91129  27.281  35.007   1.926
24589W        W91130  17.680  26.407  12.405
24590W        W91131   9.474  24.552   3.928
24591W        W91132   8.611  25.972  12.809
24592W        W91133  12.727  18.335  13.754
24593W        W91134  41.213  21.558   1.847
24594W        W91135  18.552   0.218  12.626
24595W        W91136  13.851  23.683   3.297
24596W        W91137  31.261  36.405   2.326
24597W        W91138  33.619  42.888   4.477
24598W        W91139   8.512   3.547  11.127
24599W        W91140  20.209  23.783   2.239
24600W        W91141  37.753  20.717   3.143
24601W        W91142   1.102  26.050   0.369
24602W        W91143  26.491   0.549   4.784
24603W        W91144  25.167  15.528   3.726
24604W        W91145  29.949  24.752   1.823
24605W        W91146  19.121   8.751  12.873
24606W        W91147  30.946  13.413  12.141
24607W        W91148  38.496  16.616   3.073
24608W        W91149  12.530   8.651   2.634
24609W        W91150   9.254  37.523  14.101
24610W        W91151  30.542   7.973   2.962
24611W        W91152  27.916  40.966  11.165
24612W        W91153  22.738  40.357  10.469
24613W        W91154   3.260  38.220   2.533
24614W        W91155  43.918   3.893  11.287
24615W        W91156  40.048  15.730  12.999
24616W        W91157  19.038  13.648   0.867
24617W        W91158  35.128  18.969   0.843
24618W        W91159  32.515  16.323  11.572
24619W        W91160  25.446   3.347   2.172
24620W        W91161  14.023  39.754  11.506
24621W        W91162  32.171  26.092  11.592
24622W        W91163  17.954  18.513   1.343
24623W        W91164   3.567  37.280  13.720
24624W        W91165  25.930   2.946   0.395
24625W        W91166  21.015  21.879   4.037
24626W        W91167   4.689  23.744   4.484
24627W        W91168  44.269  15.548   0.286
24628W        W91169   1.997   4.333  12.112
24629W        W91170  29.164  18.171   2.671
24630W        W91171  23.008  26.639  11.512
24631W        W91172   2.284  21.263   3.114
24632W        W91173  39.363  30.089  10.638
24633W        W91174  15.037  28.843   4.433
24634W        W91175   0.969  22.643  14.262
24635W        W91176  36.443  20.062  13.021
24636W        W91177  10.862  25.555   2.368
24637W        W91178  26.430  13.576   3.668
24638W        W91179  32.303  10.351  13.044
24639W        W91180   1.295  24.645  14.293
24640W        W91181  37.974  12.739  13.953
24641W        W91182  38.832  30.723   1.218
24642W        W91183   9.853  22.976  14.314
24643W        W91184  32.110  25.998   2.022
24644W        W91185  14.444  39.845  14.270
24645W        W91186  21.337  35.155  12.201
24646W        W91187  39.543  11.660   2.698
24647W        W91188  43.931   0.456   2.752
24648W        W91189  14.595  28.494   2.695
24649W        W91190  34.509  12.857  14.956
24650W        W91191  37.522   2.944  13.370
24651W        W91192  40.393  44.600   4.745
24652W        W91193   8.221  14.333  11.464
24653W        W91194  39.010  22.165   4.730
24654W        W91195  23.192  23.755   2.192
24655W        W91196  16.507  20.047  14.287
24656W        W91197  19.655  21.467   5.179
24657W        W91198  40.523  17.831  12.769
24658W        W91199  27.215  22.275   1.777
24659W        W91200  20.548   0.962   0.396
24660W        W91201   9.766  23.793   0.513
24661W        W91202  27.166  28.430   1.733
24662W        W91203   7.470  43.039   0.872
24663W        W91204   0.046  23.952  14.575
24664W        W91205  40.232  38.919  14.465
24665W        W91206  26.106  28.753  10.043
24666W        W91207  34.375  10.666  11.898
24667W        W91208   0.917  17.157  10.827
24668W        W91209  29.844  44.875  11.330
24669W        W91210  41.260  36.421  14.263
24670W        W91211  34.292  23.981   0.380
24671W        W91212  11.903  30.250   1.456
24672W        W91213  31.161   4.247  12.425
24673W        W91214  44.329  24.668   2.152
24674W        W91215   8.767  40.898   2.912
24675W        W91216  42.037  17.696   2.274
24676W        W91217   2.393   4.735  12.138
24677W        W91218  22.629  27.369   2.721
24678W        W91219  23.189  11.869   1.947
24679W        W91220  32.700  30.754  12.514
24680W        W91221  16.317  20.982  11.157
24681W        W91222  11.793  37.488   1.857
24682W        W91223  33.470  19.595   0.649
24683W        W91224  25.077   5.105  14.478
24684W        W91225  36.994   7.654  12.539
24685W        W91226  30.472  14.401   3.203
24686W        W91227  36.298  34.311   4.795
24687W        W91228  26.048  35.054  13.013
24688W        W91229  27.865   7.483   3.663
24689W        W91230  40.606   4.673   4.146
24690W        W91231  41.903   0.658   2.221
24691W        W91232  38.544   7.871   4.553
24692W        W91233  30.407  18.254  13.031
24693W        W91234  37.348   6.439  14.311
24694W        W91235   8.177  28.193   4.953
24695W        W91236  19.296  14.322  13.756
24696W        W91237   1.800  43.402  12.886
24697W        W91238  33.730   4.833   3.287
24698W        W91239  38.932  16.709   3.337
24699W        W91240  31.069  18.491  10.726
24700W        W91241  19.973  30.442   2.984
24701W        W91242  18.061  18.101   2.271
24702W        W91243   3.671   0.727   5.154
24703W        W91244  23.182  23.172   3.724
24704W        W91245   0.341  11.781   3.661
24705W        W91246  14.416  12.722  10.768
24706W        W91247  26.205  43.751  14.868
24707W        W91248  22.681   0.203   2.194
24708W        W91249  38.267  12.936   4.067
24709W        W91250  17.046  39.080   3.557
24710W        W91251  40.398  31.248  13.823
24711W        W91252  13.981  38.987  14.284
24712W        W91253  43.771  41.490  12.639
24713W        W91254   4.838  14.837  11.678
24714W        W91255   8.413  33.212  13.855
24715W        W91256  20.654  35.323   0.438
24716W        W91257  16.638  13.125   4.416
24717W        W91258  12.726   0.789   3.549
24718W        W91259  36.600  34.832  13.465
24719W        W91260   8.549   1.996  10.843
24720W        W91261  19.808  29.981  12.254
24721W        W91262   1.733  42.257   2.429
24722W        W91263  31.968   5.411  14.729
24723W        W91264   0.863  35.503   4.583
24724W        W91265   7.253  33.263   4.605
24725W        W91266  18.913  24.808  14.437
24726W        W91267   9.619   9.919  10.886
24727W        W91268  41.964   1.876  10.817
24728W        W91269  10.924   4.553  12.984
24729W        W91270   7.713  39.979   3.138
24730W        W91271  42.660  14.093   5.395
24731W        W91272  17.273  39.934  11.152
24732W        W91273  22.336   0.278   1.781
24733W        W91274  36.606  22.641   4.994
24734W        W91275  17.194  11.176   2.441
24735W        W91276  42.065  26.949  14.453
24736W        W91277  40.709  21.660   1.801
24737W        W91278  14.175  16.583   2.730
24738W        W91279  18.697  16.281   1.546
24739W        W91280   1.863  17.307   2.686
24740W        W91281   4.216  20.789   4.392
24741W        W91282  13.777  19.596  12.541
24742W        W91283  19.372  15.180  10.224
24743W        W91284   6.001  18.158   1.724
24744W        W91285  20.031  27.115  12.524
24745W        W91286  24.049  21.158  11.791
24746W        W91287  31.373  26.085   3.393
24747W        W91288  23.621  21.211   1.181
24748W        W91289  31.841  31.457  10.506
24749W        W91290  23.851  19.556  13.204
24750W        W91291   7.035   2.761   3.331
24751W        W91292   8.889   1.467   2.841
24752W        W91293   5.789  20.225  11.675
24753W        W91294  37.690  33.176   4.874
24754W        W91295  13.864  33.419  12.297
24755W        W91296  16.665  12.183   4.420
24756W        W91297   9.281  28.905   3.838
24757W        W91298  43.979   5.703  14.850
24758W        W91299  26.122  43.104   2.188
24759W        W91300   2.671  15.857   3.811
24760W        W91301   7.934   7.761  11.638
24761W        W91302  39.947  16.814  12.135
24762W        W91303  38.319  37.422  11.154
24763W        W91304  40.349  30.561   3.540
24764W        W91305   7.416  40.910  12.580
24765W        W91306  22.725  33.805   1.534
24766W        W91307  12.232  15.340  12.010
24767W        W91308  23.873   3.850   0.366
24768W        W91309  39.601  14.030   2.272
24769W        W91310   3.396   0.413  10.271
24770W        W91311   7.432  34.068  12.709
24771W        W91312   1.870  27.702  13.460
24772W        W91313   6.803  42.664   2.354
24773W        W91314   9.744  36.128  11.579
24774W        W91315  37.978  30.482  13.153
24775W        W91316  16.060  39.930  11.570
24776W        W91317  26.587  23.229  12.108
24777W        W91318  39.998  40.829  10.785
24778W        W91319  39.639  35.045  11.074
24779W        W91320  41.445  17.400   1.354
24780W        W91321  43.613  35.032   4.565
24781W        W91322  19.002  14.706   0.569
24782W        W91323   3.902  26.810   1.580
24783W        W91324  28.118  14.871   0.239
24784W        W91325  36.480  40.812  14.524
24785W        W91326  13.628  10.393   3.767
24786W        W91327  19.847   7.446  13.850
24787W        W91328  10.332  27.105   3.929
24788W        W91329  30.432  42.053   1.219
24789W        W91330  41.258  24.245  13.380
24790W        W91331  27.280  25.633  13.420
24791W        W91332  41.902  43.655   3.092
24792W        W91333  34.579   5.756  10.694
24793W        W91334  43.359  30.083   1.792
24794W        W91335  18.488  41.721   0.029
24795W        W91336  35.956   9.304  13.934
24796W        W91337  37.694  44.901  12.053
24797W        W91338   1.890  25.691  12.485
24798W        W91339  20.572  18.522  10.440
24799W        W91340  44.282  22.475  11.570
24800W        W91341  15.291   5.486   0.790
24801W        W91342  36.455   0.231   2.213
24802W        W91343  14.709  39.286   4.655
24803W        W91344  11.213  10.544   3.154
24804W        W91345  11.672  34.072   0.862
24805W        W91346   2.385  22.461  13.838
24806W        W91347  41.416  40.056  12.732
24807W        W91348  10.648  36.690  12.446
24808W        W91349  10.806  34.746   1.016
24809W        W91350  40.545  21.295  13.969
24810W        W91351  10.320  17.110  10.748
24811W        W91352  19.895  43.444   1.857
24812W        W91353  16.598  25.706  11.596
24813W        W91354  21.573  24.104   4.138
24814W        W91355  32.335  41.929   4.083
24815W        W91356  11.378  15.274  10.431
24816W        W91357  39.673  32.358   0.205
24817W        W91358  20.595  39.024  11.510
24818W        W91359  17.168  29.482   4.553
24819W        W91360  39.085  39.056   4.942
24820W        W91361  15.021  23.847  11.000
24821W        W91362   4.025  17.386   9.950
24822W        W91363  23.454  19.157  11.712
24823W        W91364  35.155  17.616  11.876
24824W        W91365  33.133   9.577  10.821
24825W        W91366  36.927   0.440  13.605
24826W        W91367  35.998  10.015   5.299
24827W        W91368  14.385  21.762   2.186
24828W        W91369  13.146  25.620   0.338
24829W        W91370  39.420  42.329   0.840
24830W        W91371   3.497  28.466  10.713
24831W        W91372   4.609  24.216   1.226
24832W        W91373   4.411   7.666   0.291
24833W        W91374  31.667  19.292   0.828
24834W        W91375   1.560  41.036  12.511
24835W        W91376  42.804  34.603  11.670
24836W        W91377  38.091  32.570  10.696
24837W        W91378   8.260  40.343   4.214
24838W        W91379  34.839  21.080  10.612
24839W        W91380  12.539  37.052  13.057
24840W        W91381  43.669  19.536  10.722
24841W        W91382  18.329  39.749  12.850
24842W        W91383  13.382   2.304   0.333
24843W        W91384   6.173  31.519   1.667
24844W        W91385  22.692   9.445  14.040
24845W        W91386  38.259  38.491   2.959
24846W        W91387   5.795  12.287   2.889
24847W        W91388  29.761  25.254   3.233
24848W        W91389  25.946  31.879  13.813
24849W        W91390  16.159  42.820  11.151
24850W        W91391   8.207  27.993  14.971
24851W        W91392   3.928   1.995  12.140
24852W        W91393  40.471   3.848   3.713
24853W        W91394  29.255  15.418  13.520
24854W        W91395  17.657  18.281  11.336
24855W        W91396  13.161  29.623  13.375
24856W        W91397  24.462  22.138   1.041
24857W        W91398  10.866   3.472  13.125
24858W        W91399  16.525  11.042  11.389
24859W        W91400  40.776  26.603  14.754
24860W        W91401  11.185  13.797  14.786
24861W        W91402  29.461  30.556  11.188
24862W        W91403  15.728  24.642  13.114
24863W        W91404   9.753   8.614   2.665
24864W        W91405  35.594  35.864  12.792
24865W        W91406  43.559  31.917   0.767
24866W        W91407   8.237  35.243  12.299
24867W        W91408  12.459  30.357   2.688
24868W        W91409  21.080  39.982  14.937
24869W        W91410  25.259  13.833   1.795
24870W        W91411  19.045  25.445  12.858
24871W        W91412   7.810  27.020  13.825
24872W        W91413  18.160   4.895  10.063
24873W        W91414  10.897  20.968  12.936
24874W        W91415   9.656  38.067   4.006
24875W        W91416  43.763  26.589  11.416
24876W        W91417  38.618   5.995  12.876
24877W        W91418  18.563  22.220   0.459
24878W        W91419   3.928  40.517   0.775
24879W        W91420  32.876  28.258  14.786
24880W        W91421  20.197  37.772   2.835
24881W        W91422  22.026  12.686  12.622
24882W        W91423  27.470  42.667   2.265
24883W        W91424  11.391  19.069   0.780
24884W        W91425  28.959  17.238  14.477
24885W        W91426  22.282  30.201   1.891
24886W        W91427  14.884  12.836  14.201
24887W        W91428  19.209  37.961   4.348
24888W        W91429   0.518  23.669  12.151
24889W        W91430  10.569  19.158   1.383
24890W        W91431  44.869  26.322  11.614
24891W        W91432  41.320   0.779  12.605
24892W        W91433  10.143  30.986   4.693
24893W        W91434  24.431  38.570   3.799
24894W        W91435  30.214  42.574  14.905
24895W        W91436  17.119  10.690  12.685
24896W        W91437  28.912  25.412   4.095
24897W        W91438  15.703  21.458  12.564
24898W        W91439  16.233  39.123  13.100
24899W        W91440  14.121  24.229   2.197
24900W        W91441  16.703  20.160  11.428
24901W        W91442  18.002  31.553   0.498
24902W        W91443  44.000  20.645  11.581
24903W        W91444  20.811  37.290   3.882
24904W        W91445  36.386  20.403  11.101
24905W        W91446  33.021  34.131  12.966
24906W        W91447  31.881  27.248   3.040
24907W        W91448  28.892  23.856  13.139
24908W        W91449  35.721   4.401   2.179
24909W        W91450  40.422   7.486   3.078
24910W        W91451  32.428  40.152   4.112
24911W        W91452  23.052  30.593  14.502
24912W        W91453   4.872  26.505  12.116
24913W        W91454  16.605  42.669  13.807
24914W        W91455  10.088   7.471  12.144
24915W        W91456   4.340  27.422   1.945
24916W        W91457  30.942  31.938   4.205
24917W        W91458  44.961   9.233  14.125
24918W        W91459  19.121   1.377   3.792
24919W        W91460  26.520   9.051  10.337
24920W        W91461  12.804   9.086   4.939
24921W        W91462  16.667   0.988  14.244
24922W        W91463   3.332  37.006  10.648
24923W        W91464  12.380  22.738  11.238
24924W        W91465  38.732  43.846  14.947
24925W        W91466  28.923  25.643  14.953
24926W        W91467   9.161  40.454   2.306
24927W        W91468  26.327  14.302   1.249
24928W        W91469   0.723   7.720   3.254
24929W        W91470   0.269  39.557   2.686
24930W        W91471   1.789  21.922   1.836
24931W        W91472  29.082  15.713  10.515
24932W        W91473   0.199  40.925   4.038
24933W        W91474  43.283  40.354  10.505
24934W        W91475  37.053  22.209   3.887
24935W        W91476  44.050  21.638  14.850
24936W        W91477  37.822  34.066   3.902
24937W        W91478  42.295  33.308  14.675
24938W        W91479  32.815  11.606  13.602
24939W        W91480  37.451  26.590  12.618
24940W        W91481  12.188  32.527  14.068
24941W        W91482   8.213  41.835   4.548
24942W        W91483  13.563  32.086   2.233
24943W        W91484  23.194  29.669  12.428
24944W        W91485  41.973  33.013  14.982
24945W        W91486  29.972  39.478   3.632
24946W        W91487   2.662  20.001   1.388
24947W        W91488  42.059  35.487   1.036
24948W        W91489  14.296  28.093  13.495
24949W        W91490  41.399   4.270   5.028
24950W        W91491   2.944  33.833   5.636
24951W        W91492  31.552  42.322   0.656
24952W        W91493  30.963   4.110   2.907
24953W        W91494   3.191  29.378  14.332
24954W        W91495  32.714  14.135  12.986
24955W        W91496  13.217   6.768   4.273
24956W        W91497  24.896  10.594  14.857
24957W        W91498  35.475  21.735  10.462
24958W        W91499  34.987   2.303   0.767
24959W        W91500  43.339  12.440   0.242
24960W        W91501   9.579   7.243   4.015
24961W        W91502  37.689  13.172  13.449
24962W        W91503  44.802  40.863   0.766
24963W        W91504  42.402  33.582   1.145
24964W        W91505  14.179   4.031   4.666
24965W        W91506  38.037   9.626  12.684
24966W        W91507  30.637  26.105  12.816
24967W        W91508  33.454  34.973   1.844
24968W        W91509  30.675  19.951  11.085
24969W        W91510  22.141  26.119   2.350
24970W        W91511  19.966   4.724   2.184
24971W        W91512   8.883   1.283  13.069
24972W        W91513   3.008  41.528   1.006
24973W        W91514  38.295  13.674   0.737
24974W        W91515  19.191  17.925   5.142
24975W        W91516  41.477   3.311   3.624
24976W        W91517  31.067  32.807  11.561
24977W        W91518   4.088  26.690  13.482
24978W        W91519  19.809  13.793  11.739
24979W        W91520  17.151  27.852   1.807
24980W        W91521  37.161  20.499  11.635
24981W        W91522  38.160   8.161  12.535
24982W        W91523  42.453  34.560   4.762
24983W        W91524  17.690  27.705   3.785
24984W        W91525  11.475  12.824  12.530
24985W        W91526   6.157  41.940   1.346
24986W        W91527  34.428  13.278   1.661
24987W        W91528  36.035  25.540  12.668
24988W        W91529  42.410  14.385   2.426
24989W        W91530  10.865  31.574   1.885
24990W        W91531   9.630   6.485   0.925
24991W        W91532  31.943  34.990  12.425
24992W        W91533  35.129  25.662   0.604
24993W        W91534  15.684   3.833  13.132
24994W        W91535  16.706   6.259  11.222
24995W        W91536  11.748  26.225  14.353
24996W        W91537  19.706  20.024  13.957
24997W        W91538  21.813  39.028   0.825
24998W        W91539  20.749  17.740  14.451
24999W        W91540  31.519  28.478   4.434
25000W        W91541  23.559   1.188  14.959
25001W        W91542   6.257  25.989  12.456
25002W        W91543  36.580   3.359   1.669
25003W        W91544  17.383   9.229  12.096
25004W        W91545  25.427   5.709   3.585
25005W        W91546  35.565  16.981   4.323
25006W        W91547  12.598  42.461   0.930
25007W        W91548  32.558  42.184  14.828
25008W        W91549  12.903  12.694  13.387
25009W        W91550  33.126  44.258  13.431
25010W        W91551  43.742  37.076  14.825
25011W        W91552  26.212  41.926  13.831
25012W        W91553   1.329  10.414   2.480
25013W        W91554  29.555  22.606   0.248
25014W        W91555  28.761  40.304   0.249
25015W        W91556  25.497  16.069  14.846
25016W        W91557   0.979  22.660   3.688
25017W        W91558  29.516  39.848   4.383
25018W        W91559   3.259  30.318   0.315
25019W        W91560  15.339  40.922   1.529
25020W        W91561  38.992   5.642  14.399
25021W        W91562  39.496  33.870  10.798
25022W        W91563  38.452  30.551  11.006
25023W        W91564  30.052   9.025  11.709
25024W        W91565  34.181  43.947  11.561
25025W        W91566  16.730  26.604   4.891
25026W        W91567  29.897  11.728   2.232
25027W        W91568  21.199  19.456  10.368
25028W        W91569  24.703  19.819   2.604
25029W        W91570  25.414  16.233  13.944
25030W        W91571   6.760   8.211   3.350
25031W        W91572  20.053  28.039  13.362
25032W        W91573  40.144  36.508   0.432
25033W        W91574  35.903  23.011  10.699
25034W        W91575  28.990   9.661   0.783
25035W        W91576  24.198  24.991  14.739
25036W        W91577   9.430  31.897  12.502
25037W        W91578  26.350   4.684  13.352
25038W        W91579  30.951  16.725   2.179
25039W        W91580   6.479  32.128   2.556
25040W        W91581  17.370  17.317   4.611
25041W        W91582  38.065  22.986   4.187
25042W        W91583  14.208  17.051   3.657
25043W        W91584  14.621  22.019   4.624
25044W        W91585  13.789  12.174  13.504
25045W        W91586   7.918  23.464   4.067
25046W        W91587  21.916  38.963  10.277
25047W        W91588  10.059  38.360  11.636
25048W        W91589  36.474  30.948  14.226
25049W        W91590  37.459   4.384  14.784
25050W        W91591  39.873  38.551   2.161
25051W        W91592  18.794  32.165  12.131
25052W        W91593  41.376  19.171  10.916
25053W        W91594  21.612  13.291  12.102
25054W        W91595  10.252  38.408  13.377
25055W        W91596   3.319  44.027  12.649
25056W        W91597  14.689  34.982   0.154
25057W        W91598  35.818  12.551   0.195
25058W        W91599   7.924   0.231   1.122
25059W        W91600  39.467  38.870   2.341
25060W        W91601  21.122   1.606  13.458
25061W        W91602  38.035  29.865  13.983
25062W        W91603  12.843   8.372  12.003
25063W        W91604  25.800  15.486  11.551
25064W        W91605   6.325  40.031   3.960
25065W        W91606   8.291  34.236  14.815
25066W        W91607  33.018   8.716  14.801
25067W        W91608  32.556  21.232   2.261
25068W        W91609   2.348  14.385  14.273
25069W        W91610  38.486   9.609  12.418
25070W        W91611  32.146   0.813  10.564
25071W        W91612  23.959  15.186  11.922
25072W        W91613  26.038  44.998   3.141
25073W        W91614  28.625   2.374  11.260
25074W        W91615  36.671   9.677  12.445
25075W        W91616   9.915  43.506  14.394
25076W        W91617  33.072   5.697  14.496
25077W        W91618   0.413  23.076   4.371
25078W        W91619  24.087  11.746  10.862
25079W        W91620  21.600  36.444  13.037
25080W        W91621  44.113   1.373  14.565
25081W        W91622  20.458  19.415   1.396
25082W        W91623  32.612  34.897  13.926
25083W        W91624  18.765   2.262  13.380
25084W        W91625   3.871  43.975   3.782
25085W        W91626  15.111  44.339  12.131
25086W        W91627  17.997   5.258  13.603
25087W        W91628  16.923   7.624  11.235
25088W        W91629  26.654   5.302  12.871
25089W        W91630   5.293  24.549   1.243
25090W        W91631  37.917   3.508   1.732
25091W        W91632  43.988  26.131  14.370
25092W        W91633  23.750   9.829   3.120
25093W        W91634   6.758   0.619   3.223
25094W        W91635  24.761  42.400   0.344
25095W        W91636   9.152  33.226   1.937
25096W        W91637  42.071  41.040  14.212
25097W        W91638  29.115   7.028   4.281
25098W        W91639   8.703  31.623   0.391
25099W        W91640   4.020  16.723   1.383
25100W        W91641   7.353  23.606   2.833
25101W        W91642  24.945  27.688  12.550
25102W        W91643  21.063  27.111   1.739
25103W        W91644  17.572   7.729  13.039
25104W        W91645   5.499  43.277  13.040
25105W        W91646  24.240  17.637   2.625
25106W        W91647  19.856  41.551  14.089
25107W        W91648  26.238   5.049  14.477
25108W        W91649  11.207  29.520   3.610
25109W        W91650  27.103  38.094   0.506
25110W        W91651   9.206  28.516   1.937
25111W        W91652  39.384   3.262  13.927
25112W        W91653   4.652   0.309  11.193
25113W        W91654  24.022  32.651  10.590
25114W        W91655  44.497  38.939  12.142
25115W        W91656  20.502  10.721   3.842
25116W        W91657  31.671   1.491   2.109
25117W        W91658  14.608   5.988   1.819
25118W        W91659  11.322  43.452   3.574
25119W        W91660   9.711   7.379  10.672
25120W        W91661  27.700  20.569   0.487
25121W        W91662  36.458  24.409   1.767
25122W        W91663  33.408  40.804  14.736
25123W        W91664  15.320   7.809  13.904
25124W        W91665   5.296  27.687   9.905
25125W        W91666  31.082  34.101  10.653
25126W        W91667  35.736  20.885   0.722
25127W        W91668  23.788   8.411  14.914
25128W        W91669  12.721  40.462  11.418
25129W        W91670  44.784  22.465  10.328
25130W        W91671  41.235  34.001   4.076
25131W        W91672  41.318   8.934   4.800
25132W        W91673  18.081  30.615   2.210
25133W        W91674  20.399   6.820   4.623
25134W        W91675  33.387  29.597  13.493
25135W        W91676  17.203  34.580   4.663
25136W        W91677  29.217  14.363  13.923
25137W        W91678  37.249   6.655   0.875
25138W        W91679  18.126   5.675  13.341
25139W        W91680  12.273   5.316  11.319
25140W        W91681  41.424   2.998   2.147
25141W        W91682   4.655   1.489  11.674
25142W        W91683  38.601  16.406  12.392
25143W        W91684  20.741  21.015   4.500
25144W        W91685  16.246  24.379  13.814
25145W        W91686  39.273  41.298   2.599
25146W        W91687   7.480  25.572  14.777
25147W        W91688  10.703  26.483  12.682
25148W        W91689  22.654  14.899  11.250
25149W        W91690  16.302  32.475   0.110
25150W        W91691  37.988  23.923   5.079
25151W        W91692  25.050  43.951  13.855
25152W        W91693  31.952  11.906   1.411
25153W        W91694  33.907  11.633   1.691
25154W        W91695  15.737  38.998   0.417
25155W        W91696  12.352  35.789  11.185
25156W        W91697  10.054  31.033  12.714
25157W        W91698  16.855  29.694  13.262
25158W        W91699  40.664  14.446   9.934
25159W        W91700  24.204  24.057  11.006
25160W        W91701  36.469  33.568  14.299
25161W        W91702  41.359   0.299   2.985
25162W        W91703  39.151  18.603  12.364
25163W        W91704   8.492  42.582   3.652
25164W        W91705  34.336  25.065   4.110
25165W        W91706  33.535  14.807   3.859
25166W        W91707  43.681  10.692  13.383
25167W        W91708   2.623  34.056   3.246
25168W        W91709   8.853  21.612   0.956
25169W        W91710   9.287   5.856  12.946
25170W        W91711   7.631  20.773  10.735
25171W        W91712  17.378   6.596   1.005
25172W        W91713   7.561   4.677   1.670
25173W        W91714  29.131  25.803   1.736
25174W        W91715  38.082  17.298  11.139
25175W        W91716  13.873  39.765   4.095
25176W        W91717  29.166  11.688   3.975
25177W        W91718   5.955  28.214  14.961
25178W        W91719  16.272  12.796   2.848
25179W        W91720  43.139  42.994  14.601
25180W        W91721   2.984  43.317  12.358
25181W        W91722  10.382  34.975   1.773
25182W        W91723  36.717  22.119  12.180
25183W        W91724  36.447  28.291   4.824
25184W        W91725   3.180   7.273  11.108
25185W        W91726  14.059   9.407   4.158
25186W        W91727  15.470  21.185   3.152
25187W        W91728  22.052  41.281  11.929
25188W        W91729  27.040   9.144  11.555
25189W        W91730  19.361  38.946   1.782
25190W        W91731  24.810  12.521   2.728
25191W        W91732   9.906  30.526   4.708
25192W        W91733   3.153   7.270  11.980
25193W        W91734   9.616   9.647   3.223
25194W        W91735  28.713  18.308  13.816
25195W        W91736  29.571  40.064  13.038
25196W        W91737  36.554  15.248   4.537
25197W        W91738  12.951  10.658  11.190
25198W        W91739   2.224  22.779   3.215
25199W        W91740  41.000   5.977   2.499
25200W        W91741  39.372  44.513  13.951
25201W        W91742  40.114  10.207   3.311
25202W        W91743  21.282  44.838   4.843
25203W        W91744  34.667  24.964  13.311
25204W        W91745   0.683   2.373  10.627
25205W        W91746  22.311  11.165   2.591
25206W        W91747  30.621  16.072   1.390
25207W        W91748  25.768  26.169  12.021
25208W        W91749  43.962  24.885   0.006
25209W        W91750   6.862  25.660  11.351
25210W        W91751  40.533  27.147  10.778
25211W        W91752  28.679   3.782  12.569
25212W        W91753  21.593   2.945  13.524
25213W        W91754  19.299  43.661   0.381
25214W        W91755  30.581   1.008  11.388
25215W        W91756   9.181  32.484  11.654
25216W        W91757  37.071  34.310   1.712
25217W        W91758  34.810   2.747  10.830
25218W        W91759  38.116  26.514   0.794
25219W        W91760  22.114  33.306  11.896
25220W        W91761  38.822  39.525  12.377
25221W        W91762  21.975  22.515   1.355
25222W        W91763  19.952  12.323   1.408
25223W        W91764  27.072   3.983   3.856
25224W        W91765  21.503  33.844   0.722
25225W        W91766  32.658  44.150   2.796
25226W        W91767  14.838   6.073  12.993
25227W        W91768  39.245  12.502   2.298
25228W        W91769  18.540  41.435  12.774
25229W        W91770  16.283  15.035   2.159
25230W        W91771  38.925  44.245  14.095
25231W        W91772   6.586   3.884   3.741
25232W        W91773  30.241   3.229  10.649
25233W        W91774  40.335  32.535   3.939
25234W        W91775  17.248  22.692   2.703
25235W        W91776  27.695  37.353  13.800
25236W        W91777  33.959  31.960  12.282
25237W        W91778  11.587  43.553   1.619
25238W        W91779  14.423  18.173   2.722
25239W        W91780  36.092  43.217   2.728
25240W        W91781  17.028   6.905  11.751
25241W        W91782  22.027  11.800  14.413
25242W        W91783   8.229  37.967   0.852
25243W        W91784   0.806  30.573   2.636
25244W        W91785  24.184  36.052   3.157
25245W        W91786  13.606  12.509  13.899
25246W        W91787  27.673  39.959  11.160
25247W        W91788  10.239  17.350  12.734
25248W        W91789  40.231  32.905   4.465
25249W        W91790  31.755  39.074  13.953
25250W        W91791  39.980   8.590  11.084
25251W        W91792  14.143   6.196  11.495
25252W        W91793  20.147  27.704   4.511
25253W        W91794  38.940  10.137   4.430
25254W        W91795  16.789   7.442  10.595
25255W        W91796  40.420  15.107  14.696
25256W        W91797  21.224  14.056  14.900
25257W        W91798  38.527  10.003  13.405
25258W        W91799  22.033  24.180  14.990
25259W        W91800   6.260   2.021   5.205
25260W        W91801  40.793  41.482  11.066
25261W        W91802  38.524   7.261   2.308
25262W        W91803  29.945  41.045   3.316
25263W        W91804  16.146  36.041   4.270
25264W        W91805  42.453  22.089   3.598
25265W        W91806  10.607   6.436   2.453
25266W        W91807  27.519  32.670  12.494
25267W        W91808  26.949  17.799   0.373
25268W        W91809  39.079  18.059   2.686
25269W        W91810   0.246  20.448   0.114
25270W        W91811   5.067  31.827   1.669
25271W        W91812  24.530  37.743  10.783
25272W        W91813   4.517   3.840   3.126
25273W        W91814   1.382  34.622  12.776
25274W        W91815  25.185  26.615   2.797
25275W        W91816   8.892  39.039  11.541
25276W        W91817  31.045  22.996  11.610
25277W        W91818   3.824  27.235  14.335
25278W        W91819  32.741   4.974   4.089
25279W        W91820  31.928  26.988  13.055
25280W        W91821  32.636  37.337  14.959
25281W        W91822  12.520  13.850  14.108
25282W        W91823  13.133  26.633  11.314
25283W        W91824  39.088  12.752   0.312
25284W        W91825  11.934  35.324  12.950
25285W        W91826  33.763  29.882   3.732
25286W        W91827  29.568  25.457  14.313
25287W        W91828  24.460   7.713  14.463
25288W        W91829  10.264  17.792   3.184
25289W        W91830  21.651  28.407   3.649
25290W        W91831  13.318  31.598  13.883
25291W        W91832  21.632   4.091  10.235
25292W        W91833   8.382   5.518  12.477
25293W        W91834  33.687  15.925  10.921
25294W        W91835  20.614  36.610   4.910
25295W        W91836  11.166  17.453   0.704
25296W        W91837  21.059  19.625  14.975
25297W        W91838  13.061  21.510  13.451
25298W        W91839  14.388  28.001   4.025
25299W        W91840  16.779  40.248   0.873
25300W        W91841  30.693  36.424   0.242
25301W        W91842   7.886  17.539  14.994
25302W        W91843  26.586  43.084  12.052
25303W        W91844  41.167  28.199  12.441
25304W        W91845  35.570   5.241  11.637
25305W        W91846  25.568  32.107   2.985
25306W        W91847  16.739  26.132   3.314
25307W        W91848  31.021  34.319   1.080
25308W        W91849   2.347  36.028   3.219
25309W        W91850  37.462   7.823   3.378
25310W        W91851   4.016  12.853   2.460
25311W        W91852  44.200  32.769   4.976
25312W        W91853  22.954  22.074   2.985
25313W        W91854  19.391  20.081  11.191
25314W        W91855  30.136  38.624  10.721
25315W        W91856   7.703  18.037   0.952
25316W        W91857  16.677  37.185   2.713
25317W        W91858  25.896  11.962   2.992
25318W        W91859  35.851  18.742  11.525
25319W        W91860  28.579  26.025  14.960
25320W        W91861  26.338   4.374   3.358
25321W        W91862  29.235  30.698  10.754
25322W        W91863  39.038   0.177   4.214
25323W        W91864   2.560  27.829   1.761
25324W        W91865  19.202   0.875  13.852
25325W        W91866  38.126  31.799  10.207
25326W        W91867  16.206  11.375   0.062
25327W        W91868   3.542  21.405   2.186
25328W        W91869  29.759  41.773  14.933
25329W        W91870  31.579   4.389  10.591
25330W        W91871  11.110  19.245   1.850
25331W        W91872  35.542   6.628  11.593
25332W        W91873   2.995  13.874   1.342
25333W        W91874   2.477  15.767   1.277
25334W        W91875  43.186  16.001  12.883
25335W        W91876  24.126  39.554  11.304
25336W        W91877  14.872  27.932  14.197
25337W        W91878  13.073  30.008   0.920
25338W        W91879  18.046  32.999   4.937
25339W        W91880  13.666  42.023   2.638
25340W        W91881  26.181  25.481  13.120
25341W        W91882  35.585  10.596   2.274
25342W        W91883  13.754  33.702   0.400
25343W        W91884   2.236  44.436   1.226
25344W        W91885  32.324  36.795   4.221
25345W        W91886  34.640  13.360  10.690
25346W        W91887  36.143  36.730  12.960
25347W        W91888   2.401  24.748  12.963
25348W        W91889  25.013  32.519  14.847
25349W        W91890  38.066  34.799   2.776
25350W        W91891   4.915   4.324  14.327
25351W        W91892  12.184  10.174   2.660
25352W        W91893  33.307  37.496  12.490
25353W        W91894  41.346  41.049   2.330
25354W        W91895  26.145  29.457  13.357
25355W        W91896  16.057  25.110  12.619
25356W        W91897  19.421  34.781   1.588
25357W        W91898  24.748   0.796  10.630
25358W        W91899  34.998  26.687   4.208
25359W        W91900  38.482  19.815   1.502
25360W        W91901  33.457  32.487   0.899
25361W        W91902   4.297  32.193   2.255
25362W        W91903  18.570  12.317  10.048
25363W        W91904  41.089  17.646  10.553
25364W        W91905  34.373  28.374  12.322
25365W        W91906   1.262  43.575  13.974
25366W        W91907   5.241   3.376  11.351
25367W        W91908  28.989  34.244   4.561
25368W        W91909  24.689  32.264  12.363
25369W        W91910  42.582   5.898   4.107
25370W        W91911  10.418   8.415  12.144
25371W        W91912  37.474   7.569   1.177
25372W        W91913   3.620  32.312  11.516
25373W        W91914  13.755  22.571   2.354
25374W        W91915   5.797  33.345   2.865
25375W        W91916  38.058   4.658   4.183
25376W        W91917  13.839  41.583  11.062
25377W        W91918  38.375  43.251   0.674
25378W        W91919  31.531  31.995   4.481
25379W        W91920  41.872  41.535   4.719
25380W        W91921  36.468  31.039   3.569
25381W        W91922   7.873  16.100   2.407
25382W        W91923  23.692  43.287   0.370
25383W        W91924  32.667  34.939   3.394
25384W        W91925  21.742  40.591   4.552
25385W        W91926  20.177  36.830  12.024
25386W        W91927  30.230  16.526  12.511
25387W        W91928   9.097  40.029   3.586
25388W        W91929  24.756  19.235   4.479
25389W        W91930  28.844  37.157   1.686
25390W        W91931   3.690  31.955  12.148
25391W        W91932  29.531   0.194   0.143
25392W        W91933  20.910   0.572  11.890
25393W        W91934  41.279  42.200  13.968
25394W        W91935  30.681  26.207  14.030
25395W        W91936   2.285  31.698   3.566
25396W        W91937  19.671  29.873  13.991
25397W        W91938  40.332  13.740  10.847
25398W        W91939  19.210  13.932   5.147
25399W        W91940  35.415  38.704   1.224
25400W        W91941  31.825   6.604  14.955
25401W        W91942  13.339   7.228  10.964
25402W        W91943   3.841  16.706   4.561
25403W        W91944  38.323  17.025   3.738
25404W        W91945   7.295   5.413  13.086
25405W        W91946   9.897  35.377   2.909
25406W        W91947   9.880  35.102   1.677
25407W        W91948   8.016  42.752   2.306
25408W        W91949  23.634   2.612  14.792
25409W        W91950  22.565  30.558   3.756
25410W        W91951  44.628  41.786   3.950
25411W        W91952  14.387   4.059  12.453
25412W        W91953   1.400  25.975  14.933
25413W        W91954  44.367  29.928   4.192
25414W        W91955  41.830  13.176   2.434
25415W        W91956  41.848  11.497  10.708
25416W        W91957   9.241   6.435  13.593
25417W        W91958  28.684  21.432  11.487
25418W        W91959   9.598   8.182   2.985
25419W        W91960  41.801  13.780  14.685
25420W        W91961  16.213  37.556   0.824
25421W        W91962  41.326  19.947  14.583
25422W        W91963  33.430  27.998  13.984
25423W        W91964  33.463  17.881  14.273
25424W        W91965  21.558   2.282   0.605
25425W        W91966  21.345   7.173  10.474
25426W        W91967   2.299  10.099  14.801
25427W        W91968  28.951   5.779   4.346
25428W        W91969  16.744  42.016  11.975
25429W        W91970  30.484  37.061  12.859
25430W        W91971   8.694  14.025   0.893
25431W        W91972  13.058  17.389   2.747
25432W        W91973  15.613  22.601   3.579
25433W        W91974  22.738  36.407  10.989
25434W        W91975   0.915  29.456   0.969
25435W        W91976   2.887  36.320  13.671
25436W        W91977  40.294  35.978   4.167
25437W        W91978  34.461  22.730  11.505
25438W        W91979  31.544  39.310   4.616
25439W        W91980   3.209  20.594   1.771
25440W        W91981   0.458  19.737   3.466
25441W        W91982  41.873  20.060  12.076
25442W        W91983  11.535  12.562   1.358
25443W        W91984  38.284  19.690  14.499
25444W        W91985  36.506  28.158  10.533
25445W        W91986  21.659  44.045  13.658
25446W        W91987  35.271  41.481  13.564
25447W        W91988  14.322   3.924   1.663
25448W        W91989  24.593  18.914  14.284
25449W        W91990  44.315  25.025  11.583
25450W        W91991  40.284  13.677   0.836
25451W        W91992  21.538  17.398  11.133
25452W        W91993  39.240  31.985   1.849
25453W        W91994   2.246  20.624  14.936
25454W        W91995  40.413  39.572  14.999
25455W        W91996  36.551  32.302   3.837
25456W        W91997  17.208  30.214  14.324
25457W        W91998  34.257  21.805  12.523
25458W        W91999  43.412  24.331  11.983
25459W        W92000   3.097  10.882   4.649
25460W        W92001  36.750  40.555   1.153
25461W        W92002  39.318  43.949  14.370
25462W        W92003   2.800  10.569  14.983
25463W        W92004   4.920  33.002   2.392
25464W        W92005  14.170  38.381   4.420
25465W        W92006  19.054   9.161   2.166
25466W        W92007  28.525  44.260   1.172
25467W        W92008  38.885  36.680  10.092
25468W        W92009  37.916   8.387  10.745
25469W        W92010  31.997   9.741  13.739
25470W        W92011  40.184  21.786  11.229
25471W        W92012  39.042  17.071   4.764
25472W        W92013  41.439  27.228   4.259
25473W        W92014  18.334   7.892   0.310
25474W        W92015  24.677   4.330   0.343
25475W        W92016  22.188   1.636  11.093
25476W        W92017   6.839  41.359   2.467
25477W        W92018  38.705  25.290   0.912
25478W        W92019  14.352  33.989  13.402
25479W        W92020  41.593  26.277  13.342
25480W        W92021  28.501  34.174   0.459
25481W        W92022   8.636  35.829  14.230
25482W        W92023  30.320  19.318  13.044
25483W        W92024  11.178  15.340  12.940
25484W        W92025  30.650  11.115   3.331
25485W        W92026   9.147  21.516  14.094
25486W        W92027  37.105   0.821  12.949
25487W        W92028  17.692  11.175  14.328
25488W        W92029  21.364  27.138   4.573
25489W        W92030  30.966  33.080  13.965
25490W        W92031  11.641   5.374  13.472
25491W        W92032  26.416  26.905  14.852
25492W        W92033  16.597   6.748   0.726
25493W        W92034   9.703   6.699   1.390
25494W        W92035   8.877   5.830  14.469
25495W        W92036  41.742  35.182  12.041
25496W        W92037  41.394   4.506   1.410
25497W        W92038   6.106  14.664   3.464
25498W        W92039  18.631   4.666  11.952
25499W        W92040  21.477  17.365  12.921
25500W        W92041   0.411  39.783  12.500
25501W        W92042  25.149   7.130  10.375
25502W        W92043  44.863  14.144   2.799
25503W        W92044  39.843   3.172  10.707
25504W        W92045  12.266  14.897  10.718
25505W        W92046   0.045   1.870  13.237
25506W        W92047   5.549  27.640   2.175
25507W        W92048  15.744  16.798   0.959
25508W        W92049  34.186  26.234  12.691
25509W        W92050   5.684  33.567  13.418
25510W        W92051  44.356  10.442  14.067
25511W        W92052  31.596   7.301  11.726
25512W        W92053   5.166  17.474   1.407
25513W        W92054  30.150   4.952  11.210
25514W        W92055  26.527  13.873   0.973
25515W        W92056   2.734   9.333   1.342
25516W        W92057  38.550  39.502  12.839
25517W        W92058  41.581  25.137  14.098
25518W        W92059   9.870  41.119  13.536
25519W        W92060  10.993  36.393  12.694
25520W        W92061  41.050  38.090  13.424
25521W        W92062  26.890  44.801   2.845
25522W        W92063  16.742  32.691  10.921
25523W        W92064  28.498  34.658  10.716
25524W        W92065   2.958  36.960   4.637
25525W        W92066  20.767   9.789  11.639
25526W        W92067  28.943   0.513  11.900
25527W        W92068  39.345  27.262   1.904
25528W        W92069  19.786  28.624  12.402
25529W        W92070  25.515  34.923   3.801
25530W        W92071  19.512   3.227   2.574
25531W        W92072  42.172  25.562   1.351
25532W        W92073   9.441   3.181  10.504
25533W        W92074  24.480  26.747  14.821
25534W        W92075  36.961   2.790   2.803
25535W        W92076   7.301  24.003  13.936
25536W        W92077  23.098  27.603   1.635
25537W        W92078  13.391  21.088   4.685
25538W        W92079  33.061  10.917  11.959
25539W        W92080  18.457   8.503  11.676
25540W        W92081  11.331   2.296   4.634
25541W        W92082   0.236   7.345  13.064
25542W        W92083   1.898  44.546  11.380
25543W        W92084  39.510   4.287   3.704
25544W        W92085  22.448  10.220  14.540
25545W        W92086  29.106   0.475   3.652
25546W        W92087  32.070  42.931  14.873
25547W        W92088  25.439   4.702  13.349
25548W        W92089  28.104  24.902  12.937
25549W        W92090  41.575  11.867   2.823
25550W        W92091   5.436   6.997  13.901
25551W        W92092  31.151  42.958  13.563
25552W        W92093  19.135  30.241  11.665
25553W        W92094  10.250   6.745  13.962
25554W        W92095  11.760  21.040  11.149
25555W        W92096  23.103  21.501  14.825
25556W        W92097   8.117  26.746   4.334
25557W        W92098  36.075  35.355   1.491
25558W        W92099  25.949   7.186   2.352
25559W        W92100  12.061  20.591  13.888
25560W        W92101  20.243  35.447   4.352
25561W        W92102  29.446  38.482   0.377
25562W        W92103   2.356  26.792   4.685
25563W        W92104  23.185  18.412  12.014
25564W        W92105  42.969  25.596   0.818
25565W        W92106   7.130  17.964   1.027
25566W        W92107  13.747  32.010   0.746
25567W        W92108  31.335  31.489  10.350
25568W        W92109  35.119  15.387  14.304
25569W        W92110  19.254  42.075  14.952
25570W        W92111  31.517  44.751  12.872
25571W        W92112  29.048  44.316   4.648
25572W        W92113   8.381  22.126   0.788
25573W        W92114  17.719  13.314  13.466
25574W        W92115  27.766  43.380   1.892
25575W        W92116  40.084  29.464  13.931
25576W        W92117  10.104  12.510   3.719
25577W        W92118   1.224  39.665  12.075
25578W        W92119   3.207  36.105   2.264
25579W        W92120  12.283  27.116   1.438
25580W        W92121  40.102  21.078  11.739
25581W        W92122  39.537  22.598  14.518
25582W        W92123  13.229  35.424  14.573
25583W        W92124  30.286   7.902   4.602
25584W        W92125  27.174  25.605   1.800
25585W        W92126  24.209  28.607   2.731
25586W        W92127  26.777  27.576   2.400
25587W        W92128  31.503   6.730  12.882
25588W        W92129  32.817  11.671  12.271
25589W        W92130  20.812  34.303   0.490
25590W        W92131  14.257  35.568   1.745
25591W        W92132   8.966   4.453   4.377
25592W        W92133  40.521   7.811  11.078
25593W        W92134  22.318  39.492  11.151
25594W        W92135  19.267  44.517   3.134
25595W        W92136  25.034  20.053   2.933
25596W        W92137   1.662  15.559   0.260
25597W        W92138  16.986  15.203   4.278
25598W        W92139   7.844  22.804  12.113
25599W        W92140   9.410  38.081  12.908
25600W        W92141  38.036  12.291   0.934
25601W        W92142  23.061  27.625  13.827
25602W        W92143  24.464   8.713   4.613
25603W        W92144   3.684  34.167   0.664
25604W        W92145   6.206  38.428   2.721
25605W        W92146  32.431  20.203  12.885
25606W        W92147  22.991  29.396   3.291
25607W        W92148  14.326   0.277  11.222
25608W        W92149  12.210  26.445  14.222
25609W        W92150  34.033   3.412  11.204
25610W        W92151  33.547  25.746   4.072
25611W        W92152   6.397   7.241  12.600
25612W        W92153  13.826   7.736   4.992
25613W        W92154   0.989  14.896   2.336
25614W        W92155  33.858  12.094   1.480
25615W        W92156   5.716   5.503   4.618
25616W        W92157  32.898   0.183  11.121
25617W        W92158  35.846  29.356  14.897
25618W        W92159  37.791  22.756  12.420
25619W        W92160  39.654  14.528   0.782
25620W        W92161  30.982  17.813  12.605
25621W        W92162  30.692  30.481   2.843
25622W        W92163  38.173  30.070   0.911
25623W        W92164  37.576   6.937   2.404
25624W        W92165  31.579  11.599   3.537
25625W        W92166  14.637  34.573  13.903
25626W        W92167  12.783  25.981   0.699
25627W        W92168  41.845  29.198  12.110
25628W        W92169  35.083  19.640   4.132
25629W        W92170  21.369  21.112   1.098
25630W        W92171  23.482  43.107   4.854
25631W        W92172  22.792   9.275   2.785
25632W        W92173   9.010  33.830   0.879
25633W        W92174  38.532  16.129  11.098
25634W        W92175  16.120  29.841   0.472
25635W        W92176   7.606   3.969   3.721
25636W        W92177   6.396  38.899   2.600
25637W        W92178   5.225  37.492   0.674
25638W        W92179  37.620  24.246  11.617
25639W        W92180  40.844  32.342   5.107
25640W        W92181  27.581   4.742   0.717
25641W        W92182  30.168  40.172   4.173
25642W        W92183  39.919   3.702  14.515
25643W        W92184   4.831  23.079  14.399
25644W        W92185  33.244  23.767  12.842
25645W        W92186  17.808  30.495   9.831
25646W        W92187  35.865  37.523  10.743
25647W        W92188  16.028  18.487   2.020
25648W        W92189  17.824  36.651  10.952
25649W        W92190  11.618  35.960  11.700
25650W        W92191  37.311  44.433  10.407
25651W        W92192  34.551  22.144   2.192
25652W        W92193  27.636  32.119  12.511
25653W        W92194  19.183  17.369  11.961
25654W        W92195  39.588  30.949   4.666
25655W        W92196  10.880  44.465  13.595
25656W        W92197  37.069   2.365   2.343
25657W        W92198  22.677  32.807   4.163
25658W        W92199  37.042  33.196   1.964
25659W        W92200  11.798  27.053   0.508
25660W        W92201  13.258  25.763  13.390
25661W        W92202  11.130  14.325   4.257
25662W        W92203  34.768  43.845  12.944
25663W        W92204  39.422  28.354   3.740
25664W        W92205  33.797   9.905   4.909
25665W        W92206  32.191  29.905   0.015
25666W        W92207   3.471  39.453  14.815
25667W        W92208   8.661  17.768  11.532
25668W        W92209  42.986  41.978   4.071
25669W        W92210  24.978   5.278   5.092
25670W        W92211  23.688  40.013  12.658
25671W        W92212  14.771  31.174   3.588
25672W        W92213  22.725  17.147   1.408
25673W        W92214   5.707   1.232  12.179
25674W        W92215  42.413  15.431  10.662
25675W        W92216  13.845  22.960  14.955
25676W        W92217  16.688  29.613  11.558
25677W        W92218  16.642  20.263  14.742
25678W        W92219  23.107  38.721  13.888
25679W        W92220  42.214  28.746   3.719
25680W        W92221   2.985  10.245  14.112
25681W        W92222   9.797  41.869   4.415
25682W        W92223  25.554  32.806  14.087
25683W        W92224   2.310  12.183  13.178
25684W        W92225  37.991  11.202   4.664
25685W        W92226  11.566   8.924   4.556
25686W        W92227  22.657  26.003   2.624
25687W        W92228  33.399  44.158  11.965
25688W        W92229  17.625  19.542   4.248
25689W        W92230  43.448  12.166  13.056
25690W        W92231  30.069  21.062  13.321
25691W        W92232  41.785  40.790  11.455
25692W        W92233  26.739  21.472  11.598
25693W        W92234   3.804  42.545   1.848
25694W        W92235  29.444  39.568   1.255
25695W        W92236  10.035  21.992  13.400
25696W        W92237  25.595   1.000   0.344
25697W        W92238  35.148  42.715  12.588
25698W        W92239   1.497  16.969  12.908
25699W        W92240  40.835  30.182   0.924
25700W        W92241  28.580  37.565   2.264
25701W        W92242   3.321  31.109  13.575
25702W        W92243  10.239   8.615  11.590
25703W        W92244  20.239  31.657  13.852
25704W        W92245   1.961  39.870   1.874
25705W        W92246  10.421  23.457   3.298
25706W        W92247   1.291  26.549   4.298
25707W        W92248  12.356  17.740   3.463
25708W        W92249   2.322  16.731   4.106
25709W        W92250  22.529  10.560   4.163
25710W        W92251  11.726  32.822  11.210
25711W        W92252  10.754  34.319  14.607
25712W        W92253  11.211  41.543  14.315
25713W        W92254  16.935   8.107   0.900
25714W        W92255  31.669   1.418   0.399
25715W        W92256   9.452  31.840  14.506
25716W        W92257  28.419  29.443   2.754
25717W        W92258  17.462   3.671  13.912
25718W        W92259  12.331  26.403  12.351
25719W        W92260  37.377  39.859   2.238
25720W        W92261  37.846  27.629  13.265
25721W        W92262  42.330  23.767  11.643
25722W        W92263   0.406  39.277  12.592
25723W        W92264   2.594  40.938   1.653
25724W        W92265   3.310   8.703   3.974
25725W        W92266  43.876  21.468   1.881
25726W        W92267  16.132  16.641   0.646
25727W        W92268  25.614  22.807   0.495
25728W        W92269   4.929   7.838  11.251
25729W        W92270   4.678   8.164   4.534
25730W        W92271  44.347  26.742   3.820
25731W        W92272  30.447   4.145   2.790
25732W        W92273  37.531  22.910  14.979
25733W        W92274  11.401  12.142   2.296
25734W        W92275  16.317  23.661   1.725
25735W        W92276  31.948  11.305  12.390
25736W        W92277  36.017  15.177  13.829
25737W        W92278  43.707  23.230   3.371
25738W        W92279  21.214   1.267   2.428
25739W        W92280   7.150   8.417   3.626
25740W        W92281  13.057  19.297   5.123
25741W        W92282   0.452   2.214   5.063
25742W        W92283  24.574  14.604  10.628
25743W        W92284  31.130   9.709   3.388
25744W        W92285   5.834   2.488  13.081
25745W        W92286  43.689  31.679  12.898
25746W        W92287  34.909  44.294  13.136
25747W        W92288   6.327  39.518  14.934
25748W        W92289  37.666  26.494   0.522
25749W        W92290  42.076  43.906  11.012
25750W        W92291  29.451  37.723   0.886
25751W        W92292  22.720  26.143   0.833
25752W        W92293  27.995  44.877   2.678
25753W        W92294   1.936   5.890   4.843
25754W        W92295   9.946  22.016  12.576
25755W        W92296  42.127  28.856   3.187
25756W        W92297   7.713  26.158   2.335
25757W        W92298  42.890  26.582   1.530
25758W        W92299  43.603   6.743   4.829
25759W        W92300  40.499  37.872  12.547
25760W        W92301  24.186  33.505   4.590
25761W        W92302  43.239  20.217   4.185
25762W        W92303  19.999  33.660   2.296
25763W        W92304   9.547  27.762   2.534
25764W        W92305  27.204  29.524  12.300
25765W        W92306  31.278  25.277   0.565
25766W        W92307  35.507  42.162  12.920
25767W        W92308  39.046   5.946  14.804
25768W        W92309  24.577  15.868   2.096
25769W        W92310  20.126   6.972   2.055
25770W        W92311  15.226   1.877   1.233
25771W        W92312   9.773   3.359   0.506
25772W        W92313  27.176   7.751   4.300
25773W        W92314   8.706   0.208  11.229
25774W        W92315  27.920   1.843  14.015
25775W        W92316  11.106  34.676  14.407
25776W        W92317  40.985  24.659  13.592
25777W        W92318  38.482  11.840  12.567
25778W        W92319  31.510  30.511  11.887
25779W        W92320  38.353  13.073  13.811
25780W        W92321  28.356  40.709   3.164
25781W        W92322  39.355  40.411  14.176
25782W        W92323  25.039  12.154  10.857
25783W        W92324  23.110  29.576   4.572
25784W        W92325  12.795  39.227   4.067
25785W        W92326  25.619  11.669   0.635
25786W        W92327  13.635  41.233   4.154
25787W        W92328  20.245  23.334  13.291
25788W        W92329   7.310  12.678   3.057
25789W        W92330  13.480  17.017  11.087
25790W        W92331  15.625  13.690   1.239
25791W        W92332  25.526  12.282  10.680
25792W        W92333  29.591  18.666   2.588
25793W        W92334   6.458  33.064  12.947
25794W        W92335  40.973  32.698  12.403
25795W        W92336  44.949  14.834  13.949
25796W        W92337  25.085  37.728  13.008
25797W        W92338  12.404  30.373   1.281
25798W        W92339  33.139  18.012   0.344
25799W        W92340  44.250  31.573  10.365
25800W        W92341  21.005  16.316   3.247
25801W        W92342   2.911   9.890  13.054
25802W        W92343  41.484  37.421  14.766
25803W        W92344  36.156  40.492  11.431
25804W        W92345  25.048  38.899   1.366
25805W        W92346   3.731  28.149   0.419
25806W        W92347  14.519  23.484  10.362
25807W        W92348  18.465  38.000  10.652
25808W        W92349  12.632   7.494  14.581
25809W        W92350  29.284  36.293  12.473
25810W        W92351  31.364  43.579   2.127
25811W        W92352  40.844  39.036  12.206
25812W        W92353   7.230  21.644   3.729
25813W        W92354  39.673  30.662  12.838
25814W        W92355  10.464  17.760  13.545
25815W        W92356  22.797   7.216   0.348
25816W        W92357  35.924   8.674   1.189
25817W        W92358  33.518  23.782   3.282
25818W        W92359  10.182  44.352  12.918
25819W        W92360  36.967  22.097  12.620
25820W        W92361  41.226   7.669   3.609
25821W        W92362  30.319  32.474  13.745
25822W        W92363  15.963  35.495   2.273
25823W        W92364  35.973  15.061   0.781
25824W        W92365  35.768  22.522   4.840
25825W        W92366  33.696  29.112   2.579
25826W        W92367  27.395  18.222   1.726
25827W        W92368  30.068   8.186   2.828
25828W        W92369  43.475  12.631  10.742
25829W        W92370  27.221  27.486   3.930
25830W        W92371  29.368  32.924   1.456
25831W        W92372  32.168  40.223   2.199
25832W        W92373   2.889   7.722  11.151
25833W        W92374   5.152  38.052  13.859
25834W        W92375  27.838  21.097   5.006
25835W        W92376  24.139  41.597   3.064
25836W        W92377  27.251  40.414   0.379
25837W        W92378  16.772  24.604  10.982
25838W        W92379  17.064  35.511   3.674
25839W        W92380  32.724  12.325  14.736
25840W        W92381  18.608  15.805  14.756
25841W        W92382  44.193  40.484   4.754
25842W        W92383  32.212  37.613  14.037
25843W        W92384  28.502  26.748   2.243
25844W        W92385  33.216  10.258  14.020
25845W        W92386  15.074  16.572   4.604
25846W        W92387   2.207  36.438  13.076
25847W        W92388  15.618  26.108   2.774
25848W        W92389  39.829  10.911  14.786
25849W        W92390  16.100  23.879   4.079
25850W        W92391   1.042  22.927  10.228
25851W        W92392  19.642  18.193   2.657
25852W        W92393  26.391  25.922  11.485
25853W        W92394  31.861  23.675   0.390
25854W        W92395  27.641  25.126  11.188
25855W        W92396  35.503  14.731   2.971
25856W        W92397  17.144  29.692   4.076
25857W        W92398   7.738   8.504  13.333
25858W        W92399  43.327  23.255  12.016
25859W        W92400  33.063  41.919  12.357
25860W        W92401  39.741  31.221  12.099
25861W        W92402  11.540  33.597   1.079
25862W        W92403  35.630  12.605   4.032
25863W        W92404  42.052  42.783  14.588
25864W        W92405  36.356  40.908   3.907
25865W        W92406   5.527  34.223   2.768
25866W        W92407  18.230   4.225  11.089
25867W        W92408   4.586   7.605  11.960
25868W        W92409  22.052  39.851   4.540
25869W        W92410  21.156  18.893  14.371
25870W        W92411   4.007   5.964  11.733
25871W        W92412   5.800  22.915   1.708
25872W        W92413   2.568  18.108   3.361
25873W        W92414  19.731  38.417   4.914
25874W        W92415  42.201  20.619  13.755
25875W        W92416  17.752  22.202   4.589
25876W        W92417  42.919  36.694  11.941
25877W        W92418  13.763  27.873   3.183
25878W        W92419  34.494  43.427  10.517
25879W        W92420  28.611  17.243   1.625
25880W        W92421  20.351  33.083  11.097
25881W        W92422  36.776  36.869  13.902
25882W        W92423   4.115   9.444   0.924
25883W        W92424   8.338   9.702   0.404
25884W        W92425   3.234   3.286  12.974
25885W        W92426  15.714  12.376   2.726
25886W        W92427  16.408  11.646  10.209
25887W        W92428  19.143  43.993   4.590
25888W        W92429  33.959  20.213  10.885
25889W        W92430  22.809  38.226   0.284
25890W        W92431   4.650   2.993  11.950
25891W        W92432  14.232  21.721  13.319
25892W        W92433   0.729  15.235  12.823
25893W        W92434  20.016   8.856  12.506
25894W        W92435   2.808  44.249  11.502
25895W        W92436  25.566  21.913  10.319
25896W        W92437  43.543  41.628   4.644
25897W        W92438   9.301  10.798   1.409
25898W        W92439   9.352   7.875  11.681
25899W        W92440  43.913  19.841   2.824
25900W        W92441  40.100   2.894   3.222
25901W        W92442   2.161  14.773   2.836
25902W        W92443  29.187  44.699   3.440
25903W        W92444  15.760  11.820  12.616
25904W        W92445  38.410  23.883   1.716
25905W        W92446  43.823  13.091   0.252
25906W        W92447  39.421  27.785  12.494
25907W        W92448  18.192   3.186  12.574
25908W        W92449   1.964  32.916  12.006
25909W        W92450  26.702  30.579   1.858
25910W        W92451  35.266  38.413   4.226
25911W        W92452  22.604  14.859   1.281
25912W        W92453  39.040  12.903   3.561
25913W        W92454  21.576  10.164   2.422
25914W        W92455  42.487   8.189   2.969
25915W        W92456  44.581   0.995  13.136
25916W        W92457  35.202  33.110   3.929
25917W        W92458  31.491  13.092   9.858
25918W        W92459   4.000   5.332  14.521
25919W        W92460  44.557  35.996   4.658
25920W        W92461   5.376   1.560   3.152
25921W        W92462  18.738  28.889   5.041
25922W        W92463  30.115  41.573  10.563
25923W        W92464   5.772  10.888   4.109
25924W        W92465  14.851  31.433  14.301
25925W        W92466  16.983  32.635  10.462
25926W        W92467  20.311  21.016   2.670
25927W        W92468  11.696  34.008   2.315
25928W        W92469  41.304  19.035   0.710
25929W        W92470  25.550   5.413   4.049
25930W        W92471  29.422  44.919  10.398
25931W        W92472  43.880   7.704  13.848
25932W        W92473  22.430  29.001   1.758
25933W        W92474  38.778  27.544   0.251
25934W        W92475  13.274  25.501   3.032
25935W        W92476  28.304  16.294  14.772
25936W        W92477  34.977  27.777   3.272
25937W        W92478   3.626  30.877  10.762
25938W        W92479  28.719  12.299   3.009
25939W        W92480  26.110  38.364   3.421
25940W        W92481  30.560  24.046   0.067
25941W        W92482   3.897   5.920   3.966
25942W        W92483  23.543  19.528   0.695
25943W        W92484  36.877  22.454   0.740
25944W        W92485  43.717  21.056   2.306
25945W        W92486  19.223   5.751  14.889
25946W        W92487  22.878   7.091  12.531
25947W        W92488  26.821  20.210   4.972
25948W        W92489  16.652  44.723   3.627
25949W        W92490  12.590  10.139   1.828
25950W        W92491  39.561  26.391  12.104
25951W        W92492  17.763  27.313  11.949
25952W        W92493  22.260   2.604  13.415
25953W        W92494  25.222   4.586  11.204
25954W        W92495   6.266  18.198  14.240
25955W        W92496  15.103  34.492  13.598
25956W        W92497  43.920   6.657  14.372
25957W        W92498  22.145  10.799  13.492
25958W        W92499  19.337  42.589   3.149
25959W        W92500  11.145   7.391  11.893
25960W        W92501  17.197  44.348   3.153
25961W        W92502  33.945   7.928   1.100
25962W        W92503  31.474  10.000  10.288
25963W        W92504   4.051   4.343  11.224
25964W        W92505   3.476  20.028  11.265
25965W        W92506  29.856  18.153  13.142
25966W        W92507  38.038  27.529   3.134
25967W        W92508  13.147  17.246  11.925
25968W        W92509   7.244  13.770   1.885
25969W        W92510  24.497  28.459   4.402
25970W        W92511  37.634   5.421   3.133
25971W        W92512  22.959  22.283  10.699
25972W        W92513   9.353   5.395   1.598
25973W        W92514  27.130   0.967  11.439
25974W        W92515  37.548  19.648   4.268
25975W        W92516  10.891   7.854   2.619
25976W        W92517  24.958  41.267  10.796
25977W        W92518  32.994  16.192   0.318
25978W        W92519   4.298  44.456   0.978
25979W        W92520   1.424  28.957   4.829
25980W        W92521  13.398  37.907   0.789
25981W        W92522   1.047  28.991  10.761
25982W        W92523  32.196   3.446   3.215
25983W        W92524  22.485  20.711  10.065
25984W        W92525  41.556  13.187   1.707
25985W        W92526  39.481  22.654  12.941
25986W        W92527  43.867  38.586   1.718
25987W        W92528  12.893  20.323  11.105
25988W        W92529  35.346  40.008  13.472
25989W        W92530  11.594  41.862  12.566
25990W        W92531  43.860  32.379   4.907
25991W        W92532  33.743  39.952   2.860
25992W        W92533   3.449  27.926  10.711
25993W        W92534   3.222  23.019   1.496
25994W        W92535  39.565  15.323  12.349
25995W        W92536  39.766  18.601   4.021
25996W        W92537  35.360  11.790  14.661
25997W        W92538  24.142  32.125  10.623
25998W        W92539  23.157  20.280   1.853
25999W        W92540  22.351   7.212   4.138
26000W        W92541  28.667  20.763   1.876
26001W        W92542  36.769  25.031  11.661
26002W        W92543   0.305   9.931  12.828
26003W        W92544  43.229   2.557   2.331
26004W        W92545  32.879  26.202  13.495
26005W        W92546  24.525  42.782   3.423
26006W        W92547  36.756  25.777   1.528
26007W        W92548  42.507  31.759   0.602
26008W        W92549  27.610  12.195  14.414
26009W        W92550  21.208  11.407   0.504
26010W        W92551  22.106  15.352  11.870
26011W        W92552   5.424   3.696  14.886
26012W        W92553  19.203  22.713   0.868
26013W        W92554  34.119   1.782  13.429
26014W        W92555  21.776  15.061  14.937
26015W        W92556  41.518  22.704  11.076
26016W        W92557  29.627  35.653  13.519
26017W        W92558   6.434  43.470   4.371
26018W        W92559   2.906  13.176   2.119
26019W        W92560  26.666   8.692  13.440
26020W        W92561  30.684  16.289  10.221
26021W        W92562  17.751  11.709  10.791
26022W        W92563   0.980   9.320  13.947
26023W        W92564  17.159  29.452  10.644
26024W        W92565  10.898  20.532  14.972
26025W        W92566  23.147  10.487   4.678
26026W        W92567  42.850   5.465   4.382
26027W        W92568   0.730   3.952  10.195
26028W        W92569  31.070  25.676   4.094
26029W        W92570  21.082  29.956   0.818
26030W        W92571  34.955  24.211   3.073
26031W        W92572   1.926  37.878  10.591
26032W        W92573  39.200  32.314   3.132
26033W        W92574  16.563  22.253  10.745
26034W        W92575   1.713  36.871  13.991
26035W        W92576  29.710  31.458  12.856
26036W        W92577  22.353  23.693  13.679
26037W        W92578  19.090   9.505   3.228
26038W        W92579   6.225  35.514   4.319
26039W        W92580   4.550  30.744   1.307
26040W        W92581  11.352  44.282  11.501
26041W        W92582  21.656  39.259  10.613
26042W        W92583  24.584  25.074  11.545
26043W        W92584   2.662  23.463  13.919
26044W        W92585  25.177  22.014  10.643
26045W        W92586   8.572   8.968  12.372
26046W        W92587  28.684  29.261  13.989
26047W        W92588   9.672  26.465   2.893
26048W        W92589  14.972   6.884  13.510
26049W        W92590   7.852  25.224  13.823
26050W        W92591  14.907   2.022  12.455
26051W        W92592  24.611   8.218   1.939
26052W        W92593   1.009  26.999   4.334
26053W        W92594  28.201  41.731  12.171
26054W        W92595  24.624  22.759  13.451
26055W        W92596   7.836  19.497  14.090
26056W        W92597   1.191  15.845   0.251
26057W        W92598  13.278  27.106  11.559
26058W        W92599   5.225  19.338  10.827
26059W        W92600   2.420  33.684  11.913
26060W        W92601  29.537  18.101  14.017
26061W        W92602   0.343   1.595   1.489
26062W        W92603  41.618  41.282  13.367
26063W        W92604  19.624   0.454   4.620
26064W        W92605  10.382  28.640  12.606
26065W        W92606  19.791   3.691   4.985
26066W        W92607  33.300  18.194   3.506
26067W        W92608  44.211   4.652   1.355
26068W        W92609   0.342  34.538  13.025
26069W        W92610  40.133  18.290  13.535
26070W        W92611   0.600  27.291   4.186
26071W        W92612  34.853  20.665   2.316
26072W        W92613  10.781  16.159  12.917
26073W        W92614  23.339  37.105   0.898
26074W        W92615  29.602  10.591   4.137
26075W        W92616   8.876  18.634   4.052
26076W        W92617  19.672  38.545   1.808
26077W        W92618   3.451  15.408   0.219
26078W        W92619  27.238   0.842   4.693
26079W        W92620  18.875  11.840  12.279
26080W        W92621  36.080  44.146  13.760
26081W        W92622  32.623  31.106   3.613
26082W        W92623  28.780  23.612  14.401
26083W        W92624   8.446  11.781  13.392
26084W        W92625  30.125   6.174   4.162
26085W        W92626  36.889  36.932  10.453
26086W        W92627  39.862  19.756  11.604
26087W        W92628  25.470  35.101  11.055
26088W        W92629  15.596  34.644   1.835
26089W        W92630  36.180   6.787   2.302
26090W        W92631   4.409  26.802   4.609
26091W        W92632  11.216  21.551   1.421
26092W        W92633  23.641  37.437   3.514
26093W        W92634  19.067  40.045  11.583
26094W        W92635  24.662  18.591   1.631
26095W        W92636  33.932  13.582   4.584
26096W        W92637  42.838   5.389   2.256
26097W        W92638  31.967  14.638  14.936
26098W        W92639   5.505  15.643  11.623
26099W        W92640  23.036  26.925   5.006
26100W        W92641  33.532  40.932   2.427
26101W        W92642  16.671  35.072  10.956
26102W        W92643  44.618   7.796   1.310
26103W        W92644   9.474  29.456  12.157
26104W        W92645  27.538  25.394   0.800
26105W        W92646  32.483  21.736   0.871
26106W        W92647  26.562   0.861   0.518
26107W        W92648  34.899  13.832   3.157
26108W        W92649   4.751  33.118   0.021
26109W        W92650  15.514   7.678   1.490
26110W        W92651  11.476  20.427   0.704
26111W        W92652   3.832  11.493   0.197
26112W        W92653  13.357  24.564   1.748
26113W        W92654  24.908   3.777  13.007
26114W        W92655  12.560  14.122   4.251
26115W        W92656  22.164  41.355   2.254
26116W        W92657  18.013  34.974  13.924
26117W        W92658  35.738   6.191  12.108
26118W        W92659  44.909  37.894  11.244
26119W        W92660   7.601   3.396   2.161
26120W        W92661  31.492  28.855  10.659
26121W        W92662   6.195  22.614   3.765
26122W        W92663  35.547  43.943  12.572
26123W        W92664  15.205  10.864  10.655
26124W        W92665  10.161   7.796   1.406
26125W        W92666   2.329  16.501   0.589
26126W        W92667  22.976  27.599   4.080
26127W        W92668  20.530  22.118  11.032
26128W        W92669  10.885  36.119   4.106
26129W        W92670  43.433  37.325   0.648
26130W        W92671  29.072  19.938  10.554
26131W        W92672   1.792  30.776   2.194
26132W        W92673  32.846   5.382  14.148
26133W        W92674   3.558   3.050   2.837
26134W        W92675  36.294   9.861   0.613
26135W        W92676  16.758  25.238  14.962
26136W        W92677  13.574  20.549  12.114
26137W        W92678   0.378  25.679   1.256
26138W        W92679  25.087  38.253  13.002
26139W        W92680  24.498  23.017  13.875
26140W        W92681  11.139  14.128   1.858
26141W        W92682  16.051  13.130  11.192
26142W        W92683   4.120  35.508  11.159
26143W        W92684   5.555  21.999   4.158
26144W        W92685   3.758  39.840   2.217
26145W        W92686   3.480  28.167   0.910
26146W        W92687  17.151   3.371   3.989
26147W        W92688  25.002  44.762   4.401
26148W        W92689  33.396  23.520   4.725
26149W        W92690  25.710  28.034  13.981
26150W        W92691  10.583  17.884   0.970
26151W        W92692  36.591  42.787   1.906
26152W        W92693   8.279  42.259  13.145
26153W        W92694  31.443  23.701  14.995
26154W        W92695  26.963  10.166   1.393
26155W        W92696  23.557  24.152   3.134
26156W        W92697   0.068  28.474   4.841
26157W        W92698  24.480  21.730   1.368
26158W        W92699  18.141  19.526  12.997
26159W        W92700  31.916  20.281  10.738
26160W        W92701  19.218  15.617   5.415
26161W        W92702   8.113  33.969  11.037
26162W        W92703  23.470  13.728  11.981
26163W        W92704  13.108  37.952   0.326
26164W        W92705  32.585  27.588   2.942
26165W        W92706  11.402  35.380  13.898
26166W        W92707  23.050  44.006  11.647
26167W        W92708  30.669  22.783  14.401
26168W        W92709   1.701  28.561  13.322
26169W        W92710  29.417  31.195  11.606
26170W        W92711  43.690  19.047   3.345
26171W        W92712  28.963   1.697  12.477
26172W        W92713  31.606  15.769   2.802
26173W        W92714  34.842  23.772  13.859
26174W        W92715  34.186  15.015   1.768
26175W        W92716  43.279  36.034  12.003
26176W        W92717  31.932  14.608  11.522
26177W        W92718  27.966  16.473   2.007
26178W        W92719  42.977  16.859   1.991
26179W        W92720  30.943  34.736   3.354
26180W        W92721  40.361  21.289   2.321
26181W        W92722  27.194  30.750   3.602
26182W        W92723   8.227  19.598   1.350
26183W        W92724  32.472   1.858   1.514
26184W        W92725  16.434   2.308   0.970
26185W        W92726   3.773  24.948  14.333
26186W        W92727  28.092  40.783   0.699
26187W        W92728   6.349  23.539  12.498
26188W        W92729   0.012  12.679   3.948
26189W        W92730  19.649  13.249   5.044
26190W        W92731  24.087  19.493   1.387
26191W        W92732   4.441  30.671  11.354
26192W        W92733  22.208   3.406   3.251
26193W        W92734  32.051  27.299   0.855
26194W        W92735  38.110  18.117   0.799
26195W        W92736  16.039   1.354   1.205
26196W        W92737  20.215   7.804   3.087
26197W        W92738  30.428   0.226  11.945
26198W        W92739   4.880  19.671   3.653
26199W        W92740  29.542  13.207   2.925
26200W        W92741  16.162  26.818   2.790
26201W        W92742  21.706  36.844  11.855
26202W        W92743  23.671   1.881  10.894
26203W        W92744   6.306  21.974  13.861
26204W        W92745  44.855  11.134  11.125
26205W        W92746   2.500   1.895   2.621
26206W        W92747  17.695  35.060  11.621
26207W        W92748  24.233  36.365   2.711
26208W        W92749  37.941  37.953  13.343
26209W        W92750  12.099  27.163   1.960
26210W        W92751   3.346  12.690  10.599
26211W        W92752  44.972  39.045   1.690
26212W        W92753  13.714  38.638   3.275
26213W        W92754  14.586  18.330   2.185
26214W        W92755  34.408  12.223  10.824
26215W        W92756  40.793   8.328   1.862
26216W        W92757   7.939   9.774  14.146
26217W        W92758  24.923  14.649   2.266
26218W        W92759  44.423  44.875   0.413
26219W        W92760  28.082  25.886   3.015
26220W        W92761  42.461   3.004  12.183
26221W        W92762  23.224  42.892   1.916
26222W        W92763  24.506  21.244   2.758
26223W        W92764  43.442   7.626   1.624
26224W        W92765  39.819   6.927   4.493
26225W        W92766  15.092  36.692  14.783
26226W        W92767  33.939  31.674  10.607
26227W        W92768  37.074  43.282   3.795
26228W        W92769  27.417  29.882   0.849
26229W        W92770   7.322  11.785   1.480
26230W        W92771  41.028   6.419  13.702
26231W        W92772  11.314  44.328  10.650
26232W        W92773  13.217  19.591   2.696
26233W        W92774   0.316  25.965  12.555
26234W        W92775  41.426  32.036   3.207
26235W        W92776  26.551  25.079  13.349
26236W        W92777  36.158   6.334  13.370
26237W        W92778  42.922   2.796  12.034
26238W        W92779  25.778  29.582  11.043
26239W        W92780  38.217  26.483  14.470
26240W        W92781  28.978  13.114   0.423
26241W        W92782  21.630  36.678  10.610
26242W        W92783  28.636   6.670  11.232
26243W        W92784  11.702  31.626  13.552
26244W        W92785  35.048  33.638  14.484
26245W        W92786  39.542   4.961  10.506
26246W        W92787   7.270  21.972   1.478
26247W        W92788   9.389  38.051  10.180
26248W        W92789  19.774   7.271   3.709
26249W        W92790  40.550   8.025  12.122
26250W        W92791  16.196  21.424  14.502
26251W        W92792  25.071  37.826   1.895
26252W        W92793  31.499  36.235   0.555
26253W        W92794  11.759  19.474   3.764
26254W        W92795  38.877   2.207   4.211
26255W        W92796  18.912  25.299  10.169
26256W        W92797  12.049   4.155   0.229
26257W        W92798  30.964  37.898  14.935
26258W        W92799  17.219  28.672   3.260
26259W        W92800  40.489  22.516  12.423
26260W        W92801  12.242  21.074  10.181
26261W        W92802  38.055  18.589  14.381
26262W        W92803  18.934  12.000   4.194
26263W        W92804  24.133  15.985   2.349
26264W        W92805  21.298  10.530   0.316
26265W        W92806  28.983   8.614   2.946
26266W        W92807   6.371  41.857   4.981
26267W        W92808  24.777  35.464  11.325
26268W        W92809   1.302  24.712   5.066
26269W        W92810  20.178  16.741  14.813
26270W        W92811  37.358  24.157   1.377
26271W        W92812   1.657  36.888   1.489
26272W        W92813  13.221  22.140   3.724
26273W        W92814   6.885   9.285  11.700
26274W        W92815   9.367   4.156  12.097
26275W        W92816  27.555  19.841  14.954
26276W        W92817   7.603  33.530  12.542
26277W        W92818   6.536  10.677  12.629
26278W        W92819  21.726   2.262   1.731
26279W        W92820  35.398  16.319  10.548
26280W        W92821  18.433  21.696   4.871
26281W        W92822   5.245  29.040   4.963
26282W        W92823   5.777   0.679  13.427
26283W        W92824  20.315  27.051  14.696
26284W        W92825  41.279   4.793  10.904
26285W        W92826  40.743  30.415  11.651
26286W        W92827  34.952  10.557   0.249
26287W        W92828   2.000   9.916  11.116
26288W        W92829  23.667  42.980   3.855
26289W        W92830  33.637   2.765  14.378
26290W        W92831  36.535  20.448   3.163
26291W        W92832  18.307  38.453  13.532
26292W        W92833  34.113   4.833   2.683
26293W        W92834  27.002   8.639   4.273
26294W        W92835  39.269  35.024  14.296
26295W        W92836   2.230  25.126   3.395
26296W        W92837  12.771  28.351  11.350
26297W        W92838  19.563  37.552  12.018
26298W        W92839  29.520  29.660   1.268
26299W        W92840   7.196  44.519  12.210
26300W        W92841   8.882  39.375   1.633
26301W        W92842  35.017   7.465   0.011
26302W        W92843   6.673  26.414   0.246
26303W        W92844  43.768  17.704  13.028
26304W        W92845  10.080  15.530   0.420
26305W        W92846  25.365  19.203  12.770
26306W        W92847  13.678   2.123   2.140
26307W        W92848   0.024  31.124  12.443
26308W        W92849  14.871  33.151   2.765
26309W        W92850  41.406  39.035   0.418
26310W        W92851  20.469  13.823   3.986
26311W        W92852  29.285  10.887  11.117
26312W        W92853  41.099  16.224   4.093
26313W        W92854  23.543   4.077   4.322
26314W        W92855  22.093  42.480   3.132
26315W        W92856  34.951   2.870  13.918
26316W        W92857  26.196   2.915   4.456
26317W        W92858  32.656  28.960   1.700
26318W        W92859  32.331  42.445  12.361
26319W        W92860  20.207  17.128   9.823
26320W        W92861  37.358  20.695  12.077
26321W        W92862   7.683  34.124   1.916
26322W        W92863  38.025  19.194   3.879
26323W        W92864  21.602   0.228  12.848
26324W        W92865   1.974   8.212   4.482
26325W        W92866  14.362   5.155  11.026
26326W        W92867  28.665  14.246   4.558
26327W        W92868  35.969  10.581   0.331
26328W        W92869  24.003   8.521  11.766
26329W        W92870  36.540   5.671   0.951
26330W        W92871   4.888   1.044  14.346
26331W        W92872  14.749  40.290   1.809
26332W        W92873  11.715  42.100   4.464
26333W        W92874  36.879  25.458   3.628
26334W        W92875   3.027   7.953   4.613
26335W        W92876  13.992  16.808  12.911
26336W        W92877  14.218  19.636  13.778
26337W        W92878   2.027  17.518  13.786
26338W        W92879  43.218   3.893   3.319
26339W        W92880  42.894   1.336   3.171
26340W        W92881  35.438  14.309  12.482
26341W        W92882  10.978  27.517  11.697
26342W        W92883  15.125  18.271  11.492
26343W        W92884   0.997  31.337   1.291
26344W        W92885  13.325  17.660   3.121
26345W        W92886  18.353  31.983   3.249
26346W        W92887  18.284  24.766  10.987
26347W        W92888  31.336  23.797  11.649
26348W        W92889  35.277  12.968   4.286
26349W        W92890  28.617  25.427  12.418
26350W        W92891  10.159   1.414   0.887
26351W        W92892  27.287  34.544  11.240
26352W        W92893  24.968  20.518   2.670
26353W        W92894  16.084   0.308  13.813
26354W        W92895   4.207  17.841  11.980
26355W        W92896  32.336  35.922   2.581
26356W        W92897   5.732  12.559   0.828
26357W        W92898   7.300   8.293  14.087
26358W        W92899   4.192   3.812   1.725
26359W        W92900   5.877  38.916  11.294
26360W        W92901  18.583  30.175  12.551
26361W        W92902  44.474  36.090   2.922
26362W        W92903  35.753   7.181   3.507
26363W        W92904  14.353   8.795  14.733
26364W        W92905  29.865  26.203   2.087
26365W        W92906  35.418  15.350  11.452
26366W        W92907  27.441  18.544   3.096
26367W        W92908   9.636  33.816   3.681
26368W        W92909  20.771  32.517   3.930
26369W        W92910  38.177  11.914  11.125
26370W        W92911  20.789  18.254   0.357
26371W        W92912  30.527  14.916   4.479
26372W        W92913  11.335  14.732  13.055
26373W        W92914  24.154  44.219   0.464
26374W        W92915  19.545   5.440  13.441
26375W        W92916  24.903  24.894  12.099
26376W        W92917   1.855  25.155  12.488
26377W        W92918   6.269  23.867  11.234
26378W        W92919  32.065  19.940   3.403
26379W        W92920  42.252  30.484  12.432
26380W        W92921  12.290  16.049   1.666
26381W        W92922   2.660   1.035   4.309
26382W        W92923  18.830   8.940  14.519
26383W        W92924  31.992  27.280   4.111
26384W        W92925   2.965  33.055  11.474
26385W        W92926  44.974  39.771  11.603
26386W        W92927   0.382   6.395   1.348
26387W        W92928   3.779  40.925  10.935
26388W        W92929  30.512  11.659  10.722
26389W        W92930   5.280   1.608   2.343
26390W        W92931   8.713   0.154  14.814
26391W        W92932  16.393  38.553   2.255
26392W        W92933  15.065  12.737  11.162
26393W        W92934  16.057   8.991  13.016
26394W        W92935  18.155  29.567   2.021
26395W        W92936  18.388  12.932  10.971
26396W        W92937  16.772  33.576   2.424
26397W        W92938  10.823  32.493  10.710
26398W        W92939  34.277  23.651   0.789
26399W        W92940  28.223  22.561  14.971
26400W        W92941  23.502  11.518   4.561
26401W        W92942  32.440  27.267  13.768
26402W        W92943  23.245  43.411  12.109
26403W        W92944  36.907  21.659  14.988
26404W        W92945  17.732  16.713  11.417
26405W        W92946  22.090  16.347   2.435
26406W        W92947  22.405  11.834   4.092
26407W        W92948  43.051  26.875  13.582
26408W        W92949  41.353  42.214  11.985
26409W        W92950   0.812  30.051   1.776
26410W        W92951  11.379  43.307   2.175
26411W        W92952  15.007  10.116   4.578
26412W        W92953  21.356  33.054   4.606
26413W        W92954  16.070  14.833   0.349
26414W        W92955  17.786  27.507  13.456
26415W        W92956   1.869  38.877  10.511
26416W        W92957  35.519  36.415  14.759
26417W        W92958  36.229  30.250   2.214
26418W        W92959   1.463  44.490   4.143
26419W        W92960  44.257  33.306   0.862
26420W        W92961  31.874  16.300   4.519
26421W        W92962   2.841  40.832  14.084
26422W        W92963  19.727   5.923   1.351
26423W        W92964   3.382  32.224  12.940
26424W        W92965  39.342  22.252   0.225
26425W        W92966   5.407  27.640   1.679
26426W        W92967  22.277   1.203   1.375
26427W        W92968  36.325  16.549   1.761
26428W        W92969  20.028  44.003  12.755
26429W        W92970  18.122  40.296  11.931
26430W        W92971  26.519  44.738   3.224
26431W        W92972   9.815  25.184   2.360
26432W        W92973   0.949  44.324   0.916
26433W        W92974  20.649  32.463  10.744
26434W        W92975  42.206  32.000  10.375
26435W        W92976   0.832  27.747  10.498
26436W        W92977  40.743  43.943   2.427
26437W        W92978  44.542  34.093   2.687
26438W        W92979  22.312  33.389   3.983
26439W        W92980  33.707   1.315   2.226
26440W        W92981  31.837  33.090   0.808
26441W        W92982  12.577  14.983   4.312
26442W        W92983  15.407  12.942   1.888
26443W        W92984  32.022  18.948  14.032
26444W        W92985  37.462  23.448  14.235
26445W        W92986  34.857   1.973   0.371
26446W        W92987  24.546  28.962  13.783
26447W        W92988  14.488  25.634   4.082
26448W        W92989  16.142   0.467   1.685
26449W        W92990  34.411   6.981   1.721
26450W        W92991  41.758  16.436  14.543
26451W        W92992  33.591   7.259  10.654
26452W        W92993   5.310  20.846  10.687
26453W        W92994  18.660   4.211  13.938
26454W        W92995  39.973  33.717  14.361
26455W        W92996   1.000  39.171   0.118
26456W        W92997  38.337  39.925  11.204
26457W        W92998  38.340  39.281  12.380
26458W        W92999  33.868  41.650  12.333
26459W        W93000  35.577  25.668   0.301
26460W        W93001  35.504   9.354  14.432
26461W        W93002   6.346   5.281   5.168
26462W        W93003  13.083   2.008   0.034
26463W        W93004  40.901  27.586   1.792
26464W        W93005  25.121   0.235  14.382
26465W        W93006   0.757   0.782   0.875
26466W        W93007  39.146  41.688  14.806
26467W        W93008  38.729   6.380  11.150
26468W        W93009   2.322  11.587  10.616
26469W        W93010   7.202  29.085  12.941
26470W        W93011  17.758   7.067   1.701
26471W        W93012  24.851  23.522  13.411
26472W        W93013   4.870  37.599  13.801
26473W        W93014  10.757  21.970  11.016
26474W        W93015   6.678  40.196  10.827
26475W        W93016  38.534  38.363   2.098
26476W        W93017  15.560   8.286  13.424
26477W        W93018  13.050   4.819   0.482
26478W        W93019  39.986  27.058  13.430
26479W        W93020   9.488  14.056  13.973
26480W        W93021   3.084   5.902   3.753
26481W        W93022  14.051   0.317   3.699
26482W        W93023  33.502  39.785  10.672
26483W        W93024  43.930  22.558  13.437
26484W        W93025   1.929  20.889   2.000
26485W        W93026  27.469   6.383   1.797
26486W        W93027  42.180  20.996   1.314
26487W        W93028  22.639  44.014   1.939
26488W        W93029  17.403  40.760   1.577
26489W        W93030  24.080  40.836   3.605
26490W        W93031  16.208  24.804   4.306
26491W        W93032  27.454  22.913   4.173
26492W        W93033  14.539   2.387   3.125
26493W        W93034   8.590  42.503  14.741
26494W        W93035  40.940   0.922   1.707
26495W        W93036  35.921  39.648   4.223
26496W        W93037   7.854  44.356  10.790
26497W        W93038  21.290  36.201  13.928
26498W        W93039  25.655  28.680   0.439
26499W        W93040  29.756  44.236   2.592
26500W        W93041  44.401  31.438  11.266
26501W        W93042  31.482   4.405   0.515
26502W        W93043  29.180  18.485   1.860
26503W        W93044  41.355  42.454  14.917
26504W        W93045  37.149  15.774   4.068
26505W        W93046  25.105  39.755   0.772
26506W        W93047   2.974  32.468  13.656
26507W        W93048  12.092  44.850  10.662
26508W        W93049  26.383  31.056   1.810
26509W        W93050   7.906  41.147  11.288
26510W        W93051  22.582  30.705  14.815
26511W        W93052  17.128  23.152   0.195
26512W        W93053   0.287   1.443  13.107
26513W        W93054  24.728   0.287   0.325
26514W        W93055  38.276   4.887   4.675
26515W        W93056  41.996  38.138  11.170
26516W        W93057  14.854  12.302  11.909
26517W        W93058  34.003  14.862   0.837
26518W        W93059  21.058  23.115   4.613
26519W        W93060   5.018  37.707   2.774
26520W        W93061  44.897  27.644   0.985
26521W        W93062   1.488  41.557  12.523
26522W        W93063  29.235  18.182  14.660
26523W        W93064  40.031   4.250   3.700
26524W        W93065  15.559  36.926  14.828
26525W        W93066  43.741  21.579  10.625
26526W        W93067  38.157   5.712  12.791
26527W        W93068   1.880  12.178  11.541
26528W        W93069  11.021  36.578   3.130
26529W        W93070   5.897  35.449  13.881
26530W        W93071  20.243  34.050  14.429
26531W        W93072  42.570  17.661   2.345
26532W        W93073  23.775  21.759   0.577
26533W        W93074  38.298  34.818  14.470
26534W        W93075  44.016  12.791   5.155
26535W        W93076  23.102  12.758  13.344
26536W        W93077  33.561   8.163  11.167
26537W        W93078  36.687  26.562   3.073
26538W        W93079  34.043  26.652  12.464
26539W        W93080  17.390  40.977  14.828
26540W        W93081  25.680  19.195  13.701
26541W        W93082   7.269   2.032  12.230
26542W        W93083  20.001  44.941  13.388
26543W        W93084  16.837  32.164   0.919
26544W        W93085  20.675   0.488   4.714
26545W        W93086  41.081  38.482   1.652
26546W        W93087  23.549  36.328   2.216
26547W        W93088  27.791  10.805   1.480
26548W        W93089  39.859  39.305   0.709
26549W        W93090   4.923  10.040   0.505
26550W        W93091  43.497  33.203  10.350
26551W        W93092  33.459  21.689   1.418
26552W        W93093  15.996  42.558   4.832
26553W        W93094  24.205  23.550   0.370
26554W        W93095   8.261  43.857   2.616
26555W        W93096   3.483   1.159   5.384
26556W        W93097  40.663  29.246  14.815
26557W        W93098   9.880  25.704  13.789
26558W        W93099  39.067  41.993  12.110
26559W        W93100  26.760  26.732   3.771
26560W        W93101  13.590  30.085   1.822
26561W        W93102  16.038  22.197  10.706
26562W        W93103  11.321  42.416  11.469
26563W        W93104  19.636  32.671   2.420
26564W        W93105  22.133  22.780   4.099
26565W        W93106  32.404  35.982  12.824
26566W        W93107  44.286  31.353  11.786
26567W        W93108  29.071   9.761  11.577
26568W        W93109   9.354  44.475   2.419
26569W        W93110   8.866  37.112   3.845
26570W        W93111   1.643  22.156   1.366
26571W        W93112  38.869  22.067  14.315
26572W        W93113   3.290  42.822  12.766
26573W        W93114  32.817   4.491  14.312
26574W        W93115  29.506  42.020  12.648
26575W        W93116  30.615  35.289   1.395
26576W        W93117  19.394  42.724  11.659
26577W        W93118  34.082  21.531  11.749
26578W        W93119  15.675  12.156  13.104
26579W        W93120  30.766  13.577   0.329
26580W        W93121  20.178   0.031  12.888
26581W        W93122  24.498  42.970  11.279
26582W        W93123  40.360   8.390  10.792
26583W        W93124   6.328   3.018  12.359
26584W        W93125  34.724  12.644  10.860
26585W        W93126   8.281  37.716  10.292
26586W        W93127  44.352  14.967  12.446
26587W        W93128  19.432  38.455  14.972
26588W        W93129   5.510  32.118   3.331
26589W        W93130  21.166  35.345  14.305
26590W        W93131  10.814   9.965   1.441
26591W        W93132  13.021  36.396   3.170
26592W        W93133  38.173   3.528   3.369
26593W        W93134   0.479   0.650  14.790
26594W        W93135  27.488   0.888  13.832
26595W        W93136  12.460  29.938   0.068
26596W        W93137  16.678   5.447   4.171
26597W        W93138  17.841  37.076   2.614
26598W        W93139  17.076  39.407  12.485
26599W        W93140  31.794   4.366   3.339
26600W        W93141  44.473  27.199   1.567
26601W        W93142  32.364  13.831  12.120
26602W        W93143  36.854  32.342  11.128
26603W        W93144  25.836  33.999   3.538
26604W        W93145  41.790   8.730   3.882
26605W        W93146  13.257   5.391  14.641
26606W        W93147  29.410  12.893  12.453
26607W        W93148  30.533  39.058   0.765
26608W        W93149   0.426   0.073   2.255
26609W        W93150  25.437   3.767   0.245
26610W        W93151  44.016  20.477  10.709
26611W        W93152  44.264  23.853  13.409
26612W        W93153   5.816  28.415   3.210
26613W        W93154   2.353  27.689  14.364
26614W        W93155   3.838  10.139  13.651
26615W        W93156  42.208  41.502  12.560
26616W        W93157  20.711  11.901  12.095
26617W        W93158  15.356  36.488   1.815
26618W        W93159   2.404   6.203  13.927
26619W        W93160  26.726  23.000  11.656
26620W        W93161  34.443  29.078   3.091
26621W        W93162  33.386   4.930   4.732
26622W        W93163   6.442  17.665   3.252
26623W        W93164  36.908  20.906   1.789
26624W        W93165  32.917  21.098   1.901
26625W        W93166   3.911  36.124  11.502
26626W        W93167   2.710  36.006  11.096
26627W        W93168  33.002   6.416  10.784
26628W        W93169  20.713  25.928   0.447
26629W        W93170  36.970  26.481  12.409
26630W        W93171  28.244   6.184  13.352
26631W        W93172  27.737   6.493   4.168
26632W        W93173  33.204  32.034   0.758
26633W        W93174  31.498  44.603   2.050
26634W        W93175  36.440  22.184  12.609
26635W        W93176  30.031   5.241   4.609
26636W        W93177  34.934  35.096   2.761
26637W        W93178  36.051  30.502   1.358
26638W        W93179  33.588  15.139  12.797
26639W        W93180  12.390  39.772   2.738
26640W        W93181   0.410  35.891  12.980
26641W        W93182  30.889  38.337   0.215
26642W        W93183  19.123  38.281   2.806
26643W        W93184   7.445  33.939   3.626
26644W        W93185  37.259   3.485  14.872
26645W        W93186  15.267  35.077  10.675
26646W        W93187  28.167  42.964  11.490
26647W        W93188  16.612   6.783   3.694
26648W        W93189  41.778  23.624   4.158
26649W        W93190  20.479  29.995   3.338
26650W        W93191  18.791  32.371   2.758
26651W        W93192   2.279   3.809  14.780
26652W        W93193   5.059   6.609  13.930
26653W        W93194  42.992  33.952   4.330
26654W        W93195  41.139   3.472   2.599
26655W        W93196  18.310   9.794  14.733
26656W        W93197  20.856   4.848   4.957
26657W        W93198  44.552   6.965   1.464
26658W        W93199  23.857   6.015   1.865
26659W        W93200  32.074  43.451   0.042
26660W        W93201  19.008  20.828  10.756
26661W        W93202   7.846  36.385  10.810
26662W        W93203  26.749   0.262  10.459
26663W        W93204   7.756  28.227   0.135
26664W        W93205  35.432  24.444   2.305
26665W        W93206   3.790  31.943   2.139
26666W        W93207   3.107  21.728   1.293
26667W        W93208  34.650   2.778   1.415
26668W        W93209  38.296  17.478   2.545
26669W        W93210  17.562  35.155  11.153
26670W        W93211   2.510  35.347  12.640
26671W        W93212  20.682  21.538  14.054
26672W        W93213  33.410  43.569   3.137
26673W        W93214  19.120  19.578  12.732
26674W        W93215   3.284  26.517   3.043
26675W        W93216  39.827  12.855   0.716
26676W        W93217  30.157   9.854  12.177
26677W        W93218  21.771  19.996  13.895
26678W        W93219  38.921  44.092  10.155
26679W        W93220  11.794   9.841   0.994
26680W        W93221  19.781  20.581   0.423
26681W        W93222  25.877  35.128  13.498
26682W        W93223  44.909  36.592  14.813
26683W        W93224  12.255  20.009   2.849
26684W        W93225  37.570  27.621   3.692
26685W        W93226  41.816  27.951  13.221
26686W        W93227  20.400  27.913   4.104
26687W        W93228  34.333  38.586  11.151
26688W        W93229  35.047  41.589   2.677
26689W        W93230  41.004   4.264  13.247
26690W        W93231   9.057  27.186   0.402
26691W        W93232   3.806  39.915  14.012
26692W        W93233  14.588  24.688   3.275
26693W        W93234  30.012  25.588  14.591
26694W        W93235  16.995  28.004  13.445
26695W        W93236  38.402   8.216  13.746
26696W        W93237  24.293  13.148   3.398
26697W        W93238  12.260  37.742  14.900
26698W        W93239   4.800  35.548  12.991
26699W        W93240  16.787  36.853  11.945
26700W        W93241  15.518  20.315   1.247
26701W        W93242  37.386  18.582   0.222
26702W        W93243  40.387  18.636   0.814
26703W        W93244  11.580  42.224   1.363
26704W        W93245  28.919  43.444  14.722
26705W        W93246  14.531   2.415  13.738
26706W        W93247   0.747  14.414  13.543
26707W        W93248  16.216  10.402  11.502
26708W        W93249  17.674  40.687   0.322
26709W        W93250   5.649  34.661  14.709
26710W        W93251  41.316  41.843   1.038
26711W        W93252  42.569  35.157   3.685
26712W        W93253  38.971   1.944   3.562
26713W        W93254   8.873  14.125  10.673
26714W        W93255  27.919  20.210   4.923
26715W        W93256  37.605  22.568  11.171
26716W        W93257  14.077  24.723  14.948
26717W        W93258  29.832  34.081   4.146
26718W        W93259  31.473   2.998   3.765
26719W        W93260  43.539  16.808   0.895
26720W        W93261  20.317  35.981  11.647
26721W        W93262  22.978  36.421   3.236
26722W        W93263   0.079  42.863  14.747
26723W        W93264   8.364   7.992  11.469
26724W        W93265  20.558  20.789   1.321
26725W        W93266  15.057  15.096   0.901
26726W        W93267  29.073  44.769  12.989
26727W        W93268  29.391   4.365  14.763
26728W        W93269  32.272  24.568   0.889
26729W        W93270  13.077  29.242   3.270
26730W        W93271  43.361  29.688  14.699
26731W        W93272   4.309   1.894   3.832
26732W        W93273  26.636  39.566  11.970
26733W        W93274  11.835   7.437   1.773
26734W        W93275  32.337  40.111  14.302
26735W        W93276  37.312  12.650   4.570
26736W        W93277  33.616  28.118  13.451
26737W        W93278  43.821  17.751   1.218
26738W        W93279  29.415  38.554  13.016
26739W        W93280  17.528  27.518  12.996
26740W        W93281  20.911   0.404   4.253
26741W        W93282  11.189  33.552  10.462
26742W        W93283   2.903  10.264   2.324
26743W        W93284  21.858  39.518   0.195
26744W        W93285   0.237  19.294   2.695
26745W        W93286  21.677  34.561  10.714
26746W        W93287  15.824   9.838   0.970
26747W        W93288  13.212  40.345  13.986
26748W        W93289  38.124  38.375  14.237
26749W        W93290  42.235  42.036  11.089
26750W        W93291  23.000  25.089   4.120
26751W        W93292  34.515  29.900  13.068
26752W        W93293  40.445  20.001   1.180
26753W        W93294  44.426  19.230  12.524
26754W        W93295  21.098  22.982  11.070
26755W        W93296   2.834  43.600   1.191
26756W        W93297   1.817  13.752   2.401
26757W        W93298  16.077  38.328   1.882
26758W        W93299  44.024   6.424   1.518
26759W        W93300  21.562  30.061   4.468
26760W        W93301  26.521  12.336  11.674
26761W        W93302   6.701  41.397  12.167
26762W        W93303  14.753  21.752  12.391
26763W        W93304  39.420  15.690   2.645
26764W        W93305  20.765  26.507   4.256
26765W        W93306  17.163   3.742   1.300
26766W        W93307  40.893  43.901   0.639
26767W        W93308  36.868  27.866  10.802
26768W        W93309  36.109   8.824  11.549
26769W        W93310  27.068  10.667   4.475
26770W        W93311  31.963   6.655  12.665
26771W        W93312   5.035  27.163   2.213
26772W        W93313  34.850   1.021  12.066
26773W        W93314   5.355  14.871  10.432
26774W        W93315  24.041  17.505  11.217
26775W        W93316  11.616  24.020  14.521
26776W        W93317  38.788   4.190   1.852
26777W        W93318  35.701  41.485  14.852
26778W        W93319  18.009  41.766  14.841
26779W        W93320  36.958  32.574   4.180
26780W        W93321  30.551  26.530   3.195
26781W        W93322  13.312   4.885  13.352
26782W        W93323   3.434  25.245   2.793
26783W        W93324   3.453   4.252  13.499
26784W        W93325  32.450  18.784   2.722
26785W        W93326  41.162   0.313  14.024
26786W        W93327  24.833   5.342  10.211
26787W        W93328  15.131   3.960   3.801
26788W        W93329  13.292   9.703  14.956
26789W        W93330  34.676  19.261  12.913
26790W        W93331   0.761   2.461   2.813
26791W        W93332  32.993  16.650  14.100
26792W        W93333  30.525  31.971  10.008
26793W        W93334   5.175  25.946  14.283
26794W        W93335  38.470  30.541   2.416
26795W        W93336  19.215  13.628   1.355
26796W        W93337  15.258  26.844  11.150
26797W        W93338  16.229   4.708   2.786
26798W        W93339  22.918  18.828   4.067
26799W        W93340  32.075   2.225  13.070
26800W        W93341  12.116   4.815   0.964
26801W        W93342  43.479  35.408   0.510
26802W        W93343  28.886  42.656   3.144
26803W        W93344   1.099  26.760   2.079
26804W        W93345  25.978  33.305  12.455
26805W        W93346  12.555  42.707   3.397
26806W        W93347  16.668  29.041  13.885
26807W        W93348   6.610  31.999   4.670
26808W        W93349  34.445   4.808  12.866
26809W        W93350  11.063   5.048   1.319
26810W        W93351  11.670  44.793  13.503
26811W        W93352  23.614  38.258  13.110
26812W        W93353  39.543  27.539   2.288
26813W        W93354  19.252  36.621  11.993
26814W        W93355  12.298  31.126  12.039
26815W        W93356  15.007  27.997  14.697
26816W        W93357  36.067  39.048  14.474
26817W        W93358  40.444   8.754   0.128
26818W        W93359  44.327  24.238  11.016
26819W        W93360  30.668  43.309  11.190
26820W        W93361  41.973  10.447  13.442
26821W        W93362  17.644  16.627   3.607
26822W        W93363  11.903  38.923  10.088
26823W        W93364   5.736  23.565   4.489
26824W        W93365   0.402   7.184  11.754
26825W        W93366  32.195  27.575  13.422
26826W        W93367   0.401  44.306  14.495
26827W        W93368   4.773   6.192   4.935
26828W        W93369  41.998  22.102  10.782
26829W        W93370  34.027  32.039  14.265
26830W        W93371  12.202   1.835  13.613
26831W        W93372  37.034  28.190   4.166
26832W        W93373   3.198  44.730   0.018
26833W        W93374  33.879   3.341   2.749
26834W        W93375  14.355  33.573   4.462
26835W        W93376  15.646  13.406   0.729
26836W        W93377  15.690  35.629   0.345
26837W        W93378  12.953  19.238   3.423
26838W        W93379   1.472  14.179   3.890
26839W        W93380  13.403   8.361   2.344
26840W        W93381  37.135  14.598  13.885
26841W        W93382   8.877  33.780  12.814
26842W        W93383  19.692  44.534   4.073
26843W        W93384  24.528  31.938  11.111
26844W        W93385  24.604  19.284   2.203
26845W        W93386  29.908  37.494   4.022
26846W        W93387  29.874  18.997  14.680
26847W        W93388   4.878   9.388  13.032
26848W        W93389  18.520  10.824   3.131
26849W        W93390  37.201  20.656   4.353
26850W        W93391  25.910  19.255  12.931
26851W        W93392  34.410  36.321  10.746
26852W        W93393  42.845  35.468   4.613
26853W        W93394  11.080  26.741   3.070
26854W        W93395  25.999   0.383   4.737
26855W        W93396  24.637  37.992   2.251
26856W        W93397   6.474  20.033   2.681
26857W        W93398  18.364  31.150   5.527
26858W        W93399   2.337  19.702   5.607
26859W        W93400  34.842  41.857   0.737
26860W        W93401   2.623  11.720   1.730
26861W        W93402  39.870  19.975   3.258
26862W        W93403  42.476  43.625   0.497
26863W        W93404   0.725   6.206   4.613
26864W        W93405  26.666  14.064   3.613
26865W        W93406  43.056  17.873  11.784
26866W        W93407   5.256  25.104   3.521
26867W        W93408  27.022  12.760   0.412
26868W        W93409  28.946  38.922   2.611
26869W        W93410  17.080  35.863  13.362
26870W        W93411  22.051   9.817   2.460
26871W        W93412  12.129  16.227   2.689
26872W        W93413  33.523  44.496  14.547
26873W        W93414  11.212  44.012   2.768
26874W        W93415  25.334  36.991   4.509
26875W        W93416  14.671  21.085  10.317
26876W        W93417  35.345  27.045   1.930
26877W        W93418   2.426   8.920   0.349
26878W        W93419  29.244  12.113   4.325
26879W        W93420  29.209  44.276  12.880
26880W        W93421  38.885  31.886   3.135
26881W        W93422   4.983  29.475  14.987
26882W        W93423  12.311  38.408   4.258
26883W        W93424   3.781  22.361   1.470
26884W        W93425  30.983  19.239   2.303
26885W        W93426  16.693  36.365   4.241
26886W        W93427  35.120   6.188   4.233
26887W        W93428   2.815   1.264  10.393
26888W        W93429   6.298  23.589   2.744
26889W        W93430  19.677  20.812  14.511
26890W        W93431  28.612  16.170  11.143
26891W        W93432  35.831  10.888  13.249
26892W        W93433  30.842   0.942   4.524
26893W        W93434  39.083  11.817   4.393
26894W        W93435  28.833   8.908  11.512
26895W        W93436   4.730  13.299   3.139
26896W        W93437  40.008  29.854   0.955
26897W        W93438  36.140  34.503   2.458
26898W        W93439  38.874  24.724   1.913
26899W        W93440  19.498  23.063  12.574
26900W        W93441  18.132  20.466   4.256
26901W        W93442  13.359  43.307   3.391
26902W        W93443  20.245   8.241   3.393
26903W        W93444  39.897  34.848   2.204
26904W        W93445  35.037  27.555  14.536
26905W        W93446  14.502  33.779   1.935
26906W        W93447  16.095  38.664  13.253
26907W        W93448  41.242  22.096  14.779
26908W        W93449  15.877   6.328   4.578
26909W        W93450   4.593  31.183   2.206
26910W        W93451  44.251  18.927   4.905
26911W        W93452  25.995  38.190   2.120
26912W        W93453   6.770   8.901  13.574
26913W        W93454   0.915  36.028   4.658
26914W        W93455  10.436  35.114   0.864
26915W        W93456  28.522  15.005  14.904
26916W        W93457  43.212  23.132  13.433
26917W        W93458   4.763  10.530   0.498
26918W        W93459  24.290  29.172  11.715
26919W        W93460  40.318  41.850   4.211
26920W        W93461  35.864  40.551   3.132
26921W        W93462  36.804   7.033   1.693
26922W        W93463  23.661  16.139   0.579
26923W        W93464  22.476  24.108   4.182
26924W        W93465  23.224   8.728  13.413
26925W        W93466   1.224  22.243   3.866
26926W        W93467  24.949  28.033  14.931
26927W        W93468  29.095  25.307   1.850
26928W        W93469  34.621   1.475   3.224
26929W        W93470  36.946  26.450   0.372
26930W        W93471   4.472  28.447  13.032
26931W        W93472  39.965  31.952   0.726
26932W        W93473  37.230  14.305  12.926
26933W        W93474  32.534   3.905   3.196
26934W        W93475  37.910  24.089  12.102
26935W        W93476  12.104  43.349  12.073
26936W        W93477  15.875   4.960  10.730
26937W        W93478   4.053  41.562   4.577
26938W        W93479  38.542  37.374  13.674
26939W        W93480  31.507  40.719  13.112
26940W        W93481  43.044  15.220  11.423
26941W        W93482   2.206  31.150  11.439
26942W        W93483  15.301   0.965  14.116
26943W        W93484   7.416  38.319   3.986
26944W        W93485  34.807  28.722   4.466
26945W        W93486   6.445  12.096   1.169
26946W        W93487  19.354  18.253  12.995
26947W        W93488  27.746  32.962  14.459
26948W        W93489  35.130  43.972   4.444
26949W        W93490  43.492   5.902   3.799
26950W        W93491  15.156  14.208   1.639
26951W        W93492  32.045  14.703  12.188
26952W        W93493  24.500   8.041  12.733
26953W        W93494   3.775  39.818   0.897
26954W        W93495   9.089  38.114  11.563
26955W        W93496   3.255  18.486  11.755
26956W        W93497  36.495  19.654   2.466
26957W        W93498  10.700  43.374   0.560
26958W        W93499  36.014  15.140  13.321
26959W        W93500   9.343  21.575  11.168
26960W        W93501   4.255  28.533   1.502
26961W        W93502  39.296   3.515   4.185
26962W        W93503  40.517  42.049  12.018
26963W        W93504  10.849  40.674  13.469
26964W        W93505  36.612  14.577  13.862
26965W        W93506  18.919  38.424  14.975
26966W        W93507  28.140  12.185  12.481
26967W        W93508  38.360   0.715   4.795
26968W        W93509  34.396  17.418   4.268
26969W        W93510  21.140   2.219   3.490
26970W        W93511  29.789   5.527   3.642
26971W        W93512  38.521  18.261   1.892
26972W        W93513  21.920  35.059   4.007
26973W        W93514  22.960  35.304  14.686
26974W        W93515  14.597  33.921  13.876
26975W        W93516   2.764  22.656  12.589
26976W        W93517  19.395   7.737  13.777
26977W        W93518   5.324  43.161  11.148
26978W        W93519  12.282   5.391   2.182
26979W        W93520  31.562  32.852  12.576
26980W        W93521  12.228  17.848  13.452
26981W        W93522   3.458   7.046   0.094
26982W        W93523  32.494  32.438  14.264
26983W        W93524  41.793   3.747  13.264
26984W        W93525  23.648  31.206  13.399
26985W        W93526  27.788  37.661   0.882
26986W        W93527  15.158  37.139  12.509
26987W        W93528  26.634  23.542   1.003
26988W        W93529  27.903  27.081  12.112
26989W        W93530  30.793  28.425  12.479
26990W        W93531  17.178  19.325  12.955
26991W        W93532  12.882  42.267   3.457
26992W        W93533  32.869  23.416  11.915
26993W        W93534  29.299  13.862   3.373
26994W        W93535  40.822  23.250   0.459
26995W        W93536  17.737  35.933   3.301
26996W        W93537  22.128  43.871   1.882
26997W        W93538  25.332  19.905  10.980
26998W        W93539  19.639  13.969   1.900
26999W        W93540  23.068  26.971  14.075
27000W        W93541  41.211  37.725  11.718
27001W        W93542  24.167   8.835   0.851
27002W        W93543  38.071  33.796   3.541
27003W        W93544  18.603  36.061  14.423
27004W        W93545  32.180  35.183  13.933
27005W        W93546  31.074  13.923   5.184
27006W        W93547   3.268  18.028   2.391
27007W        W93548   2.148  12.027   2.429
27008W        W93549  23.570  24.215   4.117
27009W        W93550  36.125  16.322  12.449
27010W        W93551   3.520  20.646   2.849
27011W        W93552   0.966  18.094   2.407
27012W        W93553  26.190  27.211  11.853
27013W        W93554  27.596  17.768  12.017
27014W        W93555  42.087  40.123   1.145
27015W        W93556  21.223  34.497  10.963
27016W        W93557  29.185  17.736   4.359
27017W        W93558   7.496   5.745   0.119
27018W        W93559  35.152  19.594   0.813
27019W        W93560   0.024  34.964  10.040
27020W        W93561  39.344  33.442  11.676
27021W        W93562  21.228  24.674  12.046
27022W        W93563  20.322  25.885  13.531
27023W        W93564  23.458  25.039  10.480
27024W        W93565  41.084  30.047   4.432
27025W        W93566  28.940  12.181   1.342
27026W        W93567  35.322  30.398  12.572
27027W        W93568  20.338  16.754   4.007
27028W        W93569  42.345  19.149   2.807
27029W        W93570   3.277  25.665   0.968
27030W        W93571   6.254   9.724   2.906
27031W        W93572   8.748  27.444   3.362
27032W        W93573  36.434  18.194  10.701
27033W        W93574   1.502  18.304  11.689
27034W        W93575  29.178  24.237  13.902
27035W        W93576  43.623   6.817  13.952
27036W        W93577  37.547  43.973  12.868
27037W        W93578   5.155  38.637   4.223
27038W        W93579  43.345  37.528   4.624
27039W        W93580  40.292  10.632   3.574
27040W        W93581  27.657  19.779  12.128
27041W        W93582  17.551   7.322  14.431
27042W        W93583  27.551   7.404   4.084
27043W        W93584   9.683  34.071   4.542
27044W        W93585  41.294   0.510  10.559
27045W        W93586  24.227  24.378  11.991
27046W        W93587  31.114  43.158   4.477
27047W        W93588   0.011  25.668  12.976
27048W        W93589  24.209  31.290   2.041
27049W        W93590  39.416  22.995  14.210
27050W        W93591  40.637  14.641  10.856
27051W        W93592  26.634  25.234  13.848
27052W        W93593  17.318  33.001   1.376
27053W        W93594   9.828  27.193  12.044
27054W        W93595  26.784   4.194  14.620
27055W        W93596  37.924   4.833  10.216
27056W        W93597   3.820  17.230   1.402
27057W        W93598  13.067  17.086  12.890
27058W        W93599  33.460  31.531   1.291
27059W        W93600   7.412  35.210   1.857
27060W        W93601  42.894  43.980  14.871
27061W        W93602  16.355  29.183  12.011
27062W        W93603  21.637  41.749   2.780
27063W        W93604  25.176   0.026   3.276
27064W        W93605  17.564  37.784  11.845
27065W        W93606  11.517  43.661   2.534
27066W        W93607  42.908  29.116   4.557
27067W        W93608  36.092  18.101   3.254
27068W        W93609  33.098  19.507  12.529
27069W        W93610   3.977   0.385   4.956
27070W        W93611  35.283  18.460  13.509
27071W        W93612  16.564  24.049  11.239
27072W        W93613  40.645  16.102   0.727
27073W        W93614  30.284  43.079  14.808
27074W        W93615   0.308  38.057  13.359
27075W        W93616  41.143  38.674   0.108
27076W        W93617  18.023  22.122  11.894
27077W        W93618  12.284  22.008   1.720
27078W        W93619  42.389  24.471   1.243
27079W        W93620  37.992  36.402   2.627
27080W        W93621  19.462  16.487   5.441
27081W        W93622  42.767  13.156   0.718
27082W        W93623  21.168  19.541   2.801
27083W        W93624  13.326  44.715   3.278
27084W        W93625   0.622  39.843   2.962
27085W        W93626  33.522  14.293   4.549
27086W        W93627   9.661  22.684   2.630
27087W        W93628   9.447  20.107   0.919
27088W        W93629  27.746   6.238  10.817
27089W        W93630  21.252  25.111  14.470
27090W        W93631  39.963  28.066  13.338
27091W        W93632  40.131  29.059  12.617
27092W        W93633  37.299   4.002  11.236
27093W        W93634   2.943  19.338  14.411
27094W        W93635  28.363   5.183   2.242
27095W        W93636  33.442  42.466   2.216
27096W        W93637  21.159  14.733   1.187
27097W        W93638   5.399  11.194  14.303
27098W        W93639  16.253   8.374   0.108
27099W        W93640   1.190  14.268  12.085
27100W        W93641  42.070  11.918  12.135
27101W        W93642   0.183  18.807  14.063
27102W        W93643  23.096  33.827  13.317
27103W        W93644  15.838  38.500   0.451
27104W        W93645  19.680   2.173   4.119
27105W        W93646   5.536  19.428  11.239
27106W        W93647  42.146  24.955  11.073
27107W        W93648  15.488   4.212  11.066
27108W        W93649  41.834  35.636   4.099
27109W        W93650  43.856  36.664   2.717
27110W        W93651  15.556   6.367   3.265
27111W        W93652  25.068  28.898   1.503
27112W        W93653   9.276  42.444   2.176
27113W        W93654   9.134  14.801   2.723
27114W        W93655  41.876  28.980   4.383
27115W        W93656   7.395  20.272   1.726
27116W        W93657  43.703   5.306  14.500
27117W        W93658  13.631  12.630   4.520
27118W        W93659  19.032   9.118  13.983
27119W        W93660   0.928  21.695  10.958
27120W        W93661  43.722  15.124  12.652
27121W        W93662   2.653  32.166  11.174
27122W        W93663  33.533  10.274  13.615
27123W        W93664  41.767   6.572   4.829
27124W        W93665  33.683  44.913   1.861
27125W        W93666  18.493  26.088  14.325
27126W        W93667  20.229   7.150  13.581
27127W        W93668  42.852   5.282  11.957
27128W        W93669   4.034  28.325   0.023
27129W        W93670  17.849  35.573   4.218
27130W        W93671  42.085  42.247   1.332
27131W        W93672  36.639  11.089  11.522
27132W        W93673  26.654  32.318  10.961
27133W        W93674   6.163  33.509  13.570
27134W        W93675  21.440  29.319   2.694
27135W        W93676  38.600  41.063  10.499
27136W        W93677  28.939  27.377  13.392
27137W        W93678  29.545  29.948   4.621
27138W        W93679  14.653  19.251  11.248
27139W        W93680   1.834  43.738   4.259
27140W        W93681   0.142  41.797   4.000
27141W        W93682  16.139   1.849  11.846
27142W        W93683  33.688  35.777  11.603
27143W        W93684  27.718  15.755  13.363
27144W        W93685   0.532  33.597  11.628
27145W        W93686   3.233  20.468  12.117
27146W        W93687  34.670  28.204   3.248
27147W        W93688  26.477   5.433   4.485
27148W        W93689   1.212  22.724   4.702
27149W        W93690  23.741  32.506   0.293
27150W        W93691  16.227  37.840  14.970
27151W        W93692  24.268  27.140   1.314
27152W        W93693  30.525  33.453   3.169
27153W        W93694  35.990  31.689   4.559
27154W        W93695  29.568  30.207   1.210
27155W        W93696  18.587  30.984   1.816
27156W        W93697   8.180  18.694   2.187
27157W        W93698  30.175  11.578  13.822
27158W        W93699  30.956  34.098   4.228
27159W        W93700  15.166  23.340  13.752
27160W        W93701  14.363  29.568   0.769
27161W        W93702   2.557  24.027  13.421
27162W        W93703  25.036  16.495   1.464
27163W        W93704   0.126  16.367   2.641
27164W        W93705   2.877  36.978  11.399
27165W        W93706  14.785  34.944   2.208
27166W        W93707  43.759  21.148  13.374
27167W        W93708   8.721  31.328  11.746
27168W        W93709   1.862  25.356   0.282
27169W        W93710  18.819  41.201   9.756
27170W        W93711  43.743  44.831   3.732
27171W        W93712  22.695  16.653  10.739
27172W        W93713   0.941   1.034   1.364
27173W        W93714  23.104   3.983  13.937
27174W        W93715  21.478  26.647   3.362
27175W        W93716  42.938  43.444  14.741
27176W        W93717  23.969  19.861  11.546
27177W        W93718  39.657  10.448   3.202
27178W        W93719  28.758  15.555  13.284
27179W        W93720  33.159   5.865  13.448
27180W        W93721  22.697   3.942  12.585
27181W        W93722   7.962  14.216   4.522
27182W        W93723  25.179  21.698  13.802
27183W        W93724  18.721  29.498   3.654
27184W        W93725  18.338   9.017  12.829
27185W        W93726   3.260  30.639  14.434
27186W        W93727   1.755   2.852  12.181
27187W        W93728  33.146   9.027   2.200
27188W        W93729  16.398   3.184   0.512
27189W        W93730  14.597  40.376   2.689
27190W        W93731  31.914  36.094   2.310
27191W        W93732  35.084  37.925   1.742
27192W        W93733  28.958  20.194  12.349
27193W        W93734  35.516  30.966   0.298
27194W        W93735  14.861  34.649   4.658
27195W        W93736  44.771  23.166   1.804
27196W        W93737  44.184  11.284  13.795
27197W        W93738  40.045  41.408   1.436
27198W        W93739   0.232   6.373  12.185
27199W        W93740  17.229  39.222  10.660
27200W        W93741   2.454  23.445   2.095
27201W        W93742  11.846  24.954  12.569
27202W        W93743  35.826  14.689  11.840
27203W        W93744   1.701   1.984   2.158
27204W        W93745  29.334  23.462  12.482
27205W        W93746  27.048  13.089  12.557
27206W        W93747  44.888  35.308  10.415
27207W        W93748  29.906   8.102  13.447
27208W        W93749  10.550  40.047  12.441
27209W        W93750  37.598  23.742   4.256
27210W        W93751   1.940  20.280   3.820
27211W        W93752  36.131   5.151   9.887
27212W        W93753  27.659  16.775   2.341
27213W        W93754   7.297  37.859  13.441
27214W        W93755   2.841   0.749   2.091
27215W        W93756  44.571  14.545   0.526
27216W        W93757   0.857   6.362  11.338
27217W        W93758  32.890  40.081   0.081
27218W        W93759  31.087  11.330   2.638
27219W        W93760  39.348  32.047   3.565
27220W        W93761  40.475  44.841   0.357
27221W        W93762   1.665   2.564   3.655
27222W        W93763  16.165   4.757   0.070
27223W        W93764  12.565  30.455   9.808
27224W        W93765  11.382  25.586   4.216
27225W        W93766   7.375  34.586   1.399
27226W        W93767  22.215   0.737   1.125
27227W        W93768  38.800  34.903   3.503
27228W        W93769  42.172  14.751   2.726
27229W        W93770  10.364  12.600   0.558
27230W        W93771  19.132   6.864  13.606
27231W        W93772  23.747  20.069  14.015
27232W        W93773  24.640  35.999  13.028
27233W        W93774  31.029  35.923   5.201
27234W        W93775  39.824  28.649  12.551
27235W        W93776  39.427  40.934   4.160
27236W        W93777  20.570  16.393  11.638
27237W        W93778   0.443  30.683  11.703
27238W        W93779  39.432  32.935  11.575
27239W        W93780  17.022  39.585  13.849
27240W        W93781  12.414  30.535   3.243
27241W        W93782  32.932  12.061  11.068
27242W        W93783   9.271  19.702   0.652
27243W        W93784  32.066  21.102  11.092
27244W        W93785  36.324  23.556   0.855
27245W        W93786  17.611  16.591   0.320
27246W        W93787  26.966  24.195  12.908
27247W        W93788   0.264  30.517   2.762
27248W        W93789  31.150  31.936  13.469
27249W        W93790  20.662  38.877   3.269
27250W        W93791   0.331   5.385  10.698
27251W        W93792  28.917   4.223   1.334
27252W        W93793  11.138  18.367   3.113
27253W        W93794  30.352   8.896   2.965
27254W        W93795  31.374  26.264   0.933
27255W        W93796  23.994  40.553  13.453
27256W        W93797  20.092  19.379   3.814
27257W        W93798  16.373  18.961  11.185
27258W        W93799   2.437  18.388   4.904
27259W        W93800  41.542   1.551  14.896
27260W        W93801   4.950   7.460  10.617
27261W        W93802  31.904   7.714   3.708
27262W        W93803  30.621  11.821  13.835
27263W        W93804  28.482  13.759   5.279
27264W        W93805  19.233  12.765  14.313
27265W        W93806  10.300  41.717  11.096
27266W        W93807  39.941  12.323  11.609
27267W        W93808  24.715  16.050  12.383
27268W        W93809  23.633  13.314  12.296
27269W        W93810  42.818  22.771  10.463
27270W        W93811  24.170   1.866  11.179
27271W        W93812  32.054  19.784   4.394
27272W        W93813  34.002  10.428   0.355
27273W        W93814  42.557  13.178  13.517
27274W        W93815  12.681   1.533   4.098
27275W        W93816   9.352  22.704  13.508
27276W        W93817   8.424   2.463   0.487
27277W        W93818  31.057  22.586  13.087
27278W        W93819  13.821  12.813  12.938
27279W        W93820  40.270  30.634  11.709
27280W        W93821  36.484  24.201  12.498
27281W        W93822  20.405  39.205  10.371
27282W        W93823  12.038  33.700   0.955
27283W        W93824  39.840   4.715   2.463
27284W        W93825  16.540  16.583   1.892
27285W        W93826  30.384   4.260  14.907
27286W        W93827  37.972  17.652   1.012
27287W        W93828  36.007   3.589  11.176
27288W        W93829  35.519  29.653  10.538
27289W        W93830  16.817   2.865   1.169
27290W        W93831   0.707   8.862  14.081
27291W        W93832  43.445  10.511   4.285
27292W        W93833  26.224  23.240  14.904
27293W        W93834   5.155  43.503   2.662
27294W        W93835  42.553  40.288   0.923
27295W        W93836  33.158  17.610   1.352
27296W        W93837  11.295  21.477   3.145
27297W        W93838   0.967  39.486  12.920
27298W        W93839  11.857  39.044  14.694
27299W        W93840  13.259  39.273   2.879
27300W        W93841  44.691  44.503  11.038
27301W        W93842  39.384  31.469   0.842
27302W        W93843  32.067  11.701  14.843
27303W        W93844   7.323  26.062   0.540
27304W        W93845  27.050  44.084  12.435
27305W        W93846  38.323  44.531   1.718
27306W        W93847   7.716   0.356   0.644
27307W        W93848  19.933  25.776  12.971
27308W        W93849  44.405  10.799  10.580
27309W        W93850  21.560  37.671   0.908
27310W        W93851  17.781  14.107  13.985
27311W        W93852   0.493  25.521  13.870
27312W        W93853  12.908  43.853  14.743
27313W        W93854  30.508  32.962  14.978
27314W        W93855  35.029  16.651  14.915
27315W        W93856   4.759  40.616  13.150
27316W        W93857  14.593  33.289  10.638
27317W        W93858  35.888  38.799   3.220
27318W        W93859  19.820   2.983  10.857
27319W        W93860  24.605   3.731   3.520
27320W        W93861  42.028   0.384  12.394
27321W        W93862  23.591  15.177  11.570
27322W        W93863  26.597  19.516   3.727
27323W        W93864  18.665  30.953  12.117
27324W        W93865  25.711  43.309  10.477
27325W        W93866   6.299  23.870  12.099
27326W        W93867   2.459  37.591  12.940
27327W        W93868  28.876  42.507  12.092
27328W        W93869  20.054  31.569   2.256
27329W        W93870  39.078  26.584  11.955
27330W        W93871  40.388  26.063   2.401
27331W        W93872  28.456  22.532  13.181
27332W        W93873  22.219  14.040  12.121
27333W        W93874  30.247  38.324   1.241
27334W        W93875  11.745  41.970  12.004
27335W        W93876   1.733  11.843   4.376
27336W        W93877  33.912  12.472   5.126
27337W        W93878  21.625  23.363   0.923
27338W        W93879   3.757  32.953  11.170
27339W        W93880  42.941  42.279  10.724
27340W        W93881  23.220  28.350  11.881
27341W        W93882  12.457  18.815  14.572
27342W        W93883   6.363  32.992  11.956
27343W        W93884  44.351   8.356   4.588
27344W        W93885   0.211  35.761   2.088
27345W        W93886   7.262  24.136   4.485
27346W        W93887   0.313  18.785   3.235
27347W        W93888  12.671  42.245  11.014
27348W        W93889  30.275   5.927  14.226
27349W        W93890  26.921  38.463  10.956
27350W        W93891   1.909  33.599   3.471
27351W        W93892  31.609  38.530   0.319
27352W        W93893  40.993  42.978  13.470
27353W        W93894  32.457  27.106  11.176
27354W        W93895   2.702  37.581   2.810
27355W        W93896   1.023  24.738   2.806
27356W        W93897  29.914  10.561   0.616
27357W        W93898   0.528  26.050   4.667
27358W        W93899  19.830   3.897   1.880
27359W        W93900  31.314  35.308  14.043
27360W        W93901  19.104  17.715   3.596
27361W        W93902  41.121  44.906  12.077
27362W        W93903  38.538  36.541  13.541
27363W        W93904  13.246   1.043   0.698
27364W        W93905  33.342   7.529  14.518
27365W        W93906  29.898  10.722  10.548
27366W        W93907   4.858  20.537   3.102
27367W        W93908  24.072   0.745  14.410
27368W        W93909  27.960  22.481  11.095
27369W        W93910  43.065  16.329   3.992
27370W        W93911   9.748  23.689  10.442
27371W        W93912  20.393   9.450  11.565
27372W        W93913  13.875   8.172   2.247
27373W        W93914  29.056  37.448   3.477
27374W        W93915  14.181  43.664   2.175
27375W        W93916  29.180  25.670   3.742
27376W        W93917  27.146  37.979  11.501
27377W        W93918  40.778  24.027   2.320
27378W        W93919   4.806  36.761   1.220
27379W        W93920   1.439  19.232   1.202
27380W        W93921  19.741  34.055  14.073
27381W        W93922  21.957  22.833   2.793
27382W        W93923  26.052  28.732  10.595
27383W        W93924  18.105  22.076  13.784
27384W        W93925   3.262  18.712   3.103
27385W        W93926  27.647  22.299  12.862
27386W        W93927  36.142  33.134   1.798
27387W        W93928  38.853  12.462   3.733
27388W        W93929  21.962   4.518  11.556
27389W        W93930   0.815  43.469  12.579
27390W        W93931   1.019  39.816  11.629
27391W        W93932   0.161   5.109   4.457
27392W        W93933  25.530   5.599  12.388
27393W        W93934  18.049  26.033   3.383
27394W        W93935  19.586  19.608   1.903
27395W        W93936  16.360  14.106   0.953
27396W        W93937   6.927  36.314   2.911
27397W        W93938  30.788   3.195  10.784
27398W        W93939   5.432  44.729  10.335
27399W        W93940  22.479  17.291   0.010
27400W        W93941  41.042  19.495  12.044
27401W        W93942  44.013  16.602   0.707
27402W        W93943   9.319  12.161   9.907
27403W        W93944  39.623  33.651   4.487
27404W        W93945  24.755  26.325  12.084
27405W        W93946  43.598  34.915   3.685
27406W        W93947  42.274  39.450  10.628
27407W        W93948  11.443  26.073   0.345
27408W        W93949  13.918  21.981  11.986
27409W        W93950  11.966  12.416  14.244
27410W        W93951  34.344  26.552   2.382
27411W        W93952  41.418  36.141  13.505
27412W        W93953  11.031   4.247   0.302
27413W        W93954  18.018  27.095   2.813
27414W        W93955  35.744   7.312  14.854
27415W        W93956  29.609  41.996  11.180
27416W        W93957   7.892   9.110   4.679
27417W        W93958  37.298  27.026  12.879
27418W        W93959   7.845  40.038  12.883
27419W        W93960  40.849  14.090  10.880
27420W        W93961  43.254  21.484   2.599
27421W        W93962  35.557  31.392   4.601
27422W        W93963  15.830  37.763  14.191
27423W        W93964  14.323  35.299   2.867
27424W        W93965   6.945  27.117   2.845
27425W        W93966   2.826  41.819  10.628
27426W        W93967  27.931   4.261  13.880
27427W        W93968  10.814  15.468  13.332
27428W        W93969  34.568   9.272   1.432
27429W        W93970  39.425  43.355  13.671
27430W        W93971  15.720  24.687  12.598
27431W        W93972  42.526  38.539   4.155
27432W        W93973  12.549  26.469   0.360
27433W        W93974  30.979   3.375   0.735
27434W        W93975  25.940   7.983   1.769
27435W        W93976   0.726   6.419  13.140
27436W        W93977  15.314   7.183   3.689
27437W        W93978  37.436  26.548  10.237
27438W        W93979   8.570  23.070   4.742
27439W        W93980  35.435  32.418  11.632
27440W        W93981  35.377  27.244  10.769
27441W        W93982  44.702  39.240   2.433
27442W        W93983  24.112  11.371   0.719
27443W        W93984  41.345  22.334   2.828
27444W        W93985  44.517  22.328   0.464
27445W        W93986  18.852   5.970  11.616
27446W        W93987  31.860  23.989  14.897
27447W        W93988  32.003  42.733  11.581
27448W        W93989  44.774   6.689  12.435
27449W        W93990  39.431  43.564  14.723
27450W        W93991  10.260  43.299  12.801
27451W        W93992  15.713  30.846  12.447
27452W        W93993  28.370   5.493   3.745
27453W        W93994   1.495  35.527   1.460
27454W        W93995  14.889  42.755  12.294
27455W        W93996   7.488   9.425  14.297
27456W        W93997  18.193  30.746  12.729
27457W        W93998  25.486   2.139  13.469
27458W        W93999  36.240  37.248   3.284
27459W        W94000   5.762   0.288  12.446
27460W        W94001  39.956  14.319  12.923
27461W        W94002  35.290  38.941  12.810
27462W        W94003  16.085  26.849  11.555
27463W        W94004  36.226   7.620  11.152
27464W        W94005   6.581  32.506  12.807
27465W        W94006   6.349  27.420  11.675
27466W        W94007  41.791  18.078  12.191
27467W        W94008  41.846  13.111  13.938
27468W        W94009  31.797  32.608   1.360
27469W        W94010  13.847   5.782   0.044
27470W        W94011  24.189  31.008   2.928
27471W        W94012  31.653  21.569  12.119
27472W        W94013  42.809  36.109   2.384
27473W        W94014  23.104   0.364   2.540
27474W        W94015  44.347  27.127   3.443
27475W        W94016  21.300   8.263   0.974
27476W        W94017  14.738  37.082   3.697
27477W        W94018   4.936  20.518   3.640
27478W        W94019   5.125  21.348  13.147
27479W        W94020  30.824   1.830   4.211
27480W        W94021  20.141  31.802   1.781
27481W        W94022  28.032  20.016  14.717
27482W        W94023  35.043  16.057   0.449
27483W        W94024   2.909  10.655   2.726
27484W        W94025  13.227  27.222   1.706
27485W        W94026  43.981   8.247   0.366
27486W        W94027  19.830  26.264  12.084
27487W        W94028  12.696  14.648   0.820
27488W        W94029  20.222  11.744  12.176
27489W        W94030  19.299  15.198   4.094
27490W        W94031  31.741  35.147   3.596
27491W        W94032   6.591  43.488   3.051
27492W        W94033  35.006  18.658   0.404
27493W        W94034  39.471  28.222  14.229
27494W        W94035   6.395   0.851   2.726
27495W        W94036  41.379   9.496  12.524
27496W        W94037   2.961  38.515   4.381
27497W        W94038   9.683  17.618   1.842
27498W        W94039  22.684  22.542   4.131
27499W        W94040  31.830  11.568  13.582
27500W        W94041   1.282  28.688  13.050
27501W        W94042  30.630  18.673   0.455
27502W        W94043  32.009  10.118   3.065
27503W        W94044  32.186   7.423   2.254
27504W        W94045  36.445  25.668   0.729
27505W        W94046  18.323   0.564  13.463
27506W        W94047   8.799   5.467   3.995
27507W        W94048  18.570  22.628   2.717
27508W        W94049   0.327  17.744  11.663
27509W        W94050  11.058  10.007  11.200
27510W        W94051  42.961  30.150   4.837
27511W        W94052   4.304  28.543  12.070
27512W        W94053  39.983   6.609  10.637
27513W        W94054  25.231  44.724  14.299
27514W        W94055  15.212  26.044   0.527
27515W        W94056  25.994  41.257   1.779
27516W        W94057   0.533  10.975   1.371
27517W        W94058  31.974   9.628  11.105
27518W        W94059  33.399   0.469  10.489
27519W        W94060   4.642   5.476   1.315
27520W        W94061  16.191  26.647  12.418
27521W        W94062   1.038  32.078   0.383
27522W        W94063  30.287  16.654   3.174
27523W        W94064   3.285  43.605  13.512
27524W        W94065   4.011  10.313   3.321
27525W        W94066  12.629  36.552  13.108
27526W        W94067  43.820  23.652   1.050
27527W        W94068  43.032  40.249   2.299
27528W        W94069  38.759  43.092   3.666
27529W        W94070  30.155  30.770   4.475
27530W        W94071  42.418   5.016   3.655
27531W        W94072  42.043  39.530  11.070
27532W        W94073  11.813  19.107   1.048
27533W        W94074  26.444  33.002   2.585
27534W        W94075   2.168  42.176  10.801
27535W        W94076  44.512  40.038   2.524
27536W        W94077  22.777   1.631  13.110
27537W        W94078  36.172   7.342   3.830
27538W        W94079  12.791  24.300   0.454
27539W        W94080  26.481   3.346  14.932
27540W        W94081  23.634   7.480   5.154
27541W        W94082  27.411  32.975   3.656
27542W        W94083  22.465  37.451  12.986
27543W        W94084  26.294  27.123   4.511
27544W        W94085  40.849  17.169   4.228
27545W        W94086  40.495  42.852  11.687
27546W        W94087  17.391  23.583   4.531
27547W        W94088  26.501  41.769  14.257
27548W        W94089  42.836  39.247   3.683
27549W        W94090   0.742  16.625   0.307
27550W        W94091  39.082  24.738  12.581
27551W        W94092  40.070  13.786   0.369
27552W        W94093  20.838  39.447  13.460
27553W        W94094  31.584   7.615  13.091
27554W        W94095  38.316   6.332   2.386
27555W        W94096  40.309  42.779   1.044
27556W        W94097   4.454  33.936   3.456
27557W        W94098   0.985  33.848  12.400
27558W        W94099   6.696  17.552   1.865
27559W        W94100  23.290  15.607  11.104
27560W        W94101  30.568  25.883   0.989
27561W        W94102  32.417   6.293   4.517
27562W        W94103  32.411  28.489  14.922
27563W        W94104  37.658  13.100  14.348
27564W        W94105  16.306  39.909   2.568
27565W        W94106  16.762   6.559  13.583
27566W        W94107   2.471   8.296   1.978
27567W        W94108  11.815  28.180   2.309
27568W        W94109   0.255  28.099   4.103
27569W        W94110  21.869  23.962  14.523
27570W        W94111  42.082  37.306   0.563
27571W        W94112   8.680  38.871  12.883
27572W        W94113  18.613  34.279  10.340
27573W        W94114  16.313  20.945   4.081
27574W        W94115  13.287  11.774   1.631
27575W        W94116  32.210   7.683   0.859
27576W        W94117  36.870  29.355   3.013
27577W        W94118   6.804  35.247  14.373
27578W        W94119   0.042  44.344   1.665
27579W        W94120  34.162   9.863  12.934
27580W        W94121   8.779  19.005   3.642
27581W        W94122  44.991  11.656   1.200
27582W        W94123  39.468  16.169   0.330
27583W        W94124  25.118  34.300  13.484
27584W        W94125   2.401  16.290   2.086
27585W        W94126  10.092  36.502  13.642
27586W        W94127  42.289   2.510   4.099
27587W        W94128  13.848  29.165   3.653
27588W        W94129  31.926  26.807   0.920
27589W        W94130  42.245  36.573   1.715
27590W        W94131  34.668  21.795  13.977
27591W        W94132  31.364  32.072   4.972
27592W        W94133  27.156   0.236  13.405
27593W        W94134  15.866   6.676   1.270
27594W        W94135  42.495  12.905  11.532
27595W        W94136  43.916  35.957  14.809
27596W        W94137  10.129  24.357   2.503
27597W        W94138  40.248  12.810  14.821
27598W        W94139  36.022  25.542   2.148
27599W        W94140   6.862   8.238   2.857
27600W        W94141  36.993  38.523   3.777
27601W        W94142   9.796  38.459   0.880
27602W        W94143  14.065   3.271  10.722
27603W        W94144  39.049  17.148   0.474
27604W        W94145  39.076  26.980  12.722
27605W        W94146  30.593  12.796  13.823
27606W        W94147  18.711  34.342  12.903
27607W        W94148  23.423  11.453  12.693
27608W        W94149  34.462  20.318   2.382
27609W        W94150   7.616  26.522   9.840
27610W        W94151  42.923  33.904  11.161
27611W        W94152  36.392   7.643  11.848
27612W        W94153  31.588  16.363   0.238
27613W        W94154   4.728  30.141  13.946
27614W        W94155  35.097   7.773  14.059
27615W        W94156  17.105  41.061   1.900
27616W        W94157   8.315  24.243   4.373
27617W        W94158   1.988  20.148   2.567
27618W        W94159  12.064  23.927  10.743
27619W        W94160  33.891  38.864   4.143
27620W        W94161  30.073  27.773   2.799
27621W        W94162  42.941  31.197   4.512
27622W        W94163  36.623  35.126   1.438
27623W        W94164   2.445  42.745   1.306
27624W        W94165  14.721  20.134   4.069
27625W        W94166  30.153  42.002   5.077
27626W        W94167  36.782  30.211   2.727
27627W        W94168  27.416   8.989  11.240
27628W        W94169   8.647  26.710  13.356
27629W        W94170  17.999  18.647  11.547
27630W        W94171   0.862  20.409  11.820
27631W        W94172  38.414  41.122  11.416
27632W        W94173  23.768  31.346   0.869
27633W        W94174  29.934  38.849  12.901
27634W        W94175  11.634  13.855  12.844
27635W        W94176  24.251  22.537   4.169
27636W        W94177   2.945  17.062  11.967
27637W        W94178  42.325  10.822  12.777
27638W        W94179  14.091   3.193   2.892
27639W        W94180  27.300  20.008   3.529
27640W        W94181  12.583  26.105   2.210
27641W        W94182  32.018  32.096  11.162
27642W        W94183   5.447  42.923  13.990
27643W        W94184  33.767   2.193   1.759
27644W        W94185   3.875  22.118   5.471
27645W        W94186  12.187  32.645   2.321
27646W        W94187  27.652  21.008   4.518
27647W        W94188  32.378   9.453  13.317
27648W        W94189  34.261  43.422  13.156
27649W        W94190  15.127  11.163   3.118
27650W        W94191   6.301  44.820  14.341
27651W        W94192  18.554  21.828  10.968
27652W        W94193  16.081   7.834   1.812
27653W        W94194  26.435   0.079   0.986
27654W        W94195   2.544  33.046  12.897
27655W        W94196  20.024  38.940  13.320
27656W        W94197   3.457  41.881   3.919
27657W        W94198  33.450  31.061   2.040
27658W        W94199  10.829  26.872   4.670
27659W        W94200  40.772  42.899  10.442
27660W        W94201  24.625  25.449   2.704
27661W        W94202  37.831   3.730   3.826
27662W        W94203  32.854  28.984  12.751
27663W        W94204  31.905  13.590   2.014
27664W        W94205  17.224  20.023  10.780
27665W        W94206  30.227  12.304  11.893
27666W        W94207  12.170  36.309   3.459
27667W        W94208   8.751   9.697  14.172
27668W        W94209   8.750  12.769  12.918
27669W        W94210   2.822  30.374   4.975
27670W        W94211  19.960  21.636   0.942
27671W        W94212  18.764  21.011   3.662
27672W        W94213  39.447  11.144   9.800
27673W        W94214  40.835  41.520  12.029
27674W        W94215   8.357  34.811  11.017
27675W        W94216  15.137  20.586  12.001
27676W        W94217  25.730  29.156   2.309
27677W        W94218  11.841  16.041  13.824
27678W        W94219  15.979   4.835   1.408
27679W        W94220  31.745   5.395  10.592
27680W        W94221  34.508   7.757   0.416
27681W        W94222   0.004  39.513   4.440
27682W        W94223  32.362   6.868  12.919
27683W        W94224  35.308  17.311  14.422
27684W        W94225  38.967   9.957   0.074
27685W        W94226  41.050  34.556   1.684
27686W        W94227   6.269  36.964   4.562
27687W        W94228   4.417  16.621   0.933
27688W        W94229  28.033  16.173  13.616
27689W        W94230  27.759  11.612   9.960
27690W        W94231  16.295   3.830  14.903
27691W        W94232   7.756  25.792  13.075
27692W        W94233  42.255  33.997  12.229
27693W        W94234  36.591   8.123  14.704
27694W        W94235  34.499  33.990   4.152
27695W        W94236  30.495  10.785  14.742
27696W        W94237  39.492  32.482   0.760
27697W        W94238  26.006  15.876  14.958
27698W        W94239  35.980  44.260   4.073
27699W        W94240   0.725  12.208   1.982
27700W        W94241  10.047  15.728  10.609
27701W        W94242   9.003  16.095   3.736
27702W        W94243  19.830  36.631   3.646
27703W        W94244   7.200  35.171  11.263
27704W        W94245  37.014  36.100   4.508
27705W        W94246  38.887  27.636   0.744
27706W        W94247  41.372  40.537   2.233
27707W        W94248  44.275  34.530  14.833
27708W        W94249   5.239   2.939   2.637
27709W        W94250  25.480  20.306   0.260
27710W        W94251  27.658  24.338   2.452
27711W        W94252   7.480   6.789  14.524
27712W        W94253  33.269  38.086  11.402
27713W        W94254  27.938  36.003  13.094
27714W        W94255  33.882  35.690   4.882
27715W        W94256  36.816   0.879  11.123
27716W        W94257  16.300   2.158   1.447
27717W        W94258   0.053  12.225  13.069
27718W        W94259  28.949  19.184  12.865
27719W        W94260  35.370  14.914  10.779
27720W        W94261   2.307  12.367  11.292
27721W        W94262  36.943  27.316   0.782
27722W        W94263   8.819  20.945   2.260
27723W        W94264  19.697  18.581  10.825
27724W        W94265  15.608  18.667   1.791
27725W        W94266  32.304  26.484   0.777
27726W        W94267  43.430  44.904  11.742
27727W        W94268  30.386  36.604  11.744
27728W        W94269  38.780  33.466   4.613
27729W        W94270   8.219  15.008   0.275
27730W        W94271  23.178  14.677   2.435
27731W        W94272  18.882   5.786  14.493
27732W        W94273   5.706  13.395  12.461
27733W        W94274  43.771  24.434   0.171
27734W        W94275   8.594   4.986   4.637
27735W        W94276  13.866  31.607   1.786
27736W        W94277  21.078  25.751   4.053
27737W        W94278  41.435  16.079   1.271
27738W        W94279  33.945  15.835   2.610
27739W        W94280  15.254  35.613  12.870
27740W        W94281  17.276   8.674  11.167
27741W        W94282  32.621  13.426   2.324
27742W        W94283  19.748  11.497   1.150
27743W        W94284  30.308   9.781   2.587
27744W        W94285   5.701  36.180  14.893
27745W        W94286  17.663  43.870  11.563
27746W        W94287  13.738   7.758  10.792
27747W        W94288  20.754  27.498   0.436
27748W        W94289  29.986   3.672  14.273
27749W        W94290   4.456  28.649   4.727
27750W        W94291   7.112  37.349   2.213
27751W        W94292  14.764  15.911   1.842
27752W        W94293  40.005  34.998  12.386
27753W        W94294  42.359  38.999   3.927
27754W        W94295  11.183  15.867  13.663
27755W        W94296   5.660  40.355  13.978
27756W        W94297   2.894   4.613  11.961
27757W        W94298  42.228   3.686   3.279
27758W        W94299  18.718  18.528  14.291
27759W        W94300  27.409  14.760  13.548
27760W        W94301  39.272   4.667  10.132
27761W        W94302  28.282  17.703   1.767
27762W        W94303  18.474   1.746  11.213
27763W        W94304  20.001  31.478  14.719
27764W        W94305   0.716   2.367   1.823
27765W        W94306  12.132  33.999  11.422
27766W        W94307  24.572  11.140   3.142
27767W        W94308  15.442  11.381   1.769
27768W        W94309  23.042  34.326  13.963
27769W        W94310   7.665   8.078   0.478
27770W        W94311  33.661   7.130  14.977
27771W        W94312  43.634  23.950   0.278
27772W        W94313  18.262  28.885  10.320
27773W        W94314  26.703   3.448  11.311
27774W        W94315  32.973  13.118   1.222
27775W        W94316  19.584   6.284  10.791
27776W        W94317  38.803  34.579  11.223
27777W        W94318  18.045  13.270  11.159
27778W        W94319  32.694  33.079   1.243
27779W        W94320  21.819  37.971   2.126
27780W        W94321  14.127  22.444  14.100
27781W        W94322  27.428  12.294  13.938
27782W        W94323   8.306  33.691   2.286
27783W        W94324  27.799  14.194   2.241
27784W        W94325  42.567  39.407   3.163
27785W        W94326  35.385  23.942   2.423
27786W        W94327  24.354   8.213   3.667
27787W        W94328  35.193  24.658  13.815
27788W        W94329  18.410  24.974  14.944
27789W        W94330  17.757  33.160   1.150
27790W        W94331  31.764  19.217  10.810
27791W        W94332  35.363   1.313  13.132
27792W        W94333  44.842  29.686   4.247
27793W        W94334  20.237  39.102   4.178
27794W        W94335  12.082   7.423  12.123
27795W        W94336   9.222  41.482  10.755
27796W        W94337  26.695   3.179   5.014
27797W        W94338   6.768  38.273   1.966
27798W        W94339   2.643  43.252  14.192
27799W        W94340  22.074  23.292   4.200
27800W        W94341  39.956   3.950  11.461
27801W        W94342  18.444  44.932  14.503
27802W        W94343  12.084  18.961  10.737
27803W        W94344  30.138  24.691  10.653
27804W        W94345  38.242  28.596  14.400
27805W        W94346  43.757  29.374   1.236
27806W        W94347  34.683  20.047  13.129
27807W        W94348  27.656   7.163   3.189
27808W        W94349  31.088  29.625   3.569
27809W        W94350  14.726  10.802  12.955
27810W        W94351  16.349  41.477   0.915
27811W        W94352  29.371  28.498   3.673
27812W        W94353  19.460  20.105   1.697
27813W        W94354   5.125  24.796  12.465
27814W        W94355  29.625   2.720  14.077
27815W        W94356  20.033  39.326  10.707
27816W        W94357  36.863  20.600   2.765
27817W        W94358   8.590   4.193   2.850
27818W        W94359  28.085  41.219   9.993
27819W        W94360  30.565  21.093   3.194
27820W        W94361  16.128  21.211  11.578
27821W        W94362   8.257  14.794   3.366
27822W        W94363   2.400  21.135   4.269
27823W        W94364  18.673  24.719  13.985
27824W        W94365   3.442  30.491   3.252
27825W        W94366  31.194  34.904  13.655
27826W        W94367  30.987  21.757  14.428
27827W        W94368   3.035  35.967  11.602
27828W        W94369  30.497  33.575  14.463
27829W        W94370  42.206   0.930  11.499
27830W        W94371   5.053  17.643  14.035
27831W        W94372  16.140  33.082   4.639
27832W        W94373  28.442  33.040   2.769
27833W        W94374  35.138  28.115  12.761
27834W        W94375  28.986  20.824   0.246
27835W        W94376  31.852  23.640  11.717
27836W        W94377   8.721  16.774  11.593
27837W        W94378   1.398   1.335  13.546
27838W        W94379  28.094   7.068   1.223
27839W        W94380   8.279   2.887  12.084
27840W        W94381  16.698  43.732   0.849
27841W        W94382  19.279  12.158  12.093
27842W        W94383   6.114  40.949   2.319
27843W        W94384   1.787  16.755  14.307
27844W        W94385   2.656  24.485  10.757
27845W        W94386  10.087  26.506   0.399
27846W        W94387   3.195   0.888  14.693
27847W        W94388  32.450  15.124   3.106
27848W        W94389  17.357   9.287   2.634
27849W        W94390  11.210  44.728  14.869
27850W        W94391   3.216  25.201   3.627
27851W        W94392  14.161   4.561   4.705
27852W        W94393   8.898  18.536   1.661
27853W        W94394   8.391  35.640   0.364
27854W        W94395  13.616  13.355   4.621
27855W        W94396  30.411  16.064  12.374
27856W        W94397   1.875  25.582   0.776
27857W        W94398  34.886  28.547  11.924
27858W        W94399  10.263   6.853   4.918
27859W        W94400  25.378  13.142  11.114
27860W        W94401  16.663  43.842   3.061
27861W        W94402  37.254   9.834   0.509
27862W        W94403  33.823   2.492  13.010
27863W        W94404  20.255   8.825  14.662
27864W        W94405  30.193  41.283   1.661
27865W        W94406   4.435  32.077  11.431
27866W        W94407   7.752  30.839   1.363
27867W        W94408  15.184  39.979  14.944
27868W        W94409  10.245  34.007   1.033
27869W        W94410  40.463  24.462   2.167
27870W        W94411  15.241  31.428  10.240
27871W        W94412  16.769   1.900   1.335
27872W        W94413  43.462  21.999  12.625
27873W        W94414  34.390  10.040   4.101
27874W        W94415  27.581  36.880   4.615
27875W        W94416  12.453  29.486   2.462
27876W        W94417  21.585  28.014   2.041
27877W        W94418  39.101  44.682  10.180
27878W        W94419  19.799  18.083   3.187
27879W        W94420  36.016  36.990   2.231
27880W        W94421  32.998  43.848  12.076
27881W        W94422  17.218  36.630   3.128
27882W        W94423   4.318  12.318   4.653
27883W        W94424   7.303  18.202   2.761
27884W        W94425  15.822  21.717   4.542
27885W        W94426  23.947  44.038   3.985
27886W        W94427  33.636  10.520  11.359
27887W        W94428  14.377  44.780  11.297
27888W        W94429  30.884   6.698   2.997
27889W        W94430  16.604  37.964  10.663
27890W        W94431  33.725   0.478   2.339
27891W        W94432  17.543   5.526  12.478
27892W        W94433  11.786  17.301   1.267
27893W        W94434  38.027   6.028  13.166
27894W        W94435  20.154  43.907   0.990
27895W        W94436   6.929  34.369   4.351
27896W        W94437   5.258  10.777   4.101
27897W        W94438   4.378  31.887   0.302
27898W        W94439   6.560  24.567   1.888
27899W        W94440  33.477  21.436  12.441
27900W        W94441  44.836  26.650   2.670
27901W        W94442  17.706  42.784  10.689
27902W        W94443  29.321  15.888   4.185
27903W        W94444  17.674  43.445   0.314
27904W        W94445  12.306  27.034  11.373
27905W        W94446  34.343  36.094  14.274
27906W        W94447  41.802  35.503  13.990
27907W        W94448  12.831  27.666   3.370
27908W        W94449  29.585  35.975   4.257
27909W        W94450  41.826  14.708   0.873
27910W        W94451   6.641   8.740  11.073
27911W        W94452   7.786  18.188   3.139
27912W        W94453  36.006  11.944  12.650
27913W        W94454  21.699  27.225  11.998
27914W        W94455  38.313  39.041   3.745
27915W        W94456  35.514  19.967  13.100
27916W        W94457  32.506  14.865  14.258
27917W        W94458  31.771  19.529  12.958
27918W        W94459  43.600  29.570   0.602
27919W        W94460  38.747   4.920   1.312
27920W        W94461   0.837   5.935  12.600
27921W        W94462  44.813  24.203  13.683
27922W        W94463  43.922  34.116   4.829
27923W        W94464  14.309   2.855   2.133
27924W        W94465  37.024   0.929  13.850
27925W        W94466   6.276  15.505  13.106
27926W        W94467  24.155  10.111  10.956
27927W        W94468  30.550   4.165   4.573
27928W        W94469   6.524  22.290  10.482
27929W        W94470  40.169  17.236   3.679
27930W        W94471   5.910  15.532   2.215
27931W        W94472   4.035  40.561  12.894
27932W        W94473  22.175  28.082  13.483
27933W        W94474  12.258  38.004   3.250
27934W        W94475  33.522  24.335  11.093
27935W        W94476  11.025  12.257  14.413
27936W        W94477   8.757  33.967   2.216
27937W        W94478   9.934  33.592   4.458
27938W        W94479  27.486  17.996  12.528
27939W        W94480  16.591  39.263   4.550
27940W        W94481   7.378  39.530   0.729
27941W        W94482  37.953   7.721   3.196
27942W        W94483  26.720   8.717  11.558
27943W        W94484  30.687  17.308  11.697
27944W        W94485  44.986  13.582   3.643
27945W        W94486  43.262   6.706   2.710
27946W        W94487  15.351  12.458  11.957
27947W        W94488   2.530  10.770   0.395
27948W        W94489   7.927   0.970  12.730
27949W        W94490   5.953  11.315   3.658
27950W        W94491   9.170  42.836   2.863
27951W        W94492  36.909  36.090   1.103
27952W        W94493  37.809  33.529  13.539
27953W        W94494   0.368  36.377  13.901
27954W        W94495  21.127  26.075   0.758
27955W        W94496  22.071   6.622  13.584
27956W        W94497  17.535  33.353   3.795
27957W        W94498  11.988   5.257   1.206
27958W        W94499  43.200   3.441  13.980
27959W        W94500  26.183  37.999  13.520
27960W        W94501  41.315  36.840  10.802
27961W        W94502  38.699  33.616   4.021
27962W        W94503  18.584  29.466   2.300
27963W        W94504  35.809  24.487   0.692
27964W        W94505  26.545  10.283  11.543
27965W        W94506  30.675   8.875   1.959
27966W        W94507   7.005  44.455   0.465
27967W        W94508  31.389  39.795   2.321
27968W        W94509  36.854   9.385   1.992
27969W        W94510   5.372  36.348  10.733
27970W        W94511  28.503  17.546   3.922
27971W        W94512  12.519  28.214  13.037
27972W        W94513  11.198  23.125  14.155
27973W        W94514  31.114  27.978   1.887
27974W        W94515  20.462   9.826  12.976
27975W        W94516  30.941  16.115   4.593
27976W        W94517  31.954  40.913  10.746
27977W        W94518  14.676   6.586  11.149
27978W        W94519   6.937  36.861   1.834
27979W        W94520   6.570  33.717  11.762
27980W        W94521  32.505  28.087   4.197
27981W        W94522  10.200  37.786   4.038
27982W        W94523  18.750   9.585   3.774
27983W        W94524  16.799   3.676  14.893
27984W        W94525  29.927  44.923  14.900
27985W        W94526  24.522   2.794  13.471
27986W        W94527   2.241  31.353   1.699
27987W        W94528  14.709  11.327  12.188
27988W        W94529   4.771  30.020  14.457
27989W        W94530  37.269   1.867   2.270
27990W        W94531  29.099   6.448   2.529
27991W        W94532  18.979  34.388  12.464
27992W        W94533   4.490  15.101  12.465
27993W        W94534   1.004  19.603  12.133
27994W        W94535   6.106  10.340  11.322
27995W        W94536  12.482  29.637   1.972
27996W        W94537   4.430  24.265   0.728
27997W        W94538  44.954  15.838  13.926
27998W        W94539  35.564  14.114   3.710
27999W        W94540  21.219  15.647  14.778
28000W        W94541   6.298  31.096   3.060
28001W        W94542  41.376  25.717   1.165
28002W        W94543  15.278  39.712   2.270
28003W        W94544  23.107   9.827  14.705
28004W        W94545  21.646  19.082  14.874
28005W        W94546   6.257   5.183   1.690
28006W        W94547   7.282  33.800  13.133
28007W        W94548   3.645  11.365  11.199
28008W        W94549  13.399  16.150   2.355
28009W        W94550  15.588  11.647   3.675
28010W        W94551  36.921  34.027   3.930
28011W        W94552  43.713  14.428   4.490
28012W        W94553  25.723  33.184   0.919
28013W        W94554  16.046   2.201  12.212
28014W        W94555   7.855   8.390   2.699
28015W        W94556   1.345  30.301  14.531
28016W        W94557  17.181  37.214  12.877
28017W        W94558  33.296  39.879   3.758
28018W        W94559  15.707  17.071  14.173
28019W        W94560  40.816   6.213  12.826
28020W        W94561  44.995  19.846  11.949
28021W        W94562  16.868   5.902  14.291
28022W        W94563  39.097  29.179   4.353
28023W        W94564  34.203  42.754  11.173
28024W        W94565  41.954  23.000  11.047
28025W        W94566  14.793   7.685  14.424
28026W        W94567  43.387  18.059   1.425
28027W        W94568  21.288   0.210   9.772
28028W        W94569  17.109  31.611  13.974
28029W        W94570  40.394   9.180   0.421
28030W        W94571  27.100  40.160   1.659
28031W        W94572  36.500  20.537  13.196
28032W        W94573  10.107  34.529   1.713
28033W        W94574  42.561   6.864   0.732
28034W        W94575   8.976  37.084   1.299
28035W        W94576  40.308  30.147  11.567
28036W        W94577   4.659   6.056  12.155
28037W        W94578   5.680   1.460   2.666
28038W        W94579  44.243   2.500  10.427
28039W        W94580  36.927  40.622  13.111
28040W        W94581  36.965   5.331  11.703
28041W        W94582  11.369  44.125   2.294
28042W        W94583  11.244  11.613   1.362
28043W        W94584  28.477  32.048   1.218
28044W        W94585   2.505  32.007   0.298
28045W        W94586  36.385   3.279   3.301
28046W        W94587  24.510  30.740   4.606
28047W        W94588  20.660  43.493   0.337
28048W        W94589  23.048  16.418  11.844
28049W        W94590  16.310  13.801  14.531
28050W        W94591   5.601  23.624  11.119
28051W        W94592   6.111  38.407  12.970
28052W        W94593   2.900  40.046   3.379
28053W        W94594  42.429  43.266   3.429
28054W        W94595  15.576   6.254  10.491
28055W        W94596  31.442   1.967   2.222
28056W        W94597  21.006  30.544   2.852
28057W        W94598   8.234  28.752   1.955
28058W        W94599  15.573  44.918   4.621
28059W        W94600  22.004  20.783  14.354
28060W        W94601  28.116   0.099   1.706
28061W        W94602  16.556  13.740   2.570
28062W        W94603   1.083  37.535  13.989
28063W        W94604  43.538  21.828   2.336
28064W        W94605  26.023   4.892   4.148
28065W        W94606  27.455   3.244  14.943
28066W        W94607  13.580  35.070   1.228
28067W        W94608  29.741   3.819   4.705
28068W        W94609  12.082   3.085  11.159
28069W        W94610  42.904  39.722   4.481
28070W        W94611  38.686  34.037  11.236
28071W        W94612   3.798  12.377   2.588
28072W        W94613   6.408  23.569  10.737
28073W        W94614  16.350  37.723   4.162
28074W        W94615  27.482  12.904  10.322
28075W        W94616  10.869  35.453  13.974
28076W        W94617  22.194  19.666   3.130
28077W        W94618  25.664  33.487  14.005
28078W        W94619  36.381  25.575   1.240
28079W        W94620  38.673   6.068  14.374
28080W        W94621  19.648  29.220  14.882
28081W        W94622  39.413  43.369  14.234
28082W        W94623  36.844   0.509  12.601
28083W        W94624   3.433  18.305   3.447
28084W        W94625  10.133  41.957  10.654
28085W        W94626  22.123  24.565  11.725
28086W        W94627  26.982  24.089   3.495
28087W        W94628   3.369  12.296   1.726
28088W        W94629  38.159  42.120  14.354
28089W        W94630  38.547  28.375   0.458
28090W        W94631  13.540  14.268   2.370
28091W        W94632  44.546  39.390  14.288
28092W        W94633  23.662  43.689  11.980
28093W        W94634  28.536  24.557   0.946
28094W        W94635  27.232  27.805   2.305
28095W        W94636  25.659   8.015   2.413
28096W        W94637  42.541  38.238  13.922
28097W        W94638  30.845  35.189   3.135
28098W        W94639  23.415  29.810   1.001
28099W        W94640  42.989  40.658   5.017
28100W        W94641  27.597  17.113   1.906
28101W        W94642  32.639  16.142   4.054
28102W        W94643  36.603   1.214   2.251
28103W        W94644  18.474   8.723   4.490
28104W        W94645  34.503  29.238   0.270
28105W        W94646  41.042  21.950   2.129
28106W        W94647   2.756  22.147  12.665
28107W        W94648  42.679   5.300   1.776
28108W        W94649  34.469  10.156  11.882
28109W        W94650  26.674   7.182  14.954
28110W        W94651  23.563  18.517   0.677
28111W        W94652  44.995  23.719   4.670
28112W        W94653  30.015  37.793   1.535
28113W        W94654  17.562   2.307  14.153
28114W        W94655   8.397  35.226   0.652
28115W        W94656  22.633  14.164   3.692
28116W        W94657  21.285  17.547   9.960
28117W        W94658  11.703  26.447  13.905
28118W        W94659  39.074   1.792   4.497
28119W        W94660  23.967  11.154  14.263
28120W        W94661   5.475   8.874  12.978
28121W        W94662  25.960  35.145   3.670
28122W        W94663  13.605  14.199  13.649
28123W        W94664  44.564   9.204  10.658
28124W        W94665  36.291  20.144  13.534
28125W        W94666  34.906  21.026   1.928
28126W        W94667  18.029  33.107   2.137
28127W        W94668  20.680  28.894   0.239
28128W        W94669  40.889  31.001   4.674
28129W        W94670  39.394  33.551   1.747
28130W        W94671  33.680  39.584   2.170
28131W        W94672   2.177  23.317  13.886
28132W        W94673  12.878  32.055  10.789
28133W        W94674  26.923  27.589   4.337
28134W        W94675  39.399  10.112   0.588
28135W        W94676   0.836  44.618   3.380
28136W        W94677   2.454   4.528   3.763
28137W        W94678  13.077  17.663  12.572
28138W        W94679  43.443  35.948  10.696
28139W        W94680  40.888  26.653  10.687
28140W        W94681  44.096  32.756  11.152
28141W        W94682  32.887  27.268  13.493
28142W        W94683  28.529   8.187  12.026
28143W        W94684  30.383  41.398  10.132
28144W        W94685  32.323  35.713  10.282
28145W        W94686   5.296  26.707  11.664
28146W        W94687  19.642  44.912  12.105
28147W        W94688  33.170  42.920  12.130
28148W        W94689  40.334  23.840  11.735
28149W        W94690  35.559  18.644   0.923
28150W        W94691   0.249  12.514  11.237
28151W        W94692  16.052  40.296   1.268
28152W        W94693  12.822  38.793  13.311
28153W        W94694  14.403  11.152   4.021
28154W        W94695  31.888  31.887   1.791
28155W        W94696  22.488  18.463   1.846
28156W        W94697  15.058  29.737   3.664
28157W        W94698  25.729  43.781  10.842
28158W        W94699   6.449  12.399   4.200
28159W        W94700  33.169  18.553   3.151
28160W        W94701  31.620  35.990   1.455
28161W        W94702   2.418  37.947   3.351
28162W        W94703  28.204  38.986   1.947
28163W        W94704   3.334  43.785   3.681
28164W        W94705  39.067  41.943  12.625
28165W        W94706  36.962  12.963  10.887
28166W        W94707  16.662  28.156  12.610
28167W        W94708  29.581  16.132   3.245
28168W        W94709  25.655  19.191   4.443
28169W        W94710  40.772  10.550  11.968
28170W        W94711  17.163  25.027   4.707
28171W        W94712  34.665   0.589   0.235
28172W        W94713  31.881  21.371   3.249
28173W        W94714   2.047  33.101   0.348
28174W        W94715   7.171   5.983  14.180
28175W        W94716   2.311  19.735  13.585
28176W        W94717  22.500   8.214   4.558
28177W        W94718  37.262  42.413   1.434
28178W        W94719   2.208  18.653   1.962
28179W        W94720   9.598  26.689   1.026
28180W        W94721  26.507  30.828  13.048
28181W        W94722  40.294  25.150  14.590
28182W        W94723  13.178   4.374  14.310
28183W        W94724  22.015  29.915  13.670
28184W        W94725  24.029   6.482   1.713
28185W        W94726  23.037  26.393  12.540
28186W        W94727   6.233  40.279   3.091
28187W        W94728   9.555  21.730   0.279
28188W        W94729  33.911  22.442  12.133
28189W        W94730  40.436   7.256   3.590
28190W        W94731  17.983  32.780   0.857
28191W        W94732   6.314   9.669  12.047
28192W        W94733  18.631   4.381   0.253
28193W        W94734  35.189  13.647  11.655
28194W        W94735  43.036   2.418  14.016
28195W        W94736   3.466   9.670   3.888
28196W        W94737  34.321   8.633  11.077
28197W        W94738  31.972   0.827  11.567
28198W        W94739  14.278  36.015   0.745
28199W        W94740  35.597  44.151  13.945
28200W        W94741  30.735  36.970  10.569
28201W        W94742  28.981  42.565  10.588
28202W        W94743  41.806  12.158  11.392
28203W        W94744   7.800  43.446   0.850
28204W        W94745  17.812  31.014  14.571
28205W        W94746  12.405  34.981  10.459
28206W        W94747   7.645   1.791  14.678
28207W        W94748  40.877   8.429   4.049
28208W        W94749  31.008  32.801   4.376
28209W        W94750   9.203  39.000  13.446
28210W        W94751  26.001  42.154  11.727
28211W        W94752   8.069  17.807  10.683
28212W        W94753  27.465  15.163   2.383
28213W        W94754  43.300  14.870  14.886
28214W        W94755   7.823  26.422   5.935
28215W        W94756  34.704  35.172  13.356
28216W        W94757  23.756  16.819   1.858
28217W        W94758   7.645  41.137   3.044
28218W        W94759  19.299  36.760  13.893
28219W        W94760  30.949  19.554  12.304
28220W        W94761   1.525  34.858  11.517
28221W        W94762  27.873  34.073  13.235
28222W        W94763  39.951  35.663  14.503
28223W        W94764  43.268  18.638  13.484
28224W        W94765   1.815  26.915   0.858
28225W        W94766  18.214   3.248   0.532
28226W        W94767  35.653  36.805  13.105
28227W        W94768  38.481   9.008  13.420
28228W        W94769  14.285   1.540  12.534
28229W        W94770   7.470   5.780   2.430
28230W        W94771  14.586  26.209   1.401
28231W        W94772   3.970  25.988   2.732
28232W        W94773  18.039  30.325  12.465
28233W        W94774  12.271  15.672  14.927
28234W        W94775  21.057  10.116  12.211
28235W        W94776  14.527  19.460   0.064
28236W        W94777  30.356  10.248   2.269
28237W        W94778  13.180  38.650   1.445
28238W        W94779  23.830   7.306   1.953
28239W        W94780  33.442  25.495   2.789
28240W        W94781  31.861   4.495  14.426
28241W        W94782  14.317  28.640  10.747
28242W        W94783   2.403  20.967  11.572
28243W        W94784  28.593  34.859   1.668
28244W        W94785  10.682  25.701  13.391
28245W        W94786   0.034  14.349  12.910
28246W        W94787  34.536  37.961  13.854
28247W        W94788  38.867   8.705   3.843
28248W        W94789   6.014  32.031   0.696
28249W        W94790  13.219  20.240   0.449
28250W        W94791  39.367   5.731   4.702
28251W        W94792  34.169  23.463  13.002
28252W        W94793  17.587  13.822  14.973
28253W        W94794  14.219   9.482   0.855
28254W        W94795  40.859  30.526  14.345
28255W        W94796   3.748  28.795  12.630
28256W        W94797  22.571  15.279   2.012
28257W        W94798  38.286  18.114  12.552
28258W        W94799  41.073  37.804  14.957
28259W        W94800  43.278  12.976   9.872
28260W        W94801  19.704  31.092  14.856
28261W        W94802  13.287  25.001  12.064
28262W        W94803  15.743  39.981   3.051
28263W        W94804  27.308  28.928  13.061
28264W        W94805  38.975  39.340   1.709
28265W        W94806  10.780   4.340   4.611
28266W        W94807  32.606   7.631   4.756
28267W        W94808  16.200  37.959   2.452
28268W        W94809  31.128  21.106   9.631
28269W        W94810  26.435  39.793  13.733
28270W        W94811  32.506  28.874   0.321
28271W        W94812  32.283  37.450  12.308
28272W        W94813  27.224  19.536  10.521
28273W        W94814  22.613  38.946  10.408
28274W        W94815   1.788  12.834  14.392
28275W        W94816  16.187  16.299  11.925
28276W        W94817  34.926  32.837  13.941
28277W        W94818  28.525  15.126  12.010
28278W        W94819  21.996  19.129   2.380
28279W        W94820   8.631   9.811   0.850
28280W        W94821  43.300  27.595  14.021
28281W        W94822  21.118  10.167   2.188
28282W        W94823  40.038  22.742   4.349
28283W        W94824   4.176  42.863  12.943
28284W        W94825   0.840  23.671  12.576
28285W        W94826  26.631  33.121  13.173
28286W        W94827  28.729  34.243   1.486
28287W        W94828  43.535   3.758   2.858
28288W        W94829   5.854  23.891   4.883
28289W        W94830  31.965  22.331  10.376
28290W        W94831   3.243  42.834   1.450
28291W        W94832  32.424  19.213   0.428
28292W        W94833  37.542   9.465  13.419
28293W        W94834  22.460  29.521  14.378
28294W        W94835  18.044   6.167  12.097
28295W        W94836   8.860  30.236   4.697
28296W        W94837   3.903  41.941  13.867
28297W        W94838  39.209   4.820  12.470
28298W        W94839   4.007  38.007  14.286
28299W        W94840  28.971  10.068  12.460
28300W        W94841  43.532  34.134   2.645
28301W        W94842  37.017  35.468   2.199
28302W        W94843  17.138  43.986  14.846
28303W        W94844  40.379  35.880  14.314
28304W        W94845   0.107  20.816  10.718
28305W        W94846   9.875  31.635   0.792
28306W        W94847  36.827  30.049   1.864
28307W        W94848   6.441  33.991   2.743
28308W        W94849  43.937  44.554  12.504
28309W        W94850  41.158   3.670  13.930
28310W        W94851  14.628   6.050   2.835
28311W        W94852  17.814  11.258  11.019
28312W        W94853  11.503  10.375   3.561
28313W        W94854  22.119  32.082  12.416
28314W        W94855  41.588   1.952   4.587
28315W        W94856  37.462   9.178  14.708
28316W        W94857  26.966  12.017  14.003
28317W        W94858  29.925  13.761   1.232
28318W        W94859  28.003  35.595  11.292
28319W        W94860  23.580  34.418  10.757
28320W        W94861  31.363  41.921   3.833
28321W        W94862  12.697  22.687  10.840
28322W        W94863  35.935   5.153   1.262
28323W        W94864  25.647  31.069  11.471
28324W        W94865  12.573   0.518  13.597
28325W        W94866  26.133  24.173  14.714
28326W        W94867   2.065   3.279   2.282
28327W        W94868   4.396  15.852  13.903
28328W        W94869   4.280  34.375  11.512
28329W        W94870  36.939  23.705  11.157
28330W        W94871  10.578  18.200  13.847
28331W        W94872  23.257  19.618   0.292
28332W        W94873  15.881   8.738  10.672
28333W        W94874  11.394  11.258  13.965
28334W        W94875  20.213   0.639  11.451
28335W        W94876  19.142   4.198   2.233
28336W        W94877  23.997  32.030   4.395
28337W        W94878  10.545  13.172   1.895
28338W        W94879  34.125  40.541   4.593
28339W        W94880  17.383  24.981   3.282
28340W        W94881  25.112  20.096   2.383
28341W        W94882  30.432   3.255  13.987
28342W        W94883  38.305  23.898  14.218
28343W        W94884   7.815  44.734  14.820
28344W        W94885  22.493  16.146   1.426
28345W        W94886   6.015  29.689  11.977
28346W        W94887  37.918  30.114   4.151
28347W        W94888  39.648  43.525  12.242
28348W        W94889  18.204  12.580  12.827
28349W        W94890  36.402   4.239  11.661
28350W        W94891  42.823  23.164   4.855
28351W        W94892  30.116  10.734  13.296
28352W        W94893  23.529  27.951   1.776
28353W        W94894  32.976  26.895   4.527
28354W        W94895  40.732  14.551   1.804
28355W        W94896   3.262  18.354  10.551
28356W        W94897  14.114  10.292   3.969
28357W        W94898  23.092  21.183   2.671
28358W        W94899  33.939  11.734  10.207
28359W        W94900   1.146  30.112  10.355
28360W        W94901   4.237  19.311  12.095
28361W        W94902   9.298  44.816  14.069
28362W        W94903  19.781   0.509   2.725
28363W        W94904   8.931   2.282  11.990
28364W        W94905  24.685   2.323   0.468
28365W        W94906  22.038   2.657   5.028
28366W        W94907  41.255   3.858   2.950
28367W        W94908  31.901  39.802  14.115
28368W        W94909   0.823  36.349   4.252
28369W        W94910  34.370  10.367  12.335
28370W        W94911   6.967  25.169   1.672
28371W        W94912  30.846  28.059  12.122
28372W        W94913  31.320  37.859  12.946
28373W        W94914  42.863  43.794   2.264
28374W        W94915   4.398  20.163  12.548
28375W        W94916  14.723   8.217   2.693
28376W        W94917  37.825  27.986   4.593
28377W        W94918  25.852  34.364   2.254
28378W        W94919   0.277   2.457   4.638
28379W        W94920   8.736   2.462  10.684
28380W        W94921  26.575   4.783  12.898
28381W        W94922   7.391  33.271  13.003
28382W        W94923  33.071  28.978   0.475
28383W        W94924  34.113  20.672   3.600
28384W        W94925   5.557  21.097  14.848
28385W        W94926  21.638   7.462  14.775
28386W        W94927  42.381  13.055  12.518
28387W        W94928  39.796  30.732  11.962
28388W        W94929  27.165  30.351  10.667
28389W        W94930  35.883  29.864   2.057
28390W        W94931  39.306  28.628   1.945
28391W        W94932  41.459  22.720  12.484
28392W        W94933  25.094   9.001  13.425
28393W        W94934  13.786  14.101   1.950
28394W        W94935   2.191  37.006   3.217
28395W        W94936  25.206  15.588   0.307
28396W        W94937  19.171  36.761   2.598
28397W        W94938  35.923   3.925  12.386
28398W        W94939  33.269  38.972  10.135
28399W        W94940   2.362  44.991  10.729
28400W        W94941  26.132  27.953  12.545
28401W        W94942  22.113   2.900   0.302
28402W        W94943  19.249  14.883  12.051
28403W        W94944  16.457  36.756   3.218
28404W        W94945  25.986   7.961  13.505
28405W        W94946   2.956  18.254   4.169
28406W        W94947  11.600  43.580   4.945
28407W        W94948  25.050  17.582   0.288
28408W        W94949  31.910  43.312   4.655
28409W        W94950  34.998  36.405   4.310
28410W        W94951  32.299  24.295   3.251
28411W        W94952  36.021  27.580   0.269
28412W        W94953  24.570  11.127   0.806
28413W        W94954  11.750   9.983   0.469
28414W        W94955   3.881  23.519   4.110
28415W        W94956  11.221  29.581  10.567
28416W        W94957  42.841  24.684  13.654
28417W        W94958  21.169  43.617   2.085
28418W        W94959  31.586  38.015  11.987
28419W        W94960   6.159  24.012   4.492
28420W        W94961  17.882  24.290  13.618
28421W        W94962  26.110  25.671   1.773
28422W        W94963  35.984   6.966  13.917
28423W        W94964   5.757  40.383   3.330
28424W        W94965  29.909  39.402  13.749
28425W        W94966  43.729  32.151   0.338
28426W        W94967   5.326  10.420   0.477
28427W        W94968   7.772  14.045  11.705
28428W        W94969  43.316  35.778   3.390
28429W        W94970  12.339  17.742  11.457
28430W        W94971   5.804  43.704   3.248
28431W        W94972  39.040  27.935  10.144
28432W        W94973   8.009  43.471  11.126
28433W        W94974   0.002   2.355  12.997
28434W        W94975  17.856  25.605  11.597
28435W        W94976  14.711  27.150   0.759
28436W        W94977  25.268   3.577  14.276
28437W        W94978   9.096  28.414  14.984
28438W        W94979  19.005   4.698  11.542
28439W        W94980  10.603  32.085  11.146
28440W        W94981  34.583  25.103   3.092
28441W        W94982  28.876  17.321   4.215
28442W        W94983   1.089  43.419  11.688
28443W        W94984  29.091  21.143  13.078
28444W        W94985  42.239  39.585  12.522
28445W        W94986  22.501  34.169  12.202
28446W        W94987  11.246   7.856  13.918
28447W        W94988  21.540   9.776  11.216
28448W        W94989  21.815   0.963   1.355
28449W        W94990  31.620  35.981   4.540
28450W        W94991   1.731  27.505  13.013
28451W        W94992   9.355  17.340   1.547
28452W        W94993  43.998  32.068   4.037
28453W        W94994  14.687   0.450   2.438
28454W        W94995  15.794  39.086   1.854
28455W        W94996  40.877  24.710  13.084
28456W        W94997  18.780   4.902   4.187
28457W        W94998   7.351  29.691  13.443
28458W        W94999   3.891   2.210   1.873
28459W        W95000  32.365  32.224   1.020
28460W        W95001  41.766  25.333   1.102
28461W        W95002   9.411  34.512  14.542
28462W        W95003  29.592  29.930  14.802
28463W        W95004  22.344  31.007   3.950
28464W        W95005  27.465  40.365  11.395
28465W        W95006  23.669  20.105  12.154
28466W        W95007  27.594  40.769   3.350
28467W        W95008  14.875  29.271   3.757
28468W        W95009  27.204  38.934  11.101
28469W        W95010   8.858  31.849   3.746
28470W        W95011  21.037   3.040  11.246
28471W        W95012  37.492  23.854  14.550
28472W        W95013  12.245  38.303  11.076
28473W        W95014   1.927  28.590   1.865
28474W        W95015  26.498  30.818   4.799
28475W        W95016  30.455  37.023   4.629
28476W        W95017   7.490  28.968   1.312
28477W        W95018  31.260  23.042   4.246
28478W        W95019   7.764  19.040  11.629
28479W        W95020   6.285  24.916  12.167
28480W        W95021  34.140   2.989  12.184
28481W        W95022  21.902   0.938  12.940
28482W        W95023  22.101  11.820  14.931
28483W        W95024  20.645  11.403  12.033
28484W        W95025  40.969   2.917  11.524
28485W        W95026  40.919  10.063  11.115
28486W        W95027  27.815  28.446  13.390
28487W        W95028  33.986   5.348  12.399
28488W        W95029  10.737  13.042   0.985
28489W        W95030  27.904  15.805  11.980
28490W        W95031  12.836   8.435   4.213
28491W        W95032  12.001  12.970  10.376
28492W        W95033  11.870  27.101  10.280
28493W        W95034   4.942  13.719   4.153
28494W        W95035  44.603  28.103  12.023
28495W        W95036  22.492  16.690  13.860
28496W        W95037  20.736  10.213   4.445
28497W        W95038  29.983  10.602  11.672
28498W        W95039  38.838   8.472   1.805
28499W        W95040   7.690   6.852   4.029
28500W        W95041  38.548  31.554  14.503
28501W        W95042   2.924  23.111   4.171
28502W        W95043   5.787  33.396  11.432
28503W        W95044  38.512  22.850  12.922
28504W        W95045   1.485  18.235   0.261
28505W        W95046  10.705  18.293   2.841
28506W        W95047   7.382  16.562   4.619
28507W        W95048   3.741   4.275   0.473
28508W        W95049   3.387   4.597  14.591
28509W        W95050  34.023  23.952   3.153
28510W        W95051  44.404   4.694   1.863
28511W        W95052  42.951  44.955   1.671
28512W        W95053   5.200   4.625  13.951
28513W        W95054  27.158  41.192  11.431
28514W        W95055  32.914  25.525   2.797
28515W        W95056  18.780  26.185  14.774
28516W        W95057   5.739  27.734   4.128
28517W        W95058  34.086  20.697  13.318
28518W        W95059  13.791  13.703  13.768
28519W        W95060  24.027  20.146   1.646
28520W        W95061  27.989   0.829  12.895
28521W        W95062  20.294   2.837   3.130
28522W        W95063   0.946  38.506   1.348
28523W        W95064  16.190  15.287   2.662
28524W        W95065   6.223   0.444  12.633
28525W        W95066  43.950  17.663   2.333
28526W        W95067  28.754  36.831  11.859
28527W        W95068  25.670  32.626   2.218
28528W        W95069  33.351  41.503   0.184
28529W        W95070  30.970  35.510  12.001
28530W        W95071  44.936   4.526   3.652
28531W        W95072  34.823  34.018  10.731
28532W        W95073  31.110  10.693  14.510
28533W        W95074  40.940  18.715   0.970
28534W        W95075  29.746  38.016  14.484
28535W        W95076  10.211  36.161   0.327
28536W        W95077  39.892   1.452   2.340
28537W        W95078   7.801  22.984   4.263
28538W        W95079  13.462  10.772  14.520
28539W        W95080  26.714  22.476   1.779
28540W        W95081  39.276  28.118   0.867
28541W        W95082  36.737  14.826  12.642
28542W        W95083  24.000  19.100  13.004
28543W        W95084   8.792  32.093   0.617
28544W        W95085  36.430  29.503  13.855
28545W        W95086  26.433  18.270  13.054
28546W        W95087  34.569  11.685   3.916
28547W        W95088  23.500   4.305  11.647
28548W        W95089  36.650  16.684  11.268
28549W        W95090   8.498   9.858  12.367
28550W        W95091   9.829  17.033  13.292
28551W        W95092  12.732  32.078  14.894
28552W        W95093   5.871   2.032   3.475
28553W        W95094  35.896  37.295   2.690
28554W        W95095  11.648  31.421   0.477
28555W        W95096   1.924  33.587   4.482
28556W        W95097  34.673   9.785  13.102
28557W        W95098   5.390  40.325  10.986
28558W        W95099  16.326  37.885  11.607
28559W        W95100   2.064  24.609   2.734
28560W        W95101   9.786  11.099  12.075
28561W        W95102   2.851  27.015  14.561
28562W        W95103  24.700  33.408  10.820
28563W        W95104  31.199  24.412   4.316
28564W        W95105  39.642  40.973   2.423
28565W        W95106   1.995   6.883  14.575
28566W        W95107   9.160  15.428  13.712
28567W        W95108   6.865  33.144  12.094
28568W        W95109  26.920  26.866  12.125
28569W        W95110  28.941  30.070  12.395
28570W        W95111  37.564  35.380   4.134
28571W        W95112   6.185   8.332  14.035
28572W        W95113  16.088  30.002   1.931
28573W        W95114   3.619  29.073  13.058
28574W        W95115  38.745  43.152   4.855
28575W        W95116   6.008  19.064   4.695
28576W        W95117  11.838   8.869   4.115
28577W        W95118  25.177  37.947  14.401
28578W        W95119  18.547   3.360   2.038
28579W        W95120  43.171  10.418   3.543
28580W        W95121  36.599  27.087  11.526
28581W        W95122  31.305  24.710  12.625
28582W        W95123  33.477  29.097  12.574
28583W        W95124  26.248   1.825   3.713
28584W        W95125  17.527  34.308   5.010
28585W        W95126  21.997  18.711   1.840
28586W        W95127  20.102  17.581  13.791
28587W        W95128  21.205  20.151   1.860
28588W        W95129   6.355   6.344   1.824
28589W        W95130   8.842  25.118   3.725
28590W        W95131  40.508   6.929  14.434
28591W        W95132  24.925  10.085  12.101
28592W        W95133   6.638  24.970   2.866
28593W        W95134   0.478  26.707   1.687
28594W        W95135  13.090  13.721  10.946
28595W        W95136  28.778   8.692  14.298
28596W        W95137  32.613  24.587  12.923
28597W        W95138  10.150  11.912  10.994
28598W        W95139  10.891   8.090  13.485
28599W        W95140  29.920  21.456  11.560
28600W        W95141   7.503  36.341  14.748
28601W        W95142   5.330   5.192  12.256
28602W        W95143  37.748  31.162   0.005
28603W        W95144  38.043  16.777   2.869
28604W        W95145  31.995  36.051  11.210
28605W        W95146  22.343  19.847  12.439
28606W        W95147   6.149  37.047   3.638
28607W        W95148  38.751  32.686  11.052
28608W        W95149  10.699  24.666  11.619
28609W        W95150  23.266  10.577   0.267
28610W        W95151  18.221   5.196   1.908
28611W        W95152  33.102  43.762  14.265
28612W        W95153  32.041  31.984   3.999
28613W        W95154  20.716  17.591   4.200
28614W        W95155  17.222   0.005   4.601
28615W        W95156  23.668  22.775  14.946
28616W        W95157  35.800  13.774  13.289
28617W        W95158  35.920  13.227   4.050
28618W        W95159  29.352  35.835   2.294
28619W        W95160   0.515  36.574   3.786
28620W        W95161  40.722  33.032  11.080
28621W        W95162  28.210  27.007  14.456
28622W        W95163  35.351  25.549  13.341
28623W        W95164  11.721  14.972   0.641
28624W        W95165  11.609  29.379   0.483
28625W        W95166  41.785  15.176  14.989
28626W        W95167  20.174   6.270  14.298
28627W        W95168  41.431  26.024  11.661
28628W        W95169  11.784   3.894  10.710
28629W        W95170  32.408  12.834  14.471
28630W        W95171  22.209  34.444   3.365
28631W        W95172   1.326  12.391   2.719
28632W        W95173  18.213  37.603   1.598
28633W        W95174  12.817  41.368   0.872
28634W        W95175  25.930  35.270  14.363
28635W        W95176   6.633  10.508   1.869
28636W        W95177  35.622  36.211  11.297
28637W        W95178   5.368  22.115   4.616
28638W        W95179  37.022  35.164  14.312
28639W        W95180  33.410  43.785  14.877
28640W        W95181   5.637   4.214  13.441
28641W        W95182   2.327  29.685   9.932
28642W        W95183  23.986  30.385   0.906
28643W        W95184  31.923   0.293   4.634
28644W        W95185  34.484  27.267   1.460
28645W        W95186  22.302  31.526   0.957
28646W        W95187   7.281  22.960   1.093
28647W        W95188  29.034  29.389  14.377
28648W        W95189   1.063  33.570  11.565
28649W        W95190  35.349  26.255  12.518
28650W        W95191   7.738  23.713  13.823
28651W        W95192  18.361  24.719   4.138
28652W        W95193  18.080   3.855  13.106
28653W        W95194   7.020  31.738  12.524
28654W        W95195  38.089  31.167  13.456
28655W        W95196  18.653  28.643   1.351
28656W        W95197   2.015  37.977  11.686
28657W        W95198  28.422  38.868  10.545
28658W        W95199  30.822   5.356   3.321
28659W        W95200  31.677  32.000  14.493
28660W        W95201  19.067  12.646   1.316
28661W        W95202  15.997  35.568  10.732
28662W        W95203  44.920  26.014   1.916
28663W        W95204  18.513  23.699   3.712
28664W        W95205  14.662  30.707   2.713
28665W        W95206   4.412  20.025  13.418
28666W        W95207  26.929  21.451  12.099
28667W        W95208  33.548  43.554  14.432
28668W        W95209  17.221  44.172  13.488
28669W        W95210  40.907  34.678  10.827
28670W        W95211  12.838  23.025  11.949
28671W        W95212  29.985  19.439  10.768
28672W        W95213   6.104  13.269   1.872
28673W        W95214  25.524  39.482   2.718
28674W        W95215  25.685  22.248  12.327
28675W        W95216  34.481  31.259  14.075
28676W        W95217  43.944  39.843   3.801
28677W        W95218  31.569   3.900   0.208
28678W        W95219  38.929  34.104   2.908
28679W        W95220  24.015  24.808   1.722
28680W        W95221  33.042  42.001   0.995
28681W        W95222   2.789  18.762   4.132
28682W        W95223   8.311  25.544   1.082
28683W        W95224  34.655  44.688  13.973
28684W        W95225   1.273  32.875   1.744
28685W        W95226  35.337   5.122   4.966
28686W        W95227  23.604  27.108  10.594
28687W        W95228  15.721   5.448   5.129
28688W        W95229  11.954   5.375   3.638
28689W        W95230   7.370   9.746   2.460
28690W        W95231  32.970  40.490  11.083
28691W        W95232  34.964  22.666   1.697
28692W        W95233   0.676   8.447  14.485
28693W        W95234  11.391  43.826  14.921
28694W        W95235  17.629   9.395   2.207
28695W        W95236  36.013  24.608   1.406
28696W        W95237  43.809  33.588  10.667
28697W        W95238  43.557  15.963   4.668
28698W        W95239  25.056  30.501   2.296
28699W        W95240   8.397  33.555  11.173
28700W        W95241  38.857  22.119   2.960
28701W        W95242  28.415  11.968  10.042
28702W        W95243   9.591  43.930   2.309
28703W        W95244  29.949  38.000   2.360
28704W        W95245  27.013  13.759   4.359
28705W        W95246  24.741  27.303  13.049
28706W        W95247  32.482  39.231   4.354
28707W        W95248  22.563   1.513   2.179
28708W        W95249  22.037   1.244   3.397
28709W        W95250   3.772  12.825  13.393
28710W        W95251  13.759  34.023   0.819
28711W        W95252  43.347  13.804   1.652
28712W        W95253   0.542   1.652  10.058
28713W        W95254  21.782   2.896  14.302
28714W        W95255   6.217  30.956   4.050
28715W        W95256  10.350  17.770  14.046
28716W        W95257  19.643  32.874   3.839
28717W        W95258  40.398  31.611  13.002
28718W        W95259  39.467  31.108  10.697
28719W        W95260  11.511  31.896  10.053
28720W        W95261  14.423  30.937   2.139
28721W        W95262  36.630  29.040   1.978
28722W        W95263   4.745  35.966   4.641
28723W        W95264   6.465  16.725  11.008
28724W        W95265  40.912  35.073  14.748
28725W        W95266  33.560  34.405   1.057
28726W        W95267  29.592   2.409  13.143
28727W        W95268  20.008  12.315   3.606
28728W        W95269  22.083  21.258  11.445
28729W        W95270  35.328  12.206   3.775
28730W        W95271   8.739  26.329   4.783
28731W        W95272  40.273  27.173  12.105
28732W        W95273  42.772  15.611   1.856
28733W        W95274  26.930  41.193   1.760
28734W        W95275  36.180   4.921   0.441
28735W        W95276  36.246  28.964  14.866
28736W        W95277   6.634  11.113   0.335
28737W        W95278  34.527   1.812   2.826
28738W        W95279  22.590   7.623  13.012
28739W        W95280  14.435   5.708   0.455
28740W        W95281   6.674  18.036   2.354
28741W        W95282  22.513  20.648  12.455
28742W        W95283  42.263  33.122  13.553
28743W        W95284  14.554  29.113   0.951
28744W        W95285  26.597  12.211   1.660
28745W        W95286   8.603  16.634  14.855
28746W        W95287  26.889  10.910  14.835
28747W        W95288  42.501  26.236  12.248
28748W        W95289  32.958  21.477  12.551
28749W        W95290  23.544  23.703   4.118
28750W        W95291   5.345   5.953   0.462
28751W        W95292   9.684   5.256   1.145
28752W        W95293  21.016  36.024   3.638
28753W        W95294  10.236   9.112  10.689
28754W        W95295   5.321  42.546  11.000
28755W        W95296  38.801  21.124   0.216
28756W        W95297  30.685  34.392   3.060
28757W        W95298   1.465  14.287   3.389
28758W        W95299  29.004   8.005   4.251
28759W        W95300  42.288  24.770   3.675
28760W        W95301  17.787  35.829  10.619
28761W        W95302  31.792  35.538   3.232
28762W        W95303   8.275  34.466  14.370
28763W        W95304  28.124  22.760   3.409
28764W        W95305  43.851  22.255  14.027
28765W        W95306  32.175  36.562  12.031
28766W        W95307  16.661  12.611  10.649
28767W        W95308  17.513   0.624  13.136
28768W        W95309   6.237  27.413   0.982
28769W        W95310  27.986  41.545  11.168
28770W        W95311   8.658   4.801  11.483
28771W        W95312  34.121   8.262   3.386
28772W        W95313  43.433  33.412   3.175
28773W        W95314  13.681   6.334  12.420
28774W        W95315  35.058  37.469  12.696
28775W        W95316  32.353  17.210   1.968
28776W        W95317   6.588   0.303   9.998
28777W        W95318   6.829   6.326   1.560
28778W        W95319  12.491  44.481   4.593
28779W        W95320  14.671  29.665  10.252
28780W        W95321   7.883   0.327   1.650
28781W        W95322  24.032   0.808  11.187
28782W        W95323  20.216  43.261   0.249
28783W        W95324   2.099   7.473   0.249
28784W        W95325  13.865  28.827   2.393
28785W        W95326   0.554  31.962   2.614
28786W        W95327  33.221  13.746  11.556
28787W        W95328  36.438   6.262   1.930
28788W        W95329  42.913   8.787   3.889
28789W        W95330  38.438  24.752  12.971
28790W        W95331  37.804  26.126   4.683
28791W        W95332  38.125   1.918  12.041
28792W        W95333   7.247  17.668   2.769
28793W        W95334  41.957  44.737   1.998
28794W        W95335  36.872  19.757  12.991
28795W        W95336  24.359   6.243   4.940
28796W        W95337  24.849  39.910  10.656
28797W        W95338  15.722  34.599  13.752
28798W        W95339   7.671   0.268   2.563
28799W        W95340   8.887   6.419  12.629
28800W        W95341  18.572  37.968  11.964
28801W        W95342   9.227  39.125   1.920
28802W        W95343  16.348  28.646   1.962
28803W        W95344  33.774  18.037  11.193
28804W        W95345  25.186  31.320  11.558
28805W        W95346  17.446  12.894  13.409
28806W        W95347  25.983   0.620   0.394
28807W        W95348   6.249   3.005  13.930
28808W        W95349  25.054   4.944   1.871
28809W        W95350   1.725  26.242  11.021
28810W        W95351  32.172  25.208  12.961
28811W        W95352  37.324  41.985   0.764
28812W        W95353  14.362  15.634  14.391
28813W        W95354  21.534   0.793   2.825
28814W        W95355  23.711  39.538  12.941
28815W        W95356  15.363  41.009  11.580
28816W        W95357  38.467  26.459   2.359
28817W        W95358  21.135  34.618   2.828
28818W        W95359   9.905  10.316   2.087
28819W        W95360  18.467   8.222   3.885
28820W        W95361  26.493   3.844  13.877
28821W        W95362   9.841  11.236   1.716
28822W        W95363  19.518   0.139   0.001
28823W        W95364   0.838  25.064  13.217
28824W        W95365  41.662  41.365  11.743
28825W        W95366   7.210  42.329   4.110
28826W        W95367  11.797  32.001   1.682
28827W        W95368  39.178  31.370  13.875
28828W        W95369   9.915  43.297  11.632
28829W        W95370  44.919  20.682  14.784
28830W        W95371  21.961  39.143   3.348
28831W        W95372  20.111  25.155   3.074
28832W        W95373   9.270  12.907  12.909
28833W        W95374  10.198  13.305   4.233
28834W        W95375  40.485  40.543   3.659
28835W        W95376   8.075  15.352  14.736
28836W        W95377  22.154  29.014  11.043
28837W        W95378  22.821  25.497   1.339
28838W        W95379   6.846  43.913   3.370
28839W        W95380   2.870   3.997   2.210
28840W        W95381  29.180  14.734   2.830
28841W        W95382  39.479   0.500   4.093
28842W        W95383  13.278  44.751   2.741
28843W        W95384   7.136   8.401  11.580
28844W        W95385  17.418  42.961  12.881
28845W        W95386  31.977   7.897  14.116
28846W        W95387  34.258  44.260  12.080
28847W        W95388  36.484  35.993   3.268
28848W        W95389  11.772  41.012  10.987
28849W        W95390  33.906   6.411  11.014
28850W        W95391   3.674  27.459   0.817
28851W        W95392  28.334  36.587   0.153
28852W        W95393  29.387  33.004  10.922
28853W        W95394   0.990  42.482  14.873
28854W        W95395  17.955  21.422  13.020
28855W        W95396  29.147  15.657   5.194
28856W        W95397  44.498  30.629  14.721
28857W        W95398  40.420  20.576   4.117
28858W        W95399  32.669   6.404   4.052
28859W        W95400  15.664  27.373   3.830
28860W        W95401   5.915  40.474   2.365
28861W        W95402  39.501  10.621   9.872
28862W        W95403   2.390  38.958  14.882
28863W        W95404  36.511  14.093  13.689
28864W        W95405  34.201  25.910  10.661
28865W        W95406  31.016   9.793  12.706
28866W        W95407  28.477  30.010   3.810
28867W        W95408  11.586  44.108  12.010
28868W        W95409  20.635  39.839   0.114
28869W        W95410  20.038   9.033  13.932
28870W        W95411  31.862  15.457  11.156
28871W        W95412  22.042   1.183  13.435
28872W        W95413  44.338  27.758   4.948
28873W        W95414  32.424  27.658   2.180
28874W        W95415  43.659  29.970  12.856
28875W        W95416  18.590  20.494   4.836
28876W        W95417   4.987   4.542   3.065
28877W        W95418  17.839  22.570   4.156
28878W        W95419  16.976  39.911   3.873
28879W        W95420  40.290  20.572  12.467
28880W        W95421  22.883  23.717  13.537
28881W        W95422  11.845  13.388  14.716
28882W        W95423  22.368  24.526  14.776
28883W        W95424  35.007  11.908   5.204
28884W        W95425   8.826   6.809   3.647
28885W        W95426  29.620  28.746   2.354
28886W        W95427  27.805   0.224  12.482
28887W        W95428  20.337  31.394   3.280
28888W        W95429  27.880  40.988  14.276
28889W        W95430  44.847  10.125   4.099
28890W        W95431  34.944  12.664   2.677
28891W        W95432   9.475  37.029  13.449
28892W        W95433  26.433  34.501   3.079
28893W        W95434   4.352  28.543   0.423
28894W        W95435  20.205  43.798   3.789
28895W        W95436  42.578   3.985  11.528
28896W        W95437  27.281  37.793   0.884
28897W        W95438  23.034  15.323  13.505
28898W        W95439   7.233  39.464  11.725
28899W        W95440  20.500  21.599   2.458
28900W        W95441  42.296  42.883   1.821
28901W        W95442  28.525  37.019   4.508
28902W        W95443   4.743  26.338   5.347
28903W        W95444  37.075  31.640  11.600
28904W        W95445  32.863  12.585   0.367
28905W        W95446  20.153   0.183   1.366
28906W        W95447   5.030  42.024   4.527
28907W        W95448   9.854   6.505   3.886
28908W        W95449  24.271  26.146  12.914
28909W        W95450  33.108   3.648   2.417
28910W        W95451  11.314   4.319   1.970
28911W        W95452  12.829  42.944   4.218
28912W        W95453   5.723   7.328   0.812
28913W        W95454  39.440  31.526  13.433
28914W        W95455  31.220  33.450  11.209
28915W        W95456  26.943  29.938  10.465
28916W        W95457   2.256  39.378   3.596
28917W        W95458  28.099  22.153  14.011
28918W        W95459  35.747  15.416   3.283
28919W        W95460  28.114  31.882   4.642
28920W        W95461  32.688  42.880   0.815
28921W        W95462  36.351  19.039   1.493
28922W        W95463  19.715   6.928  12.005
28923W        W95464  39.427  35.757   4.560
28924W        W95465   9.341  29.513  14.174
28925W        W95466   1.768   9.220   2.658
28926W        W95467  17.227  20.980  11.672
28927W        W95468   2.220  11.386  11.094
28928W        W95469   0.965  38.990   2.626
28929W        W95470  41.267  22.138   0.309
28930W        W95471  25.523   6.960  13.035
28931W        W95472  30.915  22.591   0.832
28932W        W95473   5.715   9.786   4.207
28933W        W95474  18.166  31.231  12.959
28934W        W95475  40.751  30.615  12.114
28935W        W95476  16.487  23.621   4.450
28936W        W95477  41.122  21.334   4.238
28937W        W95478   7.735   6.293   4.080
28938W        W95479  42.027   2.873  10.703
28939W        W95480  40.702   2.654  12.000
28940W        W95481  31.808   7.687   2.746
28941W        W95482  25.647  11.386  11.496
28942W        W95483  31.495  11.030   2.699
28943W        W95484  22.537   8.946  11.008
28944W        W95485   0.734   0.789   0.214
28945W        W95486  25.639  25.965  12.505
28946W        W95487   1.456  14.717  14.212
28947W        W95488  21.500   0.005  11.635
28948W        W95489  25.196   4.653   4.354
28949W        W95490  27.141   1.315  14.263
28950W        W95491  24.369  42.909  12.510
28951W        W95492  21.091  42.792  14.527
28952W        W95493  18.608  36.948   0.895
28953W        W95494   1.218  25.068   4.254
28954W        W95495  34.805  24.308  13.841
28955W        W95496   1.676  27.955   9.854
28956W        W95497  37.131   2.267  11.039
28957W        W95498   0.902  41.303  10.754
28958W        W95499  16.916  26.103  12.542
28959W        W95500  15.815  20.437  14.196
28960W        W95501   7.146   4.311  12.480
28961W        W95502   7.279  42.213  13.611
28962W        W95503   0.857   9.793  10.974
28963W        W95504   5.873  31.392   3.150
28964W        W95505  33.149  25.725   2.359
28965W        W95506  32.959   3.306  12.100
28966W        W95507  10.616   7.837   1.667
28967W        W95508  13.048   9.329  13.997
28968W        W95509  40.765  20.163   4.508
28969W        W95510  31.023  44.013  14.851
28970W        W95511  35.024  34.893   1.344
28971W        W95512  33.596  11.563  14.868
28972W        W95513   7.981  37.545   1.400
28973W        W95514  34.813  22.301  14.207
28974W        W95515  22.674  10.598   3.352
28975W        W95516  23.896  19.349  11.543
28976W        W95517  43.338  17.023   9.649
28977W        W95518  42.849   1.406  12.749
28978W        W95519  26.028  24.726  11.565
28979W        W95520   4.376  28.498   2.932
28980W        W95521  18.621  12.908   3.106
28981W        W95522  12.853  28.993   0.427
28982W        W95523  38.939   4.698  12.892
28983W        W95524   0.968   7.341   1.824
28984W        W95525  17.683  39.071   1.824
28985W        W95526  37.190  13.768  14.894
28986W        W95527   4.532  11.383  14.501
28987W        W95528  42.291  40.033  12.169
28988W        W95529   4.815   0.849   1.623
28989W        W95530  36.891   4.857   0.010
28990W        W95531  13.252  37.132   4.252
28991W        W95532  20.500   3.704  10.883
28992W        W95533   4.651  41.518   4.649
28993W        W95534   6.525   3.206  10.252
28994W        W95535  44.911   5.955  12.053
28995W        W95536  29.915  20.171  11.917
28996W        W95537  39.216  31.120  12.035
28997W        W95538  24.082  43.299  11.130
28998W        W95539  23.995   7.652  12.875
28999W        W95540   9.346  11.633  13.444
29000W        W95541  31.708  23.183   3.961
29001W        W95542  30.608  15.369   3.003
29002W        W95543  38.100  21.043  13.854
29003W        W95544  21.473  10.625   4.236
29004W        W95545   8.138   4.706   3.671
29005W        W95546  31.117  24.742   4.726
29006W        W95547  18.779   6.292   4.615
29007W        W95548  15.312  16.201   0.461
29008W        W95549  28.416  30.449   3.505
29009W        W95550  22.575   2.510   4.145
29010W        W95551  22.707  12.074  12.056
29011W        W95552   6.858  32.913   4.572
29012W        W95553  37.861  28.482   2.850
29013W        W95554  26.962  44.953   1.056
29014W        W95555  37.039  28.870   2.859
29015W        W95556  44.419  19.260   4.560
29016W        W95557  15.153  27.560  14.415
29017W        W95558  33.401  14.693   0.041
29018W        W95559  31.255  35.594  10.864
29019W        W95560  35.360  17.046  10.744
29020W        W95561   1.659   6.995   2.519
29021W        W95562  22.992  41.522   1.859
29022W        W95563  43.907  33.383   1.222
29023W        W95564  43.292  18.205   4.912
29024W        W95565  40.740  21.315   0.307
29025W        W95566  11.237  44.711   4.101
29026W        W95567  11.591  25.153   2.666
29027W        W95568  32.489  33.833  11.156
29028W        W95569  22.110  38.289  11.955
29029W        W95570  36.946   6.945   1.183
29030W        W95571  41.438  43.837   2.999
29031W        W95572  41.887  13.119  12.624
29032W        W95573  11.695  43.049   4.864
29033W        W95574  23.096  26.606   1.885
29034W        W95575  39.023  43.745  13.946
29035W        W95576  32.949  24.114   0.894
29036W        W95577  25.454  43.929   1.199
29037W        W95578   7.688  12.837   2.356
29038W        W95579  37.571   8.165   2.249
29039W        W95580  38.568  22.309  13.972
29040W        W95581  23.234  29.981   0.141
29041W        W95582   2.207  11.700   0.252
29042W        W95583  13.363  40.584  13.323
29043W        W95584  22.434   6.743  13.241
29044W        W95585  35.412  20.549   4.656
29045W        W95586  35.630   2.785  11.146
29046W        W95587  29.090  42.591  11.623
29047W        W95588  22.719  18.720   3.115
29048W        W95589  36.386  21.253  12.590
29049W        W95590  21.036   0.160   0.415
29050W        W95591  22.616   5.518   3.817
29051W        W95592  25.736  29.976   3.883
29052W        W95593  37.405  15.947  13.576
29053W        W95594  10.565  10.687  14.338
29054W        W95595  15.306   5.886  13.059
29055W        W95596  11.382  36.350   2.833
29056W        W95597  15.219   9.180  13.793
29057W        W95598  14.555   3.244  13.487
29058W        W95599  10.763  20.987   0.216
29059W        W95600  13.133  39.887  11.018
29060W        W95601  21.445  42.765   3.640
29061W        W95602  16.331  32.602  12.080
29062W        W95603  43.764  28.513  10.552
29063W        W95604  44.843  21.592  11.850
29064W        W95605  29.469   0.056   2.908
29065W        W95606   4.420  15.849  10.892
29066W        W95607  20.352  20.243   3.815
29067W        W95608  12.227   0.335   0.098
29068W        W95609   4.034   3.902  10.270
29069W        W95610  21.319   5.514  13.057
29070W        W95611  25.714  27.492  11.927
29071W        W95612  20.761  27.120  11.093
29072W        W95613   5.849  43.246  11.398
29073W        W95614  23.885  35.951  12.405
29074W        W95615  22.054  17.535   0.436
29075W        W95616  44.583  16.712   4.999
29076W        W95617  36.917  35.841  11.276
29077W        W95618  15.523  12.661   3.170
29078W        W95619  28.204  40.416   2.202
29079W        W95620  11.582   1.394   0.865
29080W        W95621  36.123  29.907  13.864
29081W        W95622  43.953  11.915   4.157
29082W        W95623   1.765  29.501   1.977
29083W        W95624   3.414  36.157  14.367
29084W        W95625  11.326  38.976   4.204
29085W        W95626   2.246   4.907   2.885
29086W        W95627  39.389  38.663   4.248
29087W        W95628  26.708   7.927   0.960
29088W        W95629  33.088  15.763   3.121
29089W        W95630  30.956   6.885  13.077
29090W        W95631  35.054  23.276  13.885
29091W        W95632  39.429  16.539   2.194
29092W        W95633  22.944  11.249  14.997
29093W        W95634  16.296  30.190   0.135
29094W        W95635  18.582  38.820   3.143
29095W        W95636  33.221   5.464  13.791
29096W        W95637  23.751  22.525  13.552
29097W        W95638   0.281  40.128  11.380
29098W        W95639  43.956  32.432   3.209
29099W        W95640   6.349   4.195   4.580
29100W        W95641  14.563   7.766   2.906
29101W        W95642   0.286  27.094  14.794
29102W        W95643   5.276   3.817   2.652
29103W        W95644  21.194  37.312   2.624
29104W        W95645  17.776   0.808   3.120
29105W        W95646  17.759   0.853  13.566
29106W        W95647  42.121  42.081   4.118
29107W        W95648  39.786  40.457   1.431
29108W        W95649  43.083   5.265   3.926
29109W        W95650  21.921  26.852  14.716
29110W        W95651  19.776  34.848   3.163
29111W        W95652  13.775  25.731   1.447
29112W        W95653  32.821  36.983   4.557
29113W        W95654  40.314  22.917   0.399
29114W        W95655   5.362  12.926   0.943
29115W        W95656  27.577  43.008   4.273
29116W        W95657  44.485  41.995   2.150
29117W        W95658   2.250  42.367   4.624
29118W        W95659  27.916  20.554   1.849
29119W        W95660  17.505  18.205   4.543
29120W        W95661  40.576  34.800   0.024
29121W        W95662  10.756  30.441   4.097
29122W        W95663   9.902  43.113  11.114
29123W        W95664  13.410  43.821  13.043
29124W        W95665  20.194  22.773  13.508
29125W        W95666   5.288  34.096   0.944
29126W        W95667  28.212  41.017  12.008
29127W        W95668  42.434  41.400   2.543
29128W        W95669  40.698  40.810  13.045
29129W        W95670  31.027  37.463  13.123
29130W        W95671   2.906  32.917   4.128
29131W        W95672  33.682  41.199   1.199
29132W        W95673   5.923  29.900  10.130
29133W        W95674  13.539   0.556  10.328
29134W        W95675  32.457  22.511   2.886
29135W        W95676  20.783  10.822  14.344
29136W        W95677  33.020  35.470   2.883
29137W        W95678  28.387  21.538   3.730
29138W        W95679  21.267  10.804   3.296
29139W        W95680  15.220  16.815  12.807
29140W        W95681  26.199  17.827   0.880
29141W        W95682  13.856  24.789   1.773
29142W        W95683  37.435   2.290   0.302
29143W        W95684  33.015  10.258   3.200
29144W        W95685   1.983  25.837   4.527
29145W        W95686  35.203   2.431  13.796
29146W        W95687  17.480   5.821   0.392
29147W        W95688   9.716  23.632   2.695
29148W        W95689  18.738  41.964  13.570
29149W        W95690   6.397  11.854   1.655
29150W        W95691  28.711  38.904  10.971
29151W        W95692  33.393  14.284   1.336
29152W        W95693   8.596  12.763   0.301
29153W        W95694  43.721   5.642   4.581
29154W        W95695  27.071  23.704   1.914
29155W        W95696   0.301  44.487   4.302
29156W        W95697   1.473  17.597  11.075
29157W        W95698   8.657  36.863   0.953
29158W        W95699  31.223  34.197   0.582
29159W        W95700  13.140  29.677  14.431
29160W        W95701  17.569  41.064  12.406
29161W        W95702  15.528  29.035   4.542
29162W        W95703  12.034  27.024   0.966
29163W        W95704  25.116   1.816  12.180
29164W        W95705  24.669  22.763  14.791
29165W        W95706  34.557   5.225   2.711
29166W        W95707   1.686  39.438   2.014
29167W        W95708  10.045  36.721  14.911
29168W        W95709   9.672  27.635   4.037
29169W        W95710  14.150  33.009  10.651
29170W        W95711  18.274  17.042   1.263
29171W        W95712  17.208  43.221   0.277
29172W        W95713   8.031  29.170   3.453
29173W        W95714  17.267  33.849  14.282
29174W        W95715  21.640  26.224  11.831
29175W        W95716  39.774  24.761   4.084
29176W        W95717  31.972   8.822   9.572
29177W        W95718  19.963  16.301  10.845
29178W        W95719  23.724  43.737  12.841
29179W        W95720   2.810  16.253  14.496
29180W        W95721  23.193  40.807   4.404
29181W        W95722  27.649  24.547  13.844
29182W        W95723  14.033  14.565  14.361
29183W        W95724  32.513  19.229  14.113
29184W        W95725  29.186  31.006  11.171
29185W        W95726   2.800  20.172  10.738
29186W        W95727   6.166  40.451  13.989
29187W        W95728  29.452  25.905  12.614
29188W        W95729   2.386   2.280  13.018
29189W        W95730  39.359  12.164   0.501
29190W        W95731   1.331  34.041  11.443
29191W        W95732  21.637   2.768   0.805
29192W        W95733  22.251  28.761   4.258
29193W        W95734   2.843  44.508  11.942
29194W        W95735   7.376  36.564  12.933
29195W        W95736  40.236  42.088   3.778
29196W        W95737  19.154  29.661  14.854
29197W        W95738  27.510   9.703  12.501
29198W        W95739   5.926  37.378  14.251
29199W        W95740  29.954  21.449   1.676
29200W        W95741  36.709  39.032   2.177
29201W        W95742  33.298   3.830  12.965
29202W        W95743  31.984  36.857   2.413
29203W        W95744  22.113  39.622   3.415
29204W        W95745   6.535  42.832  10.793
29205W        W95746  26.940  12.290  10.173
29206W        W95747  11.369  10.753  13.892
29207W        W95748  43.284   0.380  11.623
29208W        W95749  33.495  39.933   3.297
29209W        W95750  10.665  31.347   2.337
29210W        W95751   1.349  41.277   4.589
29211W        W95752   4.534  39.652  14.985
29212W        W95753   3.018   7.235   1.449
29213W        W95754  17.339  27.600  12.092
29214W        W95755  22.669  19.110  14.742
29215W        W95756  14.080  13.689   1.235
29216W        W95757  40.155  24.061  13.713
29217W        W95758   3.235  44.518   1.357
29218W        W95759  36.411  42.025   3.227
29219W        W95760  30.635  32.387   1.606
29220W        W95761  36.048  11.987   2.288
29221W        W95762  21.184  31.588   2.952
29222W        W95763  27.180  39.211  10.651
29223W        W95764  44.879  15.363   0.248
29224W        W95765   6.239  30.570   3.165
29225W        W95766   3.998  15.739   4.159
29226W        W95767  14.527  11.114   4.519
29227W        W95768   7.289  11.139  13.171
29228W        W95769   5.351  44.944  12.359
29229W        W95770  42.129  26.990   4.886
29230W        W95771   5.654  32.498  10.041
29231W        W95772  19.754  37.841   1.641
29232W        W95773  40.339  37.160  12.151
29233W        W95774  18.527  42.025   4.070
29234W        W95775  30.189  23.946  11.747
29235W        W95776   6.783  23.033   0.916
29236W        W95777   6.772  28.783   3.027
29237W        W95778  23.628   9.530   9.647
29238W        W95779   0.867  13.367  13.576
29239W        W95780  31.630  35.311   2.135
29240W        W95781   5.616  39.796  11.837
29241W        W95782  29.209  18.261  11.564
29242W        W95783  22.290  36.608  12.615
29243W        W95784   9.345   8.823   3.551
29244W        W95785  16.117  35.285  11.656
29245W        W95786   0.428   8.149  13.495
29246W        W95787  16.231  44.000   0.019
29247W        W95788   5.284   0.266  12.897
29248W        W95789  35.056  30.945  14.602
29249W        W95790  16.177  35.603  12.612
29250W        W95791   6.788  18.111  12.617
29251W        W95792   8.511  20.220  10.686
29252W        W95793  12.182  32.130   2.347
29253W        W95794  29.398   8.211   0.849
29254W        W95795  16.534  27.440   3.324
29255W        W95796  28.928   1.717   3.105
29256W        W95797  11.210  40.849   1.494
29257W        W95798  38.759   9.715   3.831
29258W        W95799  12.788  24.679   0.077
29259W        W95800   4.644  22.631   0.210
29260W        W95801  42.324  13.935   0.195
29261W        W95802  25.265  24.178   3.112
29262W        W95803  36.286   5.516   0.493
29263W        W95804  33.436   8.991  12.619
29264W        W95805  16.260  36.447   2.867
29265W        W95806   8.919   4.272   3.464
29266W        W95807  15.182  35.826   0.820
29267W        W95808  43.071  42.586   3.678
29268W        W95809  20.565   9.486  13.332
29269W        W95810  36.066  16.057   2.288
29270W        W95811   9.797  27.744   1.690
29271W        W95812   4.487  18.662   2.356
29272W        W95813  20.638  40.983   4.421
29273W        W95814  15.351   4.828   3.827
29274W        W95815  14.588  13.371  14.149
29275W        W95816  35.516  14.677   1.959
29276W        W95817  28.494  12.256   2.033
29277W        W95818  16.953  32.645   1.451
29278W        W95819  27.538   8.401   3.864
29279W        W95820  43.357  22.140   4.611
29280W        W95821  32.862  18.115   3.211
29281W        W95822  40.823  29.107   0.310
29282W        W95823  17.846  39.841   2.400
29283W        W95824   3.746  37.045   4.118
29284W        W95825  13.389  41.386   3.710
29285W        W95826  13.539  12.230   1.433
29286W        W95827  31.462   3.504  14.257
29287W        W95828  41.714   3.261   4.991
29288W        W95829  16.461  11.401   4.099
29289W        W95830  40.404   4.189   0.897
29290W        W95831  13.946   1.498   0.249
29291W        W95832   7.255  25.075  11.367
29292W        W95833  27.893  27.169   1.456
29293W        W95834   6.912  44.732  11.249
29294W        W95835  33.500  34.502   1.615
29295W        W95836  43.307  18.701   2.649
29296W        W95837  28.820   0.366   0.528
29297W        W95838  32.481  31.448  13.806
29298W        W95839   7.311   3.151   1.078
29299W        W95840  37.955   1.704   3.837
29300W        W95841  26.594  31.427   4.650
29301W        W95842  17.260  19.037   2.873
29302W        W95843  28.875  41.354   2.704
29303W        W95844  27.902  34.998   0.500
29304W        W95845  26.746  10.262  14.333
29305W        W95846  23.014  33.743   2.184
29306W        W95847  38.073  41.846  11.566
29307W        W95848  32.411   6.206   3.155
29308W        W95849  13.147  38.443  10.463
29309W        W95850  29.852  20.581   0.890
29310W        W95851  19.710  20.412  10.962
29311W        W95852  18.553  33.795   2.565
29312W        W95853  23.149  14.071  14.229
29313W        W95854   4.275  43.057  11.952
29314W        W95855   5.002  37.515   1.171
29315W        W95856  33.132   0.892  10.641
29316W        W95857  29.790  20.070  11.348
29317W        W95858  23.092   3.467   1.294
29318W        W95859  22.070  28.157  10.750
29319W        W95860  22.021  43.727  13.429
29320W        W95861  40.084  24.715  12.233
29321W        W95862   4.349  29.762  11.477
29322W        W95863  18.376  17.744  11.119
29323W        W95864   6.727   9.583   4.849
29324W        W95865  18.032  22.673  12.489
29325W        W95866   5.660  28.484  13.581
29326W        W95867  10.195  21.581  12.458
29327W        W95868  21.499  27.219   0.887
29328W        W95869  34.534  19.066  13.852
29329W        W95870   2.194  32.879   1.715
29330W        W95871  32.554   7.963   1.135
29331W        W95872  23.165  16.201   1.254
29332W        W95873  32.973  16.670  13.599
29333W        W95874   5.770  34.216   2.270
29334W        W95875  31.658  13.958   2.860
29335W        W95876   0.252   6.478  13.896
29336W        W95877  16.964  37.788  10.332
29337W        W95878  43.001  38.558  13.130
29338W        W95879  12.229  22.444  10.743
29339W        W95880  15.992  14.906   1.703
29340W        W95881   5.800  38.230   2.442
29341W        W95882   9.320  14.625  11.702
29342W        W95883   6.836  15.716  14.207
29343W        W95884   1.326  18.313   1.600
29344W        W95885  21.653  43.543  10.716
29345W        W95886  25.594  33.697   1.832
29346W        W95887   3.212  32.872  12.419
29347W        W95888   7.224  18.828  10.763
29348W        W95889  29.528  35.466  11.197
29349W        W95890  35.617  16.644   3.651
29350W        W95891   5.895   4.543  12.882
29351W        W95892  15.685  29.189   2.441
29352W        W95893   9.217  25.404  14.295
29353W        W95894  15.227  37.625  11.544
29354W        W95895  42.260  41.925  14.945
29355W        W95896  15.113  17.059   2.656
29356W        W95897  12.287   7.924  11.245
29357W        W95898  37.515   2.249  12.608
29358W        W95899  39.920  32.620  14.817
29359W        W95900  42.039  24.704   3.224
29360W        W95901  11.922  44.024  14.124
29361W        W95902  39.567  17.518   3.176
29362W        W95903  11.291  16.662  11.830
29363W        W95904  13.613  22.512  10.727
29364W        W95905  32.454  12.763   3.329
29365W        W95906  32.155  39.031   2.690
29366W        W95907  13.731  30.905   3.645
29367W        W95908  37.843  28.923   3.705
29368W        W95909  44.284  37.129  10.637
29369W        W95910  35.150  44.971   1.533
29370W        W95911   7.557  40.532   0.403
29371W        W95912  34.764   3.291   1.320
29372W        W95913   0.662  14.001  11.641
29373W        W95914  14.045  18.368   1.207
29374W        W95915  19.877  27.976  14.912
29375W        W95916  36.245   8.597   4.436
29376W        W95917  18.827   3.241  13.884
29377W        W95918  34.441  28.541   2.916
29378W        W95919   5.339  23.589   1.371
29379W        W95920  35.555  28.709  10.814
29380W        W95921  19.750  37.078  10.717
29381W        W95922   9.717   5.699   1.391
29382W        W95923  20.209   5.167   2.188
29383W        W95924  20.578   3.038   1.337
29384W        W95925  31.231  12.990  10.734
29385W        W95926  31.157  25.942  11.584
29386W        W95927   5.620  24.139  14.916
29387W        W95928   0.424  28.966  14.912
29388W        W95929  42.258  35.648  13.807
29389W        W95930  22.018  35.890   1.425
29390W        W95931   0.768  19.935  11.622
29391W        W95932  10.759  19.059   3.277
29392W        W95933  17.182  21.807   4.145
29393W        W95934   5.323  23.731  13.945
29394W        W95935  38.102  36.916   4.339
29395W        W95936  31.167   1.458   2.297
29396W        W95937  44.453  17.729   2.946
29397W        W95938   2.861  20.675   3.619
29398W        W95939   0.484  12.674  13.750
29399W        W95940  29.457  18.416  13.429
29400W        W95941  20.300  19.327   0.907
29401W        W95942  13.564  41.073  14.320
29402W        W95943  43.555  28.107  13.041
29403W        W95944   3.908   7.794  11.177
29404W        W95945  20.406  23.776  11.667
29405W        W95946  23.516  13.039   2.773
29406W        W95947  40.237   5.972   3.719
29407W        W95948  22.631   9.538   4.229
29408W        W95949  21.267   6.229  13.515
29409W        W95950   5.401  33.111   1.534
29410W        W95951   2.632  34.437  10.650
29411W        W95952  10.057   9.311   4.437
29412W        W95953  37.758  34.718  12.027
29413W        W95954  23.941  11.282  13.761
29414W        W95955  14.730  12.882  11.522
29415W        W95956  38.597  13.650   1.757
29416W        W95957  36.279   9.523  13.499
29417W        W95958  41.321  15.156   0.191
29418W        W95959  28.585  33.120   4.602
29419W        W95960  35.540  10.242  12.451
29420W        W95961  21.397  14.196  11.136
29421W        W95962  21.106  40.608  12.866
29422W        W95963  41.397  21.772   4.242
29423W        W95964   3.457  21.231  12.571
29424W        W95965  10.712  31.729   1.406
29425W        W95966  29.580   9.227  10.489
29426W        W95967   9.132  29.074   0.411
29427W        W95968  37.535  40.144  14.509
29428W        W95969   0.174  44.242   4.749
29429W        W95970   7.202  43.394   2.217
29430W        W95971  19.619  19.558   2.422
29431W        W95972  43.825  36.182   4.041
29432W        W95973  12.894  11.633   0.960
29433W        W95974  38.830  40.829  11.448
29434W        W95975  17.285  19.741  12.132
29435W        W95976  30.478  27.434   3.645
29436W        W95977  34.831  21.263   0.207
29437W        W95978  28.044  25.703  10.693
29438W        W95979  40.355  23.559   2.658
29439W        W95980  42.459   2.547  11.938
29440W        W95981  40.359  29.992   0.180
29441W        W95982  43.946   0.599  12.162
29442W        W95983  12.709  40.812   0.801
29443W        W95984  36.521  33.123  11.513
29444W        W95985  25.147  23.009  10.423
29445W        W95986  14.902  20.206   2.293
29446W        W95987  16.453  33.792  12.925
29447W        W95988  23.648  37.501  12.683
29448W        W95989  37.326  32.091   4.789
29449W        W95990   3.057   7.114   0.432
29450W        W95991  17.802  40.635  10.554
29451W        W95992  12.739  43.370   0.983
29452W        W95993  26.629   4.172   5.053
29453W        W95994  23.017  11.184  13.850
29454W        W95995  39.402   4.153   2.829
29455W        W95996  26.502  32.735   3.369
29456W        W95997  21.706  41.365  11.578
29457W        W95998   7.619  14.716  14.490
29458W        W95999  28.099   3.199  12.520
29459W        W96000  31.186   5.423  12.996
29460W        W96001  33.980  32.718  10.928
29461W        W96002  19.633  11.189   0.683
29462W        W96003  18.473  11.291  11.697
29463W        W96004   8.306  18.758  14.354
29464W        W96005  25.340  25.573  11.193
29465W        W96006  33.583  23.167  14.297
29466W        W96007  35.361  18.007  10.642
29467W        W96008  30.705  16.077  11.958
29468W        W96009  24.151  33.370   3.638
29469W        W96010  20.760  43.672  12.930
29470W        W96011  24.406  39.911  14.032
29471W        W96012  16.795  12.545   4.999
29472W        W96013  21.456  23.841   0.811
29473W        W96014  19.995  29.492  12.449
29474W        W96015   1.902  10.695   0.993
29475W        W96016  12.321  13.111   2.639
29476W        W96017  11.819  35.489   2.449
29477W        W96018  19.980  23.149   3.050
29478W        W96019  20.581   4.160   4.086
29479W        W96020   8.582  23.409  12.580
29480W        W96021  28.268  33.149   9.848
29481W        W96022  19.009   1.870  10.317
29482W        W96023  18.770  16.869   0.937
29483W        W96024  35.011  17.816  11.418
29484W        W96025  32.545  26.510   3.650
29485W        W96026  10.306  22.415  12.612
29486W        W96027   9.225  38.134  14.987
29487W        W96028  37.462  29.595  11.618
29488W        W96029  10.388  29.131  12.418
29489W        W96030  38.863   7.421   3.749
29490W        W96031  19.796  16.568  14.476
29491W        W96032  43.770  19.706  14.065
29492W        W96033  36.352   1.945  14.517
29493W        W96034   9.383  11.416  14.330
29494W        W96035  35.926   6.192   1.270
29495W        W96036  30.398   3.989  11.012
29496W        W96037  34.857   4.670   1.182
29497W        W96038   0.438   1.162  11.539
29498W        W96039  40.932   3.663   3.952
29499W        W96040  30.683  39.505  11.608
29500W        W96041  26.526   5.174  13.362
29501W        W96042  28.005  33.846  13.715
29502W        W96043  41.059  28.377   2.313
29503W        W96044  32.545  25.025  12.630
29504W        W96045   4.171  25.859   4.085
29505W        W96046  29.865  27.522  14.769
29506W        W96047   0.223  36.433  12.995
29507W        W96048  22.455  15.578  13.877
29508W        W96049  12.253  27.726   4.604
29509W        W96050  44.780   8.757  14.001
29510W        W96051  39.499  25.304   3.346
29511W        W96052  25.061  44.405  10.604
29512W        W96053   3.356   2.202   2.770
29513W        W96054  31.771  42.093  12.954
29514W        W96055   2.645  17.400   0.935
29515W        W96056  27.251  21.189  13.436
29516W        W96057  18.575  36.112  14.933
29517W        W96058  15.137  34.102   3.706
29518W        W96059   8.984  42.544   0.511
29519W        W96060  42.516  14.256  13.800
29520W        W96061   4.013  13.315  14.917
29521W        W96062  44.540  37.331  13.029
29522W        W96063   0.896  24.160   1.429
29523W        W96064  38.909  30.406  11.647
29524W        W96065  31.935  10.175  14.967
29525W        W96066  10.890   4.970   0.808
29526W        W96067  24.636  22.935   0.885
29527W        W96068  31.471  29.447  12.041
29528W        W96069  22.679  12.538   0.353
29529W        W96070  13.123  40.402   4.492
29530W        W96071  17.792  13.632  11.745
29531W        W96072  40.343  33.886  10.675
29532W        W96073  42.795  29.536  13.859
29533W        W96074  39.242  43.804  13.474
29534W        W96075  15.174  36.112  11.067
29535W        W96076   0.805  15.279  13.315
29536W        W96077  12.640   5.155   3.347
29537W        W96078  41.993  22.569  13.805
29538W        W96079  27.176   2.729   4.754
29539W        W96080   0.351  28.888  11.195
29540W        W96081   4.584  26.966   2.347
29541W        W96082   4.958  16.079  12.059
29542W        W96083  15.128  19.728  12.478
29543W        W96084  29.609  42.982  13.824
29544W        W96085  10.224  35.765  12.208
29545W        W96086   6.714   0.922   0.473
29546W        W96087   0.233   3.460   0.775
29547W        W96088  39.475  33.793  12.051
29548W        W96089  12.812  35.308   0.907
29549W        W96090  33.139  38.876  11.665
29550W        W96091  40.539   5.968   3.276
29551W        W96092  40.896  19.639  14.520
29552W        W96093  38.969  26.476   2.194
29553W        W96094  44.180   9.551   0.856
29554W        W96095  31.898  14.883   4.222
29555W        W96096   2.770  37.501  14.087
29556W        W96097   7.812  40.928   0.196
29557W        W96098  31.181  40.959  14.757
29558W        W96099  27.138  26.922   1.971
29559W        W96100  36.371   1.711   3.564
29560W        W96101  11.868  28.999  13.397
29561W        W96102  41.058  28.925  14.843
29562W        W96103   5.394  32.332  12.220
29563W        W96104   6.400  42.353  12.849
29564W        W96105  18.234   1.191   2.422
29565W        W96106  25.356  14.345  12.883
29566W        W96107   0.164  25.218   1.022
29567W        W96108  23.476  28.919  13.836
29568W        W96109  25.322   4.077  14.370
29569W        W96110   3.428  40.036   4.237
29570W        W96111  39.046   9.631  11.172
29571W        W96112   0.361  12.848   1.884
29572W        W96113   3.199  28.942  14.047
29573W        W96114  31.988   0.725   1.966
29574W        W96115  15.234  34.120   2.498
29575W        W96116  41.000  11.423  11.604
29576W        W96117  26.842  30.999   2.606
29577W        W96118  12.457  39.470  13.419
29578W        W96119  28.005  31.011  10.379
29579W        W96120  38.137   1.347  13.285
29580W        W96121  38.588  35.872   1.321
29581W        W96122  22.144   8.433  14.382
29582W        W96123  34.228  23.137   4.234
29583W        W96124  13.346  40.668   2.335
29584W        W96125   2.024   9.224  10.805
29585W        W96126  17.689  10.976  11.894
29586W        W96127  17.814  35.437  14.654
29587W        W96128  37.273  32.621   0.258
29588W        W96129  17.180  22.250  13.454
29589W        W96130  11.834  27.044  11.573
29590W        W96131  20.332  38.000  13.050
29591W        W96132  18.626  27.290  10.477
29592W        W96133  29.629  34.367   1.347
29593W        W96134   5.602  13.238   3.630
29594W        W96135   4.051  40.567  10.130
29595W        W96136  19.105  37.175   0.732
29596W        W96137  38.975  30.336  14.909
29597W        W96138  40.399  16.514  10.577
29598W        W96139   1.814  21.619   3.666
29599W        W96140  21.515  31.061   4.319
29600W        W96141   7.869  35.321   3.420
29601W        W96142  21.742  25.135  14.657
29602W        W96143  33.936  28.933  10.423
29603W        W96144  27.453   6.265   0.496
29604W        W96145   4.238  44.922  11.884
29605W        W96146  21.748  21.380  10.793
29606W        W96147  25.236  14.241   2.129
29607W        W96148  23.672   3.870  11.460
29608W        W96149  17.581   1.868   3.204
29609W        W96150  12.766  32.514  13.743
29610W        W96151  10.094  44.426  14.737
29611W        W96152  13.335  39.309  14.914
29612W        W96153  15.020  41.394   1.627
29613W        W96154   1.010  34.054   0.452
29614W        W96155  29.817   8.686   4.625
29615W        W96156  14.564  16.059  11.640
29616W        W96157  21.355   2.418   2.572
29617W        W96158  22.501  19.921   0.180
29618W        W96159   7.712  28.349   3.269
29619W        W96160   4.980  18.708   2.231
29620W        W96161  23.631  29.954  11.483
29621W        W96162   7.183  22.798  13.845
29622W        W96163   3.664  40.553  12.522
29623W        W96164  35.832   5.382   9.535
29624W        W96165   2.875   0.873   2.592
29625W        W96166  43.428   0.850  10.580
29626W        W96167   1.015   2.287   4.217
29627W        W96168  38.233   0.032  14.891
29628W        W96169  44.275  41.060   1.974
29629W        W96170  22.454  15.890  11.560
29630W        W96171  28.211  17.890   2.641
29631W        W96172  43.801  25.688  11.943
29632W        W96173   7.234  34.989  14.541
29633W        W96174  19.274  18.699  11.737
29634W        W96175  20.557   5.727  11.327
29635W        W96176  31.957  11.158  13.312
29636W        W96177  13.309   8.397   0.413
29637W        W96178   5.813  40.684   0.779
29638W        W96179  32.430   7.610  11.366
29639W        W96180  22.097  32.005   3.064
29640W        W96181   0.271  34.957  11.026
29641W        W96182  15.648  34.698   4.068
29642W        W96183  28.066  13.010   3.979
29643W        W96184  34.525  43.569  11.488
29644W        W96185  13.674   7.667   4.045
29645W        W96186   2.442  33.677   5.736
29646W        W96187  28.051  37.040  12.427
29647W        W96188  12.100  23.905   2.714
29648W        W96189  36.457   2.866   2.949
29649W        W96190  17.919  38.850   0.781
29650W        W96191  40.818  34.403   2.360
29651W        W96192   4.895  34.498   2.409
29652W        W96193  22.979   4.261   4.960
29653W        W96194   3.740  31.442  13.504
29654W        W96195  40.588  32.926   1.346
29655W        W96196  28.174   8.302  12.361
29656W        W96197  38.017  26.058  11.763
29657W        W96198  40.829  32.121  10.714
29658W        W96199   8.876   3.854   0.249
29659W        W96200  24.208  29.035  11.151
29660W        W96201  18.097  36.851  12.921
29661W        W96202  15.767   5.051   1.904
29662W        W96203  15.694  42.048  11.158
29663W        W96204  17.791  33.923   0.603
29664W        W96205  30.827   7.853  10.765
29665W        W96206  32.636  13.315  12.809
29666W        W96207  19.707  20.146  13.100
29667W        W96208  36.399  43.857  14.218
29668W        W96209  42.939  18.699  13.933
29669W        W96210   6.428  23.065  13.710
29670W        W96211  40.268  18.947  10.896
29671W        W96212  26.104  15.234  11.204
29672W        W96213  16.616  24.181  10.748
29673W        W96214  18.785  18.240   2.219
29674W        W96215  35.041  29.383  13.583
29675W        W96216  23.725  23.435   2.384
29676W        W96217  23.024  34.403  10.806
29677W        W96218  31.172  31.128   0.389
29678W        W96219   2.271  35.960   4.129
29679W        W96220  43.283  14.698   3.275
29680W        W96221  17.989  19.550   2.863
29681W        W96222  29.232  24.262  11.487
29682W        W96223  25.580   1.197   3.697
29683W        W96224  37.396  36.875  10.667
29684W        W96225   8.204  35.908   1.937
29685W        W96226  19.980  30.221  11.342
29686W        W96227   9.803  43.623   4.142
29687W        W96228   7.926  29.794  12.887
29688W        W96229  29.650   3.374   3.221
29689W        W96230  35.595   4.338   1.656
29690W        W96231  39.454  10.363  13.027
29691W        W96232  35.534   4.815   1.837
29692W        W96233   3.223   3.971   3.648
29693W        W96234   0.514  16.825  11.897
29694W        W96235  36.309  26.393  13.262
29695W        W96236  29.691  23.963  10.715
29696W        W96237  10.138  24.555  10.734
29697W        W96238  32.418  15.297   2.615
29698W        W96239  40.744  29.020  10.786
29699W        W96240  29.839   9.546  12.492
29700W        W96241  23.291  22.764   0.919
29701W        W96242  29.662  12.559   2.358
29702W        W96243  21.289  29.945  12.509
29703W        W96244  20.227  12.060   1.756
29704W        W96245  10.243  22.766   5.015
29705W        W96246  42.834  30.729   0.373
29706W        W96247   1.763  37.427   0.752
29707W        W96248  14.535  18.541  14.248
29708W        W96249  25.886  41.104  13.351
29709W        W96250  18.313  40.765   3.715
29710W        W96251  36.767   8.248  13.807
29711W        W96252  35.888  22.549   1.848
29712W        W96253  35.596  35.104  12.818
29713W        W96254  11.941  28.599   4.881
29714W        W96255  37.351  13.116  11.156
29715W        W96256  11.111   9.614   1.177
29716W        W96257   3.859  20.433   2.183
29717W        W96258  14.777  15.121  13.836
29718W        W96259  24.171   0.360   2.590
29719W        W96260  30.010  37.035   0.380
29720W        W96261  43.356  40.916  14.550
29721W        W96262  12.305  19.767   0.500
29722W        W96263  31.635  42.205  14.745
29723W        W96264  42.783   2.685  13.634
29724W        W96265   2.542  17.962   4.117
29725W        W96266  43.215  24.158  11.515
29726W        W96267  26.929   9.442   2.681
29727W        W96268  18.207  28.457   3.453
29728W        W96269  33.304  34.822  11.683
29729W        W96270   3.310  40.885  10.702
29730W        W96271   4.660  12.869  11.580
29731W        W96272  39.334  29.522  12.600
29732W        W96273   1.755  43.732   0.756
29733W        W96274  38.705  31.029  12.943
29734W        W96275  36.965  11.994  10.636
29735W        W96276   6.048  16.924  10.245
29736W        W96277  10.597   3.850  13.403
29737W        W96278  40.756   1.329   0.104
29738W        W96279  23.147  31.990   1.961
29739W        W96280  23.825   1.737   2.244
29740W        W96281  33.620  19.017   2.887
29741W        W96282  12.561  31.942   1.313
29742W        W96283  30.508  39.580   4.811
29743W        W96284   3.182  37.146  13.367
29744W        W96285  30.141  20.280   2.340
29745W        W96286  43.864  22.991   1.708
29746W        W96287   2.732  40.043   2.327
29747W        W96288  31.485  13.886  13.943
29748W        W96289   1.477   7.086  11.675
29749W        W96290  21.574  40.383  12.911
29750W        W96291   1.284  10.351  11.412
29751W        W96292  37.525  43.437   1.256
29752W        W96293  30.219  37.305  14.973
29753W        W96294   9.634  29.576   0.991
29754W        W96295   9.088   5.757  14.001
29755W        W96296  39.301   8.138   1.816
29756W        W96297   9.402  16.996  13.623
29757W        W96298  20.813  17.645  12.390
29758W        W96299  43.509  35.934   2.502
29759W        W96300  26.063  28.993   0.515
29760W        W96301  20.624  41.389   2.278
29761W        W96302   6.863  29.155   4.060
29762W        W96303   2.737  24.440   3.851
29763W        W96304  28.937  22.088   4.535
29764W        W96305  26.691  14.528  11.591
29765W        W96306  16.119  43.611  12.865
29766W        W96307  26.033   8.849  13.887
29767W        W96308   6.228  20.408   3.255
29768W        W96309  20.041  24.636  13.799
29769W        W96310  30.193   4.217   3.250
29770W        W96311  16.555  24.570   3.613
29771W        W96312  21.200   9.849  13.436
29772W        W96313   0.335  30.592  13.156
29773W        W96314  10.054  13.718   2.237
29774W        W96315  32.945  31.943  10.759
29775W        W96316  38.903  28.570   0.821
29776W        W96317  19.699  42.128   0.494
29777W        W96318  14.865  36.908  12.896
29778W        W96319   5.675  28.075   1.854
29779W        W96320  31.105  34.028   1.937
29780W        W96321  12.263  22.726   3.833
29781W        W96322   6.860   7.352   4.372
29782W        W96323  23.505  12.198  14.560
29783W        W96324  20.732  40.455   4.331
29784W        W96325  19.257  35.013   3.169
29785W        W96326  26.420  16.638  12.506
29786W        W96327  25.954  21.958   0.362
29787W        W96328  23.795  17.767  13.400
29788W        W96329  16.315  38.392  10.796
29789W        W96330  28.319  17.934  11.046
29790W        W96331  41.220   7.770  14.780
29791W        W96332  25.894  21.438   2.442
29792W        W96333  31.062  25.519   2.216
29793W        W96334  24.557   1.311   2.670
29794W        W96335   3.047  42.457   0.731
29795W        W96336  35.620  23.072  12.109
29796W        W96337  25.697  12.512   1.243
29797W        W96338  21.273  24.067  11.166
29798W        W96339  37.836   3.819   0.289
29799W        W96340   1.540   8.761   2.750
29800W        W96341  16.889  27.631   1.400
29801W        W96342  14.827  42.740  13.946
29802W        W96343  15.916  22.556  11.777
29803W        W96344   6.054  12.777  14.487
29804W        W96345  44.255  40.146  10.860
29805W        W96346  42.935   5.942   0.587
29806W        W96347  26.216  34.956   4.514
29807W        W96348   6.987  37.448   0.087
29808W        W96349  21.046  18.609  13.393
29809W        W96350   6.545  39.703   1.218
29810W        W96351  34.131  13.234   3.030
29811W        W96352   2.441  33.521  13.130
29812W        W96353  32.229  16.984   3.754
29813W        W96354  37.015  17.615   4.473
29814W        W96355  37.075  19.456  12.110
29815W        W96356  20.688  37.042   4.614
29816W        W96357  14.996   6.259   2.087
29817W        W96358  37.429  14.712   2.930
29818W        W96359  31.536  30.290  13.005
29819W        W96360  32.447  13.692  13.084
29820W        W96361  40.404   5.754   4.621
29821W        W96362   6.797  29.513   2.331
29822W        W96363  12.064  41.606  11.212
29823W        W96364  30.349   1.711   3.271
29824W        W96365  22.644  21.530  14.590
29825W        W96366  18.910  26.107   4.724
29826W        W96367  25.119   9.690  12.917
29827W        W96368  36.598   7.316   1.018
29828W        W96369  16.008   8.840   0.938
29829W        W96370   7.661  31.675  13.251
29830W        W96371  12.221  29.346  10.673
29831W        W96372  24.231  13.133   3.908
29832W        W96373   3.517  22.022  14.598
29833W        W96374  39.299  40.390  10.997
29834W        W96375  14.660  44.956   2.705
29835W        W96376   7.439   6.464   2.801
29836W        W96377  35.375  36.660   1.315
29837W        W96378   1.527  42.979  12.836
29838W        W96379  11.314  14.305  10.905
29839W        W96380  15.877  39.486   3.385
29840W        W96381  33.948  38.766  12.313
29841W        W96382   1.851  41.377  14.295
29842W        W96383  43.557   3.468   3.291
29843W        W96384  13.330   5.922   1.283
29844W        W96385  19.577  14.062  12.109
29845W        W96386  13.619  37.244  14.393
29846W        W96387  27.991  22.402   3.818
29847W        W96388  41.578  34.113  13.054
29848W        W96389  33.364   5.379   1.640
29849W        W96390   8.733   3.414   3.839
29850W        W96391  33.545  38.847   4.520
29851W        W96392   6.467  10.646  11.200
29852W        W96393  13.741  21.771   1.782
29853W        W96394  21.587   9.666   2.256
29854W        W96395  24.160   4.368   3.584
29855W        W96396  14.882  20.892   2.314
29856W        W96397  42.395  19.129   1.774
29857W        W96398  28.449  27.948  12.823
29858W        W96399   1.240  17.229  13.753
29859W        W96400  19.603  32.029   4.995
29860W        W96401  14.868   3.726  12.729
29861W        W96402   3.764  38.489  11.600
29862W        W96403   4.213  13.169  11.633
29863W        W96404  14.759  32.125   3.639
29864W        W96405   0.340   1.667   5.051
29865W        W96406  16.297  19.185  10.719
29866W        W96407  20.809  30.212  11.114
29867W        W96408  40.283  35.551   1.728
29868W        W96409  12.805  33.665  11.425
29869W        W96410  30.658  33.075   1.861
29870W        W96411  34.675  29.669  14.445
29871W        W96412  40.994   3.860  10.638
29872W        W96413  43.575  23.502   4.614
29873W        W96414   1.734  27.594   1.417
29874W        W96415  37.985  44.383  12.048
29875W        W96416  37.834   4.287  11.694
29876W        W96417  43.922  21.032  10.608
29877W        W96418  19.154  18.573  10.181
29878W        W96419  43.285  33.572  12.709
29879W        W96420  40.541  19.103   2.402
29880W        W96421   2.344  15.532  13.938
29881W        W96422  36.930  20.547  13.458
29882W        W96423  24.757  30.347   4.863
29883W        W96424  20.560  31.640  12.539
29884W        W96425  20.028  20.272   1.168
29885W        W96426   3.821  22.806  12.180
29886W        W96427   1.922  13.231   4.054
29887W        W96428  38.277  17.709   0.378
29888W        W96429   6.034   7.212  10.341
29889W        W96430  19.529  23.214   1.369
29890W        W96431  20.015  19.757   0.991
29891W        W96432   3.303  36.466  12.468
29892W        W96433  27.136  40.322   2.663
29893W        W96434  16.693  32.211   1.422
29894W        W96435   7.135   7.411   0.643
29895W        W96436  12.225  18.721  12.491
29896W        W96437  44.496  24.691  13.011
29897W        W96438   2.761  32.345   2.635
29898W        W96439  11.857  18.467   3.625
29899W        W96440  33.456  29.067  10.303
29900W        W96441  11.221  37.279   1.304
29901W        W96442  37.512   6.638  14.768
29902W        W96443  14.421  30.407   3.872
29903W        W96444   0.729   6.248  14.041
29904W        W96445  18.546  44.429  12.927
29905W        W96446  11.292  15.171   0.876
29906W        W96447  35.660  18.347  12.444
29907W        W96448   3.868  39.572   0.448
29908W        W96449   5.863  34.912  13.940
29909W        W96450   2.776  10.161   1.408
29910W        W96451  33.451  17.619  11.258
29911W        W96452  31.503  26.026   0.472
29912W        W96453   1.419  22.297  11.435
29913W        W96454  38.922  18.092  12.652
29914W        W96455  42.963  22.299   2.207
29915W        W96456  32.883  35.344  13.884
29916W        W96457   9.763  43.986  13.478
29917W        W96458  21.240  12.589  12.172
29918W        W96459   1.992   0.296   1.647
29919W        W96460   7.587  11.764  14.355
29920W        W96461  26.320   2.031   1.939
29921W        W96462  16.658  44.548  12.272
29922W        W96463   3.708  12.762  14.612
29923W        W96464  27.559  27.633   3.574
29924W        W96465  37.307  28.197  11.136
29925W        W96466  15.238   7.348  13.231
29926W        W96467  21.073  23.277  14.363
29927W        W96468  21.196  22.097   2.133
29928W        W96469  18.508  27.763  13.076
29929W        W96470  31.025  32.710  14.850
29930W        W96471  37.045  17.241  14.989
29931W        W96472   8.313  37.797  11.154
29932W        W96473  37.753  43.756  13.682
29933W        W96474  32.053  43.290   4.115
29934W        W96475   9.408  43.406  13.905
29935W        W96476  26.023  41.396  12.042
29936W        W96477  35.377   8.754   2.835
29937W        W96478  30.578  17.744   2.829
29938W        W96479  32.882  15.267   4.514
29939W        W96480   7.399  44.466  11.062
29940W        W96481  20.532   4.405   0.993
29941W        W96482  38.349   4.604  12.561
29942W        W96483  41.669   9.211  12.827
29943W        W96484  28.077  19.030   3.592
29944W        W96485  25.626   8.232   0.268
29945W        W96486   4.249  17.861  11.075
29946W        W96487  19.264  24.125   0.421
29947W        W96488   3.409   0.055   4.426
29948W        W96489  32.454  32.966   3.609
29949W        W96490  44.948  23.582   2.845
29950W        W96491  20.551  16.361  13.885
29951W        W96492  21.422  15.145   3.084
29952W        W96493  17.259   4.691   5.189
29953W        W96494  21.816   6.958  10.357
29954W        W96495   8.233  44.469   0.076
29955W        W96496  35.163   8.225  13.360
29956W        W96497  22.092  37.003   0.206
29957W        W96498  28.847  26.170   3.646
29958W        W96499  38.550   7.471   3.338
29959W        W96500  43.538  44.350   3.796
29960W        W96501  40.937   0.400  12.582
29961W        W96502  42.682   0.314   1.962
29962W        W96503  38.108  30.570   4.228
29963W        W96504  23.511   8.235  14.512
29964W        W96505   5.457  28.256   4.653
29965W        W96506  19.864  37.807  11.639
29966W        W96507   8.342  35.064   2.610
29967W        W96508  10.536  31.722   3.168
29968W        W96509  15.675  32.723   0.887
29969W        W96510  30.988  39.944  11.623
29970W        W96511   3.929  30.652  11.124
29971W        W96512  38.957  31.471  12.717
29972W        W96513  41.088  29.627  14.732
29973W        W96514  19.071  18.211  12.524
29974W        W96515  43.814  31.445  13.768
29975W        W96516   8.604  10.564  14.379
29976W        W96517  40.337  13.380  13.958
29977W        W96518  13.435  43.817  14.727
29978W        W96519  30.896  28.289   1.457
29979W        W96520  29.424  14.659   1.518
29980W        W96521  40.848  40.294   3.353
29981W        W96522  17.118  21.742  13.032
29982W        W96523  43.726  19.319   0.846
29983W        W96524  38.851   4.790  12.041
29984W        W96525  38.444  20.566  13.468
29985W        W96526  26.738  37.966   2.778
29986W        W96527  22.549  24.052  14.988
29987W        W96528  12.297  20.624   2.013
29988W        W96529  14.063  11.487  14.651
29989W        W96530  37.542  40.886   2.277
29990W        W96531  39.260   2.479   2.036
29991W        W96532   4.635  26.529   1.797
29992W        W96533   5.891  16.416   2.556
29993W        W96534   3.550   7.089  12.951
29994W        W96535  28.381   1.397   2.162
29995W        W96536  25.525  13.737   1.343
29996W        W96537   4.203   1.105  14.454
29997W        W96538  13.340  28.238  13.769
29998W        W96539  17.666  44.560  14.119
29999W        W96540  15.988   0.392  12.435
30000W        W96541  30.383  23.569   1.365
30001W        W96542  25.299  10.187   4.808
30002W        W96543  18.401  17.953   1.927
30003W        W96544  13.268  15.590  13.064
30004W        W96545  21.014  19.332   2.339
30005W        W96546   6.682   1.862   0.930
30006W        W96547   2.314  14.139  11.172
30007W        W96548  18.787  16.780   4.896
30008W        W96549   3.908  42.214  11.505
30009W        W96550  37.620   4.438   4.035
30010W        W96551  27.356  19.966  13.392
30011W        W96552  40.320  33.128   1.799
30012W        W96553  28.913  25.442   0.493
30013W        W96554  33.113  17.314  11.489
30014W        W96555   4.837  43.228   3.222
30015W        W96556   7.228  18.043  12.965
30016W        W96557  28.141  30.475   0.969
30017W        W96558  10.321  11.603   9.984
30018W        W96559  21.547  35.831   3.614
30019W        W96560  27.051  31.796  14.853
30020W        W96561  19.741  40.267   3.603
30021W        W96562  43.455  16.333  13.875
30022W        W96563  18.761  33.919  12.570
30023W        W96564  37.589   3.882  14.814
30024W        W96565  11.865  16.316   4.336
30025W        W96566  14.237  34.433   0.377
30026W        W96567  19.680  11.371   2.367
30027W        W96568  25.664  17.869  12.648
30028W        W96569  23.488  43.326  12.562
30029W        W96570  20.112   5.695  11.639
30030W        W96571  15.155  37.703   0.381
30031W        W96572  33.748  11.268  13.511
30032W        W96573  30.998   4.075  13.361
30033W        W96574  31.282  43.406  13.324
30034W        W96575  28.685  37.930  13.567
30035W        W96576  23.428  23.762  12.645
30036W        W96577  21.335  18.384   5.058
30037W        W96578  15.217  40.761  14.412
30038W        W96579  32.030  43.837  14.715
30039W        W96580   7.214  17.108  13.018
30040W        W96581  40.865  37.185   0.580
30041W        W96582  26.710   3.694   3.164
30042W        W96583  15.142  33.571   9.939
30043W        W96584   0.002  31.572   0.262
30044W        W96585  15.260   9.641   2.223
30045W        W96586  31.659   9.124   3.726
30046W        W96587  43.994  35.475  13.908
30047W        W96588  14.305  16.516  11.660
30048W        W96589  14.647  20.248  10.950
30049W        W96590  36.046   9.399  12.168
30050W        W96591  43.303  27.530  12.008
30051W        W96592  18.699  20.813   0.402
30052W        W96593   1.181   1.981   2.264
30053W        W96594  32.085  36.592   3.743
30054W        W96595  35.382  27.405   2.395
30055W        W96596  24.566  31.562   1.349
30056W        W96597   1.249  27.491  10.640
30057W        W96598  28.186  44.762   4.433
30058W        W96599  17.016  39.936  12.488
30059W        W96600   3.198   6.111   2.877
30060W        W96601  33.856  38.098  10.615
30061W        W96602  15.156  29.907   1.903
30062W        W96603  21.170  29.079  14.790
30063W        W96604   6.260  40.961  12.169
30064W        W96605  25.703  42.467   4.051
30065W        W96606   3.883  43.372   3.394
30066W        W96607   1.307  25.052  13.891
30067W        W96608  15.762   1.289   4.791
30068W        W96609  22.101   7.359   4.585
30069W        W96610  34.337  29.141  14.082
30070W        W96611  20.346  18.501   0.432
30071W        W96612  25.440  30.420   1.951
30072W        W96613   9.982  20.046  12.796
30073W        W96614  22.430  38.928   3.354
30074W        W96615  17.973  29.471   0.558
30075W        W96616  43.743  18.789  14.399
30076W        W96617  18.125   4.418   1.880
30077W        W96618  27.684  14.742  10.521
30078W        W96619  42.334  26.614  11.935
30079W        W96620  12.612  39.506   4.467
30080W        W96621  13.238  21.828  13.087
30081W        W96622  32.845  36.592  12.477
30082W        W96623   1.546  30.390  11.252
30083W        W96624  36.565  14.599  11.140
30084W        W96625  44.952  17.155   4.627
30085W        W96626  39.850  17.955   3.130
30086W        W96627   7.485  35.412  13.802
30087W        W96628  12.145   2.673   1.786
30088W        W96629  35.688  17.478  13.177
30089W        W96630   1.716  36.824   3.343
30090W        W96631  19.167  42.378   1.845
30091W        W96632  16.073   9.258  12.552
30092W        W96633  43.197   0.793  14.826
30093W        W96634  43.076  11.058  14.097
30094W        W96635  36.146   6.813   0.378
30095W        W96636  44.914  30.494  12.899
30096W        W96637  32.152  29.446   5.093
30097W        W96638  37.582  40.035  13.034
30098W        W96639  16.846  34.439   1.896
30099W        W96640  36.562  39.408   3.416
30100W        W96641   6.181  36.918  14.866
30101W        W96642   3.198  29.647   2.631
30102W        W96643  19.572   3.431   1.134
30103W        W96644  18.642  40.958  13.678
30104W        W96645   7.674   2.533  12.887
30105W        W96646  23.081  43.241  11.269
30106W        W96647  36.008  35.438   2.000
30107W        W96648  15.668  31.468   1.185
30108W        W96649  38.383  20.709   0.991
30109W        W96650   5.904  35.523  10.677
30110W        W96651  32.029  16.513   3.660
30111W        W96652  31.583  38.564  11.748
30112W        W96653  38.594  21.313   3.633
30113W        W96654  14.754  44.195  11.626
30114W        W96655  31.606  27.055   3.858
30115W        W96656  20.076   9.097   4.909
30116W        W96657  20.267  26.016  11.961
30117W        W96658  22.978   4.126   4.158
30118W        W96659  36.498  26.414   3.947
30119W        W96660  40.626   8.888   4.162
30120W        W96661  11.378  33.594   1.572
30121W        W96662  16.744  36.452   4.797
30122W        W96663  24.545  29.582   2.278
30123W        W96664  39.570  30.113  13.044
30124W        W96665   6.959  21.957   0.083
30125W        W96666  25.157  34.161   1.373
30126W        W96667  19.024  41.859  14.516
30127W        W96668  26.043  38.975  14.333
30128W        W96669  38.160   3.435  14.483
30129W        W96670   9.613  28.034  11.522
30130W        W96671  14.392  11.433  10.859
30131W        W96672  21.036  24.218   0.053
30132W        W96673  18.281  42.029   2.727
30133W        W96674  29.023  43.537   3.352
30134W        W96675   8.040   5.529  14.473
30135W        W96676   9.940   8.141  10.899
30136W        W96677   9.134   6.813  12.875
30137W        W96678  34.704  40.316   2.147
30138W        W96679  10.602   2.930  11.577
30139W        W96680  34.969   1.579   3.940
30140W        W96681  17.112   2.455   4.193
30141W        W96682  24.647  29.755  14.415
30142W        W96683  39.887  42.237   3.207
30143W        W96684  32.491  30.424   4.829
30144W        W96685  27.440  31.513   3.329
30145W        W96686   0.446  38.769  12.577
30146W        W96687   6.700  36.321  13.495
30147W        W96688  41.836  11.480  13.394
30148W        W96689  21.890   1.836  13.348
30149W        W96690  15.865  37.239  11.065
30150W        W96691  14.221  23.799  11.587
30151W        W96692  37.966  32.939  12.514
30152W        W96693   6.211  21.747   2.310
30153W        W96694   0.328  16.237   4.143
30154W        W96695  34.470  42.704   0.759
30155W        W96696  37.327   1.280  12.909
30156W        W96697  23.056   0.034   4.592
30157W        W96698   8.963  35.054  13.066
30158W        W96699   5.245   8.133   1.818
30159W        W96700  27.964  14.333  13.906
30160W        W96701  43.193   6.839   1.271
30161W        W96702  21.978   4.854   3.114
30162W        W96703  16.605  10.962   4.320
30163W        W96704  18.655  40.979  14.501
30164W        W96705  17.665  12.863   1.491
30165W        W96706   7.933  44.606   4.759
30166W        W96707  22.081  12.172   4.794
30167W        W96708   6.049   0.457   2.688
30168W        W96709   9.886  43.188  13.986
30169W        W96710  42.266  43.494  11.283
30170W        W96711   5.883  30.162   1.651
30171W        W96712  41.955   5.004  11.709
30172W        W96713  14.314   7.081  12.339
30173W        W96714  15.207  26.343  11.164
30174W        W96715  26.243   2.521  11.525
30175W        W96716   4.376  38.305   0.301
30176W        W96717  10.679   1.998  11.408
30177W        W96718   1.571  41.821  14.402
30178W        W96719  10.706  44.005  13.420
30179W        W96720  32.369   1.713   4.110
30180W        W96721  22.996  15.159   3.785
30181W        W96722   1.324  35.865   0.403
30182W        W96723  43.446  30.684  10.503
30183W        W96724  34.183  12.135  13.918
30184W        W96725  14.871   0.873   3.838
30185W        W96726  35.001   6.920  13.143
30186W        W96727  19.843  29.375   1.666
30187W        W96728  11.767  10.832   0.815
30188W        W96729  37.673  25.056   3.468
30189W        W96730  29.422   1.327  11.761
30190W        W96731   4.946  14.306  12.556
30191W        W96732  41.684  19.312  10.539
30192W        W96733   5.657  12.248  10.660
30193W        W96734  25.171   5.918  14.908
30194W        W96735  29.597   7.194  13.148
30195W        W96736  27.407  33.569   3.155
30196W        W96737  38.470  27.176  11.662
30197W        W96738  32.492  27.613  10.338
30198W        W96739  29.612  27.646   1.662
30199W        W96740  22.764  33.523   4.224
30200W        W96741  23.522   9.883   1.383
30201W        W96742   9.954  31.927   0.325
30202W        W96743   7.678  18.701   0.011
30203W        W96744  19.140   2.233   2.365
30204W        W96745  36.323  38.162   4.172
30205W        W96746  23.752   0.467  10.748
30206W        W96747  38.802   2.505   1.783
30207W        W96748  40.475  27.451  14.212
30208W        W96749  35.532   0.306   1.647
30209W        W96750  31.808  22.583   5.261
30210W        W96751  35.005  34.364   1.239
30211W        W96752  17.193  43.874   2.922
30212W        W96753  18.345  27.398  13.398
30213W        W96754  19.386  27.485   0.765
30214W        W96755  44.343  36.305  12.961
30215W        W96756   2.441  23.080  12.451
30216W        W96757  13.205  13.636   1.404
30217W        W96758   2.998  44.259  14.931
30218W        W96759  28.042  40.699  11.625
30219W        W96760  13.329  37.491   0.469
30220W        W96761  20.167  20.579  11.183
30221W        W96762  23.212  33.554   1.527
30222W        W96763  42.356  13.415   1.312
30223W        W96764  42.533  32.197  11.322
30224W        W96765  24.930   1.280  11.695
30225W        W96766  10.116  12.228   1.895
30226W        W96767   7.172  13.186   1.207
30227W        W96768   7.796  14.467   2.142
30228W        W96769  19.737   5.286   3.921
30229W        W96770  10.192   0.075   1.480
30230W        W96771   8.209   9.458   0.845
30231W        W96772  17.112  44.484   3.655
30232W        W96773  26.305  38.268   1.660
30233W        W96774  33.872  20.337  14.998
30234W        W96775  36.003  19.803  13.150
30235W        W96776  34.664  38.458  13.914
30236W        W96777  36.017   1.848   0.385
30237W        W96778   4.385   8.364  12.403
30238W        W96779  19.338  29.226   2.378
30239W        W96780  35.058   7.871   3.690
30240W        W96781  25.497   0.895  13.792
30241W        W96782  31.851  17.992   4.664
30242W        W96783   6.237  12.457  14.872
30243W        W96784  43.983  26.410   1.790
30244W        W96785  31.673  35.346  14.386
30245W        W96786   4.236  22.062  11.596
30246W        W96787  11.633  35.013   0.413
30247W        W96788  26.192  40.221  11.554
30248W        W96789   2.133   2.829  12.591
30249W        W96790  18.327  38.465   1.349
30250W        W96791   6.840  24.311   5.612
30251W        W96792  32.567  42.386   1.804
30252W        W96793  11.435   1.342   2.713
30253W        W96794  15.147   1.066  11.432
30254W        W96795  22.533   2.399  11.719
30255W        W96796  20.308   8.123  14.070
30256W        W96797  16.628  43.264  12.450
30257W        W96798  32.092  18.095  14.284
30258W        W96799  33.603  32.976   0.674
30259W        W96800  43.291  37.329   2.661
30260W        W96801  24.537  34.545   3.132
30261W        W96802  23.182  40.586   0.263
30262W        W96803  21.237  41.709   3.692
30263W        W96804  30.463   5.108   1.324
30264W        W96805  26.614  21.388   2.206
30265W        W96806  11.814   4.710  14.399
30266W        W96807  29.391  13.395  14.875
30267W        W96808  38.234   6.734  13.136
30268W        W96809  10.737  10.487   2.371
30269W        W96810  15.789  10.593   1.722
30270W        W96811  38.164  41.214  13.833
30271W        W96812  15.526   5.167   3.166
30272W        W96813   6.435   5.078   4.269
30273W        W96814  35.077  26.580   1.893
30274W        W96815  14.152  41.871  14.175
30275W        W96816  41.828  11.939  10.414
30276W        W96817  10.277  19.114  13.378
30277W        W96818   5.241  28.115  10.216
30278W        W96819   0.749  40.067   2.519
30279W        W96820  29.574  23.951   0.945
30280W        W96821  22.597  39.953  13.351
30281W        W96822  24.551  22.249  14.435
30282W        W96823  18.467  13.227   4.400
30283W        W96824  24.659  19.666   0.207
30284W        W96825  32.664  44.017   2.290
30285W        W96826  38.824  23.110   1.187
30286W        W96827  25.856  37.902   0.830
30287W        W96828  37.109  12.253   0.804
30288W        W96829   2.654  10.745   4.876
30289W        W96830  15.821  24.543   4.584
30290W        W96831  16.827   1.669   3.776
30291W        W96832   1.981  17.140   4.047
30292W        W96833  39.869  24.056  11.671
30293W        W96834  37.127  16.452  13.482
30294W        W96835  18.670   3.313   0.175
30295W        W96836   8.710   4.931  14.413
30296W        W96837  15.246  29.608  13.996
30297W        W96838  11.474  20.329   4.267
30298W        W96839  40.042  30.491   3.107
30299W        W96840   4.762  23.195   1.848
30300W        W96841  14.647   7.329   4.850
30301W        W96842  12.352   8.118   2.586
30302W        W96843  26.078  22.040   4.694
30303W        W96844  16.793   3.522   0.385
30304W        W96845  13.884  25.257   3.584
30305W        W96846   4.123  19.571   4.795
30306W        W96847  32.115  43.831  12.369
30307W        W96848   7.549  10.099   1.636
30308W        W96849  39.034  30.022   0.957
30309W        W96850  10.223  30.373  13.752
30310W        W96851  10.800  38.509   0.337
30311W        W96852   3.235  39.455   2.040
30312W        W96853   3.490  16.317  12.917
30313W        W96854   2.394  27.713   0.284
30314W        W96855  37.006  19.687   3.370
30315W        W96856  44.259  36.928  14.733
30316W        W96857  29.894   3.978   3.908
30317W        W96858  30.503  33.971  11.580
30318W        W96859  12.904  30.281   1.878
30319W        W96860   6.622   8.747   4.407
30320W        W96861  21.794  19.155  12.960
30321W        W96862  29.940  15.819  13.072
30322W        W96863  41.039  21.266  14.846
30323W        W96864  24.570  28.942   2.855
30324W        W96865  22.720  44.379   1.544
30325W        W96866  37.030  43.540  10.897
30326W        W96867   6.356   2.194   3.618
30327W        W96868  29.024  16.357  11.805
30328W        W96869  36.604  37.472   4.609
30329W        W96870   2.293  23.169  14.385
30330W        W96871  31.907  37.584  11.982
30331W        W96872  37.595   3.117   5.110
30332W        W96873  21.731  44.436  11.239
30333W        W96874   1.968  20.749  14.509
30334W        W96875  15.177   5.843  13.568
30335W        W96876  43.716  16.317  11.252
30336W        W96877   6.225  22.068  10.838
30337W        W96878  16.631  21.103  12.483
30338W        W96879   0.666  11.134   0.554
30339W        W96880  42.772  41.395   2.155
30340W        W96881   8.186  28.676   1.425
30341W        W96882  22.849   0.321   1.644
30342W        W96883  37.607  25.477  14.837
30343W        W96884  21.281   9.619   0.179
30344W        W96885   4.913  28.391   0.841
30345W        W96886  15.127  25.082  11.580
30346W        W96887   3.225  43.934  11.708
30347W        W96888   0.218  33.035  14.500
30348W        W96889  39.379  29.194   1.200
30349W        W96890  23.232  32.185  10.667
30350W        W96891  44.941  10.711   0.816
30351W        W96892  42.359  44.737   2.326
30352W        W96893  39.483  14.907  12.839
30353W        W96894  11.704  32.630  10.724
30354W        W96895  42.084   3.831  13.874
30355W        W96896  19.820  26.802   0.345
30356W        W96897   9.137  20.106   0.339
30357W        W96898  43.491  38.658  14.861
30358W        W96899  34.052  10.058   0.712
30359W        W96900  40.357  11.138   3.310
30360W        W96901  40.712  24.356  14.411
30361W        W96902  39.327  24.777  14.333
30362W        W96903  42.450  34.382  10.506
30363W        W96904  44.475  10.090  12.048
30364W        W96905  39.520  32.523   3.668
30365W        W96906  10.109  40.359  14.802
30366W        W96907  15.577   5.528   4.580
30367W        W96908   3.279   6.549  14.119
30368W        W96909   0.515  30.881   0.447
30369W        W96910   7.200  40.215  11.649
30370W        W96911  39.719  17.447  14.904
30371W        W96912   5.306  33.150  11.561
30372W        W96913  37.897  16.539  12.988
30373W        W96914   9.686  13.252   4.145
30374W        W96915  24.519  42.889   4.457
30375W        W96916  43.906  23.291   2.407
30376W        W96917  14.580  41.341   1.901
30377W        W96918  19.295  43.371   2.421
30378W        W96919  34.061  23.442   0.337
30379W        W96920  16.745  29.364   4.156
30380W        W96921  34.397  32.436   0.543
30381W        W96922  17.144   7.562   3.167
30382W        W96923   3.709  37.783  11.043
30383W        W96924  17.655  40.749   2.547
30384W        W96925   3.703  34.633  12.842
30385W        W96926   7.367  33.420   1.529
30386W        W96927  43.705  13.890  12.946
30387W        W96928   9.324  39.348  14.365
30388W        W96929   0.051   3.275   4.536
30389W        W96930  25.177  31.475   4.623
30390W        W96931  26.633  36.538  13.237
30391W        W96932  22.274  11.983   3.269
30392W        W96933  39.224  14.087   0.307
30393W        W96934  37.395  42.947  13.763
30394W        W96935  44.511  16.381  14.964
30395W        W96936   3.189  42.452  14.120
30396W        W96937  15.329  38.885  14.295
30397W        W96938  38.566  19.105  11.228
30398W        W96939  14.616   4.338  14.878
30399W        W96940  10.466  44.295   1.337
30400W        W96941  31.113   3.528   4.173
30401W        W96942  29.986  25.456   4.370
30402W        W96943  35.995  37.085   0.800
30403W        W96944  21.599  44.767   2.933
30404W        W96945  32.878   0.823   2.164
30405W        W96946   6.898  14.602   4.180
30406W        W96947   5.868  34.065  13.305
30407W        W96948   5.279  26.286   4.693
30408W        W96949  26.149   8.690   4.896
30409W        W96950  30.061   1.327   4.245
30410W        W96951  24.966  43.758   3.293
30411W        W96952  10.341  21.591   1.463
30412W        W96953  38.307  11.709   1.366
30413W        W96954   3.883  27.636   2.716
30414W        W96955  11.370  20.333   2.373
30415W        W96956   6.334  18.339   4.909
30416W        W96957  15.754   0.426   4.542
30417W        W96958  23.075  17.711   2.501
30418W        W96959   6.359   0.752  14.355
30419W        W96960   4.733   8.328  11.155
30420W        W96961  44.190  26.022  11.945
30421W        W96962   4.462   3.573  14.151
30422W        W96963  43.328  44.236  14.712
30423W        W96964  14.257   6.667   1.487
30424W        W96965  43.897  20.629   3.767
30425W        W96966  39.297   9.672  10.713
30426W        W96967  38.567   2.834  10.684
30427W        W96968  21.042  20.716  10.642
30428W        W96969  33.003  36.395  13.784
30429W        W96970  30.461  44.448  12.631
30430W        W96971   9.178  38.440  12.575
30431W        W96972  36.784  41.623  12.636
30432W        W96973  10.470  34.102  13.954
30433W        W96974  24.227  30.186   1.319
30434W        W96975  42.822  16.610  11.148
30435W        W96976  42.447  19.652  14.542
30436W        W96977  36.395  22.550  12.186
30437W        W96978   4.232  42.342   1.655
30438W        W96979   5.515  42.117   1.785
30439W        W96980  28.170   4.182  14.339
30440W        W96981  20.247  31.294   1.746
30441W        W96982   2.818  21.646   4.613
30442W        W96983   9.739  30.034   4.723
30443W        W96984  12.247  11.102  14.985
30444W        W96985  40.710   7.675   3.502
30445W        W96986  10.787  31.197  11.191
30446W        W96987  32.832  19.049  12.469
30447W        W96988   8.186  14.847  11.583
30448W        W96989  10.723  35.029   4.553
30449W        W96990  25.072  43.398   4.916
30450W        W96991  36.130  10.157  12.913
30451W        W96992  43.576   8.352   0.001
30452W        W96993  37.524   2.247  11.361
30453W        W96994  16.804   8.151  13.678
30454W        W96995  44.843   3.512   3.593
30455W        W96996  25.205  35.904   3.370
30456W        W96997   2.707  23.909  10.670
30457W        W96998   9.386  25.142   3.313
30458W        W96999  34.625  18.050  11.631
30459W        W97000   2.493  39.922   1.845
30460W        W97001  32.796  41.309  14.230
30461W        W97002  43.469  36.243   1.788
30462W        W97003  28.139  16.207  12.191
30463W        W97004  18.802  10.430  12.403
30464W        W97005   7.239  28.429  11.589
30465W        W97006  27.931  32.963   2.738
30466W        W97007   2.043   3.691  14.034
30467W        W97008   4.766  36.936   3.065
30468W        W97009  31.873  27.726   3.812
30469W        W97010   6.173  31.799   1.232
30470W        W97011  39.017   3.266   2.249
30471W        W97012  41.805  34.536  11.618
30472W        W97013  25.042  38.444   1.668
30473W        W97014   6.380   2.736   4.500
30474W        W97015  10.811  20.430  11.167
30475W        W97016  44.820  36.237   3.857
30476W        W97017  11.200  24.682  10.665
30477W        W97018  26.914  29.578   0.523
30478W        W97019  18.786  27.467  11.700
30479W        W97020   7.311   6.823  12.193
30480W        W97021  19.121  36.573   3.170
30481W        W97022  44.570  42.016   1.262
30482W        W97023   2.170  15.645   0.295
30483W        W97024  21.378  29.137   4.699
30484W        W97025  34.025  16.211  11.228
30485W        W97026  21.797  10.588  12.468
30486W        W97027  39.377  24.326   3.099
30487W        W97028  21.747   7.018   4.760
30488W        W97029  16.242   1.800  10.939
30489W        W97030  30.548  28.696   1.459
30490W        W97031   8.158  22.790  11.407
30491W        W97032  20.185  41.538   4.515
30492W        W97033  25.448  38.304   3.710
30493W        W97034   5.969  29.106   3.791
30494W        W97035  44.535  22.204   3.785
30495W        W97036  10.161  43.750   0.901
30496W        W97037   4.464  41.250   3.732
30497W        W97038  20.721  31.908  12.141
30498W        W97039  20.897   9.763   4.105
30499W        W97040  35.504  34.496   1.134
30500W        W97041  21.467  17.769  13.850
30501W        W97042  13.769   9.636   2.113
30502W        W97043  15.777  17.956   4.259
30503W        W97044  27.970  29.631  10.659
30504W        W97045  21.162   2.515   0.881
30505W        W97046  13.877  20.975  12.053
30506W        W97047  28.641   9.920   1.763
30507W        W97048  35.059   2.966   0.477
30508W        W97049  43.021  32.371   1.433
30509W        W97050   8.687   5.940   4.136
30510W        W97051   4.451  28.919  11.134
30511W        W97052  26.102  18.396   0.866
30512W        W97053  18.083  35.488   1.371
30513W        W97054  42.233   9.815  12.983
30514W        W97055  20.760  24.032  11.285
30515W        W97056  43.385  16.944   2.337
30516W        W97057   9.904  18.922   3.372
30517W        W97058  29.658  25.025  10.896
30518W        W97059  24.650  40.298   1.257
30519W        W97060  33.339  34.815  12.458
30520W        W97061   4.902  30.584  13.140
30521W        W97062  17.395  27.630  10.300
30522W        W97063   9.492   9.250  14.664
30523W        W97064   5.677   8.253  14.993
30524W        W97065  32.692  34.643  14.379
30525W        W97066  33.408  38.871  14.876
30526W        W97067  33.953   8.131   4.341
30527W        W97068  27.923  22.217   4.336
30528W        W97069  35.880  19.025  11.991
30529W        W97070  31.461  37.551  12.480
30530W        W97071   3.439  24.437   1.322
30531W        W97072  37.622  21.498  11.157
30532W        W97073  40.642   1.670   5.197
30533W        W97074  16.092  10.715  12.554
30534W        W97075  26.572  16.556   2.744
30535W        W97076   9.716  13.255  11.150
30536W        W97077  17.116  30.501   2.104
30537W        W97078   0.199  13.369  10.757
30538W        W97079  21.021  41.764   0.449
30539W        W97080  40.373  17.195  13.396
30540W        W97081   2.824   2.242   2.868
30541W        W97082  24.174  33.684   3.199
30542W        W97083  14.832  44.790   3.664
30543W        W97084  31.088  21.948  11.681
30544W        W97085   7.805  38.520   1.763
30545W        W97086  39.444  22.018  10.916
30546W        W97087  10.258  23.378  12.380
30547W        W97088   4.634  15.784   0.700
30548W        W97089  21.441   9.216   0.876
30549W        W97090  36.651   3.925  12.491
30550W        W97091   2.483  27.695  11.675
30551W        W97092   8.679  41.950  13.206
30552W        W97093  28.952  40.824   3.826
30553W        W97094  21.048   8.820   1.832
30554W        W97095  11.289   5.635   2.091
30555W        W97096  32.579  10.440  14.842
30556W        W97097  16.519   6.228  10.743
30557W        W97098  36.625   2.643   2.369
30558W        W97099  23.985   1.110   1.872
30559W        W97100   2.248   9.659  13.952
30560W        W97101  15.163  40.729   0.278
30561W        W97102  32.029  41.084  14.269
30562W        W97103  17.732  34.900  10.742
30563W        W97104  10.316  26.905   4.870
30564W        W97105  10.298  17.810   4.709
30565W        W97106   4.342   0.971   4.190
30566W        W97107  40.826  12.683  11.156
30567W        W97108   7.462  22.829  12.942
30568W        W97109  29.414   0.944   3.598
30569W        W97110  26.625  11.390  14.824
30570W        W97111  43.740   8.778   5.093
30571W        W97112  32.361  16.036  13.363
30572W        W97113   3.362  41.850  14.416
30573W        W97114  11.800  29.086  10.120
30574W        W97115  29.039  10.622  12.434
30575W        W97116  10.656  30.401   3.579
30576W        W97117  19.267  26.217  14.946
30577W        W97118  11.860  37.077   0.922
30578W        W97119  10.864  10.965   3.283
30579W        W97120   3.718   1.353   2.208
30580W        W97121  27.357  15.804  10.103
30581W        W97122  34.453  16.591   1.512
30582W        W97123   3.729  16.552   3.538
30583W        W97124  22.228   6.425   0.941
30584W        W97125  33.461   6.714  11.190
30585W        W97126  27.123   8.514   3.126
30586W        W97127   7.574  42.053  14.026
30587W        W97128  18.772  19.086   4.089
30588W        W97129  39.107  27.107   0.300
30589W        W97130  31.823  18.632  11.834
30590W        W97131  16.236  33.413   5.379
30591W        W97132  30.292   9.315  12.530
30592W        W97133  23.655  35.453  14.357
30593W        W97134  15.233  18.727   1.170
30594W        W97135  21.753  35.155   3.071
30595W        W97136  30.016   6.476  12.126
30596W        W97137  14.800   0.369  12.001
30597W        W97138   2.372  31.505   0.359
30598W        W97139  40.666  17.097   3.762
30599W        W97140  33.984  29.961  13.905
30600W        W97141  40.538  19.894  14.261
30601W        W97142  30.443  27.723   4.523
30602W        W97143  20.337   1.583  14.574
30603W        W97144  23.725  31.891   2.644
30604W        W97145  22.557  15.126  13.615
30605W        W97146  11.475  14.731  14.508
30606W        W97147  34.674  14.752  12.571
30607W        W97148  26.490  22.768  12.883
30608W        W97149   6.234  14.489  14.480
30609W        W97150  43.055  17.181   0.149
30610W        W97151  29.979  37.600   2.026
30611W        W97152  33.561  32.021  14.529
30612W        W97153  22.480  22.104  10.622
30613W        W97154   6.767  22.056  12.072
30614W        W97155   8.678  38.764  11.122
30615W        W97156   4.829  27.253  12.982
30616W        W97157  24.942  10.959   1.605
30617W        W97158   2.518   6.726  11.361
30618W        W97159  39.087  14.905   3.743
30619W        W97160  21.036  34.501   4.858
30620W        W97161  31.524  37.775   1.663
30621W        W97162   4.813   6.696  13.024
30622W        W97163  17.800   7.200  12.058
30623W        W97164  31.928  11.767  10.677
30624W        W97165  31.189  38.553   3.905
30625W        W97166  11.636   7.215  13.873
30626W        W97167  32.131  15.793  12.057
30627W        W97168   6.471  41.209   3.238
30628W        W97169  37.749  23.755  14.984
30629W        W97170  42.952   5.207  11.425
30630W        W97171   1.350   7.824  14.734
30631W        W97172   3.339  44.983  11.634
30632W        W97173  12.934  27.167  10.721
30633W        W97174  39.123  22.471  10.767
30634W        W97175  18.817   5.280   3.823
30635W        W97176   5.968  14.160  11.869
30636W        W97177  40.758  19.800   2.366
30637W        W97178  33.684  42.155  11.966
30638W        W97179  28.474  28.084   3.529
30639W        W97180  22.975  26.210  13.383
30640W        W97181  22.132   0.220   0.351
30641W        W97182  19.541  37.382  14.743
30642W        W97183  43.268  35.911   0.206
30643W        W97184  17.436  37.309   3.356
30644W        W97185  40.313   7.919  13.052
30645W        W97186   1.335  44.259   1.692
30646W        W97187  38.825  18.711  11.391
30647W        W97188  40.060  23.355   0.005
30648W        W97189   2.233  14.159   0.767
30649W        W97190  11.157   7.350  14.024
30650W        W97191  33.788  28.381  11.086
30651W        W97192   2.490  10.755   3.769
30652W        W97193  21.083  10.671  10.242
30653W        W97194  37.783  22.816  13.480
30654W        W97195  25.657  16.409   2.737
30655W        W97196   0.950   8.682   2.335
30656W        W97197  13.521   2.994   1.725
30657W        W97198  28.493   5.384  11.945
30658W        W97199  43.180  23.746  14.522
30659W        W97200   7.877  24.999  13.373
30660W        W97201  26.490  14.825  13.797
30661W        W97202   6.776  39.913   3.678
30662W        W97203  31.449  14.784   3.117
30663W        W97204   2.922  25.016   1.731
30664W        W97205  41.007   8.849   3.196
30665W        W97206   5.156  20.341  12.922
30666W        W97207  20.053  30.822  12.587
30667W        W97208   1.330  38.782   0.354
30668W        W97209  31.470  11.592  11.140
30669W        W97210  35.402  38.789   3.390
30670W        W97211  22.987  34.900   0.028
30671W        W97212  19.758  18.744  14.280
30672W        W97213   7.723  21.097  12.616
30673W        W97214  11.596  12.614   2.170
30674W        W97215  10.380  18.527  14.812
30675W        W97216  29.525   1.215  14.890
30676W        W97217   5.326  36.537   4.887
30677W        W97218  38.710  21.746  11.080
30678W        W97219  13.545  33.207  14.471
30679W        W97220  41.194  14.895   5.374
30680W        W97221  29.734  42.544   0.829
30681W        W97222  30.335  10.231   1.330
30682W        W97223  14.349  10.752   0.907
30683W        W97224  30.600  36.500   4.530
30684W        W97225  22.790  22.667   1.601
30685W        W97226  10.400  35.218  11.352
30686W        W97227  33.948   6.182  11.459
30687W        W97228  34.774  43.972   1.260
30688W        W97229   3.768   3.679   4.066
30689W        W97230  30.937  36.893  12.504
30690W        W97231   0.872  21.062   1.215
30691W        W97232  44.753  14.524  13.309
30692W        W97233   6.211  32.489   4.066
30693W        W97234  24.926  35.342  14.484
30694W        W97235  22.429   9.632  13.010
30695W        W97236  41.555   2.910   0.330
30696W        W97237  29.925  42.494  10.670
30697W        W97238  32.305  32.873   4.083
30698W        W97239  42.534  23.135   2.095
30699W        W97240  11.375  37.381   4.517
30700W        W97241  33.070  44.593   0.316
30701W        W97242  27.511  10.641  13.616
30702W        W97243  21.933   1.728   2.687
30703W        W97244  12.247  33.878  10.311
30704W        W97245   0.546  34.856   2.206
30705W        W97246   0.378  24.104   0.013
30706W        W97247  20.346   0.910   3.672
30707W        W97248  43.307  33.608   0.548
30708W        W97249  33.784  33.837   4.946
30709W        W97250  38.416   5.859   4.778
30710W        W97251   6.265  30.534  13.880
30711W        W97252   8.915  18.416   2.794
30712W        W97253  39.710  41.229   2.858
30713W        W97254  23.011  43.995  13.280
30714W        W97255  10.433  22.170  13.131
30715W        W97256  15.609  38.526   1.899
30716W        W97257  38.127  27.452  14.568
30717W        W97258   3.805  33.080  14.850
30718W        W97259  15.734  11.904  14.521
30719W        W97260  18.135  17.271  12.379
30720W        W97261  33.714  10.200   1.155
30721W        W97262   0.768   2.924  12.190
30722W        W97263   6.180  42.023   3.659
30723W        W97264  41.133  28.566   3.221
30724W        W97265  16.468  10.200  11.928
30725W        W97266  35.600  42.404  14.863
30726W        W97267  11.636  41.378   0.368
30727W        W97268  13.772  21.090  13.828
30728W        W97269  35.145  27.972   4.124
30729W        W97270  30.434  24.755   0.617
30730W        W97271   0.422  14.668  12.752
30731W        W97272  34.237  35.359   2.253
30732W        W97273  42.849  25.141   0.451
30733W        W97274   7.873  40.142   0.322
30734W        W97275  42.466   7.328   0.950
30735W        W97276  22.595  18.404   2.729
30736W        W97277   2.156  30.043  10.675
30737W        W97278   5.899   7.200   1.759
30738W        W97279  33.934  28.142  14.069
30739W        W97280   5.513  37.513   0.233
30740W        W97281  19.653  24.459  14.058
30741W        W97282  24.381  25.049  12.496
30742W        W97283  42.742  43.321  10.640
30743W        W97284   4.621  14.108  10.360
30744W        W97285  33.183   0.453  12.988
30745W        W97286   7.236  35.644   2.195
30746W        W97287  33.491   9.178  14.434
30747W        W97288  15.116   9.787   2.709
30748W        W97289  44.759  33.633   2.802
30749W        W97290  21.044  10.073   0.279
30750W        W97291  15.494   9.232   3.199
30751W        W97292   7.679  40.930   0.710
30752W        W97293  28.796  29.432  14.844
30753W        W97294  24.725  27.392   0.893
30754W        W97295   6.723  28.468   4.315
30755W        W97296  34.529  28.709   0.365
30756W        W97297   0.306  26.224   2.307
30757W        W97298  44.273  18.752  14.332
30758W        W97299  23.014   8.715  10.145
30759W        W97300  12.606  35.311  11.111
30760W        W97301  42.216  37.430  13.408
30761W        W97302  37.311  13.318   1.604
30762W        W97303  21.691  44.550  12.190
30763W        W97304   7.163   8.975   3.116
30764W        W97305  28.562  33.592  10.659
30765W        W97306  32.195  29.178   0.969
30766W        W97307  15.164  37.329   0.757
30767W        W97308  10.116  11.756   3.349
30768W        W97309  31.097  27.197  11.990
30769W        W97310  32.008  35.507   0.798
30770W        W97311  33.644   0.896   0.191
30771W        W97312  21.124  14.549   3.583
30772W        W97313  41.600  16.285  12.305
30773W        W97314  27.416  36.505  11.841
30774W        W97315  22.494  16.684   0.152
30775W        W97316  14.333  18.513  14.743
30776W        W97317  20.054  35.896   4.181
30777W        W97318   8.081  23.523  11.085
30778W        W97319   3.919   5.986   2.217
30779W        W97320  38.739  16.647   4.775
30780W        W97321  16.746  43.031   1.490
30781W        W97322   8.489  35.611  12.544
30782W        W97323   2.244   8.028  14.845
30783W        W97324  15.199  17.840  12.995
30784W        W97325  21.516  26.357   0.536
30785W        W97326   2.761   6.451  14.317
30786W        W97327  21.536  39.681   5.094
30787W        W97328  25.513   5.957   1.159
30788W        W97329  15.270  38.831  13.767
30789W        W97330   5.648  38.143  14.048
30790W        W97331  11.351  34.749  11.936
30791W        W97332  23.163  10.645   3.566
30792W        W97333  40.421  16.317   5.218
30793W        W97334   1.219  31.900   1.961
30794W        W97335  40.359  24.760  14.261
30795W        W97336  29.130   2.187  10.649
30796W        W97337  18.738  30.090   0.657
30797W        W97338  28.968  10.183   2.471
30798W        W97339  40.581  38.783  12.568
30799W        W97340  36.195  12.809   4.196
30800W        W97341  31.061  40.434   0.807
30801W        W97342  44.745  28.654   0.338
30802W        W97343  23.914  29.868  14.553
30803W        W97344  26.021  39.914   3.323
30804W        W97345  20.805  15.611   2.077
30805W        W97346   9.957  11.732   1.872
30806W        W97347   2.971  18.867   0.787
30807W        W97348  32.125   9.449   0.517
30808W        W97349  44.076  30.679   4.062
30809W        W97350   4.731  34.961   1.677
30810W        W97351  44.879   4.062  10.489
30811W        W97352  39.709   5.983  12.281
30812W        W97353   6.133   5.994  10.966
30813W        W97354   4.390   7.093  13.721
30814W        W97355  28.592  23.276  11.093
30815W        W97356  43.718  29.445  12.909
30816W        W97357  44.161   9.588   4.904
30817W        W97358  41.218  44.903  12.597
30818W        W97359  40.083  28.479   1.375
30819W        W97360  30.557  10.791   1.351
30820W        W97361  19.741  12.214   4.051
30821W        W97362   7.354   1.241  10.661
30822W        W97363  42.212  32.186   0.385
30823W        W97364  34.816  37.290   2.018
30824W        W97365   0.260   2.801  12.859
30825W        W97366  37.622  14.732  13.905
30826W        W97367  30.188   2.127   4.126
30827W        W97368   8.407  31.621  14.938
30828W        W97369  12.808  24.004   2.100
30829W        W97370  43.956  16.247  10.805
30830W        W97371   7.632  28.990   2.593
30831W        W97372   4.321   6.127  11.111
30832W        W97373   3.550   3.221  13.385
30833W        W97374  34.139  23.770   2.664
30834W        W97375   2.401  14.876   1.500
30835W        W97376  12.085   0.408   2.394
30836W        W97377  10.189   2.030  11.153
30837W        W97378  38.413  25.714  13.961
30838W        W97379  34.604   8.485   4.832
30839W        W97380  28.880   8.212   0.771
30840W        W97381   1.104   6.079  13.012
30841W        W97382  39.847   3.379   2.629
30842W        W97383   9.626   9.272   0.291
30843W        W97384  20.529  30.816  14.909
30844W        W97385  12.351  17.339   3.861
30845W        W97386  36.596   7.176   0.173
30846W        W97387  19.573  39.345   3.771
30847W        W97388  43.936   3.916  11.802
30848W        W97389  19.668  40.121  14.082
30849W        W97390  26.046  31.053  13.220
30850W        W97391  42.950  32.645   3.338
30851W        W97392  32.922  31.497  14.616
30852W        W97393  13.624  13.096  12.006
30853W        W97394   4.506  20.760   3.914
30854W        W97395  23.161  12.177   2.761
30855W        W97396  28.587   8.781   3.275
30856W        W97397  16.060  31.880   3.210
30857W        W97398   9.183  30.007  14.711
30858W        W97399   2.533   7.762   4.746
30859W        W97400  43.317  31.238  10.758
30860W        W97401  16.341  34.479   4.527
30861W        W97402   2.373  12.219   2.845
30862W        W97403  18.365  25.683  11.468
30863W        W97404  41.252  41.228  10.923
30864W        W97405  14.259   7.077   0.543
30865W        W97406   9.346  32.155   4.579
30866W        W97407  26.609  11.169  11.146
30867W        W97408  26.810   9.200  13.327
30868W        W97409  30.863   2.009  11.231
30869W        W97410  29.356   4.302  12.771
30870W        W97411  16.012  34.439  13.043
30871W        W97412  28.643  22.245   0.982
30872W        W97413  43.332  42.511  10.928
30873W        W97414  30.822  14.321   4.938
30874W        W97415  23.817   3.426   0.045
30875W        W97416  25.351  31.360   4.078
30876W        W97417  10.622  23.126  11.650
30877W        W97418  25.694  28.864   4.894
30878W        W97419  10.534  28.383  11.637
30879W        W97420  38.064  34.300   0.765
30880W        W97421  16.607  44.572   1.330
30881W        W97422  32.053  34.260   4.843
30882W        W97423   5.386  32.163   3.840
30883W        W97424   4.921  10.814   0.092
30884W        W97425   5.704   8.954   2.004
30885W        W97426  14.737  44.834  12.054
30886W        W97427  16.234  40.561  11.476
30887W        W97428   5.921  40.481   1.244
30888W        W97429   6.936  34.979   2.258
30889W        W97430  10.364   8.115   0.532
30890W        W97431  13.573  42.378  11.959
30891W        W97432  13.561   0.480  14.356
30892W        W97433   8.161   7.439   0.748
30893W        W97434  37.951  22.727   1.920
30894W        W97435   1.294  16.191   1.176
30895W        W97436  12.656  11.214   0.761
30896W        W97437  42.887  35.060   3.230
30897W        W97438  36.437  36.802   2.408
30898W        W97439  17.733   5.749  10.711
30899W        W97440  41.727  37.032  14.026
30900W        W97441  18.007   5.408  10.404
30901W        W97442   1.874   1.498   5.282
30902W        W97443  28.334  20.016   3.551
30903W        W97444  37.038  23.763  14.016
30904W        W97445  11.712  44.168   2.726
30905W        W97446  21.573  32.004   1.776
30906W        W97447  29.365  31.115   2.835
30907W        W97448  39.969  21.570  11.638
30908W        W97449  27.662  20.341  14.978
30909W        W97450  44.229  23.903   3.400
30910W        W97451  33.144  22.307   1.420
30911W        W97452  33.636  43.317  11.108
30912W        W97453  39.756  44.990   0.819
30913W        W97454   2.773  29.576  10.794
30914W        W97455  26.179  23.212  11.602
30915W        W97456  36.949   4.921   2.969
30916W        W97457  34.049   6.975  11.340
30917W        W97458  26.392  44.837   1.459
30918W        W97459   2.434  26.224  10.156
30919W        W97460   9.219  26.725   2.970
30920W        W97461  36.484  36.133   1.804
30921W        W97462  14.650  41.272   0.846
30922W        W97463  35.138  42.749   1.976
30923W        W97464  34.670  35.044   3.209
30924W        W97465   4.272  22.526   4.718
30925W        W97466  19.559  36.640  13.030
30926W        W97467  12.772  10.226  14.959
30927W        W97468   2.919  16.927   0.885
30928W        W97469   1.705  37.983  13.495
30929W        W97470  13.406  14.640  13.437
30930W        W97471  43.723   7.248   0.242
30931W        W97472  35.214  38.281   2.914
30932W        W97473  28.044   6.116  11.526
30933W        W97474  28.866  34.103  12.997
30934W        W97475  10.712  33.597  13.854
30935W        W97476   4.378  14.397   0.420
30936W        W97477  11.322  22.637  14.484
30937W        W97478  10.862  36.485  14.264
30938W        W97479  34.931   7.984   0.094
30939W        W97480  22.864   9.927   2.190
30940W        W97481  37.787   3.223  12.603
30941W        W97482  35.969  20.811  14.400
30942W        W97483  18.674  25.288  11.444
30943W        W97484  44.044  12.578  13.592
30944W        W97485  40.336  42.319  14.324
30945W        W97486   1.351  13.105   0.925
30946W        W97487  36.588  13.566  11.986
30947W        W97488  21.245  44.266   4.806
30948W        W97489  25.994  14.580  11.904
30949W        W97490  32.360  22.457  13.866
30950W        W97491  27.406  33.052  14.067
30951W        W97492  34.433  19.300  10.753
30952W        W97493   3.705  36.727   4.516
30953W        W97494  28.041  26.877   3.301
30954W        W97495   8.911  44.262  12.951
30955W        W97496   0.355  26.594   2.723
30956W        W97497  39.752  13.202  11.686
30957W        W97498  25.282   7.312  11.378
30958W        W97499  23.613   3.155  12.165
30959W        W97500  33.482  16.061  11.854
30960W        W97501  35.318  23.574   3.241
30961W        W97502  41.069   2.438  13.933
30962W        W97503  29.207   8.213   0.347
30963W        W97504  34.117  13.211  12.375
30964W        W97505  17.258  41.504  11.576
30965W        W97506   6.061   1.187  11.252
30966W        W97507  20.537  42.492   1.333
30967W        W97508  33.179  10.746   2.425
30968W        W97509  14.347  28.646   2.218
30969W        W97510  18.786   9.767   1.940
30970W        W97511  32.581  18.050   2.776
30971W        W97512  34.292  38.028   1.381
30972W        W97513  21.014   6.323  14.738
30973W        W97514  33.120  18.194   0.860
30974W        W97515  22.064  24.609   2.282
30975W        W97516  25.117  15.123   2.237
30976W        W97517  23.069  25.764   0.343
30977W        W97518  17.576  15.746   1.270
30978W        W97519   5.277   8.315   2.303
30979W        W97520   6.181  31.538   0.706
30980W        W97521   8.664  26.089  11.366
30981W        W97522  43.339  11.719  13.318
30982W        W97523   1.802  44.803   1.623
30983W        W97524   2.005  27.219   4.036
30984W        W97525  12.302  35.448   2.675
30985W        W97526  14.455  32.903   1.861
30986W        W97527  10.791  21.665  14.478
30987W        W97528   7.411  23.664  13.417
30988W        W97529  29.560  31.619  14.959
30989W        W97530   7.181  39.395  13.873
30990W        W97531  11.142  23.852  12.536
30991W        W97532  17.634  36.786  14.841
30992W        W97533  35.406  40.052  10.875
30993W        W97534  18.151  39.061   2.351
30994W        W97535  42.161  35.649   2.791
30995W        W97536  33.665  38.646   2.182
30996W        W97537  19.416  32.126   0.804
30997W        W97538  27.678   2.759   1.665
30998W        W97539  18.236   5.819   0.634
30999W        W97540  42.993  27.981   4.423
31000W        W97541   6.537  33.452  10.805
31001W        W97542  32.065   3.949   4.111
31002W        W97543  40.839  18.134  10.612
31003W        W97544  21.714  21.684   0.923
31004W        W97545   1.804  38.553   3.769
31005W        W97546  42.617  15.098   0.797
31006W        W97547   8.892  40.855   0.366
31007W        W97548  38.027  20.584   1.778
31008W        W97549  32.137  30.871  13.372
31009W        W97550  11.079  25.646  11.623
31010W        W97551  30.517   1.390   3.749
31011W        W97552  33.102  42.386  10.610
31012W        W97553  25.015  41.804  10.771
31013W        W97554   8.223  21.018  10.918
31014W        W97555  34.380  15.554  12.984
31015W        W97556  11.274  26.554   4.537
31016W        W97557   2.807   7.903   1.856
31017W        W97558  18.983  28.575  10.729
31018W        W97559  10.615   4.370  13.378
31019W        W97560  39.304  44.235   4.217
31020W        W97561  31.952  38.315  12.494
31021W        W97562  10.766  28.097   4.624
31022W        W97563  17.253  40.992  10.692
31023W        W97564  30.943  14.603   3.148
31024W        W97565  31.982   7.445  13.394
31025W        W97566  27.557   0.750  11.664
31026W        W97567  36.254  25.974  12.529
31027W        W97568  19.232  38.346   0.960
31028W        W97569  10.459   0.403  13.317
31029W        W97570  14.816  31.094   1.820
31030W        W97571  39.124  44.263  13.064
31031W        W97572   7.425  42.513  13.202
31032W        W97573  21.970  15.931   1.411
31033W        W97574  18.683   7.417   1.645
31034W        W97575  16.267  20.092  11.097
31035W        W97576  23.083   7.573  12.468
31036W        W97577  26.787  41.558   3.781
31037W        W97578  34.782  28.591  12.535
31038W        W97579  44.175  18.664  12.339
31039W        W97580  42.386  25.509  12.862
31040W        W97581  16.239  28.486  11.017
31041W        W97582  17.327  39.779   2.456
31042W        W97583  16.344   2.691   1.300
31043W        W97584  24.903  33.154   3.281
31044W        W97585  22.102  44.042  13.919
31045W        W97586   7.257  28.967  12.085
31046W        W97587   7.998  36.211  14.763
31047W        W97588  24.238  16.828   2.041
31048W        W97589  15.172  12.399   4.594
31049W        W97590  14.820  24.187  12.852
31050W        W97591  39.395   2.766  11.817
31051W        W97592   0.788  41.912  13.193
31052W        W97593  32.015  25.956   4.539
31053W        W97594  39.097   7.867   2.665
31054W        W97595   1.421   6.662   4.369
31055W        W97596   0.902  38.123  13.853
31056W        W97597  21.764  15.862  10.215
31057W        W97598  18.754  36.897  13.914
31058W        W97599  11.636   5.940   1.874
31059W        W97600  31.797   4.449   2.850
31060W        W97601   5.738   4.449  11.902
31061W        W97602  35.481  39.461   0.284
31062W        W97603  18.850  40.849   0.032
31063W        W97604  24.491   6.828   4.197
31064W        W97605  29.987  35.814  14.812
31065W        W97606  14.141  40.375   4.254
31066W        W97607  23.692  10.830  13.933
31067W        W97608  37.475   6.812   2.916
31068W        W97609   3.411   0.753  12.003
31069W        W97610  21.243  20.148  12.166
31070W        W97611  27.916  14.129  13.013
31071W        W97612   9.182  38.926   1.429
31072W        W97613  26.231  31.678   0.190
31073W        W97614  36.419  31.419   4.331
31074W        W97615  12.341  21.319  12.899
31075W        W97616   7.172   1.688  10.825
31076W        W97617   5.182  32.494   3.159
31077W        W97618   2.425  36.943   2.752
31078W        W97619   6.260  44.936   2.938
31079W        W97620  26.135  24.171   3.134
31080W        W97621   4.532  36.556   1.628
31081W        W97622  28.328  24.078  13.726
31082W        W97623  32.420  21.699  12.557
31083W        W97624  10.646  33.328   1.428
31084W        W97625  12.702   1.313  11.094
31085W        W97626  27.643  20.569   3.813
31086W        W97627  11.918  13.046  12.958
31087W        W97628  18.055  16.504  11.068
31088W        W97629  24.023  14.340  14.014
31089W        W97630  27.745   2.889   0.730
31090W        W97631  19.770  23.534  14.918
31091W        W97632  19.774  24.880   1.783
31092W        W97633  39.669  23.623   2.408
31093W        W97634  13.194   0.784  12.553
31094W        W97635  37.745   5.629   2.342
31095W        W97636  21.682  26.100  13.342
31096W        W97637  39.044  10.605   3.312
31097W        W97638  18.325   2.542  13.391
31098W        W97639   1.700   9.270   1.313
31099W        W97640  34.370  37.196  11.561
31100W        W97641  10.936  29.069   3.300
31101W        W97642   8.766  42.385  13.467
31102W        W97643  29.621  25.842  13.467
31103W        W97644  10.313   6.202  14.414
31104W        W97645  18.508  27.536   2.087
31105W        W97646  36.567  38.846  11.997
31106W        W97647  38.350  31.877   1.917
31107W        W97648  23.483  25.273  13.498
31108W        W97649   8.930  12.335  14.302
31109W        W97650   3.589  11.329  10.235
31110W        W97651  27.519  11.599  14.891
31111W        W97652  11.869   2.657  13.522
31112W        W97653  23.992  35.593   0.085
31113W        W97654  43.940  36.107   0.717
31114W        W97655  40.877  35.352   1.168
31115W        W97656  19.503  25.698   2.973
31116W        W97657  34.743  16.606   2.994
31117W        W97658  42.556  38.955  13.520
31118W        W97659  15.588  44.529  12.943
31119W        W97660  20.819  44.953  11.162
31120W        W97661  16.187  12.810   4.220
31121W        W97662  26.002  30.994   2.472
31122W        W97663   7.912   9.966   2.763
31123W        W97664  20.691  18.556   3.225
31124W        W97665  10.263  36.422   0.780
31125W        W97666  31.989  21.536  14.323
31126W        W97667   6.491   3.738   4.336
31127W        W97668  29.597  17.369   4.624
31128W        W97669  22.695  26.758   0.838
31129W        W97670   1.661  25.230   4.075
31130W        W97671  39.352  19.869  13.859
31131W        W97672  27.042  23.062  13.098
31132W        W97673  33.501  12.303  10.246
31133W        W97674  35.934  20.291  12.990
31134W        W97675   3.666   4.910  14.308
31135W        W97676  27.994   6.732  10.735
31136W        W97677  42.480  19.671  10.526
31137W        W97678  29.480  31.886  13.862
31138W        W97679  29.592   5.595  14.036
31139W        W97680   3.297  12.359   2.375
31140W        W97681  41.831  29.985   0.853
31141W        W97682   8.108  42.848  12.495
31142W        W97683  25.763  35.601  11.029
31143W        W97684   1.929  36.184   1.943
31144W        W97685   0.409  10.014  14.310
31145W        W97686  19.921  40.970   2.201
31146W        W97687  12.607  26.851   4.886
31147W        W97688  37.827  14.685  10.504
31148W        W97689  29.132  22.564   3.228
31149W        W97690   2.413  21.580  14.915
31150W        W97691  15.762  37.976   3.542
31151W        W97692   4.939   2.150  11.215
31152W        W97693  28.158   8.011  14.813
31153W        W97694  12.252  12.149   4.151
31154W        W97695  13.222   9.833   2.243
31155W        W97696  17.672  34.206   1.043
31156W        W97697   1.054  12.706   3.639
31157W        W97698  39.072   8.443  11.112
31158W        W97699  24.453  14.783   0.034
31159W        W97700   0.990   0.010  14.456
31160W        W97701   8.896  23.435   4.908
31161W        W97702   1.768  22.528   3.311
31162W        W97703   6.477  20.179  13.342
31163W        W97704   7.316   4.970  11.661
31164W        W97705   1.550  22.943   0.539
31165W        W97706   4.927  19.291  12.462
31166W        W97707  28.437   7.259   1.955
31167W        W97708   0.029  41.274   0.003
31168W        W97709  34.003   2.116   4.108
31169W        W97710  10.278  11.043   4.324
31170W        W97711  16.645   1.112  12.101
31171W        W97712  13.251  11.957  12.914
31172W        W97713  14.330  29.302   5.489
31173W        W97714   0.345  36.800  14.981
31174W        W97715  29.703  22.623  14.653
31175W        W97716  41.653  25.316   4.575
31176W        W97717  20.953  12.436  13.492
31177W        W97718  27.656  12.403   2.158
31178W        W97719   9.275  33.233   2.441
31179W        W97720  12.495   1.671   0.870
31180W        W97721  10.973  38.727   5.527
31181W        W97722  42.099  42.565  13.328
31182W        W97723   6.080  27.975  11.534
31183W        W97724   5.878  36.911   2.316
31184W        W97725   4.735   2.723   3.496
31185W        W97726  37.702  43.821   3.286
31186W        W97727   8.125  25.225  11.447
31187W        W97728  40.310  22.835   1.294
31188W        W97729  33.974   6.559   0.796
31189W        W97730  16.982  40.451  12.587
31190W        W97731  20.484  36.353   4.271
31191W        W97732   4.980  37.460  11.180
31192W        W97733  33.478  37.650  11.577
31193W        W97734  22.209   2.655   1.798
31194W        W97735  34.423  39.818  14.967
31195W        W97736  14.098  36.204  13.177
31196W        W97737  18.679  21.696  10.506
31197W        W97738  13.776  18.644  12.568
31198W        W97739  31.959  11.969  11.976
31199W        W97740  36.440  35.069  12.143
31200W        W97741   9.530  14.546  10.819
31201W        W97742  19.838  40.933  13.806
31202W        W97743  28.348  41.866   1.779
31203W        W97744  34.637  34.622   3.528
31204W        W97745  21.218  43.826  10.645
31205W        W97746   4.344  15.354   4.124
31206W        W97747  36.957  20.695  14.919
31207W        W97748  44.805  34.413   2.363
31208W        W97749  34.058  11.686   3.592
31209W        W97750  34.798  44.315   2.197
31210W        W97751  31.346  42.882   4.064
31211W        W97752  28.271  43.485  12.844
31212W        W97753  31.565  14.479   2.263
31213W        W97754  18.561   0.750   0.797
31214W        W97755  35.952  27.037  14.766
31215W        W97756  27.592  25.678   1.463
31216W        W97757   4.434  20.871   2.385
31217W        W97758  30.197  30.605   2.767
31218W        W97759  19.100   0.298   3.772
31219W        W97760  29.153  11.757  11.067
31220W        W97761   3.493  19.981   2.351
31221W        W97762  31.381   9.298   4.117
31222W        W97763  17.373   5.719   2.153
31223W        W97764  44.835  20.867   2.831
31224W        W97765   3.313  25.311  12.607
31225W        W97766   7.365  15.736   4.115
31226W        W97767  31.075  38.958  13.471
31227W        W97768  19.608  33.571   5.002
31228W        W97769  35.556  35.419  13.664
31229W        W97770  15.925   3.160  14.835
31230W        W97771  16.734   3.161  10.908
31231W        W97772  17.134  40.892  13.495
31232W        W97773  24.128  31.215  13.107
31233W        W97774  21.635  16.503  11.575
31234W        W97775   8.358  20.682  11.659
31235W        W97776   7.116  25.527   5.491
31236W        W97777  29.167  31.059  13.429
31237W        W97778   0.593   5.914  13.061
31238W        W97779  44.106   1.715  12.479
31239W        W97780   3.135  26.294  13.576
31240W        W97781  16.768   3.674  13.297
31241W        W97782  41.475  16.645  12.666
31242W        W97783  27.705  33.189   4.055
31243W        W97784  27.594   1.475  14.491
31244W        W97785  19.772  17.694  14.964
31245W        W97786  12.087  12.611   0.108
31246W        W97787  42.721  32.212   0.450
31247W        W97788   0.089  29.200   3.342
31248W        W97789  31.442  36.933  13.136
31249W        W97790  41.162  26.618  14.427
31250W        W97791  29.452   1.861   3.081
31251W        W97792  44.033  13.088  14.309
31252W        W97793   1.798  35.975   4.709
31253W        W97794  32.447  11.730  11.932
31254W        W97795   6.013   5.632  13.467
31255W        W97796  39.187  26.557   4.645
31256W        W97797  33.257  39.871  14.539
31257W        W97798  18.601  22.345   1.258
31258W        W97799   3.795  18.676   4.528
31259W        W97800   5.336  33.848   0.046
31260W        W97801  30.506  28.234  13.785
31261W        W97802  10.292  22.413  13.568
31262W        W97803  24.453  37.009  13.040
31263W        W97804  20.682  22.313   2.784
31264W        W97805  28.480  41.876  11.735
31265W        W97806   9.413  19.528  13.867
31266W        W97807  39.336  20.650  12.454
31267W        W97808   9.295   5.035   2.982
31268W        W97809  44.381  27.648   1.997
31269W        W97810  22.482  24.398  12.535
31270W        W97811  26.968  13.151  11.516
31271W        W97812   2.107   5.840  10.369
31272W        W97813  42.436   4.524  11.529
31273W        W97814  42.502  14.249   3.974
31274W        W97815   3.683   7.254  12.045
31275W        W97816  23.442  25.589   0.033
31276W        W97817   9.856   1.918   4.248
31277W        W97818   3.412   8.899  13.868
31278W        W97819  44.576  31.590  14.289
31279W        W97820  11.136   0.998   2.424
31280W        W97821  35.926  34.298  12.111
31281W        W97822  41.960  10.539   3.271
31282W        W97823   7.754  38.045  14.125
31283W        W97824   4.978  19.194  13.324
31284W        W97825  31.443   6.629   0.323
31285W        W97826  11.571  17.641   3.873
31286W        W97827  22.581  32.655   4.624
31287W        W97828   4.782   2.374  14.987
31288W        W97829  26.252  12.480   2.385
31289W        W97830  12.307  16.670  13.916
31290W        W97831  38.915  30.610  14.447
31291W        W97832  25.329  37.495  11.111
31292W        W97833  25.651   0.694   1.981
31293W        W97834  20.502  24.924  10.528
31294W        W97835   6.663  10.901   2.822
31295W        W97836   5.761  13.790   0.442
31296W        W97837  32.997   0.285  13.492
31297W        W97838  37.866  33.601  14.567
31298W        W97839   2.908  36.440   0.970
31299W        W97840   2.708   6.409  12.878
31300W        W97841  20.050  37.354   0.898
31301W        W97842  19.742   6.609  14.835
31302W        W97843  40.763  25.030   3.727
31303W        W97844  12.082  36.095   0.797
31304W        W97845  25.548  22.648  11.051
31305W        W97846  21.278  18.029  10.181
31306W        W97847  30.551   5.853  12.529
31307W        W97848   8.292   5.493   1.248
31308W        W97849   8.162   2.684  12.594
31309W        W97850   1.761  18.714  11.484
31310W        W97851   1.470  34.538   4.654
31311W        W97852  16.174  41.569  12.467
31312W        W97853  36.823  33.503  11.754
31313W        W97854  29.165  28.489   3.217
31314W        W97855  22.986  39.611  13.388
31315W        W97856  42.215   2.118   3.181
31316W        W97857  23.599  17.745  11.201
31317W        W97858  31.812  26.627  12.483
31318W        W97859   6.206  16.091  14.863
31319W        W97860  37.079  42.018  12.910
31320W        W97861  21.119  10.893  14.868
31321W        W97862   1.824  32.789   4.920
31322W        W97863  21.427  15.227  12.589
31323W        W97864   2.939   2.242   1.415
31324W        W97865  16.103  10.692   3.585
31325W        W97866  14.266  40.797   0.236
31326W        W97867  10.424  33.531  11.131
31327W        W97868  28.041   3.401  11.655
31328W        W97869  42.923  40.479  11.085
31329W        W97870  27.563  12.781  11.369
31330W        W97871  42.298  16.786   0.300
31331W        W97872   7.624  22.562   2.815
31332W        W97873   7.439  31.265  14.083
31333W        W97874  35.828  25.023   4.135
31334W        W97875   4.413  14.828  11.994
31335W        W97876  24.488  20.729   2.738
31336W        W97877  36.825  35.002   3.401
31337W        W97878  21.120   3.140  14.493
31338W        W97879  40.843  42.416  13.786
31339W        W97880   8.744  23.475   2.896
31340W        W97881  44.759  31.343  13.872
31341W        W97882  12.380   8.245   4.444
31342W        W97883  23.737  36.571   2.645
31343W        W97884  12.703  16.704   3.271
31344W        W97885  37.435  21.351  11.619
31345W        W97886  44.698   5.177  13.557
31346W        W97887  42.103  35.932  11.550
31347W        W97888   7.670  30.072  13.329
31348W        W97889  38.987  21.657   4.157
31349W        W97890  10.782  14.371  11.039
31350W        W97891  33.772  38.141  11.514
31351W        W97892   6.202  39.318  11.853
31352W        W97893  43.491  38.948  12.395
31353W        W97894  20.597  35.097  11.210
31354W        W97895  26.762  20.580   3.683
31355W        W97896  29.486  24.552   4.660
31356W        W97897  21.539  22.578  11.731
31357W        W97898  13.855  39.634  11.025
31358W        W97899   9.112  31.047  14.808
31359W        W97900  29.994   4.505   3.795
31360W        W97901  15.322  30.898   2.745
31361W        W97902  18.574  17.231  10.993
31362W        W97903  18.335  42.859   4.633
31363W        W97904  35.510  19.306   1.720
31364W        W97905  32.477  26.221  11.993
31365W        W97906  28.503  14.320  12.450
31366W        W97907  35.949  11.795   4.458
31367W        W97908  38.247  18.431   1.455
31368W        W97909  29.240  22.218  11.143
31369W        W97910  32.986  42.480  14.885
31370W        W97911  18.726  43.877  12.245
31371W        W97912  16.542  33.585   2.875
31372W        W97913  39.276  33.391  10.701
31373W        W97914   5.326  10.756   1.674
31374W        W97915  40.622  33.166  12.033
31375W        W97916  20.933  14.237  12.359
31376W        W97917  13.603   4.045   1.031
31377W        W97918   9.382   0.573  12.520
31378W        W97919  25.258  43.855  10.635
31379W        W97920   1.066   3.923  12.496
31380W        W97921   4.224   4.797   4.992
31381W        W97922  44.899  18.894  11.920
31382W        W97923  13.813  20.104  10.767
31383W        W97924  18.530  32.626   4.797
31384W        W97925  22.531   5.829  12.041
31385W        W97926   1.351  20.325  10.672
31386W        W97927  34.833   3.359   0.797
31387W        W97928  13.414   2.356  10.653
31388W        W97929  14.696  24.529   3.748
31389W        W97930  43.019  42.759  13.401
31390W        W97931  43.961  41.989   2.094
31391W        W97932  15.212  35.944  10.578
31392W        W97933   5.141  32.875   1.160
31393W        W97934  42.303  34.630   2.847
31394W        W97935   8.129  21.336  13.951
31395W        W97936  13.252  22.544   3.400
31396W        W97937  29.132  43.246   1.880
31397W        W97938  15.668  38.494  13.513
31398W        W97939  34.459  34.330   2.635
31399W        W97940  44.068  28.759  10.145
31400W        W97941   5.749  14.824  13.675
31401W        W97942  32.834  29.240   0.089
31402W        W97943  43.315   6.862  14.905
31403W        W97944  18.025   8.551   1.923
31404W        W97945  20.106  35.796   3.131
31405W        W97946  37.730  18.565   1.528
31406W        W97947   4.691  44.552  14.821
31407W        W97948  10.868  21.244   4.621
31408W        W97949  22.584  29.783   3.168
31409W        W97950  26.130  30.340  11.545
31410W        W97951  25.481  30.531  14.870
31411W        W97952   3.775  39.344  10.590
31412W        W97953   7.676   0.176   5.362
31413W        W97954  14.341  36.621   1.291
31414W        W97955   7.820  28.213  13.615
31415W        W97956  14.788  26.113   4.152
31416W        W97957  33.179  25.034   3.445
31417W        W97958   9.800  26.952   2.815
31418W        W97959  25.951  33.921  14.023
31419W        W97960  16.118   8.636  13.839
31420W        W97961  20.669  11.408   1.399
31421W        W97962  18.415   8.220  12.123
31422W        W97963  44.821  42.100  12.120
31423W        W97964  37.941  42.404   0.648
31424W        W97965  20.883  38.820   1.652
31425W        W97966  42.584   0.259  14.102
31426W        W97967  34.133   2.932  14.489
31427W        W97968  38.889  31.787  14.822
31428W        W97969  32.884   9.786  14.941
31429W        W97970   8.432  15.556  11.157
31430W        W97971  11.103   4.059  12.218
31431W        W97972   4.726   9.690   2.333
31432W        W97973  35.111  35.840  12.140
31433W        W97974  40.367   4.175   1.418
31434W        W97975  38.298  39.881   0.875
31435W        W97976   1.738   1.667   1.300
31436W        W97977  19.041   9.406   0.820
31437W        W97978  44.286  37.880  11.858
31438W        W97979  19.641  22.630   2.704
31439W        W97980  11.888  30.534  10.248
31440W        W97981  10.007  29.756  11.221
31441W        W97982  13.448  42.855  10.076
31442W        W97983   1.717  11.214   3.736
31443W        W97984  24.681  19.704   3.098
31444W        W97985  19.473  33.497  12.304
31445W        W97986  20.410  43.150   3.159
31446W        W97987  33.201  39.276  14.580
31447W        W97988  21.717   8.195   0.285
31448W        W97989   7.222  18.844  13.539
31449W        W97990  22.998  26.269  14.369
31450W        W97991   0.394  38.059  13.873
31451W        W97992  19.846  37.109   2.154
31452W        W97993  43.764  28.937   3.725
31453W        W97994  40.137  29.263  14.823
31454W        W97995   2.864   3.686   0.478
31455W        W97996  23.531  12.859   2.289
31456W        W97997  30.031  36.863   3.402
31457W        W97998   0.987  23.489   4.896
31458W        W97999  21.463  32.882   0.757
31459W        W98000   6.160   1.283  13.071
31460W        W98001  14.425  44.141   0.003
31461W        W98002  33.589  43.037  12.412
31462W        W98003  24.016   3.179  10.975
31463W        W98004   7.357  40.159   2.819
31464W        W98005  15.763   0.117   2.437
31465W        W98006   8.754  41.333  11.619
31466W        W98007  13.839  23.499   2.403
31467W        W98008  31.623  43.625  11.006
31468W        W98009  13.651  26.875   2.876
31469W        W98010  42.257  18.886  14.630
31470W        W98011  39.519  33.884   4.031
31471W        W98012  20.615  42.241  12.866
31472W        W98013  10.698  30.912   3.651
31473W        W98014   5.865  33.391   0.390
31474W        W98015  40.778  35.887   3.299
31475W        W98016  25.264  37.464  14.214
31476W        W98017  24.762  42.231  10.948
31477W        W98018   1.144  37.612  11.161
31478W        W98019  35.640  44.265   4.472
31479W        W98020  33.272   1.694   1.773
31480W        W98021  42.197  32.415  14.274
31481W        W98022  42.286  26.664  13.814
31482W        W98023  25.763  38.793   3.576
31483W        W98024  12.167   3.642   4.601
31484W        W98025  38.735  42.428  14.385
31485W        W98026  12.210  42.787  13.980
31486W        W98027  30.923  25.316  10.558
31487W        W98028  33.086  44.268  14.344
31488W        W98029   1.935  30.911  10.683
31489W        W98030  38.819  23.052  14.479
31490W        W98031  25.833   4.552   2.435
31491W        W98032  20.628  21.974  11.888
31492W        W98033  17.571  37.923   2.421
31493W        W98034   0.297  38.474  11.666
31494W        W98035   8.458  24.480   1.835
31495W        W98036  36.453  10.759   1.776
31496W        W98037   9.006  15.703  12.497
31497W        W98038  39.370  23.504   1.983
31498W        W98039  10.353   0.419  11.641
31499W        W98040  19.605  18.697  13.044
31500W        W98041  34.401  38.923  11.599
31501W        W98042  34.438  29.478   4.451
31502W        W98043   5.189  13.120  13.109
31503W        W98044  27.904  32.492   2.398
31504W        W98045  39.837  24.186   2.371
31505W        W98046  34.432  30.608  12.535
31506W        W98047  41.834  43.209  14.837
31507W        W98048   6.443  19.569  10.707
31508W        W98049  20.206  22.267   4.527
31509W        W98050   9.941  23.606   3.174
31510W        W98051  14.733  38.572  13.350
31511W        W98052  31.189  30.787  14.390
31512W        W98053  18.239  43.308   3.783
31513W        W98054  22.753  35.826  10.962
31514W        W98055   6.223   5.322   2.193
31515W        W98056  27.714   1.817   2.198
31516W        W98057  33.928  36.245   3.980
31517W        W98058  20.277   8.466  10.117
31518W        W98059  17.333  13.241  14.830
31519W        W98060  15.723   0.756   1.693
31520W        W98061  31.415   9.077   0.928
31521W        W98062  32.384   3.476  12.173
31522W        W98063   5.370   6.717  13.468
31523W        W98064   4.013  24.027  11.449
31524W        W98065  24.232  38.325   4.235
31525W        W98066  14.317  10.753   0.368
31526W        W98067  44.831  13.721  10.867
31527W        W98068  16.657  21.800   4.101
31528W        W98069  26.444  15.881   3.206
31529W        W98070  22.205  24.500   3.234
31530W        W98071  42.287  26.000   3.312
31531W        W98072  34.120   7.794   0.087
31532W        W98073  11.647   5.033  10.177
31533W        W98074  30.096  32.718  11.533
31534W        W98075  13.255  18.494   0.825
31535W        W98076  29.407  13.831   4.887
31536W        W98077   7.940  12.387   4.337
31537W        W98078  16.342  41.401   2.262
31538W        W98079  37.523  14.217   3.079
31539W        W98080   9.692  37.027   3.244
31540W        W98081  11.546  30.671   1.238
31541W        W98082  10.199  33.563   1.329
31542W        W98083   4.629  11.049  10.397
31543W        W98084  27.539  26.692  14.313
31544W        W98085  20.568  34.493  14.448
31545W        W98086  28.612  40.327  14.378
31546W        W98087  24.508  19.087  12.817
31547W        W98088   0.813  17.178   0.057
31548W        W98089  41.362  20.475  14.482
31549W        W98090  16.487  44.687   2.687
31550W        W98091   5.262  28.877   2.897
31551W        W98092  11.433  40.000   1.690
31552W        W98093  22.547  23.116  10.550
31553W        W98094  13.695  31.964  13.970
31554W        W98095  42.444  39.970   3.657
31555W        W98096  39.267  33.185  14.979
31556W        W98097  12.037  10.655   4.845
31557W        W98098  26.546   8.483  12.946
31558W        W98099  13.179  42.488  14.880
31559W        W98100  32.668  37.317  11.938
31560W        W98101  14.870  24.835  14.040
31561W        W98102  42.138  39.049  12.568
31562W        W98103  43.423  26.430   3.165
31563W        W98104  42.033  28.449   1.403
31564W        W98105  19.033  12.173  10.266
31565W        W98106   7.377  11.193   2.373
31566W        W98107  16.041  25.694   2.140
31567W        W98108   8.828   3.919  13.930
31568W        W98109  19.572   2.210  12.969
31569W        W98110  22.957  31.876   5.110
31570W        W98111   1.977  33.762  10.260
31571W        W98112  18.240  23.814   3.303
31572W        W98113  18.675  12.387   3.084
31573W        W98114  14.360   4.342   4.285
31574W        W98115  40.104  37.015   0.355
31575W        W98116  34.073  29.313  13.295
31576W        W98117  27.713  31.232  11.953
31577W        W98118  19.148  16.747   1.728
31578W        W98119  14.362  37.950   3.597
31579W        W98120   6.542  17.088   1.696
31580W        W98121  25.583  30.515  12.052
31581W        W98122  11.237   3.973   4.598
31582W        W98123  41.882   5.213   0.401
31583W        W98124  13.101  28.058  14.762
31584W        W98125  39.553  11.924   5.003
31585W        W98126  43.517  31.977  11.620
31586W        W98127  33.845  40.550  12.538
31587W        W98128   4.387  13.570  13.358
31588W        W98129   7.377  23.114   0.576
31589W        W98130  17.287  15.282  12.097
31590W        W98131   9.176   3.218   3.662
31591W        W98132   5.919  12.904   0.458
31592W        W98133  29.771  44.794  14.420
31593W        W98134   4.395   5.642   3.308
31594W        W98135  38.316  32.352   4.730
31595W        W98136  18.280  34.086  12.575
31596W        W98137   0.020  38.868  11.488
31597W        W98138   6.146   0.267  10.326
31598W        W98139   3.400  39.299   0.512
31599W        W98140  34.133   9.647   4.615
31600W        W98141  25.734  33.719  14.467
31601W        W98142  11.681  11.059   2.254
31602W        W98143   8.732   7.200   3.075
31603W        W98144  23.137  23.890  13.052
31604W        W98145  27.713  36.511   0.900
31605W        W98146   7.449  33.162   1.032
31606W        W98147  42.133  44.209   4.189
31607W        W98148   2.766  19.545  13.356
31608W        W98149  42.487  33.792   3.206
31609W        W98150   6.892  40.057  11.263
31610W        W98151  31.393  37.485   4.975
31611W        W98152  17.753  10.664   1.389
31612W        W98153  44.432   4.370   4.728
31613W        W98154  11.654  25.028  12.091
31614W        W98155  14.204  22.400   1.369
31615W        W98156  20.290  21.541   2.000
31616W        W98157  14.569   9.864  11.079
31617W        W98158   0.999  23.040  12.523
31618W        W98159  14.354  31.970   2.716
31619W        W98160   0.510  31.412  12.090
31620W        W98161  32.358  41.429  11.557
31621W        W98162  35.361  24.948   4.474
31622W        W98163  28.015  18.859  14.408
31623W        W98164  27.515   8.214   2.930
31624W        W98165  15.275   0.988   0.829
31625W        W98166  38.409  30.992  13.839
31626W        W98167  44.030  40.976  10.348
31627W        W98168   3.042   6.377   2.458
31628W        W98169  19.005  11.740  11.062
31629W        W98170  15.289   7.287   3.199
31630W        W98171   7.303  43.937  14.874
31631W        W98172  20.640  14.756   3.093
31632W        W98173  44.764   3.145  12.587
31633W        W98174  13.573  32.334  14.305
31634W        W98175  15.163  20.322   3.828
31635W        W98176  36.548  22.210   4.092
31636W        W98177  21.592   3.405  13.178
31637W        W98178  38.767   2.742   1.040
31638W        W98179   4.198   6.363   2.828
31639W        W98180  37.691  13.355   1.974
31640W        W98181   7.040   9.132   0.461
31641W        W98182   7.637  26.724   0.105
31642W        W98183  27.535  18.529  14.478
31643W        W98184  36.418  11.427  13.268
31644W        W98185  12.613  15.546  10.737
31645W        W98186  34.436  14.112  11.986
31646W        W98187  15.253  35.957  11.738
31647W        W98188  18.178  19.669  11.640
31648W        W98189  24.839  12.769   2.250
31649W        W98190   4.866  36.578   5.251
31650W        W98191  41.257   1.221  12.847
31651W        W98192   9.745  43.105   3.578
31652W        W98193   2.347   2.020  13.492
31653W        W98194  14.063  10.367   0.658
31654W        W98195   1.999  41.754  12.451
31655W        W98196   1.982  23.389   5.312
31656W        W98197  32.072   2.356  14.835
31657W        W98198  41.521   7.343  14.849
31658W        W98199  34.109  35.991   0.387
31659W        W98200   9.086   2.908   2.193
31660W        W98201   9.240  15.563   0.389
31661W        W98202  16.727   8.277   4.306
31662W        W98203  33.406  27.196  13.556
31663W        W98204  24.570  37.517   0.952
31664W        W98205   5.973   7.146   3.257
31665W        W98206  18.522  42.396  13.374
31666W        W98207  15.112  30.657  12.632
31667W        W98208   9.270  42.887   1.343
31668W        W98209  28.571  17.236   2.755
31669W        W98210  35.333  34.344   4.177
31670W        W98211  27.184  20.227   4.421
31671W        W98212  12.894  38.852  12.402
31672W        W98213  43.374  24.726   4.175
31673W        W98214  32.833  38.099  12.704
31674W        W98215  42.224  32.436  11.653
31675W        W98216  18.546  20.552   0.837
31676W        W98217  39.683  20.801   9.900
31677W        W98218  44.049   4.898  14.782
31678W        W98219  22.495  35.745   4.873
31679W        W98220  33.260   8.144   3.419
31680W        W98221  24.516  14.167  12.540
31681W        W98222  44.517  28.940  10.418
31682W        W98223  12.566   4.667   1.257
31683W        W98224  15.655  38.854  13.021
31684W        W98225  16.727   7.218   4.574
31685W        W98226   8.123  14.473  14.416
31686W        W98227  41.737  34.676  14.881
31687W        W98228   3.991   4.277   0.921
31688W        W98229  18.028  29.188  13.948
31689W        W98230  22.196  30.416  13.923
31690W        W98231  27.537  22.928   3.161
31691W        W98232  43.367  25.918   3.239
31692W        W98233  31.637   0.684   3.341
31693W        W98234  26.607  18.190  10.748
31694W        W98235  17.462  25.520   1.331
31695W        W98236  18.503  20.270   1.760
31696W        W98237  21.096   5.478   3.671
31697W        W98238  12.585  35.008   2.681
31698W        W98239  26.761  17.803  10.414
31699W        W98240  43.671  38.798  14.381
31700W        W98241  33.428  12.167   4.130
31701W        W98242   3.555  34.611  11.970
31702W        W98243  29.914  17.168  13.231
31703W        W98244  19.239  23.757  10.770
31704W        W98245  19.475  36.400  14.796
31705W        W98246   3.515  21.274   0.445
31706W        W98247  12.189  28.636  13.245
31707W        W98248  11.006  44.471   1.387
31708W        W98249   7.677  24.029   2.764
31709W        W98250  41.700  29.939   3.610
31710W        W98251  26.236  11.450   2.090
31711W        W98252   2.204  18.993   3.252
31712W        W98253  44.046  14.063   4.383
31713W        W98254  36.976  14.215  13.527
31714W        W98255  23.063  43.740   4.179
31715W        W98256  10.227  28.662  12.038
31716W        W98257  15.320  26.068  10.736
31717W        W98258  20.617  36.860   2.233
31718W        W98259  36.064  43.496  14.450
31719W        W98260  30.918  10.633  10.622
31720W        W98261  43.532   0.407   0.671
31721W        W98262   3.774  28.530  12.188
31722W        W98263  35.620  28.140  13.027
31723W        W98264  20.192  33.431   2.739
31724W        W98265  38.303  17.335  14.128
31725W        W98266   5.280  12.027  14.662
31726W        W98267  28.554  12.659  11.607
31727W        W98268  29.061  41.264  14.993
31728W        W98269   4.660  18.733  10.696
31729W        W98270  13.807  44.294  13.887
31730W        W98271  13.257  18.640   1.729
31731W        W98272   3.314  13.630  14.864
31732W        W98273  41.523  17.393  13.814
31733W        W98274  18.690  16.341   4.619
31734W        W98275   2.720  33.793  13.480
31735W        W98276   0.259  24.891   3.351
31736W        W98277  31.827  29.131   3.715
31737W        W98278  35.555  42.906  11.673
31738W        W98279  32.121  15.055  11.351
31739W        W98280  35.042   9.199   1.229
31740W        W98281   1.926  36.538  12.652
31741W        W98282  14.641  27.945  11.597
31742W        W98283  31.910  19.102   2.269
31743W        W98284  13.237   1.845  10.785
31744W        W98285  21.172  22.462  14.925
31745W        W98286   5.176  10.763  12.552
31746W        W98287  36.666  20.190   1.319
31747W        W98288  34.048   8.061  10.902
31748W        W98289   4.420  43.298   4.825
31749W        W98290   8.623  33.642   4.023
31750W        W98291  17.325  23.170   2.539
31751W        W98292  26.633  24.072  12.500
31752W        W98293  23.024  22.890   3.315
31753W        W98294  44.423  29.994   3.705
31754W        W98295  44.271  40.297   2.898
31755W        W98296  38.573  25.595   2.721
31756W        W98297  36.080  28.047  12.718
31757W        W98298  12.347  40.756   2.539
31758W        W98299  17.161  10.115   0.927
31759W        W98300  36.459  12.813   1.932
31760W        W98301  17.369  11.705  12.623
31761W        W98302  40.841  39.079   2.708
31762W        W98303  21.649  12.481   4.833
31763W        W98304  28.946  19.216  12.326
31764W        W98305  31.552   0.344  12.805
31765W        W98306  28.355  19.597   0.355
31766W        W98307   1.744  34.954   4.545
31767W        W98308   8.626  35.856  13.333
31768W        W98309   8.929  20.106  14.394
31769W        W98310  38.161  24.357   4.791
31770W        W98311  19.664  10.554   1.376
31771W        W98312  44.741   1.614  13.568
31772W        W98313  41.029  18.174   0.985
31773W        W98314  42.840   9.562  10.203
31774W        W98315  43.786  21.196   3.154
31775W        W98316   4.874   6.441  11.463
31776W        W98317  21.236  16.751   4.190
31777W        W98318   7.770  26.966  10.078
31778W        W98319  40.277   4.374   2.407
31779W        W98320   7.876  31.063   4.019
31780W        W98321   8.713  23.698  14.077
31781W        W98322  26.986  27.708  14.276
31782W        W98323  41.449  28.019  12.863
31783W        W98324  19.060   9.385  14.411
31784W        W98325  13.849   9.953  11.613
31785W        W98326  18.345  25.609   1.357
31786W        W98327  33.122  19.357  14.819
31787W        W98328  21.281   5.816   0.488
31788W        W98329  18.626  41.128   3.935
31789W        W98330  25.547  41.619  14.969
31790W        W98331  28.896  29.725   2.907
31791W        W98332  31.155  41.095  11.145
31792W        W98333  21.203  42.282   4.350
31793W        W98334   7.214  30.901  14.828
31794W        W98335   7.820  25.713  10.862
31795W        W98336  22.690  34.576   2.189
31796W        W98337   1.902  22.459  11.562
31797W        W98338  17.617   8.890  10.845
31798W        W98339  28.974  27.998  14.652
31799W        W98340  40.862  35.017   0.768
31800W        W98341  36.529  11.747  10.841
31801W        W98342   9.246  26.910  13.427
31802W        W98343  42.951   1.748  10.634
31803W        W98344  33.982  43.719  13.464
31804W        W98345  43.881  32.885   2.742
31805W        W98346  10.367  18.596  14.280
31806W        W98347   4.695  10.661  12.678
31807W        W98348  28.414  37.442   1.644
31808W        W98349  29.026  34.346   4.048
31809W        W98350  29.576  43.947   4.808
31810W        W98351  23.614  26.968   3.687
31811W        W98352   2.398  36.634   2.156
31812W        W98353  19.696  41.237  12.410
31813W        W98354  32.020  16.721   4.161
31814W        W98355  32.383  16.139  14.218
31815W        W98356  41.017  13.260  14.881
31816W        W98357  42.530  22.173  10.752
31817W        W98358  18.285  12.418   4.971
31818W        W98359  28.475   9.668   2.763
31819W        W98360  22.113  11.719  13.895
31820W        W98361   0.243  14.777  11.702
31821W        W98362   7.407  22.276  11.040
31822W        W98363   2.063   7.005  13.069
31823W        W98364   3.012  32.875  11.955
31824W        W98365  13.889   7.661   2.303
31825W        W98366  37.559  31.010   2.759
31826W        W98367  32.423  23.870   1.349
31827W        W98368   4.721  27.148   4.148
31828W        W98369  29.365  19.709   1.125
31829W        W98370   8.307  34.190  13.937
31830W        W98371  19.489  16.183  12.556
31831W        W98372  15.299   7.866  10.647
31832W        W98373  15.378  24.094   3.707
31833W        W98374  20.431  42.967   4.120
31834W        W98375  15.533  31.606   9.836
31835W        W98376   8.647  13.452   0.909
31836W        W98377   0.029  23.656   3.336
31837W        W98378   0.391  10.377  12.440
31838W        W98379   7.792   6.109  12.817
31839W        W98380  30.740  29.248  13.784
31840W        W98381  33.838  30.987  14.357
31841W        W98382  21.921  17.832  11.856
31842W        W98383  30.083  39.691  14.990
31843W        W98384  25.230  33.009   0.794
31844W        W98385  33.107  43.161   3.151
31845W        W98386  10.633  39.061  12.413
31846W        W98387   4.221  24.277  12.481
31847W        W98388  24.219  28.923  14.528
31848W        W98389  25.185  33.292   1.601
31849W        W98390  33.153  25.555   3.253
31850W        W98391  33.856  44.489  12.985
31851W        W98392   8.602  40.822  14.915
31852W        W98393  31.478  10.551   2.517
31853W        W98394  18.226   4.997  12.027
31854W        W98395  39.985  41.874   4.644
31855W        W98396  40.310  31.253   4.041
31856W        W98397   6.708  20.655  14.077
31857W        W98398   3.313  41.083  13.912
31858W        W98399   5.530  36.010   1.342
31859W        W98400  24.436  31.317  12.677
31860W        W98401  38.603  35.357   1.358
31861W        W98402  38.344  10.432  12.888
31862W        W98403  23.246  39.268   3.650
31863W        W98404  15.166  15.654  10.010
31864W        W98405  32.472  21.500   2.715
31865W        W98406  38.535  36.232  14.362
31866W        W98407  31.044  15.855  11.208
31867W        W98408   3.021   8.462  10.759
31868W        W98409   8.192   0.761   1.773
31869W        W98410  19.099  25.492  11.038
31870W        W98411  35.295  37.654   5.123
31871W        W98412  37.333   7.281  13.013
31872W        W98413  11.847  28.055   4.773
31873W        W98414  20.269   3.323  11.148
31874W        W98415   1.352   7.310  14.574
31875W        W98416  15.609  21.112  10.771
31876W        W98417   9.193   7.484  13.796
31877W        W98418  15.537  43.536   2.780
31878W        W98419  35.459  44.761   0.728
31879W        W98420  22.459  28.406   2.400
31880W        W98421   6.466   2.232   2.718
31881W        W98422  38.952   1.413   1.751
31882W        W98423  16.029   6.612   2.202
31883W        W98424  29.685  38.067   3.643
31884W        W98425  42.721  31.216   2.248
31885W        W98426  28.905  10.758   3.772
31886W        W98427  42.624  40.054  14.954
31887W        W98428  17.117   4.959   4.757
31888W        W98429   1.815  43.504   2.366
31889W        W98430  43.447   2.388  10.763
31890W        W98431   5.530   3.789  11.180
31891W        W98432  28.610  17.693  13.975
31892W        W98433  25.038  40.815   2.806
31893W        W98434   8.732  32.482  12.524
31894W        W98435  44.449   9.834   2.120
31895W        W98436  17.897  26.990  13.604
31896W        W98437   9.325  44.805   0.904
31897W        W98438   0.672  44.491  12.882
31898W        W98439   9.318  29.495  10.802
31899W        W98440   8.654   8.730  14.345
31900W        W98441  40.505   9.429   4.274
31901W        W98442   7.705  17.366   4.261
31902W        W98443   2.912  36.511   1.929
31903W        W98444   8.236  21.115   3.623
31904W        W98445  30.836   9.713   1.792
31905W        W98446  25.009  26.156   3.026
31906W        W98447  44.994  23.255  10.741
31907W        W98448  25.217  16.076   1.703
31908W        W98449  38.761  13.289  11.538
31909W        W98450  11.101  32.162  10.292
31910W        W98451  26.921  31.881  10.631
31911W        W98452  21.174   4.942  11.688
31912W        W98453  29.859   9.759   2.831
31913W        W98454   3.316  33.226   0.899
31914W        W98455   9.692  20.781   4.109
31915W        W98456  10.168  20.972   4.088
31916W        W98457   0.730  38.632  12.975
31917W        W98458  38.138   3.686   2.357
31918W        W98459  21.078  38.346  11.245
31919W        W98460  25.678  29.669  13.534
31920W        W98461  25.452   8.748  13.060
31921W        W98462  17.663  16.162   0.019
31922W        W98463  33.994  32.373   0.908
31923W        W98464   0.305  35.858   0.654
31924W        W98465  23.136  28.605   1.759
31925W        W98466  14.588   9.870   0.850
31926W        W98467  31.974  31.699  12.137
31927W        W98468   7.027  13.660   4.170
31928W        W98469  10.652  40.353  10.498
31929W        W98470  40.934  25.712   4.168
31930W        W98471  44.108  19.493  10.384
31931W        W98472  18.092  28.005   1.534
31932W        W98473  12.316  12.792   1.462
31933W        W98474  42.329  37.239  11.095
31934W        W98475  39.454  40.504   2.339
31935W        W98476  29.322  19.548  11.472
31936W        W98477  39.628   6.422  14.280
31937W        W98478  32.704   8.420  11.171
31938W        W98479  15.565  43.062  10.151
31939W        W98480  33.390   0.430   0.674
31940W        W98481  15.812  18.184   1.639
31941W        W98482  42.060   3.682   4.813
31942W        W98483  36.871  11.833   1.021
31943W        W98484  22.498   3.219   1.272
31944W        W98485  30.852   9.196  13.480
31945W        W98486  16.231  38.848  11.719
31946W        W98487  43.215  36.285   3.186
31947W        W98488  31.614  25.247  11.079
31948W        W98489  14.192  20.781   4.783
31949W        W98490  15.989  16.873  13.314
31950W        W98491  11.684  34.481   1.688
31951W        W98492   7.425  42.300   4.588
31952W        W98493  40.098  30.227  11.111
31953W        W98494  24.104  41.970  11.499
31954W        W98495  28.218  11.584   1.565
31955W        W98496  19.501  30.860   4.511
31956W        W98497   8.334  17.044   3.139
31957W        W98498  25.396  36.933   1.803
31958W        W98499  31.612   5.862  10.403
31959W        W98500  33.894   6.286   2.242
31960W        W98501  36.614   8.337  12.804
31961W        W98502   5.720  30.931  14.892
31962W        W98503  14.897  19.661  10.627
31963W        W98504  16.640  33.657  11.075
31964W        W98505   0.298   4.820  11.713
31965W        W98506  10.071   7.382  14.373
31966W        W98507   5.448  20.359   0.011
31967W        W98508  44.453  25.249  12.441
31968W        W98509  27.787   2.066   2.716
31969W        W98510  38.322  20.295  11.689
31970W        W98511  15.596  33.571  12.206
31971W        W98512  26.428  22.186   0.549
31972W        W98513  37.970  34.037   2.162
31973W        W98514  36.001  40.441   0.836
31974W        W98515  15.702   0.925   4.367
31975W        W98516  25.059  17.338  14.814
31976W        W98517  35.230  28.070   4.992
31977W        W98518   6.601  19.104   1.680
31978W        W98519  15.793  20.039  11.656
31979W        W98520  13.667  16.180   4.304
31980W        W98521   0.033  36.861   0.422
31981W        W98522  22.203  40.004   3.081
31982W        W98523   3.356   4.272   0.898
31983W        W98524  25.293  35.069   4.245
31984W        W98525  43.681  15.549   4.956
31985W        W98526  21.719  24.995  11.181
31986W        W98527  23.449  27.428   1.313
31987W        W98528  43.443   2.890   3.736
31988W        W98529  42.514  20.265  13.985
31989W        W98530   9.162  10.586   4.231
31990W        W98531  34.873   6.814   3.842
31991W        W98532   7.850  34.038  11.462
31992W        W98533  28.376  36.094   0.348
31993W        W98534  21.616  24.751  14.328
31994W        W98535  32.435  29.957  13.130
31995W        W98536  13.678  17.692   3.783
31996W        W98537  19.564   1.984  10.721
31997W        W98538  33.272  14.708   1.755
31998W        W98539  42.989  43.898  14.358
31999W        W98540  24.542  30.353  10.298
32000W        W98541  38.668  19.993   1.986
32001W        W98542  27.857  40.248  13.537
32002W        W98543  30.064  17.733   2.005
32003W        W98544   8.258  35.836   1.394
32004W        W98545  18.702  30.972  13.537
32005W        W98546  27.971  10.082   3.224
32006W        W98547  43.067  29.399  10.710
32007W        W98548  17.169  13.168  12.657
32008W        W98549  15.975  30.479  14.853
32009W        W98550  29.566  43.366   3.628
32010W        W98551   0.990  43.991  13.841
32011W        W98552  12.456  43.487  11.610
32012W        W98553   5.385  36.868  14.440
32013W        W98554  35.857  31.350   1.180
32014W        W98555  26.681  37.093  14.584
32015W        W98556   3.728   9.169  11.332
32016W        W98557  32.343  15.107  10.901
32017W        W98558   8.151   3.784  11.993
32018W        W98559  14.217  19.983   3.137
32019W        W98560  37.032  39.692  12.101
32020W        W98561  39.484  27.706  14.335
32021W        W98562  35.412  26.673  11.613
32022W        W98563  13.551  28.096  12.889
32023W        W98564  29.671  16.167  11.121
32024W        W98565  22.395   6.190  11.619
32025W        W98566  35.344  27.759  11.593
32026W        W98567   0.902   1.475  13.414
32027W        W98568   5.903  25.533  10.002
32028W        W98569  44.198   0.622  13.496
32029W        W98570  24.413  10.730  14.916
32030W        W98571  33.034  19.510   3.941
32031W        W98572  31.957   3.241   1.060
32032W        W98573  11.038  30.429  10.720
32033W        W98574  20.135   6.200  11.549
32034W        W98575  32.001  21.966  12.573
32035W        W98576  25.960  25.766  11.731
32036W        W98577  27.612  35.372  11.534
32037W        W98578   5.697   0.370   4.136
32038W        W98579   6.955  39.924  12.467
32039W        W98580  13.127  41.898   1.774
32040W        W98581  22.594   0.034   0.743
32041W        W98582  20.434  40.914   2.172
32042W        W98583   5.866  30.904  10.658
32043W        W98584  21.332  41.016  11.661
32044W        W98585   3.620  38.285   4.862
32045W        W98586  20.230  11.309   1.140
32046W        W98587   3.296  23.723   3.755
32047W        W98588  21.902  11.187   3.530
32048W        W98589  24.457  23.225   2.382
32049W        W98590  27.308   4.223  14.690
32050W        W98591  29.205  21.669   0.059
32051W        W98592  24.123  29.348  12.173
32052W        W98593  43.278  11.183   3.205
32053W        W98594  37.153  26.457   3.275
32054W        W98595  23.034   8.270  13.778
32055W        W98596  19.177  28.579  13.923
32056W        W98597  16.397   9.809  10.646
32057W        W98598   8.112  18.183   4.561
32058W        W98599   0.502  15.411   2.791
32059W        W98600  28.092  39.502  12.550
32060W        W98601  20.071   9.656  11.218
32061W        W98602  31.160  21.243   4.323
32062W        W98603  32.406  44.969   1.764
32063W        W98604  20.206   5.898  14.670
32064W        W98605   8.911  17.296   3.006
32065W        W98606  26.943  32.993  14.323
32066W        W98607  36.885   9.833  14.654
32067W        W98608   9.975   6.656  14.603
32068W        W98609   6.782  11.368  11.600
32069W        W98610  42.114   1.182  14.474
32070W        W98611  32.933  39.489   3.616
32071W        W98612  43.285   9.382  14.550
32072W        W98613  44.703   7.309  14.890
32073W        W98614  30.379  34.669  12.968
32074W        W98615  28.337  44.903  11.446
32075W        W98616  43.926  29.134   0.781
32076W        W98617  40.346  15.175  12.106
32077W        W98618   7.908  32.967  11.486
32078W        W98619  35.399  44.847   4.797
32079W        W98620  43.707  43.678   3.245
32080W        W98621  25.939  27.106  13.030
32081W        W98622  14.596  27.134   1.939
32082W        W98623  23.738  34.934   0.541
32083W        W98624  30.159   3.634  12.409
32084W        W98625  28.077  14.232   0.826
32085W        W98626  23.206  36.989   0.077
32086W        W98627  40.030   4.911  11.544
32087W        W98628  37.316  22.686   0.409
32088W        W98629  33.465  41.704   3.833
32089W        W98630   3.280  29.902  13.580
32090W        W98631  44.375  25.691   1.475
32091W        W98632  41.546   1.436   0.417
32092W        W98633  16.847   0.061   0.344
32093W        W98634  41.063  10.581   0.436
32094W        W98635   3.358  13.980   2.349
32095W        W98636   6.263  14.576   2.367
32096W        W98637  26.713  40.951   0.889
32097W        W98638  27.148   5.999  12.037
32098W        W98639   0.836  23.058  13.993
32099W        W98640   0.970   1.556   0.402
32100W        W98641  42.139  12.640  12.711
32101W        W98642  28.041   4.411   0.260
32102W        W98643  34.710  17.792   4.538
32103W        W98644  33.563  12.247   9.731
32104W        W98645   0.845  12.355  13.381
32105W        W98646  21.969  31.378   1.356
32106W        W98647  34.567   6.928   4.647
32107W        W98648  24.410  37.090  14.100
32108W        W98649  21.711   8.979   5.266
32109W        W98650   6.757  32.378  10.647
32110W        W98651  20.149  22.880  13.014
32111W        W98652  17.332  27.741  13.737
32112W        W98653  42.961  25.281   3.912
32113W        W98654  19.948   8.015  14.905
32114W        W98655  42.994  10.685   4.090
32115W        W98656   0.251  41.287  14.540
32116W        W98657  32.512   5.921  11.060
32117W        W98658  33.365  27.334   1.717
32118W        W98659  10.175  29.356   2.801
32119W        W98660  17.547  33.410   4.669
32120W        W98661  36.401  15.530  14.951
32121W        W98662  23.085  19.124  12.484
32122W        W98663   3.817  14.090  10.789
32123W        W98664  16.361  17.559  10.967
32124W        W98665  42.524  20.750   5.065
32125W        W98666  32.034   2.402  11.628
32126W        W98667   1.110  11.217   0.335
32127W        W98668  19.480  40.942   1.017
32128W        W98669  15.438  21.329   2.227
32129W        W98670  20.116   1.268   4.556
32130W        W98671   9.300  29.541   3.565
32131W        W98672  39.517   3.446   2.243
32132W        W98673   9.452  18.292   0.335
32133W        W98674  41.744  43.032   4.999
32134W        W98675  11.825  18.963  11.702
32135W        W98676   6.745  12.312  12.403
32136W        W98677  21.510  40.634  11.140
32137W        W98678  41.522  22.580   3.630
32138W        W98679  26.135  41.246  10.674
32139W        W98680  34.061  19.652   4.085
32140W        W98681  39.949   8.283   4.084
32141W        W98682  11.552  10.641  14.948
32142W        W98683  20.677   2.404   3.697
32143W        W98684  24.005  32.824   0.666
32144W        W98685  21.802  25.632   2.581
32145W        W98686  31.901  23.702   1.351
32146W        W98687  15.119  20.661   1.218
32147W        W98688  44.245  12.127   0.751
32148W        W98689  43.625  34.459   0.315
32149W        W98690  17.741  29.002   4.107
32150W        W98691  34.358  33.073   2.328
32151W        W98692  29.319  15.055  14.353
32152W        W98693  29.475  39.535  12.904
32153W        W98694   8.115  28.674   3.306
32154W        W98695   4.710  28.852   0.662
32155W        W98696  15.541   1.253   3.079
32156W        W98697  16.401  29.712  11.992
32157W        W98698  32.490  31.486  14.339
32158W        W98699  43.947  20.569  14.527
32159W        W98700  44.800  19.584  12.824
32160W        W98701  23.692   0.499  12.975
32161W        W98702  25.154  36.535  14.943
32162W        W98703   4.268  11.238   2.563
32163W        W98704  32.875  28.179  13.452
32164W        W98705  28.084  32.418  11.789
32165W        W98706   3.349  41.945   5.254
32166W        W98707   5.137  34.360   1.367
32167W        W98708   6.759  19.704   3.284
32168W        W98709  31.121  34.545  10.966
32169W        W98710  22.888  18.333   3.986
32170W        W98711  43.392  44.854   4.619
32171W        W98712  33.047  24.902   0.534
32172W        W98713  30.187  28.651  14.040
32173W        W98714   7.379  15.869  11.233
32174W        W98715  38.059  37.599   4.746
32175W        W98716  41.535  24.295   2.781
32176W        W98717   6.193  27.695  13.826
32177W        W98718  23.194   0.601   3.934
32178W        W98719  26.650  32.592  11.411
32179W        W98720  28.704  13.392   2.831
32180W        W98721   0.987  38.345   4.123
32181W        W98722  34.042  18.591  12.006
32182W        W98723  18.575   7.300  11.662
32183W        W98724  34.228  13.359   4.222
32184W        W98725  36.999  20.846   2.315
32185W        W98726  35.521  29.227  10.829
32186W        W98727  29.605  37.143  13.363
32187W        W98728  36.313  31.076  10.807
32188W        W98729  33.489  24.759   2.233
32189W        W98730   1.897  27.796   3.337
32190W        W98731   1.824   1.351  13.833
32191W        W98732  15.372  11.382  12.849
32192W        W98733   0.814  35.394  14.289
32193W        W98734  29.191  34.853   0.470
32194W        W98735  40.149  41.375  13.436
32195W        W98736   3.453  38.148  13.323
32196W        W98737  25.162  24.140   1.816
32197W        W98738  36.865   8.905   2.453
32198W        W98739  16.239  43.484   0.921
32199W        W98740  12.701  31.388   2.333
32200W        W98741  37.411   5.307   2.098
32201W        W98742  24.674  13.318  13.400
32202W        W98743   2.772  30.460   1.813
32203W        W98744  23.671  11.337   0.130
32204W        W98745  30.599  41.031   4.558
32205W        W98746   1.275  30.605  13.197
32206W        W98747  23.348   7.754  13.411
32207W        W98748  33.069  36.051  13.399
32208W        W98749   0.091   3.302  12.950
32209W        W98750  20.748  39.809  12.105
32210W        W98751  28.054   1.071   0.126
32211W        W98752  16.908   6.745   1.159
32212W        W98753  24.502  13.059  11.469
32213W        W98754  18.982  11.055   3.020
32214W        W98755  30.016  35.669  11.088
32215W        W98756  35.104   7.522   1.470
32216W        W98757  26.698  37.504   3.677
32217W        W98758   1.635  12.185   0.786
32218W        W98759  29.177  10.886   4.183
32219W        W98760  36.030  11.327  10.802
32220W        W98761   1.322  43.452  14.836
32221W        W98762  18.841  15.535  13.334
32222W        W98763  10.916  44.512   0.820
32223W        W98764  28.868  14.133   0.196
32224W        W98765  12.404  11.527  11.411
32225W        W98766  20.122   5.619   0.503
32226W        W98767  10.551  31.813   4.171
32227W        W98768  27.050  26.201   4.547
32228W        W98769  18.527   3.400  10.740
32229W        W98770  31.017  37.228   4.586
32230W        W98771  18.375  35.996   5.264
32231W        W98772  33.101   6.820  13.600
32232W        W98773  15.093   8.449  14.697
32233W        W98774   5.206  13.868  14.210
32234W        W98775  37.542  33.123   1.132
32235W        W98776  17.104  11.852  14.496
32236W        W98777   2.612  21.181   0.748
32237W        W98778   3.188  42.372  12.969
32238W        W98779   1.443  25.410  12.625
32239W        W98780  22.745   8.325  12.197
32240W        W98781  12.581   8.686   0.396
32241W        W98782   9.121  16.704   0.826
32242W        W98783   4.938   1.942  14.397
32243W        W98784   1.971  18.221  10.666
32244W        W98785  22.286  35.643  11.203
32245W        W98786   4.005  38.599   0.525
32246W        W98787  24.274  27.966   4.572
32247W        W98788   7.666  28.582   4.286
32248W        W98789  14.072   2.939  14.845
32249W        W98790  13.733  23.973  11.584
32250W        W98791  12.090   8.250  12.530
32251W        W98792   4.907   4.992   2.140
32252W        W98793  41.800  11.769  12.551
32253W        W98794   3.405  16.818  10.761
32254W        W98795  40.874  11.721   5.326
32255W        W98796  33.192  22.383  11.912
32256W        W98797  14.539  20.137   2.670
32257W        W98798  44.494  36.888   2.236
32258W        W98799  35.312  23.567   4.634
32259W        W98800  12.168  42.232   4.207
32260W        W98801  15.837  28.010   3.088
32261W        W98802  24.115  32.537   4.230
32262W        W98803   4.707  15.750   4.872
32263W        W98804   8.519  42.310   4.536
32264W        W98805   9.946  24.272   3.186
32265W        W98806   0.864  18.510   1.635
32266W        W98807  18.350  11.041  13.752
32267W        W98808  12.580  28.445   2.438
32268W        W98809   2.805  43.811  10.579
32269W        W98810  24.626  39.009   1.639
32270W        W98811  26.163   2.435   3.250
32271W        W98812  32.754   4.195  11.167
32272W        W98813  30.982   1.493  14.878
32273W        W98814   2.000   8.838  13.397
32274W        W98815  31.871  26.555  13.351
32275W        W98816   8.867  27.608   1.895
32276W        W98817   7.602  36.058   4.190
32277W        W98818   4.256   8.552  12.867
32278W        W98819  17.264  21.763   3.265
32279W        W98820  17.815  35.008   3.518
32280W        W98821   2.879  25.999  13.152
32281W        W98822  15.830  44.041   0.375
32282W        W98823   8.893   6.220   3.753
32283W        W98824  20.711  38.795   2.206
32284W        W98825  17.040   5.494   4.549
32285W        W98826   6.607   2.658  10.261
32286W        W98827  36.360  36.473   2.825
32287W        W98828   2.773  16.436   0.850
32288W        W98829   0.893  15.855   4.926
32289W        W98830  40.067  27.539   3.668
32290W        W98831   4.945   7.902   4.897
32291W        W98832  36.808  23.687   3.373
32292W        W98833  33.451  28.222   1.149
32293W        W98834  27.254  39.300   4.101
32294W        W98835  11.720  18.560  14.292
32295W        W98836  24.654  27.003  14.061
32296W        W98837  23.099   9.694   2.599
32297W        W98838  31.727  27.955   1.788
32298W        W98839   2.957  27.512  11.599
32299W        W98840  23.719   7.091  14.294
32300W        W98841  12.910   1.224   2.624
32301W        W98842  20.192   5.400   3.637
32302W        W98843   1.557  28.107   1.266
32303W        W98844  34.874  15.683   1.863
32304W        W98845   0.140   5.774  10.376
32305W        W98846   4.130   5.376   0.018
32306W        W98847  13.660  23.886   0.050
32307W        W98848  33.618  40.918  14.280
32308W        W98849  36.447   3.545  10.224
32309W        W98850  23.094  13.971   3.820
32310W        W98851  13.732  18.651   4.757
32311W        W98852   4.654  40.291   4.118
32312W        W98853   0.689   0.861   4.284
32313W        W98854   8.721  36.597   3.839
32314W        W98855  33.071  18.304  11.953
32315W        W98856  37.192   1.220   2.994
32316W        W98857  23.509  27.410   1.871
32317W        W98858  15.194  33.811   4.122
32318W        W98859  34.541  37.705   4.143
32319W        W98860   5.592   5.500  11.938
32320W        W98861   6.267  18.174   0.817
32321W        W98862   4.524  15.784   2.343
32322W        W98863  23.988  11.956  12.143
32323W        W98864  26.811   2.399   2.842
32324W        W98865   2.762  23.209  11.972
32325W        W98866  41.440  10.003  12.483
32326W        W98867  41.232  10.610  11.640
32327W        W98868  15.790  13.922   0.614
32328W        W98869  43.463  40.858   1.772
32329W        W98870  18.045  10.798  14.357
32330W        W98871  43.731  27.396  11.103
32331W        W98872  44.434  37.751  11.381
32332W        W98873  13.856  41.777   0.644
32333W        W98874   4.334  39.244  14.102
32334W        W98875  42.344  33.524  10.766
32335W        W98876  30.715  20.445  11.209
32336W        W98877  13.777  44.735   4.681
32337W        W98878   4.591   8.059  11.559
32338W        W98879  28.271  18.103  11.525
32339W        W98880   2.965   9.666   0.209
32340W        W98881  43.872  22.129   2.075
32341W        W98882  36.848   7.844  12.031
32342W        W98883  10.420  24.280  13.851
32343W        W98884  14.858   8.363   4.672
32344W        W98885  18.150  30.112  14.317
32345W        W98886  13.922  42.131  11.607
32346W        W98887  31.061  10.242   2.648
32347W        W98888  34.104  32.116   1.387
32348W        W98889  44.203   0.435   2.326
32349W        W98890  11.769   8.631   3.244
32350W        W98891  19.322  21.668   4.520
32351W        W98892  28.665  23.861  11.953
32352W        W98893  42.051   0.837  12.113
32353W        W98894   4.033  34.537  12.426
32354W        W98895   4.141  42.470  14.895
32355W        W98896   5.376  23.153  10.400
32356W        W98897  22.038  27.387   0.802
32357W        W98898  18.557  34.138  14.923
32358W        W98899   5.461  29.804   2.610
32359W        W98900  40.550  16.090   9.692
32360W        W98901   8.186  12.675   3.618
32361W        W98902  20.795   4.360   3.610
32362W        W98903  17.389  13.794   3.089
32363W        W98904  12.813   3.890  10.744
32364W        W98905  14.929  11.902   1.430
32365W        W98906  31.518  37.488   4.462
32366W        W98907  36.362  32.166   1.756
32367W        W98908  20.350  34.668  13.818
32368W        W98909  28.632   7.842   3.675
32369W        W98910  23.475  44.882  10.713
32370W        W98911  41.889  18.664   1.320
32371W        W98912   6.194   8.764   0.402
32372W        W98913  38.811   6.736   1.153
32373W        W98914  37.998  32.522   3.834
32374W        W98915   9.343  30.362   2.091
32375W        W98916  14.204  22.692   3.230
32376W        W98917   7.641  43.934   0.812
32377W        W98918   5.606  38.507  12.930
32378W        W98919   5.189  31.488  12.643
32379W        W98920  35.928  19.258   1.204
32380W        W98921  27.062   4.283   2.318
32381W        W98922  13.405  23.514  12.107
32382W        W98923  36.612  20.725   0.687
32383W        W98924  32.528   2.695  12.503
32384W        W98925  19.550  24.394   1.792
32385W        W98926  17.070  15.717   4.409
32386W        W98927   7.599   1.603   1.948
32387W        W98928   8.141   1.825  11.659
32388W        W98929  28.286   4.939  13.771
32389W        W98930   5.402  13.302  14.660
32390W        W98931  22.179   3.163   1.701
32391W        W98932  14.321  38.813   2.087
32392W        W98933  41.545  13.904   2.690
32393W        W98934  15.887  38.448   2.356
32394W        W98935  36.460  44.399  10.823
32395W        W98936  31.419  25.630   3.643
32396W        W98937  22.140  23.648  11.922
32397W        W98938  34.349   0.625  10.154
32398W        W98939   8.114   2.359  13.082
32399W        W98940   7.456  17.159   0.547
32400W        W98941  32.872  43.193  10.914
32401W        W98942  21.571   8.907  11.986
32402W        W98943  29.858  38.860   2.381
32403W        W98944  42.584   9.138  14.875
32404W        W98945  41.536  43.935  13.130
32405W        W98946  12.087  34.724   4.510
32406W        W98947  16.678   2.774  13.852
32407W        W98948  43.413  31.955   3.492
32408W        W98949  12.175  21.638   3.200
32409W        W98950  34.451   6.311  11.557
32410W        W98951  33.177  11.640  12.645
32411W        W98952  29.734  44.421  11.549
32412W        W98953  21.540  37.783  10.353
32413W        W98954  36.469   9.762  12.917
32414W        W98955  40.883  27.086   2.658
32415W        W98956  26.413  14.839   3.276
32416W        W98957  38.468  28.472  14.916
32417W        W98958  31.881  15.217  10.701
32418W        W98959  11.657  42.943  10.636
32419W        W98960  39.553  44.818   1.603
32420W        W98961  41.598  15.826  14.897
32421W        W98962  40.106  17.437   4.489
32422W        W98963  11.611  26.382   3.842
32423W        W98964  14.400  26.218   3.403
32424W        W98965  19.495  38.702   1.321
32425W        W98966   5.786   7.245  12.589
32426W        W98967   7.683  11.332  12.493
32427W        W98968  14.746  11.220   0.812
32428W        W98969  32.880   5.383   3.508
32429W        W98970   6.550  12.279   2.132
32430W        W98971  38.696  11.858   2.866
32431W        W98972  29.044  36.936  11.457
32432W        W98973  42.325  38.392   1.106
32433W        W98974   5.796  12.394   0.358
32434W        W98975  26.150  17.110  12.540
32435W        W98976  39.774  22.955  13.801
32436W        W98977  28.562  24.061  14.584
32437W        W98978  12.531  31.964  12.571
32438W        W98979  12.923  42.061   0.854
32439W        W98980  35.440  22.575   4.432
32440W        W98981   9.349  10.893  13.859
32441W        W98982  33.125  29.875   4.407
32442W        W98983  31.604  22.568  14.856
32443W        W98984  17.864  10.604   0.235
32444W        W98985  39.513  16.787  14.717
32445W        W98986  15.952  17.626  11.383
32446W        W98987  17.324  18.076   2.642
32447W        W98988  20.956  35.512  12.312
32448W        W98989  39.408   6.754   4.780
32449W        W98990  41.053  39.875   1.475
32450W        W98991  28.403  33.857  13.206
32451W        W98992  28.431  16.565   0.409
32452W        W98993  11.236   6.664   1.975
32453W        W98994  34.952  40.907  14.990
32454W        W98995  32.299   1.891  10.291
32455W        W98996   4.388  17.253  12.470
32456W        W98997   9.412  32.910   0.390
32457W        W98998  18.763  25.556  10.591
32458W        W98999  12.009  32.008  10.235
32459W        W99000  26.300  14.711   4.413
32460W        W99001  30.524  37.872  13.959
32461W        W99002   7.069  33.509   1.121
32462W        W99003  26.857  30.553   4.493
32463W        W99004  28.942  16.113   2.904
32464W        W99005  23.616  41.758  13.038
32465W        W99006  25.756  12.328  13.048
32466W        W99007  44.953  43.691   4.526
32467W        W99008   4.003  10.650  13.306
32468W        W99009  14.328   3.318  13.037
32469W        W99010  30.916  44.794  12.490
32470W        W99011  26.712  44.960  13.413
32471W        W99012  20.071  10.087   4.590
32472W        W99013   7.984  33.528  11.490
32473W        W99014  10.277  10.121   3.330
32474W        W99015   3.953  36.433  10.746
32475W        W99016  40.133  11.654   4.503
32476W        W99017   1.914   4.904   3.296
32477W        W99018  34.940  32.430   3.698
32478W        W99019   0.396   2.018  14.676
32479W        W99020  41.452  23.103   3.544
32480W        W99021  40.455   3.699  12.580
32481W        W99022  22.130  44.053   3.300
32482W        W99023  23.575  25.691   0.909
32483W        W99024  25.979  24.216  11.563
32484W        W99025  24.821  15.233   4.444
32485W        W99026  17.125  16.960  12.625
32486W        W99027  11.898   3.522   1.696
32487W        W99028  38.614  43.010  11.687
32488W        W99029   8.685   6.623  14.827
32489W        W99030   0.337  29.428   2.319
32490W        W99031  26.155  35.631   0.291
32491W        W99032  35.101  40.249  11.633
32492W        W99033  18.039  33.231   3.930
32493W        W99034  40.067  34.109  12.946
32494W        W99035  10.177   4.293  12.464
32495W        W99036  24.145  23.669   2.197
32496W        W99037  10.695  25.037   1.656
32497W        W99038  36.040  31.119   4.618
32498W        W99039  16.827  22.944  13.021
32499W        W99040  25.009   7.869   1.241
32500W        W99041  23.274   9.078  12.072
32501W        W99042  26.802  21.467  14.824
32502W        W99043  34.344  19.552   0.496
32503W        W99044  34.602  11.325  12.435
32504W        W99045  26.971  26.634   4.259
32505W        W99046   9.182   4.750   3.411
32506W        W99047  32.998   1.270  10.310
32507W        W99048  41.871  42.286  14.764
32508W        W99049  18.788  11.560   5.176
32509W        W99050  32.651   4.455  12.859
32510W        W99051  43.852  31.514   3.864
32511W        W99052  21.212  34.380   1.352
32512W        W99053   6.968  43.871  13.419
32513W        W99054  27.678  10.897   1.973
32514W        W99055  43.377  30.200  12.039
32515W        W99056   3.922  10.214   2.093
32516W        W99057  36.632   9.803   2.469
32517W        W99058  34.424  25.175   2.609
32518W        W99059  41.113  19.480  12.554
32519W        W99060  43.911  21.699  14.280
32520W        W99061  12.607  42.333  12.058
32521W        W99062  13.685   0.168   0.837
32522W        W99063   9.699  21.115  12.360
32523W        W99064  25.767  31.925   0.073
32524W        W99065  27.653  38.914  14.369
32525W        W99066  13.672  26.520   3.253
32526W        W99067  24.059  12.678   2.195
32527W        W99068  30.436  35.574  14.723
32528W        W99069  39.104   8.979   5.021
32529W        W99070  29.630   7.149   1.788
32530W        W99071  19.524  11.152  12.845
32531W        W99072  19.596  40.548  13.016
32532W        W99073  27.181   0.278   1.431
32533W        W99074  38.309   8.822  11.213
32534W        W99075  34.690   4.241   2.533
32535W        W99076  37.769  39.768  14.807
32536W        W99077  11.737  24.642  11.778
32537W        W99078  25.442  33.498  12.411
32538W        W99079  30.450   5.706   2.295
32539W        W99080  17.095  41.910   0.340
32540W        W99081  15.654  15.708   3.838
32541W        W99082  37.114  17.912   2.688
32542W        W99083   6.946  38.776   1.923
32543W        W99084   2.946  13.177  13.460
32544W        W99085   8.877  43.329   3.046
32545W        W99086  12.264  31.859  13.477
32546W        W99087  21.877  25.341  10.768
32547W        W99088  34.539   9.520  12.670
32548W        W99089   8.241  38.607  14.846
32549W        W99090  24.033  26.009   4.645
32550W        W99091  29.763  22.573  12.424
32551W        W99092   3.160  15.721   3.767
32552W        W99093  43.512   9.232  10.449
32553W        W99094  33.613  24.978  13.377
32554W        W99095  17.681  23.083   3.255
32555W        W99096  19.447  43.060   4.275
32556W        W99097   9.965  41.956  13.286
32557W        W99098  14.343  32.772  14.437
32558W        W99099  34.624   3.846   0.819
32559W        W99100  36.184  34.556  14.399
32560W        W99101   6.539  11.651   0.293
32561W        W99102  16.620  21.731  11.634
32562W        W99103   6.369   8.803  13.927
32563W        W99104   6.595  17.683  13.777
32564W        W99105  34.553  39.317  13.893
32565W        W99106  28.344  31.104   2.745
32566W        W99107  30.156  38.827   1.061
32567W        W99108  24.410  42.494   0.732
32568W        W99109  24.139  38.105  13.123
32569W        W99110   4.883   5.818   4.548
32570W        W99111  26.598  42.040   3.673
32571W        W99112  11.242  34.188  14.453
32572W        W99113  25.158  28.228  12.470
32573W        W99114  43.271  24.342   0.295
32574W        W99115  39.629  29.968  12.555
32575W        W99116  23.642  11.214   0.625
32576W        W99117  10.698  18.144   1.960
32577W        W99118   7.699  29.418   4.204
32578W        W99119   1.419   4.817   4.554
32579W        W99120  31.483  19.269   4.667
32580W        W99121  27.413  34.502  14.660
32581W        W99122   4.980  40.374   2.645
32582W        W99123   4.931  30.294   5.058
32583W        W99124   2.933  30.315   4.105
32584W        W99125   9.517  40.600   4.383
32585W        W99126   5.392  36.611   0.745
32586W        W99127  33.335  13.741   4.504
32587W        W99128   4.385  41.898   2.408
32588W        W99129  33.435  24.162  13.896
32589W        W99130   1.031  43.867   3.787
32590W        W99131  30.199  11.192  10.688
32591W        W99132  27.303  23.092   2.710
32592W        W99133  41.652   7.940   1.951
32593W        W99134   9.334  17.111  11.088
32594W        W99135  35.484  22.763   1.608
32595W        W99136  27.144   4.302  14.187
32596W        W99137  44.660  11.414  13.941
32597W        W99138  36.947  15.865   1.242
32598W        W99139   0.632   5.314   4.614
32599W        W99140   4.444  35.554  10.779
32600W        W99141  33.764   2.733   3.955
32601W        W99142   1.542  23.940  14.846
32602W        W99143  13.721  21.692  13.306
32603W        W99144  40.936   3.386   5.136
32604W        W99145  27.705  40.827  10.713
32605W        W99146   7.736  30.825  14.799
32606W        W99147  31.865   2.098  12.612
32607W        W99148  11.972  34.995  14.488
32608W        W99149  32.314   9.498  12.774
32609W        W99150  23.056  13.616  12.897
32610W        W99151   0.924  24.525  10.469
32611W        W99152   5.797  26.198  14.081
32612W        W99153  37.508  16.129  12.577
32613W        W99154   8.193  40.267   1.362
32614W        W99155  14.526  32.141  13.448
32615W        W99156  43.858   9.864   1.857
32616W        W99157  23.622  20.714   3.104
32617W        W99158  33.090  38.815   4.302
32618W        W99159  16.093  36.865  14.717
32619W        W99160  20.080  42.000   4.336
32620W        W99161  42.548   1.348  14.707
32621W        W99162   5.256  37.540   3.611
32622W        W99163  16.193  23.776   2.666
32623W        W99164  19.941   6.960   0.783
32624W        W99165  25.757  36.224  14.350
32625W        W99166  33.940  22.964  12.264
32626W        W99167  39.266   4.801   0.853
32627W        W99168   4.374  10.733  10.700
32628W        W99169   0.566  34.091  13.948
32629W        W99170  10.668  36.167   0.976
32630W        W99171   1.437  35.746   0.928
32631W        W99172   9.257  19.180  13.026
32632W        W99173   8.415  34.479   1.367
32633W        W99174  31.568  40.530  12.053
32634W        W99175  19.533   9.594   1.720
32635W        W99176  26.040  25.589   3.859
32636W        W99177  12.127  39.526   4.655
32637W        W99178  23.094  35.964  13.529
32638W        W99179   3.887  23.138  11.420
32639W        W99180  22.034  19.070  12.488
32640W        W99181  14.566  20.890  13.394
32641W        W99182   3.668  18.824   2.777
32642W        W99183   4.939  32.058   5.200
32643W        W99184  25.438   0.745   0.813
32644W        W99185   2.277  40.546  13.939
32645W        W99186  33.288   4.696  12.010
32646W        W99187   6.418  20.749   2.215
32647W        W99188   5.158  23.659  12.911
32648W        W99189   6.199  19.735  13.296
32649W        W99190  35.940  35.352   3.024
32650W        W99191  20.487  14.374  12.106
32651W        W99192   6.745  43.156   2.199
32652W        W99193  38.832   4.472   2.298
32653W        W99194   9.721  22.902  12.030
32654W        W99195  32.340  26.164  13.444
32655W        W99196  28.528  19.087  12.597
32656W        W99197  17.701  29.272  11.050
32657W        W99198  15.077  22.200   4.864
32658W        W99199  29.447  10.794   4.602
32659W        W99200   4.773  18.269   1.336
32660W        W99201  28.883  34.907  11.607
32661W        W99202  18.658  40.304   4.186
32662W        W99203  43.365  44.740   2.864
32663W        W99204  24.604  40.597   1.701
32664W        W99205   5.062  26.463   4.005
32665W        W99206   9.530  30.382  13.463
32666W        W99207  39.942  35.499   4.418
32667W        W99208  22.699  12.677   3.687
32668W        W99209  41.513  33.597   2.396
32669W        W99210  43.864  30.013  10.580
32670W        W99211  35.001  28.529   0.121
32671W        W99212   8.963  42.271   5.463
32672W        W99213  26.063   0.888  10.880
32673W        W99214   6.705  36.116  11.510
32674W        W99215  33.979  24.348  12.626
32675W        W99216  35.622  13.902   4.258
32676W        W99217  39.382  18.234   4.708
32677W        W99218   3.034  21.341  11.985
32678W        W99219   0.897  13.169  11.066
32679W        W99220  32.879  32.007  12.807
32680W        W99221  41.983  15.722  13.223
32681W        W99222  14.265  21.789  11.615
32682W        W99223  15.304  16.498  11.493
32683W        W99224  43.889  24.729   3.311
32684W        W99225   1.708  16.153   4.076
32685W        W99226  17.014   4.288   2.343
32686W        W99227  41.713  32.532  11.622
32687W        W99228  34.182  36.740  14.308
32688W        W99229  44.480  13.326  11.577
32689W        W99230  41.728  22.990   4.735
32690W        W99231  40.516  11.401  12.124
32691W        W99232  40.284  23.234  11.534
32692W        W99233   2.560   7.090   2.561
32693W        W99234   7.021   8.808   0.881
32694W        W99235  19.742  16.253  11.717
32695W        W99236   1.324  21.366  13.831
32696W        W99237  24.198  44.472   3.814
32697W        W99238  31.276   6.770   2.666
32698W        W99239  30.529  29.110   4.588
32699W        W99240  35.039  36.984   1.097
32700W        W99241  26.686  15.009   4.604
32701W        W99242   5.029  39.806  13.565
32702W        W99243   3.476  21.612  14.926
32703W        W99244  15.137  18.796  12.846
32704W        W99245  25.978  21.235   4.739
32705W        W99246  42.444  28.039  14.518
32706W        W99247  19.377  37.589   1.320
32707W        W99248  30.006  26.560   3.336
32708W        W99249  22.690  32.934  11.018
32709W        W99250  39.472  26.642   3.065
32710W        W99251  22.048  37.123  13.084
32711W        W99252   4.442  13.872  12.949
32712W        W99253  41.205  44.855   3.259
32713W        W99254  22.612  30.629  12.085
32714W        W99255  19.197  13.862   4.622
32715W        W99256  37.880  41.381  12.945
32716W        W99257  40.662   1.022   2.592
32717W        W99258  26.616   8.923   4.076
32718W        W99259  28.166  29.456   1.252
32719W        W99260   1.775  33.960  12.071
32720W        W99261  31.844  33.972  11.935
32721W        W99262   3.170  27.479   0.690
32722W        W99263  14.723   7.589  14.944
32723W        W99264   3.033  42.280   2.009
32724W        W99265  23.955   0.933   4.213
32725W        W99266   7.724  24.748   3.104
32726W        W99267  19.567  20.530  14.927
32727W        W99268  28.943  33.395   2.299
32728W        W99269  20.234  17.446  12.922
32729W        W99270   6.445  17.708  14.279
32730W        W99271  24.087  29.775   4.475
32731W        W99272  27.188  35.283   3.066
32732W        W99273   3.039  13.810   2.729
32733W        W99274  15.779   5.241   3.633
32734W        W99275  12.346  20.208   0.788
32735W        W99276  12.829  19.277   2.816
32736W        W99277  42.574  21.316  14.997
32737W        W99278  30.079  30.101   3.344
32738W        W99279   2.512   9.405   0.252
32739W        W99280   3.321   6.115   0.398
32740W        W99281  43.747  33.363  14.786
32741W        W99282  28.530  41.019   3.567
32742W        W99283   6.162  15.333  10.724
32743W        W99284  12.678  13.523  10.718
32744W        W99285   6.852  32.149   1.331
32745W        W99286  39.026  15.785  11.252
32746W        W99287  29.247  16.963   3.342
32747W        W99288  10.482   8.918  13.019
32748W        W99289   8.754  44.738  12.637
32749W        W99290  34.581  41.040  10.986
32750W        W99291  26.976  36.572  12.125
32751W        W99292  16.577  21.620  13.768
32752W        W99293  20.333   4.923   5.017
32753W        W99294  31.283  36.599   0.908
32754W        W99295  12.287  34.190   0.166
32755W        W99296   0.966   0.470   5.010
32756W        W99297  35.432  44.353   2.682
32757W        W99298  23.059  37.379  10.631
32758W        W99299  35.690  40.992   0.119
32759W        W99300  13.589   4.183  10.933
32760W        W99301  29.025  35.935  12.226
32761W        W99302  25.742  42.242   1.388
32762W        W99303  16.999  25.730   1.356
32763W        W99304   4.398  19.743  11.152
32764W        W99305  28.763  23.738   3.299
32765W        W99306  16.364   3.750   4.237
32766W        W99307  22.643  38.460   3.310
32767W        W99308  24.565  24.552  12.328
32768W        W99309  29.415  14.268   3.634
32769W        W99310  12.757  15.316   2.876
32770W        W99311   1.947  31.100   3.989
32771W        W99312  22.180   8.953  13.152
32772W        W99313  38.334  30.400  12.424
32773W        W99314  21.768   0.202   2.709
32774W        W99315  38.815  20.763  10.337
32775W        W99316  30.786  34.399  11.734
32776W        W99317  39.328  35.997  14.987
32777W        W99318  21.843   7.141  11.592
32778W        W99319  26.844  11.445  10.219
32779W        W99320  20.445  28.120   1.393
32780W        W99321  18.643  18.772  10.905
32781W        W99322   2.417  12.475   2.391
32782W        W99323   9.390  14.988   4.792
32783W        W99324  22.132  35.679   0.434
32784W        W99325  41.461  27.728   4.145
32785W        W99326  17.666  11.183   3.719
32786W        W99327  40.566  40.292  13.007
32787W        W99328  41.613   2.738   1.759
32788W        W99329   2.811  19.643   2.259
32789W        W99330  25.681  29.042   3.380
32790W        W99331  14.864  25.624  11.142
32791W        W99332  33.554  13.936   3.203
32792W        W99333   2.835  40.490  14.483
32793W        W99334  15.084  12.405   2.312
32794W        W99335  11.068   3.275  10.524
32795W        W99336  38.280  42.953  14.944
32796W        W99337   2.636  16.271   4.266
32797W        W99338   6.107  21.993   0.345
32798W        W99339  21.338   3.821  13.378
32799W        W99340  13.303   9.461  13.300
32800W        W99341  16.659   4.348  12.256
32801W        W99342  22.924   8.792  14.956
32802W        W99343   4.863   2.652  11.132
32803W        W99344  23.590  16.083  12.034
32804W        W99345  10.656  42.248   9.554
32805W        W99346   2.964  39.712   4.922
32806W        W99347  18.698  33.651   5.022
32807W        W99348  24.032   8.145  11.395
32808W        W99349  12.910  15.385   1.483
32809W        W99350   6.797  25.607   3.756
32810W        W99351  24.023  39.201  12.023
32811W        W99352  26.848  23.614   1.458
32812W        W99353  27.442   9.332   4.935
32813W        W99354  31.805  24.297   3.323
32814W        W99355   0.202   2.743  14.444
32815W        W99356  37.585  35.372  13.830
32816W        W99357  43.958  38.613   2.358
32817W        W99358  41.643  14.241  12.601
32818W        W99359  34.968  22.977   0.329
32819W        W99360  44.398  20.022   0.274
32820W        W99361  32.902  32.391  12.324
32821W        W99362  17.589  10.827   3.182
32822W        W99363  28.310  13.261   5.306
32823W        W99364  36.984   2.378   1.808
32824W        W99365  15.014   9.272   1.807
32825W        W99366  38.138  27.989   1.802
32826W        W99367  27.410  27.537  13.360
32827W        W99368  39.355  36.200  11.738
32828W        W99369  18.246  39.495  13.403
32829W        W99370   9.678  25.539   4.610
32830W        W99371  16.649  10.134  14.521
32831W        W99372   6.486  10.227   2.278
32832W        W99373  40.847  36.465  11.626
32833W        W99374  40.920  12.659   4.897
32834W        W99375  17.864  21.176  11.427
32835W        W99376  16.688  14.180   9.663
32836W        W99377  41.089  17.030   1.210
32837W        W99378   1.903   3.696   1.073
32838W        W99379  29.435  30.239  12.445
32839W        W99380  12.123   4.380   1.242
32840W        W99381  19.857  19.244  13.025
32841W        W99382  12.224  17.280  11.205
32842W        W99383   1.824  11.483   1.793
32843W        W99384  30.518   7.893   2.447
32844W        W99385  33.422   3.077   2.736
32845W        W99386   5.217  30.912  14.934
32846W        W99387  37.992   2.410   0.448
32847W        W99388   9.417  10.477  11.438
32848W        W99389  34.860  44.375  11.681
32849W        W99390  30.600   0.464  10.538
32850W        W99391  22.342  40.013  11.162
32851W        W99392  39.907  27.577  12.479
32852W        W99393  19.834  12.768   1.946
32853W        W99394  44.534   6.862   0.191
32854W        W99395   6.791   8.509  13.954
32855W        W99396  44.013   5.251   4.077
32856W        W99397  25.897  34.521   4.572
32857W        W99398  35.542   8.674   3.750
32858W        W99399  39.024  35.463   2.300
32859W        W99400   8.942   5.958  11.209
32860W        W99401  28.022  25.379   4.439
32861W        W99402  20.629  18.084  11.582
32862W        W99403  44.953   7.884  13.916
32863W        W99404   0.786  26.045   0.782
32864W        W99405  10.804  19.400   4.891
32865W        W99406  22.526  32.127  12.920
32866W        W99407  42.493  11.722   2.422
32867W        W99408   4.868  36.878  14.283
32868W        W99409   8.896   1.433  14.101
32869W        W99410  43.702  36.699   1.831
32870W        W99411   6.768  32.733   2.043
32871W        W99412  12.081  37.029  10.814
32872W        W99413   0.358  21.554  14.494
32873W        W99414  32.038  10.416   3.490
32874W        W99415   6.408  27.111   4.171
32875W        W99416  35.491  35.351  12.371
32876W        W99417  16.089  12.159  13.441
32877W        W99418  20.025  42.225   1.248
32878W        W99419  43.423  43.772  10.974
32879W        W99420   9.844  36.893   4.576
32880W        W99421  17.008  24.098  13.743
32881W        W99422  20.643  43.990   1.873
32882W        W99423  32.973  41.755  14.403
32883W        W99424   3.967   8.839   5.176
32884W        W99425  36.814   0.420   0.880
32885W        W99426  36.952   1.853   2.758
32886W        W99427   8.757  35.420   4.585
32887W        W99428   9.967  41.278  12.000
32888W        W99429  33.535  17.431  13.399
32889W        W99430  39.811  26.747  13.030
32890W        W99431  27.912   3.804   0.913
32891W        W99432   5.898   6.662  13.413
32892W        W99433   5.735  19.924   1.373
32893W        W99434   9.236  18.018   2.699
32894W        W99435  27.087   4.481   3.698
32895W        W99436   6.955   2.314   2.611
32896W        W99437  11.352  30.160   4.720
32897W        W99438  26.538  43.269   0.445
32898W        W99439  25.934  24.550  13.953
32899W        W99440  25.571  14.380  13.551
32900W        W99441  39.045   5.375   4.529
32901W        W99442   3.857   4.989  10.140
32902W        W99443  16.268  39.198   3.152
32903W        W99444  15.763  35.962  11.598
32904W        W99445  11.997  26.135  13.440
32905W        W99446  15.376  31.854   0.975
32906W        W99447  34.858  28.179   2.766
32907W        W99448  29.076   2.112  14.470
32908W        W99449  15.189  43.669   3.307
32909W        W99450  17.517  23.552   0.259
32910W        W99451  37.965  10.637   1.935
32911W        W99452  20.769  13.234   1.760
32912W        W99453   4.469   6.345  13.394
32913W        W99454   8.744  35.598  10.813
32914W        W99455  19.621  42.369  10.678
32915W        W99456  25.392  35.582  11.873
32916W        W99457  35.848  36.347   2.912
32917W        W99458   7.326  33.900  14.884
32918W        W99459  33.663  36.900   0.744
32919W        W99460  43.716  22.054   4.198
32920W        W99461  32.821  42.386  11.621
32921W        W99462   4.007  31.349  11.679
32922W        W99463   2.804  21.653  12.516
32923W        W99464  12.664   8.282  13.448
32924W        W99465  21.484  11.585  12.467
32925W        W99466  43.327   0.516   2.410
32926W        W99467  43.816  30.826  12.424
32927W        W99468  33.730  34.113   4.144
32928W        W99469   9.904  10.205  10.557
32929W        W99470  43.561   3.272   4.521
32930W        W99471  26.694  21.436  10.748
32931W        W99472  25.596   1.932  12.037
32932W        W99473  24.935   1.712   4.790
32933W        W99474  41.474   5.849  12.903
32934W        W99475  21.100   7.654   1.801
32935W        W99476  42.756  34.333   3.944
32936W        W99477   4.174  23.500  12.952
32937W        W99478  27.705  42.973  14.009
32938W        W99479  43.561  10.615  12.441
32939W        W99480  15.333   9.407   1.213
32940W        W99481  23.779   8.865  10.422
32941W        W99482  17.188  19.784   4.104
32942W        W99483  39.301  42.823  13.063
32943W        W99484  34.077   1.037  13.008
32944W        W99485  32.908  33.708  10.561
32945W        W99486   7.441  32.366   3.802
32946W        W99487  18.737  28.048   0.732
32947W        W99488  13.738  16.915  14.782
32948W        W99489  26.487   6.793  11.550
32949W        W99490  13.309  30.443  13.935
32950W        W99491  25.832  23.764   0.477
32951W        W99492  24.979  41.527   3.720
32952W        W99493   6.865   5.868   3.257
32953W        W99494  24.783  12.167   1.378
32954W        W99495  37.065   0.426  12.154
32955W        W99496  18.651  44.277  13.594
32956W        W99497   7.281  16.351   3.616
32957W        W99498  25.969  33.243   3.907
32958W        W99499  42.529  22.157   0.847
32959W        W99500   5.771  19.755  13.675
32960W        W99501  34.009  29.493  12.026
32961W        W99502  42.001  41.896   0.465
32962W        W99503   0.008  21.052   4.119
32963W        W99504  44.331  27.934  11.464
32964W        W99505  17.620   6.879   2.182
32965W        W99506  13.297   9.187  12.871
32966W        W99507  11.022  35.601   3.239
32967W        W99508  33.128  32.615  11.885
32968W        W99509  30.516  39.328   4.366
32969W        W99510  28.581   4.786   3.053
32970W        W99511  32.195  21.257  14.722
32971W        W99512  36.993   6.687   3.590
32972W        W99513   3.271  21.121  14.866
32973W        W99514  37.518   0.454   4.974
32974W        W99515  17.379  20.202  13.823
32975W        W99516  32.628   3.234   1.383
32976W        W99517  38.142  18.193   2.756
32977W        W99518   5.085  35.355  12.585
32978W        W99519  25.271  30.997  13.830
32979W        W99520   3.029   6.189  11.053
32980W        W99521   5.822  16.430  12.025
32981W        W99522  39.377  22.717   0.442
32982W        W99523   4.324  29.986  12.571
32983W        W99524  23.827  41.315  10.291
32984W        W99525  44.432  31.955  14.634
32985W        W99526   7.758  10.830  14.970
32986W        W99527  32.172  33.621   4.872
32987W        W99528   7.800  37.169  14.415
32988W        W99529  32.179  13.834  11.646
32989W        W99530  13.328  27.143   1.201
32990W        W99531  24.094  15.805   0.965
32991W        W99532  37.969  36.990  13.660
32992W        W99533  20.973  37.607   1.696
32993W        W99534   5.734  19.621   2.675
32994W        W99535  14.214  42.946  13.117
32995W        W99536  41.444  44.390   2.648
32996W        W99537  27.266   6.434  13.497
32997W        W99538   9.547  24.934  14.334
32998W        W99539  38.490   4.362   2.714
32999W        W99540  43.472  17.320   4.471
33000W        W99541   4.027  30.075   1.834
33001W        W99542  11.283   7.674  12.522
33002W        W99543  17.161  42.726   3.674
33003W        W99544  41.811  21.405   1.221
33004W        W99545  26.931  22.145  12.438
33005W        W99546  33.433   9.740  13.566
33006W        W99547   5.237  40.482  11.451
33007W        W99548   2.278   4.929  12.603
33008W        W99549  41.595   5.351   4.646
33009W        W99550  22.238  21.519   0.863
33010W        W99551   9.246  28.150  12.920
33011W        W99552  40.018  12.043   4.130
33012W        W99553  26.957  39.379  13.515
33013W        W99554   4.415  12.911  12.160
33014W        W99555  19.173   8.624  12.379
33015W        W99556  38.539  11.233  13.746
33016W        W99557  36.799  19.215  10.772
33017W        W99558  28.535   8.487   2.254
33018W        W99559   6.484  35.353   3.464
33019W        W99560  26.653  12.810  12.364
33020W        W99561  41.545  44.957   1.717
33021W        W99562  20.551   2.245   4.703
33022W        W99563   0.548  31.108   1.394
33023W        W99564  40.574  14.008   4.512
33024W        W99565  44.741  38.825   0.573
33025W        W99566  17.338  29.119  12.006
33026W        W99567  44.651  44.064  11.311
33027W        W99568   0.486  31.505  13.483
33028W        W99569  38.032  19.449   2.517
33029W        W99570   0.983  26.537   1.626
33030W        W99571  35.691  35.946   2.610
33031W        W99572   6.290   4.819   2.198
33032W        W99573  25.456  19.286   3.149
33033W        W99574  27.853  20.049  13.382
33034W        W99575  18.339  41.329   4.614
33035W        W99576  31.876  31.926   4.894
33036W        W99577  10.484  33.563   4.419
33037W        W99578  34.891  32.149   4.532
33038W        W99579   4.526  28.120   3.240
33039W        W99580   1.477  12.388   4.781
33040W        W99581   5.444  42.949  10.687
33041W        W99582  22.251  20.710   2.809
33042W        W99583   2.152  40.781   0.280
33043W        W99584  38.503  38.472  12.027
33044W        W99585  17.592   3.567   1.557
33045W        W99586   1.051  14.350  11.457
33046W        W99587  21.332   1.516   1.562
33047W        W99588  22.580   9.223  10.357
33048W        W99589  17.549   7.363   4.146
33049W        W99590  27.528  19.514  11.188
33050W        W99591  21.302   0.299   4.600
33051W        W99592   4.398  10.117   0.368
33052W        W99593  28.072  12.127   2.327
33053W        W99594  33.431  37.342   2.721
33054W        W99595  13.959   7.282   2.690
33055W        W99596   4.449   0.823   9.748
33056W        W99597  14.457  22.630   3.742
33057W        W99598  37.013  34.975  10.697
33058W        W99599  22.140  23.057  12.064
33059W        W99600  28.673  10.891   0.307
33060W        W99601  43.101  36.567   4.941
33061W        W99602   2.013   9.373  12.935
33062W        W99603   8.684  44.346   2.788
33063W        W99604   8.532  34.644   0.044
33064W        W99605   3.178  13.269  13.932
33065W        W99606  10.180  35.819   9.998
33066W        W99607  11.299  12.946   4.091
33067W        W99608   2.240  18.963  12.915
33068W        W99609   5.674  39.436  13.110
33069W        W99610   5.821   1.835   1.296
33070W        W99611  41.452  26.708   4.243
33071W        W99612  38.854   9.653  13.104
33072W        W99613  43.116  37.523  11.464
33073W        W99614  41.959   8.147   4.690
33074W        W99615  19.356  22.646   0.364
33075W        W99616  29.697  39.333  12.485
33076W        W99617  27.083  41.409  13.620
33077W        W99618  32.028  17.687   4.200
33078W        W99619  19.319  13.674  14.931
33079W        W99620   0.360  17.054  14.206
33080W        W99621   1.317  37.607  14.854
33081W        W99622  16.473  28.518  13.910
33082W        W99623   7.762  33.835  13.343
33083W        W99624  21.953  10.731   1.479
33084W        W99625  23.282  30.998   1.273
33085W        W99626  13.913  10.700  10.958
33086W        W99627   2.476   9.881  14.366
33087W        W99628  18.582   4.437   4.611
33088W        W99629  28.054  30.702   3.242
33089W        W99630  13.154   8.459  10.317
33090W        W99631  22.147  26.657   2.183
33091W        W99632  25.038  21.676   3.687
33092W        W99633  33.861  11.666  10.739
33093W        W99634   2.777  11.729   4.539
33094W        W99635   9.640  16.663   0.840
33095W        W99636   7.645  34.762  11.230
33096W        W99637  36.572  35.334  14.038
33097W        W99638   6.324  42.050   0.856
33098W        W99639  21.989  11.299   2.182
33099W        W99640  15.159  21.054  14.082
33100W        W99641  35.077  37.335  11.683
33101W        W99642  12.763  44.809   4.326
33102W        W99643  34.411  14.499   2.899
33103W        W99644  22.542  38.529  14.518
33104W        W99645  18.027  31.734  13.570
33105W        W99646  12.414  17.660   4.262
33106W        W99647   2.834   6.817   1.722
33107W        W99648   0.519  23.509   0.835
33108W        W99649  28.265  38.340   2.660
33109W        W99650   9.912  13.169   4.643
33110W        W99651  34.365   8.687  14.264
33111W        W99652  19.479  11.317  11.474
33112W        W99653   2.484  42.787   0.275
33113W        W99654  25.959   0.928  14.951
33114W        W99655  18.080  30.148  14.847
33115W        W99656   5.491   3.983   4.510
33116W        W99657  44.731  18.562  14.122
33117W        W99658   5.747  34.060   0.297
33118W        W99659   6.964   6.767   3.332
33119W        W99660  25.267  31.513  12.954
33120W        W99661  16.301  18.157   1.735
33121W        W99662  33.095   6.012  12.040
33122W        W99663  43.059  19.581   4.574
33123W        W99664  16.710   8.919   2.257
33124W        W99665   4.423  10.066  11.273
33125W        W99666   8.923  24.793  14.907
33126W        W99667  25.985  26.254   4.061
33127W        W99668  11.847  28.586  11.926
33128W        W99669  23.443  15.454  13.795
33129W        W99670  27.148   2.157  14.939
33130W        W99671  41.417  41.295   4.638
33131W        W99672  42.316   3.333  10.779
33132W        W99673  44.433  13.704  10.541
33133W        W99674  19.000  33.561   2.426
33134W        W99675  27.013  17.304  11.672
33135W        W99676  32.813  10.249   4.040
33136W        W99677  20.406  27.952  13.826
33137W        W99678   3.903  43.271  11.668
33138W        W99679  40.126  11.906  13.235
33139W        W99680  24.803   8.326  13.996
33140W        W99681   6.413   1.792  10.234
33141W        W99682  22.759  15.078  11.711
33142W        W99683  21.218  27.576   1.898
33143W        W99684   8.606  29.309   2.810
33144W        W99685   0.903  35.661   3.718
33145W        W99686  23.811   4.287  11.196
33146W        W99687  23.724  20.399   4.481
33147W        W99688  29.525  10.378   3.228
33148W        W99689  17.899  40.452  13.166
33149W        W99690  17.617  37.456   0.993
33150W        W99691  14.902  37.568   2.829
33151W        W99692  35.291  22.586  12.623
33152W        W99693   1.491  26.435  12.115
33153W        W99694  40.208   3.370  13.345
33154W        W99695   5.643  33.632   9.885
33155W        W99696  43.877  23.978   3.768
33156W        W99697   7.348  34.294  11.547
33157W        W99698  11.135  41.372   0.303
33158W        W99699  15.106  39.625  12.388
33159W        W99700  10.970  17.746  13.623
33160W        W99701  17.077  40.965  12.492
33161W        W99702  28.911  40.646  12.643
33162W        W99703  29.665  26.438   2.858
33163W        W99704  21.053  32.872  13.461
33164W        W99705   1.282  42.499   2.455
33165W        W99706  29.653   5.234   0.264
33166W        W99707   2.328   3.499  12.208
33167W        W99708  22.739   1.167  13.405
33168W        W99709  22.052  27.639  11.485
33169W        W99710  12.153   5.470  13.392
33170W        W99711   4.566  42.825   1.465
33171W        W99712  11.816  19.759   1.868
33172W        W99713  17.419   1.669   1.485
33173W        W99714   1.898  19.122   4.470
33174W        W99715  11.630   9.743  11.985
33175W        W99716   4.643   6.926   0.945
33176W        W99717  18.684  30.721  14.002
33177W        W99718  40.934   4.867  12.408
33178W        W99719  29.066  44.386  13.397
33179W        W99720  27.888  17.949  10.161
33180W        W99721  10.904  27.430  13.533
33181W        W99722  22.052  32.627  10.566
33182W        W99723   6.252  43.265  13.078
33183W        W99724   7.686  29.250  12.115
33184W        W99725  33.932  40.361   2.626
33185W        W99726  39.874  25.463   3.018
33186W        W99727  31.848  33.103  11.399
33187W        W99728  30.212  22.690  14.707
33188W        W99729  33.641  42.369   1.711
33189W        W99730   1.235  36.015   2.365
33190W        W99731  12.780   2.098  14.385
33191W        W99732   0.351  13.993   4.362
33192W        W99733  36.197  23.011   1.854
33193W        W99734  32.080   7.224   2.871
33194W        W99735  28.453  27.739   1.347
33195W        W99736   3.087   1.548  12.295
33196W        W99737  35.991  33.614   0.351
33197W        W99738  43.218  44.481  13.524
33198W        W99739   6.001   2.366   0.996
33199W        W99740   8.874   2.855   1.371
33200W        W99741  26.647  28.459   3.784
33201W        W99742   3.792  12.327   4.608
33202W        W99743   7.753  33.788   4.036
33203W        W99744  19.257  35.700  13.880
33204W        W99745  13.348  33.607  13.884
33205W        W99746  33.591  21.516   3.613
33206W        W99747  44.023  37.367  14.517
33207W        W99748   8.291  27.751   1.861
33208W        W99749  25.080   7.948   1.907
33209W        W99750  25.118   7.533  12.434
33210W        W99751   9.751  22.663  14.796
33211W        W99752  22.801  40.410  12.395
33212W        W99753  23.677  32.407  10.874
33213W        W99754  16.147  13.309  11.676
33214W        W99755   0.935  11.428   4.138
33215W        W99756  40.613  37.827  13.444
33216W        W99757  37.440  23.592  13.242
33217W        W99758  30.671  44.441   4.115
33218W        W99759  10.840   3.280   4.728
33219W        W99760  40.446  17.047  11.016
33220W        W99761   6.502  10.280   1.412
33221W        W99762  25.109   6.859  11.264
33222W        W99763  21.768  40.340  14.576
33223W        W99764  38.364  40.405   3.698
33224W        W99765  29.773  23.672  11.123
33225W        W99766   8.377  28.419   2.908
33226W        W99767  26.714  22.718   3.580
33227W        W99768  36.023   5.966   1.809
33228W        W99769  20.840   4.130  12.008
33229W        W99770  25.070  38.926   1.894
33230W        W99771  26.190   9.262   3.306
33231W        W99772  32.157  21.916   1.534
33232W        W99773  19.186  11.373  13.989
33233W        W99774   4.000  16.390  12.929
33234W        W99775  25.137  35.511  13.826
33235W        W99776   0.440  22.198   0.276
33236W        W99777   1.760  33.052  11.097
33237W        W99778  26.122   5.396   4.073
33238W        W99779  12.880  11.544  11.220
33239W        W99780  43.454  18.756  13.960
33240W        W99781   2.975  40.476  11.424
33241W        W99782  32.175  13.146  13.046
33242W        W99783  37.461  33.731   3.742
33243W        W99784  11.629  16.744   0.316
33244W        W99785  33.629   1.799   3.826
33245W        W99786  36.994  39.472  14.320
33246W        W99787  26.787  16.480  10.665
33247W        W99788  12.344  43.986   1.292
33248W        W99789   4.967  44.796  10.530
33249W        W99790   7.274  28.075   3.815
33250W        W99791   6.758  38.216  14.913
33251W        W99792  20.061  23.123  10.942
33252W        W99793   6.937  20.007   1.854
33253W        W99794   0.019  27.164  13.316
33254W        W99795  41.544   8.425  11.672
33255W        W99796  16.210  10.182   4.376
33256W        W99797  29.673  40.026  14.784
33257W        W99798  35.980  29.614  13.381
33258W        W99799  29.496   1.752   0.603
33259W        W99800  32.046   4.004   2.690
33260W        W99801  16.731  26.880  10.638
33261W        W99802   6.752   9.877  10.565
33262W        W99803  31.790  14.100   4.640
33263W        W99804  18.194   7.924  14.819
33264W        W99805   4.872  42.513  12.771
33265W        W99806  10.096  13.785  12.149
33266W        W99807   4.274  30.396   3.940
33267W        W99808  37.566  29.119   4.118
33268W        W99809   7.395  40.269  11.163
33269W        W99810  29.899  39.765   2.568
33270W        W99811  19.314  30.931   2.697
33271W        W99812  10.603  24.965   4.472
33272W        W99813   8.452  38.291  11.179
33273W        W99814   8.619  36.698   1.454
33274W        W99815  10.676  20.872   4.286
33275W        W99816  13.992   5.313  12.984
33276W        W99817  22.957  16.176  10.605
33277W        W99818  11.636  26.551   1.774
33278W        W99819  33.087  43.378   1.459
33279W        W99820   3.822  13.096   1.228
33280W        W99821  15.024  22.507   0.305
33281W        W99822  28.110  28.733   3.181
33282W        W99823   3.269  32.879   3.186
33283W        W99824   0.383   0.810   3.629
33284W        W99825  40.516  40.011   3.719
33285W        W99826  21.557  36.406  12.528
33286W        W99827  24.732  17.653  11.682
33287W        W99828  33.959  37.546   1.976
33288W        W99829  12.147  16.948  10.788
33289W        W99830  15.564  21.172   0.314
33290W        W99831  41.640  32.230  12.060
33291W        W99832  17.518  33.584  11.052
33292W        W99833  11.204   5.660   0.287
33293W        W99834  32.103   7.783   1.375
33294W        W99835  29.202  27.896   2.351
33295W        W99836   2.402  42.811   4.379
33296W        W99837  10.455  28.545   1.882
33297W        W99838  38.531  19.308   1.385
33298W        W99839  17.096   4.744   4.284
33299W        W99840  16.023   7.959   3.144
33300W        W99841  16.759  22.075   2.617
33301W        W99842  32.116   1.691  11.892
33302W        W99843  28.958   6.696   1.237
33303W        W99844  10.481  39.887  10.591
33304W        W99845  17.862  24.932   4.227
33305W        W99846  24.597  41.065   1.293
33306W        W99847   5.748  14.770  13.159
33307W        W99848   7.844  20.038  12.980
33308W        W99849   5.272  21.144  11.541
33309W        W99850  38.004  36.989  12.623
33310W        W99851   1.770  15.017  12.087
33311W        W99852  32.880  37.127   2.689
33312W        W99853  44.367  15.719   4.203
33313W        W99854   3.050   3.006   3.633
33314W        W99855   1.416  23.748  13.326
33315W        W99856  40.277   9.296  12.783
33316W        W99857  39.399  15.617  10.963
33317W        W99858  12.376  32.162  13.070
33318W        W99859  44.484   4.195   1.351
33319W        W99860   5.788  15.654  10.942
33320W        W99861  12.978  17.209   4.993
33321W        W99862  21.198  35.559   2.297
33322W        W99863  29.020  38.051  11.464
33323W        W99864  42.364   5.292  13.823
33324W        W99865  23.265  10.163   3.745
33325W        W99866  14.634  23.188  13.654
33326W        W99867  42.462   5.068  11.578
33327W        W99868  25.643   5.161  11.494
33328W        W99869   1.434   3.335  11.644
33329W        W99870  39.524  44.203   2.916
33330W        W99871  35.418  36.870  14.508
33331W        W99872   7.150  19.280  13.815
33332W        W99873   2.071  41.427   0.873
33333W        W99874  22.985  29.166   4.889
33334W        W99875   9.135  11.327   3.583
33335W        W99876  30.940   6.182  12.428
33336W        W99877  36.842   8.072   0.195
33337W        W99878   3.750   5.040  11.049
33338W        W99879  32.991   7.950   2.163
33339W        W99880  18.087  38.975   3.245
33340W        W99881  41.403  20.261   4.042
33341W        W99882  41.226   9.391   2.712
33342W        W99883  16.785   7.771   4.464
33343W        W99884  32.605  30.239   0.115
33344W        W99885  25.480   0.225  13.597
33345W        W99886  22.137  32.081   4.732
33346W        W99887  27.222  18.187  11.996
33347W        W99888  20.926  24.736   2.721
33348W        W99889   8.769  25.664   0.105
33349W        W99890  10.139  15.887   3.862
33350W        W99891  25.182  37.935  13.469
33351W        W99892  37.704  21.527   2.675
33352W        W99893  38.602  13.856  12.855
33353W        W99894  30.186  44.944   3.213
33354W        W99895  26.519  36.080   0.743
33355W        W99896   2.996  44.508   3.313
33356W        W99897   5.888  18.350  14.569
33357W        W99898  11.148   1.181  13.895
33358W        W99899  22.260   5.266   3.252
33359W        W99900  30.355  11.966  10.308
33360W        W99901   3.278  10.762   0.834
33361W        W99902  29.653   3.480   2.281
33362W        W99903  42.820   1.027  13.479
33363W        W99904  37.945  43.948   0.430
33364W        W99905  21.644  36.482   1.468
33365W        W99906  17.233  34.172  13.906
33366W        W99907  23.560  14.053   4.638
33367W        W99908  40.508  41.359   1.166
33368W        W99909  18.673  28.399   2.813
33369W        W99910  38.533  37.989   1.353
33370W        W99911  14.783  38.322  14.906
33371W        W99912  21.663  29.400  13.071
33372W        W99913  14.607  20.778   1.864
33373W        W99914  35.495  40.548   3.896
33374W        W99915  21.231  24.297  13.004
33375W        W99916   0.233  25.448  14.410
33376W        W99917  41.048  26.130  13.358
33377W        W99918  44.820   2.426   2.385
33378W        W99919  21.488   6.587  12.558
33379W        W99920   7.808  27.165   1.411
33380W        W99921   7.457  24.777  11.002
33381W        W99922  30.740  35.917   3.847
33382W        W99923  40.255  19.755   0.744
33383W        W99924   0.991  23.029  10.749
33384W        W99925  34.682  43.442  14.597
33385W        W99926  21.224  40.557   0.885
33386W        W99927   5.014  31.535  13.135
33387W        W99928  42.907  23.465  11.107
33388W        W99929  10.314  42.774  13.333
33389W        W99930  41.277  31.850  12.085
33390W        W99931  14.724  28.969   2.398
33391W        W99932  15.377   9.759   3.348
33392W        W99933   5.113  29.216  12.976
33393W        W99934  40.491  15.194   3.179
33394W        W99935  44.501   5.128   4.170
33395W        W99936  24.189  31.598  10.550
33396W        W99937  42.669  23.708  12.624
33397W        W99938  28.135   0.734   0.884
33398W        W99939  11.079  27.247  13.990
33399W        W99940  21.001  32.338   3.485
33400W        W99941  42.749  19.192   3.174
33401W        W99942  41.824  40.765   2.133
33402W        W99943   0.161  36.528   1.917
33403W        W99944  30.673  36.931   1.219
33404W        W99945   2.440  20.807   2.128
33405W        W99946  32.992  20.420   2.402
33406W        W99947  24.748  11.371  12.125
33407W        W99948  25.194  14.118  13.312
33408W        W99949  42.975   7.534   3.324
33409W        W99950  19.460  11.047   3.266
33410W        W99951  28.430   3.852   0.957
33411W        W99952  21.166   1.994   4.194
33412W        W99953  15.862  42.765   3.216
33413W        W99954  12.078  28.140  12.050
33414W        W99955  38.379  17.453  14.926
33415W        W99956  20.670  42.553   2.692
33416W        W99957  36.839  44.046  12.491
33417W        W99958  14.478  12.511   3.298
33418W        W99959  27.586  37.387  10.778
33419W        W99960  11.081  13.102  14.064
33420W        W99961   4.478  43.421  12.878
33421W        W99962  24.512   1.658  13.179
33422W        W99963  14.377  23.204  14.304
33423W        W99964  31.122  12.089  12.889
33424W        W99965  23.130  41.986   2.740
33425W        W99966  30.639  19.574   0.321
33426W        W99967   2.294  13.309   1.332
33427W        W99968  24.115  17.993   4.536
33428W        W99969  39.020   5.984  12.535
33429W        W99970   9.001  27.618  13.350
33430W        W99971   6.788   6.115   3.896
33431W        W99972  29.917  21.810   3.717
33432W        W99973  24.196  34.670   0.482
33433W        W99974   6.158  13.291   3.965
33434W        W99975  18.981  28.769  11.602
33435W        W99976   8.266  27.052   0.724
33436W        W99977  35.409  27.201  14.531
33437W        W99978  16.741  38.266   0.434
33438W        W99979  35.919  27.108  11.168
33439W        W99980  41.710  32.546  14.732
33440W        W99981  36.206  17.812   2.133
33441W        W99982   9.764   8.161  13.303
33442W        W99983  20.835  18.067  12.096
33443W        W99984   0.924  15.990   9.857
33444W        W99985  43.893   9.363   1.841
33445W        W99986  36.650  19.998  14.453
33446W        W99987   6.371  18.677   0.903
33447W        W99988  36.032  13.333  14.459
33448W        W99989   8.459   1.244  13.803
33449W        W99990  29.682  21.568   0.317
33450W        W99991  34.859   4.407   4.408
33451W        W99992  44.396   0.678   0.889
33452W        W99993   0.189   7.354   0.727
33453W        W99994  25.250  11.715   4.996
33454W        W99995   6.158  22.367  12.498
33455W        W99996  19.244   8.765   2.930
33456W        W99997  20.113  24.653   4.962
33457W        W99998  41.871   2.925  13.435
33458W        W99999  27.574   7.645   2.267
33459W        W    0   3.880  44.675  12.574
33460W        W    1  39.757  14.224  13.489
33461W        W    2  21.366  38.446  14.798
33462W        W    3   0.991  42.654   5.051
33463W        W    4  13.796  30.147  12.178
33464W        W    5  23.243  31.618  10.725
33465W        W    6   2.563  17.546   4.432
33466W        W    7   6.038  39.640   4.137
33467W        W    8  31.695   3.808  13.410
33468W        W    9  16.023  17.117  11.127
33469W        W   10  10.886  33.274   4.222
33470W        W   11  22.254  14.596   0.639
33471W        W   12  16.720  28.543  11.219
33472W        W   13  24.672  18.930  13.757
33473W        W   14   3.099  36.305  11.216
33474W        W   15  25.500  26.012  11.600
33475W        W   16   9.783  10.220   2.671
33476W        W   17  14.448  15.302  14.801
33477W        W   18  10.380   0.720   4.043
33478W        W   19  10.941  27.498  14.405
33479W        W   20  42.825  40.352  13.609
33480W        W   21   0.346  15.063  13.143
33481W        W   22  27.334  39.482   2.467
33482W        W   23   5.535   9.897  11.874
33483W        W   24  15.721  22.232   1.694
33484W        W   25  31.934  40.616   1.939
33485W        W   26   7.433  35.550   3.619
33486W        W   27   9.440  24.533  12.489
33487W        W   28  27.000  42.758   0.872
33488W        W   29   6.351  13.346   5.395
33489W        W   30  43.914   5.598   3.662
33490W        W   31  17.339   6.620  10.417
33491W        W   32  15.768   3.172   5.330
33492W        W   33  43.784  43.711   2.404
33493W        W   34  39.240  37.885   5.058
33494W        W   35  33.788   9.209   0.800
33495W        W   36  21.623   3.754  12.139
33496W        W   37  30.570  44.255  12.165
33497W        W   38  15.239  30.481  11.066
33498W        W   39  23.554  14.259  12.597
33499W        W   40   7.685  18.046  10.302
33500W        W   41  20.732   1.770   3.937
33501W        W   42  16.470  33.637   1.961
33502W        W   43  33.583  19.588   1.715
33503W        W   44  36.251  42.206  14.261
33504W        W   45  44.895  22.026  14.777
33505W        W   46   5.819  16.289   4.533
33506W        W   47  35.426  24.052   4.389
33507W        W   48  33.463  17.100  14.729
33508W        W   49  28.681  13.383  14.408
33509W        W   50  22.120  12.965   2.298
33510W        W   51   4.623   7.601   1.519
33511W        W   52  12.811  24.042  12.456
33512W        W   53  24.163  14.051   0.402
33513W        W   54  18.139   5.637   2.646
33514W        W   55  11.588  18.334  10.667
33515W        W   56  13.426  34.716   3.989
33516W        W   57  23.320   2.912  10.953
33517W        W   58  15.972   6.287  13.794
33518W        W   59  16.039  31.698   0.895
33519W        W   60  15.406  38.655  11.478
33520W        W   61   2.300  34.495   5.271
33521W        W   62  11.115   4.877   4.274
33522W        W   63  30.441  16.661  13.638
33523W        W   64   0.541  22.279  11.491
33524W        W   65   9.908  36.086  13.413
33525W        W   66  25.306  24.984   3.777
33526W        W   67   1.310   9.767  10.722
33527W        W   68  18.771   1.226  13.440
33528W        W   69  30.689  42.900  10.737
33529W        W   70   5.149  22.420  13.846
33530W        W   71  18.382  11.794  12.466
33531W        W   72  32.055  26.459   1.812
33532W        W   73  29.173   0.602  14.064
33533W        W   74   8.187  31.715   0.402
33534W        W   75   9.113  29.550   1.749
33535W        W   76  24.677  24.189  11.208
33536W        W   77  42.811   9.298   4.587
33537W        W   78   1.241  33.392   3.097
33538W        W   79  15.254  15.802  14.713
33539W        W   80  15.292  39.608   1.202
33540W        W   81   4.236  21.254   0.339
33541W        W   82  13.840  17.799   0.253
33542W        W   83  11.081  27.563   3.732
33543W        W   84  16.628  36.121   2.724
33544W        W   85  26.417   7.436   2.609
33545W        W   86  23.749  42.404   2.255
33546W        W   87  35.388  34.037   2.964
33547W        W   88  37.095  26.569   2.779
33548W        W   89  23.595   8.332   0.432
33549W        W   90  12.715  18.537   2.405
33550W        W   91  12.283  20.667  10.574
33551W        W   92  23.474   9.660  11.228
33552W        W   93  34.521   5.450  11.510
33553W        W   94  11.105   9.593  12.857
33554W        W   95  21.196   6.617  12.085
33555W        W   96  36.633  44.433   1.059
33556W        W   97  33.581  31.248   4.552
33557W        W   98  17.163   9.165  10.816
33558W        W   99   2.494  20.752  14.503
33559W        W  100  21.232  40.495   2.362
33560W        W  101  38.099  37.468  13.455
33561W        W  102  32.550  22.710  13.448
33562W        W  103   0.271   8.821   4.068
33563W        W  104  17.114   6.193   1.281
33564W        W  105   8.806  28.492  13.430
33565W        W  106  18.731  18.244  13.861
33566W        W  107  34.055   2.367   2.560
33567W        W  108  11.937  39.087  12.047
33568W        W  109  32.790  15.897  14.937
33569W        W  110   0.441   3.011  13.709
33570W        W  111   8.983  39.656  12.315
33571W        W  112  35.008  31.315   3.299
33572W        W  113  42.341  28.402  13.573
33573W        W  114  16.680  16.654  10.620
33574W        W  115  20.953  11.140  13.969
33575W        W  116  35.776  43.381   0.468
33576W        W  117   7.362  17.089  13.529
33577W        W  118  38.437  12.268  12.264
33578W        W  119  28.906  32.910  14.936
33579W        W  120   9.404  34.032   4.101
33580W        W  121  41.407   3.041  14.694
33581W        W  122  24.656  37.881  14.322
33582W        W  123  10.420   6.511  11.015
33583W        W  124  11.716  29.418  10.632
33584W        W  125  33.919   4.071  10.688
33585W        W  126  22.670  18.597  14.353
33586W        W  127  11.919  31.938   4.553
33587W        W  128  44.291  33.283   3.690
33588W        W  129  25.776  15.132   0.125
33589W        W  130  34.323   7.693  11.161
33590W        W  131   1.550  43.340   1.949
33591W        W  132  24.707  23.221  12.574
33592W        W  133  27.403  31.199  11.537
33593W        W  134  28.919  32.707  14.459
33594W        W  135   1.388  11.184  12.961
33595W        W  136   9.336   3.873   4.918
33596W        W  137  17.295  21.285  10.326
33597W        W  138  12.369  33.141  13.295
33598W        W  139   8.000  42.935  10.500
33599W        W  140  24.253  36.806   4.624
33600W        W  141  36.410   1.870   4.865
33601W        W  142   3.437  13.111   3.390
33602W        W  143  14.724  35.270  12.027
33603W        W  144  40.229  15.763  13.479
33604W        W  145   0.318  29.815   4.046
33605W        W  146  27.564   2.195  11.868
33606W        W  147   7.756   7.879   2.872
33607W        W  148  30.122  44.342  11.902
33608W        W  149  30.114   5.886  11.297
33609W        W  150  32.689  39.973   2.842
33610W        W  151   8.473  33.372  14.433
33611W        W  152  43.991  26.955   1.767
33612W        W  153  13.220  29.538  12.862
33613W        W  154  14.201  34.234  13.939
33614W        W  155  44.802  26.027  12.573
33615W        W  156  40.505   7.515  12.067
33616W        W  157  44.791  40.272  11.493
33617W        W  158  26.508   7.992  12.710
33618W        W  159   2.123  35.284   3.803
33619W        W  160   4.724   4.751  14.072
33620W        W  161  36.589  39.770   4.636
33621W        W  162  17.027  42.902   4.147
33622W        W  163  41.228  35.512  10.845
33623W        W  164  40.837  13.422  13.782
33624W        W  165   3.781  37.274   3.200
33625W        W  166  22.207  37.144  12.580
33626W        W  167   0.782  39.517   2.584
33627W        W  168  17.653  27.362  10.674
33628W        W  169  40.334  25.342   3.617
33629W        W  170   6.863  36.492   0.447
33630W        W  171   2.431   2.763   1.325
33631W        W  172  44.625  22.738  14.179
33632W        W  173  15.732   5.369  12.198
33633W        W  174  31.606  34.315  11.081
33634W        W  175   1.950  37.581   3.682
33635W        W  176  27.516   7.289   0.344
33636W        W  177  34.522  42.037  13.548
33637W        W  178  23.289  32.001   1.466
33638W        W  179  17.108  38.847  14.489
33639W        W  180  24.298  35.954  10.863
33640W        W  181  33.024  10.091  10.810
33641W        W  182  37.546   5.956   4.850
33642W        W  183  16.176   2.739  13.918
33643W        W  184  11.054   9.104   2.205
33644W        W  185  24.365  10.213  11.400
33645W        W  186  37.583   3.900   2.408
33646W        W  187  43.478  20.581  11.582
33647W        W  188  18.454  39.381  12.515
33648W        W  189   2.247  30.604   0.915
33649W        W  190   5.677  22.204   1.169
33650W        W  191  27.366  29.164  13.888
33651W        W  192  12.627  14.347  13.922
33652W        W  193   3.729  22.638  13.410
33653W        W  194  11.670  43.619  11.221
33654W        W  195  14.524  37.323  12.883
33655W        W  196   1.308  13.743   0.574
33656W        W  197  17.433  23.134   2.045
33657W        W  198  35.640  25.871   1.996
33658W        W  199   2.430  34.631  14.021
33659W        W  200  25.727   0.322  12.921
33660W        W  201  21.511  24.517  11.187
33661W        W  202  28.591  27.600   4.261
33662W        W  203  11.723  39.434   1.413
33663W        W  204  17.581  43.689   0.815
33664W        W  205  10.572  34.346  10.892
33665W        W  206   2.963  38.095  13.474
33666W        W  207  22.173  35.102  11.715
33667W        W  208  37.341  19.982   2.131
33668W        W  209  38.930   2.143  13.127
33669W        W  210  21.174  15.326  14.370
33670W        W  211  25.296  30.275   3.620
33671W        W  212  34.485  12.547   2.892
33672W        W  213  44.366  17.285   3.206
33673W        W  214  18.830  13.413  14.895
33674W        W  215   2.056  24.063  12.566
33675W        W  216  18.588  36.974   4.727
33676W        W  217  18.346  10.202   3.321
33677W        W  218  23.767  29.603  12.834
33678W        W  219   9.118  41.852   1.231
33679W        W  220  16.420  29.074   3.650
33680W        W  221  17.821   7.544   1.885
33681W        W  222   8.099  32.993  14.216
33682W        W  223   7.512   8.056  14.501
33683W        W  224   3.354  10.358   9.888
33684W        W  225  19.479  21.235   2.262
33685W        W  226  33.436  35.008  11.216
33686W        W  227  23.935  22.328   1.702
33687W        W  228  22.508  17.569  13.022
33688W        W  229  29.966   3.164  12.210
33689W        W  230   8.067   0.899  13.669
33690W        W  231  24.277  12.272   4.172
33691W        W  232   8.771  26.231   4.278
33692W        W  233  22.272  16.390   5.078
33693W        W  234  41.118  12.594  12.624
33694W        W  235  38.764  23.206  11.176
33695W        W  236  32.039  15.841   3.099
33696W        W  237  28.207   7.396  10.869
33697W        W  238  21.758  20.256   1.186
33698W        W  239  25.143  27.565   0.044
33699W        W  240  12.866  33.470   1.104
33700W        W  241  19.070   0.238  10.754
33701W        W  242  42.052  30.536   1.856
33702W        W  243  39.185  34.841   4.834
33703W        W  244  34.319  41.785   0.724
33704W        W  245  39.848  10.672   4.493
33705W        W  246  16.840  27.534   0.888
33706W        W  247  32.478  16.858  12.494
33707W        W  248  19.665   3.883  12.643
33708W        W  249  22.619  41.057  14.040
33709W        W  250   1.261  39.170  10.300
33710W        W  251   3.738   9.073  13.489
33711W        W  252   6.416  25.482  11.539
33712W        W  253   0.644  10.464   5.037
33713W        W  254   3.950  43.270   0.251
33714W        W  255  19.800  31.462   1.260
33715W        W  256  31.862  17.026   2.041
33716W        W  257  18.673  44.727  13.352
33717W        W  258  36.199  43.438  13.021
33718W        W  259  16.684   0.740   4.602
33719W        W  260  20.707   6.444  12.421
33720W        W  261  31.909  42.236  11.585
33721W        W  262  22.315  39.096   9.978
33722W        W  263   9.336  39.932  11.502
33723W        W  264  16.699  31.876   3.477
33724W        W  265  30.962  44.744  11.570
33725W        W  266  23.887  10.045   2.641
33726W        W  267  37.393   2.976   3.043
33727W        W  268  15.330  12.640   3.639
33728W        W  269  25.041  41.872  12.520
33729W        W  270  37.003  22.548  10.554
33730W        W  271  39.804  35.407   0.821
33731W        W  272  31.099   7.377  13.924
33732W        W  273   9.184   9.972   2.305
33733W        W  274  10.258  25.295  11.968
33734W        W  275  10.923  11.097  13.741
33735W        W  276  19.020  22.942  14.454
33736W        W  277  41.901  12.623   1.342
33737W        W  278  40.779   4.925   0.853
33738W        W  279   6.141  15.146  11.862
33739W        W  280  13.608  27.044   2.021
33740W        W  281  26.094  28.443  13.010
33741W        W  282   1.378  39.271   1.426
33742W        W  283   2.871  37.048  10.876
33743W        W  284   7.421   6.083   3.166
33744W        W  285   4.339  44.346   2.353
33745W        W  286  36.620  42.069   2.157
33746W        W  287   9.673  19.428   2.615
33747W        W  288  13.352  31.958   4.429
33748W        W  289  17.667  41.971   4.465
33749W        W  290  13.834   1.835   3.121
33750W        W  291  13.164  29.835   4.182
33751W        W  292  26.122  13.636   0.794
33752W        W  293  41.974  29.379  11.226
33753W        W  294  29.884   5.011  13.848
33754W        W  295  34.457  16.959   2.223
33755W        W  296   4.237  19.221   3.145
33756W        W  297  35.026  18.785  11.021
33757W        W  298  41.270  34.549  11.647
33758W        W  299  38.097   0.375   3.176
33759W        W  300  30.594   0.417  14.523
33760W        W  301  19.607  34.366   3.245
33761W        W  302  22.670  34.794   1.324
33762W        W  303  23.760  11.028   2.801
33763W        W  304  14.350  40.997  11.029
33764W        W  305  17.284  20.396   2.361
33765W        W  306  26.473  31.982   4.539
33766W        W  307  44.527  33.125   1.274
33767W        W  308  31.399  29.043  14.660
33768W        W  309  23.553  15.761  14.812
33769W        W  310   7.807   7.533   2.398
33770W        W  311  36.929  43.283   0.404
33771W        W  312  27.533  19.724   2.464
33772W        W  313  38.613  41.265   1.892
33773W        W  314  42.586  17.206   0.397
33774W        W  315  33.863  20.256   0.781
33775W        W  316   4.215  44.675  13.370
33776W        W  317  26.602  12.556  10.502
33777W        W  318  20.814  31.068   3.730
33778W        W  319  37.548  19.148   4.073
33779W        W  320  11.817  35.826  11.213
33780W        W  321   5.951  43.684  13.275
33781W        W  322  18.646   1.480   4.013
33782W        W  323   8.822  30.857   0.708
33783W        W  324  14.997  25.660   0.833
33784W        W  325  34.031  20.989   0.496
33785W        W  326  15.185  39.375  14.322
33786W        W  327  22.530  16.594   2.326
33787W        W  328  43.326  42.570   1.506
33788W        W  329  37.085  23.203  14.920
33789W        W  330   0.982  10.772  11.371
33790W        W  331  13.640  42.040   1.644
33791W        W  332   6.279  42.934   0.374
33792W        W  333  31.990  34.321   4.298
33793W        W  334   7.362  29.824   4.443
33794W        W  335   6.962  31.325  13.932
33795W        W  336  26.697  10.769   2.214
33796W        W  337  12.830  18.700  14.959
33797W        W  338  31.149  35.083  11.089
33798W        W  339  34.152  29.585  14.339
33799W        W  340   9.901   9.864  13.475
33800W        W  341  34.312  30.630  11.605
33801W        W  342  27.582  29.407  13.103
33802W        W  343  43.282  11.089  10.772
33803W        W  344  10.512  10.719  12.297
33804W        W  345  14.146  38.039   0.267
33805W        W  346  22.718  14.705  12.367
33806W        W  347  21.708  39.307  14.703
33807W        W  348   4.865  35.041  14.635
33808W        W  349   4.032  20.505   1.369
33809W        W  350  26.912   3.084  13.122
33810W        W  351   0.913  30.896   0.779
33811W        W  352  15.322  23.225  12.836
33812W        W  353  31.376  15.583   1.982
33813W        W  354   8.830  39.200  14.357
33814W        W  355  22.541  41.895  13.298
33815W        W  356  14.619  20.524   1.363
33816W        W  357   2.803  13.356   2.584
33817W        W  358   7.913  24.203  14.567
33818W        W  359  25.745  35.359   0.178
33819W        W  360  12.984  28.980   4.572
33820W        W  361  33.062  13.354   0.740
33821W        W  362  19.410  43.012  11.233
33822W        W  363  37.588  35.712  12.404
33823W        W  364  28.506  44.095  12.109
33824W        W  365  18.881   1.836   3.692
33825W        W  366  22.618  13.137   2.238
33826W        W  367   1.347   5.420   0.454
33827W        W  368  33.446  34.033   1.406
33828W        W  369  36.954  13.114  13.485
33829W        W  370  32.886  25.949  13.018
33830W        W  371  21.535  42.256   2.744
33831W        W  372   1.547  29.397   4.554
33832W        W  373  18.333  26.559  12.893
33833W        W  374  27.994  23.683  13.739
33834W        W  375  15.053  18.571  14.321
33835W        W  376   1.373  33.153   1.290
33836W        W  377  18.161  30.879  10.869
33837W        W  378  20.521  14.885   1.911
33838W        W  379  44.258   3.335   4.861
33839W        W  380  22.784  41.137   3.686
33840W        W  381  16.068  33.676  13.469
33841W        W  382  32.892  27.984  13.955
33842W        W  383  13.063  42.030  12.223
33843W        W  384  43.321  21.147  12.408
33844W        W  385  37.849   0.967   0.337
33845W        W  386  36.560  34.902  14.329
33846W        W  387  20.578   0.831   1.837
33847W        W  388  43.807  37.959  14.432
33848W        W  389  30.680   0.013   3.085
33849W        W  390  11.865  41.020   0.690
33850W        W  391  34.138  33.158   3.230
33851W        W  392  38.008   1.463   2.584
33852W        W  393  44.441  18.795  12.828
33853W        W  394  33.536  42.072  10.614
33854W        W  395  22.203  11.270  10.928
33855W        W  396   8.788  10.819   0.765
33856W        W  397  28.204  30.722   1.868
33857W        W  398  33.446  13.848   0.373
33858W        W  399  21.241  22.357  11.082
33859W        W  400  35.338   5.689  13.080
33860W        W  401  18.028  25.046  14.216
33861W        W  402  29.936  16.661   1.538
33862W        W  403  39.066  20.071   0.054
33863W        W  404  19.067  39.563   4.611
33864W        W  405   2.559  44.984   4.748
33865W        W  406  44.430  35.997   0.899
33866W        W  407  22.466  33.801  11.051
33867W        W  408  17.096  26.010  13.024
33868W        W  409  22.688  33.292   0.839
33869W        W  410   6.721  25.621  14.961
33870W        W  411   1.337  39.290   2.839
33871W        W  412  15.610  15.560   1.369
33872W        W  413  13.608   7.251   2.181
33873W        W  414  26.174  17.806  12.891
33874W        W  415  20.679  31.013  14.369
33875W        W  416   9.699  36.385   3.661
33876W        W  417  25.250  23.823  12.895
33877W        W  418   0.489  15.552   4.738
33878W        W  419  25.303   6.479  11.002
33879W        W  420  34.345  33.597  12.614
33880W        W  421  34.144  27.635   0.819
33881W        W  422  18.850  18.769   3.704
33882W        W  423   5.115   9.423  11.107
33883W        W  424  14.007   2.077   4.249
33884W        W  425  23.370  44.165  12.022
33885W        W  426  25.256   9.825   0.919
33886W        W  427  18.674  43.121   3.254
33887W        W  428  24.301  17.289  12.395
33888W        W  429  34.623  27.624   3.702
33889W        W  430   0.263  29.345   2.860
33890W        W  431   5.873  32.976  11.759
33891W        W  432  28.570  44.199   3.931
33892W        W  433  30.965   2.038   0.995
33893W        W  434  28.630  11.799  12.699
33894W        W  435  41.107  43.991  14.368
33895W        W  436   0.729  24.012   1.897
33896W        W  437  13.285  21.622   0.197
33897W        W  438  18.230  12.324   0.850
33898W        W  439   3.766  40.654   0.264
33899W        W  440  10.230  32.442  13.257
33900W        W  441  33.359   5.840   2.514
33901W        W  442  29.347  44.466   0.811
33902W        W  443  24.591  24.268  13.640
33903W        W  444  35.651  34.029   1.479
33904W        W  445  36.802  35.097   0.941
33905W        W  446  18.339   3.925   4.550
33906W        W  447  17.843  37.428   3.014
33907W        W  448  21.141  22.745  14.458
33908W        W  449  44.640  36.780  10.742
33909W        W  450  21.577  11.074   4.516
33910W        W  451   6.287  37.495   2.749
33911W        W  452  37.575  37.100   3.104
33912W        W  453  42.843   4.903   1.480
33913W        W  454  39.761  44.786  12.785
33914W        W  455  25.780   0.284  11.680
33915W        W  456  28.234  41.861   3.182
33916W        W  457  15.293  29.638  10.678
33917W        W  458   5.319  44.814   2.773
33918W        W  459  17.663  25.404   0.870
33919W        W  460  44.497  37.845   3.661
33920W        W  461  11.363  23.672   0.401
33921W        W  462  23.391  39.500   4.286
33922W        W  463  43.922  27.170   3.151
33923W        W  464  31.640   4.966  11.388
33924W        W  465  19.343  37.490   4.621
33925W        W  466  38.806  35.472   5.204
33926W        W  467  18.810  13.900   2.067
33927W        W  468  41.485  34.414   0.285
33928W        W  469  32.546  43.639  12.164
33929W        W  470  26.958   6.019  13.388
33930W        W  471  35.452   9.737  12.402
33931W        W  472  39.855   1.434   0.886
33932W        W  473   2.865  38.820   0.087
33933W        W  474   6.999  10.970   4.231
33934W        W  475  37.405  21.406  14.264
33935W        W  476  42.027  43.706  14.829
33936W        W  477  24.811   7.579   0.784
33937W        W  478  43.501  23.117   4.216
33938W        W  479  15.212  15.151  12.344
33939W        W  480  11.586   4.644   4.138
33940W        W  481  15.660   7.346   4.576
33941W        W  482  24.455  35.433  11.713
33942W        W  483   8.151  10.241   0.321
33943W        W  484  25.747   6.943   5.021
33944W        W  485  40.019  21.360   3.808
33945W        W  486  10.827  29.927   2.252
33946W        W  487  20.976  25.866  13.832
33947W        W  488  36.604  12.676  10.243
33948W        W  489  38.097   5.321  11.154
33949W        W  490  23.770  29.336  13.757
33950W        W  491  43.536  34.414   1.671
33951W        W  492  32.917   7.271   0.388
33952W        W  493  41.079  41.167  13.114
33953W        W  494  18.305  38.278   2.873
33954W        W  495   4.686  19.590  14.715
33955W        W  496  14.376  34.653  11.565
33956W        W  497  37.943   9.171   0.290
33957W        W  498   7.701   8.034   2.364
33958W        W  499  16.823  13.169   1.209
33959W        W  500  29.029   6.898  13.882
33960W        W  501  35.599  20.639   0.242
33961W        W  502  34.028   1.295  11.948
33962W        W  503  23.603  14.316   0.483
33963W        W  504   7.145  23.520   3.887
33964W        W  505  15.557  12.653   2.294
33965W        W  506   7.409  18.840  14.535
33966W        W  507  13.763  32.210  11.304
33967W        W  508  25.393   9.814   2.285
33968W        W  509  24.234  39.283   0.882
33969W        W  510  25.196  21.486  12.377
33970W        W  511  39.981  31.039   2.906
33971W        W  512  24.699  42.439   2.611
33972W        W  513  37.653  37.878  13.753
33973W        W  514  41.864  12.597  14.025
33974W        W  515  11.575  35.342  11.146
33975W        W  516  22.103   7.116  11.138
33976W        W  517  41.340  30.010   3.235
33977W        W  518  19.688  34.599   4.286
33978W        W  519  10.264  30.433  14.282
33979W        W  520   4.362  43.306   1.578
33980W        W  521  33.194  44.620   3.723
33981W        W  522   5.779  37.248   4.392
33982W        W  523  23.990  17.133   4.148
33983W        W  524  33.532   6.737   0.505
33984W        W  525  15.110  13.238  11.295
33985W        W  526  12.362   1.783   0.072
33986W        W  527   4.583   4.403   9.780
33987W        W  528  44.407  21.058   2.632
33988W        W  529   8.662  29.858  13.865
33989W        W  530  11.109  17.583  14.504
33990W        W  531  42.649   5.954  14.367
33991W        W  532  11.655  36.071   1.705
33992W        W  533  22.312  10.663   2.407
33993W        W  534  28.999   5.919   3.251
33994W        W  535   2.989  16.243   3.649
33995W        W  536   6.167  33.401  12.636
33996W        W  537  38.372  12.486  10.295
33997W        W  538  30.203  40.806   3.694
33998W        W  539  25.627  15.146   2.508
33999W        W  540   5.512  29.563  12.062
34000W        W  541  31.166  33.611   4.208
34001W        W  542  18.638  35.629  14.761
34002W        W  543  26.574  17.267   0.950
34003W        W  544  39.902   8.762   4.741
34004W        W  545   3.537   2.334  12.090
34005W        W  546   4.661  35.864   2.466
34006W        W  547  30.044  43.362  13.141
34007W        W  548  17.123  34.933   4.137
34008W        W  549  20.136  12.753   1.196
34009W        W  550  40.677  20.951   1.397
34010W        W  551  21.484  30.830   1.588
34011W        W  552   1.856  28.269   2.293
34012W        W  553   8.248  15.243   4.119
34013W        W  554  38.467  44.304   3.198
34014W        W  555  36.151  30.446  12.998
34015W        W  556  31.362  19.533  12.651
34016W        W  557  41.603  36.976   3.600
34017W        W  558   8.592  22.100   2.216
34018W        W  559  32.363  13.858  14.395
34019W        W  560   9.707  33.068   1.851
34020W        W  561  23.034  19.797  13.400
34021W        W  562  21.154   4.235  10.974
34022W        W  563  23.300  28.369   1.317
34023W        W  564   4.195   6.337  10.161
34024W        W  565   7.824  37.173   4.458
34025W        W  566  19.202  35.573   0.362
34026W        W  567  12.017  43.814   2.521
34027W        W  568  20.888  42.436   0.913
34028W        W  569  29.171  30.671   0.005
34029W        W  570   1.120  10.619   4.124
34030W        W  571  43.449  19.223  14.512
34031W        W  572   2.518   6.398   2.398
34032W        W  573  38.158  29.350  13.951
34033W        W  574  40.461   7.960   1.249
34034W        W  575  28.465  38.350   4.133
34035W        W  576   9.419  40.370   1.391
34036W        W  577  20.192   2.031   0.820
34037W        W  578   5.917  21.417   0.994
34038W        W  579  22.427  18.551   4.047
34039W        W  580  40.558  22.547   2.776
34040W        W  581  20.463  22.973  10.664
34041W        W  582  18.973  39.884   4.082
34042W        W  583   3.344  44.069   2.179
34043W        W  584  42.401  36.920  14.350
34044W        W  585  12.274  37.477  13.388
34045W        W  586  18.793  33.958   3.311
34046W        W  587  40.449  43.121   4.710
34047W        W  588   8.799  24.229   3.556
34048W        W  589  25.544  17.091   0.898
34049W        W  590  23.512  17.241  10.775
34050W        W  591  27.337  42.524  13.297
34051W        W  592   0.503  37.852   2.470
34052W        W  593  38.271  39.845  14.713
34053W        W  594   3.633  20.193  11.908
34054W        W  595  23.217  41.467   0.418
34055W        W  596  11.843   6.146   2.293
34056W        W  597  14.259  29.942  12.091
34057W        W  598   6.405   7.268  13.952
34058W        W  599  31.642  31.340   2.860
34059W        W  600  37.042  34.492   4.132
34060W        W  601   7.125  31.856  11.634
34061W        W  602   3.930  14.802   4.160
34062W        W  603  36.643  21.522   4.922
34063W        W  604  27.823  20.108   3.599
34064W        W  605  17.235  20.232  12.082
34065W        W  606  14.388  13.534  12.465
34066W        W  607  43.731  33.752   2.922
34067W        W  608  20.853  36.941  13.064
34068W        W  609  31.218   9.680  10.695
34069W        W  610  24.973  14.300   4.116
34070W        W  611  37.711   5.684  14.508
34071W        W  612  33.496  33.608   3.212
34072W        W  613  35.554  27.156   3.731
34073W        W  614  25.960  29.499  11.623
34074W        W  615  32.658  24.642   1.741
34075W        W  616  25.457  26.408   0.039
34076W        W  617  44.292  17.882   1.417
34077W        W  618  27.727   3.530   5.030
34078W        W  619  43.058  11.192  14.862
34079W        W  620  24.036  26.096   4.129
34080W        W  621   3.312   9.424   2.149
34081W        W  622  27.605   4.191  12.946
34082W        W  623   0.140  26.884   0.265
34083W        W  624  16.077  25.108  12.088
34084W        W  625  19.090  35.908  14.908
34085W        W  626   5.914  19.384   1.185
34086W        W  627  28.444  37.022   3.971
34087W        W  628  39.799  15.816   4.539
34088W        W  629   3.852  38.022  12.350
34089W        W  630  24.608  20.796  10.723
34090W        W  631  38.071   2.169   3.647
34091W        W  632  40.247  31.100   1.710
34092W        W  633  42.579  37.457  12.493
34093W        W  634  10.133  40.964   3.264
34094W        W  635  18.687  27.200  12.114
34095W        W  636  18.794  26.805  12.969
34096W        W  637  11.170  25.558   1.780
34097W        W  638  18.121  21.788  12.669
34098W        W  639  33.818   8.879  13.500
34099W        W  640  17.721   3.733  14.796
34100W        W  641  11.105  18.272  14.756
34101W        W  642  41.910  40.346  14.449
34102W        W  643   6.668  25.968  13.798
34103W        W  644  29.186  11.101   0.959
34104W        W  645  43.753  39.535  11.736
34105W        W  646  21.611  31.756  10.776
34106W        W  647  30.449  18.151   1.284
34107W        W  648  16.978  33.548   1.958
34108W        W  649  22.883  24.681   5.206
34109W        W  650   1.722  34.994   1.305
34110W        W  651   3.581   3.276   1.536
34111W        W  652  26.460  11.679  13.064
34112W        W  653  28.125  44.681  10.999
34113W        W  654  40.409  39.041  13.986
34114W        W  655   2.203  20.699   0.820
34115W        W  656  42.949  32.629   1.899
34116W        W  657   5.910  11.249  14.608
34117W        W  658   0.083   7.212  10.591
34118W        W  659  42.233  32.543   4.614
34119W        W  660  29.437  42.382  10.747
34120W        W  661  20.129  29.125   4.537
34121W        W  662  38.372   8.134  10.737
34122W        W  663  10.086   4.218   0.084
34123W        W  664  44.385  23.509  14.762
34124W        W  665  11.758  39.753  10.704
34125W        W  666  14.082  36.479   3.373
34126W        W  667  38.360  19.083  13.430
34127W        W  668  14.687  26.514  11.144
34128W        W  669   1.055   5.679   2.383
34129W        W  670  40.443  25.631  14.347
34130W        W  671  25.661  27.510  12.862
34131W        W  672   8.779  24.895   1.760
34132W        W  673  35.976   2.013  14.886
34133W        W  674   7.149  12.318   0.284
34134W        W  675  30.883  17.235  12.928
34135W        W  676  32.764   7.797   3.133
34136W        W  677   4.374  28.871   4.275
34137W        W  678  33.478  25.716   1.326
34138W        W  679  11.732  38.449  10.252
34139W        W  680  21.052  14.719   2.605
34140W        W  681   3.326  16.533  13.361
34141W        W  682  12.230  10.126   3.777
34142W        W  683  14.372  15.537  13.530
34143W        W  684   6.790  14.898  10.480
34144W        W  685  44.721  35.628  11.145
34145W        W  686   2.698  28.578  13.365
34146W        W  687  22.306  32.094   2.599
34147W        W  688  28.757  30.862   2.010
34148W        W  689   5.914  32.139   3.827
34149W        W  690  21.990   5.723  13.773
34150W        W  691  23.572  32.668   1.964
34151W        W  692  18.718   5.211   2.266
34152W        W  693  21.993  36.918   0.707
34153W        W  694  33.585  28.636  13.481
34154W        W  695  40.886  31.081   0.893
34155W        W  696   1.318  35.921   3.391
34156W        W  697  20.497  30.740  13.848
34157W        W  698  43.405  26.089  10.644
34158W        W  699  39.947  20.673   4.392
34159W        W  700  24.459   8.399  13.120
34160W        W  701  37.044  15.831   3.577
34161W        W  702  12.612  12.742   2.377
34162W        W  703  16.897  21.655   4.537
34163W        W  704  17.496  11.870   3.009
34164W        W  705  32.041  32.551  13.371
34165W        W  706   2.647  17.178  14.429
34166W        W  707  15.166  11.527   0.766
34167W        W  708   1.301  34.816   2.774
34168W        W  709  38.888  40.509   0.467
34169W        W  710  34.997   2.838  10.301
34170W        W  711  34.368   3.029  13.357
34171W        W  712  38.824  44.970   4.780
34172W        W  713  10.272  32.556  10.445
34173W        W  714  22.545  40.632   2.845
34174W        W  715   6.963  28.888  12.521
34175W        W  716   4.863  26.424  11.600
34176W        W  717  33.051  31.010  10.328
34177W        W  718  40.624  10.182  12.283
34178W        W  719  35.015  39.254  12.437
34179W        W  720  11.190  27.597  11.251
34180W        W  721   4.309  19.501   1.326
34181W        W  722  14.614  39.436  13.867
34182W        W  723  16.100  39.634  14.830
34183W        W  724  42.784  21.203  14.087
34184W        W  725   2.801  15.382  11.091
34185W        W  726  17.240  28.365   1.811
34186W        W  727  16.065  17.736   1.149
34187W        W  728   7.469  17.004  12.577
34188W        W  729  22.706  37.498  10.253
34189W        W  730  37.097   3.407   1.670
34190W        W  731  13.092  37.511   0.939
34191W        W  732  20.523  36.701  12.595
34192W        W  733   7.468   1.193  14.929
34193W        W  734  14.501  37.918  14.857
34194W        W  735  43.406  26.782  14.429
34195W        W  736   4.852  28.633   4.394
34196W        W  737  12.917  37.033  11.305
34197W        W  738   2.763  36.019   1.965
34198W        W  739  43.906  26.085  10.751
34199W        W  740  12.468  17.696   0.014
34200W        W  741  10.010  43.787  12.867
34201W        W  742  12.225  11.148  11.719
34202W        W  743  43.958  32.863  14.809
34203W        W  744  17.672  44.473   2.361
34204W        W  745  24.452  14.059   0.857
34205W        W  746   3.523   5.402  14.362
34206W        W  747  11.264  27.418   2.171
34207W        W  748   0.793  26.548  13.530
34208W        W  749   0.642  25.244   3.513
34209W        W  750   4.138   8.242   3.109
34210W        W  751  19.039  13.272  13.382
34211W        W  752   7.357   6.653   4.848
34212W        W  753   0.213  15.316   4.257
34213W        W  754   8.286  34.743   0.499
34214W        W  755  22.506   7.130  12.877
34215W        W  756   8.773  24.571  11.160
34216W        W  757  12.884  37.446   2.762
34217W        W  758  39.080  42.998   4.495
34218W        W  759  35.479  15.895  14.936
34219W        W  760  44.901  31.948  11.490
34220W        W  761  26.401  10.963   3.264
34221W        W  762  22.880  16.178   4.975
34222W        W  763  31.318   5.199   0.891
34223W        W  764   6.742  20.194  13.790
34224W        W  765  26.712  18.664  12.816
34225W        W  766  36.381  14.970   1.469
34226W        W  767  15.120   7.425   4.569
34227W        W  768  24.625  33.856  10.472
34228W        W  769  21.866  34.081  11.457
34229W        W  770   4.483  31.611  13.076
34230W        W  771   6.305  35.101   0.892
34231W        W  772  35.605  33.306  12.363
34232W        W  773  25.808  24.719   4.083
34233W        W  774  22.522  38.037   3.697
34234W        W  775  28.860  32.153  11.585
34235W        W  776  27.555  28.701  12.502
34236W        W  777  37.611  19.739  10.795
34237W        W  778  40.414  33.419  14.528
34238W        W  779  38.985  23.463   2.758
34239W        W  780  17.717  29.919  12.201
34240W        W  781   4.180  19.029  11.612
34241W        W  782  40.109   4.016  14.878
34242W        W  783  19.020   3.512   1.887
34243W        W  784  40.764  19.933  12.054
34244W        W  785  11.565  39.415  14.484
34245W        W  786  16.457  18.570   0.208
34246W        W  787  44.440  24.693   1.202
34247W        W  788   7.176  38.841  14.294
34248W        W  789  28.472  28.268   1.311
34249W        W  790  43.409  14.369  10.189
34250W        W  791   2.616  44.276  10.654
34251W        W  792  37.481  20.010  14.909
34252W        W  793  10.168  23.260  13.985
34253W        W  794  19.706  23.043   2.172
34254W        W  795  39.353  14.391   1.894
34255W        W  796  43.955  14.627  14.323
34256W        W  797  15.205  26.642   3.124
34257W        W  798  21.374   3.407  13.672
34258W        W  799   2.451  36.460   4.162
34259W        W  800  37.792  29.959  13.125
34260W        W  801  18.122  44.966  14.930
34261W        W  802  18.500   0.030   4.030
34262W        W  803  15.692   9.855   2.479
34263W        W  804  44.989  12.252   4.340
34264W        W  805  33.069  13.115   2.268
34265W        W  806  12.421  38.125   3.761
34266W        W  807   6.421   9.585  12.546
34267W        W  808   7.772  39.993   1.254
34268W        W  809  32.533   9.188   0.324
34269W        W  810  19.573  20.620   3.752
34270W        W  811  20.572  15.656   3.554
34271W        W  812  30.192  39.928   1.531
34272W        W  813  40.530   0.546   4.871
34273W        W  814  33.834  44.526   0.004
34274W        W  815  31.381  20.440   3.905
34275W        W  816   7.912  33.420  13.895
34276W        W  817  25.764   2.904  10.979
34277W        W  818  29.164   3.196   3.178
34278W        W  819  34.017  14.276   3.301
34279W        W  820  29.413   5.188   3.046
34280W        W  821  33.189   6.128  14.776
34281W        W  822  32.658  33.570  12.174
34282W        W  823  34.969  34.297   2.237
34283W        W  824  36.070  40.349  10.385
34284W        W  825  32.892  35.910  11.449
34285W        W  826  20.859  43.752  14.926
34286W        W  827  25.697  26.560   5.000
34287W        W  828   4.734   6.160  13.874
34288W        W  829  14.850  24.702  12.047
34289W        W  830  33.596  23.017  11.616
34290W        W  831  41.165   5.743  11.895
34291W        W  832   0.283  30.300  13.575
34292W        W  833  20.005  31.758  10.343
34293W        W  834  33.893  27.525  14.846
34294W        W  835  40.806  44.435  11.647
34295W        W  836  28.045  20.076  11.950
34296W        W  837  19.517  24.586   0.412
34297W        W  838  39.504  42.261  13.483
34298W        W  839  27.579  29.178  14.355
34299W        W  840  42.025   7.034   1.010
34300W        W  841  43.179  10.223   2.665
34301W        W  842  17.833   3.291   1.137
34302W        W  843  15.721  28.474   1.310
34303W        W  844  41.371  20.235   0.021
34304W        W  845  34.990   6.355  11.494
34305W        W  846  25.514  35.685  13.510
34306W        W  847  38.890  33.194   0.894
34307W        W  848  23.877   2.622   2.779
34308W        W  849  31.548  18.116   0.088
34309W        W  850  40.010  15.110  12.470
34310W        W  851  34.575  19.801   2.540
34311W        W  852  42.970  13.682  11.537
34312W        W  853  41.598  36.458  12.934
34313W        W  854   5.728  36.005   1.822
34314W        W  855  28.385   2.685  14.383
34315W        W  856  10.825  39.121   0.112
34316W        W  857  13.486  43.768  11.982
34317W        W  858  15.022  24.906   3.481
34318W        W  859  37.883  44.567   2.388
34319W        W  860  27.719  44.937   3.198
34320W        W  861  30.744  39.809  11.193
34321W        W  862   4.652  15.014   3.890
34322W        W  863   0.398  15.757  14.839
34323W        W  864  39.838  33.199  12.440
34324W        W  865  17.522  43.753  14.356
34325W        W  866   6.687  11.165  12.444
34326W        W  867   5.349  22.192   0.766
34327W        W  868   3.016  13.388   3.524
34328W        W  869  30.456  37.174  10.942
34329W        W  870  20.756  16.032   2.373
34330W        W  871  39.572  25.951   1.369
34331W        W  872  40.053  39.753   3.676
34332W        W  873  10.853  27.673   1.404
34333W        W  874  31.382   3.407  12.916
34334W        W  875  37.571   0.301  11.396
34335W        W  876  13.719  35.812  12.045
34336W        W  877   7.171   8.768  14.229
34337W        W  878  18.097  22.704   2.482
34338W        W  879  17.526   2.095   1.828
34339W        W  880  10.155  11.630  11.482
34340W        W  881  22.649  12.126  12.969
34341W        W  882  26.805   9.723   3.163
34342W        W  883  41.025  15.066   4.706
34343W        W  884  39.835  36.752  12.470
34344W        W  885  37.975  10.367   1.470
34345W        W  886  17.334  26.515   1.322
34346W        W  887  44.617  17.237  11.810
34347W        W  888  39.851  40.592   0.324
34348W        W  889   8.733   2.985  14.269
34349W        W  890  38.503  16.683   4.096
34350W        W  891   3.141  27.266   1.382
34351W        W  892  35.350  39.973  12.603
34352W        W  893  25.915  16.350  14.115
34353W        W  894  37.431  16.313   0.429
34354W        W  895   2.738  42.060   3.264
34355W        W  896  23.884  41.833   4.410
34356W        W  897   7.659   9.978  12.071
34357W        W  898  12.367  41.600  13.594
34358W        W  899  39.642  24.319   0.907
34359W        W  900  16.565   2.275  10.474
34360W        W  901  29.158   3.279  12.494
34361W        W  902  17.948   2.260  12.391
34362W        W  903  44.914  29.540  13.293
34363W        W  904   5.622  31.533  12.386
34364W        W  905   3.497  11.178   3.118
34365W        W  906  30.617  20.115   4.843
34366W        W  907  40.271  10.900   4.672
34367W        W  908  18.107  32.344   1.152
34368W        W  909  23.451  34.067  11.113
34369W        W  910  34.910  35.917  11.569
34370W        W  911  30.093  39.314   4.677
34371W        W  912  41.953   3.261   1.289
34372W        W  913   2.267  39.503  12.557
34373W        W  914  39.359  34.079   2.643
34374W        W  915  31.186  41.505   3.527
34375W        W  916  25.574  15.742   4.066
34376W        W  917   0.386   4.878  14.455
34377W        W  918  22.712  19.157   4.657
34378W        W  919   3.833  43.994  13.958
34379W        W  920  32.609  22.593   1.458
34380W        W  921   5.129   2.798  11.889
34381W        W  922   8.530  34.176   1.792
34382W        W  923  22.493   2.910  11.367
34383W        W  924  28.896  38.268  12.128
34384W        W  925   4.167  39.410  12.509
34385W        W  926  23.289  31.091  14.367
34386W        W  927  29.702  30.825   4.778
34387W        W  928   0.716  11.249  14.613
34388W        W  929  33.554  36.076   0.249
34389W        W  930  33.894  10.119  11.158
34390W        W  931  39.106  39.770  12.007
34391W        W  932  24.283  25.643   4.355
34392W        W  933   0.676  27.841   2.857
34393W        W  934  21.166  18.810   3.256
34394W        W  935  38.298  43.359   2.879
34395W        W  936  30.203  32.448   3.842
34396W        W  937  20.082  42.427  13.017
34397W        W  938  31.887  30.105  11.160
34398W        W  939  42.574  24.793   0.786
34399W        W  940  12.412  26.090  13.860
34400W        W  941  13.790  11.778   1.417
34401W        W  942  41.580  35.914   1.940
34402W        W  943   0.358  28.758  14.431
34403W        W  944  24.108  10.469  12.083
34404W        W  945   5.345   9.539  13.343
34405W        W  946   0.561   3.330   2.108
34406W        W  947  33.345  16.073  10.561
34407W        W  948  10.574  19.272  12.117
34408W        W  949  30.210  17.986  11.861
34409W        W  950  26.027  17.815  11.491
34410W        W  951   5.127  21.416   3.636
34411W        W  952  34.882  17.541   0.421
34412W        W  953  11.590  36.140  10.786
34413W        W  954  17.878  16.750  11.903
34414W        W  955  14.271  24.485   1.768
34415W        W  956  11.670  35.838  12.536
34416W        W  957  17.525  18.256   1.366
34417W        W  958  15.371  25.151   0.163
34418W        W  959  18.711  13.316  12.803
34419W        W  960  12.847  15.551  11.221
34420W        W  961   5.165  14.187   4.069
34421W        W  962  33.619  12.879  14.455
34422W        W  963  42.563  35.996   2.814
34423W        W  964   7.352  40.722   2.865
34424W        W  965  18.899  19.294   4.553
34425W        W  966  11.354  28.472  14.506
34426W        W  967  44.771  31.884  13.861
34427W        W  968  10.767  42.076   0.862
34428W        W  969  11.636  18.929   3.237
34429W        W  970  18.712  31.566   0.684
34430W        W  971   7.455  24.366  12.450
34431W        W  972  31.559  37.252   0.399
34432W        W  973  25.336  35.562   1.346
34433W        W  974  10.588  28.057   1.653
34434W        W  975  29.120   8.409  10.903
34435W        W  976  35.417  44.517  10.874
34436W        W  977   7.799  18.580   4.399
34437W        W  978  24.265  41.975  11.001
34438W        W  979  42.287  24.042   4.626
34439W        W  980   6.954  12.741  10.740
34440W        W  981  31.073   7.891  13.890
34441W        W  982  22.046  39.499   0.898
34442W        W  983   2.730  39.874  12.617
34443W        W  984  12.045   7.613   3.149
34444W        W  985  44.396  27.926  13.307
34445W        W  986  20.179  30.545   2.473
34446W        W  987  34.501  36.113   1.309
34447W        W  988  10.838  18.816  14.395
34448W        W  989  43.419  43.336   4.463
34449W        W  990  19.723  11.830   3.713
34450W        W  991  17.697  34.552  12.076
34451W        W  992  17.370   6.293   1.731
34452W        W  993  41.491  20.882  10.504
34453W        W  994  12.153  34.657   0.835
34454W        W  995   8.844   9.650   1.837
34455W        W  996  44.267  28.952  14.447
34456W        W  997  41.298  42.723  12.060
34457W        W  998  31.685  17.635  14.824
34458W        W  999  23.758   7.840   2.687
34459W        W 1000   0.415  20.067  13.379
34460W        W 1001  39.356  16.977  11.515
34461W        W 1002  21.998  44.470   0.312
34462W        W 1003  41.047  22.519  11.068
34463W        W 1004  10.799   8.718   2.448
34464W        W 1005  32.829  32.614   3.751
34465W        W 1006  44.148  24.230  12.500
34466W        W 1007  15.864  26.887  14.489
34467W        W 1008  20.604   6.161   5.396
34468W        W 1009   5.199  11.703  12.618
34469W        W 1010  15.312  37.784   3.705
34470W        W 1011  19.622   6.710  11.094
34471W        W 1012  34.105  24.075   4.759
34472W        W 1013   0.088  40.988   1.822
34473W        W 1014  11.334  16.490   1.789
34474W        W 1015  36.423  34.833   4.783
34475W        W 1016  19.736   5.971   0.652
34476W        W 1017  38.872  28.392  13.078
34477W        W 1018  14.658  41.134  12.839
34478W        W 1019   1.061  43.983   2.868
34479W        W 1020   0.188   5.249  13.457
34480W        W 1021  20.077  33.454  11.459
34481W        W 1022   6.947   3.637   0.520
34482W        W 1023  39.799   0.600   2.694
34483W        W 1024  35.278  32.771   2.794
34484W        W 1025  24.801  35.900   4.250
34485W        W 1026  40.548   4.591   1.172
34486W        W 1027  23.984  36.680  11.567
34487W        W 1028  37.834   6.087  12.669
34488W        W 1029   8.210  36.057  13.981
34489W        W 1030  38.544   4.561  14.004
34490W        W 1031  39.245  39.822  12.560
34491W        W 1032   7.584  15.833   1.421
34492W        W 1033  25.215  30.988  14.796
34493W        W 1034   2.376  42.838  13.799
34494W        W 1035  30.838  41.368  11.553
34495W        W 1036  43.924  17.735  14.809
34496W        W 1037  12.786  18.203   1.715
34497W        W 1038   1.807  27.194  14.912
34498W        W 1039  17.648  41.472  10.306
34499W        W 1040  40.498  24.946   3.294
34500W        W 1041  40.938  41.365   2.361
34501W        W 1042  38.101  19.993   2.587
34502W        W 1043  43.445  31.065  11.241
34503W        W 1044  11.572  22.816  11.746
34504W        W 1045  10.788  29.589  12.933
34505W        W 1046  15.943   0.320  13.305
34506W        W 1047  14.762   6.894  12.550
34507W        W 1048   4.321  20.008   1.440
34508W        W 1049  34.627   1.915   0.822
34509W        W 1050   8.818  44.667   2.391
34510W        W 1051  17.131  43.421   1.645
34511W        W 1052  25.789  28.866  11.736
34512W        W 1053  39.227  44.742  12.862
34513W        W 1054   5.937  11.200  11.803
34514W        W 1055  28.598  37.760  11.539
34515W        W 1056  30.289  44.753  14.499
34516W        W 1057  38.328  31.050   0.221
34517W        W 1058  35.698  35.522  10.707
34518W        W 1059  35.996  10.881   2.155
34519W        W 1060  26.501   4.251  13.562
34520W        W 1061  14.645   9.966   0.308
34521W        W 1062  27.739  12.809   2.507
34522W        W 1063  22.735   0.309  14.489
34523W        W 1064   7.460   6.708   1.468
34524W        W 1065  32.142  35.926   3.238
34525W        W 1066  43.731   5.236   0.012
34526W        W 1067  36.363   2.579   3.973
34527W        W 1068  18.048  44.227   1.296
34528W        W 1069   1.812  40.209   4.161
34529W        W 1070  14.947   4.201  12.510
34530W        W 1071  14.349  23.075   0.716
34531W        W 1072  33.519  37.184   3.245
34532W        W 1073  10.502   9.982   9.865
34533W        W 1074  42.311  28.510  12.035
34534W        W 1075   7.430  11.234  14.384
34535W        W 1076   4.989   4.359   0.745
34536W        W 1077  39.025   4.818  14.028
34537W        W 1078  36.307   7.263   0.606
34538W        W 1079  21.722  17.095  13.296
34539W        W 1080   3.337  17.354   1.647
34540W        W 1081  41.997  42.822  12.525
34541W        W 1082  17.006   2.934   4.359
34542W        W 1083  13.000  21.315  12.911
34543W        W 1084  14.196  14.283  12.179
34544W        W 1085  10.903  11.630   2.822
34545W        W 1086  43.785  18.090   4.726
34546W        W 1087  39.833  33.865   1.753
34547W        W 1088  43.962   1.201   1.313
34548W        W 1089  31.574  28.046  14.511
34549W        W 1090  25.426  19.624   0.858
34550W        W 1091  28.509  20.381  12.972
34551W        W 1092  40.489  41.818  12.470
34552W        W 1093  29.630   4.423  14.312
34553W        W 1094  13.084  10.897  11.736
34554W        W 1095  31.967  10.346  12.650
34555W        W 1096  31.136  38.100   2.824
34556W        W 1097  29.141  15.360   1.225
34557W        W 1098   1.379  17.829  11.529
34558W        W 1099  23.262  36.429  12.266
34559W        W 1100  36.178  26.679  10.962
34560W        W 1101  29.509  21.413  13.971
34561W        W 1102  41.797  16.985   2.803
34562W        W 1103   6.939  27.022   4.199
34563W        W 1104  16.072  17.477  10.040
34564W        W 1105  38.223  43.778  14.978
34565W        W 1106  18.051  41.831   2.290
34566W        W 1107  17.063  38.193  10.671
34567W        W 1108  32.999   3.540  12.581
34568W        W 1109  41.005  34.651   0.418
34569W        W 1110   6.258  15.799   1.924
34570W        W 1111  13.559   6.997  11.497
34571W        W 1112  24.555  25.111  11.001
34572W        W 1113   3.426  13.148   4.278
34573W        W 1114  27.185   9.687   2.261
34574W        W 1115   9.352  29.326  10.324
34575W        W 1116  40.011  43.844  13.028
34576W        W 1117  28.459  37.945  11.998
34577W        W 1118  30.861  25.765  14.289
34578W        W 1119  38.078  33.712   0.520
34579W        W 1120  14.861   5.236  11.483
34580W        W 1121  21.825   6.626   0.707
34581W        W 1122  12.433  39.986  12.589
34582W        W 1123   4.925  22.772   3.562
34583W        W 1124  21.587  25.827   1.325
34584W        W 1125  25.303  26.076  13.806
34585W        W 1126   6.727  14.899   1.314
34586W        W 1127   2.390  20.448  11.676
34587W        W 1128   6.798   3.213  12.502
34588W        W 1129  39.348  35.624   0.940
34589W        W 1130  33.877   6.074  10.030
34590W        W 1131  32.935  43.508  13.815
34591W        W 1132  29.159   6.059  14.861
34592W        W 1133  37.975   0.812   2.830
34593W        W 1134  30.350  18.489   3.205
34594W        W 1135  44.417  20.817  10.674
34595W        W 1136   1.448  19.833  13.437
34596W        W 1137  30.228  34.478   2.820
34597W        W 1138   6.214   2.724  12.767
34598W        W 1139  24.169  16.123  14.778
34599W        W 1140  43.166   2.518  13.313
34600W        W 1141  17.277  28.024  11.021
34601W        W 1142  23.709  21.793   2.670
34602W        W 1143  39.412   7.941   1.359
34603W        W 1144  41.891  31.523   3.592
34604W        W 1145   7.845   9.885   2.244
34605W        W 1146  21.826  23.711  12.641
34606W        W 1147  29.961  42.276   4.169
34607W        W 1148  37.015  15.020   0.891
34608W        W 1149  27.812   6.219   3.730
34609W        W 1150  30.822  14.087   0.393
34610W        W 1151  34.829  13.862  10.302
34611W        W 1152   3.541  29.952   1.714
34612W        W 1153  42.963  24.699   3.303
34613W        W 1154  19.376  28.090  14.002
34614W        W 1155  29.677  28.987   4.326
34615W        W 1156   9.340  17.765   0.450
34616W        W 1157  39.628  18.469  13.574
34617W        W 1158   2.444   7.188   3.070
34618W        W 1159  14.510  17.616   4.054
34619W        W 1160  42.361   7.215   4.525
34620W        W 1161  33.516  36.822  11.034
34621W        W 1162   7.209  23.702   1.793
34622W        W 1163  25.037   3.730   3.830
34623W        W 1164  27.391  24.013   2.165
34624W        W 1165  26.018  30.991  14.153
34625W        W 1166   8.759  12.737   1.226
34626W        W 1167  11.794  44.891  12.927
34627W        W 1168  43.394  40.603   2.221
34628W        W 1169  24.391  38.429  11.524
34629W        W 1170  40.449  25.111   2.629
34630W        W 1171   1.826  14.235   2.620
34631W        W 1172  25.750  14.266   2.121
34632W        W 1173  32.627  18.041  11.858
34633W        W 1174  34.251  40.007   2.802
34634W        W 1175  26.123  25.780  10.793
34635W        W 1176   6.756   5.200   3.894
34636W        W 1177  18.593  32.680   3.352
34637W        W 1178   0.680  25.960  12.001
34638W        W 1179  15.346   2.890  10.807
34639W        W 1180   7.152  28.542   4.025
34640W        W 1181  13.158  41.862   3.664
34641W        W 1182  27.457  16.144   4.698
34642W        W 1183  36.982  21.764   1.897
34643W        W 1184  25.481  14.233   4.139
34644W        W 1185   1.848  15.227  10.773
34645W        W 1186  41.284  12.322  13.055
34646W        W 1187  24.602   5.931  12.782
34647W        W 1188  26.470  29.367  12.917
34648W        W 1189  19.412  40.090  12.000
34649W        W 1190  22.993  37.930   2.895
34650W        W 1191  27.641  13.150   3.650
34651W        W 1192  38.028  43.314   3.850
34652W        W 1193   4.654  23.661  12.858
34653W        W 1194  11.074   7.309   0.932
34654W        W 1195  23.559  44.073  14.150
34655W        W 1196  36.398  27.540  14.925
34656W        W 1197  19.561  14.756  13.403
34657W        W 1198  33.957  43.484   2.652
34658W        W 1199  37.644  17.672  14.452
34659W        W 1200   1.398  15.026   3.886
34660W        W 1201  14.751  39.416   3.694
34661W        W 1202  21.982   8.883   2.495
34662W        W 1203  20.538  21.668   3.899
34663W        W 1204  36.616  40.350  11.014
34664W        W 1205   1.949  43.345   3.918
34665W        W 1206  35.829  31.626  14.319
34666W        W 1207  43.881  15.731  10.563
34667W        W 1208  34.358   2.855   1.833
34668W        W 1209  25.137  25.074   0.308
34669W        W 1210   8.841   6.006   4.644
34670W        W 1211  16.112  13.124   0.152
34671W        W 1212   5.394  40.945   3.683
34672W        W 1213   7.362   4.436   3.804
34673W        W 1214  23.044  34.546   3.405
34674W        W 1215  36.475   2.273  14.883
34675W        W 1216  20.785  20.777   2.896
34676W        W 1217  22.039  30.348  13.404
34677W        W 1218  38.936  15.777   3.664
34678W        W 1219  30.859   9.175   4.113
34679W        W 1220  31.835  16.851  13.079
34680W        W 1221  35.501   3.037  14.379
34681W        W 1222  14.653  12.295   0.772
34682W        W 1223  15.916  36.534  11.547
34683W        W 1224   3.690  20.382  14.159
34684W        W 1225   4.607  20.701  13.958
34685W        W 1226  23.482   6.259  11.611
34686W        W 1227  19.830  39.493  14.905
34687W        W 1228  15.292  31.091   1.356
34688W        W 1229  26.911  38.832  12.429
34689W        W 1230   3.277  36.468   1.390
34690W        W 1231  12.741  27.708  13.049
34691W        W 1232  18.857  27.508   1.255
34692W        W 1233  31.063   4.977  10.839
34693W        W 1234   5.475  42.224   3.689
34694W        W 1235  39.713  16.157   4.122
34695W        W 1236  21.292   4.406   3.539
34696W        W 1237   6.741  31.615   2.851
34697W        W 1238   1.498  12.290   4.275
34698W        W 1239   4.080  42.713  10.713
34699W        W 1240   4.446  29.339  13.371
34700W        W 1241  44.428  24.250   4.423
34701W        W 1242   3.294  31.174  14.450
34702W        W 1243   1.522  44.781   0.275
34703W        W 1244  24.699   3.167   0.956
34704W        W 1245   5.389  43.412   4.491
34705W        W 1246   2.708   0.409   0.444
34706W        W 1247  33.840  19.568   3.616
34707W        W 1248  18.296  38.358  11.654
34708W        W 1249  20.794  14.144  14.566
34709W        W 1250  44.732  13.300  11.122
34710W        W 1251  23.795  19.116  13.978
34711W        W 1252  17.267  42.820   9.743
34712W        W 1253  14.541  31.129  12.023
34713W        W 1254  30.640  23.582   4.615
34714W        W 1255  42.360  23.325  12.445
34715W        W 1256  18.536  12.290  10.561
34716W        W 1257  26.074  21.949  12.080
34717W        W 1258  28.435  19.236  13.552
34718W        W 1259  38.811   9.025   1.906
34719W        W 1260  36.845  43.874  12.004
34720W        W 1261   5.704  17.834   4.456
34721W        W 1262   1.869  13.290   1.661
34722W        W 1263  32.974  23.225   4.866
34723W        W 1264  29.361   2.921  11.671
34724W        W 1265  31.708  20.133   3.093
34725W        W 1266  43.484  23.544   2.880
34726W        W 1267  15.518  38.077  13.233
34727W        W 1268  24.043  29.140   1.741
34728W        W 1269  25.466  28.012  14.974
34729W        W 1270   2.354  43.437   3.620
34730W        W 1271  26.044  44.687   3.579
34731W        W 1272   7.740  36.789   2.516
34732W        W 1273  12.127  10.214  11.175
34733W        W 1274  11.274  42.001  14.551
34734W        W 1275  28.010  41.366   4.555
34735W        W 1276  36.523   4.206   0.665
34736W        W 1277  30.206  28.477  14.545
34737W        W 1278  26.104  29.367   1.314
34738W        W 1279  34.986   1.080   2.756
34739W        W 1280   6.858  32.608  11.472
34740W        W 1281  39.450   0.524   1.382
34741W        W 1282  18.297  32.985   4.485
34742W        W 1283  29.094  43.348   2.866
34743W        W 1284   1.534  34.791   3.236
34744W        W 1285   8.157  12.287  10.662
34745W        W 1286  21.583  12.180   2.172
34746W        W 1287  29.003  18.571   4.345
34747W        W 1288  44.743   6.285  13.016
34748W        W 1289  21.703  27.008   3.091
34749W        W 1290  35.439  25.060  12.704
34750W        W 1291   3.015  18.228   3.185
34751W        W 1292   2.285  38.396   1.135
34752W        W 1293  44.452  36.359   4.256
34753W        W 1294  23.958  30.160  14.121
34754W        W 1295  40.591  17.201   1.398
34755W        W 1296  21.972  23.950   0.884
34756W        W 1297  11.204  36.319   3.746
34757W        W 1298   3.793  13.313   4.645
34758W        W 1299   5.432  43.894   2.876
34759W        W 1300  36.641  30.048  13.903
34760W        W 1301  14.825  30.650   3.588
34761W        W 1302  16.074  26.326   2.721
34762W        W 1303  10.936  19.108   0.573
34763W        W 1304   6.236  29.445  11.590
34764W        W 1305  25.557   5.372   2.307
34765W        W 1306  34.452  19.546  12.524
34766W        W 1307   9.791  33.134   0.695
34767W        W 1308  11.672   8.608   0.492
34768W        W 1309   8.731  41.863   4.713
34769W        W 1310  40.818  35.476  11.704
34770W        W 1311  37.598  20.407   4.168
34771W        W 1312  15.501  28.433  13.963
34772W        W 1313  29.024  37.867   1.153
34773W        W 1314  31.162  12.978   4.087
34774W        W 1315  27.581  19.022  11.661
34775W        W 1316  41.787  32.100  14.444
34776W        W 1317  40.944  40.472  13.822
34777W        W 1318  28.956  24.007   1.392
34778W        W 1319  37.485  18.671  14.708
34779W        W 1320  39.474  23.817   3.220
34780W        W 1321  23.510   3.703   3.164
34781W        W 1322  35.882  37.987   2.200
34782W        W 1323  41.528  21.089  12.448
34783W        W 1324  31.594  28.913   4.139
34784W        W 1325  32.071  40.003  12.533
34785W        W 1326  24.021  19.635  14.210
34786W        W 1327  35.006  14.389  14.361
34787W        W 1328  12.827  38.847  10.515
34788W        W 1329  40.734  44.678   4.352
34789W        W 1330  38.416  14.157   1.894
34790W        W 1331  19.093   5.823  13.053
34791W        W 1332  10.823   9.967   2.402
34792W        W 1333   8.313  12.095  11.099
34793W        W 1334  23.601  28.185   2.874
34794W        W 1335   3.319  27.690   1.145
34795W        W 1336   7.854  26.051   9.905
34796W        W 1337  37.012   0.215  11.673
34797W        W 1338  23.106   2.728   1.905
34798W        W 1339   8.629  14.343   3.080
34799W        W 1340   8.359  33.672  12.964
34800W        W 1341   8.362  31.211   0.338
34801W        W 1342   3.392  17.535   2.352
34802W        W 1343   9.604  44.465  14.964
34803W        W 1344  30.496  34.592  14.304
34804W        W 1345  10.396  22.603   1.319
34805W        W 1346  28.404   2.986  14.842
34806W        W 1347  16.871  34.062  13.160
34807W        W 1348  42.574   9.723  11.180
34808W        W 1349  42.373  33.313  11.710
34809W        W 1350  37.029  37.482   0.935
34810W        W 1351   4.453   1.384   3.539
34811W        W 1352  19.042  30.432  13.352
34812W        W 1353  25.095  26.740   2.305
34813W        W 1354   4.143  25.323   4.114
34814W        W 1355  32.945  31.921   1.840
34815W        W 1356  40.831  35.542   4.744
34816W        W 1357  18.984  15.900  11.968
34817W        W 1358   9.873   9.847  12.621
34818W        W 1359  32.002  22.308   0.498
34819W        W 1360  12.917  20.051  12.439
34820W        W 1361  44.139  18.655   4.354
34821W        W 1362  23.112  40.108  13.395
34822W        W 1363  39.885  16.805   0.960
34823W        W 1364   0.244  37.556  13.284
34824W        W 1365  11.700  26.687   2.275
34825W        W 1366  20.669  38.384   1.898
34826W        W 1367   1.323   5.732  12.682
34827W        W 1368  39.427  23.998   0.550
34828W        W 1369  32.234   5.056   4.149
34829W        W 1370  13.293  43.182  10.467
34830W        W 1371  13.116  26.751  13.082
34831W        W 1372  37.897   2.813   2.917
34832W        W 1373  32.092  20.980   2.289
34833W        W 1374  43.150  13.830   2.907
34834W        W 1375  20.083   9.678  12.025
34835W        W 1376  32.934  29.506   0.543
34836W        W 1377  17.740   5.684  12.963
34837W        W 1378  11.116   4.536   2.926
34838W        W 1379   0.615  23.317  12.901
34839W        W 1380  10.715  26.429   1.766
34840W        W 1381  34.011  35.990   1.164
34841W        W 1382  26.997   4.207  13.700
34842W        W 1383  28.886  12.985  12.444
34843W        W 1384  35.042  37.473   4.708
34844W        W 1385  23.215  10.283   1.460
34845W        W 1386  23.147   4.116   2.351
34846W        W 1387  20.070  26.198   1.862
34847W        W 1388  15.958   7.475   0.159
34848W        W 1389  24.204  17.766  11.657
34849W        W 1390  27.520   8.901   1.667
34850W        W 1391  20.648  36.077   0.361
34851W        W 1392  39.905   9.746   3.134
34852W        W 1393   2.971  40.608   1.479
34853W        W 1394   4.445  20.586   3.396
34854W        W 1395  18.143  15.645   0.924
34855W        W 1396   5.557  43.945  12.523
34856W        W 1397  38.843  12.621   0.804
34857W        W 1398   9.192  31.101  13.912
34858W        W 1399  29.595  27.084  11.435
34859W        W 1400  38.976   5.613  13.489
34860W        W 1401  23.424   2.939  10.437
34861W        W 1402  34.427  34.177  14.013
34862W        W 1403  26.554  26.967   0.727
34863W        W 1404  10.280  27.411  13.018
34864W        W 1405  32.951  38.309   0.474
34865W        W 1406  33.327  22.612  14.845
34866W        W 1407   7.870  43.197  14.938
34867W        W 1408  40.056  27.391   4.204
34868W        W 1409  14.543  29.710   3.844
34869W        W 1410  36.801  16.769   1.602
34870W        W 1411  36.533   2.442  12.515
34871W        W 1412  24.522  19.527   4.111
34872W        W 1413  42.451  39.591  12.993
34873W        W 1414  19.776  40.503   0.902
34874W        W 1415  25.988  14.823  14.775
34875W        W 1416  17.635  19.678   0.707
34876W        W 1417   7.223   7.703  13.082
34877W        W 1418  14.876  27.122  11.849
34878W        W 1419  14.871  41.554  13.051
34879W        W 1420   4.695  14.851   0.471
34880W        W 1421  42.820  27.709   3.193
34881W        W 1422  23.249   0.971   3.564
34882W        W 1423  17.866  41.005   3.511
34883W        W 1424  13.347  10.104  11.536
34884W        W 1425  44.010  34.863   2.315
34885W        W 1426  20.079  40.411  12.863
34886W        W 1427  39.018  37.125   1.472
34887W        W 1428  35.874   1.720  14.453
34888W        W 1429  42.926  42.806  10.750
34889W        W 1430  27.607  11.873  11.869
34890W        W 1431  39.453  32.652  12.897
34891W        W 1432   6.800  41.402   1.006
34892W        W 1433  34.773  29.616   1.194
34893W        W 1434   6.388  19.242  13.289
34894W        W 1435  31.922  38.931  11.664
34895W        W 1436  17.894  44.007  12.007
34896W        W 1437  19.171  23.156  11.605
34897W        W 1438  25.203  40.381   4.476
34898W        W 1439   8.846  33.866  14.051
34899W        W 1440  35.535  20.268  14.073
34900W        W 1441  21.610   8.255  14.403
34901W        W 1442   6.688   3.502  13.017
34902W        W 1443   3.149  29.663  14.762
34903W        W 1444  23.783  22.038   3.622
34904W        W 1445  43.909  40.491  11.611
34905W        W 1446   0.573   1.090  14.547
34906W        W 1447  44.252  21.695   4.088
34907W        W 1448  38.805   7.862   0.777
34908W        W 1449   0.332  29.844   1.867
34909W        W 1450  28.210  27.432  11.196
34910W        W 1451  22.440  11.568   1.265
34911W        W 1452  44.593  11.627  12.022
34912W        W 1453   5.809  28.968   0.333
34913W        W 1454   8.512   7.811   4.510
34914W        W 1455  16.338  30.151   2.361
34915W        W 1456  19.800   5.285  13.001
34916W        W 1457  31.412  34.467   2.396
34917W        W 1458  34.318  17.355   2.518
34918W        W 1459  24.972  21.566  11.470
34919W        W 1460  29.382  30.402  12.927
34920W        W 1461  39.594  13.968  12.145
34921W        W 1462  22.595  29.528   0.434
34922W        W 1463  31.401  42.841   0.497
34923W        W 1464  38.287  12.473  13.284
34924W        W 1465   3.450  37.310   4.488
34925W        W 1466  23.171  22.739   2.291
34926W        W 1467  32.821  10.048   2.767
34927W        W 1468  24.285  35.760  12.699
34928W        W 1469  15.376   7.448  11.902
34929W        W 1470   8.421   7.797   3.599
34930W        W 1471  23.991   7.683  14.230
34931W        W 1472  34.366  37.420   0.791
34932W        W 1473  24.255   5.168   0.301
34933W        W 1474  33.604   6.258   1.797
34934W        W 1475   1.478  32.872   4.263
34935W        W 1476   0.433  17.058  12.834
34936W        W 1477   1.767   7.399  12.867
34937W        W 1478  27.182  38.925  13.417
34938W        W 1479  36.100  24.530   0.259
34939W        W 1480  23.629   6.688   0.222
34940W        W 1481  16.701  37.373   0.447
34941W        W 1482   0.941  14.788  12.675
34942W        W 1483   3.339  11.629   4.303
34943W        W 1484   8.464   3.147  14.688
34944W        W 1485  23.720  22.490  13.021
34945W        W 1486  12.165  27.421   2.416
34946W        W 1487  13.028  30.759   5.506
34947W        W 1488  32.589  31.064   3.106
34948W        W 1489  15.761  24.706  12.089
34949W        W 1490  37.486  29.711   2.584
34950W        W 1491  22.092  29.278   0.314
34951W        W 1492   3.321  43.834  14.951
34952W        W 1493  23.447  33.489  13.503
34953W        W 1494  41.496  18.288   2.784
34954W        W 1495  11.786  36.564  14.235
34955W        W 1496   9.177  24.673   2.006
34956W        W 1497  18.259  36.782   3.616
34957W        W 1498   2.175  23.779  13.097
34958W        W 1499  32.558  34.051   0.386
34959W        W 1500  10.356  14.123   0.067
34960W        W 1501  26.166  33.799   2.648
34961W        W 1502  24.488   3.450   4.476
34962W        W 1503  28.470   2.893  10.693
34963W        W 1504   4.912  40.849  12.056
34964W        W 1505  19.450  33.643  14.921
34965W        W 1506  43.017  11.775  11.971
34966W        W 1507  43.278  35.202  12.095
34967W        W 1508   2.911  26.990   1.837
34968W        W 1509   3.582   2.232   3.217
34969W        W 1510   2.968   4.465   3.728
34970W        W 1511  42.313   3.793   3.922
34971W        W 1512  38.338  44.506  10.632
34972W        W 1513  10.151  15.183  11.204
34973W        W 1514  44.825  12.080  12.006
34974W        W 1515   3.473  29.894  11.166
34975W        W 1516  26.833  10.794   3.614
34976W        W 1517  37.012  42.985  11.994
34977W        W 1518  43.055  21.032   1.885
34978W        W 1519  15.131  23.004   3.292
34979W        W 1520   1.404  16.919  11.974
34980W        W 1521   6.441  14.246   3.584
34981W        W 1522  14.241  28.912  11.166
34982W        W 1523  42.977  40.909   0.378
34983W        W 1524  11.865   2.930   3.899
34984W        W 1525  26.344  37.955   0.651
34985W        W 1526  12.147  41.337   4.773
34986W        W 1527  44.164   5.356  13.307
34987W        W 1528   5.264  28.230   3.700
34988W        W 1529  41.484  19.274   0.246
34989W        W 1530   1.518  31.620  13.601
34990W        W 1531  22.838  42.414  14.859
34991W        W 1532   8.112  34.926  11.458
34992W        W 1533  14.377  27.550   4.851
34993W        W 1534  19.293  17.721   1.709
34994W        W 1535  24.058  26.574   0.718
34995W        W 1536   1.138   1.929  13.983
34996W        W 1537  19.099  14.317   1.153
34997W        W 1538  23.427  34.527   2.678
34998W        W 1539  13.572  39.316   3.914
34999W        W 1540  41.991  16.444  12.011
35000W        W 1541  42.631  32.210   1.781
35001W        W 1542   8.327  37.060   4.565
35002W        W 1543  29.547   9.885   1.881
35003W        W 1544  23.998   2.285  14.584
35004W        W 1545  26.686  35.090   0.763
35005W        W 1546  29.973  32.127  13.936
35006W        W 1547   8.276   5.010  14.800
35007W        W 1548   8.810  29.237  10.654
35008W        W 1549  34.962   7.776  13.533
35009W        W 1550  14.072  41.086   2.415
35010W        W 1551  41.141   8.829   4.261
35011W        W 1552  26.956  41.341   2.972
35012W        W 1553  16.076  14.342  10.613
35013W        W 1554  43.457   2.847  12.436
35014W        W 1555   3.723  20.658   1.746
35015W        W 1556  42.176  33.077   2.847
35016W        W 1557  31.456  27.769  11.663
35017W        W 1558  32.081  16.880  12.202
35018W        W 1559  32.149  43.242  11.649
35019W        W 1560  25.200  29.927   3.203
35020W        W 1561  25.658  29.493  12.560
35021W        W 1562  28.805  18.920   0.752
35022W        W 1563  36.513  26.580   1.575
35023W        W 1564  21.475  13.002   3.090
35024W        W 1565  43.066  32.942  11.032
35025W        W 1566  41.303  15.760   3.894
35026W        W 1567  41.927  21.318   2.218
35027W        W 1568  29.003  43.470  11.588
35028W        W 1569  13.751  14.255   3.350
35029W        W 1570   3.997   8.490  14.576
35030W        W 1571  18.629  42.279  10.550
35031W        W 1572  18.025  14.067  11.640
35032W        W 1573  24.512  14.070   4.156
35033W        W 1574  43.728  10.287   2.645
35034W        W 1575  26.204  14.534  12.364
35035W        W 1576  30.694  28.073   0.006
35036W        W 1577  24.484  13.814  11.841
35037W        W 1578  20.457  30.202  13.662
35038W        W 1579  44.531  34.079  14.828
35039W        W 1580   8.621   4.777  11.997
35040W        W 1581  36.351   3.399   2.817
35041W        W 1582  12.861  44.956   3.389
35042W        W 1583   3.312  36.003  10.856
35043W        W 1584  39.561  38.931  12.638
35044W        W 1585  23.188  15.826  13.455
35045W        W 1586  26.520  31.179  14.283
35046W        W 1587   1.426  40.537  10.548
35047W        W 1588  20.170  41.227  12.565
35048W        W 1589  12.171  14.663   0.738
35049W        W 1590  11.557  37.453  11.137
35050W        W 1591  37.156  42.955   4.284
35051W        W 1592   7.333  19.726   2.340
35052W        W 1593  26.643  36.583  14.716
35053W        W 1594  32.534  30.575   1.227
35054W        W 1595  22.716  24.946  14.931
35055W        W 1596  33.501  13.865   3.765
35056W        W 1597   9.687  23.177  14.760
35057W        W 1598   6.800  28.928   4.542
35058W        W 1599  11.785  29.487  12.485
35059W        W 1600  10.696  32.087  13.135
35060W        W 1601  38.736  28.801  12.104
35061W        W 1602  26.856  10.848   1.713
35062W        W 1603   4.117  43.799   5.529
35063W        W 1604  44.806   9.206  13.145
35064W        W 1605   5.923  24.216  14.477
35065W        W 1606  32.594  12.050  11.549
35066W        W 1607  15.539  32.558   5.329
35067W        W 1608  11.747   8.127  14.160
35068W        W 1609  13.141  23.811  13.870
35069W        W 1610   7.765   1.907  13.807
35070W        W 1611   1.083   8.336   0.327
35071W        W 1612  29.744   3.762   0.447
35072W        W 1613   0.234  15.622   2.179
35073W        W 1614  26.755   3.817  13.425
35074W        W 1615  31.625  14.605  13.458
35075W        W 1616   6.826  34.175   0.009
35076W        W 1617  11.358   9.542   0.246
35077W        W 1618   3.678  10.667  12.888
35078W        W 1619  19.206  20.307   2.896
35079W        W 1620  15.306   6.293   3.703
35080W        W 1621   5.087  27.734   2.365
35081W        W 1622  17.164  18.970  11.650
35082W        W 1623  20.021  20.404  13.579
35083W        W 1624  33.983  22.601  13.108
35084W        W 1625   6.900  24.211   5.099
35085W        W 1626  10.190  21.741  12.959
35086W        W 1627   1.278  13.242   2.859
35087W        W 1628   2.800  36.872   2.367
35088W        W 1629   8.206  24.508   0.933
35089W        W 1630  41.372  11.077  11.496
35090W        W 1631  27.715   6.340   3.230
35091W        W 1632  24.287  36.546   0.864
35092W        W 1633  38.373  33.042   2.165
35093W        W 1634   0.632   9.688  12.503
35094W        W 1635   8.372  43.516  13.825
35095W        W 1636  26.224  35.335  13.881
35096W        W 1637  37.829  31.856   2.655
35097W        W 1638  23.815  35.878   1.374
35098W        W 1639  14.019   1.127  12.700
35099W        W 1640  15.597  30.949  11.091
35100W        W 1641  15.842  24.805  11.576
35101W        W 1642  26.722  13.559  11.344
35102W        W 1643  16.608  13.041   4.916
35103W        W 1644  34.363   5.396   0.454
35104W        W 1645  11.074  44.695  12.412
35105W        W 1646  21.116  44.756   3.098
35106W        W 1647  40.460  41.778  14.354
35107W        W 1648   0.466  20.480   1.709
35108W        W 1649   5.513   4.911   3.628
35109W        W 1650  17.248  18.741  13.425
35110W        W 1651  23.043  38.896  14.890
35111W        W 1652  12.808   3.705  14.736
35112W        W 1653   4.267   9.631   0.192
35113W        W 1654  31.919  33.634   2.309
35114W        W 1655  36.952  41.921  13.942
35115W        W 1656  19.491  10.615  12.023
35116W        W 1657  20.733  39.832  12.759
35117W        W 1658   6.477  23.428  13.343
35118W        W 1659  30.914  11.798  13.398
35119W        W 1660  22.168  29.724  10.499
35120W        W 1661  25.064  22.824  12.194
35121W        W 1662  21.853  34.880   3.507
35122W        W 1663   4.254  19.741  14.379
35123W        W 1664  36.750  38.927   3.567
35124W        W 1665  19.944   6.408   5.405
35125W        W 1666  16.245  33.437   4.170
35126W        W 1667   2.261   9.417  14.452
35127W        W 1668  22.101  17.084   1.941
35128W        W 1669   1.208  23.977  11.041
35129W        W 1670  35.439   5.189  13.909
35130W        W 1671  13.598   0.904   2.065
35131W        W 1672   0.387  42.034  12.877
35132W        W 1673  41.279  30.460  11.669
35133W        W 1674  24.821  39.167  11.179
35134W        W 1675  26.190  41.321   2.242
35135W        W 1676  32.981  34.592  13.730
35136W        W 1677  31.894   9.262   4.226
35137W        W 1678  34.010  33.671   3.162
35138W        W 1679  41.960  33.525  13.027
35139W        W 1680  29.422  22.739  11.347
35140W        W 1681  14.300   5.025   4.917
35141W        W 1682  38.409  29.511   1.454
35142W        W 1683  29.224  44.841   1.811
35143W        W 1684  23.282  30.916   4.128
35144W        W 1685  23.928  38.300   3.799
35145W        W 1686  42.659  19.911   4.609
35146W        W 1687  32.926  21.730   2.839
35147W        W 1688  41.924  43.499   4.091
35148W        W 1689  16.716  19.870   3.201
35149W        W 1690   0.857   7.376  11.601
35150W        W 1691  42.495  44.060   1.408
35151W        W 1692  29.182  33.949   1.491
35152W        W 1693  24.874   6.312   4.991
35153W        W 1694  32.458  24.222   4.512
35154W        W 1695   5.913  35.364   1.918
35155W        W 1696  29.955  17.379  12.765
35156W        W 1697   3.853  18.494   3.713
35157W        W 1698  21.672  21.158   0.664
35158W        W 1699  16.213  40.051  13.451
35159W        W 1700  31.694  44.423   0.867
35160W        W 1701  15.176   5.984  11.807
35161W        W 1702   7.174   7.676  14.612
35162W        W 1703   1.491  40.529  12.522
35163W        W 1704  10.224   2.765   5.079
35164W        W 1705  39.812   3.814   2.925
35165W        W 1706  38.153  19.783  12.372
35166W        W 1707  16.929  21.925   0.309
35167W        W 1708  11.724  13.167  10.796
35168W        W 1709  41.029  11.553   2.723
35169W        W 1710  32.976   3.327   2.784
35170W        W 1711  31.472   9.452  10.324
35171W        W 1712  39.542  22.901   2.875
35172W        W 1713  11.364  22.376   3.246
35173W        W 1714   0.972  10.743   1.433
35174W        W 1715   2.486  21.525  13.951
35175W        W 1716  24.231   1.290  13.435
35176W        W 1717  15.613  28.181  13.497
35177W        W 1718  11.310  25.629   3.212
35178W        W 1719  11.177  33.857  13.426
35179W        W 1720  43.365  23.774  11.855
35180W        W 1721  11.845  22.024  12.827
35181W        W 1722   7.408  14.800  12.935
35182W        W 1723  41.090   7.271   2.358
35183W        W 1724  17.618   9.926  11.875
35184W        W 1725   4.294  36.884  12.961
35185W        W 1726  42.182  20.077  13.012
35186W        W 1727  25.952  20.778   3.378
35187W        W 1728  23.233  37.919  12.961
35188W        W 1729   7.224  34.071  10.779
35189W        W 1730  29.574  35.922  12.742
35190W        W 1731  39.908   9.086   1.426
35191W        W 1732  39.056   0.509  11.169
35192W        W 1733   0.299  33.317  11.992
35193W        W 1734  42.978   5.902  11.477
35194W        W 1735  27.492  38.962  10.297
35195W        W 1736   1.040   4.234  11.913
35196W        W 1737   5.460   5.720  12.386
35197W        W 1738  25.044  17.845  14.833
35198W        W 1739  27.579  27.484  12.047
35199W        W 1740  26.426   4.492  12.469
35200W        W 1741  23.636  40.612   2.719
35201W        W 1742  26.483  17.582   0.465
35202W        W 1743   9.143  21.300   2.412
35203W        W 1744  31.701  16.612  14.766
35204W        W 1745  18.176  10.559   4.817
35205W        W 1746  38.476  43.415   4.149
35206W        W 1747   8.625  19.162   0.933
35207W        W 1748  10.838   4.962   2.741
35208W        W 1749   5.391  31.611   3.225
35209W        W 1750  13.266  10.969  13.069
35210W        W 1751   1.820  19.568  14.778
35211W        W 1752  42.778  43.189  13.292
35212W        W 1753  36.540  39.231  14.322
35213W        W 1754   5.928  34.254   1.072
35214W        W 1755  10.564   0.678  11.030
35215W        W 1756  31.524  17.771   2.309
35216W        W 1757  20.700   3.790   2.815
35217W        W 1758  31.672  18.604   1.269
35218W        W 1759  34.919  13.311   3.167
35219W        W 1760  36.911  25.039   0.735
35220W        W 1761  29.650  28.114   1.230
35221W        W 1762  10.136  12.761   2.436
35222W        W 1763  10.373   0.819   1.387
35223W        W 1764   0.508  41.122  11.655
35224W        W 1765  34.656  20.548   3.653
35225W        W 1766  28.654  20.251   0.810
35226W        W 1767  39.750   3.775   4.381
35227W        W 1768   4.090   8.852   2.469
35228W        W 1769   2.928  44.898  13.302
35229W        W 1770  11.194  27.420  14.842
35230W        W 1771  10.355  14.340  12.428
35231W        W 1772  39.887  31.508  13.163
35232W        W 1773   7.453  23.970  14.462
35233W        W 1774  42.454  42.598   0.490
35234W        W 1775  33.160  36.180  12.432
35235W        W 1776  37.529   2.018  10.825
35236W        W 1777   6.564   7.049   1.161
35237W        W 1778   1.749  36.082   0.641
35238W        W 1779  18.652  19.735   4.443
35239W        W 1780   2.873   4.539   0.728
35240W        W 1781  16.890  17.886  11.690
35241W        W 1782  10.959  14.842   2.434
35242W        W 1783   8.234  10.539   4.697
35243W        W 1784  43.875  27.973  13.457
35244W        W 1785  37.521  30.561  11.004
35245W        W 1786   3.731  20.569  10.662
35246W        W 1787  38.108  29.148  13.058
35247W        W 1788  29.798  14.549   0.936
35248W        W 1789  30.670  24.297   4.223
35249W        W 1790  24.496  42.875  14.344
35250W        W 1791  44.725  24.724   2.949
35251W        W 1792  21.993  10.639   4.162
35252W        W 1793  36.449   7.772   3.708
35253W        W 1794  28.198   7.698   1.856
35254W        W 1795   6.818   8.365   4.839
35255W        W 1796  10.422  26.719   1.320
35256W        W 1797  22.264  27.985  12.133
35257W        W 1798   4.981  21.542  11.362
35258W        W 1799  15.716  33.022  13.022
35259W        W 1800   7.714  40.524  13.810
35260W        W 1801  31.055  32.865   3.785
35261W        W 1802   9.223  12.743  13.981
35262W        W 1803  31.520  43.343   5.227
35263W        W 1804  21.999   5.687   2.574
35264W        W 1805  19.307  38.358  13.667
35265W        W 1806  16.791  31.193  14.391
35266W        W 1807  44.027  12.565   1.507
35267W        W 1808  17.944   3.426  10.865
35268W        W 1809  41.288  27.905   2.368
35269W        W 1810  29.550  27.146  13.029
35270W        W 1811   1.536  32.076   0.360
35271W        W 1812   4.356  29.179   3.287
35272W        W 1813  41.047   8.316  11.926
35273W        W 1814  33.661  20.793  13.041
35274W        W 1815  21.633   3.825   1.986
35275W        W 1816  17.247  44.285   2.098
35276W        W 1817  24.126  22.131  11.440
35277W        W 1818   9.627   6.937  11.555
35278W        W 1819  27.928  40.579  14.936
35279W        W 1820  28.190  23.709  11.921
35280W        W 1821  27.558  26.719  11.475
35281W        W 1822  12.419  31.411   4.118
35282W        W 1823  13.456  29.951  14.106
35283W        W 1824  36.409  24.878  13.598
35284W        W 1825  25.933  20.559  12.228
35285W        W 1826  42.831   6.129   3.719
35286W        W 1827  31.115   1.260   4.133
35287W        W 1828  12.334  32.588   4.933
35288W        W 1829  28.210   8.715  11.328
35289W        W 1830  29.891  44.418  14.815
35290W        W 1831  20.431   9.370  10.701
35291W        W 1832  23.657   1.472  14.382
35292W        W 1833  32.078  13.651  14.774
35293W        W 1834  38.229  36.147  13.440
35294W        W 1835   3.696  30.491   5.085
35295W        W 1836   7.201  21.188   3.970
35296W        W 1837   1.275   6.420   0.320
35297W        W 1838  39.532  12.073   2.386
35298W        W 1839  11.208  11.145   4.223
35299W        W 1840  17.233  34.730  10.353
35300W        W 1841  35.843  39.915  14.696
35301W        W 1842  13.691  41.239  12.424
35302W        W 1843  21.753  41.513   0.228
35303W        W 1844  36.079  17.380  13.938
35304W        W 1845  13.707  44.248  14.785
35305W        W 1846  19.641  13.869   0.335
35306W        W 1847  30.890  24.530   0.776
35307W        W 1848  18.210  34.820   0.725
35308W        W 1849  35.439   8.821   1.327
35309W        W 1850  25.799  44.300   2.500
35310W        W 1851  22.545  20.708  10.975
35311W        W 1852   6.628   5.004   4.780
35312W        W 1853  16.142   1.681   1.569
35313W        W 1854  39.593   8.450  13.467
35314W        W 1855  21.145  27.216  13.564
35315W        W 1856   7.827   3.777  10.681
35316W        W 1857  24.502  17.770  11.238
35317W        W 1858  17.265  36.857   2.659
35318W        W 1859  39.816   5.093   4.129
35319W        W 1860   4.868  33.978  10.269
35320W        W 1861  34.483  15.071  13.115
35321W        W 1862  16.869  29.024  11.104
35322W        W 1863   1.961  28.969  13.501
35323W        W 1864  14.682  36.030  10.878
35324W        W 1865  37.962  33.078  10.669
35325W        W 1866  17.224  11.011   3.498
35326W        W 1867   7.890   5.382   0.876
35327W        W 1868   9.551  33.519   2.099
35328W        W 1869   7.106  34.858   3.599
35329W        W 1870  29.080  24.735   0.939
35330W        W 1871  17.991  40.493   3.408
35331W        W 1872  15.388  42.269  11.529
35332W        W 1873  38.500  30.435  11.956
35333W        W 1874  28.193   1.742   2.527
35334W        W 1875  42.594  11.141  13.951
35335W        W 1876  43.073  33.423  11.189
35336W        W 1877  21.456  27.912   4.083
35337W        W 1878   4.580   9.365   4.123
35338W        W 1879  12.658  20.088  14.410
35339W        W 1880  14.594  25.663  11.592
35340W        W 1881   4.593  43.776   4.630
35341W        W 1882  12.605  16.113  11.988
35342W        W 1883  36.030  15.083   4.565
35343W        W 1884  26.258  29.203   0.089
35344W        W 1885  29.071   2.966   1.758
35345W        W 1886  19.106  30.698  11.958
35346W        W 1887  25.186  32.364   3.297
35347W        W 1888  27.022  29.674   1.871
35348W        W 1889  28.446  29.551  10.462
35349W        W 1890   9.301  24.892  13.155
35350W        W 1891  22.881  34.142  12.531
35351W        W 1892  31.958   4.705  13.965
35352W        W 1893  43.827  43.742  13.047
35353W        W 1894   3.826  18.136   2.241
35354W        W 1895  25.417  44.942  14.729
35355W        W 1896  20.620  40.352  12.904
35356W        W 1897   1.433  38.811   2.451
35357W        W 1898  39.267  28.565  14.576
35358W        W 1899   2.391  33.354   2.784
35359W        W 1900  42.848  11.393  10.810
35360W        W 1901   4.407  37.293   2.954
35361W        W 1902   2.450   4.426   2.811
35362W        W 1903   1.326  36.746  11.461
35363W        W 1904   8.260  23.399   4.969
35364W        W 1905  14.584   2.879   0.786
35365W        W 1906  22.508  38.548   3.818
35366W        W 1907  44.047   8.565  11.547
35367W        W 1908  37.815   9.299  13.001
35368W        W 1909  15.834   3.963  13.593
35369W        W 1910  40.835  31.919  12.895
35370W        W 1911  21.524  32.718  12.087
35371W        W 1912  39.345  17.365   4.431
35372W        W 1913   2.656  38.955  13.550
35373W        W 1914   2.122  34.947   0.952
35374W        W 1915   2.068  41.317  10.666
35375W        W 1916   4.851  19.575   0.401
35376W        W 1917  32.397  26.573  13.962
35377W        W 1918   3.478  17.684  10.728
35378W        W 1919  11.864  14.163   3.231
35379W        W 1920  29.122  21.790   2.766
35380W        W 1921   6.757   6.421  12.939
35381W        W 1922  22.756   2.466  13.464
35382W        W 1923  14.700  22.367  13.052
35383W        W 1924   0.964  21.048   2.698
35384W        W 1925  12.068  17.411  12.167
35385W        W 1926   5.328   9.114   2.702
35386W        W 1927  35.061  27.282  12.325
35387W        W 1928  34.159  38.401   3.367
35388W        W 1929  31.044  26.935   0.407
35389W        W 1930  38.896  43.256   0.608
35390W        W 1931  38.918  39.437  10.725
35391W        W 1932  12.508  31.383   0.173
35392W        W 1933  16.169  28.092   0.763
35393W        W 1934   0.890  36.992  11.427
35394W        W 1935  42.492   8.420   3.427
35395W        W 1936  41.317  36.822  12.694
35396W        W 1937  18.380  33.468   4.254
35397W        W 1938   6.145  21.111  14.138
35398W        W 1939  14.602  29.855  12.494
35399W        W 1940   0.391  25.302  13.042
35400W        W 1941  13.436  21.499  13.814
35401W        W 1942  40.014  11.659  13.691
35402W        W 1943  25.726  19.658  11.214
35403W        W 1944  10.995   1.226   4.718
35404W        W 1945  34.547  40.424  11.655
35405W        W 1946  28.008  23.026   5.161
35406W        W 1947  31.254  13.215  13.450
35407W        W 1948  12.164   4.249   2.383
35408W        W 1949   6.711   0.370  14.345
35409W        W 1950   5.657  36.461   2.160
35410W        W 1951  29.867  41.314  10.179
35411W        W 1952  41.892  43.333   4.596
35412W        W 1953  38.639  17.432   5.015
35413W        W 1954  29.995  32.946   3.851
35414W        W 1955  17.434  24.951  10.409
35415W        W 1956  26.225  28.530   3.134
35416W        W 1957  29.095   7.417  10.957
35417W        W 1958  36.750  28.615  12.496
35418W        W 1959  43.289  11.619  10.663
35419W        W 1960  31.097  20.792   3.629
35420W        W 1961  24.991  31.124  11.106
35421W        W 1962   0.512  22.022  11.016
35422W        W 1963  34.602  43.529   0.498
35423W        W 1964   1.695  32.597   0.393
35424W        W 1965   0.427  39.004   4.011
35425W        W 1966   7.141  23.158   3.126
35426W        W 1967  14.068   8.548  13.336
35427W        W 1968  19.139  31.730   3.930
35428W        W 1969  29.918  16.699   0.982
35429W        W 1970  26.748  37.992  13.306
35430W        W 1971  25.502   9.251   1.789
35431W        W 1972   4.611  20.357  12.120
35432W        W 1973  15.514   9.378   3.707
35433W        W 1974   2.512  16.347   3.781
35434W        W 1975  39.403  15.264  13.219
35435W        W 1976  29.212  39.050  10.860
35436W        W 1977  37.986  43.870  10.729
35437W        W 1978  27.584  27.096   3.289
35438W        W 1979   9.625  34.398  13.676
35439W        W 1980  27.968  44.306  13.288
35440W        W 1981  15.166   8.223  11.437
35441W        W 1982  30.924  43.414  13.732
35442W        W 1983   3.260  12.754  13.380
35443W        W 1984   0.402  17.116  10.933
35444W        W 1985  39.490  15.232  13.766
35445W        W 1986  14.071  11.188  12.553
35446W        W 1987  31.972  40.168   1.016
35447W        W 1988  21.033   2.775   1.315
35448W        W 1989   2.610   0.087  10.247
35449W        W 1990  12.333  24.379  14.311
35450W        W 1991   8.951  30.612   3.575
35451W        W 1992  12.343  14.763   2.116
35452W        W 1993  23.772  42.120  10.742
35453W        W 1994   6.284   3.859  13.075
35454W        W 1995  20.185  43.296  13.498
35455W        W 1996  39.005  35.332   3.279
35456W        W 1997  33.170  26.839   1.207
35457W        W 1998  21.739  28.722  11.217
35458W        W 1999  21.751   5.468   3.192
35459W        W 2000  41.235   6.221  11.124
35460W        W 2001  39.727   2.834   0.713
35461W        W 2002   4.438  14.662  10.959
35462W        W 2003  31.985  21.174  12.014
35463W        W 2004   0.557  31.076  13.194
35464W        W 2005  44.241  33.981  14.413
35465W        W 2006  15.914  40.772   0.774
35466W        W 2007   4.357   4.310  10.234
35467W        W 2008  15.639  37.350  12.610
35468W        W 2009   1.215   4.419   4.783
35469W        W 2010  34.734  12.292  11.236
35470W        W 2011  43.277   4.929  13.475
35471W        W 2012   0.292  15.633   3.788
35472W        W 2013  14.064   1.965   3.739
35473W        W 2014  15.236  17.317  12.988
35474W        W 2015  21.271  10.521   3.761
35475W        W 2016  26.382  11.371   2.957
35476W        W 2017  13.921  36.963   2.269
35477W        W 2018  31.519  22.899  13.548
35478W        W 2019   9.610  31.478  11.675
35479W        W 2020  30.239   1.850   4.945
35480W        W 2021  23.169   1.195  14.286
35481W        W 2022  38.861  35.909   1.779
35482W        W 2023  22.568  42.077   2.746
35483W        W 2024  15.654  15.213  11.558
35484W        W 2025  41.928   0.436   4.881
35485W        W 2026   3.507   6.612  12.751
35486W        W 2027  21.334   0.358   1.690
35487W        W 2028  21.488  16.333  10.982
35488W        W 2029  20.865  41.523  11.357
35489W        W 2030  19.076   6.128   1.275
35490W        W 2031  33.009  13.586   0.294
35491W        W 2032  41.660  19.574   2.778
35492W        W 2033   1.177  34.455  11.715
35493W        W 2034  29.669  38.781   1.691
35494W        W 2035  27.353  39.255   1.066
35495W        W 2036  12.700  27.975  12.581
35496W        W 2037  34.521  24.189   3.840
35497W        W 2038  16.026  43.525  10.629
35498W        W 2039  42.499  12.647  11.092
35499W        W 2040  18.830  33.173   1.477
35500W        W 2041  10.522  16.237   4.568
35501W        W 2042  41.344   5.917  13.891
35502W        W 2043  10.544  15.102  11.508
35503W        W 2044  43.692   4.492   2.233
35504W        W 2045   5.709  19.602  13.180
35505W        W 2046  41.845   1.745   4.046
35506W        W 2047  31.143   5.781   4.370
35507W        W 2048  20.137  42.988   1.910
35508W        W 2049  17.113  33.477   1.456
35509W        W 2050   9.019   0.311  10.349
35510W        W 2051  18.019  39.808  13.757
35511W        W 2052  32.034   7.444  12.881
35512W        W 2053  39.999  14.330  11.454
35513W        W 2054   7.795  13.099   1.912
35514W        W 2055  34.175  19.333   4.834
35515W        W 2056  12.342   8.720  12.469
35516W        W 2057  21.644  16.316  13.728
35517W        W 2058   3.779  23.772   4.630
35518W        W 2059  29.957  36.769   1.826
35519W        W 2060  41.580  43.376   0.293
35520W        W 2061  15.066  31.830  13.420
35521W        W 2062  42.539   5.663   3.483
35522W        W 2063  35.073  25.757  12.954
35523W        W 2064  17.461  12.711  12.004
35524W        W 2065   0.997   7.790  12.034
35525W        W 2066  42.518  24.019   3.728
35526W        W 2067   0.928  18.598  13.465
35527W        W 2068  36.142  43.917   1.417
35528W        W 2069  19.479   8.279   3.668
35529W        W 2070  27.412   8.435   4.819
35530W        W 2071  42.481  12.409   3.163
35531W        W 2072  17.614  34.327   4.504
35532W        W 2073  22.035  41.988  13.904
35533W        W 2074  17.370  16.809   4.528
35534W        W 2075  34.867   3.534   4.069
35535W        W 2076  36.356  21.750   0.243
35536W        W 2077  25.519   8.228   1.946
35537W        W 2078  43.762  41.776   1.660
35538W        W 2079  37.453  38.696  12.129
35539W        W 2080  42.018  15.529  14.720
35540W        W 2081  15.191   8.140  12.357
35541W        W 2082   6.791   2.533   0.090
35542W        W 2083  34.129  23.127   3.197
35543W        W 2084  14.548   1.223   1.329
35544W        W 2085  12.590  16.622  10.697
35545W        W 2086   9.835  28.426  14.541
35546W        W 2087  16.568  32.881  11.544
35547W        W 2088  15.724  41.791   3.147
35548W        W 2089  20.079  28.737   2.366
35549W        W 2090  18.698  21.009   2.810
35550W        W 2091  22.479   9.418  10.842
35551W        W 2092  22.023   9.426  13.268
35552W        W 2093  29.202  37.413   1.394
35553W        W 2094   9.189  23.935  14.260
35554W        W 2095  40.895  26.695   0.242
35555W        W 2096  38.722  42.874   4.115
35556W        W 2097  12.566  21.808  11.124
35557W        W 2098   3.927   7.230  14.453
35558W        W 2099  11.628  32.328  11.149
35559W        W 2100  25.541  40.761   1.403
35560W        W 2101   3.378   7.095   2.846
35561W        W 2102  38.786  15.219  14.459
35562W        W 2103  33.575  25.957  14.691
35563W        W 2104  25.137  27.722   2.756
35564W        W 2105  18.325  32.399  12.098
35565W        W 2106  28.176  28.041  14.090
35566W        W 2107  34.796  43.571  12.164
35567W        W 2108  34.660  39.582  13.011
35568W        W 2109  11.195  30.070   3.680
35569W        W 2110  22.781  10.813  13.422
35570W        W 2111  43.049  12.511   3.790
35571W        W 2112  17.704  33.079   3.357
35572W        W 2113  33.598  18.796   0.418
35573W        W 2114  12.068  15.031   4.265
35574W        W 2115  32.670  19.280   2.911
35575W        W 2116  38.410  10.308   3.547
35576W        W 2117  10.292  42.547   3.381
35577W        W 2118   5.248  17.096  10.899
35578W        W 2119  31.990  28.952  14.019
35579W        W 2120  35.496  36.006   3.576
35580W        W 2121   5.861  41.730  13.464
35581W        W 2122   3.053   0.935   3.588
35582W        W 2123   6.917  26.513  10.413
35583W        W 2124  35.479  39.465  12.625
35584W        W 2125  23.040  43.139   1.439
35585W        W 2126  42.487  44.512  11.563
35586W        W 2127   9.162  28.253  11.413
35587W        W 2128  38.323  43.403  11.825
35588W        W 2129  40.770   4.295  14.691
35589W        W 2130  38.680  35.875   2.268
35590W        W 2131  11.818  32.165  13.514
35591W        W 2132  32.992  13.912   3.654
35592W        W 2133  19.024  29.702  11.780
35593W        W 2134  29.464   4.248  13.850
35594W        W 2135   1.060  44.411  10.872
35595W        W 2136  16.618  43.529   1.328
35596W        W 2137  27.973  36.865  10.720
35597W        W 2138  44.351  42.021   0.781
35598W        W 2139  12.674  14.556  14.478
35599W        W 2140  21.086  30.929  11.461
35600W        W 2141  18.233  24.215   3.665
35601W        W 2142  27.119  38.072  13.675
35602W        W 2143  18.159  13.577   0.446
35603W        W 2144  10.804  21.516  12.904
35604W        W 2145  15.845  26.106  10.661
35605W        W 2146  14.792  36.298  14.519
35606W        W 2147  22.480  27.205   1.023
35607W        W 2148  22.176  20.613   3.949
35608W        W 2149  33.389  17.163   1.231
35609W        W 2150   6.371  36.081  14.942
35610W        W 2151  14.102  12.853   1.473
35611W        W 2152  44.662  24.239   2.812
35612W        W 2153  26.975  31.949  11.148
35613W        W 2154  11.682   7.188   3.205
35614W        W 2155  22.888   0.986  12.926
35615W        W 2156  25.605  12.538   0.329
35616W        W 2157  41.792  26.410   1.203
35617W        W 2158  33.759  35.144   2.229
35618W        W 2159  20.286   8.294   2.388
35619W        W 2160  17.878  27.167   4.255
35620W        W 2161  44.044  34.136  11.902
35621W        W 2162  29.005  16.047   3.420
35622W        W 2163  34.537  16.442  14.785
35623W        W 2164  23.904  28.462   2.369
35624W        W 2165  30.942  31.595   3.368
35625W        W 2166  29.916  21.272   3.788
35626W        W 2167  39.758  21.520   3.359
35627W        W 2168  40.033  39.263  14.831
35628W        W 2169  10.794  31.454  10.753
35629W        W 2170  15.036   3.155   1.730
35630W        W 2171  25.273  43.412   1.204
35631W        W 2172  11.652  23.616  13.411
35632W        W 2173  44.775  33.891  14.398
35633W        W 2174  19.131   4.364   1.722
35634W        W 2175  40.325  11.743   5.389
35635W        W 2176  15.714  27.853  10.732
35636W        W 2177  39.286  25.121   1.768
35637W        W 2178   5.605  32.885   0.318
35638W        W 2179  43.394   3.057   2.338
35639W        W 2180  21.719   9.889   1.428
35640W        W 2181  42.750   1.496   1.848
35641W        W 2182  21.691   1.920  12.258
35642W        W 2183  29.444  20.154   1.419
35643W        W 2184  31.044  33.365   1.280
35644W        W 2185  12.343  41.509  12.562
35645W        W 2186   2.504  35.654   0.542
35646W        W 2187  24.224  28.393   1.192
35647W        W 2188   8.876  41.310   2.565
35648W        W 2189  26.302  26.730  10.505
35649W        W 2190  34.049  36.117  12.440
35650W        W 2191  17.344  16.118   0.424
35651W        W 2192  27.822  21.524   3.659
35652W        W 2193  13.152  14.546  11.187
35653W        W 2194  40.467  43.087  12.158
35654W        W 2195   0.588  17.254   1.916
35655W        W 2196  33.893  12.577   4.221
35656W        W 2197  17.231  29.985   2.878
35657W        W 2198   2.309  11.798  13.952
35658W        W 2199  41.938  41.294  12.939
35659W        W 2200   3.883  42.012  14.799
35660W        W 2201  13.672  28.054   2.123
35661W        W 2202  22.142  27.776  10.388
35662W        W 2203   3.932  44.862   4.256
35663W        W 2204  30.293  44.622  13.976
35664W        W 2205   9.885  17.549   4.114
35665W        W 2206  16.235   7.730   4.443
35666W        W 2207  39.856  19.988  12.695
35667W        W 2208  42.431  28.025   1.385
35668W        W 2209  12.918  33.047   2.771
35669W        W 2210   8.834  28.177   4.183
35670W        W 2211  19.090  10.120  13.889
35671W        W 2212  11.245  25.480   4.701
35672W        W 2213   3.069  18.531   3.734
35673W        W 2214   8.308   7.943  14.909
35674W        W 2215  11.045  12.400  10.744
35675W        W 2216  31.388  14.663  11.465
35676W        W 2217  26.020   5.795  14.903
35677W        W 2218  44.929  12.874  10.925
35678W        W 2219  35.403  40.045   1.148
35679W        W 2220  41.200  23.553   0.247
35680W        W 2221  31.928  20.909   0.009
35681W        W 2222  28.199  37.370  13.913
35682W        W 2223  33.810  24.664  12.994
35683W        W 2224  19.185  12.686   2.739
35684W        W 2225  21.167  38.548   1.997
35685W        W 2226  25.071  22.534  11.231
35686W        W 2227  18.865  11.346   1.310
35687W        W 2228  37.013  40.013   4.800
35688W        W 2229  15.116  42.323  13.069
35689W        W 2230  29.547  37.544  14.520
35690W        W 2231  13.343  27.951  13.335
35691W        W 2232  21.762  11.142  13.351
35692W        W 2233  21.235  38.595   2.507
35693W        W 2234  28.896  31.917   1.701
35694W        W 2235  16.808  30.960   0.413
35695W        W 2236  36.320   8.110  11.063
35696W        W 2237  31.932   8.924   0.564
35697W        W 2238   6.891  21.551   2.847
35698W        W 2239  23.144   6.023   1.220
35699W        W 2240  37.430   2.515  10.086
35700W        W 2241  14.313  13.696   4.050
35701W        W 2242  18.648  26.395  12.512
35702W        W 2243  20.727  23.457   4.168
35703W        W 2244  42.398  24.924   2.599
35704W        W 2245  42.767  38.745   3.709
35705W        W 2246  34.437  20.924   0.136
35706W        W 2247  37.353  18.626  13.304
35707W        W 2248  28.629   7.118  10.982
35708W        W 2249  21.712   1.369  14.511
35709W        W 2250  40.870  41.470  14.353
35710W        W 2251  11.873   5.867   0.100
35711W        W 2252   0.041  44.077  12.734
35712W        W 2253  38.509  10.401  14.229
35713W        W 2254  15.585   6.508   4.122
35714W        W 2255   9.253  23.725  11.189
35715W        W 2256   7.272   3.634   9.788
35716W        W 2257  32.060  33.964  11.438
35717W        W 2258  13.856  12.494   1.772
35718W        W 2259  35.653  24.133  11.297
35719W        W 2260  17.691  41.324  14.247
35720W        W 2261  11.319  10.364  13.201
35721W        W 2262  32.852  22.062  10.646
35722W        W 2263   7.328  28.238   0.986
35723W        W 2264  36.557  42.725  12.553
35724W        W 2265  27.529  11.997   1.845
35725W        W 2266  37.888  37.632   3.334
35726W        W 2267  28.418  15.646  11.098
35727W        W 2268   4.896   5.112   0.449
35728W        W 2269   2.073   5.849   2.374
35729W        W 2270  40.853  24.070  12.409
35730W        W 2271   8.861   9.462   1.318
35731W        W 2272  40.272  21.592  12.470
35732W        W 2273   7.666  14.717   1.701
35733W        W 2274  39.293  16.205  12.986
35734W        W 2275  44.702  18.795  12.393
35735W        W 2276  44.055  17.234  11.150
35736W        W 2277  23.194  29.091   4.396
35737W        W 2278  21.945  31.405  13.008
35738W        W 2279  20.021  40.357   4.479
35739W        W 2280  34.033  16.944  13.033
35740W        W 2281  34.062   9.883  10.721
35741W        W 2282  27.629  13.170  14.422
35742W        W 2283  38.260  32.573  11.180
35743W        W 2284  38.112  16.829  13.370
35744W        W 2285  37.435  25.970  11.894
35745W        W 2286   1.727  39.359  10.684
35746W        W 2287  24.344  29.952  13.868
35747W        W 2288   1.293  12.900  14.933
35748W        W 2289  16.106  20.079  13.962
35749W        W 2290  13.415   3.710   3.208
35750W        W 2291  21.502  26.177   4.766
35751W        W 2292  23.816   0.508  13.856
35752W        W 2293  12.225   5.428  14.337
35753W        W 2294  13.868  19.603  10.713
35754W        W 2295   5.071   7.365  11.984
35755W        W 2296   6.228   2.327   2.266
35756W        W 2297  30.015  30.135   2.832
35757W        W 2298  23.238  37.620   1.557
35758W        W 2299  12.625  33.542  10.439
35759W        W 2300  26.717  29.007  14.717
35760W        W 2301  16.838  14.309  12.471
35761W        W 2302  28.486  27.105   3.480
35762W        W 2303  21.757  28.939  14.501
35763W        W 2304  38.040  42.197   1.133
35764W        W 2305  34.146  13.277  11.295
35765W        W 2306  22.608  44.337   4.653
35766W        W 2307  13.532  16.670   1.262
35767W        W 2308   6.127  36.443  14.133
35768W        W 2309  19.188  16.881  10.359
35769W        W 2310  37.889  17.204   1.318
35770W        W 2311  39.231  31.082  11.149
35771W        W 2312  20.274  11.133   1.643
35772W        W 2313  11.673  41.111  12.422
35773W        W 2314  16.758  42.466   4.121
35774W        W 2315   3.925  23.431  13.795
35775W        W 2316  19.568  19.483   2.919
35776W        W 2317   1.684  36.433  14.292
35777W        W 2318  35.509  42.899   2.893
35778W        W 2319  15.065  19.628  13.430
35779W        W 2320  34.451   3.513  13.460
35780W        W 2321  33.308  14.962  11.004
35781W        W 2322  24.049  24.119   2.608
35782W        W 2323  26.637  35.971   2.577
35783W        W 2324  18.808  21.758   0.363
35784W        W 2325  21.253  40.473   4.452
35785W        W 2326  23.102   8.227  13.266
35786W        W 2327  39.253  41.042  11.627
35787W        W 2328  33.099  34.491   4.606
35788W        W 2329   3.780   9.616  11.567
35789W        W 2330   2.982  19.032   3.728
35790W        W 2331   4.141  15.152  11.661
35791W        W 2332   2.228   4.089  14.346
35792W        W 2333  44.516   5.658   4.153
35793W        W 2334  30.198  44.689   4.175
35794W        W 2335  28.117  22.978  11.059
35795W        W 2336  27.178  30.350   0.886
35796W        W 2337  14.042  24.781  10.762
35797W        W 2338  20.914  18.664   0.674
35798W        W 2339   3.035  39.777   4.027
35799W        W 2340  31.423  27.150   1.806
35800W        W 2341  29.439  21.445   1.824
35801W        W 2342  12.751  39.525  14.735
35802W        W 2343  27.099  10.408  11.017
35803W        W 2344  22.093  37.854   1.166
35804W        W 2345  26.371  19.705  14.890
35805W        W 2346  28.923  14.163  10.738
35806W        W 2347  39.786  20.590   1.272
35807W        W 2348  44.171  22.973   3.429
35808W        W 2349  17.332  31.289   1.485
35809W        W 2350  33.851  14.178  11.029
35810W        W 2351  13.641   4.768  14.840
35811W        W 2352  43.348  16.591   2.765
35812W        W 2353  19.530  34.968   2.700
35813W        W 2354   3.266  42.876  12.260
35814W        W 2355   1.957  35.119  14.579
35815W        W 2356   4.640  43.215   2.273
35816W        W 2357  20.825  33.125   3.237
35817W        W 2358  15.777  17.437   4.268
35818W        W 2359  39.603  44.311  12.921
35819W        W 2360  24.013  31.616   1.246
35820W        W 2361   5.427  16.548   4.226
35821W        W 2362  38.850  21.148   1.310
35822W        W 2363   2.035  33.146   3.670
35823W        W 2364  29.352   6.288  14.439
35824W        W 2365   9.027  21.608   2.828
35825W        W 2366   6.102  17.564   3.715
35826W        W 2367   3.711   6.342  14.398
35827W        W 2368  32.166  38.144  12.940
35828W        W 2369  17.210  25.967   4.019
35829W        W 2370  24.477  25.259   4.050
35830W        W 2371  42.158  37.324  11.571
35831W        W 2372  43.498   6.805   0.384
35832W        W 2373  28.487  34.827  12.144
35833W        W 2374  42.686  37.587   4.179
35834W        W 2375  16.636   9.600   1.495
35835W        W 2376   2.110  14.295  14.734
35836W        W 2377  14.627  12.886   1.485
35837W        W 2378  26.482  25.217   5.205
35838W        W 2379  20.495  35.022  13.380
35839W        W 2380  30.109  31.611  14.024
35840W        W 2381  29.944  22.726   1.712
35841W        W 2382   7.684  29.513  13.817
35842W        W 2383  13.892  38.002   1.542
35843W        W 2384  26.691  34.395   4.020
35844W        W 2385  44.686   6.385   3.656
35845W        W 2386  10.327  13.116  13.503
35846W        W 2387  21.640  33.359   0.865
35847W        W 2388  42.783  29.188   0.263
35848W        W 2389  12.700  33.827  10.017
35849W        W 2390   4.873   7.981  10.761
35850W        W 2391  35.065   8.415   3.671
35851W        W 2392  26.969  12.821  10.129
35852W        W 2393  26.242  42.999  12.926
35853W        W 2394  13.558  20.457   2.651
35854W        W 2395  44.737  37.048  12.639
35855W        W 2396  22.672  14.812  14.399
35856W        W 2397  21.178  13.746   1.349
35857W        W 2398  40.107  30.279   4.687
35858W        W 2399  22.516  37.366   3.858
35859W        W 2400   6.404   7.450   3.127
35860W        W 2401  13.358  30.055   1.343
35861W        W 2402  44.779  41.064  11.991
35862W        W 2403   8.606  23.934   1.539
35863W        W 2404  25.410  13.807  12.791
35864W        W 2405  37.025  15.599   1.682
35865W        W 2406  38.962   7.175  13.020
35866W        W 2407   7.073  24.778  14.666
35867W        W 2408  15.987  21.265   3.167
35868W        W 2409   0.846  40.307  13.499
35869W        W 2410  21.982  39.441   4.884
35870W        W 2411  13.586   8.173  11.575
35871W        W 2412  29.657  25.921   3.682
35872W        W 2413  19.790   5.640  12.509
35873W        W 2414  33.869  12.596   1.318
35874W        W 2415  21.216  14.571  13.962
35875W        W 2416  24.502  25.199  13.570
35876W        W 2417  37.941  37.955   2.191
35877W        W 2418  26.978  38.865   4.185
35878W        W 2419  32.694  23.077   1.270
35879W        W 2420  23.775  44.331   3.541
35880W        W 2421  36.378  44.884   1.814
35881W        W 2422  17.394   8.230   3.682
35882W        W 2423  37.058   9.598   4.740
35883W        W 2424  41.966  35.890  13.336
35884W        W 2425  35.083  41.988   4.492
35885W        W 2426  44.969  44.031   0.532
35886W        W 2427  35.079   6.363  13.855
35887W        W 2428   7.354  26.542  10.694
35888W        W 2429  40.894  17.624  12.462
35889W        W 2430  15.247  28.936   3.690
35890W        W 2431   7.208  27.738   0.826
35891W        W 2432  29.387  38.063  12.852
35892W        W 2433  14.303  33.910   2.930
35893W        W 2434   8.377  31.473  10.397
35894W        W 2435   0.739  20.684  14.984
35895W        W 2436  10.679  44.011  10.651
35896W        W 2437  16.647  37.421   2.026
35897W        W 2438  12.503   1.023  13.556
35898W        W 2439  26.636   1.034   2.754
35899W        W 2440  30.885   9.248   1.588
35900W        W 2441  29.500   5.235  12.900
35901W        W 2442  18.224  15.495  14.936
35902W        W 2443  31.888   9.727   4.515
35903W        W 2444  17.785  18.233   3.230
35904W        W 2445  13.159  15.399  10.804
35905W        W 2446  40.753   1.852  11.109
35906W        W 2447  44.926  22.000   1.388
35907W        W 2448   7.778  10.461  11.952
35908W        W 2449   9.912  39.854   2.782
35909W        W 2450   0.404  13.749   3.915
35910W        W 2451   9.876  35.902  11.140
35911W        W 2452  33.369  39.770  11.194
35912W        W 2453   6.296  43.430  13.590
35913W        W 2454  20.069   2.546  11.570
35914W        W 2455  33.743  20.188  12.715
35915W        W 2456   1.875  22.927  13.122
35916W        W 2457  13.144   3.242   3.153
35917W        W 2458   3.280  40.460   2.214
35918W        W 2459  34.168  44.429  12.557
35919W        W 2460   6.682   3.453   0.924
35920W        W 2461  10.121  33.214  12.101
35921W        W 2462  30.302  33.160  11.252
35922W        W 2463  26.897  21.455   3.863
35923W        W 2464  11.410  20.496  11.625
35924W        W 2465  24.445  14.436  11.103
35925W        W 2466  39.599   3.704  11.759
35926W        W 2467  12.120   5.807   1.934
35927W        W 2468   9.133  21.472  14.617
35928W        W 2469  27.130  24.332  14.911
35929W        W 2470  14.362   2.449   0.491
35930W        W 2471  30.510  24.737   2.102
35931W        W 2472   3.189  37.953  14.720
35932W        W 2473  18.849  29.198   0.544
35933W        W 2474  20.091  35.365  12.519
35934W        W 2475   2.909   1.187   5.270
35935W        W 2476  33.032  41.075   1.618
35936W        W 2477   1.435   4.786  12.304
35937W        W 2478   0.196   4.910   3.957
35938W        W 2479  25.035  24.575  12.528
35939W        W 2480  40.044  43.010  11.425
35940W        W 2481  21.252  36.655   0.657
35941W        W 2482  26.982   0.963   2.124
35942W        W 2483  31.393   7.745   3.657
35943W        W 2484  42.307  31.982  14.524
35944W        W 2485  21.160  28.338  12.647
35945W        W 2486  29.980  26.232  13.461
35946W        W 2487  36.373  39.262  13.536
35947W        W 2488  40.516  43.908  10.658
35948W        W 2489  38.425  19.055   3.199
35949W        W 2490  42.398  23.492  14.972
35950W        W 2491  42.276   5.804  14.982
35951W        W 2492   4.560  42.521  13.668
35952W        W 2493  22.778  22.619   0.982
35953W        W 2494  13.045   0.335  13.684
35954W        W 2495  11.541  30.118   0.212
35955W        W 2496   1.829   8.705  11.515
35956W        W 2497  11.383  24.128   0.698
35957W        W 2498   6.003  33.288  13.110
35958W        W 2499  31.981  31.931  10.665
35959W        W 2500  26.733  27.576   3.843
35960W        W 2501  15.087   2.394   3.090
35961W        W 2502   1.695  14.634   1.817
35962W        W 2503  13.232  18.256  10.408
35963W        W 2504   0.426  12.374  12.291
35964W        W 2505  35.460  40.984  11.894
35965W        W 2506  26.502  36.359   3.312
35966W        W 2507  39.372  34.161   0.003
35967W        W 2508  14.206   6.432   4.090
35968W        W 2509  41.477  30.696  13.028
35969W        W 2510   7.264  37.880  12.092
35970W        W 2511   0.031  35.456   0.440
35971W        W 2512  23.784  23.783  11.116
35972W        W 2513  14.192  33.426   0.268
35973W        W 2514  25.035  35.133  13.084
35974W        W 2515  24.787   9.147  14.790
35975W        W 2516  14.763  24.317  10.904
35976W        W 2517   4.444  13.297  13.779
35977W        W 2518  14.816  23.009   3.700
35978W        W 2519   7.882  11.346  11.980
35979W        W 2520  33.243   6.918  12.554
35980W        W 2521  10.401  15.258   1.328
35981W        W 2522  39.712  41.774  14.987
35982W        W 2523  35.602  11.805  12.311
35983W        W 2524  16.962  37.934  14.734
35984W        W 2525   9.444   4.921   0.818
35985W        W 2526  41.245  10.192   2.341
35986W        W 2527  19.669  16.557  13.554
35987W        W 2528  30.087  38.839   0.547
35988W        W 2529  32.098  44.455  13.540
35989W        W 2530  35.812   7.947  11.116
35990W        W 2531  26.758  31.618  11.999
35991W        W 2532  37.158  10.165  11.258
35992W        W 2533  34.049  42.154  14.897
35993W        W 2534   6.362  14.354  11.557
35994W        W 2535   5.386   3.719   2.166
35995W        W 2536  29.877  20.035   3.858
35996W        W 2537   0.415  14.733   1.243
35997W        W 2538  24.019  12.594  13.816
35998W        W 2539  39.105  16.298   0.681
35999W        W 2540  41.041  35.894   2.841
36000W        W 2541   3.734  23.491  14.636
36001W        W 2542  41.491   5.694   4.210
36002W        W 2543  24.750  11.876  12.006
36003W        W 2544  20.496  35.938   3.937
36004W        W 2545  12.338   8.865   1.698
36005W        W 2546  22.142  44.844   4.645
36006W        W 2547   7.320  23.143  11.050
36007W        W 2548  15.031  14.667   2.166
36008W        W 2549  42.017   5.738   1.317
36009W        W 2550  20.701  13.699  12.856
36010W        W 2551  24.215  16.537  13.592
36011W        W 2552   5.386  23.202  12.956
36012W        W 2553   6.365  14.692  11.962
36013W        W 2554  32.667  30.335  12.859
36014W        W 2555  17.672  32.638   1.308
36015W        W 2556  13.219   2.958  13.511
36016W        W 2557   6.460  20.788  14.981
36017W        W 2558   5.153   5.007   3.212
36018W        W 2559  25.967  33.630  11.144
36019W        W 2560   4.956  16.057   1.649
36020W        W 2561   8.209  36.659   5.452
36021W        W 2562  40.096  35.963  11.813
36022W        W 2563   5.311  22.053  14.869
36023W        W 2564  12.432  23.191  13.121
36024W        W 2565  17.208   0.009  14.853
36025W        W 2566  28.578  37.806   0.837
36026W        W 2567  31.074  24.452  13.028
36027W        W 2568  33.097  44.117   3.605
36028W        W 2569  22.999  15.590   2.056
36029W        W 2570  14.167  24.797   3.743
36030W        W 2571  12.753   9.921   0.651
36031W        W 2572  11.154  18.077   0.259
36032W        W 2573  16.031  38.157  13.346
36033W        W 2574  32.819  22.154   0.402
36034W        W 2575  36.987  24.540  10.615
36035W        W 2576  36.462  31.883   4.557
36036W        W 2577  18.152  26.407   2.583
36037W        W 2578  34.909  35.430  13.898
36038W        W 2579  24.191  19.535   2.389
36039W        W 2580  24.648  33.763  11.804
36040W        W 2581  40.044  26.637  11.229
36041W        W 2582   5.796  38.867   5.599
36042W        W 2583  41.162  24.512   1.407
36043W        W 2584   6.681  12.603   1.053
36044W        W 2585  10.766  22.103  10.046
36045W        W 2586  31.643   0.861   1.542
36046W        W 2587  35.857  14.471  14.951
36047W        W 2588  28.586  38.352  13.867
36048W        W 2589   2.516  13.130  14.750
36049W        W 2590   2.650  32.168  11.682
36050W        W 2591  33.401   5.358  14.278
36051W        W 2592  24.199  41.932  14.857
36052W        W 2593  39.428   3.139   2.829
36053W        W 2594  12.636  12.115  10.567
36054W        W 2595  21.206  16.605  14.828
36055W        W 2596   9.273  42.451   3.218
36056W        W 2597  36.245   2.976  14.691
36057W        W 2598  13.315   6.785  14.016
36058W        W 2599  26.477   2.814   3.598
36059W        W 2600  12.325  33.373  13.831
36060W        W 2601   9.724  37.379   1.983
36061W        W 2602  14.305  39.268   3.455
36062W        W 2603   1.995   7.695   2.810
36063W        W 2604  26.259  14.729   1.913
36064W        W 2605   2.360  18.510  14.251
36065W        W 2606  21.213   6.590   1.175
36066W        W 2607   1.687  13.887   1.015
36067W        W 2608  30.618  17.106  11.225
36068W        W 2609  32.147  11.235   4.778
36069W        W 2610   5.508  37.878   0.937
36070W        W 2611   6.360  15.319  13.645
36071W        W 2612  42.952  25.005   4.877
36072W        W 2613  23.017  39.351   0.964
36073W        W 2614  29.353  12.728  14.228
36074W        W 2615  29.845   6.794  13.865
36075W        W 2616  10.882  41.098  14.860
36076W        W 2617  26.260  30.609   2.714
36077W        W 2618   4.924  28.696  12.966
36078W        W 2619  44.317  16.649  11.112
36079W        W 2620  33.657  14.915   0.435
36080W        W 2621  41.867  33.357  12.533
36081W        W 2622   0.112   1.346   0.529
36082W        W 2623  22.254  37.418   0.506
36083W        W 2624  21.762  31.005   0.357
36084W        W 2625  18.990  31.950  12.574
36085W        W 2626  10.780  32.485   0.370
36086W        W 2627  19.678  28.265  12.032
36087W        W 2628  39.298   7.579  13.098
36088W        W 2629  36.115  24.352   4.883
36089W        W 2630   7.442  37.859   1.400
36090W        W 2631  43.077  44.031   1.835
36091W        W 2632  11.399  26.803  13.115
36092W        W 2633   0.501   2.482  11.975
36093W        W 2634  36.288   8.695  11.050
36094W        W 2635  20.152  42.358   0.367
36095W        W 2636   4.614  21.962   4.038
36096W        W 2637  33.212  11.933  13.940
36097W        W 2638  15.880  29.981   3.518
36098W        W 2639  10.155  13.656  13.860
36099W        W 2640  22.240  32.127  10.589
36100W        W 2641  31.730  15.900   4.185
36101W        W 2642  37.634  11.286   3.463
36102W        W 2643  32.082  10.738   0.721
36103W        W 2644  23.590  42.709  11.106
36104W        W 2645  24.952   8.056  12.468
36105W        W 2646   3.008  23.094   0.181
36106W        W 2647  27.116  12.176   4.586
36107W        W 2648  29.631  28.684  11.538
36108W        W 2649  23.939  22.911   3.322
36109W        W 2650   2.901  38.349  12.464
36110W        W 2651  13.214  23.760   2.332
36111W        W 2652  18.867   2.693   4.051
36112W        W 2653  15.855  31.404   3.160
36113W        W 2654   2.760  29.453  13.530
36114W        W 2655  44.885  31.978   3.882
36115W        W 2656  34.185  18.768   4.154
36116W        W 2657  35.535   5.922   0.034
36117W        W 2658  11.232   6.928  13.742
36118W        W 2659   5.214  17.795  13.570
36119W        W 2660  17.255  40.032  14.824
36120W        W 2661  43.524   0.724   3.606
36121W        W 2662  33.308  18.409  14.017
36122W        W 2663  39.506  34.113   3.566
36123W        W 2664  20.655  32.186   0.570
36124W        W 2665  15.849  35.573   1.771
36125W        W 2666  16.471  27.052   1.663
36126W        W 2667   0.324  14.578  14.192
36127W        W 2668  10.134  10.335  12.137
36128W        W 2669  27.037  23.963  11.201
36129W        W 2670  34.547   5.908   9.846
36130W        W 2671   2.940  23.644  13.498
36131W        W 2672   2.977   0.434  13.389
36132W        W 2673  19.456   9.113  14.582
36133W        W 2674  14.535  20.015   1.399
36134W        W 2675  30.489  12.333   4.376
36135W        W 2676   7.688  12.100  13.342
36136W        W 2677  11.450  34.948   1.803
36137W        W 2678  30.565  24.500  13.169
36138W        W 2679  42.222  22.238  14.789
36139W        W 2680  25.720  42.344   0.480
36140W        W 2681  15.363  33.020   1.163
36141W        W 2682   9.698  30.846   2.865
36142W        W 2683  13.551  22.419  13.742
36143W        W 2684  37.317  10.497   3.649
36144W        W 2685  22.182   3.744  10.266
36145W        W 2686  11.768   1.007   3.630
36146W        W 2687  37.480  40.519  14.083
36147W        W 2688  31.942  40.129   1.736
36148W        W 2689  43.879  40.605   2.673
36149W        W 2690  16.170  39.560   3.853
36150W        W 2691   7.102  11.190   2.916
36151W        W 2692  40.398  29.511   0.931
36152W        W 2693  19.703  21.923   3.871
36153W        W 2694   0.719  21.037  12.623
36154W        W 2695   2.264  20.727   1.655
36155W        W 2696   0.257  14.209   3.159
36156W        W 2697  37.891  19.301  10.705
36157W        W 2698   8.640  40.396   1.578
36158W        W 2699  34.765  35.925   4.274
36159W        W 2700  31.555  42.265  13.451
36160W        W 2701  27.765  24.681   3.715
36161W        W 2702  42.115  38.545  12.685
36162W        W 2703  29.105  15.245  13.035
36163W        W 2704   5.213  17.458  11.270
36164W        W 2705  38.394  14.811  12.589
36165W        W 2706   1.038  15.251   2.749
36166W        W 2707  18.977  18.119  10.396
36167W        W 2708   9.212  32.743  12.098
36168W        W 2709   8.934   3.181  11.892
36169W        W 2710   2.148  30.456   3.637
36170W        W 2711  15.755  36.305   2.836
36171W        W 2712  25.727  17.038  10.084
36172W        W 2713  28.608  20.780  14.876
36173W        W 2714  18.698   2.750  13.733
36174W        W 2715  24.371  12.642  12.944
36175W        W 2716  31.890  24.129  12.977
36176W        W 2717   3.115  19.275   1.439
36177W        W 2718  23.437  28.378  10.627
36178W        W 2719  15.095  13.150  12.460
36179W        W 2720  12.799  42.849  14.823
36180W        W 2721  30.158  21.181   0.751
36181W        W 2722  32.176  12.319   3.414
36182W        W 2723  39.403  32.999   1.768
36183W        W 2724  32.693  21.271   3.656
36184W        W 2725  18.307   8.710  14.462
36185W        W 2726  40.249   0.920   4.617
36186W        W 2727  20.104  38.875  11.453
36187W        W 2728  43.424  24.960   2.159
36188W        W 2729  35.899  30.188   4.680
36189W        W 2730  38.705  31.037  11.173
36190W        W 2731  22.536  19.595  14.585
36191W        W 2732  16.613  24.853   2.273
36192W        W 2733  31.751  32.399   1.856
36193W        W 2734  40.550  35.376  14.255
36194W        W 2735  43.495  20.564   2.919
36195W        W 2736  14.731  21.364  13.211
36196W        W 2737  12.369  17.703  10.949
36197W        W 2738  35.009  38.876   2.242
36198W        W 2739   8.172  12.237  12.515
36199W        W 2740  42.405  40.986   0.022
36200W        W 2741  24.991  22.641  11.718
36201W        W 2742  23.340  13.582   0.805
36202W        W 2743  20.005   8.502  13.859
36203W        W 2744  34.174  44.516   0.409
36204W        W 2745  28.959  24.853  12.808
36205W        W 2746  32.596  36.688   3.205
36206W        W 2747  32.500  26.720   2.634
36207W        W 2748  40.520  22.094   0.856
36208W        W 2749  42.366  19.287  12.357
36209W        W 2750  24.411   2.797   1.165
36210W        W 2751   5.867  13.635  13.917
36211W        W 2752  19.061  40.644   3.329
36212W        W 2753   4.731  35.007  11.941
36213W        W 2754  19.816  17.757  12.825
36214W        W 2755  15.510  39.992  11.649
36215W        W 2756  23.302  23.970  11.223
36216W        W 2757  39.937  30.041   0.489
36217W        W 2758  32.361  17.510  13.537
36218W        W 2759  31.458   3.486   1.006
36219W        W 2760  19.744   6.005  11.833
36220W        W 2761   8.079   0.930   0.036
36221W        W 2762  17.040  17.227  14.828
36222W        W 2763   1.846  43.207   0.793
36223W        W 2764   2.048   6.318   2.166
36224W        W 2765   6.132  40.053   2.125
36225W        W 2766  39.556  43.545   3.707
36226W        W 2767  17.029  11.668  10.719
36227W        W 2768  32.985   9.199   3.205
36228W        W 2769   4.185  11.122  13.265
36229W        W 2770  43.350  32.294   2.593
36230W        W 2771  26.597  15.849   2.206
36231W        W 2772  32.969  29.926  12.915
36232W        W 2773  14.797  11.674   0.441
36233W        W 2774  11.714   4.525  13.911
36234W        W 2775   2.449   7.890  13.267
36235W        W 2776  18.706  36.295  12.113
36236W        W 2777  27.447   7.836  14.546
36237W        W 2778  43.078  12.349   2.145
36238W        W 2779   9.689  15.858   0.520
36239W        W 2780  35.262  18.557   4.975
36240W        W 2781  41.982  22.955   2.847
36241W        W 2782  27.281  41.618   3.955
36242W        W 2783  38.650  27.666  14.692
36243W        W 2784  26.018  36.026  11.180
36244W        W 2785  17.578  11.649   1.324
36245W        W 2786  28.666  13.598  11.184
36246W        W 2787  29.193  25.032   1.405
36247W        W 2788  29.903  13.203   1.298
36248W        W 2789  37.917   7.881   0.803
36249W        W 2790   4.187   1.656  13.069
36250W        W 2791   1.026   4.730  12.004
36251W        W 2792   8.702  33.147  11.121
36252W        W 2793  28.532  39.464   1.386
36253W        W 2794  24.169   3.873   3.810
36254W        W 2795   6.380  26.055  14.542
36255W        W 2796  36.544  28.907   0.479
36256W        W 2797  20.123   4.525   4.179
36257W        W 2798  13.792  21.310  11.168
36258W        W 2799  21.039  17.591   4.626
36259W        W 2800  36.506   3.359  13.427
36260W        W 2801   5.842  38.416   1.951
36261W        W 2802  25.397  29.870  11.203
36262W        W 2803   7.913  26.125  12.733
36263W        W 2804   4.970  31.143  10.753
36264W        W 2805  25.661   9.759   1.865
36265W        W 2806  14.344  17.236  12.905
36266W        W 2807  43.483  10.601  10.762
36267W        W 2808  43.894   2.799  11.664
36268W        W 2809  31.625  33.176   3.620
36269W        W 2810  29.520  36.936  11.192
36270W        W 2811  16.073  33.801   5.037
36271W        W 2812   2.908   7.356   2.890
36272W        W 2813  24.212  16.358   3.289
36273W        W 2814  34.448  11.935  13.078
36274W        W 2815  27.627  10.388  11.405
36275W        W 2816  10.609  28.715   3.970
36276W        W 2817   4.932  25.730   0.429
36277W        W 2818   2.546   3.533  10.929
36278W        W 2819  31.346  39.803   4.649
36279W        W 2820  11.285  39.856   0.396
36280W        W 2821  12.715  15.067   4.810
36281W        W 2822  43.916  12.219   3.164
36282W        W 2823  25.576  29.930  12.853
36283W        W 2824   8.830  41.987  12.706
36284W        W 2825  15.103  16.575   2.875
36285W        W 2826   0.879  33.190  13.991
36286W        W 2827  43.870  42.833   1.231
36287W        W 2828   3.375  21.606   1.724
36288W        W 2829  14.855  31.440   3.159
36289W        W 2830   1.689  29.009  13.077
36290W        W 2831  11.789  24.956   4.146
36291W        W 2832  39.655  10.786   2.200
36292W        W 2833  40.629  17.809   0.299
36293W        W 2834  35.391  18.056   1.581
36294W        W 2835  36.494  25.556   1.924
36295W        W 2836  22.435  16.691   3.247
36296W        W 2837   1.457  24.795  12.543
36297W        W 2838  28.292  17.735  10.572
36298W        W 2839   6.889  21.073  14.836
36299W        W 2840  21.581  35.100  12.874
36300W        W 2841   4.301  19.117  13.546
36301W        W 2842  26.835   9.051   0.355
36302W        W 2843   5.856  18.463   0.865
36303W        W 2844  16.083  21.713  11.476
36304W        W 2845  24.902  26.473  10.393
36305W        W 2846  33.977  34.983   4.657
36306W        W 2847  42.443  11.755   0.824
36307W        W 2848  22.277   4.932  11.591
36308W        W 2849  11.954  10.319   4.467
36309W        W 2850   3.351  26.012   1.876
36310W        W 2851  32.645  19.785   3.695
36311W        W 2852  15.368   2.120  11.260
36312W        W 2853  28.950  14.611   1.785
36313W        W 2854  23.765  26.586  14.317
36314W        W 2855  15.876   2.024   4.063
36315W        W 2856  40.953  20.733   3.217
36316W        W 2857  29.401  36.935  10.683
36317W        W 2858   0.703  37.481  10.563
36318W        W 2859  41.977  23.983  13.898
36319W        W 2860  28.696   8.959   1.310
36320W        W 2861  13.900  42.423  12.416
36321W        W 2862  38.812  32.374  12.416
36322W        W 2863  10.712  24.144   4.092
36323W        W 2864  24.585  32.663  13.563
36324W        W 2865  32.415  42.614   0.463
36325W        W 2866   4.739  26.974  14.439
36326W        W 2867   4.474  24.954  11.603
36327W        W 2868  17.721  18.997   1.316
36328W        W 2869  12.687  30.677   1.585
36329W        W 2870  15.700  38.911   1.366
36330W        W 2871  35.104  17.755   3.292
36331W        W 2872  37.499  31.140  11.582
36332W        W 2873  12.857  12.570  10.541
36333W        W 2874   3.548  26.590  12.097
36334W        W 2875   9.409  11.405   4.015
36335W        W 2876  22.149   0.370   3.005
36336W        W 2877  11.376   0.218  13.598
36337W        W 2878   1.632  29.437  10.748
36338W        W 2879  17.921  30.192   3.741
36339W        W 2880  30.868  21.490  10.592
36340W        W 2881   7.686  38.797   2.758
36341W        W 2882  33.791  11.718   2.184
36342W        W 2883  32.557  43.299  11.299
36343W        W 2884  35.965   3.474  11.865
36344W        W 2885  20.586  35.301   1.343
36345W        W 2886  27.845  25.527   3.342
36346W        W 2887   5.791   5.640  11.158
36347W        W 2888  41.903  44.469   2.899
36348W        W 2889  38.460  44.063   1.225
36349W        W 2890  13.842  20.303  11.238
36350W        W 2891  41.722  14.267  13.439
36351W        W 2892  22.016  26.162  13.820
36352W        W 2893   4.952  35.595   2.835
36353W        W 2894  10.276  21.695   2.356
36354W        W 2895  24.962  30.203   1.790
36355W        W 2896  21.407  18.822   0.702
36356W        W 2897   0.801  39.397  11.883
36357W        W 2898  16.045  20.335  12.599
36358W        W 2899  17.281  35.892  12.886
36359W        W 2900  22.526  10.358  11.233
36360W        W 2901  44.100  14.762  10.862
36361W        W 2902  36.928  17.631  13.898
36362W        W 2903  16.343   2.786   0.173
36363W        W 2904  39.035  24.236   1.868
36364W        W 2905  23.533  20.700  12.422
36365W        W 2906   4.829  13.362   1.803
36366W        W 2907  34.432  22.969  14.529
36367W        W 2908  19.663  20.033  14.837
36368W        W 2909  21.148  15.738   1.147
36369W        W 2910   1.181   8.629  12.493
36370W        W 2911  16.031   5.649  12.507
36371W        W 2912   5.507  28.764   4.569
36372W        W 2913   9.856  36.916   1.297
36373W        W 2914  12.618   2.186  11.065
36374W        W 2915   9.786  11.698  14.120
36375W        W 2916   9.081  30.587   1.076
36376W        W 2917   3.873  19.138  14.897
36377W        W 2918  20.393   5.675  14.248
36378W        W 2919  12.660  33.099  10.172
36379W        W 2920  13.891  24.230  12.496
36380W        W 2921  29.356  44.712  11.287
36381W        W 2922  38.865   0.398  12.673
36382W        W 2923  18.309   7.234  12.076
36383W        W 2924  19.088   4.419  13.113
36384W        W 2925  14.666  37.369   0.972
36385W        W 2926  25.147  17.117  12.359
36386W        W 2927  37.147  11.236   3.264
36387W        W 2928   9.558  40.429  12.025
36388W        W 2929  36.300  14.722   0.964
36389W        W 2930  22.853   2.327   1.102
36390W        W 2931   6.539  34.586  12.003
36391W        W 2932  37.837  41.839   3.765
36392W        W 2933  43.750   6.574  14.886
36393W        W 2934  23.338  38.850  13.128
36394W        W 2935   8.445  39.458   1.335
36395W        W 2936  14.178  21.052   1.708
36396W        W 2937   4.830  41.863   2.675
36397W        W 2938  27.259  17.756   4.420
36398W        W 2939  35.575  33.060   4.920
36399W        W 2940  31.618  12.179   1.804
36400W        W 2941  42.454  12.732   3.636
36401W        W 2942  13.075  24.265   4.128
36402W        W 2943   2.878  39.466   4.406
36403W        W 2944  24.691  44.201  14.553
36404W        W 2945   3.402   3.868   2.266
36405W        W 2946  39.445  35.556  12.030
36406W        W 2947  29.230   4.930   1.852
36407W        W 2948  23.286  34.467  14.937
36408W        W 2949  29.490  25.980   4.815
36409W        W 2950  15.961  22.945   2.878
36410W        W 2951  16.726  20.528  14.263
36411W        W 2952  18.059  23.232  14.393
36412W        W 2953   6.360  11.806   2.638
36413W        W 2954  14.702   9.238  13.765
36414W        W 2955   3.459   9.402  13.784
36415W        W 2956   6.319   9.756   2.399
36416W        W 2957  28.124  24.466   0.280
36417W        W 2958  30.899   9.136   1.081
36418W        W 2959  40.687  40.497   2.900
36419W        W 2960  23.459  13.821   0.307
36420W        W 2961  32.144  28.631   2.134
36421W        W 2962  24.484   0.924  13.149
36422W        W 2963  44.132  43.256  10.362
36423W        W 2964  29.052  26.217  12.461
36424W        W 2965  14.412  35.206  12.821
36425W        W 2966   0.546   7.260   3.984
36426W        W 2967  37.588  15.675  14.056
36427W        W 2968  14.861  30.429   3.119
36428W        W 2969  28.589  16.382   3.257
36429W        W 2970  40.335   1.891   3.194
36430W        W 2971  24.009  40.364  14.880
36431W        W 2972   8.315  34.484   3.801
36432W        W 2973  20.324  14.423  14.989
36433W        W 2974  29.906   4.424   1.222
36434W        W 2975  30.991  12.667   4.482
36435W        W 2976  15.276  21.182  12.655
36436W        W 2977  25.646  26.104  14.222
36437W        W 2978  37.197   9.976  14.240
36438W        W 2979  26.045  25.934  13.396
36439W        W 2980   9.314  15.335  11.117
36440W        W 2981  10.660  26.202  13.906
36441W        W 2982  32.984   0.331   1.326
36442W        W 2983  37.966  35.877   3.399
36443W        W 2984  27.715  29.178   1.486
36444W        W 2985  23.928   6.108  14.534
36445W        W 2986   0.732  35.893  14.399
36446W        W 2987  14.042   4.308  13.664
36447W        W 2988  15.562  29.597  11.108
36448W        W 2989   5.150  28.018   1.953
36449W        W 2990   5.270  30.093  12.546
36450W        W 2991  16.924  11.656   5.171
36451W        W 2992  10.150   7.347   1.682
36452W        W 2993  21.106  22.551   0.882
36453W        W 2994  29.775  36.134   4.706
36454W        W 2995  25.231  43.945   4.151
36455W        W 2996  29.489  37.694   0.011
36456W        W 2997   1.807   9.841   3.119
36457W        W 2998  35.853  42.927  13.107
36458W        W 2999  39.933   5.210  12.926
36459W        W 3000  15.315  39.924   2.773
36460W        W 3001   1.344  37.793  14.366
36461W        W 3002   1.976  19.222  13.693
36462W        W 3003   3.822   7.051   1.232
36463W        W 3004  36.895  31.986   2.954
36464W        W 3005  22.539  15.138  12.588
36465W        W 3006   6.814  32.217   0.178
36466W        W 3007  36.148  11.619  10.408
36467W        W 3008  14.009  28.142  12.706
36468W        W 3009  38.543   9.079   1.360
36469W        W 3010   7.431  39.889  12.611
36470W        W 3011  20.134  18.584  10.175
36471W        W 3012  12.112  37.956  11.511
36472W        W 3013  44.532  13.734  12.675
36473W        W 3014  21.983  19.878  13.421
36474W        W 3015  19.307  32.554  11.532
36475W        W 3016  42.341   9.747   0.928
36476W        W 3017   0.443  21.984   0.767
36477W        W 3018  36.816   7.825   2.271
36478W        W 3019   9.363  12.639  10.665
36479W        W 3020  13.849  40.825   3.107
36480W        W 3021  30.802  20.121  11.616
36481W        W 3022  33.545  39.402  14.930
36482W        W 3023  10.887  38.544  12.965
36483W        W 3024  39.880  32.015  11.523
36484W        W 3025  14.128  22.218  14.553
36485W        W 3026  34.959  14.275   0.411
36486W        W 3027  25.996  12.185  14.442
36487W        W 3028  12.634  41.205   1.665
36488W        W 3029  34.200  19.050   0.914
36489W        W 3030  16.823  33.090   1.687
36490W        W 3031  29.781  26.633   1.744
36491W        W 3032  24.712  17.136   3.190
36492W        W 3033   2.324   1.055  12.414
36493W        W 3034  17.132   0.787  14.367
36494W        W 3035  30.138  10.278  10.349
36495W        W 3036  12.083   1.854  11.538
36496W        W 3037  29.856  36.497  11.691
36497W        W 3038  20.814   1.786   3.058
36498W        W 3039  38.707  31.302  14.931
36499W        W 3040  25.879  36.980  14.885
36500W        W 3041  42.967   3.699  13.558
36501W        W 3042  36.681   8.881  13.544
36502W        W 3043  40.840  21.760  14.926
36503W        W 3044  10.795  12.425   0.270
36504W        W 3045   9.197  35.874  10.797
36505W        W 3046  39.268  19.151   2.299
36506W        W 3047  32.526  19.414  13.364
36507W        W 3048  41.933  19.579   2.329
36508W        W 3049  44.947   5.409  13.948
36509W        W 3050  11.940  26.531  12.045
36510W        W 3051  14.792  31.699   2.708
36511W        W 3052  13.062  27.903  11.990
36512W        W 3053  21.506  37.133   0.780
36513W        W 3054   1.974  35.872  12.995
36514W        W 3055  22.610  30.759  10.213
36515W        W 3056  13.225   1.845   2.216
36516W        W 3057  38.151  17.713  14.518
36517W        W 3058   5.850  33.204  14.397
36518W        W 3059  17.074   5.345   1.940
36519W        W 3060  18.812  15.238   2.742
36520W        W 3061  38.349  32.912   0.735
36521W        W 3062  34.381   3.562   4.989
36522W        W 3063  26.651   5.485  12.398
36523W        W 3064  29.393  35.077  12.486
36524W        W 3065   1.983  20.054  14.850
36525W        W 3066   1.319  21.474   3.370
36526W        W 3067   6.584  29.400   4.465
36527W        W 3068  42.949  19.670   3.255
36528W        W 3069  38.939  12.833  12.856
36529W        W 3070  25.609  39.235   0.283
36530W        W 3071  32.091   1.252  13.145
36531W        W 3072  13.133  17.161   4.496
36532W        W 3073  33.490  35.283   0.015
36533W        W 3074  42.525   7.273  12.933
36534W        W 3075   3.867  18.192  11.227
36535W        W 3076  10.410  10.434   1.976
36536W        W 3077  36.200  44.857  13.009
36537W        W 3078  15.111  42.921   9.884
36538W        W 3079  22.985   5.850  12.655
36539W        W 3080  23.111  36.610   2.343
36540W        W 3081  11.825  34.486   3.574
36541W        W 3082   8.954  13.098   0.648
36542W        W 3083  40.381   5.923  14.793
36543W        W 3084  26.518  13.269   4.304
36544W        W 3085  13.634   6.676   3.278
36545W        W 3086  34.558  19.044   1.273
36546W        W 3087   0.704  35.605   1.951
36547W        W 3088  18.075  25.891  14.564
36548W        W 3089   4.685   9.904   2.792
36549W        W 3090  26.202  32.854  11.545
36550W        W 3091   0.703   9.192  13.075
36551W        W 3092   5.229  13.752   1.274
36552W        W 3093  25.505  34.550  10.324
36553W        W 3094  38.578   0.704   3.231
36554W        W 3095  14.929  38.915   2.822
36555W        W 3096   7.791  35.342   4.904
36556W        W 3097  33.449  20.622  14.915
36557W        W 3098  16.073  16.211  14.390
36558W        W 3099  36.117  15.544   0.673
36559W        W 3100   7.333   4.269  10.699
36560W        W 3101   1.002  12.635  13.779
36561W        W 3102  29.089  19.292   0.953
36562W        W 3103  28.161   5.045   0.443
36563W        W 3104  31.968  14.301   1.446
36564W        W 3105  35.184  25.019  11.145
36565W        W 3106  35.468  28.009  14.011
36566W        W 3107  14.830  28.541   3.220
36567W        W 3108  41.659  42.738   3.924
36568W        W 3109  16.810  41.789  13.841
36569W        W 3110  12.691  33.100  12.899
36570W        W 3111  10.957  40.401   2.293
36571W        W 3112  26.518  13.340  11.758
36572W        W 3113  31.355  23.232  10.742
36573W        W 3114  10.167   8.394  14.578
36574W        W 3115  38.451  27.630   2.022
36575W        W 3116   2.950  44.969   1.328
36576W        W 3117  32.935  23.643   4.530
36577W        W 3118   8.650   1.818  12.022
36578W        W 3119  32.351   4.739  14.348
36579W        W 3120  20.404  31.076   4.607
36580W        W 3121  10.466  32.670   2.092
36581W        W 3122  31.622  41.309  10.610
36582W        W 3123  40.479  29.365   1.717
36583W        W 3124  25.455  20.172  12.162
36584W        W 3125  16.425  19.660  13.910
36585W        W 3126  39.641  41.252  13.436
36586W        W 3127  42.432  22.657   2.853
36587W        W 3128  15.290  22.064   2.828
36588W        W 3129   6.572  40.115   2.434
36589W        W 3130  11.448  30.889   4.076
36590W        W 3131   4.847  38.090   1.722
36591W        W 3132  20.769   5.178   0.570
36592W        W 3133   4.712   3.740   1.717
36593W        W 3134  25.459  20.727  12.077
36594W        W 3135  13.810  16.242   0.473
36595W        W 3136  21.545   9.147   2.317
36596W        W 3137  25.294  42.107  13.800
36597W        W 3138  10.624  25.971   4.596
36598W        W 3139  35.889  19.632  11.265
36599W        W 3140  13.652   5.484  11.936
36600W        W 3141  20.692   2.773   0.915
36601W        W 3142  30.570   4.406  12.381
36602W        W 3143  17.670  22.156  13.526
36603W        W 3144  13.548  28.869   4.050
36604W        W 3145  35.241  32.187  12.052
36605W        W 3146  12.745  25.122  13.761
36606W        W 3147  17.040   3.457  10.597
36607W        W 3148  27.546  14.292  10.789
36608W        W 3149  24.532  24.007   2.770
36609W        W 3150  43.732  36.878  11.085
36610W        W 3151  34.427  18.345   4.425
36611W        W 3152  11.665  16.527  10.621
36612W        W 3153  20.867  38.488  14.933
36613W        W 3154  44.359  24.422   3.204
36614W        W 3155  27.104   8.413  13.833
36615W        W 3156  42.551  26.132   2.862
36616W        W 3157  16.631  12.273  13.404
36617W        W 3158  37.537  28.028  14.930
36618W        W 3159  13.116  36.471  13.001
36619W        W 3160   5.207  41.240   4.929
36620W        W 3161   4.885  23.988   0.805
36621W        W 3162  25.527  30.752   2.335
36622W        W 3163  11.271  36.757  13.945
36623W        W 3164   3.642   8.765  14.348
36624W        W 3165  25.146  15.929  12.126
36625W        W 3166  24.598   5.953  14.220
36626W        W 3167  13.070  12.240  11.976
36627W        W 3168  26.571  43.622  11.008
36628W        W 3169  10.129  36.057   1.913
36629W        W 3170  15.131   0.098   1.950
36630W        W 3171  12.756   6.319   2.016
36631W        W 3172  39.494  11.783   0.160
36632W        W 3173  10.466   0.685  14.394
36633W        W 3174   9.754   2.191   0.649
36634W        W 3175  12.933  37.421  10.965
36635W        W 3176  30.673  30.298   3.848
36636W        W 3177   5.689   8.265  11.333
36637W        W 3178  16.244  29.174   4.115
36638W        W 3179  19.838   1.806   4.516
36639W        W 3180  40.395  21.490  14.970
36640W        W 3181   3.697   0.033   2.538
36641W        W 3182  42.748   5.190  14.998
36642W        W 3183  20.649  43.251  13.744
36643W        W 3184  24.685   6.708  11.500
36644W        W 3185  17.660  22.695   0.856
36645W        W 3186  36.470   3.401  11.045
36646W        W 3187  36.050  27.300   4.665
36647W        W 3188  43.971  13.256   0.730
36648W        W 3189  42.934  32.137   3.381
36649W        W 3190   4.022   7.343  12.891
36650W        W 3191  22.555  43.303   4.579
36651W        W 3192   4.084  22.149   9.897
36652W        W 3193  27.757  34.887   4.756
36653W        W 3194  22.135  36.319  13.539
36654W        W 3195   1.232  40.956  13.083
36655W        W 3196  28.193  28.174  10.815
36656W        W 3197  40.011  25.907  10.666
36657W        W 3198  31.472  42.872   2.726
36658W        W 3199   9.482  36.358  12.448
36659W        W 3200  37.998   4.902   3.170
36660W        W 3201  13.293  43.127   4.331
36661W        W 3202   2.444  10.362   3.072
36662W        W 3203  16.857   8.822   3.094
36663W        W 3204  35.365  29.459   4.514
36664W        W 3205  19.446  40.122   0.394
36665W        W 3206  34.481  31.143   0.094
36666W        W 3207  41.313  34.058   1.679
36667W        W 3208   4.396  39.207   5.042
36668W        W 3209  38.601  33.928  11.957
36669W        W 3210  29.381  40.429   1.476
36670W        W 3211  39.366  26.722  10.618
36671W        W 3212  23.075  14.069   4.812
36672W        W 3213  37.085  35.554  11.676
36673W        W 3214  39.549  32.341   2.734
36674W        W 3215  19.098  23.113   0.455
36675W        W 3216  21.919  41.469  13.917
36676W        W 3217   0.832  24.724  11.437
36677W        W 3218  19.535  28.605   4.533
36678W        W 3219   5.682  21.537   3.274
36679W        W 3220  10.467  32.910  13.443
36680W        W 3221  42.260  20.510   2.354
36681W        W 3222  35.378  14.529  12.025
36682W        W 3223  38.022  26.057   1.281
36683W        W 3224  38.383  13.345  14.234
36684W        W 3225  40.422  12.153  11.588
36685W        W 3226  10.333  11.633  10.594
36686W        W 3227  44.966   8.297  14.703
36687W        W 3228  34.019   6.832  14.776
36688W        W 3229  23.546  35.025  13.480
36689W        W 3230  14.386  10.987  11.639
36690W        W 3231  41.909  42.895  10.724
36691W        W 3232   1.096  43.113  14.088
36692W        W 3233  33.885  43.915  11.966
36693W        W 3234  12.137   9.718   4.577
36694W        W 3235  23.430  42.871  13.554
36695W        W 3236  17.528  35.406  10.721
36696W        W 3237   5.132  36.785   2.726
36697W        W 3238  36.268  20.128   2.343
36698W        W 3239  31.938   5.057  14.357
36699W        W 3240  38.591   2.746  12.520
36700W        W 3241   1.764  36.817   4.287
36701W        W 3242  32.333  13.807   1.214
36702W        W 3243   4.625  28.912  14.702
36703W        W 3244  12.354  11.645   0.239
36704W        W 3245   1.593  34.784  13.432
36705W        W 3246  24.512  21.746   3.755
36706W        W 3247  38.073  33.213   0.376
36707W        W 3248  43.576  34.919  10.826
36708W        W 3249  31.182   4.441  13.662
36709W        W 3250   6.370  14.061   4.497
36710W        W 3251   7.597  16.721   2.840
36711W        W 3252  36.278  43.539  10.642
36712W        W 3253  31.993   5.928   1.898
36713W        W 3254  13.309   8.521   0.917
36714W        W 3255  25.782   2.532  11.307
36715W        W 3256  39.932  24.534  13.629
36716W        W 3257  15.267  14.006  12.073
36717W        W 3258  10.836  39.331  14.048
36718W        W 3259  41.405  30.687   2.397
36719W        W 3260  38.496  32.588   1.904
36720W        W 3261  22.048  37.237  12.054
36721W        W 3262  22.531  44.204   2.407
36722W        W 3263   2.784  42.898   0.933
36723W        W 3264  17.520   0.895  14.020
36724W        W 3265   5.847  35.994  13.611
36725W        W 3266  25.219  12.456   1.922
36726W        W 3267  15.985  36.059  12.398
36727W        W 3268  25.442  24.085   1.368
36728W        W 3269   6.747  35.333  11.034
36729W        W 3270  24.313   0.758  13.965
36730W        W 3271  44.770  44.987   4.364
36731W        W 3272  23.485  43.869   3.777
36732W        W 3273  44.900  13.123   4.164
36733W        W 3274  17.503  31.929  14.940
36734W        W 3275  19.007  32.985  11.563
36735W        W 3276  22.804   8.266  14.882
36736W        W 3277  31.466  26.214  12.470
36737W        W 3278   0.494  29.506  11.525
36738W        W 3279  10.288   9.543   1.763
36739W        W 3280  20.614  16.569   1.385
36740W        W 3281  31.653  30.943  11.069
36741W        W 3282   3.008  12.253   3.977
36742W        W 3283   5.908  24.115  12.834
36743W        W 3284   2.769  27.748   3.721
36744W        W 3285  40.446  29.032  12.204
36745W        W 3286  43.364  25.272   4.220
36746W        W 3287  37.557  33.245  12.539
36747W        W 3288   4.956  26.806   5.466
36748W        W 3289  43.035  11.159  11.228
36749W        W 3290  42.339  26.898  13.126
36750W        W 3291  42.577  31.563  14.429
36751W        W 3292  38.505  33.939  10.763
36752W        W 3293   6.848  21.610  11.504
36753W        W 3294  17.723  21.708  14.280
36754W        W 3295  40.642   9.227   3.292
36755W        W 3296  26.934   7.425   2.687
36756W        W 3297  20.734  24.976  13.902
36757W        W 3298  28.802  43.954   0.475
36758W        W 3299  41.094  42.306   1.194
36759W        W 3300  34.078   2.079  14.865
36760W        W 3301   7.213  40.046  14.507
36761W        W 3302  23.046  14.240  11.692
36762W        W 3303  44.844  33.078   3.712
36763W        W 3304  39.899  21.231  14.222
36764W        W 3305  16.088  22.300  13.763
36765W        W 3306  29.507  33.064   4.073
36766W        W 3307  35.051   0.199   2.224
36767W        W 3308  21.215   7.630  12.168
36768W        W 3309  44.569  30.323  10.256
36769W        W 3310   6.879  17.599  12.632
36770W        W 3311  12.865  20.127  13.457
36771W        W 3312  31.374  38.255  11.070
36772W        W 3313  38.907  40.972   0.699
36773W        W 3314  20.172  27.433   3.204
36774W        W 3315  32.296  23.498  11.171
36775W        W 3316  36.086  42.021  11.558
36776W        W 3317   2.790  27.131   1.008
36777W        W 3318  22.156  14.159   3.881
36778W        W 3319  22.727  20.571  13.099
36779W        W 3320  13.800  21.589  14.938
36780W        W 3321   7.356   7.188   4.707
36781W        W 3322  33.812  22.715   3.271
36782W        W 3323  25.971  29.169  12.892
36783W        W 3324  29.980  16.691  13.890
36784W        W 3325  33.999  31.017  13.857
36785W        W 3326  33.557  14.199  11.907
36786W        W 3327  30.507  30.022   3.012
36787W        W 3328  18.301  10.711  12.467
36788W        W 3329   5.549  31.868  11.561
36789W        W 3330   7.337  34.661   2.334
36790W        W 3331   0.172  21.467   3.147
36791W        W 3332  39.928  32.098  14.722
36792W        W 3333   5.155   6.066   0.926
36793W        W 3334  40.891  28.020  13.198
36794W        W 3335  18.361  12.052   2.205
36795W        W 3336  35.002  19.303   1.221
36796W        W 3337  16.167  42.305  11.184
36797W        W 3338   0.904  43.026   3.266
36798W        W 3339  12.272  38.737  14.863
36799W        W 3340  28.678  37.291  14.959
36800W        W 3341  26.171  19.589  10.961
36801W        W 3342  42.980  33.109   2.298
36802W        W 3343  21.620  17.077   4.065
36803W        W 3344  22.105  26.177  11.572
36804W        W 3345  39.734  34.538  14.932
36805W        W 3346  44.448   6.123  13.401
36806W        W 3347   7.675  11.109   1.728
36807W        W 3348   8.871  17.624  11.093
36808W        W 3349   7.807  14.373   0.784
36809W        W 3350  34.915  42.054   1.215
36810W        W 3351   6.225  42.811  11.200
36811W        W 3352  43.936  11.202  11.146
36812W        W 3353  25.019  36.047   4.695
36813W        W 3354  23.228  25.169   1.119
36814W        W 3355  14.311  35.114  11.768
36815W        W 3356  10.822  38.686   2.612
36816W        W 3357  34.499  44.975  13.548
36817W        W 3358  42.890  16.832  10.702
36818W        W 3359  14.655  41.208   4.081
36819W        W 3360  24.608  17.950   4.352
36820W        W 3361  13.229   7.742  10.910
36821W        W 3362  25.085   9.262  11.606
36822W        W 3363  26.987  24.773   1.834
36823W        W 3364   2.963  39.739  14.891
36824W        W 3365  16.034  22.649   4.871
36825W        W 3366  15.128   6.880   0.941
36826W        W 3367   9.598   8.325   3.534
36827W        W 3368   0.160   5.152  14.833
36828W        W 3369  33.802  20.644   4.027
36829W        W 3370  24.505  34.320  11.800
36830W        W 3371  36.489  10.559   3.962
36831W        W 3372  19.691  33.208  14.403
36832W        W 3373   1.704  27.521   3.745
36833W        W 3374  11.585  15.655  10.708
36834W        W 3375  31.406  33.448   2.145
36835W        W 3376   2.407  26.736   0.381
36836W        W 3377  16.152  25.288   0.286
36837W        W 3378  18.549   5.305   2.742
36838W        W 3379   1.018  42.239   2.823
36839W        W 3380  36.410  12.481  14.446
36840W        W 3381  42.272  19.147   3.363
36841W        W 3382  25.964  36.913   2.400
36842W        W 3383   4.488  40.538   2.761
36843W        W 3384  37.092  41.505   0.854
36844W        W 3385  29.761  25.129   2.699
36845W        W 3386   0.275  42.299   4.022
36846W        W 3387  30.309  43.868  11.961
36847W        W 3388  17.782  32.623  12.350
36848W        W 3389   8.269  37.347   4.985
36849W        W 3390   5.829  23.526  14.053
36850W        W 3391  29.198  18.768  13.029
36851W        W 3392  17.928  39.317   4.566
36852W        W 3393  26.198  40.579  12.512
36853W        W 3394  12.103  36.252  11.281
36854W        W 3395  24.061  34.973  13.324
36855W        W 3396  39.898  32.821   1.840
36856W        W 3397   7.379  17.294  11.792
36857W        W 3398  40.379  44.423  11.986
36858W        W 3399   0.824  24.151  13.678
36859W        W 3400   0.871   8.954  11.721
36860W        W 3401  15.559  14.030  14.899
36861W        W 3402   0.727  37.173  13.770
36862W        W 3403  39.003  18.614   4.711
36863W        W 3404   3.298   6.179   4.591
36864W        W 3405  17.683   0.990  12.704
36865W        W 3406  38.637  14.818   2.688
36866W        W 3407  44.638  23.205   2.295
36867W        W 3408   7.773   5.699   2.855
36868W        W 3409  32.616  29.075  13.202
36869W        W 3410  29.107  19.781   0.191
36870W        W 3411   4.476  38.554   0.739
36871W        W 3412  25.496  38.465  13.990
36872W        W 3413  22.158  40.926  14.791
36873W        W 3414  16.119  39.975  13.962
36874W        W 3415   4.446  12.863  11.114
36875W        W 3416  34.525  22.482  13.148
36876W        W 3417   4.954  18.115   0.374
36877W        W 3418  13.597  29.587   1.229
36878W        W 3419   2.471  41.956  14.829
36879W        W 3420  23.972  20.637   4.881
36880W        W 3421   0.153  41.487   1.777
36881W        W 3422  24.078   7.159   2.684
36882W        W 3423  19.748  33.376   4.007
36883W        W 3424  19.126  24.265   0.914
36884W        W 3425  24.673  38.290  14.920
36885W        W 3426  15.690  21.134  12.970
36886W        W 3427  38.287  26.998   0.880
36887W        W 3428  13.840   5.373  11.463
36888W        W 3429  18.804  21.644   3.171
36889W        W 3430  25.987  15.680   3.748
36890W        W 3431  13.282   9.822  14.108
36891W        W 3432  10.624  42.491  10.135
36892W        W 3433  21.231  19.204  10.818
36893W        W 3434   6.185  35.204   1.385
36894W        W 3435  39.836   4.381  11.159
36895W        W 3436  35.681  19.140   4.694
36896W        W 3437  18.590  28.452  14.774
36897W        W 3438  29.182  34.477   2.757
36898W        W 3439  31.467  35.445   0.697
36899W        W 3440   9.271  28.255  13.986
36900W        W 3441  25.200  29.165  11.250
36901W        W 3442  11.733  14.211   3.710
36902W        W 3443  36.733  14.201   4.283
36903W        W 3444  13.922  35.761  14.455
36904W        W 3445   1.853   5.809   2.837
36905W        W 3446  39.216  32.811  12.312
36906W        W 3447  36.774   3.252  14.880
36907W        W 3448  35.590  10.506  14.942
36908W        W 3449  42.222   3.326  14.094
36909W        W 3450   4.960  29.747   5.062
36910W        W 3451   1.519  22.332  13.612
36911W        W 3452  40.790  18.953   4.554
36912W        W 3453  37.038  32.773   1.673
36913W        W 3454  38.555  34.544   2.732
36914W        W 3455  26.959  34.835   2.295
36915W        W 3456   9.141  29.455  13.266
36916W        W 3457  11.668  30.558   0.738
36917W        W 3458  44.822  17.134   4.116
36918W        W 3459  23.635   8.881  11.733
36919W        W 3460  38.389  26.683  14.920
36920W        W 3461  16.271  40.975   1.111
36921W        W 3462  23.676  12.816   0.441
36922W        W 3463  25.332  37.589  12.349
36923W        W 3464  12.568  40.911  13.340
36924W        W 3465   3.502  17.570   1.200
36925W        W 3466  32.432   9.778   1.841
36926W        W 3467  19.846  44.709  11.649
36927W        W 3468   9.389  44.436  13.732
36928W        W 3469   7.344  18.969   4.527
36929W        W 3470  32.477  33.685   0.785
36930W        W 3471   2.663  38.096   0.459
36931W        W 3472  11.770  20.857  10.277
36932W        W 3473  42.667  24.016   1.647
36933W        W 3474   8.696   6.667  10.688
36934W        W 3475  14.728   1.716  11.654
36935W        W 3476  31.354  18.113  13.436
36936W        W 3477  25.552  15.252  14.107
36937W        W 3478   6.850  19.814   2.407
36938W        W 3479  19.780  21.318   0.074
36939W        W 3480  30.982   0.775  11.616
36940W        W 3481  17.830  38.386  11.902
36941W        W 3482  29.309  39.016   4.594
36942W        W 3483   9.622   2.904  11.569
36943W        W 3484  13.758  29.636  12.950
36944W        W 3485  41.361  33.902   0.393
36945W        W 3486  15.071  26.138   4.975
36946W        W 3487   2.162  39.956   2.344
36947W        W 3488   7.813  13.217  14.357
36948W        W 3489  15.127   8.870  11.995
36949W        W 3490   6.658  30.814   3.342
36950W        W 3491  22.714  14.795   0.773
36951W        W 3492  34.139  31.371   3.742
36952W        W 3493   1.819  26.998  13.085
36953W        W 3494   1.221   6.249   3.301
36954W        W 3495  27.224   1.854   0.360
36955W        W 3496  25.170  32.904   1.967
36956W        W 3497   3.593  12.683   1.458
36957W        W 3498  32.834  24.016   4.187
36958W        W 3499  13.450   7.145   1.062
36959W        W 3500  18.252  38.555  14.444
36960W        W 3501  11.565  12.803  13.925
36961W        W 3502  40.238  38.030  13.113
36962W        W 3503  17.842  35.411   2.008
36963W        W 3504  30.904  41.971   3.589
36964W        W 3505   5.016  17.344  13.386
36965W        W 3506   8.208  30.154  11.086
36966W        W 3507  39.938  42.070  13.033
36967W        W 3508  37.882  29.642   2.283
36968W        W 3509  35.390  12.208   2.667
36969W        W 3510  18.855  35.993  10.414
36970W        W 3511  40.002  25.123  10.847
36971W        W 3512  26.582   9.155  10.831
36972W        W 3513  14.338  15.027  13.547
36973W        W 3514  12.692  26.433  12.940
36974W        W 3515  10.900  15.633   4.271
36975W        W 3516  19.206   9.167  11.835
36976W        W 3517   3.446   2.439   3.669
36977W        W 3518  38.338  18.433   4.017
36978W        W 3519  27.788  40.141   2.089
36979W        W 3520   1.149  22.949   3.272
36980W        W 3521  23.468  40.356   4.306
36981W        W 3522   8.375  43.204   3.193
36982W        W 3523   2.001  14.270  10.765
36983W        W 3524   7.467  41.890   4.048
36984W        W 3525  13.201  29.749   2.576
36985W        W 3526  28.130   2.131   3.120
36986W        W 3527  13.060  37.006  13.024
36987W        W 3528  39.346   0.333  10.391
36988W        W 3529  11.260  10.076  12.794
36989W        W 3530  28.229  15.716   2.788
36990W        W 3531   8.684  40.552  13.008
36991W        W 3532  18.863  29.442   2.749
36992W        W 3533  14.132  34.845   4.605
36993W        W 3534  25.130   8.319   4.146
36994W        W 3535  32.496  29.228  11.042
36995W        W 3536  42.060   0.706   1.313
36996W        W 3537   3.805  16.278   2.241
36997W        W 3538  26.879  30.998  12.096
36998W        W 3539   6.707  21.027  11.249
36999W        W 3540  33.933  44.299   3.278
37000W        W 3541  24.978   2.913  10.623
37001W        W 3542   8.655  44.126  14.734
37002W        W 3543  27.963  39.621  14.868
37003W        W 3544  44.550   9.627   3.639
37004W        W 3545  11.622   0.954  12.953
37005W        W 3546  11.660  42.039  13.815
37006W        W 3547  35.334  38.031   2.207
37007W        W 3548  44.486  11.252   2.432
37008W        W 3549  28.014  10.800  13.752
37009W        W 3550  16.641  20.797  14.720
37010W        W 3551  21.604  10.335   3.409
37011W        W 3552  15.081  29.554  14.496
37012W        W 3553  17.825  36.319  11.653
37013W        W 3554   0.486  36.469   1.508
37014W        W 3555  40.389  35.218   4.603
37015W        W 3556  22.099  10.386   3.193
37016W        W 3557   3.956  25.515  12.161
37017W        W 3558   6.822  13.793   4.604
37018W        W 3559  42.151  38.873  11.734
37019W        W 3560  12.640  18.766  13.489
37020W        W 3561   6.385  44.487   2.345
37021W        W 3562  17.386  27.431  11.611
37022W        W 3563   3.324  17.553  13.419
37023W        W 3564   6.108  23.125  11.590
37024W        W 3565  34.665   0.558   2.138
37025W        W 3566  16.121  25.058  11.238
37026W        W 3567  24.962   9.642  11.289
37027W        W 3568  13.166   5.384   0.442
37028W        W 3569  14.304  36.567  14.480
37029W        W 3570   9.048  27.317  10.484
37030W        W 3571  41.200  20.744  12.656
37031W        W 3572  16.722  28.337   4.093
37032W        W 3573  18.263  43.245   2.436
37033W        W 3574   7.667  14.369   4.127
37034W        W 3575   7.469  27.053  14.233
37035W        W 3576   5.638  39.864   2.265
37036W        W 3577  10.176   4.885   1.347
37037W        W 3578   6.315  32.814  11.469
37038W        W 3579  34.998   4.685  14.867
37039W        W 3580  12.381  29.983  13.360
37040W        W 3581   5.245  32.998  14.850
37041W        W 3582  42.269  11.389   0.302
37042W        W 3583  12.162  12.380  12.029
37043W        W 3584   4.965  18.222   3.239
37044W        W 3585  41.254  27.296  11.235
37045W        W 3586   1.935  15.645   2.844
37046W        W 3587  43.441  15.100   5.001
37047W        W 3588  43.733  11.049  13.747
37048W        W 3589   6.666  39.520   0.331
37049W        W 3590  27.576  34.403  11.668
37050W        W 3591   5.031  39.895  12.154
37051W        W 3592   4.851  39.072   2.792
37052W        W 3593  23.049  31.984  14.194
37053W        W 3594  33.363   0.344   1.965
37054W        W 3595  23.971  18.001  12.970
37055W        W 3596  21.125   7.224  14.128
37056W        W 3597   1.665   4.708  11.462
37057W        W 3598  34.006   0.249  14.405
37058W        W 3599  14.882  36.948   2.308
37059W        W 3600  14.893  34.532  14.408
37060W        W 3601  41.463  13.711  13.453
37061W        W 3602  40.763  44.345  14.171
37062W        W 3603  29.653  12.335   1.885
37063W        W 3604  15.779  18.081  12.175
37064W        W 3605  20.013  30.686   0.014
37065W        W 3606  35.125  13.643  14.812
37066W        W 3607   0.797  13.780  14.870
37067W        W 3608  18.870  27.540   0.736
37068W        W 3609  22.613  40.435  11.897
37069W        W 3610  34.969  13.583  13.365
37070W        W 3611  44.492  11.143   3.903
37071W        W 3612  27.354  38.603  13.052
37072W        W 3613   2.257   3.678   4.432
37073W        W 3614   5.151   8.449   0.460
37074W        W 3615  32.691  20.963   0.241
37075W        W 3616  35.667   8.322   1.473
37076W        W 3617  14.119  19.530   0.700
37077W        W 3618   3.653  33.894  11.079
37078W        W 3619  17.832  31.377   4.652
37079W        W 3620   6.279  30.495   1.614
37080W        W 3621  15.038   5.688  10.883
37081W        W 3622  44.952   6.596   0.612
37082W        W 3623   1.545  28.586   1.515
37083W        W 3624  13.712  38.845   1.380
37084W        W 3625  21.997  10.798   2.014
37085W        W 3626  40.614  12.781  11.603
37086W        W 3627  28.684  28.219   0.452
37087W        W 3628  23.985   4.987  12.928
37088W        W 3629   9.793  30.354  14.025
37089W        W 3630  39.653  18.806  11.452
37090W        W 3631  38.718  37.612   3.593
37091W        W 3632  25.025  39.868  11.954
37092W        W 3633  25.592  16.599  13.447
37093W        W 3634  29.373  25.117  13.051
37094W        W 3635   7.755  37.224  10.621
37095W        W 3636  41.783   1.260  12.877
37096W        W 3637  43.371   8.724  10.375
37097W        W 3638   0.491  39.792   0.788
37098W        W 3639  42.278  11.538  11.510
37099W        W 3640  18.839  23.705  10.444
37100W        W 3641  30.909  30.616   5.201
37101W        W 3642  28.614   8.852  14.793
37102W        W 3643  29.073   9.896  13.905
37103W        W 3644  14.784  39.908  13.649
37104W        W 3645  41.963   4.770   0.142
37105W        W 3646  31.849  37.431   3.532
37106W        W 3647   9.551   0.842   3.686
37107W        W 3648  26.767  14.062   1.374
37108W        W 3649  41.272  28.454  14.421
37109W        W 3650  20.101   6.056   0.207
37110W        W 3651  35.015  15.120  14.899
37111W        W 3652   3.630   1.766   0.836
37112W        W 3653  13.021   0.713  11.102
37113W        W 3654  11.239  42.929  11.254
37114W        W 3655  28.169  39.539   4.167
37115W        W 3656  12.061  39.419  14.325
37116W        W 3657  29.254  32.846  13.149
37117W        W 3658   2.023  37.273   0.295
37118W        W 3659  28.457  26.201   4.423
37119W        W 3660   8.673  37.864  14.779
37120W        W 3661   6.222  24.585  14.112
37121W        W 3662  11.290  27.522   4.216
37122W        W 3663  43.210  31.895  12.958
37123W        W 3664  30.209   9.314   2.297
37124W        W 3665   3.401  17.781   3.397
37125W        W 3666  28.605  20.003   4.529
37126W        W 3667  21.877  37.329  14.461
37127W        W 3668   2.710  13.102  12.996
37128W        W 3669   7.699  22.686  13.867
37129W        W 3670  34.177  35.981   3.222
37130W        W 3671  23.653  41.551   2.824
37131W        W 3672   7.628  37.341   2.371
37132W        W 3673  13.099  12.037   1.230
37133W        W 3674  43.081  40.337  14.064
37134W        W 3675   1.552  40.531   0.348
37135W        W 3676  19.357  10.203   4.233
37136W        W 3677  23.681  40.786  11.117
37137W        W 3678  29.569  32.348  12.115
37138W        W 3679  28.235  19.754   3.091
37139W        W 3680  23.798  34.462  11.234
37140W        W 3681  40.647  30.043  12.941
37141W        W 3682   9.055  18.286  11.994
37142W        W 3683  33.584  38.902   1.686
37143W        W 3684  14.072  27.619   0.237
37144W        W 3685  11.254  14.627   1.709
37145W        W 3686  19.082   1.261   2.722
37146W        W 3687  37.803  30.694  12.173
37147W        W 3688  28.981  19.222  13.426
37148W        W 3689   3.482  25.753   2.749
37149W        W 3690  43.909  41.492   2.286
37150W        W 3691  43.395   7.224   4.711
37151W        W 3692   0.512  35.529   3.289
37152W        W 3693  41.390   8.798   1.837
37153W        W 3694  14.688  19.952  14.342
37154W        W 3695   1.934  39.653   0.469
37155W        W 3696  16.710   1.165  13.046
37156W        W 3697  18.781  36.045  11.669
37157W        W 3698   0.634   3.182   4.626
37158W        W 3699  38.867  38.122  14.422
37159W        W 3700  11.034  10.489  11.916
37160W        W 3701  40.706  36.848   4.307
37161W        W 3702  12.365  27.078  12.360
37162W        W 3703   8.979  19.251  14.995
37163W        W 3704  22.559  39.338  12.981
37164W        W 3705  26.678  44.020  13.386
37165W        W 3706  34.131  18.257   1.366
37166W        W 3707  32.841  22.482  14.112
37167W        W 3708   3.651  22.976  13.790
37168W        W 3709  16.764  11.373  11.087
37169W        W 3710  11.393  21.614   0.357
37170W        W 3711  25.727   7.401  11.919
37171W        W 3712  10.354  39.325   1.682
37172W        W 3713   1.797  22.202   2.311
37173W        W 3714  18.052   7.284  12.524
37174W        W 3715  31.594  37.127  11.696
37175W        W 3716  38.786   5.866  11.151
37176W        W 3717  41.627   0.861  10.765
37177W        W 3718  15.686  19.492  14.477
37178W        W 3719  30.046  40.316  12.931
37179W        W 3720  41.597  36.901   2.233
37180W        W 3721   5.128  21.697   4.417
37181W        W 3722   9.077   6.343   5.043
37182W        W 3723  14.354  16.728   0.732
37183W        W 3724  17.756  43.767   2.158
37184W        W 3725   5.277  27.210  10.161
37185W        W 3726  12.116  42.737  11.228
37186W        W 3727  44.012  35.939   1.200
37187W        W 3728  28.423  43.939   1.775
37188W        W 3729  32.722  42.043   2.634
37189W        W 3730  12.546  40.959  14.361
37190W        W 3731  12.884  30.336   2.405
37191W        W 3732  29.925   0.302  12.001
37192W        W 3733  36.393  32.073  14.875
37193W        W 3734   7.463  44.513  13.054
37194W        W 3735  23.551   6.870   4.443
37195W        W 3736  15.491  38.898   0.896
37196W        W 3737   4.794  13.831  13.493
37197W        W 3738  26.709  21.654   2.829
37198W        W 3739  40.978   6.982   4.534
37199W        W 3740  37.420  17.913  12.820
37200W        W 3741   1.439  29.118  10.399
37201W        W 3742   0.263   2.928   4.891
37202W        W 3743  24.145   8.928   1.822
37203W        W 3744  39.044  12.712  13.564
37204W        W 3745   8.405  20.572  11.115
37205W        W 3746  15.013  34.475   2.069
37206W        W 3747  15.059  41.423  11.625
37207W        W 3748   8.845  14.658  11.525
37208W        W 3749  44.822   0.737  11.976
37209W        W 3750  11.670  41.780  14.264
37210W        W 3751  16.850  42.305   0.589
37211W        W 3752  15.561  26.658  13.391
37212W        W 3753  42.265  22.654  13.063
37213W        W 3754  13.218  33.546  11.126
37214W        W 3755  18.067  23.496   1.138
37215W        W 3756  40.614  33.675   2.406
37216W        W 3757  23.617  25.640  10.691
37217W        W 3758  24.602  40.834   0.433
37218W        W 3759  44.311   7.269  14.545
37219W        W 3760   1.067  38.623   3.389
37220W        W 3761  41.308  17.302  12.413
37221W        W 3762  21.241  42.386  13.577
37222W        W 3763  40.066  21.458  13.776
37223W        W 3764   2.002  42.257  12.368
37224W        W 3765  41.543  37.119   2.708
37225W        W 3766  30.544  30.574  11.451
37226W        W 3767  42.575   4.670   3.280
37227W        W 3768  44.342  40.368  12.901
37228W        W 3769   4.854   8.917   2.810
37229W        W 3770  26.374  15.333  12.321
37230W        W 3771  12.279  27.195   4.589
37231W        W 3772  37.093   8.592   2.868
37232W        W 3773  28.301  20.650  13.882
37233W        W 3774  41.877   6.334  13.285
37234W        W 3775  43.251  28.136   3.800
37235W        W 3776  31.187  41.452  13.507
37236W        W 3777   8.177  36.944   0.761
37237W        W 3778  38.086  40.101   2.186
37238W        W 3779  15.164  12.911   4.492
37239W        W 3780   0.195  15.751   0.370
37240W        W 3781  23.295  27.016   2.237
37241W        W 3782   7.403   9.092  12.913
37242W        W 3783  10.659  44.527  14.949
37243W        W 3784  21.717  38.523   2.777
37244W        W 3785  28.416  31.069  10.695
37245W        W 3786  30.522  25.010  10.631
37246W        W 3787  37.450  14.091  10.958
37247W        W 3788  22.141  40.080   1.854
37248W        W 3789  41.029  23.034  11.021
37249W        W 3790  32.302   7.257   4.550
37250W        W 3791  18.704  38.250   1.662
37251W        W 3792  17.789  21.262   4.439
37252W        W 3793   5.001  41.460   0.739
37253W        W 3794  43.343  43.522  11.425
37254W        W 3795  43.839  18.147  11.276
37255W        W 3796   8.889  19.183  13.611
37256W        W 3797  21.024  25.645   1.776
37257W        W 3798  27.640  33.928   3.487
37258W        W 3799  33.392   6.971  14.525
37259W        W 3800  28.618  27.963   0.906
37260W        W 3801  22.885  31.629  11.621
37261W        W 3802  42.625  29.769  10.857
37262W        W 3803  44.568  21.465  13.515
37263W        W 3804  16.687  31.834  12.584
37264W        W 3805   8.794  33.366   3.608
37265W        W 3806  27.688  26.227   2.793
37266W        W 3807  32.980  39.968   3.312
37267W        W 3808  25.513  27.653   1.270
37268W        W 3809  39.124  18.720   1.353
37269W        W 3810  35.818  26.165   1.559
37270W        W 3811  40.458  40.270   0.874
37271W        W 3812  17.483  26.679   9.921
37272W        W 3813  15.134  29.611   1.221
37273W        W 3814  42.746   7.893   0.465
37274W        W 3815  25.673   9.370   2.269
37275W        W 3816  15.107   9.371  12.848
37276W        W 3817  39.933  15.326  13.342
37277W        W 3818  44.985  39.878  12.917
37278W        W 3819   5.445  35.964  14.489
37279W        W 3820  18.256  23.485   4.100
37280W        W 3821  31.030  36.299  13.102
37281W        W 3822  34.124   2.649  12.598
37282W        W 3823  15.782  34.700   1.242
37283W        W 3824  35.484  36.062  11.782
37284W        W 3825   0.508  14.702   0.727
37285W        W 3826  31.792  36.751  14.010
37286W        W 3827  38.610  43.524  10.391
37287W        W 3828  22.165  40.525   3.821
37288W        W 3829  15.645  16.643   0.462
37289W        W 3830  32.649  31.418   1.765
37290W        W 3831   4.802  31.726  13.920
37291W        W 3832  24.676   7.819   4.493
37292W        W 3833  24.749  16.680  10.306
37293W        W 3834  25.117  11.059  14.781
37294W        W 3835  14.332  15.943  12.672
37295W        W 3836  11.773   8.618  13.972
37296W        W 3837  38.495  33.065  11.328
37297W        W 3838  26.293  10.148  12.535
37298W        W 3839  15.284  32.123   3.653
37299W        W 3840  20.965  43.859   2.589
37300W        W 3841  17.734  28.111   0.769
37301W        W 3842  16.803  10.826  14.377
37302W        W 3843  30.752  22.177  12.932
37303W        W 3844  19.669  14.635   3.566
37304W        W 3845  12.644  21.570   4.146
37305W        W 3846  33.852  40.719  13.865
37306W        W 3847   2.763  35.416   2.121
37307W        W 3848  12.504  15.255  11.478
37308W        W 3849  39.367   0.035   1.169
37309W        W 3850  28.568  31.028  13.211
37310W        W 3851   1.666   6.141   3.591
37311W        W 3852   2.788   8.691   4.201
37312W        W 3853  22.194  17.370  13.396
37313W        W 3854  21.073  20.150   1.115
37314W        W 3855  31.488   9.593   0.900
37315W        W 3856  36.889  12.685  14.895
37316W        W 3857  10.461  20.185   2.309
37317W        W 3858  22.299  40.415  12.379
37318W        W 3859  32.959  20.470   4.210
37319W        W 3860  24.192   3.560  12.475
37320W        W 3861  39.462  23.096   0.116
37321W        W 3862   6.348  34.300   0.380
37322W        W 3863  36.402  15.747   4.569
37323W        W 3864  14.732  44.931  13.796
37324W        W 3865  41.124  11.431   9.873
37325W        W 3866  35.957  28.139  14.311
37326W        W 3867  43.721  31.001   3.218
37327W        W 3868  40.031  15.580  12.198
37328W        W 3869  31.568  13.721  14.841
37329W        W 3870  34.769  31.860  10.309
37330W        W 3871  33.081  14.696   3.107
37331W        W 3872  35.881   4.020   3.229
37332W        W 3873   1.778  31.630  12.552
37333W        W 3874  42.168  36.769  10.988
37334W        W 3875  43.042   1.403  14.281
37335W        W 3876  14.290  22.956  12.001
37336W        W 3877  24.700  19.491  11.883
37337W        W 3878  26.027  15.045   0.588
37338W        W 3879  17.014  37.968   4.671
37339W        W 3880   4.768  29.143   4.076
37340W        W 3881  14.067  43.397   0.407
37341W        W 3882  33.995  26.450   0.283
37342W        W 3883   0.992  26.096   4.409
37343W        W 3884  29.420  43.374  12.421
37344W        W 3885  16.375  33.262  13.561
37345W        W 3886  19.037  22.269  11.951
37346W        W 3887  25.210  28.329   0.326
37347W        W 3888  40.416  12.194   5.154
37348W        W 3889  42.827  38.764   0.298
37349W        W 3890  34.984  23.202   0.928
37350W        W 3891  29.269   8.709   1.955
37351W        W 3892   6.455   0.800   4.738
37352W        W 3893  10.889  33.974  10.558
37353W        W 3894  37.935   7.239  11.653
37354W        W 3895  11.342  11.471  10.892
37355W        W 3896  11.042   6.211   2.670
37356W        W 3897  14.596  19.826  13.462
37357W        W 3898  34.347  24.710  12.509
37358W        W 3899   8.438  43.347   0.738
37359W        W 3900   6.592   5.307  10.619
37360W        W 3901   2.196  35.024  12.089
37361W        W 3902   1.911  34.670  11.116
37362W        W 3903  24.972  31.645  11.187
37363W        W 3904  33.612   2.061   2.605
37364W        W 3905   7.708  31.113  12.566
37365W        W 3906  26.121  23.919   2.676
37366W        W 3907  11.427  33.535  12.478
37367W        W 3908  22.518  16.308   4.620
37368W        W 3909  43.732  12.830   1.859
37369W        W 3910  10.858  42.011   1.821
37370W        W 3911  14.621  26.750   2.304
37371W        W 3912  31.153  38.553   3.291
37372W        W 3913  38.193  36.013  11.436
37373W        W 3914  12.148  12.347   3.195
37374W        W 3915  40.413  21.333   4.651
37375W        W 3916  21.552  26.233   1.030
37376W        W 3917  24.564  19.809   2.119
37377W        W 3918  24.646   5.017   5.387
37378W        W 3919  18.089  31.654  11.166
37379W        W 3920  33.134  16.782   2.869
37380W        W 3921   8.290  26.459  11.114
37381W        W 3922  33.280  20.973  13.342
37382W        W 3923  15.669  43.446  12.122
37383W        W 3924   1.819  34.588  12.510
37384W        W 3925  10.661   7.497   3.382
37385W        W 3926  14.981   0.120  12.439
37386W        W 3927  43.051  12.239   4.247
37387W        W 3928  38.025  40.696  13.727
37388W        W 3929  30.368   9.762   1.557
37389W        W 3930   9.834   7.916   3.735
37390W        W 3931  11.538  16.131   4.697
37391W        W 3932  31.482  33.938  12.865
37392W        W 3933  33.113  23.629  10.826
37393W        W 3934  28.958   1.494  13.803
37394W        W 3935  19.486   4.731   0.038
37395W        W 3936  16.842   9.239  11.206
37396W        W 3937  42.865  40.476   1.441
37397W        W 3938  35.092   2.241   2.187
37398W        W 3939  29.156  18.044  11.103
37399W        W 3940  44.524   9.415   1.228
37400W        W 3941  42.804  17.598   3.231
37401W        W 3942  14.789  36.063   0.031
37402W        W 3943   5.745  40.598  10.739
37403W        W 3944  14.124  19.157  11.672
37404W        W 3945   6.686  39.620  13.466
37405W        W 3946  36.031  16.838   0.937
37406W        W 3947  29.984  28.949  14.587
37407W        W 3948  14.733   5.254   0.275
37408W        W 3949  41.301  18.283  10.853
37409W        W 3950   6.607  42.213  11.495
37410W        W 3951  15.986  12.732   4.711
37411W        W 3952   0.267  41.973   1.779
37412W        W 3953  21.039  26.380   4.876
37413W        W 3954   5.346   9.093  11.468
37414W        W 3955  39.761  14.644  12.478
37415W        W 3956  16.181  27.742  12.954
37416W        W 3957   3.918  35.447  14.851
37417W        W 3958   7.908   1.834   3.381
37418W        W 3959  13.403  35.092   1.914
37419W        W 3960  38.901  22.920   4.099
37420W        W 3961  14.419  44.556  11.751
37421W        W 3962  30.717  30.926   0.301
37422W        W 3963   6.912  44.353  14.057
37423W        W 3964  32.871   4.972  14.520
37424W        W 3965  17.253   5.884  13.238
37425W        W 3966  23.099  29.919   3.309
37426W        W 3967  20.070  35.652  14.851
37427W        W 3968  43.022  37.889   4.747
37428W        W 3969  14.595  41.317   9.908
37429W        W 3970  32.860  26.817   3.947
37430W        W 3971  40.257  13.052  14.350
37431W        W 3972  38.933  41.842   0.252
37432W        W 3973   8.324  13.638   4.107
37433W        W 3974  15.389  30.096   1.215
37434W        W 3975  27.787  19.938   2.086
37435W        W 3976  24.516  39.922   2.054
37436W        W 3977  11.857  43.099  12.911
37437W        W 3978  41.595  42.899   4.501
37438W        W 3979  36.038  31.801   1.354
37439W        W 3980  35.017  25.144   0.428
37440W        W 3981  36.083  23.270   4.462
37441W        W 3982  15.622  26.056  12.056
37442W        W 3983  23.204  17.002   0.042
37443W        W 3984  36.315  13.142  11.930
37444W        W 3985  42.340  16.141   3.028
37445W        W 3986  33.077  37.949  13.141
37446W        W 3987  17.576  41.123   4.766
37447W        W 3988  42.309  20.313   3.708
37448W        W 3989  43.350  12.121  10.753
37449W        W 3990  31.910  21.982   2.432
37450W        W 3991  12.587  38.932   3.642
37451W        W 3992   8.200  11.293  12.421
37452W        W 3993  26.948  30.156   1.708
37453W        W 3994  26.791  14.253  14.715
37454W        W 3995  12.995  15.192  12.910
37455W        W 3996  43.619  24.141   9.875
37456W        W 3997  24.043   4.776   1.831
37457W        W 3998  30.010   2.980  13.866
37458W        W 3999  42.803   0.826   4.213
37459W        W 4000   5.918   0.714   3.125
37460W        W 4001  24.305  11.529  11.289
37461W        W 4002  23.676  17.560   0.169
37462W        W 4003   8.935   9.717   2.877
37463W        W 4004  44.743  29.198  11.158
37464W        W 4005  34.563  26.500   3.312
37465W        W 4006  24.257  32.567  14.030
37466W        W 4007  15.387  42.190   3.246
37467W        W 4008  41.770  24.836   3.641
37468W        W 4009  14.516   4.680   2.312
37469W        W 4010   1.114   9.625   1.969
37470W        W 4011   6.562  24.220   1.432
37471W        W 4012   4.900  20.737  14.398
37472W        W 4013  15.869   6.671  14.817
37473W        W 4014   3.213   2.686  14.393
37474W        W 4015  10.539  21.218  10.607
37475W        W 4016  27.053  31.384  10.662
37476W        W 4017  40.080   7.810  12.188
37477W        W 4018  20.594  21.617  12.534
37478W        W 4019   5.141  20.667  12.504
37479W        W 4020   6.952  27.521   1.668
37480W        W 4021   2.022  30.731  13.976
37481W        W 4022  32.087  35.182   4.418
37482W        W 4023  41.071  23.036   0.053
37483W        W 4024  33.181   0.458   2.443
37484W        W 4025  12.800  40.663  12.170
37485W        W 4026  25.908   6.930  13.426
37486W        W 4027   0.453  17.137  12.309
37487W        W 4028  17.470   4.747  11.491
37488W        W 4029   6.755   1.391  12.017
37489W        W 4030   7.668  22.744   1.392
37490W        W 4031  30.400  14.126  13.269
37491W        W 4032  30.850  18.915  10.936
37492W        W 4033  44.353  28.150   1.924
37493W        W 4034  12.116  21.771  11.688
37494W        W 4035  40.580  11.238  14.864
37495W        W 4036   6.119  41.921  13.058
37496W        W 4037  41.512  19.279  12.277
37497W        W 4038  42.966   0.076   2.903
37498W        W 4039  18.364  24.294  12.033
37499W        W 4040  35.169  25.554   2.117
37500W        W 4041  16.510  17.485   0.974
37501W        W 4042  25.089  18.888  11.177
37502W        W 4043  41.362  39.255  13.816
37503W        W 4044   6.305  15.102   3.636
37504W        W 4045  18.643  11.332   4.721
37505W        W 4046  41.939  28.010   4.106
37506W        W 4047   7.855  24.512  11.210
37507W        W 4048  42.398  10.743   1.128
37508W        W 4049   1.021  26.615  14.877
37509W        W 4050  13.016   6.206   4.698
37510W        W 4051  35.930  19.306   4.136
37511W        W 4052   5.692  20.892  14.279
37512W        W 4053  43.041  27.594  12.465
37513W        W 4054  30.844  38.974   3.160
37514W        W 4055  36.907  33.605   3.636
37515W        W 4056  26.160  11.546   3.864
37516W        W 4057  28.201  31.265  13.496
37517W        W 4058  38.282  17.169   1.737
37518W        W 4059   9.340  30.349   0.668
37519W        W 4060  29.557  39.050   1.264
37520W        W 4061  37.394  21.365   4.028
37521W        W 4062  42.559  24.551  14.287
37522W        W 4063  36.914  36.138  13.387
37523W        W 4064   4.198  14.333  12.092
37524W        W 4065  24.681  22.269   2.603
37525W        W 4066   6.370  13.210  14.575
37526W        W 4067  38.904  40.410  14.961
37527W        W 4068  36.308  18.832  11.803
37528W        W 4069   4.125  11.684  14.421
37529W        W 4070  19.045  39.829   0.154
37530W        W 4071  34.052  42.499  11.946
37531W        W 4072  17.801  12.880   1.992
37532W        W 4073  37.062  31.074  12.401
37533W        W 4074  39.849  15.383  10.491
37534W        W 4075  35.330  23.612   1.729
37535W        W 4076  17.641  43.608  11.113
37536W        W 4077   1.952  21.117  12.601
37537W        W 4078   4.007  10.762  14.918
37538W        W 4079   3.492  20.203   4.238
37539W        W 4080  32.997  29.053   2.342
37540W        W 4081  14.264  40.777   2.790
37541W        W 4082  30.038  14.776  14.432
37542W        W 4083  22.293  24.492   1.809
37543W        W 4084  17.956  39.567  12.473
37544W        W 4085  18.228  36.345  13.578
37545W        W 4086  21.937  41.898   1.474
37546W        W 4087  16.669  33.054  13.935
37547W        W 4088  34.860  34.033  12.147
37548W        W 4089  27.211  20.841  12.584
37549W        W 4090  43.767   0.993   3.227
37550W        W 4091  28.663   0.604   3.868
37551W        W 4092  25.251  17.522  10.789
37552W        W 4093  42.761  40.438   0.464
37553W        W 4094  29.624  15.528  13.928
37554W        W 4095   2.379  43.651   1.569
37555W        W 4096   8.274  11.495  12.944
37556W        W 4097  40.983  18.537   3.802
37557W        W 4098  25.332  19.572  10.270
37558W        W 4099  37.993  40.331  10.672
37559W        W 4100  11.091   1.843  10.655
37560W        W 4101  24.176  21.693   0.963
37561W        W 4102  29.218  33.474   0.708
37562W        W 4103  39.060  35.559   0.052
37563W        W 4104  11.329  43.393  13.797
37564W        W 4105  25.037  29.600  14.759
37565W        W 4106   8.145  38.835   2.528
37566W        W 4107  44.522  24.887  14.342
37567W        W 4108  38.724   6.225   3.168
37568W        W 4109  42.499  13.008   4.659
37569W        W 4110   5.395  23.073   2.673
37570W        W 4111  25.257   5.503  11.152
37571W        W 4112   8.076  18.687  10.803
37572W        W 4113  38.367  25.190  11.098
37573W        W 4114  27.428  15.963  11.842
37574W        W 4115  43.830  28.025  10.709
37575W        W 4116  25.847  19.277   3.873
37576W        W 4117  44.993  39.873  10.532
37577W        W 4118  42.914  36.938  14.955
37578W        W 4119  23.937   6.296   9.905
37579W        W 4120  31.982   5.655   1.441
37580W        W 4121  36.235  13.495  12.368
37581W        W 4122   4.482   9.652   3.709
37582W        W 4123  28.999   5.012  13.891
37583W        W 4124  26.041   9.722  11.867
37584W        W 4125  13.882  35.002  10.833
37585W        W 4126  24.292   5.355  13.159
37586W        W 4127   3.022  16.826   3.429
37587W        W 4128   1.010   3.418   2.342
37588W        W 4129  44.304   9.840   3.223
37589W        W 4130   0.700  32.520   3.547
37590W        W 4131  20.297  39.723  14.338
37591W        W 4132   8.632  43.626   2.264
37592W        W 4133  25.697  37.150  11.098
37593W        W 4134  40.515  12.160   4.102
37594W        W 4135  17.530  12.366  14.850
37595W        W 4136  18.467  16.285  12.341
37596W        W 4137  37.407  44.678   1.642
37597W        W 4138   5.451  21.335  10.549
37598W        W 4139  37.246   1.897  10.038
37599W        W 4140  44.465  43.281  12.643
37600W        W 4141   4.701  14.702   2.799
37601W        W 4142   5.814   4.037  12.956
37602W        W 4143  33.052  40.391  11.582
37603W        W 4144  14.211  25.564   0.136
37604W        W 4145  19.795  30.998   3.548
37605W        W 4146  34.904  28.087  14.839
37606W        W 4147  27.777  12.133  12.869
37607W        W 4148  38.945   9.135  12.106
37608W        W 4149  19.706  26.597   2.975
37609W        W 4150   9.572  30.804  10.482
37610W        W 4151  13.628   3.807  14.265
37611W        W 4152  37.659  11.239  11.587
37612W        W 4153   4.427  43.377  12.353
37613W        W 4154  28.664  36.021   1.708
37614W        W 4155   8.171   8.488   4.085
37615W        W 4156  15.824   5.173  11.200
37616W        W 4157  22.699  24.933   0.446
37617W        W 4158  40.959  44.525  14.991
37618W        W 4159  39.302  18.073  14.006
37619W        W 4160  41.080  42.515  10.692
37620W        W 4161  16.666  30.489  13.949
37621W        W 4162   9.280  37.115  12.981
37622W        W 4163  30.031   2.258  14.338
37623W        W 4164  39.438   0.795  14.260
37624W        W 4165  38.766  23.787  14.892
37625W        W 4166  29.705  27.992   4.871
37626W        W 4167  17.887  44.963  10.692
37627W        W 4168  23.379  21.585   0.249
37628W        W 4169   5.453   3.794   3.148
37629W        W 4170  32.810  11.154  14.362
37630W        W 4171   6.705   8.185   3.847
37631W        W 4172   5.938  15.207  13.355
37632W        W 4173  26.668  16.344   2.291
37633W        W 4174  21.949  38.983   2.858
37634W        W 4175  43.521  25.445   3.764
37635W        W 4176  35.353   5.232  13.342
37636W        W 4177  22.538  28.887  11.593
37637W        W 4178   1.475  43.768   4.651
37638W        W 4179   1.483  12.915  11.573
37639W        W 4180  17.100  16.581   0.445
37640W        W 4181   8.659   4.200   0.787
37641W        W 4182  27.952  26.114   4.177
37642W        W 4183  10.100  29.510  13.622
37643W        W 4184  20.929  15.105   2.179
37644W        W 4185   4.811  24.016   4.017
37645W        W 4186   6.377  29.990   1.677
37646W        W 4187  16.296   3.302  11.148
37647W        W 4188  32.162   7.269   3.654
37648W        W 4189  29.392  18.221   4.421
37649W        W 4190  17.292   8.751  14.245
37650W        W 4191  12.067  38.279  13.792
37651W        W 4192   2.405  39.964  13.919
37652W        W 4193  25.632  37.169  12.390
37653W        W 4194  20.890   5.530  14.256
37654W        W 4195  17.680   5.716   3.666
37655W        W 4196  22.473   1.941   0.460
37656W        W 4197  16.995  34.579   3.752
37657W        W 4198  12.202   0.326  11.725
37658W        W 4199   8.664  22.538   1.424
37659W        W 4200  21.943  35.545   3.778
37660W        W 4201  32.787  14.885   1.829
37661W        W 4202  38.859  23.112  12.014
37662W        W 4203  21.717  26.398   1.872
37663W        W 4204  37.940  11.213   0.168
37664W        W 4205   5.338  24.261   0.807
37665W        W 4206  37.802  28.292  11.153
37666W        W 4207  42.709   7.352   0.470
37667W        W 4208  20.257  12.646  14.369
37668W        W 4209  19.772   7.607   3.298
37669W        W 4210  29.439   3.839   3.386
37670W        W 4211  11.709   3.757   4.368
37671W        W 4212  22.013  17.256   0.890
37672W        W 4213   2.745  39.328  11.438
37673W        W 4214  38.112  25.144  13.734
37674W        W 4215  26.756  13.879   0.506
37675W        W 4216  38.458  27.872   0.538
37676W        W 4217  30.658  12.050  11.643
37677W        W 4218   5.848  43.546  12.757
37678W        W 4219  33.017  26.321   3.832
37679W        W 4220  31.354  44.399  14.935
37680W        W 4221  32.989  33.360  14.443
37681W        W 4222  41.819  18.294  10.741
37682W        W 4223  39.969  12.105  11.133
37683W        W 4224  19.469  35.763  12.551
37684W        W 4225  25.558   0.348   2.431
37685W        W 4226  39.103  19.549   3.208
37686W        W 4227  10.000   8.658   5.408
37687W        W 4228  17.701   5.210  14.901
37688W        W 4229   4.799  33.858  12.412
37689W        W 4230  12.822   5.246   0.861
37690W        W 4231  37.502  31.818   3.785
37691W        W 4232  24.946  13.745  13.558
37692W        W 4233  17.103  32.017  14.334
37693W        W 4234   3.235   1.823   3.105
37694W        W 4235  30.377  30.076  13.338
37695W        W 4236  10.223   6.317  12.014
37696W        W 4237  33.884  43.553  14.847
37697W        W 4238  24.454  38.573  14.462
37698W        W 4239   1.478   0.228  14.304
37699W        W 4240  17.215   5.830  10.540
37700W        W 4241   6.194  21.399   3.184
37701W        W 4242  42.806  32.059  14.356
37702W        W 4243  12.620  10.711   3.520
37703W        W 4244  18.699  28.965   4.533
37704W        W 4245  25.787   1.325  14.492
37705W        W 4246  44.175  14.725   1.891
37706W        W 4247  39.295   9.215   2.737
37707W        W 4248  42.877  43.478   0.764
37708W        W 4249   7.380  17.554  12.821
37709W        W 4250  25.782  42.346  12.481
37710W        W 4251  40.305   3.328   1.074
37711W        W 4252  28.016  31.856   1.297
37712W        W 4253  33.360  18.548  11.124
37713W        W 4254  11.795  26.762  14.354
37714W        W 4255  19.028  44.688   2.682
37715W        W 4256  14.210  16.634   1.233
37716W        W 4257  23.490  33.109   2.296
37717W        W 4258  11.785  40.308  11.981
37718W        W 4259  11.733  12.112  12.048
37719W        W 4260  29.201  28.352  11.565
37720W        W 4261  36.151  13.450  14.976
37721W        W 4262  41.133   1.920  13.914
37722W        W 4263  30.615  37.646  13.393
37723W        W 4264  33.071  42.814   2.131
37724W        W 4265  33.884  41.923   0.960
37725W        W 4266  30.070  24.989   1.386
37726W        W 4267  44.207  10.403  14.830
37727W        W 4268   6.606   4.242  13.310
37728W        W 4269   2.381  34.386   2.835
37729W        W 4270  39.312   3.504   1.258
37730W        W 4271  10.240   0.971  13.524
37731W        W 4272  21.032   7.066   1.251
37732W        W 4273  31.779  42.202  13.917
37733W        W 4274  35.659  41.518   3.212
37734W        W 4275  36.902  38.263   2.638
37735W        W 4276  36.146  24.958   2.760
37736W        W 4277  37.825  18.984  14.114
37737W        W 4278  20.742  13.404  11.920
37738W        W 4279  37.207   1.587   3.612
37739W        W 4280  33.032  13.810   2.627
37740W        W 4281  25.709   4.850   9.873
37741W        W 4282  19.730   2.406   2.765
37742W        W 4283   6.778  30.160  11.099
37743W        W 4284  26.494  27.168   3.606
37744W        W 4285  21.323   3.415   0.014
37745W        W 4286  10.898   4.216  11.559
37746W        W 4287   8.316  37.923  13.761
37747W        W 4288   8.826   3.975   1.650
37748W        W 4289  35.050  10.297  12.610
37749W        W 4290  32.655  38.844  11.001
37750W        W 4291  37.084  44.925  13.892
37751W        W 4292  19.800  24.955   0.185
37752W        W 4293   3.701   3.858   2.690
37753W        W 4294  23.953  16.139   4.593
37754W        W 4295  12.216  33.406   1.800
37755W        W 4296  30.612  21.193  12.595
37756W        W 4297  41.116   8.760  14.305
37757W        W 4298  28.226  44.770  12.647
37758W        W 4299  14.697  12.459  13.843
37759W        W 4300  19.555  37.394   1.808
37760W        W 4301   8.956  20.095   4.444
37761W        W 4302  34.984  22.956  11.470
37762W        W 4303  11.883  22.496   2.808
37763W        W 4304  36.134  44.256   0.967
37764W        W 4305   0.321   8.865   1.292
37765W        W 4306   7.657  12.247  14.538
37766W        W 4307  38.757   8.838  10.978
37767W        W 4308  39.973  32.915  11.618
37768W        W 4309  14.015  31.691   3.502
37769W        W 4310  22.715  11.203  14.270
37770W        W 4311   9.288  19.865  11.880
37771W        W 4312  42.280  18.807  12.538
37772W        W 4313  16.555   8.727   1.817
37773W        W 4314  21.173  30.442  11.373
37774W        W 4315  33.502  35.920  14.326
37775W        W 4316  19.585   4.161   5.031
37776W        W 4317  37.870  14.285  13.949
37777W        W 4318   0.288   6.933   1.011
37778W        W 4319  14.652  11.021  14.432
37779W        W 4320  44.058  11.688  11.089
37780W        W 4321  26.606  35.868   0.276
37781W        W 4322  35.137  34.494   0.771
37782W        W 4323  15.070  38.049   2.730
37783W        W 4324  10.587  35.386   4.178
37784W        W 4325  42.421  36.943  11.831
37785W        W 4326  28.161  43.893  12.528
37786W        W 4327  19.767   5.255  13.888
37787W        W 4328  33.612  38.869  11.467
37788W        W 4329  20.010  33.075   3.563
37789W        W 4330   1.291   1.512   1.839
37790W        W 4331  33.523   6.249  12.181
37791W        W 4332  22.542  33.575   2.354
37792W        W 4333  44.114  33.892   1.623
37793W        W 4334  12.381  26.038   3.331
37794W        W 4335  40.804  25.462  12.527
37795W        W 4336   4.335  21.837  14.793
37796W        W 4337   1.008  33.359  12.504
37797W        W 4338  35.986  38.151  13.496
37798W        W 4339  13.349   0.680   3.180
37799W        W 4340  42.053   1.704  12.079
37800W        W 4341   9.837  38.996  11.996
37801W        W 4342  40.415  21.307  10.651
37802W        W 4343  14.230  33.299  14.348
37803W        W 4344  23.242  40.057   1.403
37804W        W 4345  15.336  28.933  11.175
37805W        W 4346  13.163   4.573  11.095
37806W        W 4347  29.695  15.576   2.588
37807W        W 4348  27.836  22.958  13.199
37808W        W 4349  18.072   7.570   2.732
37809W        W 4350  26.632  18.741  14.397
37810W        W 4351  33.480  29.854  12.815
37811W        W 4352  36.547  28.685  10.550
37812W        W 4353  27.582  35.130  10.638
37813W        W 4354  41.519  22.771   3.074
37814W        W 4355  17.249  42.300   0.953
37815W        W 4356   5.470  34.558   4.190
37816W        W 4357  10.058  24.308   0.732
37817W        W 4358  36.625  36.876   0.272
37818W        W 4359  17.520  28.984  12.531
37819W        W 4360  35.877  32.367  13.929
37820W        W 4361   9.723  33.357   1.199
37821W        W 4362  33.063  31.180  11.828
37822W        W 4363  27.741   4.320  11.231
37823W        W 4364  14.405  26.113  11.338
37824W        W 4365  14.877  25.348   3.727
37825W        W 4366   2.833  28.612   0.273
37826W        W 4367  23.566  42.747  13.034
37827W        W 4368  21.144  43.822   0.718
37828W        W 4369   3.642  13.191  11.676
37829W        W 4370   0.818  28.679  13.850
37830W        W 4371  19.785  33.847   3.175
37831W        W 4372  43.310  27.008  13.152
37832W        W 4373  29.143  17.787   1.212
37833W        W 4374  26.507  27.857  11.155
37834W        W 4375   5.420  33.695   2.759
37835W        W 4376   5.011  40.286  12.808
37836W        W 4377  33.680  29.244  11.735
37837W        W 4378  14.479  12.410   1.271
37838W        W 4379   2.800  16.204  11.702
37839W        W 4380   3.395  41.610   0.680
37840W        W 4381  22.653  30.457  10.714
37841W        W 4382  22.620  19.758   0.985
37842W        W 4383  12.426  30.342   0.396
37843W        W 4384  12.868  35.549  11.951
37844W        W 4385   5.833  21.049  12.183
37845W        W 4386  28.704  18.045   1.178
37846W        W 4387  20.010  24.951  11.223
37847W        W 4388  29.721  35.486  12.521
37848W        W 4389  37.448  24.816  10.707
37849W        W 4390  42.506  12.329  10.696
37850W        W 4391  40.130  38.308  11.140
37851W        W 4392  28.065  33.886  14.237
37852W        W 4393  35.623   5.087  10.743
37853W        W 4394  24.479  13.740   2.277
37854W        W 4395   0.228  34.334   4.594
37855W        W 4396  32.462  43.821   1.400
37856W        W 4397   9.338  14.159   2.181
37857W        W 4398   9.735   8.705  10.700
37858W        W 4399   4.738  11.118   0.491
37859W        W 4400  35.395  43.380  11.046
37860W        W 4401  28.399  37.867  12.508
37861W        W 4402  32.506   5.831   0.331
37862W        W 4403  32.363  19.782   1.059
37863W        W 4404  37.781  34.465   3.060
37864W        W 4405  30.705   8.983  11.149
37865W        W 4406  33.968  15.683   3.090
37866W        W 4407  18.506  29.828   2.670
37867W        W 4408  32.594  31.348   0.898
37868W        W 4409   7.310  28.056   2.779
37869W        W 4410  43.358  29.397   4.634
37870W        W 4411  24.041  27.346   0.419
37871W        W 4412  37.570  20.565   1.555
37872W        W 4413  33.474   7.817  13.828
37873W        W 4414  28.638  20.240   3.186
37874W        W 4415  12.908  28.467   4.858
37875W        W 4416   1.517  30.990  12.935
37876W        W 4417  33.960  21.676   3.258
37877W        W 4418  13.879  23.636  13.418
37878W        W 4419  24.091  10.349   2.260
37879W        W 4420  19.822   3.606   2.338
37880W        W 4421  15.700  14.282  11.991
37881W        W 4422  19.081  42.979   1.833
37882W        W 4423   7.131   4.744   4.750
37883W        W 4424  18.403   2.785   3.798
37884W        W 4425  14.630   4.589  12.557
37885W        W 4426  16.299   4.263   4.533
37886W        W 4427  23.518  23.651   3.246
37887W        W 4428  43.195  41.073   2.207
37888W        W 4429   2.389  20.958   1.214
37889W        W 4430  30.040  10.296   3.236
37890W        W 4431  31.121  10.648   5.056
37891W        W 4432   4.454  28.235   3.729
37892W        W 4433  14.560  36.042  12.415
37893W        W 4434  42.195  27.445  11.165
37894W        W 4435   8.714  29.893   3.113
37895W        W 4436  26.527  35.956   4.610
37896W        W 4437  29.275   2.815  12.949
37897W        W 4438   6.701  17.037   0.767
37898W        W 4439  27.077  41.132   3.933
37899W        W 4440  30.942  10.018   4.224
37900W        W 4441  28.456  15.364  11.565
37901W        W 4442  44.418  25.228   4.715
37902W        W 4443  26.650  14.573   4.880
37903W        W 4444  32.688  11.630   4.149
37904W        W 4445  20.016  15.695   2.884
37905W        W 4446  44.742   4.671   1.271
37906W        W 4447  18.825  17.772  10.785
37907W        W 4448  21.337   7.663  13.411
37908W        W 4449  11.192  20.350  12.931
37909W        W 4450  27.924   3.901  11.607
37910W        W 4451  37.036  24.902  10.975
37911W        W 4452  36.056  35.105  14.317
37912W        W 4453  17.997  28.942   1.791
37913W        W 4454  26.525   2.133  14.208
37914W        W 4455  22.249  31.146   4.873
37915W        W 4456   9.572  30.693  10.998
37916W        W 4457  14.318  21.089   5.189
37917W        W 4458  16.073  31.015   1.037
37918W        W 4459  14.823  42.569   1.448
37919W        W 4460  10.252  37.603  11.339
37920W        W 4461   2.417  44.738  13.359
37921W        W 4462   4.777  23.127  11.680
37922W        W 4463  39.388  23.609   4.900
37923W        W 4464  39.365  10.269  11.977
37924W        W 4465  21.230  15.923  14.346
37925W        W 4466  16.307  10.436   4.973
37926W        W 4467  18.221  23.492  11.625
37927W        W 4468  39.705  39.024   0.269
37928W        W 4469  40.818  11.129   1.193
37929W        W 4470  22.339   0.609  11.460
37930W        W 4471   2.057  23.620   3.816
37931W        W 4472  38.248   5.747   2.227
37932W        W 4473  22.774  18.584  11.757
37933W        W 4474   5.288  29.137  10.730
37934W        W 4475  22.102  38.535  12.894
37935W        W 4476  32.062   4.217  12.189
37936W        W 4477  41.441  11.594  11.389
37937W        W 4478  13.183  30.580  14.423
37938W        W 4479  14.165  23.596   4.776
37939W        W 4480  29.037  35.847  14.949
37940W        W 4481  43.967  38.345  12.442
37941W        W 4482  21.600  11.113  14.729
37942W        W 4483  15.525  29.490   3.710
37943W        W 4484  22.967   4.810   1.816
37944W        W 4485  43.597  10.307  12.029
37945W        W 4486  36.951  28.881   2.361
37946W        W 4487  25.749  39.797   1.249
37947W        W 4488  24.205  37.843   3.312
37948W        W 4489  32.974  34.453   4.105
37949W        W 4490   2.144  17.263  14.927
37950W        W 4491  10.049   8.540  13.464
37951W        W 4492   0.775  18.011   4.278
37952W        W 4493  12.389   4.938   4.310
37953W        W 4494  33.875  24.092   4.184
37954W        W 4495  29.443   0.768  11.592
37955W        W 4496  35.928  27.102   4.178
37956W        W 4497  36.418  43.833   0.794
37957W        W 4498  43.741  17.956   0.240
37958W        W 4499  44.637   7.651  14.387
37959W        W 4500   2.921  33.914  14.484
37960W        W 4501  20.169  41.532   1.771
37961W        W 4502  22.691  17.873   2.824
37962W        W 4503  34.963  38.481   4.635
37963W        W 4504  34.952  23.431   3.689
37964W        W 4505  22.230   7.894   0.945
37965W        W 4506  39.526  38.644  14.466
37966W        W 4507  35.389  18.760  11.767
37967W        W 4508  41.431  25.528   4.126
37968W        W 4509  10.137  38.656   2.397
37969W        W 4510  18.731  19.117   3.102
37970W        W 4511  32.365   6.789   3.860
37971W        W 4512  33.194   5.331   2.654
37972W        W 4513  37.398  44.868  11.617
37973W        W 4514  17.162  28.598   9.938
37974W        W 4515  26.592  36.750  11.460
37975W        W 4516   0.600  41.170   1.719
37976W        W 4517  25.412   6.443  11.984
37977W        W 4518  38.394  34.308   2.278
37978W        W 4519   6.640  15.746   3.595
37979W        W 4520  21.493   4.876  12.088
37980W        W 4521   9.742  26.079   4.752
37981W        W 4522  16.242   9.942  13.164
37982W        W 4523  18.977  33.502   3.464
37983W        W 4524  29.938  11.179  10.260
37984W        W 4525  27.004  19.625   2.440
37985W        W 4526  35.741  33.767   2.117
37986W        W 4527  20.279  35.335   3.859
37987W        W 4528  26.033  14.288   1.693
37988W        W 4529  44.929  26.571  12.550
37989W        W 4530  35.389   0.989  14.398
37990W        W 4531  42.082  36.590   0.292
37991W        W 4532  39.720  27.966  11.110
37992W        W 4533  38.841  30.184   1.983
37993W        W 4534  11.799  39.041   2.395
37994W        W 4535  22.593   7.332  12.024
37995W        W 4536  33.834  14.688  11.658
37996W        W 4537  38.599   1.341  13.029
37997W        W 4538  34.359  20.069   1.958
37998W        W 4539   2.871  34.069  14.962
37999W        W 4540   3.358  42.545   4.213
38000W        W 4541  31.910   9.369  14.105
38001W        W 4542  10.079  27.318  11.609
38002W        W 4543  44.768  22.791  13.134
38003W        W 4544   5.179  25.512   0.015
38004W        W 4545  41.900  10.199   4.662
38005W        W 4546   5.513  14.193  14.476
38006W        W 4547  13.550  38.822   1.894
38007W        W 4548  18.483  22.049  13.418
38008W        W 4549  10.885  25.755   4.213
38009W        W 4550  34.498  18.879  11.182
38010W        W 4551   5.535  20.682  11.606
38011W        W 4552  33.345  44.704  12.134
38012W        W 4553   4.674  28.821   1.637
38013W        W 4554  26.431  28.106   1.297
38014W        W 4555   4.237  20.465   4.862
38015W        W 4556  23.660   9.610   1.801
38016W        W 4557   4.734  20.904   1.802
38017W        W 4558  43.520  43.906  14.335
38018W        W 4559  14.404  38.482   0.401
38019W        W 4560   2.513  31.976  12.917
38020W        W 4561   9.726   8.639  11.636
38021W        W 4562  18.125  43.064  11.558
38022W        W 4563  16.206   7.122  11.120
38023W        W 4564  24.412   7.374  14.067
38024W        W 4565  17.975   0.923  10.931
38025W        W 4566  14.218  33.480  11.931
38026W        W 4567  10.912  27.484   2.834
38027W        W 4568  12.393  12.608   2.805
38028W        W 4569   9.955  27.622   2.205
38029W        W 4570  14.619   4.485   1.746
38030W        W 4571  15.057  20.690  13.362
38031W        W 4572  28.029  20.621  12.955
38032W        W 4573   8.919  15.583  11.587
38033W        W 4574  23.604  30.864   3.697
38034W        W 4575  24.923  36.129  13.919
38035W        W 4576  36.760   4.588   3.333
38036W        W 4577  25.402  14.171   4.973
38037W        W 4578  11.103  20.991  13.838
38038W        W 4579   9.932  40.779  11.536
38039W        W 4580   3.415  30.094   4.015
38040W        W 4581  23.932  16.709  13.993
38041W        W 4582  18.816   7.373  12.106
38042W        W 4583  35.515  17.717   0.769
38043W        W 4584  39.850  43.985   3.585
38044W        W 4585  24.583   9.161  13.439
38045W        W 4586  40.944  36.506  14.662
38046W        W 4587  30.623  33.416  12.190
38047W        W 4588  12.832  24.195   3.201
38048W        W 4589  14.441  29.994  14.465
38049W        W 4590  13.726  34.474   4.334
38050W        W 4591  13.257  39.411  11.787
38051W        W 4592  10.329  10.098  11.712
38052W        W 4593  27.081  16.440  13.288
38053W        W 4594   8.109  40.927   3.141
38054W        W 4595  35.446  33.083   1.003
38055W        W 4596  40.332  18.254   2.295
38056W        W 4597   1.326  18.715   0.919
38057W        W 4598   1.820  13.498   4.482
38058W        W 4599  27.904  21.827   2.991
38059W        W 4600  11.900  31.005  14.881
38060W        W 4601  28.104  29.743   3.299
38061W        W 4602  31.545  41.862  11.499
38062W        W 4603   5.251  31.412   2.709
38063W        W 4604  40.585  32.746  11.481
38064W        W 4605  33.201   3.562   3.268
38065W        W 4606  37.525  29.071  11.569
38066W        W 4607  33.363   0.734   4.026
38067W        W 4608   6.776  22.466   0.943
38068W        W 4609  30.589  30.584   1.064
38069W        W 4610  23.604   8.981  13.116
38070W        W 4611  23.673  23.351  12.437
38071W        W 4612  32.518  36.209   2.989
38072W        W 4613  11.540  24.729   2.341
38073W        W 4614   8.574   3.834  12.284
38074W        W 4615  23.496  42.829   0.237
38075W        W 4616  43.897  37.332  10.908
38076W        W 4617   7.761  28.720   2.166
38077W        W 4618  32.172  24.996  13.437
38078W        W 4619  22.522  25.785   3.579
38079W        W 4620  19.367  18.137  10.740
38080W        W 4621  18.402  38.375   4.831
38081W        W 4622  10.788  15.803  11.071
38082W        W 4623  28.094   3.035  13.450
38083W        W 4624   8.461  32.106  11.196
38084W        W 4625  10.611  10.759  13.374
38085W        W 4626  41.012  11.304  14.323
38086W        W 4627  13.331  13.936   3.833
38087W        W 4628  29.740   7.126  11.101
38088W        W 4629   3.365   1.076  14.226
38089W        W 4630   7.297  26.503   1.452
38090W        W 4631  36.608  23.699  14.347
38091W        W 4632  16.215  40.925   2.156
38092W        W 4633  15.734   4.554   1.832
38093W        W 4634  12.267  39.780  11.521
38094W        W 4635   8.953  19.193  11.165
38095W        W 4636  15.957  33.439  11.831
38096W        W 4637  11.314  34.452   3.893
38097W        W 4638  29.394  25.736   1.265
38098W        W 4639  34.624  40.608  14.448
38099W        W 4640   9.955  34.389   1.207
38100W        W 4641  33.520  35.291  12.511
38101W        W 4642  27.063  21.124   2.216
38102W        W 4643  25.209  33.562   4.550
38103W        W 4644  32.975   7.965  12.057
38104W        W 4645  38.968  16.783   0.878
38105W        W 4646  20.668  37.440   9.882
38106W        W 4647  19.093  20.072  14.420
38107W        W 4648  12.880  12.111  13.383
38108W        W 4649   1.451   9.361  13.760
38109W        W 4650   6.206  10.641   2.123
38110W        W 4651   8.437   6.817  13.470
38111W        W 4652   6.738  34.969  13.777
38112W        W 4653  23.872  12.745  11.701
38113W        W 4654   2.233   8.772   1.854
38114W        W 4655  16.124  44.353   3.849
38115W        W 4656  32.552  40.725  12.882
38116W        W 4657  28.350  12.395  11.204
38117W        W 4658  41.008   2.830  13.583
38118W        W 4659  38.938  43.862  10.644
38119W        W 4660  28.430  13.543  10.302
38120W        W 4661  19.817  25.035   4.247
38121W        W 4662  40.552  41.275   0.673
38122W        W 4663  22.184  27.478  11.988
38123W        W 4664  13.827  22.059   1.375
38124W        W 4665  34.584  10.215  14.257
38125W        W 4666   5.088  10.420  13.019
38126W        W 4667  41.744  41.835   0.021
38127W        W 4668  31.975  21.356  10.654
38128W        W 4669  28.698  32.139   0.766
38129W        W 4670  35.417  35.892  10.925
38130W        W 4671  42.973  13.389  10.019
38131W        W 4672   1.012  19.777   1.728
38132W        W 4673  16.180  15.607   0.756
38133W        W 4674  24.517  19.195   3.186
38134W        W 4675  37.230  10.839  13.956
38135W        W 4676  27.168   1.327   0.312
38136W        W 4677  44.021  27.032   4.103
38137W        W 4678  40.859  17.553   4.573
38138W        W 4679   5.683   6.717   0.011
38139W        W 4680  12.170  25.677   3.687
38140W        W 4681  43.234   1.164   4.668
38141W        W 4682  28.491  17.679   3.021
38142W        W 4683  22.275   2.085  13.588
38143W        W 4684  17.238  31.203  12.852
38144W        W 4685  38.039  42.229   2.633
38145W        W 4686  19.762  39.429  12.278
38146W        W 4687  28.346  40.852   1.821
38147W        W 4688  13.327   5.219  11.595
38148W        W 4689   8.844  20.687   0.771
38149W        W 4690  28.971   6.966  12.907
38150W        W 4691  34.475  18.553   1.109
38151W        W 4692  28.241   5.830   2.858
38152W        W 4693  17.724   7.366   2.384
38153W        W 4694  43.858   7.836   1.877
38154W        W 4695  36.898  39.005   4.560
38155W        W 4696  14.730  31.054  13.883
38156W        W 4697  19.695  11.132   4.991
38157W        W 4698  43.982   6.300  13.624
38158W        W 4699  15.612  18.966  14.399
38159W        W 4700  34.305  24.586   4.736
38160W        W 4701   0.368  39.480   3.747
38161W        W 4702   9.647  23.042   4.347
38162W        W 4703  39.170   8.394  14.291
38163W        W 4704   8.186   3.736   4.549
38164W        W 4705   2.797  10.688  11.859
38165W        W 4706  29.959  12.363   0.501
38166W        W 4707  31.192  42.441   2.852
38167W        W 4708  23.999   2.031  12.546
38168W        W 4709  21.234  14.171  13.166
38169W        W 4710  44.409  41.743  10.563
38170W        W 4711   7.919  37.202   2.771
38171W        W 4712  32.833  41.514   1.818
38172W        W 4713  10.261  32.622   1.277
38173W        W 4714   9.565  15.546   1.366
38174W        W 4715  14.072  14.800  11.079
38175W        W 4716  13.572   3.397  13.503
38176W        W 4717  29.721   1.832   4.109
38177W        W 4718  22.624   5.734  14.438
38178W        W 4719  33.126  38.621  13.951
38179W        W 4720   5.779   1.492   1.763
38180W        W 4721  35.561  19.260   0.816
38181W        W 4722  33.145  20.661  14.285
38182W        W 4723  29.880   8.774   0.168
38183W        W 4724  14.337  38.802  12.871
38184W        W 4725  34.013   1.077  11.084
38185W        W 4726  39.430  24.786   0.796
38186W        W 4727  12.019  13.591   0.820
38187W        W 4728   0.210   0.563   2.324
38188W        W 4729  38.212  23.559  12.497
38189W        W 4730  42.842  43.419   3.678
38190W        W 4731  29.476  25.576   2.586
38191W        W 4732  19.141  38.443   0.443
38192W        W 4733  15.821  13.990   1.625
38193W        W 4734  15.618  42.705   4.089
38194W        W 4735   3.024  14.036  13.040
38195W        W 4736  35.577  33.093  11.904
38196W        W 4737  16.068  44.293   1.299
38197W        W 4738   7.736  15.508  10.561
38198W        W 4739  11.858  22.625  14.482
38199W        W 4740  15.679  26.546  12.399
38200W        W 4741  33.457   7.287  14.091
38201W        W 4742  41.022  27.991  13.748
38202W        W 4743  21.522  36.911  11.045
38203W        W 4744  32.580  30.686   2.202
38204W        W 4745  29.621  19.707   4.640
38205W        W 4746  14.148  23.351  13.820
38206W        W 4747  10.293  13.821  11.169
38207W        W 4748  41.585   4.788  11.320
38208W        W 4749   5.444   5.425   3.330
38209W        W 4750  36.521  16.139  12.781
38210W        W 4751   8.247  42.596  13.562
38211W        W 4752  14.069  34.989  10.325
38212W        W 4753  16.179  10.929   3.147
38213W        W 4754  18.830  20.992   0.874
38214W        W 4755  13.979   6.620  13.344
38215W        W 4756  26.707  32.597  13.867
38216W        W 4757  29.218   4.740  12.531
38217W        W 4758  30.585  22.743   1.180
38218W        W 4759   2.931  41.712  12.339
38219W        W 4760  23.965  17.573  12.129
38220W        W 4761   7.337  27.501  11.132
38221W        W 4762  29.318  43.809   0.419
38222W        W 4763  12.073  43.080  11.636
38223W        W 4764   7.175  40.992   4.337
38224W        W 4765  17.717  11.225   2.237
38225W        W 4766  11.172   1.394  11.914
38226W        W 4767   6.713  29.171  10.943
38227W        W 4768  10.725  40.169  14.874
38228W        W 4769  31.947  43.402  12.650
38229W        W 4770  32.061  20.468   2.268
38230W        W 4771  23.283  39.017  12.631
38231W        W 4772   2.190  20.687  14.051
38232W        W 4773   7.292  19.683  14.967
38233W        W 4774  37.639  28.179   0.428
38234W        W 4775  17.003  19.491   2.226
38235W        W 4776   5.210   8.969   0.338
38236W        W 4777   6.940  44.333   4.560
38237W        W 4778  22.536  12.374  12.515
38238W        W 4779  44.694   5.514  14.392
38239W        W 4780  42.036  19.593  10.244
38240W        W 4781  26.949  22.775  14.390
38241W        W 4782   6.313  38.467  14.899
38242W        W 4783  23.010  25.501  14.733
38243W        W 4784  16.805   2.052  14.243
38244W        W 4785   0.376   2.230  13.392
38245W        W 4786  41.774  29.476   1.422
38246W        W 4787   9.376   5.652  10.400
38247W        W 4788   4.925  27.985  13.540
38248W        W 4789  33.120   1.558   3.844
38249W        W 4790  15.361  11.277  14.101
38250W        W 4791  28.241  37.373  11.550
38251W        W 4792  26.719   0.716  12.112
38252W        W 4793  19.893  19.399  10.633
38253W        W 4794  44.095  31.503  10.847
38254W        W 4795  24.161  21.681  12.967
38255W        W 4796   8.270  31.346   2.679
38256W        W 4797  27.498   3.241   0.455
38257W        W 4798  23.096  14.667  12.020
38258W        W 4799   2.231  21.907   3.963
38259W        W 4800  22.485  34.974  13.385
38260W        W 4801   6.340   5.405   2.684
38261W        W 4802  40.825   8.389  11.001
38262W        W 4803  22.237   1.593   1.758
38263W        W 4804   1.787  44.312   1.422
38264W        W 4805   4.710  44.464  11.564
38265W        W 4806  34.993   5.853  13.889
38266W        W 4807  23.143  19.075   1.094
38267W        W 4808  28.733  42.974  11.574
38268W        W 4809  40.837  40.947  14.063
38269W        W 4810   1.830  15.675   4.441
38270W        W 4811  30.457   2.251  14.959
38271W        W 4812  21.236  34.613  10.443
38272W        W 4813  21.231  26.265  13.560
38273W        W 4814  34.467   4.308   3.556
38274W        W 4815  41.236  16.217  14.849
38275W        W 4816   2.233  22.182   0.706
38276W        W 4817  22.169  15.853  11.991
38277W        W 4818  27.523  24.181   1.176
38278W        W 4819   6.279  23.233   0.869
38279W        W 4820   8.907  12.276  13.009
38280W        W 4821   7.241   8.688  13.714
38281W        W 4822  34.132  12.611   3.750
38282W        W 4823  39.309  12.822  10.273
38283W        W 4824   4.439  23.692   1.899
38284W        W 4825  23.938  35.135  14.785
38285W        W 4826   2.994  21.182   0.346
38286W        W 4827  33.673   4.149  13.738
38287W        W 4828  22.288  12.216  13.994
38288W        W 4829  39.834  19.137   3.070
38289W        W 4830   8.206  36.063   3.543
38290W        W 4831  41.561  20.482  10.876
38291W        W 4832   0.991  34.658   1.822
38292W        W 4833  31.402  36.921   0.027
38293W        W 4834  10.167   8.908   3.321
38294W        W 4835  29.651  44.067   1.734
38295W        W 4836  40.888  25.235  10.945
38296W        W 4837  29.089  18.797   0.331
38297W        W 4838  32.624  15.344  12.555
38298W        W 4839   9.190  40.937   1.199
38299W        W 4840   1.731   0.428   3.627
38300W        W 4841  25.475   1.618   4.503
38301W        W 4842  25.251   2.314  12.103
38302W        W 4843  18.362  36.347  11.635
38303W        W 4844  34.067  19.979   2.387
38304W        W 4845  22.550   8.757   4.667
38305W        W 4846  40.300   6.227  13.455
38306W        W 4847  31.198  30.382   1.874
38307W        W 4848  37.400  23.097   3.642
38308W        W 4849   6.187  12.724  10.258
38309W        W 4850  39.548  24.217  12.906
38310W        W 4851   5.688  37.356   1.636
38311W        W 4852  20.713  25.360  12.428
38312W        W 4853  33.909   3.305   0.297
38313W        W 4854   5.194  30.155  13.062
38314W        W 4855  21.237   1.192   3.746
38315W        W 4856  10.999   5.855  14.827
38316W        W 4857   9.820  10.657  13.900
38317W        W 4858  35.819  23.437  13.590
38318W        W 4859   9.183   3.041  12.520
38319W        W 4860  41.960  12.082   0.342
38320W        W 4861   1.598   8.358   1.400
38321W        W 4862  16.034  11.436   3.259
38322W        W 4863  38.866  10.346  11.684
38323W        W 4864  29.934  18.112   1.293
38324W        W 4865  19.948  30.161  14.975
38325W        W 4866   7.108  30.316   4.452
38326W        W 4867  17.777  35.905  11.962
38327W        W 4868   9.760  34.575  11.675
38328W        W 4869  44.580  40.594  14.382
38329W        W 4870  25.707   3.901   1.351
38330W        W 4871  18.241   7.240  13.647
38331W        W 4872  26.315   2.846  13.389
38332W        W 4873  32.993  34.910  10.932
38333W        W 4874  42.828  33.152  11.911
38334W        W 4875  29.746  15.031  14.059
38335W        W 4876  16.184  15.966  12.343
38336W        W 4877  24.003  36.310  14.959
38337W        W 4878  34.689  18.697   4.154
38338W        W 4879  19.641  20.587   0.934
38339W        W 4880   9.198  26.592   0.713
38340W        W 4881  25.513  32.603  14.568
38341W        W 4882  16.792  23.727   0.907
38342W        W 4883   3.853   4.042   1.379
38343W        W 4884  37.691  31.859  11.010
38344W        W 4885  26.591  28.977   2.912
38345W        W 4886  42.350  40.427   4.562
38346W        W 4887   4.279  37.339  13.908
38347W        W 4888  27.975   0.430   4.256
38348W        W 4889  20.604  38.197  11.131
38349W        W 4890  13.474  44.749   0.560
38350W        W 4891  39.973  27.902   4.244
38351W        W 4892   8.807  12.555   0.737
38352W        W 4893   1.366  41.586   2.395
38353W        W 4894   9.725   9.128   1.271
38354W        W 4895   6.192  16.277   0.708
38355W        W 4896   6.826   0.470   4.595
38356W        W 4897  13.679  11.183   2.306
38357W        W 4898  37.455  22.207   0.307
38358W        W 4899  23.273   7.080   0.212
38359W        W 4900  41.282  14.229  14.421
38360W        W 4901  26.406  37.594   1.022
38361W        W 4902   1.984  24.093  13.480
38362W        W 4903  18.215  18.711   0.294
38363W        W 4904   0.879  12.875   1.190
38364W        W 4905  25.487  12.112  14.349
38365W        W 4906  34.030  18.040   0.408
38366W        W 4907  25.353  23.249   1.392
38367W        W 4908  39.163  37.131  10.187
38368W        W 4909  12.205  24.529  12.016
38369W        W 4910  32.864  19.415   2.453
38370W        W 4911  38.172  29.234   0.218
38371W        W 4912  16.593  11.102   0.288
38372W        W 4913  14.356  37.862   2.161
38373W        W 4914  42.543  30.953  11.342
38374W        W 4915  20.032  33.909  13.632
38375W        W 4916   4.073  32.494   3.840
38376W        W 4917  38.994   6.887   1.632
38377W        W 4918  31.333  21.247  10.465
38378W        W 4919  19.681  41.588  11.987
38379W        W 4920  42.928  28.211   1.385
38380W        W 4921   1.195  37.010  13.919
38381W        W 4922  36.245   0.709  11.947
38382W        W 4923   1.332  37.114  11.109
38383W        W 4924  42.299   1.734  12.531
38384W        W 4925  44.831  20.659  11.139
38385W        W 4926  41.922  21.063   2.700
38386W        W 4927  26.170   7.728  13.031
38387W        W 4928  32.356  27.149   4.944
38388W        W 4929   2.037  44.524   3.157
38389W        W 4930  19.538  15.064   3.269
38390W        W 4931  23.562  26.023   4.407
38391W        W 4932   9.239  43.573   4.259
38392W        W 4933   5.116  42.248   4.080
38393W        W 4934   0.426   9.459  12.024
38394W        W 4935  22.079   8.527  13.433
38395W        W 4936  43.719  28.865  12.076
38396W        W 4937  25.395   6.754   4.176
38397W        W 4938  22.210  19.128   0.665
38398W        W 4939  24.168  36.347  10.566
38399W        W 4940  44.966  35.154   3.674
38400W        W 4941  36.105  10.783  12.033
38401W        W 4942   1.454   9.632   0.550
38402W        W 4943  32.901  41.045   1.111
38403W        W 4944  28.151   2.370   4.554
38404W        W 4945  30.542  32.837   2.319
38405W        W 4946  44.200  39.092   2.362
38406W        W 4947   7.530   2.066  14.240
38407W        W 4948   5.383  30.348   1.756
38408W        W 4949  20.582   8.852   3.364
38409W        W 4950   3.711  16.169  12.463
38410W        W 4951  32.239   0.304  14.005
38411W        W 4952  33.696  26.002  10.732
38412W        W 4953  24.360  26.965  12.837
38413W        W 4954   3.138  39.483   3.593
38414W        W 4955  24.788   3.503   3.007
38415W        W 4956  43.565   6.180  10.606
38416W        W 4957  16.999  10.239   1.907
38417W        W 4958   3.025  35.348   3.285
38418W        W 4959   4.302  36.165  12.495
38419W        W 4960   1.270  42.374   0.306
38420W        W 4961  29.538  13.731   4.373
38421W        W 4962  42.928  12.368  14.394
38422W        W 4963   9.457  33.153  14.867
38423W        W 4964  35.629   7.615  14.436
38424W        W 4965   3.274  23.859  13.095
38425W        W 4966   9.236   2.547  13.906
38426W        W 4967  19.508  29.546   4.113
38427W        W 4968  10.861   6.888   3.763
38428W        W 4969  17.586  35.140  13.421
38429W        W 4970  21.655  12.045   1.672
38430W        W 4971  27.106  39.509  13.995
38431W        W 4972  12.774  30.887  12.021
38432W        W 4973  41.307  22.611   4.619
38433W        W 4974  23.163   1.278   2.915
38434W        W 4975  18.659  13.551  14.134
38435W        W 4976  34.070  23.414   1.234
38436W        W 4977  21.661  11.563   4.702
38437W        W 4978  10.749  17.287   2.895
38438W        W 4979  11.361  40.597   9.854
38439W        W 4980  40.042  22.264   4.561
38440W        W 4981  12.790   1.253   0.825
38441W        W 4982   3.301   5.974  10.361
38442W        W 4983  35.824  17.993  11.972
38443W        W 4984  40.913   3.905   4.939
38444W        W 4985  13.636  29.883   5.209
38445W        W 4986   9.623  32.103  10.899
38446W        W 4987   7.588   4.944  12.331
38447W        W 4988  43.830  37.279   1.004
38448W        W 4989  13.630  40.069  13.851
38449W        W 4990   6.776  16.621   1.696
38450W        W 4991  30.826  34.850   1.163
38451W        W 4992  24.574  25.462   1.795
38452W        W 4993  20.323  30.882  13.352
38453W        W 4994  28.202  10.307   1.001
38454W        W 4995  27.050   5.205  13.185
38455W        W 4996   7.814  44.376  12.703
38456W        W 4997  13.136  30.367   4.110
38457W        W 4998  35.493  17.072   1.583
38458W        W 4999   4.817   0.263  10.711
38459W        W 5000  29.715   7.664   1.784
38460W        W 5001  36.417   1.787   0.039
38461W        W 5002   1.863  31.647   3.952
38462W        W 5003  36.056  10.769  14.342
38463W        W 5004  17.792   6.716   4.579
38464W        W 5005  26.770   0.764  13.407
38465W        W 5006  35.487  35.074   0.052
38466W        W 5007  20.787  20.790  13.312
38467W        W 5008  35.400  29.655   1.856
38468W        W 5009  32.920   3.871  10.797
38469W        W 5010  32.067  18.005   2.288
38470W        W 5011   7.666  29.272   0.466
38471W        W 5012  20.898  44.070  14.030
38472W        W 5013   9.656  27.179   1.216
38473W        W 5014  31.073  26.700   3.134
38474W        W 5015  15.730  40.656  12.166
38475W        W 5016  13.736  28.648   3.632
38476W        W 5017  22.077  28.662  10.648
38477W        W 5018  21.216  27.001  12.045
38478W        W 5019  43.242  21.250  13.343
38479W        W 5020  30.992  14.086   1.257
38480W        W 5021  40.858   9.106   4.591
38481W        W 5022   3.234  19.720  13.214
38482W        W 5023   2.625  36.690  14.524
38483W        W 5024   2.654  40.752  12.654
38484W        W 5025   2.276  24.221   4.646
38485W        W 5026  20.205  14.676   2.350
38486W        W 5027  41.917  25.156  10.630
38487W        W 5028  42.901  32.583   4.725
38488W        W 5029   5.202   3.285  13.505
38489W        W 5030  44.936   5.057   2.737
38490W        W 5031   5.654  16.644  11.545
38491W        W 5032  36.326  39.180   1.842
38492W        W 5033  16.719  16.160  13.567
38493W        W 5034  22.052  36.937  10.465
38494W        W 5035  24.165  41.970  12.893
38495W        W 5036  40.597  39.874   2.208
38496W        W 5037   0.950   6.702   3.193
38497W        W 5038  41.732  32.763   2.805
38498W        W 5039   2.957  25.990  14.588
38499W        W 5040  14.434  26.695   1.222
38500W        W 5041  38.294  39.026   1.618
38501W        W 5042   4.679  16.883   3.900
38502W        W 5043  16.387  11.177   3.567
38503W        W 5044  36.992   0.228  10.743
38504W        W 5045  40.520  13.564   2.257
38505W        W 5046   6.747  15.275   3.748
38506W        W 5047   0.396  34.891   3.594
38507W        W 5048  35.059  37.192  14.758
38508W        W 5049  18.199  31.288   1.420
38509W        W 5050  32.273   4.085  11.044
38510W        W 5051  32.911  14.368   1.883
38511W        W 5052  42.995  32.216   2.179
38512W        W 5053  19.259  38.370   4.674
38513W        W 5054  35.440  36.409  10.855
38514W        W 5055  29.194  12.439   2.151
38515W        W 5056  37.069  24.243  11.702
38516W        W 5057  32.375  18.717   4.531
38517W        W 5058  36.076  39.539   3.301
38518W        W 5059  23.873   0.346  12.509
38519W        W 5060  44.821  14.736  12.476
38520W        W 5061  21.544  39.257   1.212
38521W        W 5062  23.407   0.928  13.015
38522W        W 5063  25.358   0.999   1.672
38523W        W 5064  29.681  41.891   3.610
38524W        W 5065   8.540  39.336   3.131
38525W        W 5066  20.709  35.101   3.288
38526W        W 5067  14.009  33.445   3.652
38527W        W 5068  17.614  44.537  10.863
38528W        W 5069   8.204  38.010  13.267
38529W        W 5070   2.450  37.968   0.916
38530W        W 5071   9.330  42.328  11.164
38531W        W 5072  30.726  38.714  12.014
38532W        W 5073  39.097  24.677  11.137
38533W        W 5074  36.957  16.680   3.986
38534W        W 5075  21.659   4.981   1.407
38535W        W 5076  27.410  24.087   0.285
38536W        W 5077  32.434  10.410   2.648
38537W        W 5078  27.574   0.670  12.613
38538W        W 5079  42.578   0.806  12.113
38539W        W 5080  19.759  33.451  10.502
38540W        W 5081  24.379  32.819   2.786
38541W        W 5082  40.943  11.640   1.226
38542W        W 5083  37.181  10.422  10.421
38543W        W 5084  17.232  43.586  11.682
38544W        W 5085  24.581  25.968   1.802
38545W        W 5086  35.953  34.831   3.972
38546W        W 5087  27.377  13.975  11.764
38547W        W 5088  13.020  14.659   0.339
38548W        W 5089  33.363  41.051  13.262
38549W        W 5090  31.411  36.031  14.779
38550W        W 5091  41.245   5.243   3.416
38551W        W 5092   1.838  24.538  11.397
38552W        W 5093   6.010  29.567  10.681
38553W        W 5094  33.142  13.376  13.501
38554W        W 5095  16.950   8.865  11.541
38555W        W 5096  24.521   6.509   5.356
38556W        W 5097  12.137  44.257  14.528
38557W        W 5098  24.335  14.110   3.677
38558W        W 5099  36.305   0.300  14.134
38559W        W 5100  19.168  32.090   0.371
38560W        W 5101   8.668  27.139  11.691
38561W        W 5102  36.354  41.330  12.535
38562W        W 5103  13.561  36.814   4.525
38563W        W 5104  31.352  13.556   2.764
38564W        W 5105  22.227  16.861  13.422
38565W        W 5106   2.272  37.163  11.663
38566W        W 5107  11.670  18.425   3.133
38567W        W 5108  23.987  34.095  13.860
38568W        W 5109  39.575  19.096  12.133
38569W        W 5110  41.356  10.175   0.311
38570W        W 5111  22.611  44.346   0.112
38571W        W 5112  11.084  38.473   4.230
38572W        W 5113  32.946  16.615   2.405
38573W        W 5114  34.282  34.970  12.852
38574W        W 5115  11.184  26.241  13.966
38575W        W 5116  24.113   9.910   1.698
38576W        W 5117  31.377  12.724  13.367
38577W        W 5118  25.875  10.707   1.799
38578W        W 5119   5.868   9.122  11.446
38579W        W 5120   9.700   3.297   2.805
38580W        W 5121  16.207  12.883  10.603
38581W        W 5122  19.103  24.999  11.122
38582W        W 5123  29.864  10.282  11.304
38583W        W 5124  11.851  20.014   4.580
38584W        W 5125  41.476   4.874  12.356
38585W        W 5126  26.272   1.170  14.348
38586W        W 5127  40.255  42.487  12.970
38587W        W 5128   9.591  38.007  14.284
38588W        W 5129  37.095  14.363   3.890
38589W        W 5130  44.474  17.115  12.902
38590W        W 5131  15.242  16.748   0.751
38591W        W 5132  15.140  29.926  11.077
38592W        W 5133   5.811  33.124  14.908
38593W        W 5134  24.060  19.076  11.155
38594W        W 5135  32.418  10.946   2.868
38595W        W 5136  17.229  27.956   0.868
38596W        W 5137  24.740  35.836  13.519
38597W        W 5138  33.490  25.196  13.832
38598W        W 5139  12.084  10.783  12.436
38599W        W 5140   1.957  42.092   3.682
38600W        W 5141  18.101  10.057  12.059
38601W        W 5142  32.238  17.643  11.574
38602W        W 5143  27.035  43.451   3.263
38603W        W 5144  21.716  22.265  11.272
38604W        W 5145  41.794   7.181  12.510
38605W        W 5146  38.905  28.354  10.979
38606W        W 5147  27.722  21.539   1.122
38607W        W 5148  17.668  32.224   5.124
38608W        W 5149   8.772   6.063  12.972
38609W        W 5150  10.309  32.274   0.482
38610W        W 5151  42.673  17.702   4.235
38611W        W 5152  35.589  43.734   4.505
38612W        W 5153   9.328  20.082  13.062
38613W        W 5154   3.503   9.234  11.787
38614W        W 5155  15.262  34.908   1.557
38615W        W 5156  26.937  38.252   4.786
38616W        W 5157  13.989  20.842  11.270
38617W        W 5158  26.403  34.350  12.344
38618W        W 5159  27.428   6.795   0.550
38619W        W 5160  13.241   9.201   4.656
38620W        W 5161  42.531  23.069  12.891
38621W        W 5162  19.215   6.377  11.154
38622W        W 5163  18.779  21.037  13.590
38623W        W 5164  40.605  15.628   2.833
38624W        W 5165  15.274  13.801   2.893
38625W        W 5166   2.680  21.150  11.150
38626W        W 5167  34.858  33.879  14.063
38627W        W 5168  31.217  33.696   0.449
38628W        W 5169  41.191  32.772  12.926
38629W        W 5170  43.558   6.016  13.553
38630W        W 5171   4.257  35.538   4.689
38631W        W 5172  30.658  27.527  13.073
38632W        W 5173  16.700  30.940  12.854
38633W        W 5174   3.916   2.754   0.157
38634W        W 5175  25.819  21.993  11.387
38635W        W 5176   8.293  20.257   1.819
38636W        W 5177  32.176  20.962   3.222
38637W        W 5178  43.217   3.295  12.625
38638W        W 5179  13.138  37.561  13.795
38639W        W 5180  38.465  40.900  11.876
38640W        W 5181  40.547  32.001   2.713
38641W        W 5182  30.261  26.191  14.756
38642W        W 5183  24.063  13.832  13.890
38643W        W 5184   2.271  38.001  13.781
38644W        W 5185  33.769  10.817   1.259
38645W        W 5186  43.364   9.652   1.881
38646W        W 5187  43.307  35.364  13.341
38647W        W 5188  40.369   8.524   3.876
38648W        W 5189  14.363  15.690  11.113
38649W        W 5190  19.720   2.448   3.692
38650W        W 5191  11.521  38.839  11.098
38651W        W 5192  24.064  36.431   2.215
38652W        W 5193  44.974  19.583  13.323
38653W        W 5194  12.463  32.492  12.644
38654W        W 5195  21.744  32.369   2.113
38655W        W 5196   4.946  27.140   1.017
38656W        W 5197  43.453  38.281  12.964
38657W        W 5198   6.667   6.288  13.696
38658W        W 5199  43.007   6.620   0.832
38659W        W 5200  24.474  12.375   2.352
38660W        W 5201  20.507  11.267  11.576
38661W        W 5202  21.073   7.125   3.964
38662W        W 5203   2.185  37.534   1.005
38663W        W 5204  33.398  22.348   3.639
38664W        W 5205  29.485  37.798  14.043
38665W        W 5206  19.587  21.984   0.677
38666W        W 5207  25.724  40.793  12.555
38667W        W 5208  14.678  11.775   0.945
38668W        W 5209  43.151  23.788   0.415
38669W        W 5210  37.556   5.115   4.963
38670W        W 5211  39.769  40.437  11.583
38671W        W 5212  28.880  34.786   1.207
38672W        W 5213  41.185  30.533   2.829
38673W        W 5214   1.836  34.154  11.208
38674W        W 5215  26.290  29.144  10.338
38675W        W 5216  12.805   3.725  11.624
38676W        W 5217  41.276   0.043   0.029
38677W        W 5218  41.571   9.189  14.225
38678W        W 5219  33.563  33.598  14.481
38679W        W 5220  23.063  40.305   3.502
38680W        W 5221  26.199  15.419  10.716
38681W        W 5222  20.579   3.860   0.441
38682W        W 5223  23.463   9.180  13.581
38683W        W 5224  28.506  36.491   4.512
38684W        W 5225  43.933   1.213   0.406
38685W        W 5226  33.008  38.040  12.238
38686W        W 5227   9.837  13.265   2.420
38687W        W 5228  21.722   9.786  13.458
38688W        W 5229  14.543  21.652  14.240
38689W        W 5230   7.341  10.349   3.155
38690W        W 5231   8.374  16.498  12.719
38691W        W 5232  37.388  20.064  11.748
38692W        W 5233  14.701  41.795   0.864
38693W        W 5234  22.683  21.642   4.201
38694W        W 5235   6.490  10.289  13.884
38695W        W 5236  43.853   9.224  11.295
38696W        W 5237  12.439   8.580  12.967
38697W        W 5238  23.710  14.598  12.005
38698W        W 5239  25.587  21.062   3.841
38699W        W 5240   8.856  17.144   5.119
38700W        W 5241  21.969  40.550   1.758
38701W        W 5242   7.122  42.374  12.399
38702W        W 5243  26.586  41.388  12.302
38703W        W 5244  35.458  15.046  14.546
38704W        W 5245  24.766  44.643   2.390
38705W        W 5246  38.398   8.765   3.659
38706W        W 5247  22.665   0.330  10.751
38707W        W 5248  27.007   8.331  13.298
38708W        W 5249   1.495  27.466   0.227
38709W        W 5250   7.879  13.643  13.367
38710W        W 5251  12.361  19.510  12.871
38711W        W 5252   6.236  33.643  14.068
38712W        W 5253   4.906  28.795   2.133
38713W        W 5254  26.659   8.438  14.358
38714W        W 5255   3.144  18.937  12.026
38715W        W 5256  12.131  29.924   2.659
38716W        W 5257  12.711   5.734   4.555
38717W        W 5258  23.105  39.387  10.349
38718W        W 5259   6.332   2.386  12.380
38719W        W 5260   1.271  21.517  11.734
38720W        W 5261  29.913  18.653  13.477
38721W        W 5262  21.401   5.411  14.354
38722W        W 5263  23.200  31.304  13.092
38723W        W 5264  41.544  30.081   0.430
38724W        W 5265  27.821  24.078   4.838
38725W        W 5266  15.607  22.295  10.953
38726W        W 5267  33.614  23.288   1.021
38727W        W 5268   2.849  20.640   4.643
38728W        W 5269  36.991  42.028  14.934
38729W        W 5270   4.190   6.653   0.110
38730W        W 5271  39.909  22.858  10.563
38731W        W 5272   6.682  22.135  13.486
38732W        W 5273  42.330  17.530   4.555
38733W        W 5274   7.717  17.258  12.200
38734W        W 5275   8.853   9.369   5.069
38735W        W 5276  25.672  42.431  14.551
38736W        W 5277  13.406  13.931   5.069
38737W        W 5278  14.651   9.745  12.020
38738W        W 5279  10.388  10.747   2.693
38739W        W 5280  34.597  11.255   1.607
38740W        W 5281  23.957  44.835   0.701
38741W        W 5282  20.042   5.343  14.410
38742W        W 5283  14.218   4.679  10.976
38743W        W 5284   4.205  37.086  14.959
38744W        W 5285  34.552  19.404  11.239
38745W        W 5286   6.811  20.538  14.593
38746W        W 5287   9.168   1.003   4.591
38747W        W 5288  33.068  27.496  14.459
38748W        W 5289  20.294  37.698   4.459
38749W        W 5290  15.368   6.527   4.599
38750W        W 5291  35.447   0.973  13.540
38751W        W 5292  28.243   6.523   4.078
38752W        W 5293   3.383  43.981  13.154
38753W        W 5294  27.486   0.350  14.157
38754W        W 5295  22.219  14.132   4.917
38755W        W 5296  23.706  28.831   3.484
38756W        W 5297  42.801  10.604   2.726
38757W        W 5298  26.730  21.906  13.260
38758W        W 5299  21.420   9.131  10.570
38759W        W 5300  30.662  39.999   2.813
38760W        W 5301  41.860   8.810  14.002
38761W        W 5302  35.004  34.064   4.983
38762W        W 5303  26.906  10.784  12.812
38763W        W 5304  40.345  38.281   2.659
38764W        W 5305  12.834  37.935   4.582
38765W        W 5306  43.793  28.315  13.860
38766W        W 5307  12.219  25.262  11.241
38767W        W 5308  34.033  24.157  13.100
38768W        W 5309   1.506  39.834  11.469
38769W        W 5310  16.826  32.600  14.488
38770W        W 5311   2.844  17.248   0.483
38771W        W 5312   0.538  19.975   1.687
38772W        W 5313   3.765  28.202  12.597
38773W        W 5314  15.144  28.048   2.287
38774W        W 5315  34.054  26.343  11.619
38775W        W 5316   5.821  31.668   4.015
38776W        W 5317   5.231  19.737   2.647
38777W        W 5318  31.638  27.364   2.534
38778W        W 5319  38.406  34.876  11.051
38779W        W 5320  22.156  42.946  12.998
38780W        W 5321  15.670  27.150  13.557
38781W        W 5322  38.062  40.082  12.084
38782W        W 5323  11.753  44.437  13.161
38783W        W 5324  15.152  42.915   4.385
38784W        W 5325  28.563   4.379  13.032
38785W        W 5326   7.917   8.151  12.993
38786W        W 5327  34.941  12.336  11.720
38787W        W 5328   8.190  37.614  12.931
38788W        W 5329   9.653   5.638   4.184
38789W        W 5330  19.664  41.875   3.167
38790W        W 5331  31.176  18.616  13.411
38791W        W 5332  26.534  14.227  11.178
38792W        W 5333  34.069   5.172  11.552
38793W        W 5334   3.615  43.538  13.053
38794W        W 5335   3.930  38.843  10.607
38795W        W 5336   9.332   0.049  13.089
38796W        W 5337  16.517  21.642   1.893
38797W        W 5338  38.045  22.139  10.720
38798W        W 5339  28.084  14.702  10.839
38799W        W 5340  16.609  39.785   4.700
38800W        W 5341  13.318   7.754   4.499
38801W        W 5342  37.549   5.472   4.577
38802W        W 5343  25.625  17.144   3.988
38803W        W 5344  36.421  40.031  10.638
38804W        W 5345  34.975  23.076   2.380
38805W        W 5346  34.705   4.243   0.489
38806W        W 5347  32.304  41.540  14.207
38807W        W 5348  25.168  40.689   4.060
38808W        W 5349  42.588  35.066  11.598
38809W        W 5350  44.737  19.040  10.915
38810W        W 5351  20.771  20.969  12.137
38811W        W 5352  25.446  43.908  13.228
38812W        W 5353  15.663   4.734  12.520
38813W        W 5354  33.181  16.262   3.164
38814W        W 5355   9.861   7.487  14.852
38815W        W 5356   9.877   5.246  13.699
38816W        W 5357  33.589  39.154  12.971
38817W        W 5358  38.026   9.786  11.761
38818W        W 5359  22.117  29.652   0.665
38819W        W 5360  41.475  11.818  13.596
38820W        W 5361   2.585   8.603  10.046
38821W        W 5362  27.994  12.896  13.230
38822W        W 5363  42.507  29.418  13.456
38823W        W 5364  39.949  41.788  10.516
38824W        W 5365  43.520  20.132  13.904
38825W        W 5366  37.072  28.192  13.051
38826W        W 5367  14.028  25.493   1.851
38827W        W 5368  36.419  15.444  13.362
38828W        W 5369  12.621   4.896   2.653
38829W        W 5370   7.873   7.497  12.055
38830W        W 5371  31.588  20.624  12.464
38831W        W 5372  29.675  41.600  12.894
38832W        W 5373  39.905   0.784  14.535
38833W        W 5374  18.759  39.419   4.232
38834W        W 5375  17.914  16.574  13.777
38835W        W 5376  39.770   7.425  14.018
38836W        W 5377  13.467   7.198  12.875
38837W        W 5378  26.170  17.051   2.158
38838W        W 5379  19.218   1.766   1.404
38839W        W 5380  34.876   3.524   2.820
38840W        W 5381  38.221  19.061  12.533
38841W        W 5382  13.682  32.220  13.143
38842W        W 5383  44.755  33.357  12.847
38843W        W 5384  33.033  28.846   3.176
38844W        W 5385  22.056   9.672  11.084
38845W        W 5386   0.481   9.439   0.798
38846W        W 5387  14.631  24.226   1.497
38847W        W 5388   2.252  39.917  12.859
38848W        W 5389  42.275  35.912   3.228
38849W        W 5390  35.277  15.737  13.427
38850W        W 5391   0.360  38.504  13.586
38851W        W 5392  26.607  15.211  14.736
38852W        W 5393  33.021  15.714  14.090
38853W        W 5394  43.769   7.255  13.247
38854W        W 5395   9.680  13.724  13.081
38855W        W 5396  29.452  14.946  13.263
38856W        W 5397  23.349  11.218   1.392
38857W        W 5398   6.476   1.863  12.581
38858W        W 5399  42.436  12.193  13.458
38859W        W 5400  34.030  13.906  13.372
38860W        W 5401  29.965  20.778   2.220
38861W        W 5402  16.963  14.635   9.731
38862W        W 5403  30.403  39.114  12.874
38863W        W 5404  18.707  35.758   3.234
38864W        W 5405  40.785  23.415  10.690
38865W        W 5406   9.102  28.418   0.871
38866W        W 5407  19.585  25.238  11.288
38867W        W 5408   3.738  16.698  14.500
38868W        W 5409  19.102   7.281  11.610
38869W        W 5410  22.496  14.913   4.460
38870W        W 5411  20.032  36.300  10.995
38871W        W 5412  33.932  12.049  13.260
38872W        W 5413  22.879   7.140  11.625
38873W        W 5414  34.586  16.075   4.244
38874W        W 5415  30.974  42.864   3.651
38875W        W 5416  15.315  21.206   4.308
38876W        W 5417   1.742  10.450   2.054
38877W        W 5418  28.910  24.279   2.653
38878W        W 5419  21.060  42.286   4.868
38879W        W 5420   1.915  33.135   4.161
38880W        W 5421  39.917  23.746  12.057
38881W        W 5422  41.290  22.562  10.625
38882W        W 5423  26.526  22.566   1.287
38883W        W 5424  11.410  42.755   0.577
38884W        W 5425   8.978   5.560   1.923
38885W        W 5426   7.856  32.552  13.971
38886W        W 5427  42.442  43.702  10.440
38887W        W 5428   5.881  44.999   3.848
38888W        W 5429  26.493  35.415  14.334
38889W        W 5430  14.827  30.555   1.742
38890W        W 5431   6.867  15.958  12.076
38891W        W 5432  24.636  23.578   2.034
38892W        W 5433   5.039   6.138  14.983
38893W        W 5434  35.461  24.999  11.715
38894W        W 5435  34.451   4.315   4.089
38895W        W 5436  37.557  23.054  13.925
38896W        W 5437  25.940  17.409  14.815
38897W        W 5438  32.538  35.593   1.003
38898W        W 5439  25.525  26.021   4.658
38899W        W 5440  29.490  35.414  12.977
38900W        W 5441  23.903  43.092  13.510
38901W        W 5442  14.543   7.458   3.898
38902W        W 5443  19.095  24.772  11.608
38903W        W 5444  13.174  33.922   4.644
38904W        W 5445   3.827  23.639  10.631
38905W        W 5446  31.555  27.013  14.722
38906W        W 5447   1.350  11.380  13.449
38907W        W 5448  23.305   3.844  14.377
38908W        W 5449  34.210   3.473  14.439
38909W        W 5450  30.919  14.995  13.476
38910W        W 5451  28.969  43.591  10.552
38911W        W 5452  41.053   5.267  14.970
38912W        W 5453  12.810  44.336   0.637
38913W        W 5454  35.197   3.294  14.738
38914W        W 5455  31.154  11.320   3.487
38915W        W 5456  29.297  23.774   3.270
38916W        W 5457   7.911  15.537  11.080
38917W        W 5458  43.808  38.343   1.242
38918W        W 5459  44.904  17.628  11.976
38919W        W 5460  39.366  33.550   0.834
38920W        W 5461  35.638   4.799   0.358
38921W        W 5462  32.443  38.836   1.771
38922W        W 5463  42.908  35.229  12.534
38923W        W 5464  18.038  33.462  11.097
38924W        W 5465  17.091  22.775  13.630
38925W        W 5466  33.547  42.990  13.291
38926W        W 5467  22.468  29.697   1.349
38927W        W 5468  41.294  19.571   0.682
38928W        W 5469  25.905  38.965   4.050
38929W        W 5470   7.926  34.143   2.767
38930W        W 5471  12.516  13.320   4.346
38931W        W 5472   4.949  14.278  14.453
38932W        W 5473   5.642   3.950  12.054
38933W        W 5474  38.607  30.433   0.854
38934W        W 5475   9.396  44.565  11.010
38935W        W 5476   9.744  32.419  13.955
38936W        W 5477  28.664  11.357  14.482
38937W        W 5478  12.960  33.965   1.835
38938W        W 5479   0.856   7.998  14.273
38939W        W 5480  18.354  18.499   2.339
38940W        W 5481  23.140  44.216  14.405
38941W        W 5482   3.420   8.624   1.721
38942W        W 5483  33.998  42.455   4.085
38943W        W 5484   8.417  42.486  11.120
38944W        W 5485  25.082  13.745   4.120
38945W        W 5486  20.768  15.185  11.372
38946W        W 5487  22.197  14.898   2.081
38947W        W 5488  11.920  41.478  11.843
38948W        W 5489  25.071  15.740   4.196
38949W        W 5490  27.889  35.109  13.323
38950W        W 5491  34.980   5.252  11.378
38951W        W 5492   0.285  37.367  11.185
38952W        W 5493  11.261  10.272  13.734
38953W        W 5494  41.741   9.183   4.964
38954W        W 5495  19.096  32.486  13.420
38955W        W 5496  32.564  11.692   1.388
38956W        W 5497  36.982  20.253   3.576
38957W        W 5498  40.104  12.670  13.932
38958W        W 5499  38.519  27.459  11.256
38959W        W 5500  40.496  19.124   3.319
38960W        W 5501  23.109   1.073  11.047
38961W        W 5502  40.369  16.764   0.262
38962W        W 5503  42.505  18.355   0.749
38963W        W 5504  23.442  13.545  11.100
38964W        W 5505  19.483  21.261  13.587
38965W        W 5506   7.719  23.033  11.669
38966W        W 5507  40.794  20.483  12.470
38967W        W 5508  15.208   0.428   4.575
38968W        W 5509  24.610  33.496   3.937
38969W        W 5510  41.917  26.192   4.870
38970W        W 5511  21.154  21.334   4.554
38971W        W 5512  38.100  27.479   4.541
38972W        W 5513  13.927  42.839   2.784
38973W        W 5514  31.011  29.663  10.592
38974W        W 5515  31.433  27.605   2.106
38975W        W 5516  34.149  36.906  11.188
38976W        W 5517  13.203  32.595  10.693
38977W        W 5518  22.419  12.022   1.525
38978W        W 5519  14.879  17.125  12.539
38979W        W 5520   5.232  20.493   0.463
38980W        W 5521  19.424   9.904  11.997
38981W        W 5522  21.592  34.663   4.034
38982W        W 5523  37.170  34.600  13.363
38983W        W 5524  18.392  26.902  13.737
38984W        W 5525   4.785  17.080  12.095
38985W        W 5526   3.867  18.256   1.203
38986W        W 5527  34.133  18.263  13.450
38987W        W 5528  25.245  27.555   3.674
38988W        W 5529  30.627   9.772   3.593
38989W        W 5530   5.654  20.598  10.970
38990W        W 5531   9.889  14.397  13.890
38991W        W 5532   5.356  12.810  11.246
38992W        W 5533  12.117  19.775   3.294
38993W        W 5534  40.830  33.049   1.863
38994W        W 5535  42.417  26.515   1.283
38995W        W 5536   3.140  23.474  12.758
38996W        W 5537  36.140  31.577  12.398
38997W        W 5538  21.147   8.655   2.708
38998W        W 5539  28.006  12.649   0.302
38999W        W 5540  28.408  38.236   1.777
39000W        W 5541  18.512  25.551   0.393
39001W        W 5542  43.648  37.611  14.783
39002W        W 5543   9.355  30.618  13.888
39003W        W 5544  41.559  25.550  14.861
39004W        W 5545  13.188  23.598   1.813
39005W        W 5546   4.884  11.419  12.894
39006W        W 5547  35.376  28.114   2.720
39007W        W 5548   1.858  28.786   5.065
39008W        W 5549  33.803  40.015   1.886
39009W        W 5550  39.321   7.179  13.962
39010W        W 5551   1.954  22.703   2.745
39011W        W 5552  41.317  29.058   3.135
39012W        W 5553   1.451  31.905   2.801
39013W        W 5554   1.287  37.916   3.975
39014W        W 5555  15.256  10.608   1.778
39015W        W 5556  35.578  16.775  10.368
39016W        W 5557   3.147  14.798   2.750
39017W        W 5558  31.394  33.059  12.125
39018W        W 5559  36.444  38.904   0.899
39019W        W 5560  35.050  31.601   4.623
39020W        W 5561  26.253   8.406  13.540
39021W        W 5562  44.834  40.795  10.703
39022W        W 5563  23.749  28.691  12.928
39023W        W 5564  11.273  16.372   3.760
39024W        W 5565  17.465  25.125   2.170
39025W        W 5566  39.809  40.426  13.889
39026W        W 5567  36.852   3.325   2.111
39027W        W 5568  30.939  39.306  11.191
39028W        W 5569  10.216  36.461   3.664
39029W        W 5570   8.225  27.190   2.182
39030W        W 5571   2.523   2.261   3.271
39031W        W 5572  20.381   0.443  11.915
39032W        W 5573  37.479   1.886  11.718
39033W        W 5574   8.456  30.552   2.310
39034W        W 5575  42.200  17.473   0.985
39035W        W 5576  43.206  26.964   2.792
39036W        W 5577  17.482  24.002  12.182
39037W        W 5578  25.252  15.350  10.712
39038W        W 5579  11.110  31.878  11.941
39039W        W 5580  18.190  39.314  12.081
39040W        W 5581  27.502  41.972   2.663
39041W        W 5582  14.818  34.550   0.408
39042W        W 5583  24.533   6.314   1.372
39043W        W 5584  29.135  29.533  13.890
39044W        W 5585  32.601   4.311   2.240
39045W        W 5586  43.433  36.904  10.669
39046W        W 5587  18.250  37.191  13.802
39047W        W 5588  36.144  42.279   3.710
39048W        W 5589  42.907  36.669  10.703
39049W        W 5590   8.887  19.283   4.706
39050W        W 5591  27.259   3.848  13.430
39051W        W 5592  15.305  35.048   5.462
39052W        W 5593  39.946  35.082   1.240
39053W        W 5594  38.579  28.280   4.209
39054W        W 5595  40.237  34.396  14.966
39055W        W 5596  18.068  24.448  12.429
39056W        W 5597  10.167  23.820  11.172
39057W        W 5598  19.573   0.050  14.066
39058W        W 5599  20.548  14.449   2.691
39059W        W 5600  43.873  13.549  13.541
39060W        W 5601  37.570   0.931   1.413
39061W        W 5602  24.319  36.953   3.259
39062W        W 5603  41.902  10.242  12.594
39063W        W 5604   2.752  18.255  12.614
39064W        W 5605   3.205   2.689   2.726
39065W        W 5606  33.368  43.512   0.771
39066W        W 5607   0.572  38.469   3.302
39067W        W 5608  21.128  31.612   0.108
39068W        W 5609  29.152  30.043   3.202
39069W        W 5610   7.347   8.331   2.671
39070W        W 5611   1.781  24.938   3.667
39071W        W 5612  43.431  36.388   2.738
39072W        W 5613   8.337  24.158   3.769
39073W        W 5614  27.463  43.028  10.563
39074W        W 5615   6.819  12.893   1.462
39075W        W 5616  22.230  41.362  12.382
39076W        W 5617   8.670   2.495   3.572
39077W        W 5618  39.035   4.274   0.727
39078W        W 5619  24.297  40.859  13.074
39079W        W 5620  12.317  44.777  11.116
39080W        W 5621  26.595  44.079   0.899
39081W        W 5622  12.380   4.488  14.974
39082W        W 5623   5.703   8.621   2.414
39083W        W 5624  13.614  10.779   1.323
39084W        W 5625  13.932  18.302   0.026
39085W        W 5626  20.011  14.777  13.653
39086W        W 5627  33.029   3.752  14.654
39087W        W 5628  38.387  18.225  12.070
39088W        W 5629  12.659  21.527   1.215
39089W        W 5630   0.210  17.815  13.028
39090W        W 5631   0.020  17.013   3.185
39091W        W 5632  29.880  44.772   1.260
39092W        W 5633  28.965   2.026  11.102
39093W        W 5634  16.731  32.285   4.586
39094W        W 5635   5.072  35.395   3.714
39095W        W 5636  14.722  12.393  13.324
39096W        W 5637  34.977  30.864  12.343
39097W        W 5638   9.725   2.137  12.790
39098W        W 5639  41.905   2.236   1.272
39099W        W 5640  13.229  17.207  12.425
39100W        W 5641   0.991  36.466   1.332
39101W        W 5642  14.632   0.239   1.447
39102W        W 5643  25.565   3.573   2.654
39103W        W 5644  15.297  11.644   0.252
39104W        W 5645   9.429  23.627   3.270
39105W        W 5646  42.975  13.159  11.521
39106W        W 5647  17.050  11.001  10.249
39107W        W 5648  30.164  43.879  10.002
39108W        W 5649  21.999  17.339  12.924
39109W        W 5650  44.013  10.616   2.344
39110W        W 5651   8.001  23.711   4.551
39111W        W 5652  44.443  43.999  14.517
39112W        W 5653   9.837  20.005   1.786
39113W        W 5654  21.830   5.384  13.068
39114W        W 5655   6.900  11.180   0.775
39115W        W 5656  14.081  15.055   2.825
39116W        W 5657   5.303  17.950  11.148
39117W        W 5658  37.732  13.839   4.888
39118W        W 5659  41.520  33.154   1.399
39119W        W 5660  19.610  34.437   9.916
39120W        W 5661  17.849  42.275  10.834
39121W        W 5662  38.963  20.617   0.243
39122W        W 5663  24.073  43.334   0.733
39123W        W 5664   2.968  33.968  13.030
39124W        W 5665  24.819  41.556   1.268
39125W        W 5666   3.935  17.522  12.549
39126W        W 5667  24.738  27.179   1.505
39127W        W 5668  14.874  38.346  11.420
39128W        W 5669   3.680  25.965   2.272
39129W        W 5670  30.483  44.112  13.625
39130W        W 5671   3.810   0.782   4.670
39131W        W 5672   2.115  13.128  13.852
39132W        W 5673  15.825  31.658  14.304
39133W        W 5674   0.204  23.247  12.107
39134W        W 5675  28.607  19.541  14.409
39135W        W 5676  15.694   1.348  11.603
39136W        W 5677  14.293   7.517   0.852
39137W        W 5678  11.833   8.339  12.073
39138W        W 5679   7.392  11.835   3.648
39139W        W 5680   9.361   6.026   4.656
39140W        W 5681  27.825  34.964  11.915
39141W        W 5682  25.491   8.721   1.718
39142W        W 5683  40.768  20.955   4.202
39143W        W 5684  39.446  16.680   0.724
39144W        W 5685  18.483  23.066   5.403
39145W        W 5686  17.696  25.575  14.805
39146W        W 5687   1.194  10.294  14.468
39147W        W 5688  32.988  33.587   3.327
39148W        W 5689   8.158  28.062  11.578
39149W        W 5690  26.589   9.720  12.593
39150W        W 5691  36.490  32.100   2.646
39151W        W 5692  32.393  16.151   2.704
39152W        W 5693   0.791  30.432  13.348
39153W        W 5694  33.538   4.649   0.967
39154W        W 5695  17.977   2.717  12.100
39155W        W 5696  18.529  38.057   3.622
39156W        W 5697  26.735   0.923   4.517
39157W        W 5698  42.528  15.215   4.993
39158W        W 5699  30.875  18.210   3.788
39159W        W 5700  11.647   8.932  11.374
39160W        W 5701  33.975  14.837  14.300
39161W        W 5702  31.167   4.756  14.943
39162W        W 5703   0.923  34.393  11.247
39163W        W 5704  33.935  36.553  14.898
39164W        W 5705   4.291   2.266   0.280
39165W        W 5706  28.054  28.050   2.086
39166W        W 5707   2.225   2.544  13.496
39167W        W 5708  17.816  37.847   1.959
39168W        W 5709  35.556  14.478  14.428
39169W        W 5710  38.505   3.918  13.087
39170W        W 5711  22.670  32.077  11.519
39171W        W 5712  10.792  40.987   3.825
39172W        W 5713  13.338  31.535   1.585
39173W        W 5714   7.480  39.537  12.176
39174W        W 5715   1.002  23.613  12.018
39175W        W 5716   0.035  14.476   0.829
39176W        W 5717  20.456   1.876   2.688
39177W        W 5718   5.166  30.159   0.250
39178W        W 5719  25.317   5.845  10.724
39179W        W 5720  43.483  35.907  12.542
39180W        W 5721  17.613  20.458   2.776
39181W        W 5722  36.556  31.889  10.386
39182W        W 5723  26.607  13.831  14.998
39183W        W 5724  21.828   8.652   9.593
39184W        W 5725   0.019  11.662  11.208
39185W        W 5726  26.387  44.887   2.734
39186W        W 5727   6.595  22.683  12.510
39187W        W 5728  18.160   4.234   2.375
39188W        W 5729  23.890  33.987   0.936
39189W        W 5730  22.556  12.332   1.913
39190W        W 5731  39.850  17.580   0.398
39191W        W 5732  15.301  32.343   0.893
39192W        W 5733  36.371  36.881   3.712
39193W        W 5734  26.304  25.895   1.362
39194W        W 5735  14.662  20.432  12.623
39195W        W 5736   1.940  33.059  12.517
39196W        W 5737   8.171  38.899  12.880
39197W        W 5738  41.452  42.820  12.558
39198W        W 5739  38.709  27.595  13.757
39199W        W 5740  35.734   0.487   3.651
39200W        W 5741  41.143   4.149   1.814
39201W        W 5742  22.021  12.334   1.437
39202W        W 5743  17.802   6.196  12.950
39203W        W 5744   9.959   2.395   1.447
39204W        W 5745  37.947  14.853   1.184
39205W        W 5746  42.359   2.890   4.451
39206W        W 5747  20.136  35.623  12.986
39207W        W 5748   8.809  26.976   0.823
39208W        W 5749  27.149  15.295   2.782
39209W        W 5750  20.748  23.607  13.156
39210W        W 5751  36.493  41.328  13.029
39211W        W 5752   8.352  14.228   1.269
39212W        W 5753  10.720  30.182  14.891
39213W        W 5754  32.666   5.207   1.001
39214W        W 5755  15.097  15.164   2.776
39215W        W 5756  34.829  33.365  14.845
39216W        W 5757  13.668  23.760  12.479
39217W        W 5758  26.579   4.259   2.488
39218W        W 5759  15.515  35.758  11.175
39219W        W 5760  41.001   2.227   2.186
39220W        W 5761   9.508   8.589  13.176
39221W        W 5762   5.491  16.294   2.875
39222W        W 5763  41.929  11.710  11.175
39223W        W 5764  18.580  44.727  13.864
39224W        W 5765  19.619   3.004  13.991
39225W        W 5766  14.408  21.973  11.141
39226W        W 5767  28.528  21.664  14.342
39227W        W 5768  17.295  39.687  12.074
39228W        W 5769  42.696  35.383  13.662
39229W        W 5770   2.675  21.616   0.383
39230W        W 5771  20.588   1.996   1.286
39231W        W 5772  15.118  29.207  11.565
39232W        W 5773  19.748  13.870  11.240
39233W        W 5774  22.566  29.910   0.806
39234W        W 5775  26.650  41.874   2.751
39235W        W 5776  32.508  16.214   1.232
39236W        W 5777   1.494   1.647   3.591
39237W        W 5778  17.562   6.411  12.555
39238W        W 5779  21.389   6.245   3.372
39239W        W 5780  39.782  20.671   2.129
39240W        W 5781  11.584   9.672  13.067
39241W        W 5782   9.082  13.513  13.527
39242W        W 5783  18.362  16.206   3.559
39243W        W 5784  16.973  37.683  12.946
39244W        W 5785  20.834   8.300   0.779
39245W        W 5786  14.379   8.582  12.455
39246W        W 5787  35.347   5.304  12.117
39247W        W 5788  35.528  19.507  12.902
39248W        W 5789  33.376   9.102  11.550
39249W        W 5790  24.701   1.286   0.656
39250W        W 5791   3.657  26.419  12.603
39251W        W 5792  42.546  28.012  12.043
39252W        W 5793   7.176  14.609  12.507
39253W        W 5794  34.223  25.654   0.699
39254W        W 5795  16.077  13.806   4.825
39255W        W 5796  32.201   4.535  13.550
39256W        W 5797  41.475  12.929  12.368
39257W        W 5798   4.308  39.214  10.779
39258W        W 5799  37.171  15.382   1.217
39259W        W 5800   3.924   2.333  13.868
39260W        W 5801   5.230  11.282   2.254
39261W        W 5802  33.974  10.632   4.642
39262W        W 5803  32.110   4.800   3.267
39263W        W 5804  40.582  16.091  11.733
39264W        W 5805  10.190  32.916  11.194
39265W        W 5806  24.992  39.585  13.354
39266W        W 5807  42.037  21.810   2.114
39267W        W 5808   9.683  28.166   4.043
39268W        W 5809  24.641   4.067   0.784
39269W        W 5810  35.800  33.102   1.402
39270W        W 5811  31.393  43.852   1.673
39271W        W 5812  11.039  19.060   1.160
39272W        W 5813  21.219  43.104  14.037
39273W        W 5814  22.089   2.340  14.611
39274W        W 5815  21.679  23.925   4.611
39275W        W 5816  25.188   4.449  12.064
39276W        W 5817  25.713   6.661   4.592
39277W        W 5818  38.736  44.038   3.609
39278W        W 5819  37.035  25.623   4.825
39279W        W 5820  34.066   3.079   4.249
39280W        W 5821   5.810   7.130   3.766
39281W        W 5822  11.882  25.741  11.182
39282W        W 5823  15.067   1.290   1.283
39283W        W 5824  15.014  41.543  14.875
39284W        W 5825  32.461  38.320   0.819
39285W        W 5826  30.582  25.770   2.290
39286W        W 5827  15.720  20.468   4.225
39287W        W 5828   4.724   4.414  11.911
39288W        W 5829  35.968   7.805  14.800
39289W        W 5830   7.376  14.617   0.787
39290W        W 5831   8.061  35.305   1.287
39291W        W 5832  16.863  41.283  10.823
39292W        W 5833  38.956   0.884  14.507
39293W        W 5834  28.052  32.928   4.563
39294W        W 5835  20.202  31.390  13.398
39295W        W 5836  13.134  16.302  11.883
39296W        W 5837  22.215  29.004  13.606
39297W        W 5838   9.844   9.628   2.725
39298W        W 5839  36.424   4.909   1.299
39299W        W 5840  42.485  18.401   3.475
39300W        W 5841  24.052  28.650   4.163
39301W        W 5842  16.776  32.398   5.115
39302W        W 5843  20.980  36.944  12.443
39303W        W 5844  35.587  41.566   3.726
39304W        W 5845  12.881  25.220   3.268
39305W        W 5846  12.230  39.397   4.134
39306W        W 5847  15.657  20.577  10.758
39307W        W 5848  22.529  41.760  12.406
39308W        W 5849   5.434  38.537   2.257
39309W        W 5850  42.892  29.998  12.084
39310W        W 5851  11.731   9.348  14.703
39311W        W 5852   4.392  14.473  14.337
39312W        W 5853  13.191  40.138  12.433
39313W        W 5854   3.484  43.318  10.441
39314W        W 5855  42.162  21.120   5.129
39315W        W 5856  21.599   0.314   3.169
39316W        W 5857  16.555  15.774   3.794
39317W        W 5858  23.942  25.370   0.419
39318W        W 5859  19.581  24.979  13.922
39319W        W 5860  13.751  18.600   2.358
39320W        W 5861  16.689  12.540  12.470
39321W        W 5862   1.777  32.090  13.507
39322W        W 5863  15.911  28.050   0.245
39323W        W 5864  41.753  19.728   0.362
39324W        W 5865  23.848  20.442   1.240
39325W        W 5866  41.522  21.643   3.352
39326W        W 5867   7.366  13.084   2.725
39327W        W 5868  35.819  14.031   2.233
39328W        W 5869  34.484   7.836   2.660
39329W        W 5870   3.209  20.524   0.921
39330W        W 5871   4.385  44.412  10.233
39331W        W 5872  17.402  32.077  11.527
39332W        W 5873  33.204   9.687   0.870
39333W        W 5874  30.402  44.327   0.960
39334W        W 5875  33.666  12.905   3.419
39335W        W 5876   1.233  34.591   2.318
39336W        W 5877   4.739  38.149  12.914
39337W        W 5878  20.147   6.873   3.557
39338W        W 5879   2.841  41.559  11.098
39339W        W 5880  11.802  29.065   3.686
39340W        W 5881   5.929   6.649  14.267
39341W        W 5882  35.984   8.372  11.333
39342W        W 5883  14.832  36.067  13.663
39343W        W 5884  42.721  21.611   1.327
39344W        W 5885   8.708  40.373   3.079
39345W        W 5886   5.186  37.216   1.862
39346W        W 5887  20.711   9.339   1.165
39347W        W 5888  18.518   4.965  12.840
39348W        W 5889   5.438  17.978   3.268
39349W        W 5890  31.973  44.893  11.536
39350W        W 5891  26.629   8.887   3.536
39351W        W 5892   8.846  32.452  13.042
39352W        W 5893  22.640  24.565  12.052
39353W        W 5894  34.346  33.014  14.574
39354W        W 5895   9.156   5.264  10.718
39355W        W 5896   5.452   7.602  11.724
39356W        W 5897   4.510   9.306  13.461
39357W        W 5898  33.934  24.927   0.403
39358W        W 5899  19.583  15.277   2.138
39359W        W 5900  43.024  19.981  12.730
39360W        W 5901  30.704  40.511   4.716
39361W        W 5902  38.426  35.155   2.690
39362W        W 5903   8.780  36.657  10.747
39363W        W 5904  36.266  37.907   4.604
39364W        W 5905  14.493  39.913  11.646
39365W        W 5906  35.942   2.667   3.650
39366W        W 5907  29.427  42.027  12.125
39367W        W 5908  25.434  40.331   3.300
39368W        W 5909  34.404  32.390  13.353
39369W        W 5910  32.885  36.548  13.303
39370W        W 5911  30.560  10.669   4.202
39371W        W 5912  19.634   9.714   3.779
39372W        W 5913  10.189  39.832   0.958
39373W        W 5914  28.194  13.409  11.085
39374W        W 5915  23.717  13.501   2.723
39375W        W 5916  42.450  18.548   2.107
39376W        W 5917  23.480  15.844  10.661
39377W        W 5918  20.905  10.144   4.996
39378W        W 5919  40.824  33.975  11.491
39379W        W 5920  21.036   3.639   2.300
39380W        W 5921  11.267  12.356  12.132
39381W        W 5922   2.487   6.306   4.196
39382W        W 5923  27.428  26.073   4.194
39383W        W 5924  19.476  17.219   1.692
39384W        W 5925  23.282   4.183  11.199
39385W        W 5926  18.321  23.470   0.662
39386W        W 5927   5.225   7.108   0.878
39387W        W 5928  15.095  22.041  13.183
39388W        W 5929  39.898   8.362   2.791
39389W        W 5930  36.572  38.637  11.517
39390W        W 5931  18.762  40.380  10.835
39391W        W 5932  32.849  20.670  11.163
39392W        W 5933  33.985  27.382  14.358
39393W        W 5934  33.406  16.022  12.355
39394W        W 5935  10.172  22.067   3.811
39395W        W 5936  10.249   5.398  11.652
39396W        W 5937  32.379  37.415  13.343
39397W        W 5938  26.645  14.309   0.233
39398W        W 5939  10.284  12.799   1.052
39399W        W 5940  26.935  26.479   3.325
39400W        W 5941  17.108  11.709  14.000
39401W        W 5942  36.495  35.316   2.244
39402W        W 5943  35.822  10.680  11.602
39403W        W 5944  24.746  32.403  14.003
39404W        W 5945  41.558  14.665  14.521
39405W        W 5946  37.232  38.976   3.739
39406W        W 5947  24.403   2.709   2.701
39407W        W 5948  37.117  17.671   1.196
39408W        W 5949  13.141   6.183  12.393
39409W        W 5950  21.497   0.890  11.099
39410W        W 5951   2.845  40.319   1.903
39411W        W 5952   6.847  22.950  11.218
39412W        W 5953  33.476  26.228   2.223
39413W        W 5954  14.633   8.075   0.092
39414W        W 5955  31.294  34.710   1.379
39415W        W 5956  12.192  42.352  12.977
39416W        W 5957  14.146  12.121   1.553
39417W        W 5958  25.539   2.155   2.258
39418W        W 5959  16.741  23.516  12.132
39419W        W 5960   0.075   8.374  13.819
39420W        W 5961  40.499  15.878   3.779
39421W        W 5962  28.220  44.956   3.127
39422W        W 5963  33.993  12.200   1.001
39423W        W 5964   5.841  22.921  10.956
39424W        W 5965  40.160  44.245  10.494
39425W        W 5966  36.857  22.619  11.988
39426W        W 5967  35.114  17.970   3.795
39427W        W 5968  30.882   6.898  13.940
39428W        W 5969  12.613  32.476  10.677
39429W        W 5970   6.826   4.495   0.943
39430W        W 5971  41.471  19.332   1.118
39431W        W 5972   7.055   7.232  11.943
39432W        W 5973  24.768  36.550   0.276
39433W        W 5974  14.722  31.454  13.433
39434W        W 5975  23.758  30.382   3.560
39435W        W 5976  10.731  22.459  10.897
39436W        W 5977  17.526  21.225  12.700
39437W        W 5978  32.352   0.999   0.473
39438W        W 5979  31.022  34.452  14.328
39439W        W 5980   4.493  27.512   9.786
39440W        W 5981  26.677   2.412   1.797
39441W        W 5982   7.086  19.159   1.893
39442W        W 5983  44.704  18.136  10.932
39443W        W 5984  13.850  43.591  11.667
39444W        W 5985  24.961  29.420   4.526
39445W        W 5986  40.208  10.849  13.941
39446W        W 5987   2.882   5.710   2.865
39447W        W 5988   1.164   2.122   9.787
39448W        W 5989  12.961  44.316   4.448
39449W        W 5990  17.074  36.380  13.420
39450W        W 5991  23.585  10.514  14.846
39451W        W 5992  38.005  15.566  13.718
39452W        W 5993   3.086  16.843  11.161
39453W        W 5994  41.953  24.674   2.720
39454W        W 5995  28.699   6.247  10.931
39455W        W 5996   9.812   9.147  11.555
39456W        W 5997  14.278   3.274   2.413
39457W        W 5998   6.480  19.348   2.470
39458W        W 5999  25.049   5.860   2.581
39459W        W 6000   5.478  41.894   4.098
39460W        W 6001  29.053   8.191   1.255
39461W        W 6002   1.811   8.906  11.974
39462W        W 6003  21.709  36.497  14.575
39463W        W 6004  21.728  15.582   3.138
39464W        W 6005  31.382  34.434  12.963
39465W        W 6006  30.075  14.307   1.969
39466W        W 6007  21.713  31.792   4.724
39467W        W 6008  40.607  36.829   2.940
39468W        W 6009  34.320   2.515  14.735
39469W        W 6010  35.419  42.040  11.264
39470W        W 6011  12.546  13.618   0.895
39471W        W 6012  15.713  39.004  13.527
39472W        W 6013  17.933  21.686  11.623
39473W        W 6014  39.237  11.322   4.558
39474W        W 6015   7.296   1.861  11.753
39475W        W 6016  25.911  20.538  14.997
39476W        W 6017  19.567   7.158  12.483
39477W        W 6018  20.643   5.386   1.984
39478W        W 6019  14.687  33.939   4.325
39479W        W 6020  24.068  19.526   3.360
39480W        W 6021   8.561   3.586   1.893
39481W        W 6022  38.828   5.203   1.737
39482W        W 6023  30.071   5.962  13.757
39483W        W 6024   3.257  29.151  14.809
39484W        W 6025   6.928  17.217   1.346
39485W        W 6026  43.510  32.215   1.642
39486W        W 6027  44.759  24.732  13.459
39487W        W 6028   4.344  14.164   1.390
39488W        W 6029   3.230  27.611  13.051
39489W        W 6030  24.933   9.350   2.950
39490W        W 6031  29.403  20.294  12.125
39491W        W 6032  29.518  32.386  13.913
39492W        W 6033  23.487  33.082   4.654
39493W        W 6034  24.586  26.548  13.056
39494W        W 6035  14.810  39.876   2.762
39495W        W 6036  41.744  41.986   4.468
39496W        W 6037  14.920  27.368  10.572
39497W        W 6038  31.052   7.940  11.652
39498W        W 6039   7.173  27.140   2.381
39499W        W 6040   9.277  29.900  10.484
39500W        W 6041   2.390  17.644   3.214
39501W        W 6042  42.954   2.558   3.563
39502W        W 6043  23.666   5.969  13.470
39503W        W 6044   4.397  36.008   3.265
39504W        W 6045  24.984   8.874   3.741
39505W        W 6046   0.880  17.273   3.823
39506W        W 6047   9.406  42.298  14.319
39507W        W 6048   0.443  29.045  13.991
39508W        W 6049  26.685  15.212   1.840
39509W        W 6050  15.869  11.614   0.479
39510W        W 6051  15.812   7.276   0.617
39511W        W 6052   3.802  40.017  12.453
39512W        W 6053  44.352  28.447  14.453
39513W        W 6054  30.219  11.208   9.837
39514W        W 6055  40.992  12.198   4.311
39515W        W 6056  35.468  23.058  10.992
39516W        W 6057  26.190   1.609   0.392
39517W        W 6058  11.271  27.933  14.793
39518W        W 6059  11.161  39.253   3.689
39519W        W 6060  32.005  42.057   2.604
39520W        W 6061  43.284  18.348  10.928
39521W        W 6062  39.022   0.719   0.006
39522W        W 6063  21.256  43.016  12.587
39523W        W 6064  21.191  24.902  11.102
39524W        W 6065  29.906  33.619   1.680
39525W        W 6066  43.503  38.500   2.106
39526W        W 6067  19.327  39.375   0.118
39527W        W 6068  21.571  13.762  11.368
39528W        W 6069  17.284  26.133   4.528
39529W        W 6070  41.299   2.497  12.034
39530W        W 6071  34.005  42.090  13.620
39531W        W 6072  18.356  30.674  11.293
39532W        W 6073  12.615  28.968   2.289
39533W        W 6074  16.339   5.649   2.354
39534W        W 6075  21.932  37.915   0.337
39535W        W 6076  38.836  32.029   3.625
39536W        W 6077  15.580   2.963  11.789
39537W        W 6078  42.987  37.062   0.838
39538W        W 6079  38.334   2.491   1.336
39539W        W 6080  15.829  18.702   0.824
39540W        W 6081  36.151  12.666   4.693
39541W        W 6082  23.062  10.424  11.955
39542W        W 6083  40.030  17.156  12.994
39543W        W 6084  22.407  32.481   3.801
39544W        W 6085   9.182  15.046  12.587
39545W        W 6086  31.361  41.379  12.626
39546W        W 6087  10.354  13.280   2.387
39547W        W 6088  35.590  20.166   0.036
39548W        W 6089  25.588  20.047  13.101
39549W        W 6090  20.763  19.791  12.419
39550W        W 6091  44.533  18.235  11.427
39551W        W 6092  33.906  25.115  14.911
39552W        W 6093   4.645   8.841   4.008
39553W        W 6094  43.060  35.253  14.031
39554W        W 6095  38.262  38.379  12.485
39555W        W 6096  16.163  36.394  11.120
39556W        W 6097  24.151  38.967   2.447
39557W        W 6098  25.502  38.257   2.316
39558W        W 6099  20.145  24.450   3.743
39559W        W 6100  38.573  34.533  11.685
39560W        W 6101  22.029  28.074   1.765
39561W        W 6102  27.056   5.460   1.768
39562W        W 6103  10.787  20.732  10.652
39563W        W 6104  42.174  10.820   3.668
39564W        W 6105  41.661  20.988   3.804
39565W        W 6106  36.569  43.235   3.660
39566W        W 6107   3.959  18.679  11.299
39567W        W 6108  33.259   4.866   4.066
39568W        W 6109  10.421  33.875  10.729
39569W        W 6110   1.121  28.439   5.362
39570W        W 6111  27.253  43.424   3.796
39571W        W 6112  37.342   4.364  13.561
39572W        W 6113  41.880  43.456   0.763
39573W        W 6114  43.558  18.244   1.945
39574W        W 6115   8.439  19.651  10.498
39575W        W 6116  36.551   7.349  12.776
39576W        W 6117   1.202   7.156   0.919
39577W        W 6118   0.742  17.067   0.987
39578W        W 6119  32.114  27.586  14.484
39579W        W 6120  25.542  24.522   0.856
39580W        W 6121  42.247  16.653  14.050
39581W        W 6122   3.193   7.941   3.179
39582W        W 6123  33.795  22.029   3.594
39583W        W 6124  44.732   1.345  10.760
39584W        W 6125  17.804  16.243   1.390
39585W        W 6126  28.368   7.403   3.758
39586W        W 6127  26.821  11.860   1.350
39587W        W 6128   1.176  44.207  12.057
39588W        W 6129  34.951  29.433   1.673
39589W        W 6130  40.229  11.203   4.243
39590W        W 6131  32.743  37.922   2.397
39591W        W 6132  35.106   4.406  13.697
39592W        W 6133  42.407  38.988   3.426
39593W        W 6134  30.563  11.129   5.526
39594W        W 6135  13.688   8.772   2.434
39595W        W 6136  15.577  16.161  14.486
39596W        W 6137  10.696  21.172  12.104
39597W        W 6138  14.195  30.158   3.471
39598W        W 6139  27.075  41.768  10.620
39599W        W 6140   3.680  15.674   1.884
39600W        W 6141  40.079  25.536   4.538
39601W        W 6142   6.365  40.728   1.377
39602W        W 6143   8.774   5.345  14.072
39603W        W 6144   5.427  24.463   2.558
39604W        W 6145  20.714  27.797   1.031
39605W        W 6146   0.379   5.726  13.521
39606W        W 6147  19.023   1.250  12.978
39607W        W 6148  15.376  28.470  14.791
39608W        W 6149  33.019   1.880  11.552
39609W        W 6150  16.495  30.007   1.602
39610W        W 6151   2.826  33.792   9.852
39611W        W 6152  19.707   2.225  12.026
39612W        W 6153  37.528  39.405   3.773
39613W        W 6154  16.836  10.642  10.579
39614W        W 6155  30.189  20.599   1.290
39615W        W 6156  17.461  29.742  10.930
39616W        W 6157  31.545  19.171   1.653
39617W        W 6158  14.910  28.095  11.173
39618W        W 6159   4.617  44.299  13.372
39619W        W 6160  43.923  32.038  14.507
39620W        W 6161  11.139  10.713   4.504
39621W        W 6162  15.237   9.688  13.691
39622W        W 6163  21.152  35.584   3.857
39623W        W 6164  44.966  20.593  12.531
39624W        W 6165  23.392  38.434  11.688
39625W        W 6166  13.777  40.268  14.727
39626W        W 6167  29.212  13.681  13.062
39627W        W 6168  34.627  22.729   4.960
39628W        W 6169   4.706   1.268   3.978
39629W        W 6170  35.699  33.636   5.066
39630W        W 6171  14.573  40.663   4.065
39631W        W 6172  16.747  15.607  14.503
39632W        W 6173  17.797   9.092   0.392
39633W        W 6174  17.161   7.835  13.506
39634W        W 6175  44.241  27.923  10.418
39635W        W 6176  20.196   1.139  12.535
39636W        W 6177   1.971   2.876   1.979
39637W        W 6178  15.797  15.669  10.395
39638W        W 6179  27.769   3.829   2.387
39639W        W 6180  15.791  22.917   0.290
39640W        W 6181  40.527  42.831  14.557
39641W        W 6182  41.341  20.051  11.172
39642W        W 6183  29.802  10.708   5.299
39643W        W 6184  13.208  36.102   0.728
39644W        W 6185  37.457  12.466   1.778
39645W        W 6186  29.172  43.249  13.082
39646W        W 6187  27.487  44.898   0.878
39647W        W 6188  31.060  19.119  11.987
39648W        W 6189  38.489  17.234   0.477
39649W        W 6190  20.560  41.906   4.546
39650W        W 6191  20.295  35.001   2.133
39651W        W 6192  39.009  22.978   2.574
39652W        W 6193  23.704  38.884  12.361
39653W        W 6194  15.662   8.276   4.072
39654W        W 6195  43.350  12.679  11.692
39655W        W 6196  21.538  25.313   2.916
39656W        W 6197  11.032  25.873  14.781
39657W        W 6198   7.293   5.721   1.948
39658W        W 6199   6.738  27.977   2.717
39659W        W 6200  24.239   1.309  12.903
39660W        W 6201  21.987  10.973   0.050
39661W        W 6202  42.203  20.502  11.048
39662W        W 6203  26.063  41.700  14.870
39663W        W 6204  31.450  17.679   0.769
39664W        W 6205  32.161  11.725  11.511
39665W        W 6206  19.654  15.760   0.722
39666W        W 6207   4.342   5.713  14.572
39667W        W 6208  26.593  10.838   4.658
39668W        W 6209  29.738   5.021  11.589
39669W        W 6210  15.864  13.754  11.555
39670W        W 6211   1.766  13.781   4.059
39671W        W 6212   6.934  18.970  14.190
39672W        W 6213  31.558   7.744   1.758
39673W        W 6214   1.852  18.568  14.856
39674W        W 6215  32.007  29.715   2.701
39675W        W 6216  28.174   0.209  11.051
39676W        W 6217  22.145  27.350  12.930
39677W        W 6218  15.609  43.599  13.028
39678W        W 6219  36.309  21.110   0.556
39679W        W 6220  33.073  44.754  13.550
39680W        W 6221  19.374   9.574  11.608
39681W        W 6222  44.248  33.529  11.929
39682W        W 6223   7.201  20.714   1.986
39683W        W 6224  19.173  12.150  12.596
39684W        W 6225  13.176  28.732  12.447
39685W        W 6226  18.501  24.807  12.350
39686W        W 6227   2.790  38.842  14.552
39687W        W 6228  37.349  10.521  10.902
39688W        W 6229   6.191  17.982  11.958
39689W        W 6230  36.446  29.269  12.544
39690W        W 6231  32.646  25.124  13.158
39691W        W 6232  24.564  17.749   0.410
39692W        W 6233  35.497  11.771   0.624
39693W        W 6234  18.316  16.283  13.589
39694W        W 6235  30.999  25.167   1.231
39695W        W 6236  20.654  22.800   1.757
39696W        W 6237  24.878   6.126   5.477
39697W        W 6238  29.757  17.609  10.683
39698W        W 6239   9.884  27.119   3.294
39699W        W 6240   6.292  11.821   0.733
39700W        W 6241  10.970   0.924  11.892
39701W        W 6242   8.211  24.612  13.457
39702W        W 6243  28.082  41.820   0.160
39703W        W 6244  19.684  11.636  12.871
39704W        W 6245   6.662  29.334  12.532
39705W        W 6246  29.689  44.917   3.346
39706W        W 6247  41.399  17.085  14.823
39707W        W 6248  33.305  35.689  10.016
39708W        W 6249   8.186  44.042   1.277
39709W        W 6250  36.958  17.654  10.998
39710W        W 6251  41.563  35.929  12.221
39711W        W 6252  28.602  21.766   3.303
39712W        W 6253  37.131  31.580   4.155
39713W        W 6254  43.973   6.745  12.907
39714W        W 6255  26.408  20.681   0.925
39715W        W 6256  17.713  17.142   4.280
39716W        W 6257   7.213   0.382   0.784
39717W        W 6258  19.344  22.128   0.068
39718W        W 6259  34.776  33.381   0.734
39719W        W 6260  31.473  36.013  11.102
39720W        W 6261  14.087  33.369  12.772
39721W        W 6262  28.992  27.124   3.655
39722W        W 6263  10.939  43.549   0.971
39723W        W 6264   0.408  17.641  12.160
39724W        W 6265  37.975   8.444  13.921
39725W        W 6266  30.118  28.153  14.144
39726W        W 6267   5.759   7.483  13.832
39727W        W 6268   9.428  13.197  13.787
39728W        W 6269   8.785  14.227  13.046
39729W        W 6270  32.522  17.075  12.011
39730W        W 6271   0.301  40.536   2.713
39731W        W 6272  14.406   1.224   4.397
39732W        W 6273   0.450  26.365   3.184
39733W        W 6274  27.695  34.608  13.325
39734W        W 6275  39.099   9.624   4.851
39735W        W 6276  30.390  43.260   4.673
39736W        W 6277  16.142  22.321   2.430
39737W        W 6278  28.289  12.936   4.906
39738W        W 6279  42.488  13.500  10.210
39739W        W 6280  42.257  23.954   3.274
39740W        W 6281  33.865  21.987  11.556
39741W        W 6282  33.391  37.118   2.218
39742W        W 6283  14.228  33.547  10.920
39743W        W 6284   4.256  36.490   3.438
39744W        W 6285  17.293  36.636   4.692
39745W        W 6286  21.248  24.604   1.770
39746W        W 6287  13.687  24.768   0.371
39747W        W 6288   4.816   2.536   3.963
39748W        W 6289  32.519  10.653  13.878
39749W        W 6290  19.032  11.244   3.544
39750W        W 6291  12.443   0.022   2.402
39751W        W 6292   1.221  36.895   3.381
39752W        W 6293  27.120   6.469   2.694
39753W        W 6294  38.478  24.464  11.894
39754W        W 6295  18.589  43.462  12.533
39755W        W 6296  23.569   7.421   2.404
39756W        W 6297  12.917  12.123   1.713
39757W        W 6298  13.364   8.382  11.137
39758W        W 6299   6.924  30.000  13.906
39759W        W 6300  42.110  42.844   4.671
39760W        W 6301  44.520  24.582  13.908
39761W        W 6302   5.944  35.001  12.079
39762W        W 6303  11.752  28.513   2.913
39763W        W 6304   9.712  39.643  12.456
39764W        W 6305  12.224  16.971  13.011
39765W        W 6306  41.956   9.305   1.218
39766W        W 6307  33.915  20.385   1.302
39767W        W 6308  11.690  40.449   2.857
39768W        W 6309  10.551  12.317  13.850
39769W        W 6310  32.534  31.876  13.525
39770W        W 6311   3.484  29.719  12.929
39771W        W 6312  27.527   7.373   2.724
39772W        W 6313   0.376  36.120  13.441
39773W        W 6314   5.517   2.173   1.016
39774W        W 6315  33.720   4.930   3.829
39775W        W 6316  38.929  25.917  10.599
39776W        W 6317  34.883  18.182   4.211
39777W        W 6318   7.906  26.081  11.210
39778W        W 6319  24.744  41.108  14.020
39779W        W 6320  42.448  25.313   4.229
39780W        W 6321  22.548  40.360   3.275
39781W        W 6322  42.873   0.124   3.451
39782W        W 6323  32.220  28.494   2.632
39783W        W 6324  44.821   0.782   2.678
39784W        W 6325   1.646   2.822  14.927
39785W        W 6326  44.824  24.431   4.128
39786W        W 6327  20.492  35.746  12.618
39787W        W 6328  34.553  26.314  10.621
39788W        W 6329  14.263   7.402  13.812
39789W        W 6330   6.967   3.489  10.262
39790W        W 6331   3.014  37.024   3.718
39791W        W 6332  11.930  23.065   0.734
39792W        W 6333   2.856  12.205   4.998
39793W        W 6334  31.364  39.220  12.970
39794W        W 6335   2.207  10.815   2.315
39795W        W 6336   9.947  31.116   3.320
39796W        W 6337  16.575  22.106   1.586
39797W        W 6338  42.585  29.290   0.725
39798W        W 6339   8.512  41.239   2.203
39799W        W 6340   9.478   2.626  12.559
39800W        W 6341   8.651  41.872   5.297
39801W        W 6342  16.647  35.184   0.202
39802W        W 6343   2.922  35.533   5.459
39803W        W 6344  24.430  23.802  13.408
39804W        W 6345  43.575   9.685  13.429
39805W        W 6346  28.556  11.610   0.827
39806W        W 6347  22.428  12.083   2.354
39807W        W 6348  16.148  43.409   4.251
39808W        W 6349   2.006   7.822  12.107
39809W        W 6350  25.773  19.732  11.741
39810W        W 6351  32.026  40.940  14.775
39811W        W 6352   5.656  13.174   1.622
39812W        W 6353  42.930   2.058   3.740
39813W        W 6354  20.155  21.598  10.575
39814W        W 6355  30.868  40.826  10.642
39815W        W 6356   0.181   6.355   3.844
39816W        W 6357  31.080   3.851  14.301
39817W        W 6358  44.290  32.788   0.947
39818W        W 6359  36.192  10.839  10.690
39819W        W 6360  26.911  31.336   4.034
39820W        W 6361  25.747  19.312   1.133
39821W        W 6362  36.837  25.915   2.238
39822W        W 6363  25.268  19.658  13.005
39823W        W 6364  34.582  19.634   5.008
39824W        W 6365  21.115   0.112   1.218
39825W        W 6366  22.037  21.193  12.580
39826W        W 6367  21.223   3.095   4.058
39827W        W 6368  14.843  29.915  10.669
39828W        W 6369  17.524   7.641  12.095
39829W        W 6370  28.066  31.263   4.479
39830W        W 6371   0.192   1.961   4.641
39831W        W 6372  28.271  11.263   2.601
39832W        W 6373   6.183  28.208   1.338
39833W        W 6374   9.613  29.554   1.930
39834W        W 6375   1.039  17.054  10.340
39835W        W 6376  33.172  42.640   3.095
39836W        W 6377  22.519  17.750  13.948
39837W        W 6378  25.660   9.305  14.901
39838W        W 6379  34.334  38.865  14.010
39839W        W 6380  33.519  21.959  14.104
39840W        W 6381  13.857   9.372  11.197
39841W        W 6382  10.616  13.930   4.666
39842W        W 6383  42.561  16.834   1.187
39843W        W 6384  43.187  28.412   0.332
39844W        W 6385  43.787  15.094  11.150
39845W        W 6386  30.873   8.445  12.514
39846W        W 6387  21.642  27.962   0.403
39847W        W 6388  17.516  44.897   2.640
39848W        W 6389   4.150  22.951  13.581
39849W        W 6390  21.604   2.383  12.012
39850W        W 6391  38.446  16.748   0.708
39851W        W 6392   3.973   1.932  10.701
39852W        W 6393  15.835  31.040  11.581
39853W        W 6394   0.282  10.421  14.952
39854W        W 6395  14.629  28.931  11.571
39855W        W 6396  18.997  34.432  13.350
39856W        W 6397  43.334  33.792  11.447
39857W        W 6398   2.126   5.329  14.805
39858W        W 6399  44.971  26.997   1.608
39859W        W 6400  27.063  39.549  14.521
39860W        W 6401  36.499  33.128   0.852
39861W        W 6402  13.365  33.382   2.752
39862W        W 6403   7.197  20.283  11.360
39863W        W 6404   1.963  16.718   4.664
39864W        W 6405  28.470   0.346   2.001
39865W        W 6406  38.617   3.927  11.077
39866W        W 6407   6.221  42.400   0.005
39867W        W 6408  41.604  17.843   4.291
39868W        W 6409  42.106  26.471  14.251
39869W        W 6410  29.084  36.578  13.801
39870W        W 6411  20.084  31.502  11.170
39871W        W 6412  44.420  40.154  10.307
39872W        W 6413   3.970   0.696  10.693
39873W        W 6414  40.275  28.279   4.055
39874W        W 6415  21.193  23.313   0.289
39875W        W 6416  34.851  30.973  10.471
39876W        W 6417  21.311  23.474   3.693
39877W        W 6418  15.708  10.294   1.205
39878W        W 6419  18.753  20.816  11.211
39879W        W 6420   5.947  42.770  11.625
39880W        W 6421  31.090  35.256   4.843
39881W        W 6422  31.673  33.499  13.048
39882W        W 6423   1.008  39.758   2.196
39883W        W 6424  21.154  20.716  14.006
39884W        W 6425   5.930   1.997   1.792
39885W        W 6426   7.007   9.981   3.322
39886W        W 6427  18.298   5.801  10.695
39887W        W 6428  19.269  40.472   0.728
39888W        W 6429  11.781  13.671  10.910
39889W        W 6430  41.860  26.611   4.596
39890W        W 6431  26.670  37.459   2.298
39891W        W 6432  40.228  37.503   1.644
39892W        W 6433   4.745  24.575  11.370
39893W        W 6434  35.377  28.504  13.341
39894W        W 6435   5.402  10.055   0.845
39895W        W 6436  29.222  34.561   3.623
39896W        W 6437  10.810   1.713   4.619
39897W        W 6438  43.359  24.027   2.246
39898W        W 6439   1.224  16.424   0.257
39899W        W 6440  42.417  14.506   4.711
39900W        W 6441  22.494   0.818  14.118
39901W        W 6442  17.695  14.363  14.425
39902W        W 6443  12.790  13.911  13.664
39903W        W 6444   4.947   0.749   3.091
39904W        W 6445   0.316   9.883   2.340
39905W        W 6446   4.966   2.893  14.364
39906W        W 6447  11.899  44.207   3.515
39907W        W 6448  13.951  21.575  13.786
39908W        W 6449  37.088   3.319   2.746
39909W        W 6450  43.998  23.609   1.555
39910W        W 6451  17.659  29.472   3.255
39911W        W 6452   2.457  37.182  11.181
39912W        W 6453  28.423   5.695  13.505
39913W        W 6454  35.108  34.032  11.162
39914W        W 6455  43.992   2.842   2.855
39915W        W 6456  43.009  23.075   4.376
39916W        W 6457  44.193  28.189   3.210
39917W        W 6458  27.926   0.662   0.423
39918W        W 6459   0.058  13.617   1.654
39919W        W 6460  44.265  22.647   4.483
39920W        W 6461   1.828  14.318   0.187
39921W        W 6462  36.612  26.023   1.062
39922W        W 6463  15.306  15.152   2.257
39923W        W 6464  17.824   7.800  12.471
39924W        W 6465  10.714  32.821   1.430
39925W        W 6466   1.945   0.881  10.666
39926W        W 6467  30.008  18.815   3.439
39927W        W 6468  34.115   8.825   2.152
39928W        W 6469  12.227  27.993   3.252
39929W        W 6470   5.895  11.681   1.756
39930W        W 6471   2.795   0.452   2.927
39931W        W 6472  39.172  30.814  12.884
39932W        W 6473  36.113  39.560  14.405
39933W        W 6474  43.770   8.445  11.961
39934W        W 6475  24.815  21.281  13.527
39935W        W 6476   2.745  22.742   3.200
39936W        W 6477  11.628  43.053   4.332
39937W        W 6478  41.272   0.245   0.507
39938W        W 6479   8.444  25.489  13.033
39939W        W 6480   1.360   9.133  12.382
39940W        W 6481  19.261  22.116  11.520
39941W        W 6482  35.612  44.248  12.171
39942W        W 6483   5.205   2.281   1.419
39943W        W 6484  27.190  17.686  14.494
39944W        W 6485  16.747  24.722  12.606
39945W        W 6486  17.247  13.639  14.125
39946W        W 6487  42.004  35.027   5.377
39947W        W 6488  29.075  32.660   1.842
39948W        W 6489  33.537  33.259  13.175
39949W        W 6490  17.695  43.874  13.019
39950W        W 6491  18.739   3.151   3.606
39951W        W 6492  29.928   8.242   0.004
39952W        W 6493  11.054  30.474   1.253
39953W        W 6494  32.291  44.385   3.567
39954W        W 6495  15.651   4.008  10.638
39955W        W 6496   1.766   3.846  13.061
39956W        W 6497  42.509  38.968  10.650
39957W        W 6498   3.494  42.836  14.236
39958W        W 6499  39.326   9.938  12.377
39959W        W 6500  36.320  38.448   1.431
39960W        W 6501  24.954  29.610   4.042
39961W        W 6502   8.509  36.569  11.613
39962W        W 6503  31.894  34.297   1.597
39963W        W 6504  34.388  18.370   3.872
39964W        W 6505   0.214   6.351   3.317
39965W        W 6506  13.559  21.677   2.784
39966W        W 6507  20.693  24.254   4.502
39967W        W 6508  12.810  11.187  13.776
39968W        W 6509  35.327  37.784  12.398
39969W        W 6510  23.743  10.629  12.459
39970W        W 6511  16.302  24.505   0.975
39971W        W 6512  18.766  12.155  14.043
39972W        W 6513  24.912  23.399   1.631
39973W        W 6514  18.514   4.838  10.642
39974W        W 6515  43.193  14.671   2.641
39975W        W 6516  11.776  11.328  11.117
39976W        W 6517  13.103  34.347  10.694
39977W        W 6518  41.680   8.719  12.631
39978W        W 6519  33.706  42.801  11.038
39979W        W 6520  12.127  19.820  11.564
39980W        W 6521   5.219  36.975   3.757
39981W        W 6522   0.962  35.606   0.706
39982W        W 6523  34.049   9.408   1.260
39983W        W 6524  25.219  31.858  11.600
39984W        W 6525   2.769  43.508   3.325
39985W        W 6526  31.124  37.918   0.902
39986W        W 6527  44.496  24.432   0.746
39987W        W 6528  16.404  44.793   0.471
39988W        W 6529   4.313  42.324  10.998
39989W        W 6530  12.807  12.138   0.823
39990W        W 6531  25.426  25.474   0.482
39991W        W 6532  20.212   5.764   1.351
39992W        W 6533  19.080   7.359   4.061
39993W        W 6534  12.119  18.097  12.081
39994W        W 6535   5.345  37.828  13.422
39995W        W 6536  13.658  32.108   0.232
39996W        W 6537  16.016  21.957  12.951
39997W        W 6538  17.396  26.966   4.188
39998W        W 6539  30.152  24.462  11.647
39999W        W 6540  35.587  21.843  13.944
40000W        W 6541  41.370  10.779   3.170
40001W        W 6542  43.457  15.621   2.872
40002W        W 6543  31.826  11.922  14.425
40003W        W 6544  24.044  20.438   2.910
40004W        W 6545  35.900   0.437  14.922
40005W        W 6546  21.529   0.439   3.656
40006W        W 6547  33.148  30.686  14.391
40007W        W 6548  27.758   5.767  11.085
40008W        W 6549  29.022   2.027  12.066
40009W        W 6550  31.140  15.737  14.272
40010W        W 6551  24.612  28.149  12.566
40011W        W 6552  43.117  18.511   1.257
40012W        W 6553   5.158  31.678  11.011
40013W        W 6554  23.965  33.610  14.815
40014W        W 6555  33.860  15.135   2.385
40015W        W 6556  11.620  41.392  13.376
40016W        W 6557  10.950  27.417   4.614
40017W        W 6558  16.044   4.870  14.010
40018W        W 6559  28.521   1.967   0.843
40019W        W 6560   0.325  14.131   4.848
40020W        W 6561  34.166  28.904   2.651
40021W        W 6562  13.589  40.998  11.523
40022W        W 6563  26.633  23.980   1.774
40023W        W 6564  19.049  36.935  13.471
40024W        W 6565   9.638  12.307   0.844
40025W        W 6566  12.855  42.509  14.459
40026W        W 6567  12.833  22.290  12.558
40027W        W 6568  44.998   6.740   4.164
40028W        W 6569  12.759  26.938  12.679
40029W        W 6570  34.090  13.371  11.871
40030W        W 6571  23.713   7.993  12.083
40031W        W 6572  15.598  24.234   3.249
40032W        W 6573   3.246  10.233   1.596
40033W        W 6574  36.997  12.364   1.332
40034W        W 6575  30.178  12.271   0.043
40035W        W 6576  36.555  13.550   3.312
40036W        W 6577  27.609  32.509  11.518
40037W        W 6578  38.562   9.846   3.353
40038W        W 6579  33.845  37.299  13.108
40039W        W 6580  20.859  10.664   0.754
40040W        W 6581  33.844  22.665  14.988
40041W        W 6582   5.927  16.234   1.675
40042W        W 6583  40.520  35.137   1.927
40043W        W 6584  27.288  29.519   1.471
40044W        W 6585  44.002  34.539  13.387
40045W        W 6586  44.046  32.062   4.553
40046W        W 6587  32.963   7.728  11.611
40047W        W 6588  40.889  12.802  13.067
40048W        W 6589   8.851  17.038   4.040
40049W        W 6590  26.009  22.465   0.473
40050W        W 6591  35.060  38.410   1.977
40051W        W 6592   0.216  44.419  14.020
40052W        W 6593  15.341  25.831  11.200
40053W        W 6594  21.382  11.788   0.176
40054W        W 6595  36.412   2.929  10.711
40055W        W 6596  13.232  43.009   0.527
40056W        W 6597  21.167  32.429   2.999
40057W        W 6598  26.207  19.646  11.470
40058W        W 6599  17.033  39.902  13.407
40059W        W 6600  11.900   1.868   3.289
40060W        W 6601  31.059   6.658   4.505
40061W        W 6602  17.336  25.426  11.620
40062W        W 6603  40.361  31.931   1.984
40063W        W 6604  22.016  35.381   0.021
40064W        W 6605  18.588  38.768  10.817
40065W        W 6606  38.278  42.112   1.929
40066W        W 6607   2.943  41.082   1.286
40067W        W 6608   6.155  43.265  14.402
40068W        W 6609   2.209  41.892  11.266
40069W        W 6610  44.787  14.320  11.521
40070W        W 6611  26.440  41.455   4.569
40071W        W 6612  34.984  33.088  11.146
40072W        W 6613  41.198  41.420   0.304
40073W        W 6614  32.486  11.171   3.820
40074W        W 6615  21.473   3.155   0.460
40075W        W 6616  11.231  18.127   4.599
40076W        W 6617  36.275  37.620   0.403
40077W        W 6618  28.585   3.196   1.202
40078W        W 6619   4.159  35.074   2.333
40079W        W 6620  28.073  36.095  14.915
40080W        W 6621  27.083   5.163  14.541
40081W        W 6622  39.003   7.064   4.691
40082W        W 6623  28.429  37.039  14.260
40083W        W 6624  21.094   8.443   2.218
40084W        W 6625  35.974  42.542   4.680
40085W        W 6626  10.807   5.456   3.721
40086W        W 6627  34.296  11.411   0.206
40087W        W 6628  41.960  28.387  14.841
40088W        W 6629   7.536  22.555  13.394
40089W        W 6630  39.513   0.196   3.158
40090W        W 6631   8.621   9.226   2.167
40091W        W 6632  42.241  14.228  11.440
40092W        W 6633   8.115  26.909  10.865
40093W        W 6634  14.627  28.441  11.632
40094W        W 6635   7.658   2.913   2.740
40095W        W 6636  15.562  32.941  13.846
40096W        W 6637   4.343   4.234  14.547
40097W        W 6638  43.478  35.421  14.334
40098W        W 6639  44.486  17.254   3.743
40099W        W 6640   0.838   8.575  13.614
40100W        W 6641  14.296  11.237   1.091
40101W        W 6642   1.381  10.497   1.632
40102W        W 6643   9.840  30.362  14.571
40103W        W 6644  24.006   8.405   3.345
40104W        W 6645  37.430   5.652  12.048
40105W        W 6646   8.626   9.979   0.093
40106W        W 6647  27.441  36.968   2.442
40107W        W 6648  24.388  35.428   2.701
40108W        W 6649  15.698  34.398   3.645
40109W        W 6650  37.697   4.424  13.938
40110W        W 6651  12.599   3.689  12.098
40111W        W 6652  18.610  29.724   3.171
40112W        W 6653  42.233  44.453   3.319
40113W        W 6654   5.231   0.800  12.968
40114W        W 6655  11.232  11.748   3.710
40115W        W 6656  24.203  40.682  14.356
40116W        W 6657  37.303  32.980   4.060
40117W        W 6658   9.935  25.750   3.364
40118W        W 6659  35.521  30.979  13.366
40119W        W 6660   2.162  22.653  11.075
40120W        W 6661   5.177  41.083   4.140
40121W        W 6662   3.748  36.679   1.437
40122W        W 6663  31.379  42.320  11.675
40123W        W 6664  36.434  24.109   4.023
40124W        W 6665  26.563  42.589  12.036
40125W        W 6666  10.638   1.061  10.701
40126W        W 6667  40.547  16.207   4.210
40127W        W 6668  15.842  41.164  12.087
40128W        W 6669  19.019   4.940  12.888
40129W        W 6670  36.256   1.644   2.256
40130W        W 6671  39.636  20.794  10.580
40131W        W 6672  14.427  37.505  11.291
40132W        W 6673  33.120  27.549   2.858
40133W        W 6674  23.177  18.039   3.701
40134W        W 6675  26.473   7.919   4.398
40135W        W 6676  22.177   1.234  12.469
40136W        W 6677  15.546   3.503  10.619
40137W        W 6678  28.749  39.404   0.266
40138W        W 6679  29.128  13.599   0.260
40139W        W 6680  30.584  37.617  12.859
40140W        W 6681   7.903  21.579  12.780
40141W        W 6682  16.053  10.137  10.434
40142W        W 6683  22.051  20.280  11.572
40143W        W 6684   4.376  40.906  14.223
40144W        W 6685  32.867  17.303   1.727
40145W        W 6686  14.371  28.941  12.025
40146W        W 6687  43.527   5.488   4.120
40147W        W 6688  19.524  29.703   1.255
40148W        W 6689  21.487  39.067  12.001
40149W        W 6690  22.614  27.148  13.010
40150W        W 6691   5.970   8.497   1.942
40151W        W 6692  29.590  43.939  10.750
40152W        W 6693  21.015  12.085   0.005
40153W        W 6694  39.490  16.622   4.026
40154W        W 6695  26.014  21.659   5.030
40155W        W 6696  12.816   7.183  13.335
40156W        W 6697  38.445  14.653   1.242
40157W        W 6698  31.016  22.821   3.676
40158W        W 6699   5.664  13.342  10.691
40159W        W 6700   2.801  14.068  11.023
40160W        W 6701  10.924  38.703  10.249
40161W        W 6702   2.784  36.359   2.411
40162W        W 6703  38.518  43.937  14.000
40163W        W 6704  27.695  23.512   1.439
40164W        W 6705  27.713   0.283   3.695
40165W        W 6706   1.069  23.663   2.157
40166W        W 6707  44.350  15.738  10.770
40167W        W 6708   0.680   0.410   4.559
40168W        W 6709  30.451  21.841  13.233
40169W        W 6710  31.505   2.352   0.449
40170W        W 6711  14.147  27.543  14.239
40171W        W 6712  11.612  30.634   4.726
40172W        W 6713  36.832  35.015   1.996
40173W        W 6714  16.725  44.764  14.929
40174W        W 6715  20.565   0.400   3.372
40175W        W 6716  41.482  38.778  14.044
40176W        W 6717  15.652  39.523  11.503
40177W        W 6718  34.601  21.740  11.171
40178W        W 6719  29.528  20.691  14.541
40179W        W 6720  43.440  39.812   4.046
40180W        W 6721  18.890   1.337  13.959
40181W        W 6722  25.566  44.436  14.870
40182W        W 6723  26.718  19.077  11.262
40183W        W 6724   0.160   0.042  14.896
40184W        W 6725   0.816  15.096  11.022
40185W        W 6726  44.902  41.647   4.435
40186W        W 6727   0.637  24.540   2.502
40187W        W 6728  20.965  43.561  14.009
40188W        W 6729  24.488  14.286   4.638
40189W        W 6730  33.342  21.956  11.565
40190W        W 6731  40.359   6.541   2.791
40191W        W 6732  31.940  28.453  11.770
40192W        W 6733  40.947  11.658  11.154
40193W        W 6734  29.780  10.656  14.126
40194W        W 6735   4.681  33.403   2.143
40195W        W 6736  36.541  44.051  10.421
40196W        W 6737  39.256  17.070   2.249
40197W        W 6738  12.876   8.733  11.571
40198W        W 6739  24.257   9.315   0.998
40199W        W 6740  42.612  10.664   0.643
40200W        W 6741  44.154  43.726  13.515
40201W        W 6742  42.006  39.070   1.692
40202W        W 6743  33.054  13.076  13.044
40203W        W 6744  43.878  14.055  13.419
40204W        W 6745  24.089   1.829  13.427
40205W        W 6746  37.434  32.443   1.664
40206W        W 6747  10.278  31.493   4.532
40207W        W 6748  39.369  34.085   1.775
40208W        W 6749  25.075   5.196   2.331
40209W        W 6750  22.246  12.441  13.019
40210W        W 6751  33.858  32.883  13.037
40211W        W 6752   5.019  32.730  13.940
40212W        W 6753  17.243  43.144  10.754
40213W        W 6754  24.195  32.512   4.743
40214W        W 6755  35.061   9.221   0.703
40215W        W 6756   6.928   6.878   4.667
40216W        W 6757  42.055  39.268   3.195
40217W        W 6758  15.030  10.399  13.039
40218W        W 6759  38.436  38.360  11.108
40219W        W 6760  23.428  15.756   0.316
40220W        W 6761  22.680  43.383  12.139
40221W        W 6762   6.754  24.271   3.677
40222W        W 6763  11.411   0.536  12.548
40223W        W 6764  11.741  35.388  10.298
40224W        W 6765  35.101  39.242   1.408
40225W        W 6766  37.818  30.010   2.852
40226W        W 6767  40.858  41.883   2.589
40227W        W 6768  30.722  43.472   4.339
40228W        W 6769   1.010  29.468   2.446
40229W        W 6770  10.424  40.497   4.153
40230W        W 6771  43.376  22.629   4.402
40231W        W 6772  16.719  11.019   3.183
40232W        W 6773   2.889  33.556  11.183
40233W        W 6774  21.166  41.390   4.365
40234W        W 6775  20.164  34.527   2.314
40235W        W 6776   2.118  40.916   1.464
40236W        W 6777  17.302  34.454   4.138
40237W        W 6778  19.135   5.851   2.907
40238W        W 6779  40.190  19.472   4.099
40239W        W 6780  31.590  13.888   5.065
40240W        W 6781  18.515  35.146   5.066
40241W        W 6782  43.540  17.990  11.644
40242W        W 6783  18.323   1.485  11.647
40243W        W 6784  12.587   1.218  10.609
40244W        W 6785  33.758  44.651  13.998
40245W        W 6786  11.094   8.289   0.839
40246W        W 6787   8.567  32.060  12.932
40247W        W 6788  31.945  29.880  14.491
40248W        W 6789  19.308  15.883  13.049
40249W        W 6790  39.065  35.104   1.445
40250W        W 6791  24.381  32.613  12.578
40251W        W 6792  44.326   8.911  13.846
40252W        W 6793   2.298  19.657   1.523
40253W        W 6794  35.562   3.155  11.981
40254W        W 6795  28.809   3.077  12.810
40255W        W 6796  19.641  37.014   4.564
40256W        W 6797  41.046   5.040   3.824
40257W        W 6798   9.822  10.231  11.705
40258W        W 6799  42.355  41.069  13.792
40259W        W 6800  16.952   5.093   3.228
40260W        W 6801   7.303  37.097  14.164
40261W        W 6802  23.554  20.367  11.176
40262W        W 6803  39.259  34.259  14.060
40263W        W 6804  23.604  30.701   2.193
40264W        W 6805  17.590  29.509  13.816
40265W        W 6806  27.478   2.766   2.153
40266W        W 6807  20.673  16.323  12.545
40267W        W 6808  39.642  12.163  10.732
40268W        W 6809   1.934  26.556   0.514
40269W        W 6810  20.079  22.043   1.675
40270W        W 6811  26.610  28.480  12.979
40271W        W 6812   3.936   7.979  11.638
40272W        W 6813  44.383  32.273   4.925
40273W        W 6814  40.134  10.731   4.056
40274W        W 6815  24.954  24.732  13.696
40275W        W 6816   9.885  12.761   0.732
40276W        W 6817   8.808  32.413  14.035
40277W        W 6818  16.926  31.005   1.342
40278W        W 6819   3.297  39.297  11.454
40279W        W 6820   5.708   8.768   1.510
40280W        W 6821   6.925  30.410   2.436
40281W        W 6822  39.308  31.538   0.301
40282W        W 6823  38.065   1.040   4.516
40283W        W 6824  42.087  16.199  10.994
40284W        W 6825  14.370  42.028   3.175
40285W        W 6826  18.636  14.920   1.705
40286W        W 6827  27.114  35.113   1.390
40287W        W 6828  32.591  30.552  13.832
40288W        W 6829  12.631  38.328  10.658
40289W        W 6830  39.729  22.424   2.951
40290W        W 6831  40.616  34.496   1.382
40291W        W 6832  44.037  25.576  12.390
40292W        W 6833  44.963  35.384   2.392
40293W        W 6834   2.826  31.687  11.601
40294W        W 6835  43.413   8.031  12.592
40295W        W 6836  42.459  41.984  11.552
40296W        W 6837   5.575  22.693  14.017
40297W        W 6838  37.528  43.721   0.720
40298W        W 6839  25.757  28.023   1.895
40299W        W 6840  23.252  43.295   2.357
40300W        W 6841  24.632  27.899   2.791
40301W        W 6842  22.494  32.366  13.436
40302W        W 6843  43.210  30.333   3.669
40303W        W 6844  35.058  26.262  12.953
40304W        W 6845  18.727   1.528   0.233
40305W        W 6846  12.353  12.743  13.777
40306W        W 6847  20.061  43.453  12.500
40307W        W 6848  34.982  26.101   2.789
40308W        W 6849   3.762  32.245  12.581
40309W        W 6850  23.283   3.667  13.512
40310W        W 6851  20.576  36.989  11.699
40311W        W 6852  39.584   6.225   0.315
40312W        W 6853   2.809  31.921  13.466
40313W        W 6854  37.506   2.054   0.802
40314W        W 6855  35.485   8.635  10.750
40315W        W 6856  26.457  20.546  10.765
40316W        W 6857  30.388   2.407   3.670
40317W        W 6858  41.353  42.416   1.627
40318W        W 6859  23.404  19.042   2.852
40319W        W 6860   2.093  39.810  14.988
40320W        W 6861  24.523  38.772   0.087
40321W        W 6862   4.874  12.378   1.661
40322W        W 6863  25.191  14.522   0.405
40323W        W 6864  37.148   3.089  11.528
40324W        W 6865   8.820  12.317  11.206
40325W        W 6866  20.404   9.187  12.483
40326W        W 6867  21.500   7.398   4.040
40327W        W 6868  25.035   6.233  12.802
40328W        W 6869  28.737  43.929   3.126
40329W        W 6870  10.349  35.416  14.851
40330W        W 6871  44.495  29.349   0.752
40331W        W 6872  31.562  22.129   4.658
40332W        W 6873  42.712  18.749  14.418
40333W        W 6874  44.070  18.750  14.806
40334W        W 6875   3.278  42.677  11.151
40335W        W 6876   4.141  43.797  12.391
40336W        W 6877  18.944  43.489   0.722
40337W        W 6878  36.639  34.651   1.214
40338W        W 6879  27.306  29.914  13.002
40339W        W 6880  38.428   8.195   1.882
40340W        W 6881   0.852  27.443  11.906
40341W        W 6882  40.312  38.062  14.574
40342W        W 6883   6.485  24.276   9.975
40343W        W 6884   7.214  17.686  11.210
40344W        W 6885  26.194   4.737   4.621
40345W        W 6886  18.758  35.879   2.325
40346W        W 6887   1.440   4.663  14.412
40347W        W 6888  16.392   7.794  10.538
40348W        W 6889  13.479  43.308  14.668
40349W        W 6890  11.818  34.221   4.575
40350W        W 6891   3.435   3.482   3.682
40351W        W 6892  21.745  24.402  12.030
40352W        W 6893   1.152  16.613  11.044
40353W        W 6894  36.964  13.095  11.976
40354W        W 6895  22.462   9.273  14.499
40355W        W 6896  12.180  21.639   1.374
40356W        W 6897  32.033   5.881   0.992
40357W        W 6898   3.930  21.864  12.190
40358W        W 6899   3.624   9.211  14.665
40359W        W 6900  11.297  31.729  12.851
40360W        W 6901  15.866  28.175   3.563
40361W        W 6902   0.211  12.220   3.883
40362W        W 6903  42.426  14.508  11.059
40363W        W 6904  44.790  25.190   3.697
40364W        W 6905   4.098   7.493   3.759
40365W        W 6906  31.994  42.853   2.753
40366W        W 6907  13.608   6.214   3.014
40367W        W 6908  13.906  26.194   0.794
40368W        W 6909  43.548  30.248   2.671
40369W        W 6910  34.533   0.113  12.012
40370W        W 6911   5.126  38.551  11.482
40371W        W 6912  23.912  35.106   3.316
40372W        W 6913  27.513  23.012   1.326
40373W        W 6914  13.724  34.415   3.674
40374W        W 6915   1.943  22.608  13.577
40375W        W 6916   7.395   4.833   0.283
40376W        W 6917  15.277  42.767  11.433
40377W        W 6918  30.032  36.128  12.946
40378W        W 6919  17.122  31.647  11.633
40379W        W 6920  27.527  16.099   2.768
40380W        W 6921  11.528  16.827  13.427
40381W        W 6922  31.504  24.479  14.543
40382W        W 6923   7.068  13.311   2.360
40383W        W 6924   5.030  43.392   0.870
40384W        W 6925   4.799  25.950  13.420
40385W        W 6926  23.784  27.064  11.082
40386W        W 6927  26.715  42.127   4.174
40387W        W 6928  40.243  17.767  13.630
40388W        W 6929  21.656   8.420   3.984
40389W        W 6930  16.125  25.780  13.920
40390W        W 6931  15.066  17.255  11.397
40391W        W 6932  17.234  33.839   2.372
40392W        W 6933  13.318  30.476   0.847
40393W        W 6934   5.922  20.106   1.826
40394W        W 6935  17.343  43.366   2.169
40395W        W 6936  40.773  42.101   4.156
40396W        W 6937   6.471   3.821   0.513
40397W        W 6938  38.460  15.508   2.254
40398W        W 6939  18.257  16.295  10.630
40399W        W 6940   9.453  41.446   1.172
40400W        W 6941  16.779   8.762   4.086
40401W        W 6942  20.673  12.515   3.330
40402W        W 6943  18.465   4.756   2.206
40403W        W 6944  22.226  30.796  13.554
40404W        W 6945  40.800  31.039   1.794
40405W        W 6946  38.455   8.718  13.857
40406W        W 6947  19.025  13.124  12.410
40407W        W 6948  21.048  11.337  12.551
40408W        W 6949  29.451  28.631  12.481
40409W        W 6950  16.791   3.200   4.837
40410W        W 6951  19.144  17.710   4.656
40411W        W 6952  35.448   9.313   1.500
40412W        W 6953  42.892  32.298   5.164
40413W        W 6954   3.442  38.959  10.789
40414W        W 6955  34.010  30.918  13.347
40415W        W 6956   0.763  37.458   2.247
40416W        W 6957  24.659  43.267   4.077
40417W        W 6958  25.989  29.029  14.118
40418W        W 6959  42.367  36.621  13.509
40419W        W 6960  27.155  35.508  12.557
40420W        W 6961  36.387  28.060  14.808
40421W        W 6962  30.992   8.916  13.907
40422W        W 6963  11.927  25.281  10.114
40423W        W 6964  41.534  34.994  11.587
40424W        W 6965  14.442  31.465  14.009
40425W        W 6966   7.207  29.634   0.153
40426W        W 6967  13.748   4.260   1.499
40427W        W 6968   2.700  15.043   3.554
40428W        W 6969  16.575  12.106  10.573
40429W        W 6970   1.796  23.500   4.856
40430W        W 6971  39.967   2.819   1.190
40431W        W 6972   1.623  12.814   2.796
40432W        W 6973  11.940  20.535   4.114
40433W        W 6974   0.736  16.270   1.528
40434W        W 6975   4.490  15.839   1.468
40435W        W 6976  41.429  18.418  14.135
40436W        W 6977  39.486  26.005  14.929
40437W        W 6978  35.664  30.910   4.288
40438W        W 6979  42.985  20.575  14.716
40439W        W 6980  41.546   0.806  12.121
40440W        W 6981  16.875  24.753   0.069
40441W        W 6982  32.300   7.740   2.858
40442W        W 6983  22.837  33.846   4.630
40443W        W 6984  20.061  28.041  12.319
40444W        W 6985   3.540  13.279   0.822
40445W        W 6986  44.706   2.673  10.041
40446W        W 6987  28.680  44.412   1.656
40447W        W 6988   1.420   7.658   3.989
40448W        W 6989   0.285  38.556  11.142
40449W        W 6990  25.054   4.834  14.921
40450W        W 6991  41.299  34.916   4.302
40451W        W 6992  35.017  37.855   4.329
40452W        W 6993  26.930  40.961  11.028
40453W        W 6994  20.290   4.778  11.145
40454W        W 6995  25.005  25.492   4.603
40455W        W 6996  38.339  27.391  12.107
40456W        W 6997   0.222  36.566  14.358
40457W        W 6998  32.954  10.729  14.625
40458W        W 6999   3.934  26.423  10.355
40459W        W 7000  40.472  39.605   4.599
40460W        W 7001  29.011  39.952   4.578
40461W        W 7002  10.350  42.894  14.939
40462W        W 7003  44.441  21.987   3.338
40463W        W 7004  39.727  25.905  12.056
40464W        W 7005  25.301  41.501  14.498
40465W        W 7006  30.711  10.293   3.808
40466W        W 7007   9.777  31.387   4.696
40467W        W 7008  43.186  29.951  11.592
40468W        W 7009   6.101  37.788   4.986
40469W        W 7010  26.491  29.939   2.720
40470W        W 7011   7.949  34.119   0.662
40471W        W 7012  29.476   0.677   4.812
40472W        W 7013  16.105  13.137   2.179
40473W        W 7014  11.149  39.876   3.106
40474W        W 7015  36.299  35.313   4.972
40475W        W 7016  31.133  35.203   1.399
40476W        W 7017  35.471   9.218   3.730
40477W        W 7018  31.267  29.617   2.034
40478W        W 7019   1.299  30.089  14.998
40479W        W 7020  14.686  25.559   2.336
40480W        W 7021  44.312  33.898  11.553
40481W        W 7022   1.223   9.480  11.201
40482W        W 7023  41.325  11.609  14.590
40483W        W 7024  12.703  42.177   4.905
40484W        W 7025  20.144  12.751   3.219
40485W        W 7026  37.975  31.707   0.905
40486W        W 7027  30.447  24.438   1.042
40487W        W 7028  15.296  26.476  12.051
40488W        W 7029  39.377   1.352   2.461
40489W        W 7030   1.245  12.879  12.521
40490W        W 7031  42.568  19.839   3.727
40491W        W 7032  22.629  10.599  12.162
40492W        W 7033   5.780  19.692  14.658
40493W        W 7034   7.519  18.701   3.582
40494W        W 7035  34.730   6.591   4.272
40495W        W 7036  31.934  23.771  12.188
40496W        W 7037  44.287  11.304  14.306
40497W        W 7038  31.040   9.704  12.109
40498W        W 7039  12.834  38.401   2.754
40499W        W 7040  24.679  31.689  14.391
40500W        W 7041  19.297  10.127  12.459
40501W        W 7042  26.938   5.768  13.851
40502W        W 7043  24.469   4.291   2.602
40503W        W 7044  33.490  39.430  10.031
40504W        W 7045  15.137  39.296  10.711
40505W        W 7046  21.956   1.052   0.301
40506W        W 7047   7.011   1.466   4.603
40507W        W 7048  38.544   3.449  14.132
40508W        W 7049  12.107  35.495  12.485
40509W        W 7050  27.307  32.730  14.586
40510W        W 7051  40.920  40.906  10.686
40511W        W 7052  21.665  19.084  13.449
40512W        W 7053  44.029  34.197   2.849
40513W        W 7054  29.500  44.725   0.369
40514W        W 7055  26.039  19.378  14.069
40515W        W 7056  26.202  42.731  14.774
40516W        W 7057  34.463  11.080  11.020
40517W        W 7058  42.123  11.905  14.283
40518W        W 7059  16.667  11.723   3.598
40519W        W 7060  26.071  32.952   1.973
40520W        W 7061   8.707  16.461   4.745
40521W        W 7062   8.312  31.450   3.568
40522W        W 7063  23.363  38.477  13.503
40523W        W 7064  37.083  42.474   4.632
40524W        W 7065  44.679  42.824  11.570
40525W        W 7066  16.342  25.515  13.077
40526W        W 7067  28.514  36.979  10.894
40527W        W 7068  20.282   3.512  13.415
40528W        W 7069   0.711   4.475  14.404
40529W        W 7070  27.723   4.730   4.700
40530W        W 7071   6.005  37.451  14.778
40531W        W 7072  17.836   4.418  13.497
40532W        W 7073  10.715  29.830  14.494
40533W        W 7074  20.166   6.968   2.558
40534W        W 7075  36.533  18.859   0.144
40535W        W 7076   5.795  38.032   3.830
40536W        W 7077  31.222  43.973  12.136
40537W        W 7078  18.482  38.469  13.043
40538W        W 7079  30.706  15.223   1.168
40539W        W 7080  14.656   2.858  13.985
40540W        W 7081  15.192   1.775   4.481
40541W        W 7082   3.949  10.696  14.370
40542W        W 7083  44.872  37.884   0.408
40543W        W 7084  24.581  25.773   4.785
40544W        W 7085   6.294  11.227   4.033
40545W        W 7086  15.717  35.060   2.492
40546W        W 7087   1.474   8.204   1.871
40547W        W 7088  33.519  20.178   3.351
40548W        W 7089  35.308  42.471  11.520
40549W        W 7090  28.632   7.620  11.068
40550W        W 7091  22.517  12.124   0.066
40551W        W 7092   8.193  33.463   0.254
40552W        W 7093  27.502  42.072  13.524
40553W        W 7094  18.720   1.259  14.749
40554W        W 7095  38.946   6.239  12.084
40555W        W 7096  27.410  23.406   3.372
40556W        W 7097  36.599  31.837   4.053
40557W        W 7098  44.883   7.252   1.155
40558W        W 7099  39.133  12.048  10.857
40559W        W 7100  25.145  22.077  11.531
40560W        W 7101  15.105  35.161  14.936
40561W        W 7102  35.456  10.084  10.633
40562W        W 7103  34.296  31.639   0.234
40563W        W 7104   9.954  16.171   0.881
40564W        W 7105  11.240  11.357   1.814
40565W        W 7106  31.195   4.930   4.197
40566W        W 7107  16.613   0.991   2.274
40567W        W 7108  22.302   9.255   4.656
40568W        W 7109   2.858  42.904  13.017
40569W        W 7110  11.179  38.046  13.294
40570W        W 7111   8.786  26.774  14.373
40571W        W 7112  29.643  30.068  11.176
40572W        W 7113   3.508  22.026   1.196
40573W        W 7114  23.582   1.452   1.855
40574W        W 7115   5.954  43.398   1.248
40575W        W 7116   2.972  24.564   4.312
40576W        W 7117  18.763   9.416   0.359
40577W        W 7118  21.895   3.166  12.765
40578W        W 7119  37.777   9.912   4.023
40579W        W 7120  35.391  20.850   3.133
40580W        W 7121  22.769  40.274  10.979
40581W        W 7122  15.108   7.655  12.325
40582W        W 7123   4.098  23.937  10.314
40583W        W 7124   4.833  40.389  14.751
40584W        W 7125   6.535  42.801  14.950
40585W        W 7126  37.981  17.607  11.552
40586W        W 7127  24.638  24.131   3.693
40587W        W 7128  22.803  39.813  12.914
40588W        W 7129  29.959  27.110   1.935
40589W        W 7130  41.232  17.817  13.859
40590W        W 7131  39.614  37.630  14.243
40591W        W 7132   8.246  17.886   3.264
40592W        W 7133  19.307  18.218  12.047
40593W        W 7134   9.318  22.579   2.087
40594W        W 7135   9.644  42.896  10.669
40595W        W 7136  38.476  36.788   2.240
40596W        W 7137  16.841   3.717   3.373
40597W        W 7138  33.070   8.662  14.083
40598W        W 7139  32.461  37.549  10.642
40599W        W 7140  17.619  15.106  12.524
40600W        W 7141   1.744  33.188  14.941
40601W        W 7142  41.515  28.033  10.910
40602W        W 7143  13.430  10.679  11.378
40603W        W 7144   3.692  27.602  13.314
40604W        W 7145  27.606  15.086  11.483
40605W        W 7146  40.993   2.516   1.751
40606W        W 7147   8.146   6.604   4.164
40607W        W 7148  24.169   4.887   2.315
40608W        W 7149  37.038  18.644   3.374
40609W        W 7150   1.447  20.116  14.841
40610W        W 7151  22.191  25.547   4.161
40611W        W 7152   5.841  35.586   1.452
40612W        W 7153  40.308  38.041  10.733
40613W        W 7154  10.134  13.604   5.150
40614W        W 7155   6.847   5.316  12.809
40615W        W 7156  28.159   6.989  14.855
40616W        W 7157  28.066  36.394   2.601
40617W        W 7158   1.295  39.757   3.724
40618W        W 7159  25.831   6.432  12.514
40619W        W 7160  41.464  29.021  12.488
40620W        W 7161   9.757  13.764  11.248
40621W        W 7162   4.564  44.122   5.412
40622W        W 7163   7.460  35.568   4.146
40623W        W 7164  30.170  44.368   1.837
40624W        W 7165  16.129  18.601   3.533
40625W        W 7166  40.756   8.934  12.392
40626W        W 7167  12.357  13.853  13.359
40627W        W 7168  24.299   9.721  12.609
40628W        W 7169  19.515  30.611  14.880
40629W        W 7170  17.247  33.888   3.291
40630W        W 7171  22.213  25.012  14.885
40631W        W 7172  38.378  20.829   1.485
40632W        W 7173  18.350  29.983   4.521
40633W        W 7174  40.072  16.727  10.221
40634W        W 7175  17.566  22.687   4.584
40635W        W 7176  16.737  14.152   2.298
40636W        W 7177  11.110   9.200  13.823
40637W        W 7178  35.769  25.838  13.419
40638W        W 7179  20.585   4.948   1.151
40639W        W 7180  13.752   6.687   4.263
40640W        W 7181  33.975  27.130   0.860
40641W        W 7182   7.711  34.579   0.607
40642W        W 7183  17.909  27.239   0.430
40643W        W 7184  40.433  33.460   4.151
40644W        W 7185  20.159  42.440   2.065
40645W        W 7186   6.693  23.754   0.320
40646W        W 7187   5.927   7.997  13.739
40647W        W 7188  32.408  12.047   3.962
40648W        W 7189   3.691   6.417  13.864
40649W        W 7190  12.653  17.288  12.138
40650W        W 7191   9.824  25.619  12.063
40651W        W 7192  39.580  12.683   2.679
40652W        W 7193  30.440   1.450   2.813
40653W        W 7194   1.294   6.653   0.805
40654W        W 7195   1.724  20.283  14.449
40655W        W 7196   4.732   9.844   0.063
40656W        W 7197  32.023   7.443   4.137
40657W        W 7198   6.215  28.508   4.182
40658W        W 7199  30.533   8.642  13.884
40659W        W 7200  25.631  33.925  12.116
40660W        W 7201  44.533  30.529  11.582
40661W        W 7202  33.950  37.861   3.216
40662W        W 7203   0.323  30.217  10.779
40663W        W 7204  19.327   1.478  11.211
40664W        W 7205   9.049  33.658   4.334
40665W        W 7206  12.126  24.234   1.363
40666W        W 7207  38.950   1.768  13.483
40667W        W 7208   1.185  15.259  12.605
40668W        W 7209  40.947   5.790  11.062
40669W        W 7210  36.530  29.435   0.432
40670W        W 7211  12.194  28.689  12.298
40671W        W 7212  24.287   7.038  10.734
40672W        W 7213   2.054  24.302   3.409
40673W        W 7214  19.291  23.648  14.766
40674W        W 7215  15.945  17.828   2.965
40675W        W 7216  43.969  40.652   1.006
40676W        W 7217  23.545   9.636   4.025
40677W        W 7218  16.512  38.392  13.394
40678W        W 7219  23.055  11.264   2.293
40679W        W 7220   6.325  38.896  12.095
40680W        W 7221  32.935  35.474   0.681
40681W        W 7222   7.775  28.452  12.437
40682W        W 7223  30.606  21.139   5.052
40683W        W 7224  11.265  21.980  12.157
40684W        W 7225  31.866  29.297  13.282
40685W        W 7226  34.425   0.290   2.702
40686W        W 7227  41.794   3.292   4.135
40687W        W 7228  10.683   7.199  11.679
40688W        W 7229  40.435  36.395  14.551
40689W        W 7230  30.561  39.808   4.213
40690W        W 7231  42.110  35.338   2.339
40691W        W 7232  11.240  35.420   1.855
40692W        W 7233   9.931  31.435  12.111
40693W        W 7234  41.809  26.670   0.741
40694W        W 7235  25.480   1.597   0.977
40695W        W 7236   8.694   3.727   4.666
40696W        W 7237  29.661  24.068  13.822
40697W        W 7238  21.836  34.131  13.434
40698W        W 7239  38.395  10.291   0.810
40699W        W 7240  17.058   9.213  14.933
40700W        W 7241   0.312   0.241  13.103
40701W        W 7242  21.100   7.108   2.695
40702W        W 7243  40.022   6.684   3.127
40703W        W 7244  22.767  44.496   1.025
40704W        W 7245  38.400  31.357   4.029
40705W        W 7246   6.268  25.369   0.723
40706W        W 7247  11.526  14.744   3.594
40707W        W 7248   8.657   5.727  13.713
40708W        W 7249  20.099   3.036  13.275
40709W        W 7250  40.376  41.734  12.975
40710W        W 7251  35.486  30.419   4.958
40711W        W 7252  33.382  14.697  12.609
40712W        W 7253  14.340  27.437  12.071
40713W        W 7254  26.302  18.080  11.141
40714W        W 7255  39.569  30.109   0.882
40715W        W 7256  10.720  30.977  12.118
40716W        W 7257  37.216   1.869   5.382
40717W        W 7258  14.721  31.855  13.829
40718W        W 7259  24.544   0.738  11.096
40719W        W 7260  23.189  34.972   4.692
40720W        W 7261   7.633  20.239  12.562
40721W        W 7262  15.665  12.112  12.193
40722W        W 7263  20.593  40.830  10.737
40723W        W 7264  20.475   4.420   4.538
40724W        W 7265  19.091  14.613  12.463
40725W        W 7266  42.424  14.519  10.530
40726W        W 7267  28.928  42.591  14.507
40727W        W 7268  26.929  20.134   2.630
40728W        W 7269  37.649  16.815  14.551
40729W        W 7270  28.411  18.188   3.146
40730W        W 7271  24.321  15.418  11.125
40731W        W 7272   9.393   2.461   2.636
40732W        W 7273   0.668  34.511  11.687
40733W        W 7274  18.500  19.556   2.851
40734W        W 7275   6.650  28.481   3.803
40735W        W 7276  12.640  10.246  11.237
40736W        W 7277   4.654  35.778   1.474
40737W        W 7278  43.971  34.059   0.274
40738W        W 7279  27.229  14.614   4.043
40739W        W 7280  23.063  40.839   0.823
40740W        W 7281  11.692  44.947  14.931
40741W        W 7282   9.399   3.483  14.857
40742W        W 7283  15.006   5.296   3.153
40743W        W 7284  34.985  27.108  10.446
40744W        W 7285  21.520  43.325  14.397
40745W        W 7286  15.339  30.341   1.662
40746W        W 7287  20.679  31.445   2.893
40747W        W 7288   3.328   5.830  14.548
40748W        W 7289  28.455  10.718  10.956
40749W        W 7290  26.044  27.683  14.655
40750W        W 7291   4.275   6.202   4.151
40751W        W 7292  43.710  13.376   1.164
40752W        W 7293   0.827  12.155  11.957
40753W        W 7294  13.565  33.091   2.372
40754W        W 7295  10.197   6.898   1.432
40755W        W 7296  17.892  40.855  14.872
40756W        W 7297   5.493   0.448   1.625
40757W        W 7298  39.469   5.846   2.676
40758W        W 7299  11.323  32.396  14.825
40759W        W 7300  37.375  40.718   1.751
40760W        W 7301   1.775   3.946   2.525
40761W        W 7302  10.749   8.732   2.952
40762W        W 7303  13.189  41.398   4.492
40763W        W 7304   3.646   1.434   0.430
40764W        W 7305  14.101  20.686  13.352
40765W        W 7306  19.632   8.082  13.378
40766W        W 7307   0.737   4.424   4.922
40767W        W 7308   8.781  20.514  11.928
40768W        W 7309  42.994  43.927  11.750
40769W        W 7310  37.314  36.572  12.518
40770W        W 7311  26.647  24.666  14.192
40771W        W 7312  11.780   3.288   4.599
40772W        W 7313  35.591   2.808  14.819
40773W        W 7314  44.560  19.468  11.892
40774W        W 7315  35.118   5.905  12.061
40775W        W 7316  32.536   5.164   1.882
40776W        W 7317  31.176  21.507  11.926
40777W        W 7318  30.667  32.155  13.497
40778W        W 7319  17.013   7.571   4.902
40779W        W 7320  39.530  32.121  12.903
40780W        W 7321  36.425   8.865   0.376
40781W        W 7322  23.699  29.470   2.738
40782W        W 7323   9.786   5.764  13.554
40783W        W 7324  30.250  10.467  14.287
40784W        W 7325   4.493  29.908   2.760
40785W        W 7326  42.471  42.881  13.577
40786W        W 7327  20.731   1.424  10.954
40787W        W 7328  25.709  30.524   2.751
40788W        W 7329  43.749  29.669   4.842
40789W        W 7330  44.448   2.068  13.867
40790W        W 7331  22.707  24.191  12.989
40791W        W 7332  29.903  29.296   2.719
40792W        W 7333  35.643   8.437  14.937
40793W        W 7334  11.570  19.233   2.785
40794W        W 7335   4.140  43.554  11.318
40795W        W 7336   7.119  33.702   1.905
40796W        W 7337  32.387  31.788   4.885
40797W        W 7338  40.929  34.523   4.893
40798W        W 7339   9.843  41.216  12.555
40799W        W 7340  20.319   9.688  12.494
40800W        W 7341  17.428  22.330  10.219
40801W        W 7342  31.358  35.308   3.072
40802W        W 7343  18.057   1.345  12.071
40803W        W 7344  26.505  39.521   4.597
40804W        W 7345  31.961  20.125   4.821
40805W        W 7346  28.335  15.802  14.961
40806W        W 7347  25.660  37.252   2.121
40807W        W 7348  41.428   0.334  12.358
40808W        W 7349   8.436  12.001   0.234
40809W        W 7350   2.844  31.897   1.325
40810W        W 7351  10.345   1.478  13.367
40811W        W 7352  37.863  41.087  14.683
40812W        W 7353  17.734  42.488   1.869
40813W        W 7354   2.902  17.184   2.454
40814W        W 7355   1.355  42.737  11.915
40815W        W 7356   9.725  38.828  13.001
40816W        W 7357  43.235  33.870  11.933
40817W        W 7358  13.822   1.158  11.086
40818W        W 7359  18.242   1.061  13.500
40819W        W 7360  14.541   7.834  13.377
40820W        W 7361  36.061   7.767   1.477
40821W        W 7362   5.330  25.984   1.380
40822W        W 7363  40.576   2.290   3.604
40823W        W 7364  44.064  26.549  10.541
40824W        W 7365  19.278  34.342  13.810
40825W        W 7366  41.509  15.509  13.381
40826W        W 7367  29.013   2.605  14.330
40827W        W 7368  29.446  40.331   1.989
40828W        W 7369  24.669  16.745  13.452
40829W        W 7370   9.169  27.066   3.375
40830W        W 7371  34.996   9.301   1.755
40831W        W 7372   3.761   9.043   2.837
40832W        W 7373  39.259  18.497  11.513
40833W        W 7374  35.871  43.802   0.971
40834W        W 7375  39.333  15.207   4.583
40835W        W 7376  44.258  15.798   2.246
40836W        W 7377  37.370   7.800  12.911
40837W        W 7378  39.942   9.519  12.087
40838W        W 7379  38.805  25.111  12.964
40839W        W 7380  11.230   7.283   4.212
40840W        W 7381   4.751  15.215   2.978
40841W        W 7382  17.265   7.128   0.932
40842W        W 7383  44.825  10.574  14.237
40843W        W 7384  16.980   4.679  11.463
40844W        W 7385  39.920   1.649  13.509
40845W        W 7386   6.824  36.146  12.389
40846W        W 7387  21.581   4.267  11.277
40847W        W 7388  22.967   2.963   1.331
40848W        W 7389  23.772  39.149   1.750
40849W        W 7390  36.298  26.680  12.837
40850W        W 7391  31.444   7.757   3.143
40851W        W 7392  12.836  35.186  11.571
40852W        W 7393   0.746  44.415  14.001
40853W        W 7394  14.306  32.337   3.085
40854W        W 7395  20.142  29.682   2.303
40855W        W 7396   7.848  30.728  13.410
40856W        W 7397  33.342  41.032  10.728
40857W        W 7398   5.963  31.360  14.685
40858W        W 7399  41.889  41.795  12.894
40859W        W 7400   2.188  33.121   4.593
40860W        W 7401   4.364   9.465  14.704
40861W        W 7402   8.637  25.595   3.690
40862W        W 7403   3.005  34.293   3.541
40863W        W 7404  28.753  21.401   2.917
40864W        W 7405  19.889  32.014  13.977
40865W        W 7406   8.701  38.990   1.255
40866W        W 7407  11.444   9.200  12.890
40867W        W 7408  27.206  41.357   2.169
40868W        W 7409  40.021   4.192  10.703
40869W        W 7410  33.261  20.101   4.999
40870W        W 7411  29.197  17.735  11.613
40871W        W 7412  33.829  22.335   2.670
40872W        W 7413   4.845  37.580  10.314
40873W        W 7414  36.488  16.294   4.723
40874W        W 7415  27.899  28.618  10.717
40875W        W 7416  23.147  15.318   3.290
40876W        W 7417   5.666  43.998  10.852
40877W        W 7418  13.508  26.493   0.703
40878W        W 7419   3.314   4.218   1.432
40879W        W 7420  11.250  22.008   1.223
40880W        W 7421  25.659  25.722  13.856
40881W        W 7422  43.861  19.968   2.320
40882W        W 7423  30.060  16.443  10.803
40883W        W 7424  29.544   6.750  11.385
40884W        W 7425  30.148  24.134   2.765
40885W        W 7426  18.296  22.535  13.884
40886W        W 7427   9.877  25.832   1.509
40887W        W 7428   9.779  17.349  11.917
40888W        W 7429  16.210  26.709   3.670
40889W        W 7430  29.703  20.613   1.459
40890W        W 7431  18.594  24.787   1.705
40891W        W 7432  23.539   5.830   1.493
40892W        W 7433  19.705  28.117   2.126
40893W        W 7434  44.498  44.719  13.325
40894W        W 7435   4.475  37.651   2.549
40895W        W 7436  17.544  38.534  11.502
40896W        W 7437   8.927  13.357  13.077
40897W        W 7438  27.422  12.053   0.718
40898W        W 7439  11.336  20.946  14.321
40899W        W 7440  42.775   4.130  10.626
40900W        W 7441  25.102  11.247   0.813
40901W        W 7442  36.420  32.108   3.152
40902W        W 7443  25.007  12.717  14.086
40903W        W 7444  19.016  34.062   2.838
40904W        W 7445  23.994  35.175  11.632
40905W        W 7446  10.628   5.459   3.219
40906W        W 7447  25.989  21.011  13.824
40907W        W 7448  10.188  12.882   3.353
40908W        W 7449  22.059  31.623  14.040
40909W        W 7450   7.825  22.238  12.994
40910W        W 7451   3.950  27.190  10.923
40911W        W 7452  25.637  13.019   4.982
40912W        W 7453   7.841   8.011  11.219
40913W        W 7454  39.628  16.252  12.574
40914W        W 7455  40.091  17.342   1.376
40915W        W 7456  13.157  19.579   2.149
40916W        W 7457  40.823   9.783  12.949
40917W        W 7458   5.347  41.831   0.888
40918W        W 7459  15.336   8.436   4.871
40919W        W 7460  23.714  28.000   0.181
40920W        W 7461  34.785  33.716   1.770
40921W        W 7462  39.907  20.961   3.424
40922W        W 7463  39.836   2.817   2.759
40923W        W 7464  41.344  25.330  12.306
40924W        W 7465  19.787  30.175  10.865
40925W        W 7466  22.206  18.082   2.791
40926W        W 7467  28.043  34.839   0.970
40927W        W 7468  29.108  28.486  13.877
40928W        W 7469  43.149   8.700   0.707
40929W        W 7470   9.219  28.608  13.138
40930W        W 7471  39.608  42.812  11.635
40931W        W 7472  14.911   8.624  11.624
40932W        W 7473  44.264  17.846  11.197
40933W        W 7474  24.746   4.283  13.836
40934W        W 7475  34.307  22.944   1.518
40935W        W 7476  20.438   5.725  10.271
40936W        W 7477  21.172  42.582  14.069
40937W        W 7478   1.924  28.140   5.062
40938W        W 7479  14.325  29.423   9.940
40939W        W 7480  13.044  10.712   4.593
40940W        W 7481   2.632  25.210  14.294
40941W        W 7482  25.585  22.688  13.522
40942W        W 7483  19.479  12.297   3.621
40943W        W 7484  29.175  44.958  14.450
40944W        W 7485  22.227   9.773  12.550
40945W        W 7486   7.623  15.985   3.760
40946W        W 7487  42.375  27.760   3.890
40947W        W 7488   7.793   6.956  10.474
40948W        W 7489   9.688  23.116   4.862
40949W        W 7490   8.698  36.815  13.867
40950W        W 7491  29.098  29.931  13.576
40951W        W 7492  20.189  32.086   0.340
40952W        W 7493  13.632  13.743  14.835
40953W        W 7494  44.083  28.105  12.140
40954W        W 7495  17.081  33.679   3.782
40955W        W 7496  34.998  11.683   4.224
40956W        W 7497  21.506  27.315  14.565
40957W        W 7498  11.542  11.377   2.622
40958W        W 7499  17.097  38.115  13.875
40959W        W 7500  41.584   7.289   2.517
40960W        W 7501  11.052  34.426  13.541
40961W        W 7502   1.371  23.011   1.024
40962W        W 7503  19.670  12.142   2.421
40963W        W 7504  40.938   6.307  14.201
40964W        W 7505  23.706  23.077  14.496
40965W        W 7506  40.489  36.419   2.281
40966W        W 7507  14.052  44.509  10.903
40967W        W 7508  38.758  35.010   4.001
40968W        W 7509  37.691  15.975  10.279
40969W        W 7510  29.490   6.595   5.020
40970W        W 7511  38.596   8.488  13.372
40971W        W 7512  33.496  42.540  14.356
40972W        W 7513  21.495  12.759  11.767
40973W        W 7514   1.995   2.389  14.264
40974W        W 7515  35.830  17.995   4.173
40975W        W 7516  23.334   7.459   3.283
40976W        W 7517   3.064  20.313   1.366
40977W        W 7518  10.964  40.000  10.767
40978W        W 7519  40.849   2.519  14.404
40979W        W 7520  37.144  15.689   2.693
40980W        W 7521   8.248  18.847  13.392
40981W        W 7522   3.380   5.029   0.529
40982W        W 7523   4.713  11.979   4.729
40983W        W 7524   4.528  32.935  10.774
40984W        W 7525  30.838  37.629   2.831
40985W        W 7526  37.942  12.295   2.964
40986W        W 7527  38.526  42.962  14.415
40987W        W 7528  42.343  43.021  13.075
40988W        W 7529  21.673  39.654   1.518
40989W        W 7530   2.699  13.913   0.872
40990W        W 7531  28.825  35.958  13.282
40991W        W 7532   6.728  21.763  14.284
40992W        W 7533   4.778  15.620  11.218
40993W        W 7534  38.551  19.894   2.821
40994W        W 7535   8.272  26.015   3.587
40995W        W 7536  44.879  16.830  11.620
40996W        W 7537  38.382  37.910  14.295
40997W        W 7538   3.796   5.804  13.311
40998W        W 7539  27.977   5.566   2.157
40999W        W 7540  34.379  36.565  13.758
41000W        W 7541  21.644  29.019  11.694
41001W        W 7542  14.232  38.349  14.831
41002W        W 7543  18.761  35.000  11.621
41003W        W 7544  22.698  34.268   1.282
41004W        W 7545  21.353  32.847  12.584
41005W        W 7546  31.020   6.859   1.921
41006W        W 7547  29.953  33.151  14.098
41007W        W 7548  39.019   0.990   3.215
41008W        W 7549  44.041  19.710   0.039
41009W        W 7550  39.332   8.659  13.860
41010W        W 7551  18.553  23.197  14.443
41011W        W 7552  26.883  37.271   1.844
41012W        W 7553  32.407  23.205   0.815
41013W        W 7554  17.833   2.482   3.127
41014W        W 7555  36.463   0.845  12.407
41015W        W 7556   0.647  28.892   1.612
41016W        W 7557   6.871  18.046  13.506
41017W        W 7558  20.731  24.484   0.388
41018W        W 7559  29.870  22.271  14.999
41019W        W 7560  30.020  21.212   2.640
41020W        W 7561  15.273  12.437  10.392
41021W        W 7562  40.036  32.310  11.067
41022W        W 7563  10.683  23.041  14.919
41023W        W 7564   8.439  37.182   1.330
41024W        W 7565  21.926  18.378   3.121
41025W        W 7566  18.262  26.078  12.617
41026W        W 7567  33.770   6.326  13.942
41027W        W 7568  37.480  34.059   0.023
41028W        W 7569   5.333  12.299  11.048
41029W        W 7570  38.953  29.064   1.844
41030W        W 7571  42.344  35.527   4.805
41031W        W 7572  24.707  35.508  12.155
41032W        W 7573  28.233   0.869  14.283
41033W        W 7574   6.714  22.532   4.621
41034W        W 7575   0.954   6.631  10.608
41035W        W 7576  21.005  16.023  13.018
41036W        W 7577   6.744  39.083  14.405
41037W        W 7578  10.823   2.352   2.434
41038W        W 7579  34.221  43.893  10.700
41039W        W 7580  17.916  30.052   4.237
41040W        W 7581  30.464  43.188   1.764
41041W        W 7582  36.141   7.709  12.575
41042W        W 7583  44.802  15.610   3.108
41043W        W 7584  15.202  12.641  12.409
41044W        W 7585  41.849  33.619   1.954
41045W        W 7586  32.230  36.519  14.303
41046W        W 7587   7.636  26.501   1.877
41047W        W 7588  24.972  14.263   1.692
41048W        W 7589  14.674  35.502   3.536
41049W        W 7590  16.331   0.018   1.409
41050W        W 7591  24.523   2.386   1.968
41051W        W 7592  37.377  34.736  12.377
41052W        W 7593  23.131  22.267   2.021
41053W        W 7594  11.572   9.286  10.998
41054W        W 7595  36.300  15.792  12.476
41055W        W 7596   8.285  32.642  11.612
41056W        W 7597  13.025  22.222  11.558
41057W        W 7598  34.888  39.324   3.599
41058W        W 7599  31.425   5.249   1.773
41059W        W 7600  27.470  23.209  12.172
41060W        W 7601  12.649  10.633   1.971
41061W        W 7602   1.067  41.380   0.897
41062W        W 7603  24.669  14.780  11.409
41063W        W 7604  31.186   2.932   0.447
41064W        W 7605  36.355  25.911   2.888
41065W        W 7606  42.777   6.067   5.054
41066W        W 7607  25.273  23.446  14.773
41067W        W 7608  41.387  16.918  13.997
41068W        W 7609  30.541  44.175   2.163
41069W        W 7610  41.421  30.950  12.494
41070W        W 7611   0.353  28.468   3.353
41071W        W 7612   2.503  41.399   2.873
41072W        W 7613  20.174   7.313  14.546
41073W        W 7614  17.692  14.623   3.705
41074W        W 7615  19.299   4.311  10.619
41075W        W 7616  38.267  43.073  13.961
41076W        W 7617  41.858  37.146  12.009
41077W        W 7618   1.772   7.465  11.208
41078W        W 7619  42.459  22.140   3.092
41079W        W 7620  31.198  34.954  14.982
41080W        W 7621   6.075  13.112   3.445
41081W        W 7622  25.091  19.493   0.460
41082W        W 7623  15.715  35.998  10.752
41083W        W 7624  16.684  19.214   3.634
41084W        W 7625  21.243  27.076  13.036
41085W        W 7626  23.402  18.450  12.475
41086W        W 7627  43.343  16.753   4.207
41087W        W 7628  43.441   3.309  12.173
41088W        W 7629  24.963  22.926   1.345
41089W        W 7630  22.957   7.310  14.851
41090W        W 7631  41.533   3.363  13.496
41091W        W 7632  11.269  43.382   4.575
41092W        W 7633  25.618  36.397  13.850
41093W        W 7634  26.187  18.529  14.257
41094W        W 7635  30.139   1.999   2.285
41095W        W 7636  14.791  40.539   3.155
41096W        W 7637   3.779  30.169  12.788
41097W        W 7638  37.563  14.229  12.398
41098W        W 7639  24.486  32.385  11.900
41099W        W 7640  22.575  13.626  10.743
41100W        W 7641  41.267   2.168  13.443
41101W        W 7642  35.736  25.906  12.451
41102W        W 7643  37.322  35.639  14.211
41103W        W 7644  32.604   7.729   2.426
41104W        W 7645   5.238  17.181   0.985
41105W        W 7646  17.703   3.890   3.152
41106W        W 7647   2.884  41.894  11.466
41107W        W 7648  15.192  28.048  10.722
41108W        W 7649   9.557  21.447  10.716
41109W        W 7650  17.276  10.275  13.891
41110W        W 7651  18.217  27.086   3.303
41111W        W 7652   7.891  13.382  12.920
41112W        W 7653  30.955   7.969   1.180
41113W        W 7654  26.898  38.516   5.241
41114W        W 7655  15.377  11.910   4.663
41115W        W 7656  42.077  23.081  14.806
41116W        W 7657  14.439  34.948  13.513
41117W        W 7658  34.843  16.839   1.269
41118W        W 7659   6.843  13.835  10.848
41119W        W 7660   5.470  37.029   5.320
41120W        W 7661  24.830  15.219  11.742
41121W        W 7662  21.603  33.681  14.481
41122W        W 7663  44.188  15.736  14.286
41123W        W 7664  26.696  40.463  10.699
41124W        W 7665  26.539   0.955   3.624
41125W        W 7666  27.638   1.459   0.974
41126W        W 7667  22.645  23.830   5.204
41127W        W 7668  42.567  21.633  13.874
41128W        W 7669   5.821  17.777  12.839
41129W        W 7670  43.339  26.585  13.917
41130W        W 7671  10.895  19.209   0.083
41131W        W 7672   8.312  19.612   4.102
41132W        W 7673  20.190  28.177   0.885
41133W        W 7674  35.457  38.176   1.164
41134W        W 7675  13.167  39.216  12.654
41135W        W 7676  14.115  39.879   2.266
41136W        W 7677  24.403  11.768   0.819
41137W        W 7678  25.643   8.052   4.783
41138W        W 7679   1.896  17.519   3.150
41139W        W 7680  20.752  17.025   4.222
41140W        W 7681  15.538  17.191   2.261
41141W        W 7682  43.927   8.492   0.843
41142W        W 7683  23.618  15.679   0.801
41143W        W 7684  15.792  33.012   5.566
41144W        W 7685  36.533   9.163   0.817
41145W        W 7686  15.700  44.277  12.490
41146W        W 7687   4.846  29.284   1.302
41147W        W 7688  26.726  31.779  13.229
41148W        W 7689  32.929  19.758  12.106
41149W        W 7690  28.494  18.392  13.329
41150W        W 7691  42.445  28.595  14.840
41151W        W 7692  42.879  44.877   4.639
41152W        W 7693  44.798  12.123  10.755
41153W        W 7694  31.645  21.822   1.509
41154W        W 7695   1.215   4.973   1.354
41155W        W 7696  18.979   8.214   3.776
41156W        W 7697   1.410  24.162   4.379
41157W        W 7698  27.735  35.969   4.638
41158W        W 7699   5.995  16.124  14.297
41159W        W 7700  25.710  14.258  14.021
41160W        W 7701   1.013  25.682  10.818
41161W        W 7702  25.404  30.483  13.553
41162W        W 7703  14.303  39.572  13.456
41163W        W 7704   3.417  33.046  14.473
41164W        W 7705   4.008   5.088   2.378
41165W        W 7706  26.529  31.173   3.351
41166W        W 7707  13.777  20.238  13.390
41167W        W 7708   4.693  42.415  14.919
41168W        W 7709  30.486  30.202  11.105
41169W        W 7710  33.957  28.428   2.770
41170W        W 7711  42.302  20.322  14.887
41171W        W 7712   8.396   4.461  13.445
41172W        W 7713  13.196  44.387   0.300
41173W        W 7714  35.124   9.278   0.187
41174W        W 7715  27.929  41.809  10.729
41175W        W 7716   8.168   3.745   2.754
41176W        W 7717  32.638  25.048   0.242
41177W        W 7718  20.231  16.384   1.699
41178W        W 7719  33.038  16.341   1.368
41179W        W 7720  30.999  31.123   3.550
41180W        W 7721  40.479  31.163   2.167
41181W        W 7722  38.260  22.755   4.606
41182W        W 7723  12.275  39.973   0.031
41183W        W 7724  29.328   4.620   0.523
41184W        W 7725   5.439  43.340   1.169
41185W        W 7726  18.167  43.936   4.717
41186W        W 7727  44.357   8.327   4.068
41187W        W 7728  22.715  22.088  11.520
41188W        W 7729  25.758   9.960  12.601
41189W        W 7730  10.803  41.435  11.192
41190W        W 7731  21.596  19.508  14.002
41191W        W 7732  32.116  38.929   4.632
41192W        W 7733  37.436  42.397   1.935
41193W        W 7734  31.506  11.405   2.276
41194W        W 7735  38.496  32.462  13.560
41195W        W 7736  23.271  21.670   2.382
41196W        W 7737   9.832  33.350   3.646
41197W        W 7738  13.590   7.352  12.205
41198W        W 7739  29.973  20.115  13.106
41199W        W 7740   5.844  43.185  13.412
41200W        W 7741  31.064  39.968  13.593
41201W        W 7742   2.920   1.880   3.543
41202W        W 7743   4.915  38.315  11.057
41203W        W 7744  38.342  38.993  14.886
41204W        W 7745  27.496  42.431   4.585
41205W        W 7746  31.287  42.023   0.100
41206W        W 7747  27.945   3.973  14.963
41207W        W 7748   8.229  40.056   3.779
41208W        W 7749  20.038  32.469  14.725
41209W        W 7750  16.313  37.775  14.453
41210W        W 7751  16.284  12.849  13.895
41211W        W 7752  38.033  35.548   3.950
41212W        W 7753  21.527  12.134  14.804
41213W        W 7754  23.219  42.963  10.836
41214W        W 7755  40.979   9.650  14.844
41215W        W 7756   9.663  28.847  12.887
41216W        W 7757   1.432  26.025  10.043
41217W        W 7758  40.327   0.362  12.333
41218W        W 7759  44.394   3.788   3.686
41219W        W 7760  23.170  12.683   2.650
41220W        W 7761   4.277  19.730   4.275
41221W        W 7762  13.943  16.626  11.023
41222W        W 7763  29.226  30.452   2.413
41223W        W 7764   5.886   9.288   4.353
41224W        W 7765  31.502  29.728   1.046
41225W        W 7766  39.743  39.126  14.437
41226W        W 7767  33.578   0.970   4.418
41227W        W 7768   0.282  18.038   4.995
41228W        W 7769  42.448   3.368   1.005
41229W        W 7770  42.953  38.448  12.196
41230W        W 7771  43.111   8.293   1.423
41231W        W 7772   1.898   0.477  10.982
41232W        W 7773  15.802  14.703  11.682
41233W        W 7774  30.182  24.187   4.074
41234W        W 7775  33.346  25.989  13.252
41235W        W 7776  23.504   0.690   0.879
41236W        W 7777  16.732  28.557   4.541
41237W        W 7778  33.311  40.019  13.080
41238W        W 7779  41.448  16.315   3.130
41239W        W 7780  35.043  19.628   2.702
41240W        W 7781  21.157  20.517  13.504
41241W        W 7782  38.323   5.290  12.570
41242W        W 7783  35.557   9.346   0.511
41243W        W 7784  26.378  20.100   2.680
41244W        W 7785  22.009  41.074  12.722
41245W        W 7786  29.657  34.869  12.042
41246W        W 7787  32.413  43.370  10.786
41247W        W 7788  15.584  28.090  11.614
41248W        W 7789  14.016  11.347   0.160
41249W        W 7790  20.059   6.917   1.556
41250W        W 7791  31.972  23.701  14.118
41251W        W 7792   5.124  42.292   3.304
41252W        W 7793  18.669  43.780  10.809
41253W        W 7794   8.404  29.042   4.559
41254W        W 7795  20.297  34.879   0.199
41255W        W 7796   5.896  21.533  11.490
41256W        W 7797   0.631  23.014   3.108
41257W        W 7798  43.373  29.925   4.576
41258W        W 7799  13.084  21.102  10.710
41259W        W 7800   5.563  13.362   1.135
41260W        W 7801  19.071  18.321   0.909
41261W        W 7802   1.609  41.306  12.957
41262W        W 7803  12.055   4.683  11.051
41263W        W 7804   2.288  14.704  12.914
41264W        W 7805   0.615  44.790  14.825
41265W        W 7806  34.349  21.735  14.935
41266W        W 7807   8.038  21.153  13.022
41267W        W 7808  20.507  12.788  13.924
41268W        W 7809  15.554  18.324  13.438
41269W        W 7810   7.022  17.558  14.045
41270W        W 7811  42.596  26.961  11.609
41271W        W 7812  36.057   3.479  13.683
41272W        W 7813  14.061  33.182  11.528
41273W        W 7814  12.192   1.900  10.709
41274W        W 7815   9.290   2.026   2.340
41275W        W 7816   0.710  11.895   4.067
41276W        W 7817  30.088   6.333  14.986
41277W        W 7818  31.716  16.306  11.099
41278W        W 7819  10.127  33.740  13.818
41279W        W 7820   0.999  12.257   4.524
41280W        W 7821  11.939  10.727  11.933
41281W        W 7822  31.461  11.093   0.858
41282W        W 7823  41.014  29.397   2.263
41283W        W 7824  11.072  42.262   1.306
41284W        W 7825  18.219  16.553  12.932
41285W        W 7826  34.609  32.167   3.303
41286W        W 7827   8.652  26.731  12.002
41287W        W 7828  43.356  36.426  10.503
41288W        W 7829   5.783  39.181   1.428
41289W        W 7830   5.323  21.086  10.070
41290W        W 7831  35.355   3.262   2.066
41291W        W 7832   5.215   2.375   0.276
41292W        W 7833  41.733   1.409   4.522
41293W        W 7834   3.188  16.329  12.497
41294W        W 7835  41.619  31.916  13.378
41295W        W 7836  36.970   4.685  10.737
41296W        W 7837   8.717  44.093  10.715
41297W        W 7838   5.935   6.191   4.111
41298W        W 7839  14.653  15.607   4.193
41299W        W 7840  26.153  38.098  11.176
41300W        W 7841  36.964  26.958   3.242
41301W        W 7842  43.472  24.566   1.823
41302W        W 7843  27.640  19.737   4.860
41303W        W 7844  42.605  40.382  12.395
41304W        W 7845  22.455  29.824  13.385
41305W        W 7846  13.863  25.236  10.547
41306W        W 7847  10.453  36.232  13.373
41307W        W 7848  42.361  18.598  13.632
41308W        W 7849  19.215  11.161  12.403
41309W        W 7850  41.090  19.767  14.053
41310W        W 7851  16.105  21.450  12.952
41311W        W 7852  42.614  29.718  11.395
41312W        W 7853   1.736  37.394  10.661
41313W        W 7854  30.898  24.237   4.722
41314W        W 7855  27.472  29.908  10.489
41315W        W 7856  40.117  15.447  10.042
41316W        W 7857  34.695  30.932   0.920
41317W        W 7858  40.251   2.403   3.205
41318W        W 7859  10.408  24.085   2.076
41319W        W 7860  36.048  32.444  14.783
41320W        W 7861  20.103  43.071  10.719
41321W        W 7862  28.052  24.228  14.509
41322W        W 7863  14.885  18.341   2.615
41323W        W 7864  38.852  34.594  14.120
41324W        W 7865  38.739  26.942   2.183
41325W        W 7866   3.625  41.750   2.369
41326W        W 7867  12.076   7.222  10.739
41327W        W 7868  33.081  41.261   4.569
41328W        W 7869   2.327  35.958   0.190
41329W        W 7870  19.030  14.390   2.852
41330W        W 7871  16.655   0.065  12.238
41331W        W 7872  10.647  42.112   5.059
41332W        W 7873  38.201   3.862  11.370
41333W        W 7874  18.388  32.001   0.840
41334W        W 7875  36.115  44.434   1.916
41335W        W 7876  27.118  34.411   0.632
41336W        W 7877  35.365  34.643  14.748
41337W        W 7878  20.572  34.447   0.026
41338W        W 7879  26.714  38.517  10.178
41339W        W 7880   6.257  25.928   2.517
41340W        W 7881  18.764  27.047   3.360
41341W        W 7882  13.136  15.330   1.930
41342W        W 7883  32.584  37.823  13.069
41343W        W 7884   6.582  34.876   3.651
41344W        W 7885   4.491  41.031   1.794
41345W        W 7886  30.414  40.296  11.229
41346W        W 7887  43.404  12.630   4.133
41347W        W 7888  41.269  37.578   2.651
41348W        W 7889  15.402  22.107  12.270
41349W        W 7890   8.875   2.734  12.797
41350W        W 7891  14.618  35.921   1.530
41351W        W 7892  32.091  33.346   3.343
41352W        W 7893   5.424   5.674   5.000
41353W        W 7894  43.383  23.533  10.887
41354W        W 7895  24.982  14.700   1.425
41355W        W 7896  34.415  21.231  11.204
41356W        W 7897  16.340  33.969   0.735
41357W        W 7898  30.420  29.538   4.257
41358W        W 7899  15.632  24.096  10.669
41359W        W 7900   2.229  33.598   1.505
41360W        W 7901   0.366  40.718  11.393
41361W        W 7902   7.317  32.766   4.779
41362W        W 7903   6.047  24.605   4.025
41363W        W 7904  30.152   2.642  12.059
41364W        W 7905  24.601   6.430  12.622
41365W        W 7906   0.243   4.154  10.148
41366W        W 7907  32.560   6.314  14.618
41367W        W 7908  16.884  13.839   4.963
41368W        W 7909  19.733  20.487  11.943
41369W        W 7910  30.965   9.853  11.147
41370W        W 7911   2.029  13.063   3.585
41371W        W 7912  27.782  14.273  10.297
41372W        W 7913   1.979   5.321   4.110
41373W        W 7914  21.511  26.811  10.029
41374W        W 7915  15.769  33.307  14.828
41375W        W 7916  42.536   1.322  11.434
41376W        W 7917  36.659  27.462  14.481
41377W        W 7918  28.758  33.495  13.324
41378W        W 7919   4.296   9.936  14.325
41379W        W 7920  38.375   9.399  11.942
41380W        W 7921   5.234  11.115   2.746
41381W        W 7922  38.576  39.263   0.314
41382W        W 7923  15.171  22.589  13.910
41383W        W 7924  22.498  31.011   1.673
41384W        W 7925  12.755  24.179  14.075
41385W        W 7926  14.634  32.897  13.979
41386W        W 7927  11.617  24.518  12.820
41387W        W 7928  32.202  30.924  12.461
41388W        W 7929  22.043   2.448   1.374
41389W        W 7930   4.461  23.089   0.457
41390W        W 7931  38.395  36.123   1.755
41391W        W 7932  14.750  18.810  13.365
41392W        W 7933  44.119  15.705   1.248
41393W        W 7934   7.070  41.804   2.578
41394W        W 7935   5.794  27.173   2.305
41395W        W 7936  26.502  38.036   4.987
41396W        W 7937  19.664  27.500   1.901
41397W        W 7938   9.308   2.975   1.648
41398W        W 7939   1.457  25.812   3.642
41399W        W 7940  35.841   0.935   4.657
41400W        W 7941  28.214  15.916  14.421
41401W        W 7942  26.693  39.306  12.425
41402W        W 7943  43.593  21.406  13.919
41403W        W 7944  39.531   8.894   0.322
41404W        W 7945   0.477  39.239   4.885
41405W        W 7946  15.406  38.041   1.812
41406W        W 7947   3.438  40.100   4.733
41407W        W 7948  19.924  25.184  11.686
41408W        W 7949  28.213  16.180  10.781
41409W        W 7950  25.543  10.174  13.807
41410W        W 7951  24.689  18.799   2.669
41411W        W 7952  15.833  33.884  13.977
41412W        W 7953  43.023  15.597   3.149
41413W        W 7954  42.733   9.232   3.682
41414W        W 7955  11.855  20.443  14.776
41415W        W 7956  17.674  14.812   0.198
41416W        W 7957   3.214  15.325  12.021
41417W        W 7958  34.582   4.761   3.347
41418W        W 7959  39.013   2.518   0.332
41419W        W 7960  27.176   3.538  11.131
41420W        W 7961  13.754  26.815  10.217
41421W        W 7962  22.668   4.252   2.300
41422W        W 7963  27.879  43.444   0.570
41423W        W 7964  10.893  15.188  13.792
41424W        W 7965  36.933  35.619  13.390
41425W        W 7966  11.743  34.406  12.865
41426W        W 7967   8.572  18.043  11.108
41427W        W 7968  30.941  23.269   3.381
41428W        W 7969  13.814  27.111  14.457
41429W        W 7970  24.980  14.339   3.089
41430W        W 7971  27.860  19.286  14.093
41431W        W 7972   6.317  21.078   3.566
41432W        W 7973  14.083  21.291   4.757
41433W        W 7974   9.430  43.720  14.311
41434W        W 7975   1.644  10.152  14.264
41435W        W 7976   6.876  34.752  14.213
41436W        W 7977  31.695  32.643  12.135
41437W        W 7978  39.054   8.801   0.075
41438W        W 7979   0.816  21.519   4.233
41439W        W 7980  33.026  11.188  12.853
41440W        W 7981  22.165  37.167  13.940
41441W        W 7982  25.596   4.754  11.850
41442W        W 7983  19.168  44.626   3.928
41443W        W 7984  16.259  22.533   2.879
41444W        W 7985  28.016  43.303   4.606
41445W        W 7986   3.790   8.795   4.579
41446W        W 7987  22.056  18.106  14.710
41447W        W 7988   3.157  15.158   4.353
41448W        W 7989  16.258  29.513  12.440
41449W        W 7990  43.425  44.728   4.131
41450W        W 7991  33.136  33.134  11.163
41451W        W 7992  19.620   8.540  12.573
41452W        W 7993  31.878  29.431  14.739
41453W        W 7994  35.362  32.144   1.927
41454W        W 7995  25.446  44.495  12.556
41455W        W 7996  44.407   8.662   0.780
41456W        W 7997  23.405  23.673  13.466
41457W        W 7998  41.284  18.049  14.489
41458W        W 7999  30.525  30.596   2.365
41459W        W 8000   7.797  28.209   4.628
41460W        W 8001  42.600   9.920   2.193
41461W        W 8002  27.621   9.240  12.269
41462W        W 8003  19.721  40.240   1.508
41463W        W 8004   1.692  29.949   1.517
41464W        W 8005   6.764   7.123   3.710
41465W        W 8006  25.421  21.718   2.183
41466W        W 8007  26.387  12.752   5.085
41467W        W 8008  21.686   9.437  13.930
41468W        W 8009  27.404  43.727   1.733
41469W        W 8010  28.149  29.037   0.979
41470W        W 8011  15.134  18.578   1.641
41471W        W 8012  16.772  36.954   2.237
41472W        W 8013  21.485  43.001  14.805
41473W        W 8014   9.690  25.554  14.902
41474W        W 8015  27.593  25.565  10.937
41475W        W 8016  19.307   6.161  11.608
41476W        W 8017  11.452  22.258   4.177
41477W        W 8018   1.911  30.106   0.697
41478W        W 8019  38.760  12.377  13.072
41479W        W 8020  33.729   5.380   2.427
41480W        W 8021  38.849  19.701   4.549
41481W        W 8022  29.511   9.748  11.214
41482W        W 8023   6.025  19.347  11.137
41483W        W 8024  16.875  18.122   4.920
41484W        W 8025  32.137   8.457  13.159
41485W        W 8026  22.193   1.486   0.423
41486W        W 8027  37.335  37.984  11.623
41487W        W 8028  12.419  22.666  14.426
41488W        W 8029  13.363  18.355   0.002
41489W        W 8030  22.839  44.611   0.525
41490W        W 8031  17.637   1.899   1.033
41491W        W 8032  36.035  26.209   3.819
41492W        W 8033  43.835  32.485  10.484
41493W        W 8034   5.513   5.778  13.547
41494W        W 8035   2.709  14.594   1.835
41495W        W 8036  15.181   6.238   0.240
41496W        W 8037  44.412  15.182   2.030
41497W        W 8038   1.287  37.440   4.119
41498W        W 8039   7.335  11.343   4.415
41499W        W 8040   5.703  17.614   0.475
41500W        W 8041   9.172  40.209   1.833
41501W        W 8042  38.060  38.516   3.638
41502W        W 8043  33.709  11.257   3.611
41503W        W 8044  36.340  38.752  12.864
41504W        W 8045  36.379  21.251  14.364
41505W        W 8046  26.622   3.762   0.244
41506W        W 8047  17.842  15.664  12.821
41507W        W 8048   3.398  34.458   4.305
41508W        W 8049   2.584  18.376   3.804
41509W        W 8050  40.608   5.693   1.257
41510W        W 8051   3.755  44.507   4.973
41511W        W 8052  29.740  38.539   1.224
41512W        W 8053  31.559  14.687  12.412
41513W        W 8054   2.251  39.435   1.782
41514W        W 8055  39.474  26.755   0.409
41515W        W 8056  19.366  29.582   2.751
41516W        W 8057  29.015  37.458   2.494
41517W        W 8058  39.015   8.841  14.558
41518W        W 8059   5.253  33.546   4.999
41519W        W 8060  31.376  25.788  13.518
41520W        W 8061   5.804   1.283   0.815
41521W        W 8062  11.761  24.722   1.875
41522W        W 8063  39.646  12.289   1.912
41523W        W 8064  43.212  42.209   2.450
41524W        W 8065  10.291  40.720   1.823
41525W        W 8066  11.934  41.188   1.213
41526W        W 8067   5.133   4.144  11.119
41527W        W 8068  23.733  16.740  13.482
41528W        W 8069  41.345   8.008   0.710
41529W        W 8070   7.550  24.470   3.548
41530W        W 8071  31.581  35.356  12.463
41531W        W 8072   3.299  22.313   4.215
41532W        W 8073  37.610  36.919   4.148
41533W        W 8074   5.005   7.326   4.248
41534W        W 8075  26.083   5.229   9.929
41535W        W 8076  19.202   4.986  13.399
41536W        W 8077   0.026  26.564  14.883
41537W        W 8078  20.743  25.471   4.736
41538W        W 8079  30.015  39.272   0.819
41539W        W 8080   9.809   3.328   3.773
41540W        W 8081  14.382   0.647   0.767
41541W        W 8082   5.673  29.085   2.619
41542W        W 8083   5.107   4.854  14.411
41543W        W 8084  22.029  28.714   4.726
41544W        W 8085  40.551  18.629  13.676
41545W        W 8086  26.102  13.133   0.666
41546W        W 8087   9.126  14.544  10.497
41547W        W 8088  15.809  22.650   2.020
41548W        W 8089  14.710  29.670  14.151
41549W        W 8090   6.099  41.893  10.218
41550W        W 8091  38.363  24.432  14.259
41551W        W 8092  22.970  37.830   4.725
41552W        W 8093  12.667  44.800  13.037
41553W        W 8094  39.801  12.571   3.141
41554W        W 8095  41.540   0.418   4.296
41555W        W 8096   4.458  10.254   4.258
41556W        W 8097  25.112  36.231  13.040
41557W        W 8098  25.983  39.387  11.245
41558W        W 8099  12.206  14.635   2.603
41559W        W 8100  11.201  22.874   3.060
41560W        W 8101   9.809  15.824   1.726
41561W        W 8102  25.554   8.794  14.080
41562W        W 8103  22.490  25.913   0.420
41563W        W 8104  23.024   7.484   3.689
41564W        W 8105  20.240  25.649   4.723
41565W        W 8106  26.212  15.776  13.836
41566W        W 8107  18.088  40.415   0.566
41567W        W 8108   4.743  36.168  14.992
41568W        W 8109  29.961  33.181   2.946
41569W        W 8110  24.600  39.882  11.600
41570W        W 8111  30.584  10.494  10.208
41571W        W 8112  32.891  15.604  11.264
41572W        W 8113  23.232  37.961   1.944
41573W        W 8114   3.966  21.479  14.989
41574W        W 8115  24.640  41.233  11.218
41575W        W 8116   8.022   7.931  14.449
41576W        W 8117  28.985  26.892   4.118
41577W        W 8118  34.593  37.775   4.651
41578W        W 8119  37.657  22.105  13.843
41579W        W 8120  18.252   5.993   4.599
41580W        W 8121   6.628  35.173   4.442
41581W        W 8122  24.164   8.201   2.751
41582W        W 8123  30.721  34.064   0.731
41583W        W 8124  27.380  31.585   4.197
41584W        W 8125  14.623  41.549   3.216
41585W        W 8126   0.215  44.481  14.971
41586W        W 8127  16.080  39.607   2.907
41587W        W 8128  20.712  16.953   2.301
41588W        W 8129  27.076  34.858   2.798
41589W        W 8130   9.070  41.120  14.949
41590W        W 8131  11.687  43.932  13.388
41591W        W 8132  44.508  44.942  14.278
41592W        W 8133   9.096  18.646  14.287
41593W        W 8134  20.539  43.290  14.248
41594W        W 8135  22.654  33.424  12.684
41595W        W 8136  39.646   2.732  10.952
41596W        W 8137  27.895   4.402  11.727
41597W        W 8138  41.553   1.713  12.116
41598W        W 8139  26.517  18.644  13.857
41599W        W 8140  34.057  28.137  12.652
41600W        W 8141   1.413  27.625  11.885
41601W        W 8142  25.902  13.076  11.184
41602W        W 8143  44.286   8.830   3.248
41603W        W 8144   3.269  41.759   3.458
41604W        W 8145  18.010  12.311  11.516
41605W        W 8146  25.200  37.445  14.706
41606W        W 8147   2.600  41.515   0.033
41607W        W 8148   0.451   2.938  10.142
41608W        W 8149  37.364  32.014  14.060
41609W        W 8150  22.929   2.892   4.143
41610W        W 8151   8.092  39.904  14.298
41611W        W 8152  24.526   2.048   3.379
41612W        W 8153  27.201   2.315   3.262
41613W        W 8154  41.429  12.148   1.912
41614W        W 8155  25.044   6.058   3.649
41615W        W 8156   2.193  19.141   1.691
41616W        W 8157  12.616   9.187  12.411
41617W        W 8158  15.923  33.555   4.619
41618W        W 8159  23.647  19.442  11.102
41619W        W 8160   7.961  41.746   0.082
41620W        W 8161  20.349  25.531   3.347
41621W        W 8162   7.227  40.636  14.990
41622W        W 8163  25.621   3.243  10.195
41623W        W 8164   2.261  22.770   0.708
41624W        W 8165   6.332  25.536   2.864
41625W        W 8166  27.935  18.808   2.173
41626W        W 8167  15.572  10.339  13.739
41627W        W 8168  30.873   3.855   1.999
41628W        W 8169  38.281  13.800   4.076
41629W        W 8170  34.174  12.884  13.508
41630W        W 8171  31.648  23.015  14.546
41631W        W 8172   6.159  40.085   4.469
41632W        W 8173  17.073  38.260   1.975
41633W        W 8174   1.456  26.963   4.579
41634W        W 8175  41.173  36.887  14.031
41635W        W 8176  33.404  12.805   1.327
41636W        W 8177  20.173  31.088  10.886
41637W        W 8178  25.615  39.794  13.574
41638W        W 8179  40.426   5.033  10.586
41639W        W 8180  44.460  35.157   3.733
41640W        W 8181  28.459   8.749   1.780
41641W        W 8182  20.747   8.402   3.599
41642W        W 8183  39.915  30.196  10.638
41643W        W 8184  29.339  23.953  11.098
41644W        W 8185  26.346  17.471  14.379
41645W        W 8186  36.347  25.206  14.962
41646W        W 8187  25.487   5.082  14.797
41647W        W 8188   4.190  32.412   3.333
41648W        W 8189  18.729  38.319  14.512
41649W        W 8190  40.979  42.918   0.402
41650W        W 8191  41.329  12.309   4.671
41651W        W 8192  23.921  28.798  11.500
41652W        W 8193  21.693  19.672  13.036
41653W        W 8194  37.418  40.539  12.371
41654W        W 8195   8.434   6.015  13.340
41655W        W 8196  25.326  31.612  13.644
41656W        W 8197  11.517  36.527   4.083
41657W        W 8198  25.611  34.968   0.471
41658W        W 8199  33.464  32.264  13.536
41659W        W 8200  27.742  38.647  13.944
41660W        W 8201  27.065  15.836   4.502
41661W        W 8202  20.042   6.418  11.109
41662W        W 8203  15.243  24.220   2.871
41663W        W 8204  42.273  18.635   1.644
41664W        W 8205  21.572  33.951  13.037
41665W        W 8206  21.775  41.605  11.149
41666W        W 8207  32.125   5.458   2.779
41667W        W 8208  36.032  40.319   0.267
41668W        W 8209  37.158  42.806   2.061
41669W        W 8210   7.834  40.288   3.548
41670W        W 8211  42.899  39.753   3.785
41671W        W 8212   9.598  17.918  14.499
41672W        W 8213   7.099   2.809  12.803
41673W        W 8214  26.857  17.368  14.271
41674W        W 8215   5.974  20.624  11.358
41675W        W 8216  22.991  38.104  11.619
41676W        W 8217  21.622  23.672   2.325
41677W        W 8218  16.235   5.375  14.625
41678W        W 8219  10.928   2.978  11.133
41679W        W 8220  34.964   9.711  14.909
41680W        W 8221  36.956  40.555   4.681
41681W        W 8222   5.646  17.724  11.503
41682W        W 8223  12.023  27.675  14.348
41683W        W 8224  30.685  37.423   1.376
41684W        W 8225  28.446  10.887  14.446
41685W        W 8226  36.239  34.577  14.933
41686W        W 8227  25.414  32.948   1.286
41687W        W 8228  17.642  43.831   4.501
41688W        W 8229   9.091  41.634  14.956
41689W        W 8230  38.927  13.724  13.469
41690W        W 8231  12.225  34.184   2.295
41691W        W 8232  38.820  21.767   3.687
41692W        W 8233  43.088   8.804   1.768
41693W        W 8234  41.411  23.851  14.844
41694W        W 8235  20.079  29.216   3.490
41695W        W 8236  24.026   5.802   3.652
41696W        W 8237   5.031  12.606   2.084
41697W        W 8238  20.760   0.221   0.847
41698W        W 8239  37.511  26.014   3.855
41699W        W 8240  19.636  30.388  13.930
41700W        W 8241  18.001  23.678  12.888
41701W        W 8242  22.715  37.904  12.926
41702W        W 8243  24.595  43.346  14.066
41703W        W 8244  37.135  20.966  11.448
41704W        W 8245  42.527  20.146  12.575
41705W        W 8246   5.130  29.976  13.542
41706W        W 8247  42.770   6.167  11.094
41707W        W 8248  10.312  29.879   1.510
41708W        W 8249   1.380  14.685   0.174
41709W        W 8250  10.811  33.916  11.078
41710W        W 8251  18.963  13.505   5.424
41711W        W 8252  21.475   1.530   4.513
41712W        W 8253  38.548  18.067  13.587
41713W        W 8254  31.896  43.255  10.782
41714W        W 8255   1.384   4.861   0.450
41715W        W 8256  40.154   8.970   0.940
41716W        W 8257  40.224  18.119   1.283
41717W        W 8258  24.465  44.918   3.733
41718W        W 8259  33.551  40.297  14.708
41719W        W 8260  32.207  19.270   0.911
41720W        W 8261  34.613  38.368   1.179
41721W        W 8262  20.140   8.640  12.023
41722W        W 8263  26.450  33.975  13.747
41723W        W 8264   0.350  31.215  10.653
41724W        W 8265   1.037  40.991  14.164
41725W        W 8266  38.096  22.513  12.033
41726W        W 8267  20.786   2.747   0.028
41727W        W 8268  22.717   5.807  11.202
41728W        W 8269   8.993   7.988   4.644
41729W        W 8270  23.652   0.413   1.805
41730W        W 8271   9.662  13.640   4.662
41731W        W 8272  36.621  23.950  11.621
41732W        W 8273  19.282  40.805   0.348
41733W        W 8274  18.341  19.313   1.922
41734W        W 8275  42.298   8.220   4.307
41735W        W 8276  16.865  11.273   3.782
41736W        W 8277   9.711  38.480  12.002
41737W        W 8278  31.486  43.467  14.428
41738W        W 8279   7.244  44.654  14.322
41739W        W 8280  41.835   1.451   1.719
41740W        W 8281  30.201  36.166  11.528
41741W        W 8282  31.079  25.616  14.780
41742W        W 8283  23.343   9.708  14.263
41743W        W 8284  10.396  14.193  11.936
41744W        W 8285   1.249  26.167  10.805
41745W        W 8286  43.331  16.734  11.173
41746W        W 8287  39.478   6.785  12.524
41747W        W 8288  30.139  11.923   1.809
41748W        W 8289   0.692  18.780   3.983
41749W        W 8290  16.599   6.495   4.210
41750W        W 8291  42.363  44.225  11.994
41751W        W 8292   0.453  34.283   0.757
41752W        W 8293  29.207  41.324   3.103
41753W        W 8294  17.629  16.529   2.729
41754W        W 8295   6.401  21.579   1.801
41755W        W 8296  26.935  40.018  14.319
41756W        W 8297   9.915   8.201  13.835
41757W        W 8298  39.818   5.369   0.162
41758W        W 8299  20.525  23.268  11.664
41759W        W 8300   4.234   0.887   0.880
41760W        W 8301   8.866   9.633   0.420
41761W        W 8302  26.661   7.483  12.481
41762W        W 8303  28.454  15.100  11.112
41763W        W 8304  43.889  35.832   2.177
41764W        W 8305  10.898   1.785   2.546
41765W        W 8306   7.383   5.841  11.687
41766W        W 8307  29.909  33.907  12.907
41767W        W 8308  15.243  42.828   4.876
41768W        W 8309  13.540  10.779  13.465
41769W        W 8310  36.766   9.063   1.545
41770W        W 8311  23.296  38.983   4.075
41771W        W 8312  34.188  24.536   4.174
41772W        W 8313   7.777   3.880  13.943
41773W        W 8314  13.983  22.807  14.473
41774W        W 8315  25.695  34.903  10.649
41775W        W 8316  12.671  25.971   1.698
41776W        W 8317  11.080  28.717  13.865
41777W        W 8318  42.989  36.913   2.703
41778W        W 8319   7.278  42.681   4.943
41779W        W 8320  31.978  33.815   1.377
41780W        W 8321  44.994  42.607   2.808
41781W        W 8322  18.612  21.338  13.983
41782W        W 8323  44.251   9.867  12.475
41783W        W 8324  35.987  38.793   1.793
41784W        W 8325  28.380  36.095   1.252
41785W        W 8326  30.953  24.457  13.895
41786W        W 8327  32.237  17.917  10.866
41787W        W 8328  39.914  23.689   2.902
41788W        W 8329  31.422  20.853   1.708
41789W        W 8330  37.607  42.000   2.475
41790W        W 8331  25.418  10.796   0.888
41791W        W 8332   0.448  27.133   1.371
41792W        W 8333  27.925  31.989   0.300
41793W        W 8334   0.229  23.904  10.907
41794W        W 8335  24.108   1.842   9.882
41795W        W 8336  15.663  32.322  12.515
41796W        W 8337  24.117  28.011  11.460
41797W        W 8338  34.068  30.168  11.632
41798W        W 8339  35.972  32.591  13.448
41799W        W 8340  31.011  22.907   5.085
41800W        W 8341  30.688  33.559   0.457
41801W        W 8342  42.347   2.305   0.723
41802W        W 8343   0.017   6.714  14.298
41803W        W 8344  27.559  41.189   3.818
41804W        W 8345   0.466  23.531   2.937
41805W        W 8346  41.466  31.339   3.854
41806W        W 8347  21.668  37.775  11.487
41807W        W 8348   9.604  32.108  11.556
41808W        W 8349  29.991   8.028  12.409
41809W        W 8350  27.397  44.744   2.821
41810W        W 8351   3.471  12.306   0.788
41811W        W 8352  18.804  26.631   0.937
41812W        W 8353   2.923  31.396  12.019
41813W        W 8354  29.633   4.324  11.932
41814W        W 8355  41.975  27.879  14.758
41815W        W 8356  32.400  44.666   1.337
41816W        W 8357   7.192   2.888   0.181
41817W        W 8358   0.502   6.462   2.797
41818W        W 8359  34.914  18.014  12.101
41819W        W 8360  43.286  31.491  14.855
41820W        W 8361  21.605  33.443   2.283
41821W        W 8362  22.603  22.599   3.200
41822W        W 8363   3.955  32.687  11.639
41823W        W 8364  19.155  21.385   4.103
41824W        W 8365  21.622  44.712  14.437
41825W        W 8366  39.464  14.528   3.681
41826W        W 8367  11.236  41.807   4.545
41827W        W 8368  44.185  41.466  10.176
41828W        W 8369   9.332   8.635  12.159
41829W        W 8370  14.662  18.744  12.000
41830W        W 8371  44.694   3.706   4.088
41831W        W 8372  17.626  44.779   4.889
41832W        W 8373   8.195  10.744  14.695
41833W        W 8374  41.884   2.013   1.743
41834W        W 8375  16.321  34.951  10.597
41835W        W 8376  18.187  28.738  14.921
41836W        W 8377   3.279  41.739  10.855
41837W        W 8378  10.208   6.299  11.445
41838W        W 8379  19.706  20.985   1.853
41839W        W 8380   6.366   8.859   4.843
41840W        W 8381   9.220  14.625  13.483
41841W        W 8382  44.590  21.734   1.688
41842W        W 8383  29.166  27.132  14.865
41843W        W 8384  15.040  37.317   3.301
41844W        W 8385  22.250   2.778  11.929
41845W        W 8386  11.574  33.714   3.172
41846W        W 8387  18.915  26.199  12.106
41847W        W 8388   6.968   6.372  14.579
41848W        W 8389  35.896  16.289   4.035
41849W        W 8390  34.436  21.717   3.411
41850W        W 8391  29.733   8.634   1.735
41851W        W 8392  25.463  44.952   2.818
41852W        W 8393  38.003  16.635   3.904
41853W        W 8394  34.931  20.764  12.240
41854W        W 8395  28.484  35.406  13.912
41855W        W 8396  17.620   9.662  11.388
41856W        W 8397  18.765  21.071  14.946
41857W        W 8398  44.598  16.242  12.057
41858W        W 8399  41.546  14.685  12.056
41859W        W 8400   0.899  12.270  12.460
41860W        W 8401   0.989  20.119  13.959
41861W        W 8402   0.263  43.392  12.135
41862W        W 8403  18.682  39.525   2.977
41863W        W 8404  29.173  39.431  11.585
41864W        W 8405  30.843  14.555  10.794
41865W        W 8406  29.020  44.402   1.236
41866W        W 8407  18.060  16.168  12.628
41867W        W 8408  19.486  20.992   0.476
41868W        W 8409  34.921  10.438   2.681
41869W        W 8410   1.361   4.310  10.653
41870W        W 8411   6.743   0.305   0.993
41871W        W 8412   5.389  43.696   0.511
41872W        W 8413   4.531  29.320   0.877
41873W        W 8414  30.591   8.175  12.148
41874W        W 8415  22.024   5.358  11.719
41875W        W 8416  10.217  16.029  14.478
41876W        W 8417  42.361  41.388   4.571
41877W        W 8418  23.016  28.104   1.703
41878W        W 8419   4.517  34.686  12.991
41879W        W 8420   4.727   4.259   3.403
41880W        W 8421  44.939  15.124   2.039
41881W        W 8422   9.910  24.068  10.753
41882W        W 8423  22.152   8.633   1.649
41883W        W 8424  18.424  15.348  13.037
41884W        W 8425  22.703  41.374   1.417
41885W        W 8426  23.529   1.813  13.121
41886W        W 8427  33.391  44.802  14.962
41887W        W 8428  41.131  36.801   2.741
41888W        W 8429   9.273  43.092  13.498
41889W        W 8430   3.335  24.542  13.885
41890W        W 8431  12.667  40.039  11.729
41891W        W 8432  15.600  26.542   4.152
41892W        W 8433   4.425  41.989  14.795
41893W        W 8434  43.909  15.749   3.688
41894W        W 8435  13.978   4.316  11.271
41895W        W 8436  19.451  21.629  14.242
41896W        W 8437  30.970  30.668  10.648
41897W        W 8438  17.628  31.463  14.769
41898W        W 8439  21.680  17.309   1.706
41899W        W 8440   9.347  20.662  11.215
41900W        W 8441  26.131  27.618   4.711
41901W        W 8442  32.639   6.679   4.837
41902W        W 8443  44.294   8.099   0.754
41903W        W 8444  16.437  13.601  12.580
41904W        W 8445  17.007   5.935   0.261
41905W        W 8446  44.871  16.692   1.648
41906W        W 8447  26.533  10.033  10.547
41907W        W 8448  15.698  16.953   1.451
41908W        W 8449   6.867  13.614   1.314
41909W        W 8450  44.215  18.165  14.962
41910W        W 8451  13.373  32.916  12.650
41911W        W 8452  32.007  39.640   0.920
41912W        W 8453  30.519   1.962  13.550
41913W        W 8454  20.246   5.694   2.219
41914W        W 8455  14.671  31.392   2.261
41915W        W 8456  30.894   7.200   2.298
41916W        W 8457  34.111  42.255  12.744
41917W        W 8458  41.042   5.853   1.515
41918W        W 8459  43.502  33.580  12.246
41919W        W 8460   9.963  27.016  12.887
41920W        W 8461  18.084  43.346   1.479
41921W        W 8462  24.947   4.435   1.865
41922W        W 8463  31.840  30.347   3.176
41923W        W 8464  44.342  32.061  14.142
41924W        W 8465  42.231  41.470   2.047
41925W        W 8466  33.671   8.650   0.876
41926W        W 8467   4.489  23.990  11.642
41927W        W 8468   7.286  14.020   4.651
41928W        W 8469   7.675  44.963  14.354
41929W        W 8470  14.584   0.766   4.274
41930W        W 8471  21.040   2.317  11.573
41931W        W 8472  41.411  26.344   3.716
41932W        W 8473  40.498  41.546   1.642
41933W        W 8474  29.869  41.106  10.662
41934W        W 8475  19.102  38.860   2.503
41935W        W 8476  27.772  42.244   2.175
41936W        W 8477   4.190  43.550   3.870
41937W        W 8478   6.994  20.586   1.343
41938W        W 8479   1.554  14.456   1.181
41939W        W 8480  17.685  16.170  14.505
41940W        W 8481  22.966  41.598   3.786
41941W        W 8482  21.207  31.846   3.420
41942W        W 8483  25.984  13.247  14.653
41943W        W 8484  22.560  30.329  13.368
41944W        W 8485   4.223   3.836   2.669
41945W        W 8486   8.750  34.878  11.336
41946W        W 8487   3.956  34.039  12.440
41947W        W 8488  38.415  23.769  10.707
41948W        W 8489  37.774  34.550   3.610
41949W        W 8490  10.083  27.218  10.733
41950W        W 8491  36.677   4.127   2.332
41951W        W 8492  22.604   3.918  11.697
41952W        W 8493   2.991  20.636   4.117
41953W        W 8494   4.801  12.039  11.952
41954W        W 8495  19.712  39.679   0.391
41955W        W 8496  12.125  25.066   2.620
41956W        W 8497   3.940   8.307  14.099
41957W        W 8498  38.200   1.647   4.661
41958W        W 8499  28.586  29.968   3.310
41959W        W 8500   3.224  43.487  14.525
41960W        W 8501  11.633  37.574  10.241
41961W        W 8502  24.058   3.923   3.320
41962W        W 8503  19.724  41.354   0.100
41963W        W 8504  43.566  19.767  13.355
41964W        W 8505   5.798   5.432   1.468
41965W        W 8506   7.167  42.460   1.994
41966W        W 8507  19.452  43.937  14.006
41967W        W 8508  12.159   6.538   2.368
41968W        W 8509  42.976  30.439  10.543
41969W        W 8510  33.895  17.065  12.052
41970W        W 8511  44.782  38.547  14.730
41971W        W 8512  23.628   8.590  10.811
41972W        W 8513  20.649  17.357  11.085
41973W        W 8514  35.453  13.199  11.726
41974W        W 8515   4.190  31.023  12.926
41975W        W 8516  41.426  36.333  11.933
41976W        W 8517  16.210  42.537  13.455
41977W        W 8518  12.592   9.157  11.580
41978W        W 8519   6.756  27.524   4.267
41979W        W 8520  22.203   1.974   3.047
41980W        W 8521  44.904   6.340  14.646
41981W        W 8522  24.256  18.618   2.938
41982W        W 8523  22.702   6.319  12.007
41983W        W 8524  13.172  29.548  10.480
41984W        W 8525  21.681  37.438   2.798
41985W        W 8526  23.573  33.835   4.275
41986W        W 8527  35.498  29.053  12.177
41987W        W 8528   3.444  10.302  10.604
41988W        W 8529  29.011  17.109  12.270
41989W        W 8530  36.512  38.405  13.727
41990W        W 8531  10.821  18.271   0.627
41991W        W 8532   7.800   9.685   3.223
41992W        W 8533  31.812  18.956  12.666
41993W        W 8534  28.901  10.388  13.900
41994W        W 8535  15.732  41.703   4.188
41995W        W 8536  43.858  44.992  13.921
41996W        W 8537  22.111  30.617  11.551
41997W        W 8538  11.506  42.719   5.274
41998W        W 8539  33.086  17.604  14.536
41999W        W 8540  24.648  21.193   4.172
42000W        W 8541   4.253  11.795  12.681
42001W        W 8542  32.036  19.674  13.376
42002W        W 8543  41.985  36.263   2.303
42003W        W 8544  36.304  31.478   0.398
42004W        W 8545  16.128  39.364   0.333
42005W        W 8546   8.382  16.710   3.944
42006W        W 8547  17.404  20.054   4.484
42007W        W 8548  36.960  37.100   4.765
42008W        W 8549  19.587  24.640  13.518
42009W        W 8550  25.704  33.022   4.308
42010W        W 8551  22.185  14.668  10.675
42011W        W 8552  33.396  22.982   1.876
42012W        W 8553  13.116  10.537   3.664
42013W        W 8554   9.927  15.156  12.402
42014W        W 8555  24.724  28.577   0.359
42015W        W 8556   4.267   9.878   3.320
42016W        W 8557  25.874  12.847  14.337
42017W        W 8558  39.177  25.633  13.290
42018W        W 8559  41.727   0.869   4.657
42019W        W 8560  36.921   3.630   1.218
42020W        W 8561   7.146  35.035   2.757
42021W        W 8562  38.448  33.061  13.001
42022W        W 8563  19.811   4.410   3.761
42023W        W 8564  23.424  32.617  14.411
42024W        W 8565  33.127  27.913   3.413
42025W        W 8566  42.448  24.089  11.178
42026W        W 8567  20.770  30.181   0.174
42027W        W 8568   9.156  19.662  14.290
42028W        W 8569  35.136  20.254  14.409
42029W        W 8570  21.770  29.953   0.431
42030W        W 8571  12.661   3.427   2.801
42031W        W 8572  42.483   2.218  12.769
42032W        W 8573  21.026  11.858   2.736
42033W        W 8574  10.672  11.841  14.796
42034W        W 8575  20.505  42.007   4.028
42035W        W 8576  42.457   6.692  11.906
42036W        W 8577  16.185  21.326  12.451
42037W        W 8578  28.423  11.734   2.236
42038W        W 8579   5.289  38.559   0.266
42039W        W 8580   6.339  19.733   0.849
42040W        W 8581   8.319  39.491  10.442
42041W        W 8582  23.593   2.931   0.721
42042W        W 8583  30.063  13.704  14.257
42043W        W 8584  26.905   0.390   3.317
42044W        W 8585  43.589   3.911  14.198
42045W        W 8586  37.903  16.078   4.612
42046W        W 8587  26.229   1.376   0.917
42047W        W 8588  10.101  34.876   2.899
42048W        W 8589   2.477  39.765  11.313
42049W        W 8590   6.208  27.504  12.513
42050W        W 8591  38.491   9.948  14.471
42051W        W 8592  10.035  31.720   4.115
42052W        W 8593  19.246  13.812  11.124
42053W        W 8594  18.143  27.496   1.716
42054W        W 8595  17.883  34.414  10.862
42055W        W 8596  34.181   3.708  11.600
42056W        W 8597   5.683   7.818  14.695
42057W        W 8598   8.373  32.025  13.407
42058W        W 8599  15.868  12.269   3.228
42059W        W 8600   0.614  25.006  12.229
42060W        W 8601   2.120  14.199  12.127
42061W        W 8602   9.252  14.958   4.267
42062W        W 8603   2.255  14.517  13.780
42063W        W 8604  38.518  12.850   3.609
42064W        W 8605  27.167  40.299   4.654
42065W        W 8606  32.385   4.101   4.479
42066W        W 8607   8.610  36.531   4.680
42067W        W 8608  42.042  33.816   4.398
42068W        W 8609  15.266  36.613  11.145
42069W        W 8610  39.719  43.568   1.560
42070W        W 8611  40.319   0.472  10.452
42071W        W 8612  33.473  17.239  10.882
42072W        W 8613   7.109  31.581  14.368
42073W        W 8614  35.861  44.867   3.214
42074W        W 8615  24.931  20.548   3.180
42075W        W 8616  19.170   1.650  11.674
42076W        W 8617  37.879  17.747  12.549
42077W        W 8618  31.459  19.299  14.468
42078W        W 8619  28.147  11.143  12.443
42079W        W 8620  25.587  35.433   3.975
42080W        W 8621  27.501  35.298   0.370
42081W        W 8622  35.757   2.424   3.236
42082W        W 8623  22.702   2.391   0.607
42083W        W 8624  41.774  36.440  14.333
42084W        W 8625  26.112  31.334  11.471
42085W        W 8626  36.763  33.462   0.551
42086W        W 8627  13.624  43.789   3.939
42087W        W 8628   9.252   2.502   0.722
42088W        W 8629  39.686   5.810   1.711
42089W        W 8630  42.142   8.757   4.283
42090W        W 8631  29.793  42.853  14.764
42091W        W 8632  31.237  27.690  14.363
42092W        W 8633   2.952  44.000   3.379
42093W        W 8634  22.270  28.883  12.389
42094W        W 8635  42.319   5.422   2.132
42095W        W 8636  42.897  24.479   4.192
42096W        W 8637  14.329  34.303   3.271
42097W        W 8638  35.372  40.928  13.728
42098W        W 8639  30.077  12.445   2.722
42099W        W 8640   5.962  23.830  10.811
42100W        W 8641  12.274  40.279   2.840
42101W        W 8642  29.008  15.371  12.185
42102W        W 8643   6.392  42.880   3.165
42103W        W 8644  15.586   0.752   3.194
42104W        W 8645  26.041  38.267  12.059
42105W        W 8646  14.138  13.940  11.150
42106W        W 8647  44.209   5.035  12.497
42107W        W 8648  27.531  30.352   3.651
42108W        W 8649   2.325   1.269   3.524
42109W        W 8650  18.496  12.778  10.271
42110W        W 8651  42.013  26.190  10.586
42111W        W 8652  17.293  10.484   4.189
42112W        W 8653  42.258  10.850  13.286
42113W        W 8654   3.136  17.301  10.647
42114W        W 8655  19.234   8.888   4.243
42115W        W 8656   5.841  20.291   4.815
42116W        W 8657   0.246  20.677   3.862
42117W        W 8658  28.359  40.043   4.241
42118W        W 8659  44.947   8.591   2.324
42119W        W 8660  23.925   0.779   1.275
42120W        W 8661  43.324   2.138   1.154
42121W        W 8662  21.172  19.099  13.541
42122W        W 8663  23.675  24.743   2.291
42123W        W 8664  14.832  43.879   4.122
42124W        W 8665  33.474  43.122   1.140
42125W        W 8666  33.392   6.250  10.269
42126W        W 8667  40.343  14.184   2.732
42127W        W 8668   0.494   3.311  11.572
42128W        W 8669  37.582  25.126  13.837
42129W        W 8670  18.799  35.381   3.594
42130W        W 8671  22.491  31.990   1.691
42131W        W 8672  41.488  28.548   4.597
42132W        W 8673  36.440  38.372  14.950
42133W        W 8674  15.257  41.873  12.904
42134W        W 8675  10.071  12.097  12.087
42135W        W 8676   5.812  33.647  14.941
42136W        W 8677  14.529  10.783   3.670
42137W        W 8678   0.211  23.967  11.414
42138W        W 8679  14.223  11.232  12.068
42139W        W 8680  39.935  13.681  12.841
42140W        W 8681  30.579  44.898   3.597
42141W        W 8682  35.814  41.580  13.535
42142W        W 8683  30.242  27.830  14.947
42143W        W 8684  33.299  25.071  11.678
42144W        W 8685   3.749   6.071   2.757
42145W        W 8686   8.247  38.425   3.722
42146W        W 8687   0.280  28.017  14.879
42147W        W 8688  23.764  34.497   3.737
42148W        W 8689  44.136  28.223   5.172
42149W        W 8690  31.430  10.867   1.348
42150W        W 8691  18.810   1.390  10.456
42151W        W 8692  31.111   5.748   0.838
42152W        W 8693  43.930   2.318  12.928
42153W        W 8694  36.146  32.914  14.988
42154W        W 8695  10.808  40.962   4.334
42155W        W 8696  21.172  13.903  12.652
42156W        W 8697  22.954  44.945  10.520
42157W        W 8698  21.116  24.617  11.528
42158W        W 8699  13.577  44.328  13.005
42159W        W 8700   2.978  31.516   3.787
42160W        W 8701  27.508  34.084   4.343
42161W        W 8702  19.986  11.282  11.535
42162W        W 8703  38.804  10.245  13.804
42163W        W 8704  42.006  22.192   0.823
42164W        W 8705  27.743  32.082  12.010
42165W        W 8706  13.575  38.834   3.747
42166W        W 8707  18.273  20.081   4.578
42167W        W 8708   5.643  36.850   2.780
42168W        W 8709   7.882   6.690   0.808
42169W        W 8710  12.297  19.672   1.406
42170W        W 8711   6.035  39.837   1.257
42171W        W 8712   1.702  35.597   3.720
42172W        W 8713   1.239  24.126  14.021
42173W        W 8714  21.758   9.907  10.742
42174W        W 8715   0.577   4.419  10.449
42175W        W 8716  42.754   4.222   4.584
42176W        W 8717   3.211  43.777  12.215
42177W        W 8718  18.192  39.303   2.827
42178W        W 8719   7.413  15.445  10.956
42179W        W 8720  22.095  29.710   4.265
42180W        W 8721  43.496  22.366   2.340
42181W        W 8722  17.671   8.259  11.549
42182W        W 8723  42.284  25.945   2.422
42183W        W 8724  13.211  40.592   4.020
42184W        W 8725  18.552  40.800   4.312
42185W        W 8726   0.335  23.067  14.764
42186W        W 8727   3.525   3.508  11.486
42187W        W 8728  24.811  36.184  14.729
42188W        W 8729   5.361  38.013  14.472
42189W        W 8730  17.713  36.292   0.054
42190W        W 8731  31.863  40.902   0.773
42191W        W 8732  26.753  17.780   0.871
42192W        W 8733  29.104  16.190   2.392
42193W        W 8734  25.572  12.366  12.545
42194W        W 8735  15.114  30.905  14.967
42195W        W 8736   0.290  29.234  13.109
42196W        W 8737   5.472  14.755   4.138
42197W        W 8738  41.868   0.923   1.749
42198W        W 8739  13.334   6.610   2.800
42199W        W 8740   2.912  22.109   0.305
42200W        W 8741  24.309  14.191  13.024
42201W        W 8742   0.385  28.037  12.452
42202W        W 8743  15.702  18.950   1.322
42203W        W 8744  30.900  36.838  14.961
42204W        W 8745  16.452   6.144  13.973
42205W        W 8746  33.009  12.084  13.422
42206W        W 8747  18.439  10.604   2.277
42207W        W 8748  42.802  21.612   3.694
42208W        W 8749  18.928  17.107   4.164
42209W        W 8750  36.848  21.016  11.002
42210W        W 8751   0.940  28.716  11.997
42211W        W 8752  34.339  12.860   4.264
42212W        W 8753  12.247   7.034   2.375
42213W        W 8754  12.262   1.335  11.481
42214W        W 8755  20.029  20.762   1.326
42215W        W 8756   6.461   0.719   3.696
42216W        W 8757   5.332  31.163   4.047
42217W        W 8758  35.219  14.621  14.787
42218W        W 8759   0.598  22.623  13.855
42219W        W 8760  20.722  23.225  13.509
42220W        W 8761  27.583   9.165   2.823
42221W        W 8762  18.861  32.480   0.509
42222W        W 8763  16.353  43.097  11.562
42223W        W 8764  36.893  15.268  11.804
42224W        W 8765  32.153  30.967   3.393
42225W        W 8766   1.223  34.991  11.912
42226W        W 8767  18.742  36.987   2.767
42227W        W 8768   7.462   7.210   1.603
42228W        W 8769   7.817   7.302   3.325
42229W        W 8770  34.931  17.151  14.733
42230W        W 8771  15.440  22.971   2.843
42231W        W 8772   6.941  40.962  10.771
42232W        W 8773  18.415  14.545  13.376
42233W        W 8774  28.603  11.801  12.088
42234W        W 8775   2.272  23.272  13.014
42235W        W 8776   5.121  38.574   5.061
42236W        W 8777   1.496  28.636   0.980
42237W        W 8778  23.875  35.357   2.674
42238W        W 8779  42.332  23.584  13.124
42239W        W 8780  41.762  12.406  14.970
42240W        W 8781  37.795  31.189  11.987
42241W        W 8782   9.727   8.484   1.290
42242W        W 8783   7.765  43.701  14.955
42243W        W 8784   1.832  33.856  14.392
42244W        W 8785  22.984   3.405   4.611
42245W        W 8786  16.316  32.389  11.611
42246W        W 8787   8.628  24.747  10.691
42247W        W 8788  12.681  34.850  13.903
42248W        W 8789  27.916  39.216   2.894
42249W        W 8790   3.831  21.469   4.103
42250W        W 8791  19.709  19.512  14.800
42251W        W 8792  24.524  25.128   4.557
42252W        W 8793  43.298   4.965  14.353
42253W        W 8794  23.222  20.691   2.725
42254W        W 8795  38.968  43.772  13.038
42255W        W 8796   2.166  30.636   9.487
42256W        W 8797   8.629  35.604  11.546
42257W        W 8798   4.221  23.039   4.648
42258W        W 8799   3.903   9.999   0.263
42259W        W 8800  26.549  10.176   3.077
42260W        W 8801   8.217  43.504  14.712
42261W        W 8802  39.414  36.468   2.207
42262W        W 8803  13.968  13.140   2.879
42263W        W 8804  36.090  44.940   0.328
42264W        W 8805  26.647   8.122   0.324
42265W        W 8806   6.712  37.537   2.468
42266W        W 8807   4.465   5.795   5.074
42267W        W 8808  37.932  34.965  13.769
42268W        W 8809  28.161  17.141  13.110
42269W        W 8810  31.522  22.414   0.356
42270W        W 8811  40.633   1.405  13.866
42271W        W 8812  30.462  20.286   2.832
42272W        W 8813   7.408  40.052  12.107
42273W        W 8814  37.599  17.631   1.374
42274W        W 8815  42.992  28.433  14.830
42275W        W 8816  31.124  43.894   4.883
42276W        W 8817  21.449  14.567  14.885
42277W        W 8818  37.473  44.455  11.966
42278W        W 8819  38.339   8.766  11.717
42279W        W 8820   4.943   2.828   0.331
42280W        W 8821  33.062  44.221   2.014
42281W        W 8822  10.224   5.729   3.538
42282W        W 8823   1.702  21.637  13.427
42283W        W 8824   7.673  32.146  10.684
42284W        W 8825  33.510   9.132   0.352
42285W        W 8826  29.181  40.767  11.090
42286W        W 8827   8.664   0.147   3.781
42287W        W 8828  26.880   4.157   3.358
42288W        W 8829   3.519  32.649  14.995
42289W        W 8830   6.896  22.612  14.288
42290W        W 8831  14.279  31.204  12.643
42291W        W 8832  41.881  40.382  11.151
42292W        W 8833  39.614  16.706  10.427
42293W        W 8834  40.517  17.560   4.182
42294W        W 8835  44.864  26.717   3.745
42295W        W 8836   7.430  33.701  13.728
42296W        W 8837  34.967  21.021   4.493
42297W        W 8838  24.831  29.882  13.919
42298W        W 8839  10.598  29.909   2.808
42299W        W 8840  37.961   8.968  10.565
42300W        W 8841  33.044  22.396  12.779
42301W        W 8842  35.817  42.325   1.216
42302W        W 8843  23.496  22.590  14.475
42303W        W 8844  28.813   8.816  10.671
42304W        W 8845  11.705   8.717  13.469
42305W        W 8846  14.751   2.243  11.457
42306W        W 8847  24.385  23.656  12.477
42307W        W 8848  34.974  16.308   3.620
42308W        W 8849  44.494  31.693  12.099
42309W        W 8850  15.120   6.116   3.222
42310W        W 8851  17.633  36.741  11.433
42311W        W 8852  31.033  24.523  14.820
42312W        W 8853  19.326  42.498  13.826
42313W        W 8854  41.326  42.458   2.157
42314W        W 8855  13.936   7.923   1.450
42315W        W 8856  31.626  28.778  11.497
42316W        W 8857   0.250  28.248  14.401
42317W        W 8858   9.387  12.139  13.427
42318W        W 8859   3.495  10.617  13.405
42319W        W 8860   7.675  41.523  11.591
42320W        W 8861  18.730  22.531   0.822
42321W        W 8862  35.781   0.751  11.038
42322W        W 8863  32.047   1.694   1.795
42323W        W 8864  38.839  34.104   1.906
42324W        W 8865   6.793  19.833  11.952
42325W        W 8866  38.365  28.041   4.606
42326W        W 8867  27.334  14.135  14.681
42327W        W 8868   2.441  28.735  14.359
42328W        W 8869  17.145   9.366  11.638
42329W        W 8870  33.475  22.227   2.294
42330W        W 8871  40.198   1.884   0.927
42331W        W 8872  37.348  35.599  11.071
42332W        W 8873   9.753  28.930  14.746
42333W        W 8874  33.527  25.179  14.338
42334W        W 8875  43.015  34.427   1.794
42335W        W 8876  14.236  17.374   2.249
42336W        W 8877  18.259  36.064   2.253
42337W        W 8878  26.488   3.965  12.457
42338W        W 8879  14.161   5.999   4.923
42339W        W 8880  33.653  21.443   0.991
42340W        W 8881  15.970   7.959  14.941
42341W        W 8882  22.536  28.916  10.711
42342W        W 8883  37.320   8.819   0.465
42343W        W 8884   0.882  28.658   4.343
42344W        W 8885  32.183  29.243  11.976
42345W        W 8886   4.187  34.177   3.829
42346W        W 8887   8.234  11.606  13.854
42347W        W 8888  31.408  41.559   4.193
42348W        W 8889  31.106  39.928   0.012
42349W        W 8890   7.239  17.979   4.840
42350W        W 8891   5.589  26.497  13.625
42351W        W 8892  20.590   0.416  14.305
42352W        W 8893  11.214  41.882  11.228
42353W        W 8894  22.319   4.380  11.938
42354W        W 8895   4.183  35.604   1.646
42355W        W 8896  17.668   2.170   2.762
42356W        W 8897  14.593  15.110   2.822
42357W        W 8898  16.851  23.767   3.109
42358W        W 8899  18.773  13.221   0.714
42359W        W 8900  34.881  40.811  14.003
42360W        W 8901  17.695  38.405   0.656
42361W        W 8902  40.480  30.897  10.759
42362W        W 8903  19.410  11.787   4.195
42363W        W 8904   0.333  26.127  14.865
42364W        W 8905  28.654  27.466   2.721
42365W        W 8906   5.650  30.745   4.721
42366W        W 8907   4.060  22.791  11.037
42367W        W 8908  21.576  33.350   2.857
42368W        W 8909  38.571  28.191   2.799
42369W        W 8910  14.585  44.237  12.121
42370W        W 8911  22.589  25.719  14.510
42371W        W 8912  19.370  14.355   4.819
42372W        W 8913   6.639  33.037   1.266
42373W        W 8914  13.775  27.930   1.079
42374W        W 8915  13.757  20.570  11.653
42375W        W 8916   5.168  39.587   2.204
42376W        W 8917  43.356  21.970   3.229
42377W        W 8918  17.183  43.904  11.275
42378W        W 8919   7.777  38.815   0.943
42379W        W 8920   1.342  40.372  11.553
42380W        W 8921   7.651  32.528  13.488
42381W        W 8922  17.615   5.749  13.878
42382W        W 8923  27.203  32.942   2.330
42383W        W 8924  26.137  22.051   1.815
42384W        W 8925   8.035  12.113  14.162
42385W        W 8926  40.157  21.704   2.682
42386W        W 8927  24.556  39.996  12.120
42387W        W 8928  12.723  40.154  12.204
42388W        W 8929  18.319  13.736  11.976
42389W        W 8930  15.518  41.457   1.145
42390W        W 8931  43.439  31.190  12.448
42391W        W 8932  44.939  10.436   3.690
42392W        W 8933   5.161  11.603  14.085
42393W        W 8934  20.728  34.574  13.462
42394W        W 8935   8.756   5.980   2.750
42395W        W 8936  13.211  44.081   4.050
42396W        W 8937  34.396  22.649  12.104
42397W        W 8938  42.995  25.769  10.661
42398W        W 8939  25.732   2.911  12.390
42399W        W 8940   0.804   0.442  12.577
42400W        W 8941  12.226  19.628   4.345
42401W        W 8942  11.112  37.467   2.302
42402W        W 8943  11.759  10.413   2.833
42403W        W 8944  26.885   1.795  14.387
42404W        W 8945  37.027  42.429  13.745
42405W        W 8946   6.801  17.120   4.058
42406W        W 8947   4.358  14.884   2.461
42407W        W 8948  41.563  32.883   4.500
42408W        W 8949  22.137  26.069   3.271
42409W        W 8950  26.664  39.416  10.633
42410W        W 8951   3.286  41.782   1.410
42411W        W 8952  15.285  41.952  13.915
42412W        W 8953  16.508  12.799  10.178
42413W        W 8954  25.248  28.261  11.137
42414W        W 8955  23.045  36.380   0.893
42415W        W 8956  22.801  19.630   2.288
42416W        W 8957   0.275  13.170   1.479
42417W        W 8958  28.113   9.088   3.191
42418W        W 8959  38.486   6.775   2.084
42419W        W 8960   9.020  33.951   3.139
42420W        W 8961  20.146  14.477  11.491
42421W        W 8962  35.857  14.437  12.746
42422W        W 8963  26.549   9.697  12.042
42423W        W 8964  18.244  26.195  12.105
42424W        W 8965   0.848   3.212  10.920
42425W        W 8966  40.671  12.354   3.029
42426W        W 8967  21.693   9.038  12.493
42427W        W 8968  30.363  28.649   2.724
42428W        W 8969  26.122  32.386  14.442
42429W        W 8970  34.010  18.634   2.806
42430W        W 8971  23.193  27.663   0.776
42431W        W 8972  15.847  10.874   2.735
42432W        W 8973  26.938   8.735  12.017
42433W        W 8974   7.104  37.396  12.052
42434W        W 8975   4.826   3.486  11.730
42435W        W 8976  12.110  39.858   0.515
42436W        W 8977   0.150  23.173   3.155
42437W        W 8978  32.312  15.142  12.203
42438W        W 8979  28.025  37.340   4.089
42439W        W 8980  33.884  41.665   0.085
42440W        W 8981   9.226  34.109   3.599
42441W        W 8982  16.403  13.203   3.985
42442W        W 8983  21.283  38.120   0.870
42443W        W 8984  41.536   1.246  12.419
42444W        W 8985  28.604  26.468  13.760
42445W        W 8986   2.596  33.640  14.795
42446W        W 8987  29.632   8.972   2.225
42447W        W 8988   2.846  22.209  13.185
42448W        W 8989  21.449  27.455   2.345
42449W        W 8990  15.032  36.795   3.278
42450W        W 8991  30.518   9.743   4.544
42451W        W 8992  21.252   2.775  12.097
42452W        W 8993  29.420  44.208  14.897
42453W        W 8994  29.619  21.447   0.834
42454W        W 8995   4.877  29.676  13.159
42455W        W 8996  31.413   6.921  14.875
42456W        W 8997   6.257  21.428  13.756
42457W        W 8998   4.340  23.755  13.866
42458W        W 8999  34.057  17.556  14.424
42459W        W 9000  13.743  21.975  12.872
42460W        W 9001  31.441  11.447  14.011
42461W        W 9002  22.987  42.861   0.107
42462W        W 9003  25.275  16.934   1.372
42463W        W 9004  42.330   5.705  13.503
42464W        W 9005  34.994  30.487   0.810
42465W        W 9006  23.505  41.200  11.944
42466W        W 9007  32.816  35.788   0.268
42467W        W 9008  27.859  21.530   0.635
42468W        W 9009  17.054  44.269   1.236
42469W        W 9010  36.555  14.077   1.643
42470W        W 9011  22.381  42.494   3.618
42471W        W 9012  34.267  41.994   3.351
42472W        W 9013  29.631  11.801   1.794
42473W        W 9014  29.102   6.317   3.534
42474W        W 9015  27.688  32.083  14.379
42475W        W 9016  26.753  19.431  14.667
42476W        W 9017  40.979   2.271   0.769
42477W        W 9018   4.560  32.473  11.013
42478W        W 9019  29.197  14.028  13.453
42479W        W 9020  21.726  21.754  11.144
42480W        W 9021  11.421   0.944  11.046
42481W        W 9022  44.997  41.464  12.475
42482W        W 9023   5.361  16.868   4.630
42483W        W 9024  39.867  12.704  14.435
42484W        W 9025  24.979   0.993  13.907
42485W        W 9026  35.448  43.500  13.454
42486W        W 9027  16.612  32.685   0.483
42487W        W 9028  39.848  33.337   1.869
42488W        W 9029  12.107  12.995   4.397
42489W        W 9030  24.606  34.439  14.265
42490W        W 9031  44.405  28.852   2.654
42491W        W 9032  37.844   2.149  14.954
42492W        W 9033   3.434   0.949  12.885
42493W        W 9034  28.141  23.929  14.908
42494W        W 9035  18.974  32.541   1.029
42495W        W 9036  10.694  25.061  12.173
42496W        W 9037   2.848  25.571   0.662
42497W        W 9038  26.386  33.637   3.140
42498W        W 9039  34.339  41.778  12.643
42499W        W 9040  29.059  30.096   4.558
42500W        W 9041   1.265   7.197  14.061
42501W        W 9042  29.475  24.221   4.246
42502W        W 9043  35.478  27.924   2.262
42503W        W 9044  10.031  30.439  13.285
42504W        W 9045   0.659  41.116  13.772
42505W        W 9046  15.214   4.392   4.049
42506W        W 9047   4.780  44.262   1.227
42507W        W 9048  43.598  27.099   4.451
42508W        W 9049  35.200  12.438  11.110
42509W        W 9050  30.916  43.357   1.966
42510W        W 9051   4.925  32.567   2.697
42511W        W 9052  20.550  33.949   0.227
42512W        W 9053  24.663  35.399  14.020
42513W        W 9054  30.659  24.669   3.835
42514W        W 9055   7.211  12.312  12.648
42515W        W 9056  27.136   5.377   0.218
42516W        W 9057   1.837  44.112   2.367
42517W        W 9058  40.300  28.149   2.323
42518W        W 9059   2.511  38.873   0.938
42519W        W 9060  28.875  21.406   0.393
42520W        W 9061   1.992   1.751  11.645
42521W        W 9062  15.548  23.984  11.150
42522W        W 9063  10.324  10.308  14.031
42523W        W 9064  17.164  31.257  11.990
42524W        W 9065   6.499  36.103  12.867
42525W        W 9066  18.724  12.810  12.087
42526W        W 9067  23.081  32.436   4.819
42527W        W 9068  18.670   1.682  12.532
42528W        W 9069  20.960   0.592  13.101
42529W        W 9070  32.564   3.050   2.882
42530W        W 9071  29.678  11.097  14.392
42531W        W 9072   0.834  39.465  12.384
42532W        W 9073   3.796  20.575   4.617
42533W        W 9074  38.036  21.599   0.439
42534W        W 9075  34.582   6.715   2.163
42535W        W 9076   4.775  38.914   4.853
42536W        W 9077  22.134  32.899   3.121
42537W        W 9078  39.360  37.286   2.180
42538W        W 9079   6.546  31.997   0.923
42539W        W 9080  12.044   6.034  11.073
42540W        W 9081  23.077  27.100  10.697
42541W        W 9082  29.979  11.617   0.717
42542W        W 9083  22.970  37.904  10.609
42543W        W 9084  29.434  29.465  10.830
42544W        W 9085  43.717   5.187   1.941
42545W        W 9086  37.398  43.948  10.682
42546W        W 9087  44.422  12.829  10.819
42547W        W 9088  38.866   9.319  13.539
42548W        W 9089  32.606  25.485  14.959
42549W        W 9090  17.209  25.405   1.790
42550W        W 9091   3.657  22.605  12.865
42551W        W 9092  19.632  20.041   2.206
42552W        W 9093  31.475  24.989   1.360
42553W        W 9094  28.980  35.559   4.815
42554W        W 9095  18.613  40.449  14.418
42555W        W 9096  30.132   0.505   0.887
42556W        W 9097  44.172  37.330   2.263
42557W        W 9098  15.075   5.012   0.655
42558W        W 9099  17.179   9.714  12.045
42559W        W 9100  35.316  25.101   0.006
42560W        W 9101  17.867  26.526   3.507
42561W        W 9102  29.685  36.008   3.256
42562W        W 9103  23.609  10.613   1.878
42563W        W 9104   4.506  41.609   0.603
42564W        W 9105   0.872  28.321  12.335
42565W        W 9106  34.617  44.883   3.693
42566W        W 9107  40.855  16.811  11.875
42567W        W 9108  11.617  43.899   0.399
42568W        W 9109  13.581  34.815  11.205
42569W        W 9110  41.532  44.406   0.777
42570W        W 9111  14.301  28.472  13.863
42571W        W 9112  44.303  30.526  11.131
42572W        W 9113  39.516   4.373   0.999
42573W        W 9114  32.427  23.036   1.700
42574W        W 9115  17.229  17.071   0.316
42575W        W 9116  14.536  36.105  11.880
42576W        W 9117  23.569  30.864   0.789
42577W        W 9118  13.734  16.294   2.746
42578W        W 9119  16.858  29.114  14.421
42579W        W 9120  27.208  39.720  13.201
42580W        W 9121  19.785   2.372  13.420
42581W        W 9122  16.803  15.880   2.337
42582W        W 9123  10.058   9.964  11.298
42583W        W 9124   2.008   0.883  13.909
42584W        W 9125   4.729  11.174  11.485
42585W        W 9126  19.502  30.012  11.262
42586W        W 9127   1.681  21.104  14.277
42587W        W 9128  42.870  19.233   1.576
42588W        W 9129  35.351  26.659   3.774
42589W        W 9130  25.062  25.376  12.240
42590W        W 9131  13.143  40.791  11.259
42591W        W 9132   3.301  27.024  12.050
42592W        W 9133  33.801   4.629  13.465
42593W        W 9134   4.427  18.676  12.915
42594W        W 9135  33.822   0.394  10.750
42595W        W 9136   5.750  23.749   3.626
42596W        W 9137   4.650  41.337  13.849
42597W        W 9138  43.264  32.333   0.793
42598W        W 9139  25.517   4.384   4.023
42599W        W 9140  41.073  21.619   2.549
42600W        W 9141   3.387  44.244  12.097
42601W        W 9142  18.733   3.914   3.240
42602W        W 9143   5.451  42.951  11.598
42603W        W 9144  34.992  39.333  14.889
42604W        W 9145  24.899  34.011  14.487
42605W        W 9146   4.020  41.290  11.246
42606W        W 9147  14.693  25.252   0.837
42607W        W 9148   6.235  33.119  11.073
42608W        W 9149   7.479  16.311  13.104
42609W        W 9150   5.709   2.376   2.909
42610W        W 9151  36.562  28.566  14.968
42611W        W 9152   9.926  28.001  11.102
42612W        W 9153  23.575  26.057  11.457
42613W        W 9154  23.719  33.628   3.809
42614W        W 9155  43.574  23.094  10.646
42615W        W 9156  35.926  12.455   1.235
42616W        W 9157   2.010  25.420  12.916
42617W        W 9158  22.933  27.572  11.500
42618W        W 9159  30.785  24.741  12.739
42619W        W 9160   4.833  16.990   4.684
42620W        W 9161   0.252  25.527  12.084
42621W        W 9162  19.002  21.288  11.709
42622W        W 9163   9.210   5.907  13.502
42623W        W 9164  19.257  41.267   2.728
42624W        W 9165  23.199  22.199  11.649
42625W        W 9166   1.722  26.484   4.594
42626W        W 9167  25.974  15.642   0.812
42627W        W 9168  30.539  24.249  11.303
42628W        W 9169  23.504  39.510  14.291
42629W        W 9170  20.034  27.088   2.436
42630W        W 9171  19.040  24.482  11.177
42631W        W 9172  17.324  26.387  14.187
42632W        W 9173   8.734  22.564   4.566
42633W        W 9174  31.603  10.770  13.297
42634W        W 9175  30.981   1.878   1.981
42635W        W 9176  17.189   9.558   0.783
42636W        W 9177  31.904  18.825   0.824
42637W        W 9178  28.967  44.412  11.130
42638W        W 9179  31.346  20.625   0.423
42639W        W 9180  39.975  11.808  11.551
42640W        W 9181  35.057  18.464   0.899
42641W        W 9182  44.235  38.609   0.454
42642W        W 9183  27.971  11.390  13.754
42643W        W 9184  10.144   5.266   3.299
42644W        W 9185  18.050   4.458   4.571
42645W        W 9186  35.997  32.547   0.762
42646W        W 9187  31.991  23.304   1.716
42647W        W 9188  11.627  44.503   4.425
42648W        W 9189  24.695  41.794  12.149
42649W        W 9190  16.510  18.923   1.689
42650W        W 9191  12.579   9.592  12.822
42651W        W 9192  16.139  13.248   3.092
42652W        W 9193  37.921  19.525  13.345
42653W        W 9194  18.744  38.664  11.397
42654W        W 9195  24.602  12.918   0.448
42655W        W 9196  19.760  33.923  12.510
42656W        W 9197   2.501  43.928   3.649
42657W        W 9198  32.369  29.936   0.507
42658W        W 9199  42.476  20.511   1.255
42659W        W 9200  24.941  21.022   4.583
42660W        W 9201  41.502  26.532   2.321
42661W        W 9202  43.550   7.173  10.578
42662W        W 9203  36.634  17.415   3.328
42663W        W 9204  22.515  19.482   2.720
42664W        W 9205   6.841  11.256  14.893
42665W        W 9206  34.573  44.198  14.128
42666W        W 9207  15.249  11.601   2.827
42667W        W 9208  17.887  39.879   1.509
42668W        W 9209  31.709  22.828  12.361
42669W        W 9210  38.036  12.306   3.458
42670W        W 9211  27.904  27.963   0.078
42671W        W 9212  35.567  44.945   0.258
42672W        W 9213  31.394  15.054  13.330
42673W        W 9214  30.664  35.919   4.367
42674W        W 9215  41.099  37.972   1.764
42675W        W 9216  27.138  26.467   1.309
42676W        W 9217   4.746  10.845   0.920
42677W        W 9218  28.872  40.330   1.345
42678W        W 9219  37.013  14.085   0.852
42679W        W 9220  26.018  12.395   3.232
42680W        W 9221  11.310   3.465   4.648
42681W        W 9222   3.298  39.281   1.039
42682W        W 9223  42.435  22.028  11.633
42683W        W 9224   7.833  10.957   2.231
42684W        W 9225  15.341  41.547   3.894
42685W        W 9226  14.347  41.865   5.002
42686W        W 9227   4.152  16.356   4.330
42687W        W 9228  34.554  20.711  13.543
42688W        W 9229  37.411   6.011   2.252
42689W        W 9230   7.274  25.766   3.664
42690W        W 9231   8.998  36.730  11.533
42691W        W 9232  10.997  41.677  10.359
42692W        W 9233   0.425  11.609  14.366
42693W        W 9234   5.629  15.359   3.182
42694W        W 9235  37.390  10.794  11.733
42695W        W 9236  37.942  38.809  13.852
42696W        W 9237  21.549  30.122   2.341
42697W        W 9238  30.950  42.774  12.417
42698W        W 9239   5.707  35.493  14.431
42699W        W 9240  17.583  25.005   3.785
42700W        W 9241  41.046  22.037   1.612
42701W        W 9242  38.139   2.672   3.722
42702W        W 9243   1.378  37.445   1.102
42703W        W 9244   9.964   2.898   3.568
42704W        W 9245  26.915  30.487  12.642
42705W        W 9246  15.017  22.156   4.299
42706W        W 9247  17.155   8.753  12.078
42707W        W 9248  31.941   2.952   1.497
42708W        W 9249  39.874  18.197  12.025
42709W        W 9250   5.600  42.691   0.813
42710W        W 9251  28.215  29.133   2.352
42711W        W 9252   1.929   4.363   0.682
42712W        W 9253  44.401   0.927  11.727
42713W        W 9254  26.241  33.412  11.567
42714W        W 9255  22.639  29.426   2.732
42715W        W 9256  15.168  20.833  11.559
42716W        W 9257   8.681  34.053  11.888
42717W        W 9258  41.025  34.654  12.084
42718W        W 9259  42.536  18.068   3.872
42719W        W 9260  33.373  27.446  11.371
42720W        W 9261  35.139  18.145  14.789
42721W        W 9262   0.941  23.752   2.774
42722W        W 9263  28.256  32.495   0.625
42723W        W 9264   0.162  29.044   1.456
42724W        W 9265  12.328  20.776  11.541
42725W        W 9266  30.494  35.552   3.267
42726W        W 9267   6.076  32.538  11.111
42727W        W 9268  33.064  26.945   0.361
42728W        W 9269  20.998  10.645   2.882
42729W        W 9270  13.198  26.029  12.406
42730W        W 9271  33.296  37.046   4.341
42731W        W 9272  40.875  15.328   1.462
42732W        W 9273   8.220  41.698  13.282
42733W        W 9274  12.529  28.821  11.376
42734W        W 9275  27.502   6.996   4.809
42735W        W 9276  38.380  13.807   2.708
42736W        W 9277   5.800  29.168  10.980
42737W        W 9278  29.355  24.586   2.693
42738W        W 9279   0.713   6.205   3.179
42739W        W 9280  21.060   1.756  12.167
42740W        W 9281  25.359  25.409   2.134
42741W        W 9282  40.520   2.920  10.747
42742W        W 9283  22.994  24.781   2.891
42743W        W 9284  35.999  38.046   0.660
42744W        W 9285  44.851   4.872   2.229
42745W        W 9286  11.071  26.323  10.933
42746W        W 9287  23.652  24.239  12.548
42747W        W 9288  24.406  25.610   0.445
42748W        W 9289   7.394   3.220  10.047
42749W        W 9290  28.521  28.863   4.844
42750W        W 9291   3.563  21.487  12.115
42751W        W 9292  41.294   7.259  12.507
42752W        W 9293  15.195   8.308  10.933
42753W        W 9294   6.992  31.124   0.296
42754W        W 9295  25.056  17.345   3.566
42755W        W 9296  30.366   4.784  13.892
42756W        W 9297   2.166  25.955  11.030
42757W        W 9298  29.483  28.608   1.393
42758W        W 9299  35.547  36.889   4.609
42759W        W 9300  18.739  40.139   3.698
42760W        W 9301  29.144   6.449  12.032
42761W        W 9302  16.192  43.288   1.479
42762W        W 9303  22.005  37.299   3.765
42763W        W 9304  16.784  35.914  10.721
42764W        W 9305  24.638  37.989   4.208
42765W        W 9306  14.746  39.032  13.094
42766W        W 9307  20.059   7.718   4.602
42767W        W 9308   6.677   5.138   2.396
42768W        W 9309  19.090  12.750   2.231
42769W        W 9310  40.881  10.614  10.336
42770W        W 9311  32.497  15.588  10.776
42771W        W 9312  23.745  26.616   5.215
42772W        W 9313   3.263  10.733   3.305
42773W        W 9314  40.806  28.912  11.850
42774W        W 9315  29.257  33.585   3.653
42775W        W 9316   4.860  37.884   2.212
42776W        W 9317   4.262  13.705  14.689
42777W        W 9318  11.701  36.386  13.765
42778W        W 9319   5.253  19.178   4.789
42779W        W 9320   6.083  42.367   4.115
42780W        W 9321  17.631   3.219   1.920
42781W        W 9322  10.781  38.896  13.745
42782W        W 9323  12.361   1.254   1.773
42783W        W 9324  18.071  26.508   0.330
42784W        W 9325  44.320  31.642   2.344
42785W        W 9326  43.078  39.619  14.345
42786W        W 9327  12.631  43.974  10.675
42787W        W 9328  15.109   5.272   4.599
42788W        W 9329  23.882  44.704  11.040
42789W        W 9330  15.873  36.948   3.774
42790W        W 9331  37.973  13.363   4.156
42791W        W 9332  41.485  31.949  14.872
42792W        W 9333  33.496  26.171  13.710
42793W        W 9334  44.487  18.170   3.226
42794W        W 9335  42.078   8.771   2.407
42795W        W 9336   0.473   9.394   3.205
42796W        W 9337   0.226   2.393   1.606
42797W        W 9338  33.714  39.029   2.863
42798W        W 9339   4.688  32.555   2.226
42799W        W 9340  19.134   1.410   4.843
42800W        W 9341  12.653  30.444  13.001
42801W        W 9342   8.512  23.741   4.684
42802W        W 9343  14.601  34.992  14.218
42803W        W 9344  42.068  14.882   1.322
42804W        W 9345  25.768  41.293  14.643
42805W        W 9346  42.994  31.906   2.571
42806W        W 9347  36.585  18.322   3.881
42807W        W 9348  34.034   1.986   2.893
42808W        W 9349  35.448  27.692  12.812
42809W        W 9350  12.079  19.819   0.971
42810W        W 9351  23.987  28.308  13.294
42811W        W 9352  38.532  38.989  11.507
42812W        W 9353   4.747   0.747  12.006
42813W        W 9354  34.596  39.022   3.887
42814W        W 9355  32.657  14.220  11.993
42815W        W 9356  33.009  11.722  10.626
42816W        W 9357  36.166  34.048  13.855
42817W        W 9358  29.977   4.988  12.874
42818W        W 9359   9.479  10.041   0.868
42819W        W 9360   5.043  12.106   1.243
42820W        W 9361  39.377   3.276   0.797
42821W        W 9362  36.497   8.427  11.430
42822W        W 9363  21.061  31.264   4.233
42823W        W 9364  36.662  10.109  14.266
42824W        W 9365  27.269  41.583   4.949
42825W        W 9366  28.159  17.842   0.926
42826W        W 9367  29.856   1.071  11.757
42827W        W 9368  35.948  12.313   4.360
42828W        W 9369  43.472  13.430   4.547
42829W        W 9370  35.905  16.192   3.533
42830W        W 9371  16.123  16.956  10.162
42831W        W 9372  19.043   3.934   2.689
42832W        W 9373  21.055  43.271   4.738
42833W        W 9374  42.873  13.853  10.651
42834W        W 9375  34.468  26.985   1.013
42835W        W 9376   4.858   5.225  14.003
42836W        W 9377  21.227   3.918   3.754
42837W        W 9378  26.233  12.307   4.643
42838W        W 9379  43.905   9.031  13.581
42839W        W 9380  28.920  10.750   4.624
42840W        W 9381   1.908  34.263  10.305
42841W        W 9382  35.874  29.862   0.764
42842W        W 9383  10.659  11.409   4.151
42843W        W 9384   0.546  22.331   3.680
42844W        W 9385  42.987  28.492   2.680
42845W        W 9386   2.418  19.608   3.705
42846W        W 9387  23.603   9.301  10.173
42847W        W 9388  15.288  44.847  12.116
42848W        W 9389  34.107   2.949   1.388
42849W        W 9390   6.612  12.877   4.260
42850W        W 9391  19.250  22.193   4.482
42851W        W 9392   2.064  25.318   4.371
42852W        W 9393  28.171   1.053  11.417
42853W        W 9394  15.763   6.590   4.987
42854W        W 9395  29.658   2.194   1.422
42855W        W 9396  31.959  11.244   0.773
42856W        W 9397  41.057   6.009   4.168
42857W        W 9398  11.271  28.935   2.270
42858W        W 9399  42.014   1.190   0.368
42859W        W 9400  34.297  33.606   1.282
42860W        W 9401   7.978   5.724   2.348
42861W        W 9402  39.897  28.607  10.665
42862W        W 9403   9.098  35.617  13.394
42863W        W 9404  13.605  35.391  12.358
42864W        W 9405  29.971  34.339  14.700
42865W        W 9406  38.948  33.649   2.625
42866W        W 9407   7.360  23.953  11.464
42867W        W 9408   9.272  35.459  12.940
42868W        W 9409  20.977  36.029   2.215
42869W        W 9410  38.638  21.578  14.365
42870W        W 9411   0.214  19.742  13.759
42871W        W 9412  17.137  10.450  10.965
42872W        W 9413   2.794  20.843  13.093
42873W        W 9414  38.587   3.119  11.530
42874W        W 9415  11.384  30.696  13.946
42875W        W 9416  43.376  41.264  12.405
42876W        W 9417  33.971  36.940   3.750
42877W        W 9418  40.978  41.449   4.892
42878W        W 9419  18.834  25.080   4.136
42879W        W 9420  37.523  37.197  13.794
42880W        W 9421  17.300  38.954   4.119
42881W        W 9422  19.198  18.201   1.897
42882W        W 9423  40.145   9.202  14.078
42883W        W 9424  41.292  20.830   2.349
42884W        W 9425  35.901  16.211   2.743
42885W        W 9426  20.789   9.643   0.398
42886W        W 9427   1.680  26.418   3.675
42887W        W 9428  35.977  43.618   1.842
42888W        W 9429  40.588   3.463   4.726
42889W        W 9430  33.803  21.086  12.638
42890W        W 9431  28.668  32.030   4.430
42891W        W 9432  11.227  38.003   0.824
42892W        W 9433  22.086  43.512   4.529
42893W        W 9434   3.241  39.405  10.581
42894W        W 9435   1.908  14.786   1.375
42895W        W 9436   1.887   4.939  13.003
42896W        W 9437  33.042  12.459   0.938
42897W        W 9438  15.667   8.694  14.965
42898W        W 9439  35.257  34.858   4.185
42899W        W 9440   0.405  44.408  10.714
42900W        W 9441  36.019  13.302  11.109
42901W        W 9442   7.337  41.681   1.778
42902W        W 9443  32.484  30.185   3.103
42903W        W 9444  37.288  30.143   2.808
42904W        W 9445  12.803   1.890   1.901
42905W        W 9446  22.921  32.590   3.772
42906W        W 9447   6.280  13.206   4.483
42907W        W 9448  43.119  21.304   4.815
42908W        W 9449   1.793  19.096  13.180
42909W        W 9450  34.561  13.198  13.321
42910W        W 9451  32.974  19.130  14.348
42911W        W 9452  21.983  34.834  13.243
42912W        W 9453   0.902  13.018   0.267
42913W        W 9454  43.471  18.999   0.525
42914W        W 9455  17.824   4.025  12.696
42915W        W 9456  38.000  24.876   1.679
42916W        W 9457  40.983  27.572   4.264
42917W        W 9458   5.749  30.662  14.025
42918W        W 9459  39.357  19.951   4.333
42919W        W 9460  12.558  19.728  11.852
42920W        W 9461  12.282  24.485   0.856
42921W        W 9462  16.745  12.550   2.911
42922W        W 9463  25.676   0.746   3.475
42923W        W 9464  10.855  23.244   1.311
42924W        W 9465  33.351  14.677  13.123
42925W        W 9466  17.047  40.329  11.458
42926W        W 9467   2.704   5.269   3.299
42927W        W 9468  30.613  30.569  13.566
42928W        W 9469  31.035   8.861  10.791
42929W        W 9470  16.677  30.703  11.592
42930W        W 9471   2.722  44.490   1.417
42931W        W 9472  31.764  28.950  11.952
42932W        W 9473  43.823  41.144  14.599
42933W        W 9474   2.779  13.034   1.637
42934W        W 9475   2.296  13.888   4.126
42935W        W 9476  24.531   4.471  14.265
42936W        W 9477  33.083   3.276  13.713
42937W        W 9478   4.447  33.911  11.671
42938W        W 9479  36.292  18.851   2.870
42939W        W 9480  25.480   2.028  12.539
42940W        W 9481  34.942  12.747  14.673
42941W        W 9482  33.597  37.609   5.042
42942W        W 9483  40.018  28.414  11.118
42943W        W 9484  19.880  39.044   1.856
42944W        W 9485  38.834  36.437   0.750
42945W        W 9486   2.884  29.602   2.203
42946W        W 9487  43.315   9.740   0.929
42947W        W 9488   7.963   1.333  13.950
42948W        W 9489   9.323  17.866  14.944
42949W        W 9490   8.649  28.979  14.331
42950W        W 9491  43.242  27.024  14.887
42951W        W 9492  38.500  26.187  10.453
42952W        W 9493  36.557   6.886  11.480
42953W        W 9494  34.575  36.042  11.152
42954W        W 9495  10.987  37.062  11.567
42955W        W 9496  41.810  21.764   4.605
42956W        W 9497  27.884  24.517   3.208
42957W        W 9498   4.296  20.769  12.170
42958W        W 9499  36.143  37.869   3.239
42959W        W 9500  21.745  34.948  11.465
42960W        W 9501  34.621  35.559   3.202
42961W        W 9502  18.763  11.735  14.856
42962W        W 9503  10.859  29.708  13.877
42963W        W 9504  24.128  33.978  10.308
42964W        W 9505  17.630  37.041   4.591
42965W        W 9506  10.682  12.874  14.888
42966W        W 9507  32.427   3.186   1.886
42967W        W 9508  42.711  11.867  11.531
42968W        W 9509  23.390  12.577  14.031
42969W        W 9510   3.709  15.791  14.509
42970W        W 9511   0.756   0.762   1.813
42971W        W 9512  38.343   6.393   3.917
42972W        W 9513   2.435  31.972   2.762
42973W        W 9514  36.381  11.596  12.471
42974W        W 9515  31.639  28.226  12.645
42975W        W 9516  29.130  25.970  13.499
42976W        W 9517  36.550  30.315  10.331
42977W        W 9518  15.644  39.742  14.060
42978W        W 9519   9.600   9.219  12.593
42979W        W 9520  31.070   9.634   3.895
42980W        W 9521  30.890  38.967  12.978
42981W        W 9522   7.114  40.979  14.510
42982W        W 9523  14.443  22.041  12.050
42983W        W 9524  26.668   0.269   1.422
42984W        W 9525  27.054  20.613  13.404
42985W        W 9526  15.168  22.407  10.681
42986W        W 9527  29.722  32.595  13.387
42987W        W 9528   4.949  22.718  11.983
42988W        W 9529   4.807  43.457  10.631
42989W        W 9530   9.087  30.155   2.858
42990W        W 9531  30.968  26.722  12.798
42991W        W 9532  25.178   7.194   1.178
42992W        W 9533  13.671  10.258   2.761
42993W        W 9534   3.718   3.454   4.535
42994W        W 9535  17.787  19.792   0.212
42995W        W 9536  43.383   4.183   0.417
42996W        W 9537  43.777  10.569   1.410
42997W        W 9538  16.686  20.737   2.650
42998W        W 9539  34.328   3.557   4.115
42999W        W 9540  19.837  34.497  10.708
43000W        W 9541   5.477  42.958  14.944
43001W        W 9542   4.109  26.718   3.257
43002W        W 9543  30.479  22.816   2.861
43003W        W 9544  43.309  21.609   3.646
43004W        W 9545  44.029  18.220   1.042
43005W        W 9546   6.917  15.735   3.173
43006W        W 9547  42.941  40.976  12.347
43007W        W 9548  41.639  40.771  14.318
43008W        W 9549  39.635  10.357  13.518
43009W        W 9550  26.457  35.522   2.831
43010W        W 9551  22.211  22.087  12.847
43011W        W 9552  21.185   1.400  12.526
43012W        W 9553  39.628  27.236   0.262
43013W        W 9554  22.281  20.952  14.782
43014W        W 9555  11.284  16.141   0.491
43015W        W 9556  38.296   5.202   1.802
43016W        W 9557  13.049  40.697   5.160
43017W        W 9558  23.789  37.266   0.260
43018W        W 9559  43.492  28.741   1.625
43019W        W 9560  23.962   5.379   2.283
43020W        W 9561  19.601  17.164  11.200
43021W        W 9562  28.060  35.762   4.980
43022W        W 9563  25.452   8.406   0.721
43023W        W 9564   7.373  25.184   4.238
43024W        W 9565   3.860  16.614  13.477
43025W        W 9566  17.146  25.983   3.025
43026W        W 9567  19.654  36.019  10.794
43027W        W 9568  40.945  20.425  11.988
43028W        W 9569  23.957  25.143  12.190
43029W        W 9570  41.007   5.538   2.193
43030W        W 9571  21.611  23.211  13.483
43031W        W 9572  14.416  33.098  13.550
43032W        W 9573  15.225  42.292   0.308
43033W        W 9574  41.423  31.889  10.747
43034W        W 9575   9.614  27.061  11.059
43035W        W 9576  44.663  43.175  10.315
43036W        W 9577  14.555  13.982  10.649
43037W        W 9578  36.554   1.362  12.489
43038W        W 9579  18.124  11.222   0.734
43039W        W 9580  12.895   2.791   2.952
43040W        W 9581  36.338   7.270  14.722
43041W        W 9582  22.396  19.039  11.624
43042W        W 9583  10.571  43.676   4.590
43043W        W 9584  31.712  19.222  11.371
43044W        W 9585  24.110  11.276   2.482
43045W        W 9586  38.984  23.612   1.307
43046W        W 9587   5.535   9.795   1.269
43047W        W 9588   5.744  32.881  14.010
43048W        W 9589  28.210  42.587  12.298
43049W        W 9590  39.709  37.356   3.663
43050W        W 9591  11.512  44.410   4.913
43051W        W 9592  29.701  20.727  10.576
43052W        W 9593   5.105  35.909   3.698
43053W        W 9594  15.273   1.287   4.969
43054W        W 9595  32.227  37.874  14.491
43055W        W 9596  19.619   7.679   0.818
43056W        W 9597  28.636  20.152  13.817
43057W        W 9598   2.347  44.466  11.046
43058W        W 9599  40.436  38.761   2.813
43059W        W 9600  30.061  35.362  13.445
43060W        W 9601  27.584  31.128   4.327
43061W        W 9602   8.097  43.695   4.735
43062W        W 9603  42.412  13.394  11.670
43063W        W 9604   8.594  34.392  11.321
43064W        W 9605  24.425  23.240  13.422
43065W        W 9606  28.695  39.312  10.674
43066W        W 9607  31.049  44.855   1.916
43067W        W 9608  19.246   8.530   1.943
43068W        W 9609  15.281  19.946   0.992
43069W        W 9610  22.229  21.537  11.894
43070W        W 9611  42.348  25.414   2.410
43071W        W 9612  11.776  16.061  11.005
43072W        W 9613  42.931  15.468  12.018
43073W        W 9614  36.886  34.801  12.985
43074W        W 9615  32.417  26.576   5.150
43075W        W 9616  38.391  31.948   1.408
43076W        W 9617   7.973  35.278  13.834
43077W        W 9618   7.681  29.524   0.006
43078W        W 9619  10.426  17.281   2.266
43079W        W 9620  22.033  17.901   3.276
43080W        W 9621  32.146  22.906   1.271
43081W        W 9622  42.125   3.729  10.518
43082W        W 9623   9.583  15.845   4.535
43083W        W 9624   5.419  27.683  14.418
43084W        W 9625  12.135  10.277  12.708
43085W        W 9626  25.269  10.648   1.368
43086W        W 9627   0.040   5.088   1.187
43087W        W 9628   7.618  38.439  12.545
43088W        W 9629  41.433  27.622   3.320
43089W        W 9630  41.277  31.588  11.141
43090W        W 9631  30.613  28.387   3.774
43091W        W 9632  16.493  19.095  14.379
43092W        W 9633  11.557  15.706   3.230
43093W        W 9634   6.035   7.485   4.130
43094W        W 9635  20.931  27.600   2.326
43095W        W 9636  43.362   5.250  13.890
43096W        W 9637  16.135  26.477   4.117
43097W        W 9638  42.392  36.451   4.823
43098W        W 9639   2.792  40.582   2.387
43099W        W 9640  24.195  29.588   2.688
43100W        W 9641  36.778  31.855   1.953
43101W        W 9642  14.604  30.442   1.290
43102W        W 9643  34.379   0.821   4.088
43103W        W 9644  16.513  44.391  13.133
43104W        W 9645  44.996  27.053   4.573
43105W        W 9646   0.558   6.888   1.464
43106W        W 9647  28.173  20.299   4.451
43107W        W 9648  44.174   1.662   2.142
43108W        W 9649  14.803  29.525   1.894
43109W        W 9650  41.607   3.270   1.738
43110W        W 9651   5.689  28.078   5.092
43111W        W 9652  11.193   0.073  11.131
43112W        W 9653  39.061  22.063   2.481
43113W        W 9654  32.979   9.059  14.421
43114W        W 9655  13.063  34.551  13.396
43115W        W 9656  18.681  42.649   1.908
43116W        W 9657  21.384  33.461   0.377
43117W        W 9658  22.502   5.674  10.746
43118W        W 9659  15.738  39.664  10.314
43119W        W 9660  20.052  11.190  14.004
43120W        W 9661  17.575  13.078  12.364
43121W        W 9662  18.461  37.590   2.394
43122W        W 9663  37.654  38.658   4.441
43123W        W 9664  12.213  29.910   3.935
43124W        W 9665   9.176  13.817  13.094
43125W        W 9666  21.493   6.501  14.844
43126W        W 9667  18.803  42.780   4.441
43127W        W 9668   5.440  44.044  11.555
43128W        W 9669  18.608  44.301  10.798
43129W        W 9670  15.133  33.871   4.630
43130W        W 9671  33.993  22.091   4.610
43131W        W 9672  18.673  18.087   5.246
43132W        W 9673  34.428  31.820   1.932
43133W        W 9674  41.531  33.606  11.938
43134W        W 9675  22.709  20.705  14.889
43135W        W 9676  12.590  43.037   2.299
43136W        W 9677  16.251  33.949  11.968
43137W        W 9678  13.390  16.093   3.339
43138W        W 9679  29.252  44.461  13.887
43139W        W 9680  35.134  23.072   3.306
43140W        W 9681  44.965  17.283   0.375
43141W        W 9682   5.183   7.420  11.103
43142W        W 9683  16.980  28.104   4.475
43143W        W 9684  15.648  35.129  11.982
43144W        W 9685  44.350   9.368  11.484
43145W        W 9686  15.921   2.970   1.219
43146W        W 9687   1.079  35.606  10.752
43147W        W 9688  40.245  14.107  13.610
43148W        W 9689  36.307  13.757  14.419
43149W        W 9690   2.406  27.855   0.943
43150W        W 9691  42.280  32.491   3.669
43151W        W 9692  20.385  24.673   4.501
43152W        W 9693  19.174  41.564  10.786
43153W        W 9694  27.360   6.496  12.151
43154W        W 9695   4.202  22.767  14.052
43155W        W 9696  19.577  42.031   1.838
43156W        W 9697  41.030  30.920  13.033
43157W        W 9698  39.573  42.898  14.398
43158W        W 9699  27.441  18.286  12.983
43159W        W 9700  31.815   9.592   5.434
43160W        W 9701   6.991  33.140  14.881
43161W        W 9702  10.651  14.207   5.129
43162W        W 9703  13.198  37.502  12.879
43163W        W 9704  43.011  13.140   1.754
43164W        W 9705  14.056  31.235  11.787
43165W        W 9706  11.246  11.939   0.036
43166W        W 9707  25.089   5.491  12.137
43167W        W 9708   3.926  30.659   4.200
43168W        W 9709   0.386  16.128   2.207
43169W        W 9710  40.012  13.371   2.139
43170W        W 9711  32.885  35.938   2.699
43171W        W 9712  20.316  34.937  14.336
43172W        W 9713  40.533  12.611  14.395
43173W        W 9714  25.361  19.057  11.581
43174W        W 9715  29.169   1.796   4.123
43175W        W 9716  26.110   1.116   0.427
43176W        W 9717  21.681  18.125  13.190
43177W        W 9718  23.101  11.416  11.926
43178W        W 9719  14.062  36.042  11.672
43179W        W 9720  19.592  33.504  12.816
43180W        W 9721  31.092   4.535  11.997
43181W        W 9722  12.774  34.263   0.414
43182W        W 9723  37.416  30.969  10.711
43183W        W 9724  22.836  43.151   4.171
43184W        W 9725  34.990  10.405  11.300
43185W        W 9726  29.091  16.841   4.130
43186W        W 9727  24.905  24.134   1.358
43187W        W 9728  35.060  34.576   5.075
43188W        W 9729  41.296  15.192   0.684
43189W        W 9730   6.412  43.291   0.978
43190W        W 9731  10.939  24.078   1.945
43191W        W 9732  16.589  44.042   2.131
43192W        W 9733  17.992  17.705  11.456
43193W        W 9734  25.204  28.094   4.371
43194W        W 9735  12.345  32.934  10.560
43195W        W 9736  20.625  37.494  13.907
43196W        W 9737   3.686  33.984  12.009
43197W        W 9738  39.918  10.878   0.815
43198W        W 9739  10.667   2.106   2.879
43199W        W 9740  30.051  25.779   0.911
43200W        W 9741  19.654  43.439  10.704
43201W        W 9742   0.859  28.676   3.321
43202W        W 9743  44.431  31.872   1.884
43203W        W 9744   1.227  14.124   1.434
43204W        W 9745  19.054  16.392  10.334
43205W        W 9746  23.624  27.067  12.355
43206W        W 9747  33.616   8.497   3.219
43207W        W 9748  36.438  33.052   3.559
43208W        W 9749  33.910   6.380  13.406
43209W        W 9750   3.311  29.880   2.171
43210W        W 9751  17.261  21.063   3.699
43211W        W 9752  18.234  14.567  12.489
43212W        W 9753  30.934   1.960  13.904
43213W        W 9754  17.510  26.577  11.095
43214W        W 9755  36.004  15.710   3.664
43215W        W 9756  37.497  24.142   0.260
43216W        W 9757   8.767  23.523   0.817
43217W        W 9758  12.243  41.760   0.853
43218W        W 9759  41.790  14.235  14.338
43219W        W 9760   9.376   2.441   4.743
43220W        W 9761  13.857   7.737  11.639
43221W        W 9762  13.458  22.515  11.503
43222W        W 9763   5.308  16.327   0.863
43223W        W 9764  15.584   4.129   3.127
43224W        W 9765   6.777   8.247   4.347
43225W        W 9766   3.538  25.450   2.325
43226W        W 9767  18.217   2.334   0.554
43227W        W 9768  24.586  14.574   2.691
43228W        W 9769  14.563   2.678  14.969
43229W        W 9770   6.179  19.427  13.716
43230W        W 9771  17.415  27.415   1.652
43231W        W 9772  40.382   9.219  11.372
43232W        W 9773   8.656  21.516  13.844
43233W        W 9774  10.597  13.714  12.100
43234W        W 9775  22.366  21.593   2.321
43235W        W 9776  15.939  15.773  11.926
43236W        W 9777  26.625  40.855   0.171
43237W        W 9778  44.724   4.427  13.746
43238W        W 9779  40.774   0.366   1.763
43239W        W 9780  44.577  14.587  11.091
43240W        W 9781  38.597  35.196  13.347
43241W        W 9782   8.939  22.631   1.004
43242W        W 9783  27.755  10.021  12.128
43243W        W 9784   8.138  22.608   2.736
43244W        W 9785  40.119  20.508   2.524
43245W        W 9786  35.333  24.174  13.932
43246W        W 9787  44.074  14.752   4.613
43247W        W 9788   1.781  31.916  14.905
43248W        W 9789  25.013  24.913   2.883
43249W        W 9790  26.986  23.268   2.191
43250W        W 9791  24.694  15.019   2.951
43251W        W 9792  35.905  30.703   4.897
43252W        W 9793  24.894  42.327   4.636
43253W        W 9794  10.794  11.394  13.324
43254W        W 9795  41.311  18.359   2.282
43255W        W 9796  16.556  37.826   3.318
43256W        W 9797   4.015  38.151   1.912
43257W        W 9798   2.000  40.731  12.502
43258W        W 9799  43.669  17.764   4.284
43259W        W 9800  41.316  33.521   1.812
43260W        W 9801  25.478  37.108   2.913
43261W        W 9802  17.844  16.079   0.492
43262W        W 9803   1.767  16.682   4.179
43263W        W 9804   2.777  43.962   0.768
43264W        W 9805  11.254  39.345   0.367
43265W        W 9806   5.334  17.239  14.154
43266W        W 9807  11.585   3.694  13.467
43267W        W 9808  18.301  19.005   2.352
43268W        W 9809  24.476   2.235  12.523
43269W        W 9810  24.501   0.041   2.820
43270W        W 9811  34.510  12.783   2.395
43271W        W 9812  25.143  39.846   4.394
43272W        W 9813  40.796  23.983  11.907
43273W        W 9814  23.437  25.425   0.508
43274W        W 9815  13.235  17.572   4.027
43275W        W 9816  33.810  29.882   1.381
43276W        W 9817   0.825  40.959   0.676
43277W        W 9818   0.853  29.947   3.323
43278W        W 9819  21.237  14.264   1.394
43279W        W 9820  27.929  27.559  13.384
43280W        W 9821  34.891  37.393  14.026
43281W        W 9822   0.300  23.578  11.711
43282W        W 9823  40.272  11.199  10.765
43283W        W 9824   2.466  23.648   3.505
43284W        W 9825  44.450  15.315   1.131
43285W        W 9826  20.365  38.436   2.407
43286W        W 9827  12.141  35.112   0.493
43287W        W 9828  44.901  43.764  14.610
43288W        W 9829  33.918   3.214  12.584
43289W        W 9830  38.710  32.878   3.348
43290W        W 9831  14.556  11.527  14.495
43291W        W 9832  39.357  19.420   1.794
43292W        W 9833   2.631  43.262   4.192
43293W        W 9834   9.228   3.982  14.881
43294W        W 9835  38.006  13.783  13.988
43295W        W 9836  20.368  27.359   2.735
43296W        W 9837  21.654   5.571  12.621
43297W        W 9838   6.164   8.831   2.849
43298W        W 9839  30.437   9.930   0.669
43299W        W 9840  17.724  37.721   1.438
43300W        W 9841  22.905  13.285   0.903
43301W        W 9842  12.580  37.990  13.036
43302W        W 9843   5.174  12.131   2.186
43303W        W 9844  24.034  27.947   1.024
43304W        W 9845  25.727  17.210   1.383
43305W        W 9846  31.574   4.376  14.999
43306W        W 9847  21.563  17.565   2.145
43307W        W 9848  38.377  13.847  14.364
43308W        W 9849  15.907   7.068   4.924
43309W        W 9850  35.162  35.602  10.573
43310W        W 9851   3.408  35.694   3.280
43311W        W 9852  36.060  16.493   4.921
43312W        W 9853  22.567  36.687   4.503
43313W        W 9854  22.558  20.685   4.789
43314W        W 9855  15.342  31.526  14.242
43315W        W 9856  40.854   1.944  12.584
43316W        W 9857  43.443  26.859   0.333
43317W        W 9858   7.302  40.330  13.535
43318W        W 9859   5.269  42.900  12.434
43319W        W 9860  18.134  30.510  11.730
43320W        W 9861  14.706  17.359   2.844
43321W        W 9862  16.263  42.039  12.153
43322W        W 9863  15.904  35.123   3.432
43323W        W 9864   7.457  27.531   1.504
43324W        W 9865   2.712  24.102   4.889
43325W        W 9866  39.487  34.725  12.415
43326W        W 9867   7.182  29.078   3.236
43327W        W 9868  13.372  44.976  14.482
43328W        W 9869  18.665   4.345   1.954
43329W        W 9870  37.368  40.553   5.028
43330W        W 9871   4.206   3.806   0.812
43331W        W 9872  12.331  38.551   1.041
43332W        W 9873  38.111  11.304   0.643
43333W        W 9874  44.303  39.671  10.034
43334W        W 9875  42.028   9.819   1.330
43335W        W 9876  35.682  28.954   4.035
43336W        W 9877   8.980  10.021  12.193
43337W        W 9878  21.554  20.833   0.016
43338W        W 9879  19.345  44.358   1.816
43339W        W 9880  25.843  14.997  11.607
43340W        W 9881  20.970   1.206   3.310
43341W        W 9882  31.720  26.997  10.652
43342W        W 9883  16.355  21.715   4.507
43343W        W 9884   0.944   7.094  10.894
43344W        W 9885  29.659  33.890   2.232
43345W        W 9886   8.483  37.951   4.527
43346W        W 9887   0.317  27.002   0.873
43347W        W 9888  24.697  39.807   1.079
43348W        W 9889  15.149  27.555   2.689
43349W        W 9890  24.699  43.226   0.047
43350W        W 9891  14.736  38.445   2.721
43351W        W 9892  31.091  41.130   1.903
43352W        W 9893  16.240   2.701  12.326
43353W        W 9894   9.641  16.306   2.747
43354W        W 9895  34.958  44.944  14.886
43355W        W 9896  37.836  20.813   2.211
43356W        W 9897   5.883  34.637  12.462
43357W        W 9898   6.242  37.409  10.513
43358W        W 9899  22.071  40.702  14.357
43359W        W 9900  43.094  35.368  11.167
43360W        W 9901  28.592  33.650   4.781
43361W        W 9902  11.698   8.225  13.651
43362W        W 9903  29.440  24.499   1.834
43363W        W 9904  42.853  10.357   2.276
43364W        W 9905  40.810  13.566  11.682
43365W        W 9906   2.831  37.531   3.301
43366W        W 9907  38.365   1.636  11.485
43367W        W 9908   8.746  36.324  14.034
43368W        W 9909  13.600  34.561  13.406
43369W        W 9910  30.944  11.238  12.374
43370W        W 9911  17.844  24.179   3.332
43371W        W 9912   9.678  38.793  14.908
43372W        W 9913  29.632  44.019  12.980
43373W        W 9914  25.259  24.684   3.275
43374W        W 9915  21.681  32.264   4.934
43375W        W 9916   1.152   3.248   1.845
43376W        W 9917   8.078   1.908  14.982
43377W        W 9918  18.196  20.586   2.052
43378W        W 9919  33.068  15.368  12.265
43379W        W 9920  36.768  14.346  12.150
43380W        W 9921  23.353   3.565  12.301
43381W        W 9922  20.110  17.068  13.914
43382W        W 9923  39.809  34.554   3.217
43383W        W 9924   0.893  39.800  13.627
43384W        W 9925   2.461  22.117  10.939
43385W        W 9926  40.276  33.455  14.019
43386W        W 9927  24.095   9.124  10.113
43387W        W 9928   3.085   5.655   3.315
43388W        W 9929   6.120  16.833  11.369
43389W        W 9930   7.839  24.678  14.357
43390W        W 9931  37.504  17.918   2.126
43391W        W 9932  23.616  27.806  12.646
43392W        W 9933  11.357  28.432   2.200
43393W        W 9934  19.122  39.865   1.996
43394W        W 9935  34.943  44.496  10.688
43395W        W 9936   6.899  19.588   1.472
43396W        W 9937  36.432  33.357  12.809
43397W        W 9938  15.740   8.304   4.582
43398W        W 9939  14.564   1.912  14.564
43399W        W 9940  43.461  16.096  14.392
43400W        W 9941  38.735  43.905  12.576
43401W        W 9942   4.457  26.478  12.982
43402W        W 9943  40.864   9.133  11.600
43403W        W 9944  13.777  24.564   4.051
43404W        W 9945  19.669  38.450  11.009
43405W        W 9946  31.905  38.530   4.904
43406W        W 9947  25.661  40.634  13.166
43407W        W 9948  31.781  41.956   4.156
43408W        W 9949  38.887  29.596   4.109
43409W        W 9950  43.347  25.165  11.466
43410W        W 9951  19.810  33.265   3.105
43411W        W 9952  29.975   0.936  14.802
43412W        W 9953   0.702  19.153  10.686
43413W        W 9954  20.622  29.774  14.881
43414W        W 9955  21.607  11.986   5.001
43415W        W 9956  22.209  27.651   1.261
43416W        W 9957  13.629  32.580   2.376
43417W        W 9958  32.090  42.034  13.345
43418W        W 9959  30.679  11.586  12.087
43419W        W 9960  31.016  27.426   3.743
43420W        W 9961  25.377  27.013   4.349
43421W        W 9962  44.964  19.726   0.004
43422W        W 9963  28.979  42.837  12.791
43423W        W 9964  42.408   6.976   3.691
43424W        W 9965  12.118  19.627   4.862
43425W        W 9966  33.223  28.014  13.101
43426W        W 9967  22.835  33.432  10.999
43427W        W 9968  13.116   8.501  13.359
43428W        W 9969  15.823  41.946  13.994
43429W        W 9970  13.586   9.895   3.644
43430W        W 9971   8.365  15.176   3.040
43431W        W 9972  36.537   7.824  14.036
43432W        W 9973  39.928   4.168  14.289
43433W        W 9974  30.618  17.103  10.710
43434W        W 9975  28.659  38.818  14.106
43435W        W 9976  37.287  11.396  12.412
43436W        W 9977   6.282  21.622  11.130
43437W        W 9978  24.640  16.228  14.962
43438W        W 9979  25.037  43.601   2.789
43439W        W 9980   1.139  17.576   1.652
43440W        W 9981  16.256  24.630  10.826
43441W        W 9982  38.989  27.193  13.503
43442W        W 9983  22.543   5.336   1.317
43443W        W 9984  17.023  11.779  13.055
43444W        W 9985   1.781  40.991   1.096
43445W        W 9986   5.931  36.462   3.140
43446W        W 9987  39.015  12.760   4.572
43447W        W 9988  31.658  24.932   0.528
43448W        W 9989   6.834  12.727   3.815
43449W        W 9990  32.275   1.697  12.609
43450W        W 9991   1.334  16.069  13.839
43451W        W 9992  30.341  28.979  13.472
43452W        W 9993   8.152  34.152   2.133
43453W        W 9994   8.583  18.710  10.694
43454W        W 9995   2.643  22.479   0.546
43455W        W 9996  20.620  37.143   0.353
43456W        W 9997  43.538  23.015   2.158
43457W        W 9998  36.101  44.380  12.094
43458W        W 9999  36.868  31.555   4.627
43459W        W10000   8.744  44.405   1.948
43460W        W10001  39.778  35.424  10.718
43461W        W10002  22.115   8.057  13.199
43462W        W10003   4.076  40.559  10.695
43463W        W10004  21.265  37.351   1.204
43464W        W10005   4.154  29.510   2.909
43465W        W10006  14.360  38.830  10.666
43466W        W10007  30.767   7.141  11.932
43467W        W10008  14.652   9.105  12.949
43468W        W10009  26.115   6.237  10.506
43469W        W10010   4.748  18.024  11.258
43470W        W10011  14.202  10.408  13.078
43471W        W10012  41.832   8.390  11.221
43472W        W10013  38.904   5.717  12.062
43473W        W10014  15.672  33.020   2.223
43474W        W10015   9.600  28.478   0.002
43475W        W10016  18.684   2.405  11.725
43476W        W10017  25.417  34.680   4.750
43477W        W10018  34.571  35.146  11.920
43478W        W10019  11.868  27.902  10.337
43479W        W10020  22.091  37.851   2.758
43480W        W10021  24.543  37.504  11.264
43481W        W10022  24.514   1.690  13.686
43482W        W10023  36.787  35.353  11.284
43483W        W10024  39.594   5.265   4.620
43484W        W10025  16.149  23.460   0.011
43485W        W10026  14.854  19.976   3.598
43486W        W10027  37.885  43.654  13.182
43487W        W10028  24.668  42.598  13.343
43488W        W10029   6.331   9.257  12.985
43489W        W10030   2.360  22.267  11.416
43490W        W10031  39.258  41.946   1.267
43491W        W10032  16.212   3.776   3.724
43492W        W10033  17.099   6.533  12.132
43493W        W10034  29.488  11.525  11.712
43494W        W10035  25.675   1.387  13.947
43495W        W10036  13.201  31.045   2.861
43496W        W10037  22.166  11.672   1.848
43497W        W10038  43.351   1.554  13.022
43498W        W10039  14.193  15.216  10.295
43499W        W10040   9.286   6.024   3.336
43500W        W10041  33.473  16.570   2.490
43501W        W10042  22.959  28.097  10.638
43502W        W10043  39.958  44.480  14.772
43503W        W10044   6.148  31.297  14.199
43504W        W10045  13.894  18.723   0.331
43505W        W10046  21.210  39.287   1.669
43506W        W10047  39.142   8.669  10.194
43507W        W10048  17.784   2.011   4.029
43508W        W10049  40.512  29.609  13.366
43509W        W10050  34.217  28.116  11.066
43510W        W10051  24.688  28.498  11.922
43511W        W10052  11.651   6.678   2.280
43512W        W10053  42.939  20.678   0.988
43513W        W10054  18.026   7.657  11.940
43514W        W10055   1.479  13.147   4.291
43515W        W10056   5.267  18.270   2.225
43516W        W10057   0.776  35.321   4.092
43517W        W10058  43.834   2.676  14.333
43518W        W10059  26.592  43.608  10.480
43519W        W10060  35.077  22.267  14.676
43520W        W10061  29.056   8.619   3.468
43521W        W10062  12.590  19.750   0.938
43522W        W10063  15.530  29.133   3.324
43523W        W10064  42.822  34.968  13.373
43524W        W10065   3.367  22.270  13.284
43525W        W10066  12.933  34.656   4.189
43526W        W10067  16.611  42.764   3.719
43527W        W10068   7.696  19.718  11.547
43528W        W10069   8.892  34.077   4.075
43529W        W10070  31.185  19.290  11.488
43530W        W10071  13.799  28.665  11.153
43531W        W10072  22.060  35.465  10.635
43532W        W10073  23.803  43.136  14.905
43533W        W10074   5.250  14.560  14.752
43534W        W10075  22.961  43.790   1.613
43535W        W10076  20.259  39.543   3.266
43536W        W10077  17.973  29.173  13.091
43537W        W10078   0.379  41.827  12.403
43538W        W10079   9.199  20.176   1.388
43539W        W10080  13.134   5.464  12.008
43540W        W10081  16.208   6.444   0.856
43541W        W10082   5.614  10.196   0.009
43542W        W10083  25.698  29.759   1.395
43543W        W10084  24.819   9.658  10.793
43544W        W10085  15.673  43.259   2.348
43545W        W10086   7.737  11.821   1.132
43546W        W10087  28.638   0.294  11.570
43547W        W10088  21.834  21.273  12.078
43548W        W10089  13.107   5.102   2.775
43549W        W10090  37.952   5.745  12.294
43550W        W10091  42.163  27.735  12.847
43551W        W10092  11.122  23.622   2.180
43552W        W10093  10.928   1.703  14.547
43553W        W10094  26.753  28.982  10.061
43554W        W10095  19.260  35.497   0.889
43555W        W10096  11.095  17.569   3.138
43556W        W10097   8.464  38.051  12.830
43557W        W10098  14.209   4.767   0.811
43558W        W10099  28.050  20.515  13.458
43559W        W10100  33.667  20.956   3.613
43560W        W10101  40.431   3.934   0.328
43561W        W10102  32.108   6.818   4.765
43562W        W10103  35.823  17.982   2.825
43563W        W10104  29.159   1.361   2.388
43564W        W10105  35.006  33.885   3.934
43565W        W10106  41.994   9.193   4.019
43566W        W10107  44.749  14.527   3.726
43567W        W10108  26.166  15.593   1.302
43568W        W10109  20.498   9.836  13.939
43569W        W10110   2.416  39.727  11.821
43570W        W10111   0.514  26.055   2.762
43571W        W10112  27.419   9.534  10.394
43572W        W10113  38.146  30.674   0.897
43573W        W10114  30.911  44.330   1.249
43574W        W10115  29.615   9.285   1.015
43575W        W10116  33.120   5.777   0.150
43576W        W10117   7.128  43.008   2.577
43577W        W10118  23.149  21.115   4.775
43578W        W10119  37.156   3.389  10.178
43579W        W10120  21.486  43.621  13.939
43580W        W10121  19.948   5.846  10.185
43581W        W10122   7.367   9.488  12.560
43582W        W10123  33.105  31.264   0.999
43583W        W10124  40.877  19.777  13.469
43584W        W10125  14.145  42.218  14.621
43585W        W10126  35.532  42.500   2.221
43586W        W10127  40.501  44.457  13.421
43587W        W10128  38.607  33.381   1.341
43588W        W10129  32.626  14.018   4.947
43589W        W10130  42.833  25.195   2.457
43590W        W10131  30.477  39.991  11.638
43591W        W10132  42.906  13.214   2.743
43592W        W10133  43.297  18.070   0.481
43593W        W10134  36.832  26.715  13.409
43594W        W10135  16.818  39.562   0.512
43595W        W10136   7.399  40.545   4.195
43596W        W10137  20.108  21.781  13.439
43597W        W10138  10.650  32.414  13.578
43598W        W10139  16.577  17.464  14.757
43599W        W10140  34.924   8.129  12.891
43600W        W10141  35.187  33.598  12.339
43601W        W10142  25.517  30.865  13.230
43602W        W10143  31.477  12.305  14.574
43603W        W10144  27.103  25.988   2.150
43604W        W10145   1.361  15.835  12.154
43605W        W10146  16.738  19.706  10.652
43606W        W10147  34.966  24.507   1.085
43607W        W10148   2.495  18.506  12.190
43608W        W10149  35.889  13.969   4.786
43609W        W10150  12.363  28.417   4.010
43610W        W10151  34.364   8.823   0.248
43611W        W10152  10.261   0.269   3.742
43612W        W10153   5.945  27.286   4.033
43613W        W10154  42.743   4.699  12.619
43614W        W10155  21.895  24.595   5.349
43615W        W10156  25.204   3.233   3.949
43616W        W10157  38.371  24.708  10.902
43617W        W10158  23.600  18.625  10.734
43618W        W10159   4.285  25.144   1.629
43619W        W10160  15.153  15.664   4.054
43620W        W10161  27.022   4.647  14.550
43621W        W10162   6.390  28.800  14.249
43622W        W10163  25.720  31.448   1.765
43623W        W10164   5.241  11.109  14.787
43624W        W10165   7.398  21.605   2.756
43625W        W10166  14.800  20.462  14.311
43626W        W10167   1.179  30.479   0.911
43627W        W10168  33.632  10.935   4.888
43628W        W10169  29.944  40.379   4.586
43629W        W10170  40.812  28.913  14.388
43630W        W10171  44.483  14.719   3.271
43631W        W10172  16.602  31.528  13.449
43632W        W10173  24.987  22.564  14.346
43633W        W10174  12.613  25.549   2.308
43634W        W10175   7.192   1.937  11.259
43635W        W10176  38.970   0.724  13.488
43636W        W10177   8.201  44.854  14.459
43637W        W10178  22.139   4.133  14.682
43638W        W10179  10.141   9.642   3.160
43639W        W10180  30.623   7.661   1.430
43640W        W10181  37.064   5.530   4.369
43641W        W10182   7.149  44.995   2.113
43642W        W10183  21.471  17.327   0.035
43643W        W10184   8.371  20.165  11.952
43644W        W10185  16.938  13.558  12.406
43645W        W10186  16.813  19.029  13.479
43646W        W10187  38.368   6.825   2.583
43647W        W10188   8.736  19.282  10.714
43648W        W10189  32.095  20.421  14.877
43649W        W10190  22.275  24.577  13.558
43650W        W10191  34.431  10.549   4.920
43651W        W10192  30.510  29.130  14.906
43652W        W10193  32.858  38.623  13.486
43653W        W10194  24.786   3.467   1.366
43654W        W10195  21.506  35.926  10.990
43655W        W10196  38.079  17.273  11.941
43656W        W10197   5.654  38.387  10.631
43657W        W10198   8.716  32.004  14.736
43658W        W10199  14.646  35.958   3.774
43659W        W10200   9.658  16.794  11.370
43660W        W10201   0.296   0.978  11.993
43661W        W10202  28.501  25.548   4.588
43662W        W10203   7.289  39.603  14.822
43663W        W10204  19.097  31.737  12.115
43664W        W10205  11.283  23.474   2.685
43665W        W10206  36.830  15.612  14.681
43666W        W10207   4.346   6.825  13.282
43667W        W10208  37.526  22.226  11.601
43668W        W10209   9.939  23.653  14.784
43669W        W10210  29.427  41.321   1.181
43670W        W10211  28.308  35.622  10.506
43671W        W10212   8.704  21.211   2.696
43672W        W10213   0.197  33.723  12.803
43673W        W10214  22.172  32.159  11.504
43674W        W10215  11.385   0.193  13.019
43675W        W10216  25.262  36.112   2.873
43676W        W10217   8.326   9.739   2.149
43677W        W10218  26.814  32.272  13.397
43678W        W10219   3.516  38.518   3.690
43679W        W10220  26.151  16.277   4.680
43680W        W10221  26.689  32.145   3.126
43681W        W10222  32.806  34.425   2.202
43682W        W10223  36.498  36.447  10.647
43683W        W10224  19.307  25.216  12.483
43684W        W10225  13.676  27.761   0.561
43685W        W10226   4.170  11.315   2.058
43686W        W10227  18.706  43.957   1.569
43687W        W10228  31.439  44.189   2.825
43688W        W10229   7.581  16.589  13.544
43689W        W10230  40.510  15.649   2.332
43690W        W10231  32.025  25.971   0.482
43691W        W10232  15.444  23.777  10.308
43692W        W10233  39.281   6.449  11.728
43693W        W10234  22.469  41.514   1.857
43694W        W10235  20.783   7.779  12.528
43695W        W10236  21.265  27.079   3.659
43696W        W10237  35.385  13.119   3.288
43697W        W10238  25.346  13.643   0.459
43698W        W10239  20.796   5.160  13.860
43699W        W10240  13.911  27.721  13.715
43700W        W10241  23.946  30.691   0.475
43701W        W10242  35.140  18.260   3.343
43702W        W10243  18.593  26.958   4.720
43703W        W10244   2.198  38.333   4.648
43704W        W10245   3.731  20.589   0.942
43705W        W10246  17.695   3.208   4.722
43706W        W10247   1.637  10.696   4.186
43707W        W10248  42.941  19.513  10.320
43708W        W10249  25.303  11.276  14.331
43709W        W10250  17.597  31.729   4.954
43710W        W10251  43.516  44.965   3.291
43711W        W10252   8.681  25.795  10.579
43712W        W10253  26.899  31.432  11.159
43713W        W10254  28.540  13.578  13.813
43714W        W10255  14.582  36.511  12.660
43715W        W10256  15.691  25.292   2.278
43716W        W10257   0.386  13.548   0.673
43717W        W10258  30.960  42.497  11.944
43718W        W10259  37.806  42.743  14.833
43719W        W10260   2.547  13.861  10.609
43720W        W10261  33.958  25.100   1.400
43721W        W10262   6.356   3.259   4.661
43722W        W10263  34.888   6.064   2.332
43723W        W10264  44.928  39.725   2.308
43724W        W10265  44.661  13.058  12.992
43725W        W10266  22.513  10.480   2.873
43726W        W10267   7.913   4.661  13.464
43727W        W10268  22.564   3.675   9.621
43728W        W10269  13.074  26.148   2.421
43729W        W10270  37.854  31.885   4.556
43730W        W10271  13.173   3.666   1.863
43731W        W10272   9.491  18.367   1.236
43732W        W10273  33.591  28.137   2.220
43733W        W10274  29.528   2.226  12.196
43734W        W10275   3.703  40.324  12.060
43735W        W10276  39.735  10.396   0.870
43736W        W10277  27.179  10.115  11.432
43737W        W10278  19.698   7.155  14.846
43738W        W10279  10.371   4.609  14.891
43739W        W10280  26.998  15.181   0.506
43740W        W10281  34.627  21.194   2.319
43741W        W10282  36.444  38.113   0.430
43742W        W10283  22.528   1.733  13.933
43743W        W10284   7.175  32.864   2.874
43744W        W10285  30.711   9.739  10.689
43745W        W10286  26.870  37.540  11.320
43746W        W10287   5.369  14.707   1.582
43747W        W10288  15.745  14.862   3.362
43748W        W10289  13.108  35.066   0.475
43749W        W10290   6.209  17.675   0.313
43750W        W10291  14.042  29.070   1.026
43751W        W10292  25.716  24.596   2.348
43752W        W10293  42.855  41.242  13.865
43753W        W10294  23.996  43.421  10.644
43754W        W10295  15.643  23.331  14.355
43755W        W10296   6.231  37.622  11.808
43756W        W10297  12.372  20.271  11.636
43757W        W10298   0.369  10.905   2.257
43758W        W10299  44.982   9.932   3.640
43759W        W10300  28.493  19.269  14.908
43760W        W10301  44.425  18.512  11.922
43761W        W10302  30.720  43.806   3.489
43762W        W10303   6.937  35.746   3.816
43763W        W10304  23.115   8.111   0.401
43764W        W10305  18.390   3.945  11.483
43765W        W10306  23.172  34.055   1.637
43766W        W10307  19.608  15.956   5.452
43767W        W10308  15.293  25.221   3.152
43768W        W10309  41.323  25.058   2.346
43769W        W10310  34.567  35.065   0.375
43770W        W10311   1.390  38.903  12.688
43771W        W10312  28.912  26.530   1.226
43772W        W10313  15.282  43.564  14.798
43773W        W10314  39.645  18.830   1.352
43774W        W10315  31.950  38.156   4.571
43775W        W10316  14.863   3.898  13.678
43776W        W10317  21.839  29.181  12.601
43777W        W10318  40.535  34.714   3.713
43778W        W10319  10.043  18.037   0.893
43779W        W10320  31.030  21.468  12.431
43780W        W10321  11.260  11.815  12.718
43781W        W10322  27.731  17.577  13.635
43782W        W10323  41.961   2.071   3.653
43783W        W10324   7.924  15.579   2.275
43784W        W10325  22.892  11.767   1.504
43785W        W10326  24.258  39.896  10.019
43786W        W10327  23.504   8.818   9.989
43787W        W10328  13.177  32.673   1.477
43788W        W10329  29.444   2.882  14.944
43789W        W10330  41.177  33.224  11.992
43790W        W10331  24.654  38.730  12.453
43791W        W10332  30.964  37.898  12.577
43792W        W10333   0.010  40.833   0.277
43793W        W10334  35.924  38.779  14.058
43794W        W10335  21.089  28.474  10.815
43795W        W10336  17.878  42.811   4.379
43796W        W10337  26.727  35.786  11.126
43797W        W10338  35.066  31.945   0.149
43798W        W10339  25.929  24.934   2.765
43799W        W10340  19.308  34.285   4.461
43800W        W10341  33.769  38.025  12.348
43801W        W10342  42.350  25.901   4.890
43802W        W10343  42.899  19.606  10.834
43803W        W10344   2.364   2.810   2.302
43804W        W10345  11.805   3.944  13.908
43805W        W10346   4.411   9.246  10.839
43806W        W10347  12.342  31.032   2.355
43807W        W10348  36.304  12.751  11.569
43808W        W10349  27.082   5.184  12.591
43809W        W10350  21.147  17.523   1.818
43810W        W10351  38.096  16.599  14.394
43811W        W10352  30.377  21.118  10.826
43812W        W10353  27.337  31.416   0.041
43813W        W10354  35.927  26.779   5.100
43814W        W10355  33.411  19.986   1.005
43815W        W10356  34.629  12.347  14.846
43816W        W10357  20.750  11.701  11.606
43817W        W10358  37.355  38.260   4.294
43818W        W10359   2.591   5.871   2.486
43819W        W10360  37.490  36.115  12.710
43820W        W10361  18.968  37.077  11.041
43821W        W10362  33.527   0.944   0.708
43822W        W10363  32.183  30.984   1.414
43823W        W10364   5.259  27.645  10.446
43824W        W10365   9.657  15.297  13.845
43825W        W10366  12.774  24.608  14.479
43826W        W10367  11.747  20.218   2.759
43827W        W10368  28.816  39.099   4.409
43828W        W10369   0.870   6.818   1.868
43829W        W10370  35.635  41.123  13.305
43830W        W10371  37.562  25.463   1.884
43831W        W10372  36.830   4.605   2.202
43832W        W10373  33.241  29.048  14.787
43833W        W10374  18.584  33.820   0.327
43834W        W10375  35.183   4.000  11.890
43835W        W10376  20.991  41.128  10.870
43836W        W10377  16.785   2.418   2.268
43837W        W10378   1.887  31.695   0.426
43838W        W10379   9.426  22.538  13.036
43839W        W10380   3.565  13.064  12.558
43840W        W10381  28.451  14.601   3.581
43841W        W10382  28.118  13.332  11.966
43842W        W10383  42.840   2.756   1.340
43843W        W10384  29.078  41.553   2.230
43844W        W10385  13.114   3.957   4.704
43845W        W10386  26.232  42.225   2.739
43846W        W10387  14.087  43.915  14.619
43847W        W10388   5.687  34.991  11.642
43848W        W10389  36.030   5.369  10.904
43849W        W10390  29.699  31.030  11.176
43850W        W10391  35.553  44.200  14.868
43851W        W10392   5.193  19.990   0.293
43852W        W10393  14.089  21.355   4.030
43853W        W10394  35.364   4.438  12.881
43854W        W10395  24.419   1.101   3.362
43855W        W10396   8.295  26.262   4.495
43856W        W10397  22.591  18.544  13.523
43857W        W10398  13.574  18.984   4.363
43858W        W10399  43.996  30.517  10.664
43859W        W10400  36.784  21.520  10.774
43860W        W10401  29.588  21.687   3.339
43861W        W10402  42.013  41.229  10.626
43862W        W10403  15.003  24.540   2.176
43863W        W10404  14.413  17.785   3.221
43864W        W10405  39.858  25.464  13.792
43865W        W10406  25.768  23.314   0.202
43866W        W10407   6.644  14.229  13.003
43867W        W10408   2.937   8.188   4.158
43868W        W10409   7.771  43.929   2.864
43869W        W10410   7.343  43.998  13.059
43870W        W10411   6.606  33.859   0.386
43871W        W10412  17.424  41.329   3.164
43872W        W10413  44.209  42.790   1.623
43873W        W10414  10.650  35.110   1.349
43874W        W10415   2.023  10.812   0.494
43875W        W10416  28.420  40.513   3.655
43876W        W10417  21.017  43.576   3.914
43877W        W10418  31.536  41.356   0.979
43878W        W10419  25.498  19.774   2.535
43879W        W10420   2.077   0.391  11.453
43880W        W10421   4.951  41.912  14.908
43881W        W10422   6.983  23.413  10.354
43882W        W10423  11.624  17.641  14.461
43883W        W10424  37.299   2.911  13.846
43884W        W10425   7.369  40.450   2.404
43885W        W10426  36.035  20.635  12.347
43886W        W10427   4.029   6.424   4.533
43887W        W10428  42.880   0.759   2.331
43888W        W10429   4.474  22.006  11.136
43889W        W10430   5.900  26.171   2.164
43890W        W10431   7.426  11.558   2.809
43891W        W10432   5.458   9.309   3.144
43892W        W10433   0.960  24.636  12.912
43893W        W10434   6.569   9.412  10.737
43894W        W10435  29.483  16.595   1.276
43895W        W10436   0.501  44.073   0.788
43896W        W10437  16.312  20.849   2.297
43897W        W10438  18.714  18.570  10.450
43898W        W10439  39.446  43.393  10.939
43899W        W10440   0.526  23.829  12.976
43900W        W10441  21.642   8.769  14.534
43901W        W10442  25.190  42.336  14.741
43902W        W10443  21.768  32.226   4.420
43903W        W10444  35.902  37.310   4.125
43904W        W10445  37.529  38.851   2.746
43905W        W10446   3.030   9.989   4.721
43906W        W10447   5.409  25.792  11.326
43907W        W10448   9.795  32.425   4.698
43908W        W10449  42.705  14.699   5.106
43909W        W10450  14.988   4.890   2.399
43910W        W10451   0.772   1.836   4.134
43911W        W10452  43.936  15.191   1.137
43912W        W10453  15.548  13.016  11.199
43913W        W10454   4.865  33.015   4.865
43914W        W10455   1.525   0.743  12.158
43915W        W10456  14.072   1.368  13.925
43916W        W10457  26.465  19.693  10.170
43917W        W10458  30.636   3.537  14.371
43918W        W10459  10.391   3.257   2.205
43919W        W10460  19.607  19.619  11.405
43920W        W10461  40.497   4.920  14.715
43921W        W10462  42.891  28.823   4.118
43922W        W10463  27.205  38.240   1.964
43923W        W10464   8.307  22.035  10.656
43924W        W10465   4.492  30.895   2.626
43925W        W10466   2.479   7.486  13.619
43926W        W10467  40.014   8.732  12.019
43927W        W10468  22.526  27.597   5.305
43928W        W10469  44.931   3.177  13.442
43929W        W10470  41.690  27.527  12.925
43930W        W10471  19.396   8.909   4.732
43931W        W10472  18.513   9.819  10.537
43932W        W10473  10.216  30.135  11.850
43933W        W10474  13.096  21.816   1.163
43934W        W10475  44.382  40.768  11.600
43935W        W10476  17.649  12.728  10.616
43936W        W10477  17.080  28.749  14.034
43937W        W10478  20.911  27.603  12.359
43938W        W10479   9.131   2.759   3.356
43939W        W10480  42.102  35.138   0.647
43940W        W10481   4.397  16.910  13.859
43941W        W10482   1.151  12.272  14.108
43942W        W10483   5.975  43.071   0.808
43943W        W10484   7.362  33.543   0.689
43944W        W10485   7.789  37.566  10.237
43945W        W10486   2.899  17.317   1.918
43946W        W10487  43.921   0.914   4.434
43947W        W10488  34.905  16.716   1.771
43948W        W10489  19.574  29.774   3.182
43949W        W10490  22.166  19.994  11.074
43950W        W10491  14.156  32.961  13.110
43951W        W10492   3.940  34.434  13.898
43952W        W10493  17.109  32.928  14.784
43953W        W10494  32.002  39.391   4.398
43954W        W10495  14.117   8.446   0.953
43955W        W10496  21.085  10.143   2.709
43956W        W10497  11.593  20.835  13.884
43957W        W10498  37.083  42.459   0.925
43958W        W10499   9.461  30.983   3.331
43959W        W10500   1.805  29.229   4.151
43960W        W10501  36.249  14.462   1.391
43961W        W10502  30.570  13.769  12.398
43962W        W10503  27.052  37.601  13.472
43963W        W10504  27.512  12.839  14.012
43964W        W10505   8.925  25.591   0.590
43965W        W10506   5.273   2.520  12.526
43966W        W10507  23.576   2.993   0.197
43967W        W10508  30.845  34.019   0.232
43968W        W10509  42.286  25.664   1.899
43969W        W10510   1.378  10.791   3.716
43970W        W10511  35.938  42.443  12.961
43971W        W10512  23.964  19.589  14.722
43972W        W10513  40.324  40.547   1.372
43973W        W10514  26.664  42.775   1.341
43974W        W10515   7.724   9.128  12.467
43975W        W10516  37.869  43.273  11.604
43976W        W10517  16.984  43.047   1.961
43977W        W10518  39.533  41.141   1.955
43978W        W10519  39.074  42.956  13.511
43979W        W10520  13.565  25.973   2.872
43980W        W10521   3.570  19.705   0.630
43981W        W10522  44.357  14.495   4.965
43982W        W10523  19.970  17.220  14.902
43983W        W10524  38.939  13.039   5.038
43984W        W10525  28.653  36.509  11.068
43985W        W10526  22.744  43.955   5.007
43986W        W10527   6.322  12.006  12.502
43987W        W10528   8.752  39.161   3.576
43988W        W10529  37.920   8.236   3.214
43989W        W10530  15.621   1.379  13.993
43990W        W10531  15.280  25.527   1.274
43991W        W10532  26.224   1.356  14.832
43992W        W10533  22.061  37.424  10.692
43993W        W10534  40.805  13.178  12.024
43994W        W10535   5.986  17.263   2.860
43995W        W10536  36.148  44.435   3.209
43996W        W10537  35.532   9.962   3.248
43997W        W10538  13.281  34.466   0.262
43998W        W10539  38.158  38.027  13.821
43999W        W10540  39.352  43.698   4.173
44000W        W10541   3.668  20.845  13.851
44001W        W10542   0.105  26.309  14.432
44002W        W10543  42.004  13.653   1.014
44003W        W10544  41.059  40.551  14.321
44004W        W10545  14.554  25.582  12.505
44005W        W10546   7.948  30.393   2.297
44006W        W10547  34.632   3.783  12.798
44007W        W10548  43.394  30.608   3.245
44008W        W10549  24.763  32.574   0.429
44009W        W10550  12.314   2.509  12.394
44010W        W10551  40.983  39.843   3.609
44011W        W10552  40.517   1.550  11.434
44012W        W10553   9.345  13.730   1.467
44013W        W10554  19.312   1.193   2.218
44014W        W10555  27.099  15.118  14.499
44015W        W10556   3.327  22.908   2.433
44016W        W10557  24.904   2.699  12.152
44017W        W10558  18.852  39.997  14.548
44018W        W10559  28.607  12.202   0.010
44019W        W10560  17.189  12.514   1.747
44020W        W10561  28.476  19.102  11.142
44021W        W10562   1.286  24.298  12.512
44022W        W10563  22.923  20.769   3.555
44023W        W10564   6.201  33.123  13.938
44024W        W10565  23.714  38.123   1.755
44025W        W10566  38.986  28.018  11.580
44026W        W10567  17.773   4.509  12.523
44027W        W10568  36.048  18.781  13.419
44028W        W10569  18.552   6.163   1.331
44029W        W10570  35.021  24.141  14.335
44030W        W10571  15.157  34.959   0.411
44031W        W10572  38.379  40.409   1.888
44032W        W10573  12.009  44.932   1.278
44033W        W10574  32.046  41.521   4.050
44034W        W10575  17.814  16.763   1.372
44035W        W10576  32.619  11.819  14.842
44036W        W10577  25.982  44.411  10.682
44037W        W10578   5.175   8.647  13.440
44038W        W10579  13.401  12.830  10.754
44039W        W10580  17.668  40.604   4.734
44040W        W10581   3.305  24.462   2.232
44041W        W10582  21.644   5.296   3.675
44042W        W10583   4.331  31.218   3.557
44043W        W10584  39.982  14.356   3.638
44044W        W10585  22.165  33.364   0.886
44045W        W10586  16.563  26.109   0.356
44046W        W10587   4.770  23.581  11.436
44047W        W10588   9.168  22.558   2.680
44048W        W10589  40.471  19.109  13.446
44049W        W10590  34.379  24.072   4.317
44050W        W10591   0.347  10.356  11.882
44051W        W10592   8.756  26.105   0.440
44052W        W10593  44.012  12.110  11.394
44053W        W10594  29.926   4.491  14.753
44054W        W10595  14.093  14.051  14.386
44055W        W10596  10.408  26.143  13.456
44056W        W10597  16.748  20.175   3.787
44057W        W10598  16.679  22.151   4.539
44058W        W10599  12.953  12.167   3.665
44059W        W10600   3.680  21.948   4.177
44060W        W10601  34.822   3.093   1.863
44061W        W10602  13.265  33.716   3.122
44062W        W10603   3.216  17.647  11.944
44063W        W10604  43.902  30.203   3.992
44064W        W10605   6.252   5.689   1.827
44065W        W10606  37.033  27.257   4.151
44066W        W10607  25.587  39.957   0.817
44067W        W10608  24.926  37.827  11.140
44068W        W10609  21.698   7.690  11.577
44069W        W10610  15.556  44.686  14.593
44070W        W10611   1.268  12.649  14.469
44071W        W10612   4.628   2.985   1.286
44072W        W10613  11.403   6.249   0.472
44073W        W10614   6.661  38.313  10.402
44074W        W10615  38.513  20.019  10.483
44075W        W10616   4.326  21.545   4.985
44076W        W10617  42.427  37.446   0.213
44077W        W10618  36.223  15.393   4.943
44078W        W10619  44.471  37.069   3.184
44079W        W10620  36.360   0.181  14.970
44080W        W10621  26.489  37.978   4.483
44081W        W10622  39.632  35.733  12.509
44082W        W10623  15.729  14.284  10.197
44083W        W10624   4.850  30.638   4.645
44084W        W10625  34.479  21.651  12.088
44085W        W10626  25.946  29.603   1.818
44086W        W10627   1.866  36.835  13.070
44087W        W10628  19.685  35.399  12.864
44088W        W10629  16.785  23.009  12.122
44089W        W10630  22.486  43.103  11.755
44090W        W10631  30.644  22.219   1.245
44091W        W10632   0.633  40.409  11.096
44092W        W10633  31.056   5.877  13.464
44093W        W10634   6.277   7.259  10.798
44094W        W10635  12.324  28.215   2.815
44095W        W10636  17.358   1.987  12.098
44096W        W10637  40.419  14.081   1.783
44097W        W10638  35.086  14.308  11.513
44098W        W10639  20.683   4.015   2.348
44099W        W10640  38.970  19.985   3.991
44100W        W10641  12.649  22.684  12.861
44101W        W10642  23.674  43.198  14.024
44102W        W10643  19.770  22.317   0.311
44103W        W10644  10.003   0.037  11.747
44104W        W10645  29.461  10.615  11.533
44105W        W10646  14.893  19.280   2.293
44106W        W10647  28.229  44.250   4.347
44107W        W10648   0.358  11.142   2.723
44108W        W10649  12.897  28.525  14.870
44109W        W10650  26.741   4.325  13.113
44110W        W10651   7.232  23.335  12.534
44111W        W10652  18.801  34.857  10.714
44112W        W10653  20.448  40.315   0.213
44113W        W10654  30.959  13.233   1.935
44114W        W10655   8.521  41.417   4.572
44115W        W10656  19.572   3.415  12.423
44116W        W10657   5.066  43.802  14.994
44117W        W10658  24.574  35.751  14.454
44118W        W10659  42.110  43.955  14.351
44119W        W10660  10.031  15.079   5.041
44120W        W10661  43.065  10.924   0.512
44121W        W10662  25.453  33.380  11.928
44122W        W10663  16.850  27.098   2.144
44123W        W10664  23.053  16.162   2.835
44124W        W10665  17.195  19.986  11.628
44125W        W10666  28.481   0.376   2.501
44126W        W10667  22.049   7.280  12.613
44127W        W10668   7.162  19.720  13.522
44128W        W10669  43.508  22.208  10.908
44129W        W10670   2.356   8.747   4.514
44130W        W10671  38.900  32.901  13.946
44131W        W10672  38.439   0.193   0.524
44132W        W10673  23.267  35.973   3.259
44133W        W10674  37.625   8.416   4.526
44134W        W10675  38.346  17.968   3.232
44135W        W10676   2.245  26.738   4.183
44136W        W10677  39.008  27.469  10.945
44137W        W10678  36.507   3.851   1.448
44138W        W10679  28.984  33.098  11.242
44139W        W10680  10.776  41.880  10.902
44140W        W10681  11.208  12.925   0.024
44141W        W10682   9.104  20.530   2.076
44142W        W10683  43.504  20.994   5.036
44143W        W10684  14.004  42.514   3.252
44144W        W10685  15.236  21.210   1.324
44145W        W10686  20.297  44.490  10.657
44146W        W10687  19.406   1.332  14.052
44147W        W10688  42.581  12.011   4.315
44148W        W10689   9.224  44.088  13.342
44149W        W10690   4.323  16.878  12.070
44150W        W10691   6.394  43.739   1.221
44151W        W10692  22.818   9.301   4.658
44152W        W10693  32.574  37.846  14.868
44153W        W10694  19.092  25.377   3.668
44154W        W10695   9.575  24.591   1.613
44155W        W10696   6.275   1.621   1.654
44156W        W10697  20.628  18.317   5.018
44157W        W10698  35.389  23.674  13.796
44158W        W10699   4.855  40.218   0.758
44159W        W10700  12.621  19.615  12.379
44160W        W10701  29.579  27.600  13.384
44161W        W10702  23.649   4.621   3.577
44162W        W10703  24.077  14.489   3.361
44163W        W10704   1.434  10.417  14.931
44164W        W10705   1.738   3.238  13.859
44165W        W10706  14.941   2.251   4.458
44166W        W10707  27.031  16.842   4.116
44167W        W10708  16.135  33.070  12.227
44168W        W10709  21.011  26.837  11.438
44169W        W10710  31.643  22.706   1.370
44170W        W10711  44.391  30.349   2.207
44171W        W10712  43.899  31.283  12.642
44172W        W10713  40.804  14.328  10.429
44173W        W10714  31.159  22.951  12.470
44174W        W10715   0.245  41.189   1.340
44175W        W10716  40.001  16.869  13.561
44176W        W10717  32.796   9.941  13.983
44177W        W10718  13.105  36.635  13.866
44178W        W10719  17.783  35.621  11.176
44179W        W10720  17.444  31.272  10.099
44180W        W10721  28.432  22.741  14.484
44181W        W10722   2.207  10.943   1.395
44182W        W10723  12.207   1.811   4.216
44183W        W10724  40.185  35.518   0.465
44184W        W10725   9.613  14.721  14.424
44185W        W10726   5.884  25.704   1.792
44186W        W10727   9.460  41.875  13.871
44187W        W10728  29.486  21.374  11.317
44188W        W10729   5.728  15.946  14.710
44189W        W10730   0.550  18.815   1.329
44190W        W10731   7.079  26.995  10.699
44191W        W10732  44.989   9.361   0.988
44192W        W10733  39.637  40.151  13.469
44193W        W10734  16.894   6.776  14.747
44194W        W10735  33.349  28.186  10.879
44195W        W10736  30.711  39.516  14.289
44196W        W10737  33.599  25.236  11.139
44197W        W10738  27.398   5.264   1.390
44198W        W10739  17.353  22.956  11.386
44199W        W10740  42.856  14.584  13.573
44200W        W10741   8.776  24.506   4.406
44201W        W10742  12.575  40.946   3.287
44202W        W10743  42.810  39.590  14.793
44203W        W10744  11.117  34.722   4.343
44204W        W10745  21.600  14.219  11.612
44205W        W10746  41.552  26.967  14.385
44206W        W10747  13.094  29.504   4.636
44207W        W10748  12.612   5.988  12.447
44208W        W10749  18.459  24.009  10.714
44209W        W10750   8.622  42.168  11.853
44210W        W10751  11.076   3.721  13.564
44211W        W10752   9.855  23.400  12.898
44212W        W10753   7.232   3.387  11.573
44213W        W10754  14.081  17.259  11.878
44214W        W10755  15.553  18.072  12.703
44215W        W10756  39.438  41.980   4.541
44216W        W10757   9.887  23.696  13.829
44217W        W10758  10.607   5.276  12.489
44218W        W10759  20.983  29.959   4.961
44219W        W10760  37.483  27.533   0.868
44220W        W10761  28.580  38.069  11.128
44221W        W10762  19.592  15.569   3.194
44222W        W10763  29.852  25.422  11.256
44223W        W10764  17.278  22.768  12.085
44224W        W10765  34.620  30.398   1.698
44225W        W10766   8.303  40.161   0.671
44226W        W10767   1.179  13.202   3.368
44227W        W10768   2.917  22.351  10.745
44228W        W10769  23.968   8.614   9.994
44229W        W10770  11.134  20.788   4.477
44230W        W10771  21.240  32.115   1.353
44231W        W10772  18.131  38.308   3.884
44232W        W10773  21.966  10.354  14.744
44233W        W10774  28.192  30.274  13.576
44234W        W10775   0.379  16.300  14.749
44235W        W10776  35.071  28.927  13.303
44236W        W10777  24.728  37.562   2.521
44237W        W10778  40.698  16.548  11.487
44238W        W10779  28.501  32.132   2.699
44239W        W10780  28.426  14.711   1.826
44240W        W10781  39.840  11.545   4.084
44241W        W10782   1.832   9.688  10.698
44242W        W10783  24.557  11.388  13.138
44243W        W10784  15.203  38.299  13.611
44244W        W10785  44.489  36.188   5.134
44245W        W10786   2.955  39.421  12.701
44246W        W10787  15.803  31.067   1.487
44247W        W10788  43.002  25.632  14.995
44248W        W10789   3.658  41.409   1.960
44249W        W10790  27.634  20.109  13.859
44250W        W10791   8.772  23.916  11.809
44251W        W10792   8.923  34.422   1.259
44252W        W10793  17.767  44.100  11.089
44253W        W10794  11.610  38.320  12.358
44254W        W10795   1.745  42.470   4.429
44255W        W10796  26.997   3.727  13.891
44256W        W10797  29.692  24.482  10.771
44257W        W10798  22.626  17.697  10.248
44258W        W10799  20.213  31.905  13.394
44259W        W10800  14.626   6.422   2.455
44260W        W10801  32.091  17.119   0.659
44261W        W10802  30.340  19.730   0.710
44262W        W10803   8.127  35.931  13.461
44263W        W10804  25.656  37.193  14.468
44264W        W10805   2.894  14.775   1.371
44265W        W10806  29.629  27.240  10.636
44266W        W10807  10.480  21.506  14.061
44267W        W10808  17.074  15.789   3.914
44268W        W10809   2.781  15.557  10.599
44269W        W10810  32.480  16.577  13.458
44270W        W10811  42.820  11.377   2.251
44271W        W10812  17.687   6.885   0.674
44272W        W10813   8.705   1.301   4.263
44273W        W10814  40.530  18.970   1.200
44274W        W10815  36.585  18.764   2.449
44275W        W10816   5.898   9.395  10.621
44276W        W10817  19.209  20.751   1.147
44277W        W10818  26.988  41.992  11.083
44278W        W10819  23.461  23.244  14.937
44279W        W10820  16.520   8.771   2.708
44280W        W10821  42.038  35.004  11.626
44281W        W10822  22.469   9.822   0.233
44282W        W10823  23.816  38.146  13.586
44283W        W10824  28.785  38.377   3.700
44284W        W10825  22.566  13.819   1.662
44285W        W10826  10.505  12.572  12.709
44286W        W10827  41.561  33.931  13.917
44287W        W10828  12.242  12.441  10.414
44288W        W10829  21.762  27.760  14.471
44289W        W10830  12.345   2.633  11.125
44290W        W10831  18.213  20.458   2.549
44291W        W10832  20.670  25.747   3.719
44292W        W10833   2.472  12.173  12.686
44293W        W10834   5.244  38.097  12.987
44294W        W10835  26.566  19.142   1.668
44295W        W10836  24.712  43.442  11.304
44296W        W10837  35.607  10.271  14.470
44297W        W10838  12.395  43.466   4.633
44298W        W10839  17.070  43.430   2.618
44299W        W10840  17.293  35.661  10.320
44300W        W10841   0.818  43.972  14.400
44301W        W10842  20.682  31.570  14.283
44302W        W10843  30.154  33.976  14.348
44303W        W10844   6.893   1.005   4.941
44304W        W10845  12.138  19.753  12.479
44305W        W10846  41.531   9.404  11.665
44306W        W10847  42.917   6.497   3.368
44307W        W10848  24.519  16.056   0.834
44308W        W10849  25.595  25.821   3.836
44309W        W10850  44.467   2.311   4.160
44310W        W10851  23.184  40.613  13.384
44311W        W10852   8.183   6.188   2.207
44312W        W10853   6.726   2.238   0.524
44313W        W10854  41.808  20.305  14.725
44314W        W10855  43.849   5.012   4.519
44315W        W10856  31.377  43.073   2.251
44316W        W10857  13.765  42.040  10.726
44317W        W10858  40.917  41.698  13.118
44318W        W10859  12.736  31.399  12.132
44319W        W10860   3.735   1.318   1.308
44320W        W10861  36.001   3.134   1.947
44321W        W10862  36.426  24.999  13.070
44322W        W10863  30.329  30.047   0.392
44323W        W10864  41.387  11.621   3.782
44324W        W10865  36.631  25.508  11.499
44325W        W10866  36.742   5.837  11.306
44326W        W10867   4.471   2.947   4.039
44327W        W10868  10.481   1.128   1.818
44328W        W10869   9.838  29.229   4.109
44329W        W10870  31.416   1.876  11.143
44330W        W10871  29.473  37.293   2.264
44331W        W10872  16.737  40.832   3.391
44332W        W10873  23.331  17.605  14.306
44333W        W10874  20.392  21.249   9.973
44334W        W10875  25.914  20.744   4.586
44335W        W10876  16.375  14.692   2.740
44336W        W10877  11.733   7.857  11.860
44337W        W10878  31.144   1.309   0.384
44338W        W10879  38.917  17.242  13.422
44339W        W10880  31.562  11.576   2.759
44340W        W10881   9.771   2.933   4.796
44341W        W10882  22.704  19.616  13.011
44342W        W10883  17.746  11.876  14.933
44343W        W10884   1.804  38.957  11.012
44344W        W10885  29.430   5.231  13.734
44345W        W10886  33.522  26.687   0.334
44346W        W10887  35.589  16.618   2.700
44347W        W10888  24.129  37.630  12.859
44348W        W10889  38.846  28.556  12.561
44349W        W10890  26.478  36.028  11.527
44350W        W10891   8.392   9.193   4.906
44351W        W10892   2.727   2.444  13.466
44352W        W10893  22.653  14.332   1.615
44353W        W10894  32.667  28.473   2.893
44354W        W10895   1.814   5.476  13.823
44355W        W10896  19.308  15.726  12.402
44356W        W10897  10.324   5.146  14.880
44357W        W10898  15.051  16.266   4.153
44358W        W10899  10.838  21.658  10.569
44359W        W10900   5.151  33.026   0.496
44360W        W10901  35.611  35.467   1.285
44361W        W10902  24.484  16.098  12.985
44362W        W10903   1.326  41.346  14.411
44363W        W10904   4.221  26.917   1.989
44364W        W10905  44.167  11.791  11.757
44365W        W10906  38.512  11.774  11.511
44366W        W10907  17.633   2.713  14.986
44367W        W10908  32.938   2.982  11.675
44368W        W10909  28.105  29.421   4.366
44369W        W10910  24.665  25.720  14.981
44370W        W10911   6.537  10.162  12.537
44371W        W10912  10.821   7.848   0.714
44372W        W10913  20.457  32.399   4.824
44373W        W10914  43.256  21.246  14.303
44374W        W10915  38.106  17.483   3.804
44375W        W10916   7.407  41.531  12.922
44376W        W10917  41.720  27.041  14.870
44377W        W10918  31.101   3.272  10.391
44378W        W10919  16.124  20.062   3.773
44379W        W10920  23.006  23.509  11.341
44380W        W10921  25.974   1.814  10.717
44381W        W10922  30.097  25.820   0.065
44382W        W10923  19.020  23.755   3.630
44383W        W10924  12.384  13.686   4.007
44384W        W10925  31.320  28.550   4.956
44385W        W10926  24.164  10.589   0.325
44386W        W10927  28.612  10.898  12.527
44387W        W10928   6.941  30.523  13.165
44388W        W10929  16.800  32.553  11.873
44389W        W10930   6.508  13.561  11.249
44390W        W10931  38.113  43.339  10.752
44391W        W10932  16.067  13.547   1.476
44392W        W10933  22.330  44.492  11.981
44393W        W10934  36.877   0.073  14.964
44394W        W10935  38.541  20.494   1.872
44395W        W10936   5.606  35.744   3.693
44396W        W10937   2.688  15.752  14.515
44397W        W10938  20.073  19.753  11.686
44398W        W10939  12.199   5.331  12.874
44399W        W10940  43.488  42.927  14.216
44400W        W10941  33.894  12.583  13.196
44401W        W10942  25.127  12.503   3.233
44402W        W10943   7.904   6.384   1.682
44403W        W10944  39.444   4.148  11.484
44404W        W10945  25.162  29.799  14.291
44405W        W10946  10.561  11.864   2.508
44406W        W10947   4.831   9.380  12.108
44407W        W10948   0.937  12.629  12.944
44408W        W10949   4.712   2.773   0.820
44409W        W10950  31.484  19.806   2.269
44410W        W10951  20.872  30.234  12.215
44411W        W10952   9.794   1.483   1.268
44412W        W10953  38.669  42.861   0.929
44413W        W10954  17.230  40.498   2.787
44414W        W10955  36.655  42.864   0.531
44415W        W10956  42.983  17.065   1.414
44416W        W10957  14.600  26.161  11.828
44417W        W10958  34.511   7.277   0.226
44418W        W10959  37.093  19.704  10.760
44419W        W10960  25.114  28.214   2.929
44420W        W10961  34.787  36.922   0.182
44421W        W10962  27.546  34.525   0.940
44422W        W10963  29.468  28.216  10.229
44423W        W10964   3.451  24.961  12.978
44424W        W10965   5.310  17.156  14.669
44425W        W10966  35.441  37.553  13.779
44426W        W10967  30.936  18.529   4.723
44427W        W10968  22.068  35.873  12.118
44428W        W10969  20.609  20.870  11.176
44429W        W10970  14.333  24.516  13.403
44430W        W10971  12.291   3.131   4.620
44431W        W10972  33.370   0.178  10.928
44432W        W10973  14.688  30.653  12.932
44433W        W10974  37.409  42.844   3.832
44434W        W10975  15.695   6.381   0.268
44435W        W10976  31.541  38.617  10.758
44436W        W10977   7.232  37.646   3.198
44437W        W10978  29.433   6.966  14.912
44438W        W10979   6.992  43.005  14.907
44439W        W10980  11.610  37.595   2.350
44440W        W10981  39.533   4.687  11.444
44441W        W10982  30.894  10.731   4.597
44442W        W10983  23.169  41.863   0.755
44443W        W10984  19.716  40.273   2.410
44444W        W10985  21.043  43.099   3.696
44445W        W10986  32.370  25.969   0.866
44446W        W10987  23.580  28.728   4.389
44447W        W10988   7.583   0.765   0.161
44448W        W10989  18.681  12.642   2.628
44449W        W10990  30.930  27.961   3.729
44450W        W10991  38.530   8.390   4.598
44451W        W10992   9.606  40.440   0.562
44452W        W10993   0.807  12.898  13.379
44453W        W10994  29.618   2.496  12.640
44454W        W10995  43.973  28.165   0.486
44455W        W10996  22.084  32.944  10.168
44456W        W10997  39.104  39.861   4.662
44457W        W10998  26.679   8.298  11.894
44458W        W10999  35.515  42.766   4.881
44459W        W11000  15.539   4.868  13.030
44460W        W11001  27.668  28.291  14.762
44461W        W11002   3.904  28.979   2.198
44462W        W11003  10.593  17.533  14.433
44463W        W11004   7.852  42.641   0.318
44464W        W11005  11.401   1.849   3.119
44465W        W11006  38.630  44.163  10.919
44466W        W11007  24.768   2.368  14.928
44467W        W11008  37.407   3.642  12.003
44468W        W11009  26.498  44.199   3.164
44469W        W11010  11.471  10.086   3.104
44470W        W11011  23.106  23.961   3.316
44471W        W11012  17.039  30.113  12.357
44472W        W11013  11.160  41.535  10.820
44473W        W11014  17.481  31.192  12.395
44474W        W11015  22.730   7.655   3.292
44475W        W11016   4.741   3.841   2.642
44476W        W11017  27.088   2.378   0.438
44477W        W11018   7.880  34.185   3.668
44478W        W11019  44.161   0.669  12.619
44479W        W11020  30.950   4.793  14.459
44480W        W11021  10.307  10.371  12.623
44481W        W11022  42.893  12.138  13.202
44482W        W11023  21.158  28.049   0.583
44483W        W11024  24.830  18.773   4.715
44484W        W11025  22.615  42.522   3.157
44485W        W11026  30.855  34.409  13.009
44486W        W11027  17.262  13.333   1.409
44487W        W11028   9.354   2.024   1.767
44488W        W11029   2.484  11.894   0.661
44489W        W11030  44.768  26.146   0.700
44490W        W11031  14.087  36.725  10.587
44491W        W11032  22.810  39.232  12.529
44492W        W11033  20.014  37.557  14.798
44493W        W11034  41.334  18.383   0.204
44494W        W11035   5.100  30.382  14.237
44495W        W11036  39.464  24.524   2.230
44496W        W11037  18.196  17.510   3.629
44497W        W11038  24.413  41.207   5.084
44498W        W11039  31.136  38.788   1.449
44499W        W11040  25.061  14.806   3.290
44500W        W11041  24.321  16.580  13.085
44501W        W11042  26.421   8.315  11.439
44502W        W11043  32.937   4.497  11.556
44503W        W11044  19.186  12.633  12.428
44504W        W11045  11.859  13.618   2.138
44505W        W11046   6.796   0.579   4.092
44506W        W11047   5.901  14.092   5.013
44507W        W11048  42.517   6.230  12.123
44508W        W11049   9.574  30.619  11.547
44509W        W11050  42.089  19.167   3.989
44510W        W11051  38.390  23.331  14.073
44511W        W11052   3.387  16.703  12.028
44512W        W11053  12.706   5.396   1.754
44513W        W11054  35.620  38.597   2.825
44514W        W11055  22.517  38.146  14.853
44515W        W11056  17.557  28.063   2.839
44516W        W11057   0.433  29.305   0.292
44517W        W11058  11.113  37.338  11.987
44518W        W11059   0.774  40.481   1.445
44519W        W11060   0.417  13.796   0.222
44520W        W11061  31.778   3.029  12.865
44521W        W11062  21.132  42.302   0.435
44522W        W11063  38.401  44.603   1.196
44523W        W11064  37.565   7.530   0.624
44524W        W11065  39.767  18.777  10.957
44525W        W11066  22.729  34.954   1.817
44526W        W11067  12.355  14.082   1.756
44527W        W11068   7.340   7.270  12.789
44528W        W11069   4.722   0.735   0.939
44529W        W11070  20.043  27.641  10.866
44530W        W11071  26.807   3.838   1.223
44531W        W11072   2.307  19.133  11.412
44532W        W11073  11.228  40.126  14.964
44533W        W11074  39.134  34.952  11.153
44534W        W11075   2.903   3.232   0.196
44535W        W11076   5.376  38.003   2.236
44536W        W11077   2.191  33.017  10.706
44537W        W11078   8.695   0.489  10.715
44538W        W11079  22.198   5.714   3.022
44539W        W11080  26.415   0.827   4.093
44540W        W11081  39.617  35.024  13.338
44541W        W11082  12.673  42.510  13.150
44542W        W11083   8.185  40.678   5.070
44543W        W11084   3.926  19.481   0.348
44544W        W11085  23.114  19.213   0.600
44545W        W11086  40.776  31.473   4.131
44546W        W11087  25.177  13.534   4.626
44547W        W11088  11.825  25.132   1.294
44548W        W11089   5.848  12.205   1.643
44549W        W11090  18.155  10.580  10.678
44550W        W11091   7.534   4.296   2.417
44551W        W11092   1.974   2.643  13.045
44552W        W11093   7.126  27.229   0.708
44553W        W11094  25.388   6.706  13.459
44554W        W11095  28.557  20.626   0.441
44555W        W11096  42.237  32.019  13.929
44556W        W11097  14.113  24.454   3.374
44557W        W11098  28.062  18.724  12.356
44558W        W11099  15.088   5.337  10.499
44559W        W11100   3.954  13.761   1.389
44560W        W11101  39.286  11.312  13.377
44561W        W11102  19.600  19.209   0.222
44562W        W11103  32.172  28.361  10.788
44563W        W11104  10.815  18.542  11.029
44564W        W11105  21.146  31.963  11.478
44565W        W11106  37.695  32.374  13.926
44566W        W11107   1.017   0.957   2.335
44567W        W11108  38.790   2.502  13.962
44568W        W11109  18.996  30.233  12.870
44569W        W11110  24.746  33.171  13.549
44570W        W11111  31.766  20.406   1.759
44571W        W11112   5.476   0.362  11.544
44572W        W11113   1.234  15.169  14.951
44573W        W11114  36.114  44.015  10.697
44574W        W11115  19.077  25.521   0.260
44575W        W11116  22.584  15.341   4.747
44576W        W11117  15.762  24.926  10.901
44577W        W11118  31.864   6.433   1.917
44578W        W11119  44.343  26.469  11.524
44579W        W11120   5.315  34.839   3.355
44580W        W11121  34.355  43.175  14.880
44581W        W11122  28.966  18.144   4.081
44582W        W11123  19.784  20.851  13.616
44583W        W11124   7.971  20.075   2.876
44584W        W11125  26.356  30.349   5.020
44585W        W11126  43.841  25.748   3.287
44586W        W11127  26.877  22.113   0.319
44587W        W11128   1.426   1.240   1.422
44588W        W11129   3.360  15.827  14.907
44589W        W11130  39.547  29.154   0.713
44590W        W11131  16.750   5.151  11.150
44591W        W11132   5.890  41.407   2.428
44592W        W11133  15.152  12.500   0.731
44593W        W11134  12.818  43.763   1.344
44594W        W11135   9.724  15.161   4.429
44595W        W11136  25.012  39.577  12.487
44596W        W11137  29.559  32.378   3.146
44597W        W11138  15.113  28.713  11.622
44598W        W11139  20.229  41.816  14.377
44599W        W11140  15.127  26.976   1.037
44600W        W11141   4.903  30.834   5.146
44601W        W11142  16.487  39.361   2.682
44602W        W11143  37.862   3.211   2.147
44603W        W11144  14.047  18.792   4.369
44604W        W11145   6.846  23.255   3.562
44605W        W11146  23.554  29.328   1.826
44606W        W11147  25.214   7.263   4.156
44607W        W11148  30.012  15.809   1.262
44608W        W11149  23.519  14.755   1.833
44609W        W11150  12.615  29.468   3.336
44610W        W11151  40.306   0.037  13.885
44611W        W11152  23.082  26.141  11.674
44612W        W11153  16.997   9.735   3.840
44613W        W11154  30.506  31.300   3.495
44614W        W11155  15.871  11.862  10.999
44615W        W11156  38.754  32.178   1.716
44616W        W11157  27.282  33.163  11.242
44617W        W11158  14.567  16.134  14.517
44618W        W11159   9.860   4.336   1.295
44619W        W11160  26.967   6.669   4.094
44620W        W11161  40.897  16.801  14.195
44621W        W11162  23.003  22.692  11.904
44622W        W11163  23.655  25.002  14.517
44623W        W11164  22.006  34.607   2.915
44624W        W11165  37.494   9.077  12.112
44625W        W11166  14.000   9.289  14.143
44626W        W11167   8.604  15.741   3.757
44627W        W11168   6.945  32.885  12.982
44628W        W11169  13.704  16.897  14.250
44629W        W11170   6.725   0.081  12.913
44630W        W11171   8.644  25.014   2.849
44631W        W11172  34.971   0.220  13.455
44632W        W11173  36.944  39.725   4.155
44633W        W11174   3.306   9.218   4.083
44634W        W11175  43.107  27.981   2.749
44635W        W11176  35.090  39.897   3.343
44636W        W11177  41.567   5.705   2.763
44637W        W11178  35.124  11.969   4.656
44638W        W11179  13.719   8.792   1.059
44639W        W11180  44.568   9.865  13.354
44640W        W11181  24.458  11.539   4.498
44641W        W11182  34.268  12.379   5.488
44642W        W11183  35.503  15.784   0.439
44643W        W11184   0.440  17.574   0.362
44644W        W11185  33.573  11.502   0.706
44645W        W11186  24.237   6.824   5.023
44646W        W11187  34.019  42.865   0.973
44647W        W11188  36.893   1.299   1.018
44648W        W11189  24.458  18.773  12.404
44649W        W11190   5.845   9.292  13.185
44650W        W11191  42.722  34.850  13.914
44651W        W11192  14.634  35.536  11.606
44652W        W11193  29.921  39.993   3.416
44653W        W11194  33.503  42.983  11.483
44654W        W11195   8.510  13.064  14.859
44655W        W11196   2.201  39.007  13.835
44656W        W11197  28.465  35.477   4.858
44657W        W11198   3.859  43.866   3.267
44658W        W11199  12.216  28.563   3.216
44659W        W11200  17.020  20.926  13.425
44660W        W11201   5.635  29.888  11.617
44661W        W11202  15.039  34.130   0.184
44662W        W11203  18.715  30.927   0.087
44663W        W11204  42.884  24.278  12.970
44664W        W11205   5.485  11.753   1.428
44665W        W11206  23.082  16.986  11.986
44666W        W11207  42.395  14.696   3.724
44667W        W11208  43.369   4.264   2.960
44668W        W11209  39.944  32.037  13.219
44669W        W11210  31.529  40.261   3.737
44670W        W11211  40.611  32.994  13.894
44671W        W11212   1.835  15.774   0.688
44672W        W11213   1.671  30.533  13.576
44673W        W11214   6.286   5.812  13.929
44674W        W11215  35.556  41.789   4.453
44675W        W11216   1.608  13.372   3.661
44676W        W11217  21.554  17.291  10.636
44677W        W11218  19.320   8.636   2.440
44678W        W11219   6.937  11.305  10.729
44679W        W11220  43.774  17.232  11.644
44680W        W11221  23.540  30.640  14.296
44681W        W11222  35.571  32.646  14.922
44682W        W11223  38.838   9.127  13.040
44683W        W11224   7.452   9.680   1.942
44684W        W11225   5.287  21.273  11.033
44685W        W11226   8.817  14.361   5.078
44686W        W11227  37.092  37.590  12.495
44687W        W11228   3.276  26.413   1.585
44688W        W11229  13.258  34.659  13.865
44689W        W11230  42.813   3.298  11.450
44690W        W11231   6.801  37.506  11.611
44691W        W11232  12.257  38.931   3.252
44692W        W11233  29.945  42.077  12.100
44693W        W11234  13.218  18.675   4.550
44694W        W11235  32.246  42.882  12.018
44695W        W11236  36.582  35.712   5.080
44696W        W11237  15.311  10.323   3.639
44697W        W11238  22.530  17.140   2.303
44698W        W11239  19.155  17.778  12.248
44699W        W11240  43.179  32.355  11.590
44700W        W11241   8.274  27.089  13.510
44701W        W11242   2.735  17.921   1.640
44702W        W11243   9.237  31.377   3.031
44703W        W11244  13.036   8.472  14.311
44704W        W11245  24.086  31.637   3.760
44705W        W11246   2.218  24.245   0.814
44706W        W11247  41.423  10.800   4.401
44707W        W11248  32.008   6.938   3.293
44708W        W11249  28.557  31.853  11.037
44709W        W11250  17.331   1.293  10.719
44710W        W11251   7.879  13.758  14.374
44711W        W11252  34.456  30.714   4.587
44712W        W11253  29.942  12.608  14.676
44713W        W11254  25.399   2.904  12.912
44714W        W11255  14.048  37.519  12.704
44715W        W11256  25.942  16.778   4.697
44716W        W11257  42.382  20.033   2.580
44717W        W11258  31.637  41.511   3.276
44718W        W11259  41.270   3.166  13.904
44719W        W11260  32.464  32.046  10.925
44720W        W11261  10.122  21.190   0.798
44721W        W11262   9.136   7.197   3.773
44722W        W11263   4.339   5.713  11.398
44723W        W11264  32.678  11.552  11.518
44724W        W11265  16.794  30.042   2.606
44725W        W11266  23.715  42.371   1.329
44726W        W11267  36.469  11.557   1.221
44727W        W11268   5.835   6.262   0.203
44728W        W11269  10.055  26.634   3.218
44729W        W11270  35.958  33.267  13.043
44730W        W11271  16.143  43.819   4.560
44731W        W11272  32.437  29.887   3.557
44732W        W11273   2.418  12.790  11.573
44733W        W11274  22.242  15.523   2.801
44734W        W11275  44.640  17.741  11.523
44735W        W11276   2.481  34.988  10.683
44736W        W11277  44.974  39.979   0.737
44737W        W11278  21.683  16.281   2.854
44738W        W11279   4.068  14.065   2.634
44739W        W11280  42.921  44.810  11.605
44740W        W11281   7.428  31.634  10.717
44741W        W11282  33.296  10.343  13.171
44742W        W11283  21.981  23.152   2.056
44743W        W11284  39.553  43.548  10.446
44744W        W11285  41.117   3.932  11.515
44745W        W11286  40.349   3.441  14.405
44746W        W11287  12.533  31.324  14.279
44747W        W11288  24.623  43.302  12.171
44748W        W11289  12.817  12.977  13.797
44749W        W11290  29.506   3.756  14.062
44750W        W11291  22.602  33.285  14.390
44751W        W11292  36.544   7.488  12.297
44752W        W11293  42.467   0.766   0.943
44753W        W11294  38.828   1.400  12.548
44754W        W11295  18.205  32.470  10.640
44755W        W11296   2.780  10.659  12.381
44756W        W11297  23.533  44.366  10.640
44757W        W11298  31.855   0.085   3.776
44758W        W11299   2.655  18.826  12.589
44759W        W11300  13.667   2.195  11.997
44760W        W11301  28.057  16.806  13.956
44761W        W11302  28.545  21.096  10.312
44762W        W11303  42.020  24.728  11.563
44763W        W11304  25.469   1.770   2.990
44764W        W11305   6.866  18.384  13.074
44765W        W11306   6.661  35.876   2.183
44766W        W11307   0.040   9.413   0.482
44767W        W11308  41.776  12.423  13.201
44768W        W11309  43.456  19.115  12.561
44769W        W11310  13.605  13.677  10.860
44770W        W11311  18.842  13.912  14.976
44771W        W11312  42.019   8.500  11.830
44772W        W11313  38.579  39.949   1.297
44773W        W11314   7.237  39.744  13.497
44774W        W11315  26.248  25.224   3.072
44775W        W11316  18.481  17.797  11.636
44776W        W11317  32.488  28.569   4.374
44777W        W11318  21.613  37.040   4.615
44778W        W11319   4.952   3.511   3.136
44779W        W11320  14.393  42.466  13.797
44780W        W11321   9.760  20.332  14.013
44781W        W11322  44.327  22.878  13.392
44782W        W11323  36.994  30.617  11.534
44783W        W11324  29.259  40.870  14.145
44784W        W11325  35.612  25.130  13.208
44785W        W11326  35.735  27.482  14.852
44786W        W11327  21.856  42.707  13.344
44787W        W11328  44.700  11.439   0.427
44788W        W11329   3.847  29.402  11.794
44789W        W11330  44.286   1.245   3.856
44790W        W11331  25.398  10.011  14.299
44791W        W11332  20.707  25.762   0.951
44792W        W11333   9.040   2.407  12.461
44793W        W11334   6.203  16.085  10.805
44794W        W11335   2.384  32.615   2.113
44795W        W11336   5.167  38.000   1.329
44796W        W11337  42.875  44.892   0.330
44797W        W11338   8.967  30.529  11.135
44798W        W11339   6.060  33.398   0.879
44799W        W11340   0.207  20.935   3.375
44800W        W11341  11.857  15.778   2.823
44801W        W11342  33.191   4.073   3.379
44802W        W11343  12.820  16.747  13.902
44803W        W11344   0.462  14.104   2.444
44804W        W11345  18.556   3.107  14.698
44805W        W11346  24.213  22.693  11.112
44806W        W11347  33.414  44.436  10.587
44807W        W11348  15.123  27.604  12.393
44808W        W11349  27.033  30.972  14.229
44809W        W11350   7.884  33.450   1.398
44810W        W11351  31.095  39.794  10.814
44811W        W11352   3.946  29.805   3.310
44812W        W11353   9.387  30.301  14.326
44813W        W11354  40.043  35.843  10.511
44814W        W11355  14.651  27.448  14.247
44815W        W11356  28.222  42.380   4.786
44816W        W11357  43.261  30.848   2.237
44817W        W11358  42.283   5.768   2.508
44818W        W11359   7.232  10.097  13.132
44819W        W11360  22.100   3.752  11.974
44820W        W11361  35.047  22.968   4.550
44821W        W11362  37.954  34.560   2.194
44822W        W11363  32.262  44.430   4.142
44823W        W11364  35.413   5.476  12.604
44824W        W11365  30.298  40.777   2.399
44825W        W11366  38.015  30.409   3.726
44826W        W11367  44.890   3.223   3.135
44827W        W11368  20.918   5.178   2.847
44828W        W11369   8.198   5.332   2.098
44829W        W11370  38.857   1.823  11.395
44830W        W11371  21.180  37.747  12.829
44831W        W11372  12.104   0.408   1.475
44832W        W11373  10.165  18.653  10.596
44833W        W11374  18.845  18.540   0.467
44834W        W11375  22.063  33.193   1.699
44835W        W11376  44.881   0.924  11.005
44836W        W11377  17.269   0.509  11.943
44837W        W11378   8.322  26.095  10.328
44838W        W11379  25.105  11.254  11.716
44839W        W11380   3.870  35.156  11.970
44840W        W11381  33.563  40.324  11.455
44841W        W11382   7.583  29.052  11.036
44842W        W11383  12.640  17.220  13.848
44843W        W11384   1.900  32.848   2.177
44844W        W11385   5.344   7.295   2.203
44845W        W11386  23.159  33.406   2.585
44846W        W11387  26.115  40.602  14.421
44847W        W11388  36.172  20.714  10.612
44848W        W11389  42.953   8.231   0.919
44849W        W11390  29.554  41.294  14.873
44850W        W11391  14.737   2.286  14.200
44851W        W11392  31.923  24.803  11.109
44852W        W11393  26.936   9.696  10.526
44853W        W11394   8.360  26.955  13.000
44854W        W11395  33.279  38.329  13.470
44855W        W11396  29.449   3.655  11.143
44856W        W11397   5.793  23.667  12.079
44857W        W11398  42.635  16.596   0.712
44858W        W11399  32.123  31.403   1.758
44859W        W11400  31.101  29.149  11.458
44860W        W11401   0.027   6.986   0.160
44861W        W11402  31.010  16.252   2.375
44862W        W11403  13.379  14.541   3.130
44863W        W11404  18.029   5.310  12.432
44864W        W11405   0.406  20.419  10.866
44865W        W11406  28.568   0.327   3.021
44866W        W11407   4.802   5.714   2.654
44867W        W11408  44.553  16.715   3.927
44868W        W11409  21.704  28.510   1.833
44869W        W11410   1.428  29.251  14.372
44870W        W11411  19.944  20.003  12.643
44871W        W11412   5.262  15.821  14.495
44872W        W11413  26.253  32.287  12.338
44873W        W11414  32.627  30.993  13.548
44874W        W11415  36.983  19.156   3.229
44875W        W11416  29.460  17.064   2.193
44876W        W11417  29.505   2.375   4.733
44877W        W11418  18.840  33.512   4.514
44878W        W11419   1.100  28.921   2.538
44879W        W11420  17.993  18.238  10.548
44880W        W11421  13.385  37.002   2.278
44881W        W11422  32.523  35.294   3.760
44882W        W11423   4.730  44.035   1.685
44883W        W11424  38.494   9.587   1.432
44884W        W11425   5.701  39.057  14.378
44885W        W11426  25.630  40.562  14.175
44886W        W11427   4.224  20.274  14.311
44887W        W11428  35.032  13.429  11.031
44888W        W11429  37.308  41.950   1.729
44889W        W11430  15.395  38.857  11.967
44890W        W11431  28.594  29.127  14.485
44891W        W11432  25.518  30.529   3.227
44892W        W11433  28.396   7.784  14.346
44893W        W11434   6.154  44.770   4.582
44894W        W11435  38.869  10.626   1.815
44895W        W11436  34.564  11.155  11.936
44896W        W11437  37.533   1.854  14.015
44897W        W11438  40.704   8.865  10.692
44898W        W11439  30.975   6.930   1.419
44899W        W11440  17.278   0.969   3.217
44900W        W11441  38.543  44.439  10.095
44901W        W11442   8.883  12.310   0.246
44902W        W11443  29.188   0.886   0.803
44903W        W11444  11.462  12.192   3.520
44904W        W11445  37.915  41.561   3.335
44905W        W11446  22.938  16.802   3.320
44906W        W11447  13.502  31.622   0.208
44907W        W11448   4.886  25.502   0.888
44908W        W11449  25.591  27.015   1.188
44909W        W11450  41.855   5.272   4.191
44910W        W11451  32.007  27.680   2.777
44911W        W11452  12.530  18.100   1.268
44912W        W11453  31.611   6.761  11.822
44913W        W11454  18.809   3.955  14.373
44914W        W11455  38.834  21.259  11.221
44915W        W11456  30.027  30.374   2.329
44916W        W11457  28.579  40.818   2.680
44917W        W11458  12.145  22.217   4.576
44918W        W11459   6.936  35.035  10.648
44919W        W11460  28.211  33.030   4.089
44920W        W11461  41.319  41.608   1.507
44921W        W11462   6.823  31.386   2.325
44922W        W11463  27.211  18.720   1.652
44923W        W11464  44.430  43.855   4.535
44924W        W11465  33.307  23.098  13.436
44925W        W11466  25.767   7.191  11.460
44926W        W11467   9.920  24.820  11.182
44927W        W11468   7.892   3.230   0.238
44928W        W11469  10.946  36.026   4.597
44929W        W11470  34.143   4.001   5.135
44930W        W11471  20.706  30.934  13.002
44931W        W11472   1.717  26.110  13.960
44932W        W11473  15.885   1.451   2.736
44933W        W11474  21.158   4.005  11.421
44934W        W11475   4.709  30.104  12.887
44935W        W11476  42.452  20.468  13.295
44936W        W11477  14.587  23.470  14.965
44937W        W11478  10.419   1.723   0.255
44938W        W11479   3.630  37.905   2.687
44939W        W11480  24.064  24.159  13.379
44940W        W11481  35.909  13.800  12.063
44941W        W11482  12.404  35.264  13.770
44942W        W11483   0.101  36.597  10.913
44943W        W11484  26.599  25.570  14.959
44944W        W11485  42.361   5.000  14.417
44945W        W11486  36.810  36.184   3.650
44946W        W11487   9.587  34.531   1.821
44947W        W11488  26.611   4.701   2.854
44948W        W11489  15.529  27.105   4.569
44949W        W11490  31.334  24.158   1.850
44950W        W11491  28.471  19.031   1.313
44951W        W11492  17.810   9.145   1.282
44952W        W11493  10.889  41.537   1.319
44953W        W11494   6.932  40.204  12.910
44954W        W11495  21.179   7.320  14.620
44955W        W11496   3.686  18.509  13.476
44956W        W11497  19.159  17.130  12.420
44957W        W11498  37.345  39.946   0.813
44958W        W11499   4.287  35.152   1.841
44959W        W11500  24.607   6.858  12.933
44960W        W11501  22.238  25.206   0.361
44961W        W11502  38.521   5.226  10.779
44962W        W11503  18.190  31.011   0.940
44963W        W11504   0.961  34.907  14.382
44964W        W11505  36.308   5.229   0.018
44965W        W11506   2.804  19.503   0.260
44966W        W11507  12.848  41.284  11.088
44967W        W11508  36.864   4.812   4.274
44968W        W11509  25.910  19.067   2.003
44969W        W11510   5.748  38.871   0.303
44970W        W11511  32.618   2.873  14.333
44971W        W11512  21.759  25.017   0.161
44972W        W11513  22.885  22.562   0.474
44973W        W11514  18.602  23.948  11.562
44974W        W11515  37.787   3.497   0.785
44975W        W11516  43.660   4.366   0.018
44976W        W11517   0.346   5.896  12.382
44977W        W11518  28.732  37.580   5.301
44978W        W11519  42.540  33.937   2.406
44979W        W11520  43.421  39.844   1.749
44980W        W11521  35.036  38.761   3.755
44981W        W11522  43.258  11.640   2.013
44982W        W11523  39.128  33.679  12.773
44983W        W11524  32.940  38.494   3.560
44984W        W11525  33.907  39.737  12.042
44985W        W11526  36.406  43.231  12.593
44986W        W11527   1.442  44.405   2.230
44987W        W11528  41.889  38.298   2.199
44988W        W11529  42.718  31.760   2.161
44989W        W11530  13.346  29.243   2.823
44990W        W11531   0.464  12.562   0.284
44991W        W11532   5.500   5.882   3.705
44992W        W11533  34.502  43.426   4.660
44993W        W11534  37.847  12.619  14.454
44994W        W11535  30.350  14.059  14.519
44995W        W11536  17.731   3.487  14.336
44996W        W11537  10.399   9.875  12.511
44997W        W11538  29.269  43.971   3.188
44998W        W11539   2.344  14.651  12.035
44999W        W11540  33.419  33.566  12.431
45000W        W11541  41.447  40.019   2.270
45001W        W11542  31.361  28.366   2.732
45002W        W11543  12.242   3.753   2.643
45003W        W11544   7.369   6.075  14.731
45004W        W11545  19.225  25.640   1.660
45005W        W11546  31.964  35.936   0.514
45006W        W11547   3.909  10.619  13.828
45007W        W11548  23.532  30.148  11.943
45008W        W11549  44.522  41.235  12.386
45009W        W11550  28.929  18.931  14.844
45010W        W11551  20.607  42.302   3.174
45011W        W11552  21.260  23.629   1.857
45012W        W11553   3.700  40.062   1.364
45013W        W11554   6.120  34.101   3.164
45014W        W11555  21.372  44.375   1.706
45015W        W11556   2.993   6.794  12.653
45016W        W11557  35.903  21.996  13.568
45017W        W11558  21.522  39.202   4.850
45018W        W11559   9.312  33.532   3.371
45019W        W11560  17.555   4.172   0.782
45020W        W11561  43.833  31.862  14.044
45021W        W11562  29.161   0.868   1.704
45022W        W11563  38.460  44.263  12.310
45023W        W11564  20.193   0.609  13.579
45024W        W11565  29.270  28.614   0.052
45025W        W11566  42.274  31.541   4.375
45026W        W11567   3.502  20.647  14.596
45027W        W11568  20.684  14.860   0.733
45028W        W11569  20.280  13.544  11.673
45029W        W11570  21.161  30.458   0.015
45030W        W11571  16.704  44.247  14.958
45031W        W11572  27.171  14.561  14.926
45032W        W11573   5.866   0.541  14.441
45033W        W11574   4.490  41.457  11.009
45034W        W11575  36.455   2.015   3.973
45035W        W11576   6.707   7.483  11.645
45036W        W11577  39.488  28.058   0.301
45037W        W11578  28.455   7.840  11.612
45038W        W11579  10.924  40.452  12.479
45039W        W11580  24.258  35.422   3.576
45040W        W11581   0.584  10.493   3.225
45041W        W11582  27.986   8.540   2.155
45042W        W11583  30.899  36.962  11.124
45043W        W11584  40.359  18.649   4.502
45044W        W11585  31.012  44.876   2.422
45045W        W11586  28.845  15.379  11.254
45046W        W11587  38.455  28.351  11.973
45047W        W11588  16.761  23.018   3.772
45048W        W11589  30.617  33.621   0.991
45049W        W11590  35.915  28.137  13.712
45050W        W11591  16.851  17.495   3.971
45051W        W11592   9.669  40.518   0.036
45052W        W11593  28.938  19.307   0.350
45053W        W11594  31.612  29.280  11.577
45054W        W11595  22.243   2.797  14.816
45055W        W11596  12.566  35.482   3.335
45056W        W11597  38.212  11.274   2.165
45057W        W11598  35.354  39.529  12.136
45058W        W11599  25.126  43.771  12.850
45059W        W11600  34.881  31.900   2.197
45060W        W11601  29.888   0.277  12.876
45061W        W11602  39.999   2.265   2.773
45062W        W11603  29.356  31.350   4.934
45063W        W11604  39.459  13.142   3.368
45064W        W11605  26.642  22.067  10.024
45065W        W11606  29.246  16.461  12.717
45066W        W11607  43.292  38.700   0.798
45067W        W11608  41.789  23.342   1.748
45068W        W11609  10.710  21.617  12.351
45069W        W11610  29.536  17.527  10.207
45070W        W11611   2.178  42.436   0.580
45071W        W11612  11.169   3.429  14.397
45072W        W11613  44.027   8.584  14.975
45073W        W11614  16.712  44.261   0.837
45074W        W11615   8.844  13.241  10.618
45075W        W11616  22.654  40.681   4.629
45076W        W11617  44.722  30.126  12.604
45077W        W11618  28.767  25.159   3.073
45078W        W11619  15.373  40.499  11.786
45079W        W11620  38.316  19.179   0.871
45080W        W11621  24.070   9.825  13.882
45081W        W11622  27.173  21.920  14.911
45082W        W11623  21.435   8.960   3.311
45083W        W11624  44.986   2.629   1.095
45084W        W11625  42.876  17.398  11.637
45085W        W11626  30.562   1.569  11.291
45086W        W11627  44.178  24.514   3.677
45087W        W11628  35.023  24.892   3.673
45088W        W11629  23.831  25.860  14.800
45089W        W11630  21.604  18.307   3.507
45090W        W11631   6.136  31.646  12.431
45091W        W11632  34.795  10.697  12.237
45092W        W11633  26.162   1.287  12.505
45093W        W11634  25.267  10.449  13.429
45094W        W11635  17.397  13.572   4.340
45095W        W11636  21.191  14.887   1.687
45096W        W11637   9.632   2.182  14.785
45097W        W11638   2.037  14.256   1.234
45098W        W11639   8.773  37.168  10.731
45099W        W11640  34.848  41.787  10.545
45100W        W11641  40.298   7.863  14.796
45101W        W11642   5.492  25.418  13.118
45102W        W11643  26.573   2.033  10.908
45103W        W11644  26.521  28.653  10.387
45104W        W11645   5.789   3.939  13.891
45105W        W11646  43.068  41.384  11.105
45106W        W11647  15.063  33.913   5.142
45107W        W11648  20.699  15.635  11.083
45108W        W11649  30.740  42.967  11.999
45109W        W11650  13.818  30.708  12.936
45110W        W11651  35.474  15.841  11.640
45111W        W11652  33.752   1.320   5.038
45112W        W11653  14.408  14.540   9.891
45113W        W11654  31.266  40.388  11.667
45114W        W11655   0.183  43.008  11.517
45115W        W11656  29.402  34.212  12.960
45116W        W11657  24.896  10.142  13.130
45117W        W11658  41.357  31.752  12.961
45118W        W11659  23.585   4.981   1.642
45119W        W11660  24.748  43.126  11.713
45120W        W11661   0.074   1.388  11.227
45121W        W11662  36.957   1.465  13.844
45122W        W11663  31.117  35.576   0.286
45123W        W11664   8.802  17.819   4.429
45124W        W11665  43.157   0.361  10.910
45125W        W11666  10.352  21.731   4.644
45126W        W11667  11.180  10.465   1.630
45127W        W11668  38.266   6.207  11.036
45128W        W11669   3.502  35.734   4.793
45129W        W11670  22.451  11.353  12.608
45130W        W11671  26.421  28.572  13.884
45131W        W11672  36.170   5.271   4.257
45132W        W11673  13.842   0.002  13.631
45133W        W11674  30.657  12.520   1.383
45134W        W11675  19.260  28.105  10.822
45135W        W11676  39.503   1.525  12.976
45136W        W11677  40.325   1.776  12.587
45137W        W11678  42.138  22.637   4.819
45138W        W11679  26.272   9.645   3.844
45139W        W11680   5.089  35.679   4.986
45140W        W11681  15.349  33.742   0.857
45141W        W11682  21.713  13.306  11.593
45142W        W11683  19.151  30.500   4.362
45143W        W11684  36.355   1.025   2.836
45144W        W11685  16.547  39.083   2.204
45145W        W11686  23.985  28.827   1.312
45146W        W11687  26.519  20.068   0.227
45147W        W11688  20.535   6.268   3.701
45148W        W11689  18.331  12.487   0.358
45149W        W11690  35.339  24.747   0.672
45150W        W11691  24.309  22.312  14.907
45151W        W11692  34.548  24.022   2.814
45152W        W11693   7.813  36.877  12.830
45153W        W11694  25.580  15.176  12.035
45154W        W11695  22.686   0.878  14.592
45155W        W11696   5.982  40.691  11.814
45156W        W11697   6.319  13.693   2.652
45157W        W11698   9.587  28.115  10.632
45158W        W11699  15.260  11.897   1.855
45159W        W11700  27.238  29.051   1.258
45160W        W11701  13.728   4.197  10.436
45161W        W11702  27.983  33.464   4.374
45162W        W11703  25.672  23.482   5.043
45163W        W11704  28.613   8.152  13.993
45164W        W11705   6.820  13.294   4.470
45165W        W11706  29.774   0.595  11.113
45166W        W11707  14.812  16.038  12.519
45167W        W11708  42.802   7.617   5.028
45168W        W11709  36.449   4.383   1.353
45169W        W11710  11.125  21.571   2.651
45170W        W11711   5.398   8.793   4.814
45171W        W11712  41.588  19.061  11.353
45172W        W11713  42.202  23.507   0.451
45173W        W11714   1.517  15.121   2.593
45174W        W11715  28.118  40.968   0.225
45175W        W11716  41.075   6.821  11.991
45176W        W11717  37.873  30.906   4.574
45177W        W11718   1.381  44.185   1.154
45178W        W11719  40.889  35.016   2.603
45179W        W11720  12.201  34.436  13.100
45180W        W11721  39.116  26.258   1.735
45181W        W11722  44.305  27.505   2.487
45182W        W11723  29.285  14.504   0.987
45183W        W11724  17.098  39.362   1.309
45184W        W11725  36.579  24.089  11.133
45185W        W11726  16.218  14.119   2.481
45186W        W11727  26.166  36.835  14.489
45187W        W11728   9.817   8.083   4.531
45188W        W11729   2.911  21.162   2.791
45189W        W11730  43.399  22.558  11.266
45190W        W11731  39.266  15.149  11.160
45191W        W11732  11.702  32.542   2.527
45192W        W11733   8.447  24.609  14.941
45193W        W11734  17.702  10.802  12.952
45194W        W11735  25.485  36.064   1.359
45195W        W11736   6.183  23.197  14.704
45196W        W11737  35.965  30.560   2.871
45197W        W11738   4.405  27.345   4.498
45198W        W11739   7.269  44.936   2.619
45199W        W11740  18.679   4.379   1.433
45200W        W11741   0.456  19.324  11.509
45201W        W11742  37.620  11.106  12.111
45202W        W11743  32.778  28.998  13.669
45203W        W11744  13.141  17.532  13.791
45204W        W11745   3.346  16.296  10.606
45205W        W11746  26.194  34.361  13.553
45206W        W11747  10.179   2.048  10.637
45207W        W11748  34.209  14.648  14.750
45208W        W11749   5.207  37.331  14.259
45209W        W11750   0.766  43.149   4.121
45210W        W11751  12.271  31.579   3.234
45211W        W11752  15.264   5.304   0.263
45212W        W11753  38.023   3.805   5.481
45213W        W11754   2.103  29.704  12.855
45214W        W11755  31.127  39.913  12.514
45215W        W11756  34.737  43.969   0.176
45216W        W11757  14.803  29.401  10.681
45217W        W11758  30.898  33.942   2.889
45218W        W11759  14.560  39.619   3.189
45219W        W11760  26.101  22.969  12.056
45220W        W11761   8.684  35.130  12.600
45221W        W11762   5.934  10.140   4.507
45222W        W11763  43.810   9.198   4.796
45223W        W11764  17.770  21.620   1.818
45224W        W11765  44.285  10.301   2.683
45225W        W11766  15.234  13.186  10.804
45226W        W11767   2.797  26.533   4.836
45227W        W11768  10.849  33.385  14.328
45228W        W11769  13.397  31.049   2.349
45229W        W11770  26.970  14.343  12.901
45230W        W11771  35.933  39.785   2.790
45231W        W11772  28.492  42.173  12.149
45232W        W11773  30.890  30.688  14.854
45233W        W11774  27.794   9.066   2.346
45234W        W11775   8.707   6.163  10.794
45235W        W11776  21.167  24.690   0.229
45236W        W11777  19.394  31.090  11.644
45237W        W11778  38.728  25.249  11.932
45238W        W11779  20.310  19.389   4.872
45239W        W11780  16.721  26.427  12.902
45240W        W11781  30.965  26.047   0.725
45241W        W11782  18.249  27.642   5.001
45242W        W11783  12.677  44.422  10.337
45243W        W11784  31.935  24.934   3.761
45244W        W11785  10.838  16.180   1.276
45245W        W11786   6.355  37.191  14.464
45246W        W11787  36.527  44.915  10.703
45247W        W11788  32.061  34.069  10.918
45248W        W11789  12.812   2.887   3.948
45249W        W11790  21.103  41.408   2.011
45250W        W11791   0.017  39.097   3.733
45251W        W11792  44.800  22.492  11.160
45252W        W11793  22.345  22.066  11.870
45253W        W11794   3.503  28.927   3.225
45254W        W11795  19.054   8.638   0.400
45255W        W11796   7.185  43.741  12.582
45256W        W11797   2.171  36.880  14.304
45257W        W11798  23.150   1.351  11.495
45258W        W11799   5.789  24.622  14.825
45259W        W11800  17.764  20.565  13.606
45260W        W11801  22.465  38.934  14.209
45261W        W11802  11.674   7.821   0.164
45262W        W11803  26.515  30.838   0.089
45263W        W11804  42.049  27.123   1.884
45264W        W11805  14.373   9.405  11.208
45265W        W11806  10.352  30.624  11.132
45266W        W11807  18.928  16.579   4.227
45267W        W11808  19.484  42.046   3.653
45268W        W11809  23.258  26.507  10.548
45269W        W11810  10.375  38.877   0.295
45270W        W11811  15.206  37.417  10.689
45271W        W11812  42.418  43.698   3.736
45272W        W11813  36.527  41.017   0.423
45273W        W11814   1.450  14.698  11.241
45274W        W11815  40.508  23.981  14.075
45275W        W11816  44.936  11.813   4.025
45276W        W11817   8.892  22.900  14.396
45277W        W11818  18.391  33.565  13.509
45278W        W11819   5.245   3.616   3.581
45279W        W11820  13.858  24.498  12.937
45280W        W11821  27.008  11.730  14.807
45281W        W11822  36.294   9.289   1.261
45282W        W11823  43.690  36.959  11.965
45283W        W11824  41.231  24.096  14.374
45284W        W11825  11.789  39.248  10.894
45285W        W11826  44.999  29.978   0.672
45286W        W11827  17.659  39.209  12.159
45287W        W11828  35.278  43.409   3.111
45288W        W11829   8.329  26.681   3.018
45289W        W11830  12.090  29.097   4.099
45290W        W11831  37.170   3.592   4.892
45291W        W11832   5.753  10.543   1.882
45292W        W11833  31.736   4.411  12.528
45293W        W11834  25.205  35.502   2.252
45294W        W11835  31.294  35.714  14.370
45295W        W11836  34.351   6.020   2.199
45296W        W11837  39.960  25.143   1.411
45297W        W11838  25.228  33.366  13.750
45298W        W11839   3.238  36.101   1.753
45299W        W11840   2.717  25.793  10.219
45300W        W11841  27.916   0.988   1.323
45301W        W11842  21.039  16.080  10.695
45302W        W11843  38.902  36.989  10.616
45303W        W11844  41.802  42.262   3.741
45304W        W11845  10.675  43.882   3.147
45305W        W11846  31.053  36.244   4.606
45306W        W11847   7.786  15.668  12.522
45307W        W11848  32.624  20.537  11.592
45308W        W11849  35.648  32.282  12.980
45309W        W11850  28.157  22.043   1.855
45310W        W11851   6.041  11.578  11.111
45311W        W11852  38.224  21.909  13.935
45312W        W11853   7.288  30.286   2.804
45313W        W11854   1.466  35.832  10.127
45314W        W11855  26.239  18.196   3.505
45315W        W11856  44.545  13.075   2.243
45316W        W11857  30.162   5.317   1.689
45317W        W11858  20.617  19.292  12.403
45318W        W11859  19.084   1.522   1.847
45319W        W11860  28.950   6.278   4.546
45320W        W11861  44.877  11.728  12.833
45321W        W11862  33.810   7.456   4.875
45322W        W11863  36.523  35.338  12.595
45323W        W11864  25.921  20.175  11.915
45324W        W11865  13.119   4.979  10.306
45325W        W11866  18.337  42.309  10.986
45326W        W11867   9.601  34.762  14.098
45327W        W11868  10.071  35.666   4.178
45328W        W11869  34.139  32.652   3.298
45329W        W11870  23.495  43.712  11.135
45330W        W11871  40.944   3.798  12.438
45331W        W11872  38.934  24.056   0.391
45332W        W11873   2.967  22.160   4.573
45333W        W11874   7.776  38.560  13.926
45334W        W11875  28.494   3.366   0.734
45335W        W11876  10.685  24.267  14.852
45336W        W11877  41.703  35.455  10.644
45337W        W11878  22.495  34.645  14.847
45338W        W11879  14.250   3.334   4.192
45339W        W11880  12.365  41.846   0.302
45340W        W11881  31.037  37.609  11.646
45341W        W11882   2.800  13.730   3.213
45342W        W11883  39.455   5.962  10.481
45343W        W11884  23.635  21.137   3.406
45344W        W11885  43.444  33.265  10.851
45345W        W11886  33.865  29.698  11.575
45346W        W11887  16.165  26.715   0.871
45347W        W11888  39.221  25.263   0.778
45348W        W11889  23.861  42.662  14.757
45349W        W11890  30.503   7.321  12.326
45350W        W11891  29.770  35.597   0.280
45351W        W11892  22.227  28.771   0.396
45352W        W11893   7.908  42.009  12.467
45353W        W11894  24.641   3.764   2.571
45354W        W11895  25.062   8.975   1.836
45355W        W11896  33.189  22.071  11.038
45356W        W11897  39.868  27.435  11.663
45357W        W11898  28.005  35.871   2.653
45358W        W11899  33.698  39.094  14.532
45359W        W11900  23.696  15.952  11.130
45360W        W11901  30.009   8.675   3.725
45361W        W11902  28.267   5.325   1.755
45362W        W11903  33.603  28.618   2.432
45363W        W11904  33.564  24.855   3.711
45364W        W11905  21.989  25.076   4.065
45365W        W11906  33.573  24.904   4.610
45366W        W11907  43.713   7.053  12.407
45367W        W11908  11.069  35.156  13.071
45368W        W11909  24.790  15.289   0.275
45369W        W11910  22.308  40.991  13.122
45370W        W11911  18.728  23.110  11.053
45371W        W11912   8.968  22.380  14.348
45372W        W11913   7.793   3.506   3.608
45373W        W11914  33.307  39.892   1.950
45374W        W11915  22.379  12.282   3.693
45375W        W11916  20.483  44.770  11.628
45376W        W11917  39.356  38.883  10.292
45377W        W11918  32.928  24.043  13.937
45378W        W11919   0.127  27.955  13.924
45379W        W11920  27.961  42.932  12.584
45380W        W11921  18.542  27.008  11.614
45381W        W11922  10.169  20.930  10.367
45382W        W11923  23.836  39.769  12.203
45383W        W11924  23.959  14.852   4.165
45384W        W11925  30.579  23.135   4.867
45385W        W11926  16.801  15.333  14.977
45386W        W11927  41.855   1.638  14.480
45387W        W11928  24.134  40.175  14.390
45388W        W11929  18.142  29.264  14.838
45389W        W11930  16.288  26.161   3.646
45390W        W11931  41.957  25.599   4.204
45391W        W11932  15.059  41.472  13.974
45392W        W11933  25.417  37.297   4.083
45393W        W11934  10.949  43.812   3.634
45394W        W11935   2.824   4.199   0.345
45395W        W11936  10.840  12.574   0.773
45396W        W11937  18.595  29.484   4.548
45397W        W11938  16.076  14.265   2.949
45398W        W11939  22.945  16.510  14.981
45399W        W11940  43.085  42.789  12.494
45400W        W11941  13.896  21.803  11.122
45401W        W11942  16.750  20.131  10.928
45402W        W11943  23.074   5.878   1.734
45403W        W11944  20.116  41.949   4.875
45404W        W11945  29.363  12.273   0.985
45405W        W11946  19.757  15.253  14.859
45406W        W11947  13.605  32.024   4.897
45407W        W11948  16.344  13.270  14.724
45408W        W11949  12.874  22.534   1.294
45409W        W11950  17.984  13.115  14.071
45410W        W11951   1.409  20.148   1.717
45411W        W11952  42.300  38.079   3.413
45412W        W11953  36.376  24.022  13.000
45413W        W11954  34.088  12.627  10.700
45414W        W11955  35.400   5.531   9.813
45415W        W11956  26.913   2.956  11.988
45416W        W11957  22.127  36.989   2.257
45417W        W11958  20.516   1.475   0.381
45418W        W11959  28.525  42.186  13.069
45419W        W11960  34.161   5.282   1.482
45420W        W11961  29.431  19.146   0.474
45421W        W11962  15.066  29.613   2.706
45422W        W11963  25.316  33.773   0.230
45423W        W11964  44.718  40.890  13.566
45424W        W11965   2.971  13.541  13.094
45425W        W11966   1.356   3.837  10.884
45426W        W11967  24.848  32.668  11.146
45427W        W11968  17.828   1.329  13.988
45428W        W11969  38.591  25.940  13.503
45429W        W11970   4.774  30.131   4.042
45430W        W11971  40.049  36.031  12.922
45431W        W11972  32.573  29.981   4.525
45432W        W11973   9.948   5.174   0.704
45433W        W11974  13.580  42.964  11.161
45434W        W11975  28.816   3.047  14.508
45435W        W11976   0.603  13.297  14.937
45436W        W11977  38.889  35.252  10.419
45437W        W11978  33.914  26.033   1.437
45438W        W11979  41.028  32.601   4.357
45439W        W11980  22.124  37.561  11.556
45440W        W11981   3.233  34.059   1.187
45441W        W11982  38.461  40.525  12.907
45442W        W11983  44.637  15.779   1.289
45443W        W11984  10.614  42.010   1.363
45444W        W11985  20.090   0.139  11.561
45445W        W11986  15.017   9.409   3.544
45446W        W11987  27.663  30.451  10.639
45447W        W11988   1.335  15.282  12.116
45448W        W11989  43.315  25.954   2.329
45449W        W11990  25.086  24.293  12.952
45450W        W11991  24.527  11.833   4.084
45451W        W11992  38.552   0.114  11.373
45452W        W11993   2.384   0.521   2.286
45453W        W11994  10.258   9.835  13.027
45454W        W11995  37.513  29.010  10.710
45455W        W11996   6.380   4.973  10.964
45456W        W11997  30.228   8.576  11.980
45457W        W11998   3.269  15.770  10.570
45458W        W11999  19.781  25.533   0.938
45459W        W12000  18.250  29.383   3.876
45460W        W12001  31.086   2.416  12.838
45461W        W12002   2.373  10.167   4.195
45462W        W12003  31.965  23.945   3.671
45463W        W12004  39.511  30.569   0.679
45464W        W12005  19.292   5.639   2.170
45465W        W12006  22.500  11.085  12.189
45466W        W12007   4.107  23.567  14.287
45467W        W12008  16.500  14.005   4.570
45468W        W12009  17.692   1.339   2.327
45469W        W12010  14.816  22.254   2.764
45470W        W12011  29.039  33.855  12.559
45471W        W12012  21.988  16.291  12.937
45472W        W12013  20.163  40.215  14.435
45473W        W12014  10.793  15.196   4.025
45474W        W12015  12.800  41.885   3.109
45475W        W12016  28.294  11.671   4.490
45476W        W12017  38.979   2.189  11.738
45477W        W12018   2.249  18.980  10.923
45478W        W12019   3.269  38.361  12.849
45479W        W12020  42.342  26.380   4.625
45480W        W12021   4.671  20.871  14.857
45481W        W12022  12.629  27.785  13.555
45482W        W12023  38.099  41.320   4.580
45483W        W12024  20.163   8.667   3.654
45484W        W12025  20.727  39.773   3.165
45485W        W12026  44.002  27.002  11.834
45486W        W12027  44.730  40.288  10.694
45487W        W12028  38.881   2.683  13.085
45488W        W12029  21.207  25.017   2.373
45489W        W12030  24.991  44.249   5.010
45490W        W12031  28.086  14.856   3.828
45491W        W12032  23.737  27.330  13.576
45492W        W12033  17.645  28.104  13.522
45493W        W12034  39.168   8.795   4.230
45494W        W12035   2.765  10.180  11.103
45495W        W12036  37.860  18.193  12.282
45496W        W12037  33.887  12.710   0.347
45497W        W12038  10.886  32.683  14.877
45498W        W12039  27.120  39.926   3.279
45499W        W12040  12.227  16.637   1.843
45500W        W12041   7.303   4.774   0.804
45501W        W12042  43.616  24.040   2.708
45502W        W12043   3.392  30.752   5.455
45503W        W12044  34.537  14.744   3.340
45504W        W12045  37.590   7.002   0.648
45505W        W12046  17.823  31.275   5.535
45506W        W12047  26.094   7.786   3.692
45507W        W12048  29.588  18.719   2.069
45508W        W12049   5.923  22.697   1.159
45509W        W12050   4.090   0.004  14.057
45510W        W12051  31.418  11.831   1.348
45511W        W12052  22.716  36.358  13.781
45512W        W12053  10.815  41.782   2.290
45513W        W12054  40.322   8.749  13.824
45514W        W12055  43.938  38.695  13.695
45515W        W12056  14.417  36.074   3.319
45516W        W12057  38.301  17.063  10.718
45517W        W12058  42.284  34.158   4.106
45518W        W12059   1.983  11.747   0.746
45519W        W12060  38.421   6.717  14.149
45520W        W12061   8.224  13.588   0.614
45521W        W12062  21.671  31.401   2.943
45522W        W12063  41.328  36.379  11.428
45523W        W12064  27.196   4.897   1.069
45524W        W12065  30.447  43.112  11.599
45525W        W12066  15.327   5.353  14.350
45526W        W12067  10.721  26.570  11.729
45527W        W12068  13.795  35.952  13.994
45528W        W12069  15.658  35.338  13.015
45529W        W12070   7.331  40.571  12.031
45530W        W12071  11.758  34.100  14.383
45531W        W12072  32.407   0.010  12.384
45532W        W12073  22.129  23.457   0.798
45533W        W12074  31.874  40.466   0.336
45534W        W12075   8.339  28.856   3.732
45535W        W12076  33.131   3.816  12.052
45536W        W12077  26.962  30.365  11.158
45537W        W12078  37.588  22.581  11.986
45538W        W12079  12.491  34.283  10.059
45539W        W12080  37.796   7.696   2.168
45540W        W12081  40.538   4.371   3.735
45541W        W12082  32.033  21.238  13.483
45542W        W12083  20.954   9.582  13.833
45543W        W12084  41.357  39.490   3.722
45544W        W12085  39.656  32.939  12.025
45545W        W12086  41.923   6.237   1.544
45546W        W12087  29.478   8.164  14.536
45547W        W12088  13.120  40.896  10.770
45548W        W12089  14.844  29.410   9.836
45549W        W12090  21.553   5.838   2.767
45550W        W12091  25.765  13.559  11.311
45551W        W12092   3.634  37.024  12.027
45552W        W12093  30.291  24.674   4.181
45553W        W12094   6.782  22.725   0.503
45554W        W12095  13.813  16.898  13.717
45555W        W12096  36.003   1.807  10.671
45556W        W12097  16.165   6.993   3.222
45557W        W12098   6.141  42.957   3.605
45558W        W12099  14.194  34.374  13.053
45559W        W12100  33.458  10.861  12.899
45560W        W12101  20.184  31.163   0.098
45561W        W12102  35.304  22.572   2.075
45562W        W12103  35.420   7.586   0.447
45563W        W12104  35.602   2.266   3.764
45564W        W12105  30.420   0.923  14.523
45565W        W12106  23.243  22.894   4.502
45566W        W12107   4.457  18.411  14.904
45567W        W12108   6.197   3.336   0.749
45568W        W12109  33.939  37.355   2.465
45569W        W12110  14.742  11.408   1.296
45570W        W12111  20.522  15.340   0.825
45571W        W12112  31.193   5.405   0.442
45572W        W12113  33.130  17.042   2.190
45573W        W12114  38.874   3.403   3.195
45574W        W12115  16.825  39.824  14.275
45575W        W12116  20.324   4.730  12.525
45576W        W12117  19.626   0.287   3.179
45577W        W12118  30.126  39.815  14.017
45578W        W12119   3.487  19.295   3.760
45579W        W12120  28.493  42.947  14.473
45580W        W12121  24.909   5.118   1.343
45581W        W12122  20.735  34.599  11.161
45582W        W12123  36.250  15.203   0.322
45583W        W12124   3.880  11.991   0.815
45584W        W12125   0.961   7.738   1.492
45585W        W12126   0.532  20.783  11.699
45586W        W12127  12.125   5.187   0.316
45587W        W12128  14.487  28.252  12.517
45588W        W12129  26.471  40.720  11.093
45589W        W12130  23.582  35.902   0.238
45590W        W12131  41.063  12.606   2.763
45591W        W12132   7.699  40.832   4.967
45592W        W12133   7.317  35.372  13.059
45593W        W12134  40.462  36.515  11.247
45594W        W12135  31.543  41.370   1.501
45595W        W12136  23.509   6.933  14.755
45596W        W12137  36.843  27.805  14.870
45597W        W12138  20.117  22.570   0.009
45598W        W12139  27.261  15.966  13.165
45599W        W12140  30.406   9.303   1.804
45600W        W12141  13.015   1.261  13.924
45601W        W12142   1.841   0.402   4.458
45602W        W12143  31.505  19.669  11.633
45603W        W12144  12.641  23.183  12.629
45604W        W12145  23.180  27.816  11.909
45605W        W12146  25.013  16.626  10.743
45606W        W12147   4.335  30.462   1.722
45607W        W12148  35.438  26.921  11.145
45608W        W12149   3.324   6.266   1.319
45609W        W12150  15.419  24.717   3.133
45610W        W12151  13.315  19.719  14.669
45611W        W12152  38.148  31.983  11.929
45612W        W12153  34.477  12.316  12.466
45613W        W12154  17.608  34.647  11.236
45614W        W12155  44.908  36.082  12.109
45615W        W12156   4.856   2.263  14.009
45616W        W12157   5.654  41.095  10.640
45617W        W12158  20.486  31.942  10.120
45618W        W12159  12.299  25.156   3.880
45619W        W12160  31.658  30.996   4.651
45620W        W12161  35.211  18.485  14.061
45621W        W12162  36.188  20.764   0.979
45622W        W12163  34.478  16.243  11.003
45623W        W12164  33.904  12.567  11.546
45624W        W12165  30.691  26.954   4.428
45625W        W12166  22.998  44.923  13.867
45626W        W12167  19.296  18.163   3.041
45627W        W12168  13.943   6.951  10.629
45628W        W12169  33.394  18.458  10.317
45629W        W12170  43.506  12.899  14.384
45630W        W12171  37.578  20.158   1.194
45631W        W12172  10.560  34.413  13.374
45632W        W12173  16.500   7.443  12.437
45633W        W12174  24.574   5.561  12.330
45634W        W12175  38.847  23.469  10.742
45635W        W12176  33.083  14.354   0.901
45636W        W12177  13.827  11.821   3.079
45637W        W12178  24.261  13.612   0.661
45638W        W12179  27.870  29.042   1.956
45639W        W12180  35.796   7.660   4.231
45640W        W12181   2.235   3.298   3.166
45641W        W12182   5.693   2.310   0.537
45642W        W12183  26.625  39.612  14.178
45643W        W12184   8.903  25.543  12.839
45644W        W12185  10.837   5.960  12.019
45645W        W12186   1.251  19.666   2.445
45646W        W12187  29.035  43.842   2.718
45647W        W12188  26.598  24.428   3.226
45648W        W12189   1.765  43.013  10.677
45649W        W12190  38.124  36.101   1.320
45650W        W12191   8.837   0.480   0.231
45651W        W12192   9.938  44.361   2.239
45652W        W12193  26.108  38.373   0.857
45653W        W12194  12.509  14.778   0.330
45654W        W12195  44.152  14.869   3.642
45655W        W12196  15.291  36.107  13.959
45656W        W12197   8.917   5.067   1.785
45657W        W12198   1.291   6.848  13.580
45658W        W12199  14.367  27.067   4.215
45659W        W12200  26.746   2.155  10.404
45660W        W12201  37.971  25.092   2.185
45661W        W12202  27.186  31.506   0.514
45662W        W12203   9.144   4.753  11.317
45663W        W12204  19.066   1.784   2.841
45664W        W12205  32.811  28.714  11.965
45665W        W12206   4.754   9.999  10.437
45666W        W12207   0.153  24.046   3.015
45667W        W12208  40.872  29.067   4.424
45668W        W12209  11.812  29.533  14.106
45669W        W12210   8.527   5.392  14.530
45670W        W12211  38.741  13.350   3.576
45671W        W12212   9.928  16.020  11.052
45672W        W12213  33.912  17.117   2.286
45673W        W12214  44.394  10.755  14.491
45674W        W12215  21.666  24.495   0.236
45675W        W12216  22.597   9.855  11.678
45676W        W12217  21.664  13.908  12.373
45677W        W12218  31.532  39.388   0.927
45678W        W12219  40.337  43.914   3.441
45679W        W12220   7.188  41.818   0.384
45680W        W12221   8.916   0.933   1.389
45681W        W12222   2.444  10.524   1.232
45682W        W12223  38.379  35.708  11.043
45683W        W12224  15.118  36.494   2.262
45684W        W12225  43.006   4.961  13.027
45685W        W12226  41.467  24.136  13.872
45686W        W12227  20.835  14.153   4.283
45687W        W12228   6.331  15.556   3.964
45688W        W12229   2.562  23.100  11.130
45689W        W12230  27.219  43.968   3.807
45690W        W12231  24.755   0.950   2.337
45691W        W12232  44.501  41.328   3.651
45692W        W12233   6.214  41.907  11.709
45693W        W12234  11.594  13.317   1.806
45694W        W12235  24.454  35.571   4.044
45695W        W12236  18.183   1.038   3.341
45696W        W12237  29.572   1.057  11.183
45697W        W12238  13.635  41.763   3.474
45698W        W12239  41.355  28.994  10.703
45699W        W12240   4.087  23.525   0.626
45700W        W12241  14.878  32.693   2.529
45701W        W12242   5.724   0.519  12.920
45702W        W12243  25.270  36.794   1.299
45703W        W12244   4.764  12.386   4.392
45704W        W12245  26.562  13.408  13.864
45705W        W12246  33.866   0.901   4.014
45706W        W12247  19.055  40.090   4.542
45707W        W12248  33.650  29.626   2.647
45708W        W12249  43.404   4.302  12.909
45709W        W12250  15.016  40.972  13.656
45710W        W12251   8.385  17.334  14.997
45711W        W12252  14.907   8.905  13.419
45712W        W12253  30.531  13.553  14.506
45713W        W12254  41.974  32.919   2.373
45714W        W12255  12.169  44.440   0.008
45715W        W12256  40.936  33.842   0.035
45716W        W12257  16.443  42.255   3.686
45717W        W12258  22.245  17.089  12.543
45718W        W12259   4.949   9.292   3.185
45719W        W12260   0.481  44.883   3.627
45720W        W12261  37.433  35.447  13.332
45721W        W12262  28.156  40.105  14.925
45722W        W12263  34.087  34.479   4.822
45723W        W12264  28.944  26.997   2.017
45724W        W12265   8.346  24.163  13.245
45725W        W12266  40.861  37.549  11.361
45726W        W12267   8.354   6.685   0.988
45727W        W12268  26.754   6.503  13.409
45728W        W12269  42.065  34.949   3.629
45729W        W12270  36.319   7.695   4.204
45730W        W12271  34.100  14.134  14.782
45731W        W12272  19.511  20.963  12.513
45732W        W12273   8.738  44.389  13.445
45733W        W12274   1.971  34.609  13.746
45734W        W12275   0.431  31.956  13.103
45735W        W12276   7.024  11.823   0.359
45736W        W12277  27.040  41.670  12.182
45737W        W12278  20.891  34.089  13.712
45738W        W12279   8.318  26.521  10.611
45739W        W12280  29.738  36.995  12.100
45740W        W12281  19.191  16.225   4.572
45741W        W12282  25.742  36.142  13.406
45742W        W12283  23.298  44.839   0.457
45743W        W12284   8.317  33.754   0.737
45744W        W12285   8.330  41.073   2.686
45745W        W12286   2.001  18.052   4.155
45746W        W12287  20.615  39.509   0.503
45747W        W12288  25.029  23.266   0.953
45748W        W12289  10.347  31.694  13.075
45749W        W12290  27.998  27.873   3.673
45750W        W12291  44.821  15.111   4.558
45751W        W12292  37.102  44.513  13.591
45752W        W12293  28.653  14.409   2.195
45753W        W12294  23.611   6.464   2.042
45754W        W12295  20.257  36.275   4.731
45755W        W12296   7.287   7.808   0.938
45756W        W12297   4.234   4.438  13.055
45757W        W12298  37.857  14.423  10.965
45758W        W12299  40.993  10.773  14.422
45759W        W12300   1.923  44.481  11.883
45760W        W12301   8.684  30.578  13.770
45761W        W12302  34.153  38.006  13.495
45762W        W12303  11.607   3.963   3.396
45763W        W12304  26.651  43.527   0.022
45764W        W12305  43.951  33.567  14.344
45765W        W12306   2.659  15.248   1.236
45766W        W12307  13.571  40.341   1.009
45767W        W12308  26.373  35.792   4.153
45768W        W12309  25.894  20.656  14.166
45769W        W12310  39.798  17.915  13.430
45770W        W12311  35.590   4.509  14.728
45771W        W12312  35.573  43.205   3.625
45772W        W12313  16.088   6.655  12.022
45773W        W12314  28.160  39.890   2.881
45774W        W12315  29.619  40.600  12.864
45775W        W12316  38.368   7.352  10.472
45776W        W12317  15.581   6.873   1.696
45777W        W12318  19.465  18.949  13.880
45778W        W12319  27.485   5.569  12.010
45779W        W12320   5.196  18.582   1.781
45780W        W12321   1.464  21.475  14.759
45781W        W12322   2.346  30.659  13.558
45782W        W12323  40.783   4.897  10.921
45783W        W12324   0.226  25.830   4.266
45784W        W12325  44.678   3.560  13.836
45785W        W12326  24.927   9.584  12.118
45786W        W12327  38.768   2.805  11.153
45787W        W12328  11.008  31.970  14.107
45788W        W12329  27.930  13.711  14.561
45789W        W12330  41.602   9.130  14.738
45790W        W12331  16.640  20.582  11.154
45791W        W12332  41.587  10.010   5.081
45792W        W12333   4.207  42.093  12.244
45793W        W12334  35.514   5.311   2.622
45794W        W12335  44.763   8.309   0.716
45795W        W12336  33.188  34.500   2.598
45796W        W12337  34.457  10.309   2.835
45797W        W12338  12.723  39.053  14.977
45798W        W12339  18.353  22.462   4.186
45799W        W12340  43.746  10.370  12.855
45800W        W12341  32.906  18.601   3.615
45801W        W12342   9.362  16.431   3.593
45802W        W12343  10.902  38.841  11.987
45803W        W12344  13.854  42.053   3.124
45804W        W12345  38.110  28.496   3.767
45805W        W12346  31.388  30.488   3.377
45806W        W12347  36.051  12.954   1.257
45807W        W12348  42.115  23.939   0.197
45808W        W12349  13.614  11.877  10.773
45809W        W12350  39.798   8.315   1.862
45810W        W12351  25.781  19.278  12.456
45811W        W12352  19.590  13.118   4.136
45812W        W12353   7.744   3.756  14.469
45813W        W12354  43.306  27.875  13.555
45814W        W12355  29.682  16.646   3.348
45815W        W12356  13.393  11.599   1.144
45816W        W12357  17.878  37.191  11.517
45817W        W12358  15.627  28.621   3.627
45818W        W12359  23.209   4.667  14.678
45819W        W12360  43.049  33.098   4.708
45820W        W12361  37.944  40.592  11.126
45821W        W12362  10.370  16.223  11.997
45822W        W12363  29.211  25.059   2.296
45823W        W12364  10.254  24.535  13.431
45824W        W12365   2.257  31.506   2.601
45825W        W12366   0.950  33.473   3.558
45826W        W12367  44.393  10.983   4.879
45827W        W12368  16.124  27.422   4.133
45828W        W12369  21.553  12.048  13.379
45829W        W12370  19.561  35.916  14.641
45830W        W12371  13.690  22.276  12.366
45831W        W12372  29.810  17.203  12.307
45832W        W12373   7.459  42.312   3.667
45833W        W12374   3.839   5.927  13.806
45834W        W12375  32.140  20.270  12.082
45835W        W12376   5.566  34.304  11.090
45836W        W12377   3.915   5.926   4.474
45837W        W12378  25.179  34.421  12.586
45838W        W12379  23.412  11.990   0.826
45839W        W12380  30.416  16.242  14.790
45840W        W12381  33.891  13.449  13.976
45841W        W12382   3.048  33.771   3.378
45842W        W12383  11.276  17.736   2.673
45843W        W12384   3.211  39.707  14.435
45844W        W12385  34.845  32.025  12.927
45845W        W12386   8.243   2.968  13.482
45846W        W12387  43.504  41.263  11.917
45847W        W12388  15.192  18.063  12.346
45848W        W12389   2.532   8.714   5.021
45849W        W12390  14.131   4.555  12.482
45850W        W12391  24.674  16.633  14.512
45851W        W12392   8.180  33.993  12.017
45852W        W12393  20.343   4.402   2.370
45853W        W12394  37.522  43.370   3.113
45854W        W12395  25.490  11.350   2.717
45855W        W12396  36.530  25.651   0.195
45856W        W12397  19.754  12.699  14.312
45857W        W12398   0.226   0.569  11.692
45858W        W12399  24.773   5.399   1.781
45859W        W12400  38.763   3.011  13.948
45860W        W12401  39.499  15.355   3.059
45861W        W12402   8.401  25.212   0.539
45862W        W12403  12.955  43.868  11.048
45863W        W12404  28.613   9.528   0.464
45864W        W12405  37.419  12.465  13.155
45865W        W12406   6.368  42.315   2.317
45866W        W12407  10.717  19.859   4.649
45867W        W12408  37.880  20.501   2.666
45868W        W12409   0.397   6.909   2.316
45869W        W12410  36.358  32.258  11.243
45870W        W12411  18.353  34.932   3.485
45871W        W12412   8.126  15.543  12.099
45872W        W12413   2.437   8.775   0.857
45873W        W12414  22.533  18.775  10.798
45874W        W12415  43.355   6.236   2.490
45875W        W12416  41.542  29.178  13.847
45876W        W12417  34.121  12.643   4.692
45877W        W12418  12.277   4.459  12.160
45878W        W12419  38.869  20.821  12.567
45879W        W12420   9.425  33.326  11.232
45880W        W12421  20.517  34.613   5.081
45881W        W12422  20.086   1.195   0.437
45882W        W12423  20.205  31.845  14.372
45883W        W12424  30.111   9.483   4.736
45884W        W12425  25.427  11.423  13.457
45885W        W12426  33.572  22.057  12.021
45886W        W12427   9.979  18.807  14.620
45887W        W12428  26.452   0.243   2.331
45888W        W12429  17.708  42.774  11.498
45889W        W12430   3.935  37.200   4.597
45890W        W12431  29.983  43.332  14.003
45891W        W12432  22.364  27.010  12.573
45892W        W12433  39.916  19.848   3.782
45893W        W12434  31.952   3.238   4.541
45894W        W12435   8.192  24.484  12.853
45895W        W12436  15.302   0.487  10.450
45896W        W12437  12.315   7.862  14.847
45897W        W12438   6.994  18.964   0.292
45898W        W12439  43.745  29.062  14.570
45899W        W12440   6.655  27.225   2.434
45900W        W12441  26.111  17.317   0.709
45901W        W12442  44.324   4.457  14.224
45902W        W12443  38.573   0.829   2.352
45903W        W12444   2.303   1.377  10.377
45904W        W12445  27.905  10.742   0.869
45905W        W12446   5.357  38.251   1.783
45906W        W12447  33.532  25.381   4.436
45907W        W12448  21.617  15.035   0.433
45908W        W12449   7.322  14.262  11.492
45909W        W12450  15.350  23.003   3.782
45910W        W12451  20.793   2.752   1.767
45911W        W12452   0.049  39.513   4.951
45912W        W12453  35.912  10.614   2.717
45913W        W12454  21.066  44.784  10.727
45914W        W12455  25.056   9.160  10.659
45915W        W12456  11.064   7.281   4.705
45916W        W12457  31.731  43.007  12.912
45917W        W12458  38.849  28.602  13.586
45918W        W12459  21.090   8.391  14.507
45919W        W12460  36.455  35.847   3.759
45920W        W12461   6.443  16.241   1.675
45921W        W12462  25.540  24.459  11.599
45922W        W12463   3.952  30.144  11.104
45923W        W12464  28.923  34.001   3.658
45924W        W12465  23.063  36.613   1.464
45925W        W12466  37.331  44.065  14.307
45926W        W12467  21.579  31.495  11.763
45927W        W12468  31.631   8.635   1.657
45928W        W12469  33.891  23.143  10.845
45929W        W12470  29.236  21.660  10.398
45930W        W12471   4.297   9.295  12.146
45931W        W12472  30.637  19.617  11.450
45932W        W12473   4.317  35.272  13.055
45933W        W12474  14.642  30.460   2.245
45934W        W12475  10.471  16.272   0.797
45935W        W12476  16.745  15.242  12.017
45936W        W12477  42.675   9.778  14.247
45937W        W12478  12.410   4.702   3.506
45938W        W12479   5.453  21.576   0.022
45939W        W12480  16.675  14.461   3.721
45940W        W12481  22.231   8.382  11.442
45941W        W12482  11.420  26.286  13.106
45942W        W12483  28.255   3.688   2.341
45943W        W12484  35.415  22.165  10.771
45944W        W12485  37.920  10.125  12.825
45945W        W12486  11.147  30.442   2.446
45946W        W12487   7.571  10.958   2.786
45947W        W12488   7.695  28.340   0.647
45948W        W12489  34.157  14.900  13.461
45949W        W12490   6.660  40.119   4.345
45950W        W12491  30.149  44.989   2.243
45951W        W12492  32.424  35.011   0.288
45952W        W12493  29.418  36.328  12.993
45953W        W12494   9.366  21.739   0.988
45954W        W12495  11.295  39.059  10.703
45955W        W12496  36.401  11.390  11.976
45956W        W12497  13.141  11.379   0.561
45957W        W12498  31.991  12.517   1.626
45958W        W12499   4.559  36.876   4.611
45959W        W12500  25.581   0.885  14.315
45960W        W12501  42.860  18.251  14.492
45961W        W12502   3.996  26.120   0.157
45962W        W12503  13.847  43.435  12.527
45963W        W12504  42.198  26.504   0.392
45964W        W12505   7.309  39.080  14.774
45965W        W12506  28.134  20.143  13.834
45966W        W12507  14.143  25.735   3.577
45967W        W12508  32.553   0.876  11.456
45968W        W12509  20.067  16.713   2.125
45969W        W12510   4.747  10.875   4.175
45970W        W12511  42.812  19.531  11.883
45971W        W12512  29.484  10.853  14.794
45972W        W12513   5.046  33.710  13.804
45973W        W12514  21.209  39.436   3.881
45974W        W12515  15.900   7.541  11.119
45975W        W12516  39.321   5.340   2.774
45976W        W12517   5.470  18.411  10.965
45977W        W12518  12.199  40.336  13.995
45978W        W12519   1.352   8.857  14.195
45979W        W12520  25.367  43.889   5.050
45980W        W12521  30.714  31.576  14.308
45981W        W12522   0.401  40.803   0.953
45982W        W12523  41.807  28.284   4.917
45983W        W12524   8.603  31.139  14.864
45984W        W12525  27.082   5.807   4.155
45985W        W12526  37.200  40.990  14.881
45986W        W12527   5.312  12.233  13.383
45987W        W12528  38.476   0.748  14.348
45988W        W12529  12.684  42.804  12.342
45989W        W12530  18.944  11.683   2.622
45990W        W12531   7.710   9.848  13.671
45991W        W12532   9.670   6.205   2.929
45992W        W12533   9.694   5.340  10.673
45993W        W12534  38.805  14.157  14.388
45994W        W12535   8.790  33.449   2.255
45995W        W12536  17.156  40.875   0.275
45996W        W12537  18.345  11.734   1.784
45997W        W12538  38.418  44.738  12.493
45998W        W12539  18.250  39.501  11.057
45999W        W12540  37.847  12.814   0.909
46000W        W12541  19.746  38.374   0.958
46001W        W12542   4.502   9.773  12.116
46002W        W12543  19.032   0.330  12.452
46003W        W12544   1.194   0.912   4.751
46004W        W12545  42.618  19.659  12.782
46005W        W12546  34.955  32.039   1.165
46006W        W12547  12.953  37.715   1.866
46007W        W12548  20.174  12.236   0.872
46008W        W12549  44.813  34.506  10.190
46009W        W12550  10.386   2.846   3.911
46010W        W12551  44.088   4.892  12.998
46011W        W12552  17.117   7.236  14.760
46012W        W12553  19.767  38.093  10.647
46013W        W12554  20.099  22.436  12.644
46014W        W12555  36.037  25.216  13.592
46015W        W12556  12.550   9.686   1.078
46016W        W12557  15.354  31.690   5.045
46017W        W12558  34.155  13.060   1.221
46018W        W12559   9.601  32.702  14.376
46019W        W12560  10.242  11.363  14.075
46020W        W12561  31.733  26.652  10.240
46021W        W12562  20.109   1.211   1.306
46022W        W12563  10.670  20.850   2.640
46023W        W12564  12.372   1.461  13.312
46024W        W12565  21.761  42.883  12.443
46025W        W12566  10.691  31.884   3.650
46026W        W12567   0.792  33.867   2.309
46027W        W12568   3.323  40.265   1.702
46028W        W12569   7.165  34.174   3.192
46029W        W12570   2.832  35.304  14.328
46030W        W12571  31.725   4.986   4.111
46031W        W12572  31.252  30.051   4.175
46032W        W12573  38.936   7.129   3.252
46033W        W12574  19.627   4.335   4.244
46034W        W12575   2.663   8.295   0.870
46035W        W12576  33.549  14.590   0.845
46036W        W12577  23.553  15.966   2.703
46037W        W12578  35.102  13.397   2.235
46038W        W12579  24.167  24.936   0.263
46039W        W12580  43.226  44.985   0.731
46040W        W12581  36.515  19.417   1.832
46041W        W12582  12.579  25.395  12.482
46042W        W12583  17.967  24.328   4.238
46043W        W12584  33.777   9.599   3.621
46044W        W12585  15.141  37.106  14.220
46045W        W12586  33.297   7.879  14.905
46046W        W12587  36.601  36.565  12.126
46047W        W12588  28.413  33.883   1.765
46048W        W12589  38.507  10.256  14.912
46049W        W12590   1.763  32.675  10.749
46050W        W12591  16.111  13.191  12.522
46051W        W12592  26.850  44.648   4.104
46052W        W12593  31.982  28.657   1.172
46053W        W12594  23.941   6.638  14.491
46054W        W12595  33.165   5.573   0.630
46055W        W12596  42.687  21.561  12.294
46056W        W12597  42.795   1.891  12.500
46057W        W12598   1.429  11.670  11.613
46058W        W12599  27.713  12.885   1.356
46059W        W12600  33.067  44.202  11.156
46060W        W12601   8.944   8.636   0.266
46061W        W12602   5.916   8.168  12.443
46062W        W12603   2.149  28.186   0.382
46063W        W12604   8.760  29.621  12.956
46064W        W12605  16.339  44.306  14.614
46065W        W12606  13.078  41.388  10.639
46066W        W12607   0.375  24.598  14.339
46067W        W12608  34.928  22.150  11.018
46068W        W12609  32.399   8.018  11.029
46069W        W12610   7.326  19.346  11.606
46070W        W12611  14.915  14.652   3.184
46071W        W12612  22.515  27.136   1.852
46072W        W12613  29.428   5.629  10.591
46073W        W12614   1.776  19.180  10.659
46074W        W12615  35.808  42.459  11.604
46075W        W12616  28.008  40.311  10.663
46076W        W12617   1.636  41.024  13.426
46077W        W12618  24.144  31.720  12.844
46078W        W12619  43.336  28.888   2.551
46079W        W12620  44.418   0.757  13.969
46080W        W12621  26.229   0.012  12.529
46081W        W12622  17.182  16.344  10.930
46082W        W12623  28.921  22.051  14.824
46083W        W12624  28.037  17.396   2.818
46084W        W12625  18.044  27.465  11.002
46085W        W12626  28.523  41.767   2.743
46086W        W12627  10.623  33.077   4.693
46087W        W12628  42.599  30.548  14.055
46088W        W12629  43.976  26.446  12.742
46089W        W12630  30.085   0.995  11.267
46090W        W12631   4.152  41.221  13.870
46091W        W12632  35.724  20.264  14.552
46092W        W12633  37.963   5.347   4.170
46093W        W12634  37.966   4.941  12.461
46094W        W12635  30.338  14.843  12.955
46095W        W12636  26.957  26.709   0.448
46096W        W12637  11.556  28.026  13.025
46097W        W12638  19.705  43.216  13.293
46098W        W12639  23.729  33.345   4.280
46099W        W12640  27.801  36.392  11.481
46100W        W12641  40.958  10.660  14.921
46101W        W12642  20.192  41.438   5.056
46102W        W12643   3.015  39.541  11.821
46103W        W12644  28.156  26.206  10.728
46104W        W12645  27.470  11.287  12.986
46105W        W12646  18.981   6.765  13.134
46106W        W12647  43.397  18.323  10.428
46107W        W12648  12.314  10.363  10.706
46108W        W12649   8.152  12.262   4.810
46109W        W12650   6.242  31.277   1.180
46110W        W12651  25.561  42.823   2.696
46111W        W12652  14.412   4.089  13.369
46112W        W12653  34.307   8.153   1.796
46113W        W12654  44.311   0.299  11.463
46114W        W12655   9.538  42.315   3.893
46115W        W12656  21.612  38.011   1.307
46116W        W12657  12.863  44.122   1.711
46117W        W12658   3.691  44.332  12.922
46118W        W12659  29.717  10.361   4.616
46119W        W12660  44.048  10.125  14.383
46120W        W12661  23.978  25.790  11.641
46121W        W12662  35.722  21.650  10.903
46122W        W12663   9.448   8.366  13.667
46123W        W12664   2.981  44.791   4.510
46124W        W12665  27.400  23.428  10.607
46125W        W12666   3.457  19.005  12.476
46126W        W12667  12.362  27.695   2.845
46127W        W12668  26.519  24.195  12.012
46128W        W12669  41.144  17.585  11.975
46129W        W12670  29.416  43.974   0.889
46130W        W12671  29.514   4.329   2.752
46131W        W12672   9.195  40.423  11.657
46132W        W12673  26.275  16.394  10.673
46133W        W12674  32.066  28.557   0.322
46134W        W12675  18.282  14.616   3.208
46135W        W12676  27.393   6.369  14.446
46136W        W12677  37.496  11.292   2.448
46137W        W12678  16.759   0.127   4.854
46138W        W12679  12.222  12.335   1.703
46139W        W12680  27.036  42.195  12.076
46140W        W12681  42.997   3.397  14.905
46141W        W12682  18.809   6.507  14.854
46142W        W12683  12.081  43.886  12.089
46143W        W12684  23.511  30.986   1.753
46144W        W12685  17.105  40.001   2.946
46145W        W12686  32.541  32.155   2.450
46146W        W12687  12.269   0.049  12.819
46147W        W12688  27.029  44.402   1.872
46148W        W12689   4.394  11.695  14.936
46149W        W12690  42.288  32.869   3.301
46150W        W12691  44.397  29.016   2.117
46151W        W12692  10.542  39.808  13.430
46152W        W12693  20.071  15.747   2.041
46153W        W12694  41.683  20.142  12.957
46154W        W12695  44.348  29.491  11.274
46155W        W12696  18.413   7.837   3.014
46156W        W12697  22.820   5.402   4.398
46157W        W12698  35.391   6.983  13.488
46158W        W12699   1.503  10.861   0.415
46159W        W12700  44.447  22.177   4.684
46160W        W12701  35.443  41.334  12.307
46161W        W12702  17.650  17.812   2.320
46162W        W12703   5.687   1.482  14.400
46163W        W12704  28.165  21.087   3.640
46164W        W12705  23.659   2.225   2.269
46165W        W12706  22.689   6.388   4.047
46166W        W12707  20.188  31.879   3.652
46167W        W12708  42.202  25.589  11.969
46168W        W12709  12.782  21.310  11.084
46169W        W12710  19.676  18.424  14.669
46170W        W12711   9.112  36.458   4.740
46171W        W12712  35.322  29.356   2.332
46172W        W12713  31.078  23.426  13.888
46173W        W12714  25.398  39.434   1.247
46174W        W12715   9.812  29.615   3.327
46175W        W12716   2.556  16.701   1.259
46176W        W12717   2.746  21.194   2.279
46177W        W12718  39.535  15.743  13.053
46178W        W12719  20.661  25.403   0.516
46179W        W12720   0.637  26.915   0.386
46180W        W12721  14.373  20.699  10.918
46181W        W12722  35.661  17.501   4.281
46182W        W12723  26.129  14.091  12.609
46183W        W12724  36.901  30.009  13.395
46184W        W12725  34.303  33.561  10.856
46185W        W12726  21.191  25.579  11.917
46186W        W12727  12.327  41.334  11.561
46187W        W12728   3.214   3.654   0.869
46188W        W12729  11.759  10.435  14.011
46189W        W12730  11.679   5.597   4.926
46190W        W12731   6.389  12.381   1.620
46191W        W12732  42.480  15.693  13.037
46192W        W12733   9.392   4.858  14.826
46193W        W12734   6.739  28.984   2.221
46194W        W12735  35.097   8.402  10.490
46195W        W12736  12.508  25.302  11.656
46196W        W12737  44.472  10.361   2.163
46197W        W12738  10.167  23.117   0.034
46198W        W12739  19.535  32.622  14.752
46199W        W12740  40.558  35.868  10.438
46200W        W12741  29.684   0.440  12.436
46201W        W12742  23.933   7.794  11.018
46202W        W12743  24.496  23.189   0.063
46203W        W12744  37.191  20.732  10.740
46204W        W12745  13.313  10.199   4.551
46205W        W12746  19.564  37.643   0.223
46206W        W12747  36.348   2.440  14.388
46207W        W12748  14.276   7.431   0.170
46208W        W12749  14.562  18.417   3.731
46209W        W12750  32.754  29.862   4.056
46210W        W12751  26.926  11.619  11.442
46211W        W12752   1.697  33.956  13.365
46212W        W12753  11.155  39.829   2.213
46213W        W12754   4.330  10.386  12.392
46214W        W12755  17.232   6.001   3.655
46215W        W12756  36.942  18.729   4.568
46216W        W12757   1.988  40.185  14.665
46217W        W12758  36.689   4.738  13.377
46218W        W12759  29.666  19.192  11.715
46219W        W12760   7.791  27.902   0.958
46220W        W12761  26.960  44.327  14.737
46221W        W12762  22.501  37.361   2.322
46222W        W12763  12.976   0.816  13.463
46223W        W12764  30.578  14.834  13.821
46224W        W12765  43.148  12.587  13.069
46225W        W12766  28.520  37.913   1.362
46226W        W12767  27.990  21.299   2.262
46227W        W12768  10.854  43.213  14.058
46228W        W12769   1.849   4.641  12.559
46229W        W12770   2.435  41.166   4.688
46230W        W12771  17.073  15.707   0.266
46231W        W12772  16.917  41.252   3.102
46232W        W12773  33.422  32.593   0.371
46233W        W12774  35.517  10.650   3.655
46234W        W12775   1.500  19.332  13.546
46235W        W12776  22.016  15.450  11.052
46236W        W12777   3.420  36.389  11.604
46237W        W12778   8.809  34.938   1.317
46238W        W12779  30.476  24.558   4.648
46239W        W12780  42.763  26.147  14.949
46240W        W12781  36.564  30.459  11.224
46241W        W12782  30.856  17.554  13.458
46242W        W12783  19.347  11.830   1.811
46243W        W12784  13.431  11.659   2.815
46244W        W12785  30.935  28.571  11.996
46245W        W12786  32.084  39.383   0.459
46246W        W12787  31.858  32.318  14.851
46247W        W12788  13.135   5.398  10.631
46248W        W12789  26.179   2.862   2.307
46249W        W12790   1.357  33.385  13.981
46250W        W12791  35.629  14.303   2.699
46251W        W12792  10.212  39.556   2.145
46252W        W12793   7.912  35.921   2.739
46253W        W12794  31.588  32.924   0.347
46254W        W12795   6.164  27.692   1.404
46255W        W12796  17.892   8.904   3.060
46256W        W12797  18.053  11.585   9.942
46257W        W12798  33.037   7.858  12.559
46258W        W12799  25.056  33.929   2.234
46259W        W12800  36.001  14.262   1.790
46260W        W12801  26.088   4.548   3.773
46261W        W12802  42.523  34.029   4.548
46262W        W12803  33.349  35.835   3.480
46263W        W12804  41.464  10.292   4.230
46264W        W12805  14.762  41.523   0.382
46265W        W12806  22.112  27.223   0.264
46266W        W12807  22.727  42.952   3.411
46267W        W12808  40.849  18.255   2.427
46268W        W12809  23.052  23.438   3.299
46269W        W12810   3.839  25.049   2.549
46270W        W12811  43.370   7.945   2.625
46271W        W12812  17.523  30.409   3.003
46272W        W12813  20.159  41.566  14.846
46273W        W12814   5.388   4.662  12.201
46274W        W12815  23.167  17.999  12.349
46275W        W12816  38.062  30.866   2.805
46276W        W12817  36.116  25.157   1.373
46277W        W12818  21.502  41.863   4.292
46278W        W12819  37.238   8.404   1.105
46279W        W12820   6.248  39.525  13.722
46280W        W12821  14.034  16.057  11.712
46281W        W12822  10.259  24.932   4.098
46282W        W12823   0.790   3.632   1.737
46283W        W12824  16.878  11.713   4.605
46284W        W12825   7.872  16.599  12.582
46285W        W12826  34.387   5.268  13.081
46286W        W12827  31.140   9.006   4.525
46287W        W12828  35.051  19.532  12.037
46288W        W12829  31.071  14.374   2.186
46289W        W12830   3.849  38.281   3.326
46290W        W12831  20.655  37.592   4.824
46291W        W12832  31.114  37.422   4.104
46292W        W12833   1.202  35.010  14.852
46293W        W12834  41.003  18.508  14.528
46294W        W12835  32.977  24.167  14.973
46295W        W12836  29.045  35.119   1.612
46296W        W12837  15.267  28.637   1.091
46297W        W12838  36.067   7.630   2.850
46298W        W12839  39.396  18.244  12.868
46299W        W12840  27.049  43.321   4.808
46300W        W12841  32.346  14.019  13.888
46301W        W12842  41.493   8.654  12.139
46302W        W12843  16.137  14.046  12.114
46303W        W12844  37.935  44.959  12.510
46304W        W12845   4.341  39.082  12.178
46305W        W12846  23.491  25.191  11.965
46306W        W12847  38.801  13.312   4.622
46307W        W12848  34.959  29.376   0.779
46308W        W12849   9.693   7.304  14.013
46309W        W12850  36.319  31.419  14.398
46310W        W12851   4.456  37.803  14.396
46311W        W12852  28.531  20.022   1.401
46312W        W12853  14.647  37.047  13.336
46313W        W12854  35.906  11.203   5.045
46314W        W12855  42.127  18.074  14.008
46315W        W12856   8.933  10.547  10.746
46316W        W12857  43.422  29.159  13.872
46317W        W12858  40.729  11.806   9.850
46318W        W12859  11.400  42.026  13.380
46319W        W12860  34.512   2.095  14.520
46320W        W12861  44.960   5.817   4.382
46321W        W12862   2.817  26.037  12.166
46322W        W12863  17.053   2.742   3.384
46323W        W12864  17.457  11.308  10.621
46324W        W12865  33.013  24.238  12.987
46325W        W12866  15.550  16.006   5.190
46326W        W12867  35.872  29.572   3.218
46327W        W12868   8.022  13.866  14.873
46328W        W12869   3.517   0.456   1.094
46329W        W12870  31.783  43.472  13.138
46330W        W12871  34.953  22.300   0.542
46331W        W12872   5.587  12.078   4.442
46332W        W12873  37.809   1.007  12.039
46333W        W12874  22.793  20.183  14.814
46334W        W12875  20.735  14.130   0.071
46335W        W12876  22.605  26.718   3.695
46336W        W12877   0.315  26.537   4.667
46337W        W12878  26.182  42.318   4.342
46338W        W12879   0.343   3.111  12.449
46339W        W12880  28.862  22.239  13.370
46340W        W12881   3.440   1.388   1.751
46341W        W12882  13.878  13.732   4.901
46342W        W12883  22.011  39.739  12.345
46343W        W12884   3.885  40.998   4.512
46344W        W12885   5.380  25.277   0.863
46345W        W12886  13.790  25.060   1.280
46346W        W12887   1.877  31.575  14.474
46347W        W12888  19.493  24.086   2.739
46348W        W12889  34.805  35.518   0.577
46349W        W12890  29.082  43.302   3.825
46350W        W12891   2.719  21.929  11.635
46351W        W12892   5.761  37.901   3.342
46352W        W12893  22.631  40.954  13.528
46353W        W12894   2.667  30.157  10.720
46354W        W12895   5.931  42.003  14.865
46355W        W12896  25.633   9.705  13.025
46356W        W12897  16.050  26.148  14.280
46357W        W12898  40.080  43.381  13.607
46358W        W12899   7.711  26.515  13.639
46359W        W12900  23.816  36.957   3.380
46360W        W12901  32.462  41.087  10.714
46361W        W12902   7.909  26.726  12.903
46362W        W12903  43.467   1.854  10.750
46363W        W12904  21.041  41.928  13.537
46364W        W12905  16.149   0.759  13.579
46365W        W12906  43.541   9.794   3.666
46366W        W12907  17.159  39.111  12.915
46367W        W12908  30.212  17.732   1.503
46368W        W12909   1.860   1.495   0.718
46369W        W12910   8.850  29.504   4.057
46370W        W12911  33.800  38.792   0.455
46371W        W12912  33.376   8.640   0.424
46372W        W12913  33.752  25.930  11.742
46373W        W12914  23.463   9.730   3.532
46374W        W12915  16.519   7.408   4.132
46375W        W12916  44.795  44.682   0.833
46376W        W12917  37.437  11.122   1.398
46377W        W12918  23.388  31.957  12.850
46378W        W12919  25.742  27.316  11.094
46379W        W12920  27.416  21.277  12.794
46380W        W12921   8.980   5.457  11.160
46381W        W12922  39.019  31.893  13.968
46382W        W12923  38.077  22.416  13.822
46383W        W12924  16.561   2.821   3.248
46384W        W12925  12.642  14.421  12.593
46385W        W12926  33.312  26.118  12.736
46386W        W12927   3.430  21.547  10.636
46387W        W12928   3.852  39.375   2.619
46388W        W12929  21.767  25.186  14.117
46389W        W12930  18.961  43.202   4.186
46390W        W12931  13.268   4.914  14.460
46391W        W12932  21.611  35.054  10.467
46392W        W12933  35.182  32.626   4.111
46393W        W12934   1.944  21.457  14.533
46394W        W12935  44.379   8.586   5.071
46395W        W12936  10.650   1.763  13.685
46396W        W12937  36.465  26.894   4.939
46397W        W12938  28.972   0.326   2.695
46398W        W12939   9.937  21.661  11.659
46399W        W12940   8.305   0.972   4.298
46400W        W12941  11.630   6.321  13.357
46401W        W12942  13.233  20.592  14.776
46402W        W12943   5.190  23.995   2.641
46403W        W12944  32.015  24.538   0.416
46404W        W12945  40.062  30.703   4.378
46405W        W12946  30.447  26.450  10.646
46406W        W12947  15.588  43.776  10.753
46407W        W12948  11.714   1.377  12.676
46408W        W12949  34.959   2.060   2.675
46409W        W12950  18.977  13.203   2.026
46410W        W12951  41.341  30.336  10.758
46411W        W12952   5.265  26.994  12.853
46412W        W12953  23.884  35.123   4.537
46413W        W12954  31.495   1.413   2.935
46414W        W12955  39.979  34.665  14.472
46415W        W12956  42.866   7.789   4.000
46416W        W12957   9.570  42.400  13.845
46417W        W12958   1.112  33.215  14.903
46418W        W12959   0.161  31.033   3.084
46419W        W12960   6.686  16.566   3.861
46420W        W12961  14.882  40.601   2.294
46421W        W12962   4.203  25.077   3.627
46422W        W12963  15.851  44.815   3.275
46423W        W12964  35.612  34.940  11.089
46424W        W12965  21.425  14.638   4.832
46425W        W12966  19.105  20.686   1.641
46426W        W12967  16.246   5.151  10.423
46427W        W12968   0.075  22.088  14.308
46428W        W12969  18.138  25.276   2.741
46429W        W12970   5.626  18.240  11.438
46430W        W12971  27.963  28.656   0.674
46431W        W12972  43.781  40.635  14.559
46432W        W12973   4.794   5.957   3.142
46433W        W12974  33.812  13.054  11.607
46434W        W12975   3.691   4.844  11.510
46435W        W12976  27.674  15.873  12.446
46436W        W12977  12.163   8.201  13.866
46437W        W12978   2.493  39.428  13.912
46438W        W12979  11.787  15.046  11.176
46439W        W12980  30.997   5.627   2.386
46440W        W12981  26.281  11.262  14.079
46441W        W12982   6.298  16.726   0.918
46442W        W12983   2.928  34.395   4.079
46443W        W12984  22.796  39.719  11.139
46444W        W12985   0.447   9.926  14.865
46445W        W12986   0.316  42.490   1.690
46446W        W12987  36.074  29.701   4.975
46447W        W12988  27.292   9.177   2.367
46448W        W12989  30.626  15.174   1.690
46449W        W12990  23.702   0.320   4.660
46450W        W12991  28.020  11.670  10.424
46451W        W12992  22.558   8.103  14.447
46452W        W12993  11.403  41.558  13.827
46453W        W12994  30.093  32.664  10.716
46454W        W12995  11.187  26.613   4.040
46455W        W12996   8.697  10.051  13.754
46456W        W12997  37.660  31.750  11.963
46457W        W12998  44.379  37.658  13.412
46458W        W12999   8.160   2.343   3.162
46459W        W13000  12.320  44.319   0.887
46460W        W13001  33.922  32.062  12.800
46461W        W13002  39.450   3.706  12.732
46462W        W13003  33.278  24.451  14.663
46463W        W13004  42.734  32.541  10.985
46464W        W13005   7.447  12.304   4.225
46465W        W13006  10.412  10.270   4.553
46466W        W13007  30.349  40.061   4.646
46467W        W13008   4.721  23.570  11.952
46468W        W13009  18.495   6.886  14.489
46469W        W13010  15.713  31.540   0.203
46470W        W13011  43.969  35.421   4.529
46471W        W13012  14.799   9.074   0.318
46472W        W13013   0.224   3.349   1.653
46473W        W13014  15.331  31.718   4.085
46474W        W13015  28.369  24.305  11.069
46475W        W13016  18.708  23.049   0.783
46476W        W13017  21.552  26.067  12.834
46477W        W13018  24.056  33.132  11.384
46478W        W13019  36.771  35.006   2.880
46479W        W13020  39.831  31.346  12.656
46480W        W13021  42.525  18.558  12.148
46481W        W13022   0.773  17.863  12.528
46482W        W13023   7.107  33.664  12.641
46483W        W13024  19.735  35.531   3.907
46484W        W13025  23.265  10.699  10.709
46485W        W13026  11.814   7.726   2.209
46486W        W13027  19.741   7.073   3.216
46487W        W13028  22.502  43.038  14.479
46488W        W13029  21.232  17.725   1.339
46489W        W13030  18.320  25.493   2.296
46490W        W13031   9.155   1.317   3.282
46491W        W13032  18.086  11.677   1.349
46492W        W13033  29.862   6.179   0.911
46493W        W13034   5.889  38.924  12.343
46494W        W13035   9.341  25.177  14.766
46495W        W13036  15.251  41.712   3.395
46496W        W13037  28.190  24.390   4.655
46497W        W13038  13.551  13.644  12.295
46498W        W13039  36.893  32.363   1.149
46499W        W13040  36.383  23.974   3.529
46500W        W13041  26.972  26.727  11.106
46501W        W13042  31.166  41.959  12.112
46502W        W13043  29.269  36.792  14.843
46503W        W13044  29.792  14.298  11.614
46504W        W13045  29.654  39.050   0.369
46505W        W13046  32.452  16.199  14.706
46506W        W13047  37.558  39.515  10.714
46507W        W13048  11.335  31.284   2.829
46508W        W13049  15.101   0.318   0.324
46509W        W13050  33.108   4.479   1.809
46510W        W13051  25.080  26.501  13.978
46511W        W13052  18.560   9.156   4.208
46512W        W13053  14.210   6.932   4.091
46513W        W13054   5.870  27.896   4.606
46514W        W13055  29.158   4.258  11.751
46515W        W13056  19.791   1.526  14.377
46516W        W13057  39.117  10.668  10.725
46517W        W13058  41.106  32.029  13.343
46518W        W13059   5.945  41.506  11.506
46519W        W13060   6.438  38.106   0.708
46520W        W13061  19.949  43.366   3.153
46521W        W13062   7.224   9.405   0.923
46522W        W13063  16.575   6.152  11.718
46523W        W13064  25.476  32.225   1.939
46524W        W13065  34.290  10.856   1.173
46525W        W13066  26.545  44.854   0.471
46526W        W13067  13.772  10.443  14.860
46527W        W13068  18.781  22.631   3.205
46528W        W13069  35.545  43.972   4.058
46529W        W13070  44.145  36.320   4.705
46530W        W13071  41.629  25.344   3.674
46531W        W13072   1.423  33.633   4.657
46532W        W13073  34.434  39.896  12.090
46533W        W13074   7.068   3.201   4.165
46534W        W13075  16.299   3.366   5.032
46535W        W13076  27.084   4.486  12.011
46536W        W13077  43.902  37.426  13.559
46537W        W13078  15.410   3.332  14.897
46538W        W13079  29.029   4.194   0.413
46539W        W13080   4.345  15.320   3.579
46540W        W13081  44.335  23.617   4.124
46541W        W13082   9.903  29.141  13.301
46542W        W13083  43.919   1.983   0.976
46543W        W13084  44.812  34.517  14.852
46544W        W13085  34.782  37.586  13.560
46545W        W13086  28.146  26.022   1.995
46546W        W13087  42.861  19.960  11.211
46547W        W13088   0.266  10.346  11.393
46548W        W13089  29.904  40.315  11.405
46549W        W13090   2.756  33.610   5.204
46550W        W13091  42.506  27.837  11.229
46551W        W13092  28.673  43.439   2.564
46552W        W13093  41.923  38.573   0.822
46553W        W13094  25.958  14.684   2.355
46554W        W13095  29.530   7.919   4.119
46555W        W13096   9.901   3.296  14.969
46556W        W13097  26.781  34.992   1.800
46557W        W13098  13.851  35.503   2.799
46558W        W13099  20.668  43.117   1.969
46559W        W13100  38.002  41.514  13.442
46560W        W13101   7.463  26.920  11.541
46561W        W13102  22.615   2.980  13.374
46562W        W13103  19.586  33.824   1.344
46563W        W13104  31.920   9.711   1.781
46564W        W13105  44.758  17.800   0.435
46565W        W13106  13.691  18.105   4.729
46566W        W13107  41.025  43.202   1.355
46567W        W13108  15.263   4.321   2.630
46568W        W13109  14.785  14.137  12.083
46569W        W13110   8.720   6.120  14.055
46570W        W13111  23.385  26.173   0.220
46571W        W13112  23.959   9.659  11.093
46572W        W13113  34.926  13.154   1.756
46573W        W13114  20.571  13.432  13.510
46574W        W13115  26.949   0.449   2.306
46575W        W13116   3.810  10.951   4.075
46576W        W13117  17.737  36.879   3.553
46577W        W13118  28.417  12.670  12.463
46578W        W13119  20.708  10.230   3.917
46579W        W13120  44.375  37.502   0.860
46580W        W13121  42.454   4.362  12.342
46581W        W13122  44.508   2.490   2.805
46582W        W13123  19.642  11.874  13.464
46583W        W13124  39.585  13.111   2.385
46584W        W13125   4.010  17.621  14.529
46585W        W13126  16.553   0.987  12.604
46586W        W13127  35.614   5.868   0.998
46587W        W13128  39.392   6.798  11.148
46588W        W13129  13.343  24.294   3.666
46589W        W13130  24.369  12.655  12.412
46590W        W13131  17.179  12.809   1.318
46591W        W13132  36.050  17.940  12.427
46592W        W13133  14.686   1.261  14.990
46593W        W13134  24.717  22.735  10.433
46594W        W13135  38.397   1.989   3.241
46595W        W13136  12.582   5.910   1.730
46596W        W13137   8.313  21.476  10.589
46597W        W13138  11.311  36.193   2.349
46598W        W13139  44.367  28.501   4.800
46599W        W13140  11.392   5.835   2.560
46600W        W13141  32.200  28.705   1.628
46601W        W13142  25.673  28.152  12.473
46602W        W13143  42.482   2.335   2.745
46603W        W13144   6.692  35.438   0.859
46604W        W13145  13.723   9.412   3.439
46605W        W13146   2.992  23.638   4.202
46606W        W13147  21.639  44.507   1.272
46607W        W13148  10.625  44.940  14.022
46608W        W13149  29.171   4.200   3.149
46609W        W13150  28.277   8.938   5.030
46610W        W13151  40.991  30.404   2.345
46611W        W13152  37.530   8.176  14.773
46612W        W13153  25.034  34.425   2.499
46613W        W13154  40.189   5.802  12.186
46614W        W13155  33.589  44.860   0.498
46615W        W13156  23.258  13.815  11.515
46616W        W13157   6.568  37.358   0.524
46617W        W13158  41.399  22.731   1.465
46618W        W13159  26.003   9.870  13.961
46619W        W13160   9.225  33.921  11.917
46620W        W13161  13.119  33.662  10.254
46621W        W13162   6.353   0.962   3.243
46622W        W13163  19.083  36.014  13.398
46623W        W13164  38.350   3.884  14.372
46624W        W13165   7.415  10.716  13.611
46625W        W13166  21.928   6.224   3.620
46626W        W13167  20.823  31.400   4.702
46627W        W13168  33.927   2.173  12.565
46628W        W13169  25.330   6.685  12.632
46629W        W13170   6.848   1.395  10.570
46630W        W13171   0.017  44.907   9.906
46631W        W13172   4.816  41.810   3.228
46632W        W13173  35.704  18.840   4.161
46633W        W13174  28.747  12.624  12.085
46634W        W13175  14.375  18.085   0.910
46635W        W13176   5.824  29.513   2.892
46636W        W13177  20.285  40.589   0.772
46637W        W13178  15.642  23.681   3.890
46638W        W13179  32.610  11.209  12.040
46639W        W13180  19.058   9.424   1.695
46640W        W13181  40.943   0.209   4.722
46641W        W13182  16.923  42.337  14.529
46642W        W13183   9.174  37.541   3.850
46643W        W13184  29.167  37.461  10.716
46644W        W13185  21.092  31.890  14.375
46645W        W13186  21.829  33.064  12.344
46646W        W13187  33.065  31.179   4.593
46647W        W13188  23.766  39.011  12.875
46648W        W13189   6.242  41.909  10.729
46649W        W13190  13.081  34.180  10.196
46650W        W13191  27.106   0.501  13.838
46651W        W13192  17.123  30.687  14.092
46652W        W13193   0.682  29.490  14.884
46653W        W13194  26.214   5.637   1.299
46654W        W13195   2.355   9.280   4.623
46655W        W13196  16.489  29.394  11.114
46656W        W13197  40.084  17.113   0.505
46657W        W13198  33.586  39.225   1.289
46658W        W13199  35.007  38.751  12.406
46659W        W13200  12.327   9.133   2.654
46660W        W13201  39.532  38.522   0.328
46661W        W13202  38.762  29.113  10.306
46662W        W13203   5.220  18.117   2.790
46663W        W13204  30.263  13.839   3.799
46664W        W13205  37.391  33.919   4.200
46665W        W13206  29.508  25.818   2.127
46666W        W13207  11.872  40.585   1.275
46667W        W13208  15.545  37.965   5.045
46668W        W13209  37.519   1.398   1.188
46669W        W13210  34.031  43.505   4.919
46670W        W13211   1.961   5.411   1.106
46671W        W13212  19.832  21.220  10.680
46672W        W13213   2.279   6.828   0.444
46673W        W13214  26.562  20.952  12.642
46674W        W13215  25.036  20.987  12.229
46675W        W13216  11.881  14.255   2.736
46676W        W13217   2.229  29.542  14.717
46677W        W13218  43.757   1.846   2.400
46678W        W13219  19.287   7.967   3.238
46679W        W13220   1.387  24.554  10.204
46680W        W13221   2.321  22.771  10.615
46681W        W13222  12.298  21.673   3.722
46682W        W13223  16.660  28.448  11.716
46683W        W13224  43.451  31.967   2.135
46684W        W13225  34.821   8.780   0.502
46685W        W13226  33.304  26.424   4.593
46686W        W13227  38.446   9.143  12.645
46687W        W13228  16.714  25.265   1.828
46688W        W13229  37.822  37.816  11.592
46689W        W13230   9.471  27.299   3.037
46690W        W13231  28.805  29.161  12.924
46691W        W13232  17.644   8.241   4.322
46692W        W13233   3.866  22.196  13.137
46693W        W13234   5.943  17.087   3.797
46694W        W13235  11.899  41.548  12.335
46695W        W13236  35.645  16.167   4.975
46696W        W13237  28.605  19.597  12.512
46697W        W13238  42.380   4.258   4.199
46698W        W13239  25.520  14.830   4.125
46699W        W13240  39.392  36.597   3.221
46700W        W13241  32.417  19.770  12.060
46701W        W13242  31.160   6.763  10.447
46702W        W13243  14.866  44.689  10.589
46703W        W13244  34.064  29.749   1.850
46704W        W13245  33.910  39.961  14.381
46705W        W13246  21.491  30.263   0.784
46706W        W13247  42.010   4.050   1.827
46707W        W13248  22.045  40.483   2.888
46708W        W13249   5.008  31.853  11.503
46709W        W13250  13.228  19.621  10.007
46710W        W13251  42.500  44.199   3.718
46711W        W13252  44.877  10.189  10.634
46712W        W13253  35.796  36.554  14.354
46713W        W13254  25.535  38.433  11.340
46714W        W13255  21.976  13.730   4.159
46715W        W13256   8.901  39.819  14.812
46716W        W13257  40.235  14.588   0.792
46717W        W13258   7.207  41.583  11.971
46718W        W13259   1.838   9.157  14.301
46719W        W13260  16.784   1.371   0.488
46720W        W13261   9.115  29.421  12.520
46721W        W13262   9.978  17.829  12.644
46722W        W13263  40.258   2.921   0.758
46723W        W13264   8.036  34.009  14.369
46724W        W13265  29.541  40.815   1.830
46725W        W13266   3.496  23.955   3.310
46726W        W13267  32.226  41.220   3.678
46727W        W13268  42.506  20.573   1.875
46728W        W13269   4.428   5.358   2.841
46729W        W13270  43.668   0.417  13.418
46730W        W13271  13.373  21.836  11.469
46731W        W13272  43.614  32.378   1.156
46732W        W13273   7.970  37.045   2.128
46733W        W13274  25.526  37.010   0.894
46734W        W13275  17.535  30.397  10.272
46735W        W13276  20.510   8.272  12.117
46736W        W13277  25.460   7.730  11.622
46737W        W13278  39.551  12.684   3.593
46738W        W13279  23.175  22.727   4.017
46739W        W13280  36.105  28.124   0.256
46740W        W13281  30.932  28.355  11.153
46741W        W13282   4.856  39.045   4.354
46742W        W13283  32.999  25.938   4.172
46743W        W13284   4.753  39.287   3.251
46744W        W13285  15.536  10.810  13.974
46745W        W13286  24.482  28.926  12.126
46746W        W13287   1.558  15.098  14.544
46747W        W13288   5.950   8.986  12.736
46748W        W13289  27.191   6.946   1.855
46749W        W13290   1.269   1.224  14.572
46750W        W13291  37.332   5.836  12.572
46751W        W13292  10.103  26.581   0.917
46752W        W13293   6.741  31.614   3.772
46753W        W13294   4.629   8.677   4.478
46754W        W13295  44.955  20.065   0.884
46755W        W13296  14.191   8.848   2.293
46756W        W13297  34.451  35.983  14.963
46757W        W13298  29.126  13.167   2.634
46758W        W13299  29.899   9.907   1.369
46759W        W13300  28.615   7.882   0.011
46760W        W13301  40.878  15.486   3.760
46761W        W13302  42.839  13.538   3.849
46762W        W13303  39.347   7.237  12.685
46763W        W13304  16.217  27.371  14.625
46764W        W13305  44.581  27.373  12.482
46765W        W13306  24.058  35.110   1.537
46766W        W13307  42.527  16.303   3.982
46767W        W13308  37.892  25.709   3.709
46768W        W13309   9.449  21.281   4.701
46769W        W13310  38.012   0.463  11.646
46770W        W13311  39.838  44.398  13.773
46771W        W13312  37.465  15.843   4.455
46772W        W13313  18.998  22.447   9.744
46773W        W13314  17.007  35.691  11.590
46774W        W13315   9.633  40.833  13.895
46775W        W13316  34.493   9.899   3.156
46776W        W13317  43.021  22.444   0.245
46777W        W13318  39.364  14.960   2.073
46778W        W13319  35.304  43.286   0.678
46779W        W13320  17.651  34.689   3.125
46780W        W13321  26.857  10.409   4.949
46781W        W13322  12.296  40.263  11.032
46782W        W13323  13.230  12.016  14.763
46783W        W13324  38.067   8.145   4.592
46784W        W13325  23.004   3.381   0.394
46785W        W13326  40.062  17.556  12.637
46786W        W13327  15.154  16.917  11.771
46787W        W13328  18.686  31.428   1.595
46788W        W13329  42.289  18.719  14.138
46789W        W13330  26.685  21.155  14.383
46790W        W13331   9.860  37.852  10.090
46791W        W13332  20.705  30.061  14.455
46792W        W13333  40.548  25.786   3.748
46793W        W13334  22.381  16.057   3.737
46794W        W13335   9.449   1.715  11.755
46795W        W13336  27.929  34.125   1.732
46796W        W13337  16.362  18.214  14.833
46797W        W13338  43.274  33.453   0.041
46798W        W13339  16.886  16.251   1.303
46799W        W13340   7.955  20.673   3.693
46800W        W13341   4.781  19.194   0.051
46801W        W13342  35.567  35.553   3.325
46802W        W13343  33.462  39.402   3.630
46803W        W13344  14.332  33.152  12.380
46804W        W13345   4.382   6.886   5.030
46805W        W13346  22.588   9.095   5.073
46806W        W13347  25.056  27.038   3.587
46807W        W13348   8.638   4.481  11.074
46808W        W13349  25.660   3.253  14.429
46809W        W13350  31.604  27.113  11.523
46810W        W13351   7.554   2.506   3.997
46811W        W13352  37.358  31.445   1.762
46812W        W13353   8.138  15.654  12.898
46813W        W13354  16.661  24.498   1.334
46814W        W13355   1.731   4.891   2.805
46815W        W13356  12.589  25.622  10.734
46816W        W13357   1.910  36.113  10.328
46817W        W13358  21.624   3.372  11.803
46818W        W13359   2.674  41.973   4.081
46819W        W13360  43.958  10.548   3.943
46820W        W13361  31.932  35.415  13.386
46821W        W13362  38.981  21.138  11.721
46822W        W13363  26.872  32.086  13.892
46823W        W13364  23.147  44.226  11.207
46824W        W13365  23.900  22.098  10.494
46825W        W13366  21.983  26.482  14.342
46826W        W13367   8.728  34.641   0.810
46827W        W13368  13.126  37.577  14.309
46828W        W13369   1.882  28.219   4.229
46829W        W13370  34.944  35.268  10.213
46830W        W13371  27.787   9.927   0.264
46831W        W13372   3.469  41.053   2.865
46832W        W13373  15.972  35.443   2.783
46833W        W13374  14.996  19.629   0.240
46834W        W13375   8.423   1.438   4.706
46835W        W13376  29.192  15.749  13.083
46836W        W13377   7.373  26.601   0.736
46837W        W13378  31.867  20.515   3.730
46838W        W13379  41.591   0.737   2.858
46839W        W13380  35.937   3.785  14.632
46840W        W13381  21.254  12.786   4.970
46841W        W13382  30.210   1.284  13.043
46842W        W13383  19.623  23.955   3.243
46843W        W13384   8.976  11.311   1.146
46844W        W13385  11.638  31.377  13.055
46845W        W13386  44.645  30.858  10.249
46846W        W13387  11.139  42.488  11.010
46847W        W13388  32.467  41.188   4.128
46848W        W13389  14.010  13.455  12.087
46849W        W13390  12.255  35.779  14.781
46850W        W13391  41.473   1.516   3.238
46851W        W13392  39.043  22.477   4.316
46852W        W13393  25.969  34.413  14.987
46853W        W13394   7.476  14.932   3.502
46854W        W13395  44.268  40.982  14.844
46855W        W13396  25.717  18.574  14.962
46856W        W13397  42.035  41.587  13.393
46857W        W13398  15.701  40.312   4.093
46858W        W13399  20.562  11.615   2.792
46859W        W13400  38.801  10.336   1.260
46860W        W13401  37.999  39.636   1.992
46861W        W13402  42.462  11.286   5.020
46862W        W13403  13.326  22.088   0.495
46863W        W13404  34.977  17.358  12.839
46864W        W13405  33.342  12.678   2.130
46865W        W13406  34.584  16.506   2.505
46866W        W13407   0.204  34.624   4.154
46867W        W13408  32.638  22.991  13.916
46868W        W13409  30.969  15.663   0.243
46869W        W13410  36.820  12.667   0.934
46870W        W13411  17.595  12.035  14.441
46871W        W13412   9.228  15.001  10.737
46872W        W13413  29.572  43.334   1.213
46873W        W13414  35.535   4.687  13.841
46874W        W13415  25.501  38.631   1.933
46875W        W13416  14.491  24.066   0.212
46876W        W13417  28.544   0.322  13.314
46877W        W13418  37.790   0.289  14.989
46878W        W13419   2.794  28.873  11.915
46879W        W13420   6.092  19.477  12.847
46880W        W13421  34.689  44.547  12.709
46881W        W13422  28.460   9.386   4.884
46882W        W13423  17.560  18.499   4.091
46883W        W13424  11.265  28.214   4.493
46884W        W13425  23.258  41.740   3.186
46885W        W13426   2.793   4.549   2.150
46886W        W13427  22.575  29.363  13.559
46887W        W13428  30.837  21.695  13.524
46888W        W13429  32.916  10.778  12.546
46889W        W13430   5.092  22.707   2.978
46890W        W13431  18.579   7.218   4.084
46891W        W13432  23.247  10.741  13.679
46892W        W13433   8.777  40.991   4.769
46893W        W13434  19.661  19.577  12.515
46894W        W13435  32.936  44.753   3.303
46895W        W13436  28.196  33.615  12.378
46896W        W13437  26.654   5.620   9.812
46897W        W13438   8.319  41.162  13.423
46898W        W13439  27.012   8.170   4.030
46899W        W13440  16.861  18.243   3.536
46900W        W13441  12.605  22.185   4.818
46901W        W13442   2.166  37.459   4.911
46902W        W13443   3.136   1.160   4.067
46903W        W13444  13.418   1.747   0.336
46904W        W13445  21.575  22.973   0.220
46905W        W13446  42.715  16.153  12.984
46906W        W13447   2.302  31.260  14.288
46907W        W13448  41.047  26.987  11.654
46908W        W13449  12.152   4.825  12.511
46909W        W13450  39.292  14.021   3.607
46910W        W13451  32.575  23.640  10.740
46911W        W13452  23.065  44.873   2.331
46912W        W13453  24.482   2.360  14.356
46913W        W13454  44.322  20.475   0.599
46914W        W13455  11.147  23.977  13.382
46915W        W13456  15.302  35.083   4.072
46916W        W13457   6.902  27.590   2.173
46917W        W13458  32.796   8.360  12.374
46918W        W13459  40.630  12.504  12.460
46919W        W13460  21.790  13.858   5.042
46920W        W13461  19.404   8.267  11.645
46921W        W13462   5.149  33.856   3.160
46922W        W13463  36.463  21.279   0.101
46923W        W13464   0.470   9.660   4.524
46924W        W13465  37.380  21.625   2.229
46925W        W13466   4.171  19.116   2.257
46926W        W13467  10.395  19.484  12.560
46927W        W13468   0.920   7.643  11.076
46928W        W13469  44.502  14.092   4.622
46929W        W13470  25.034  10.672   2.573
46930W        W13471  26.690   0.470   3.801
46931W        W13472  26.909  29.423  13.833
46932W        W13473  41.408  16.068  14.389
46933W        W13474  28.151  28.657   2.676
46934W        W13475  24.261  37.536  14.386
46935W        W13476  36.332  26.966   1.310
46936W        W13477  39.420  12.879   4.920
46937W        W13478  20.583  44.998   0.168
46938W        W13479  32.655   0.407   2.383
46939W        W13480  32.521  41.345  13.388
46940W        W13481  32.732  43.009   4.621
46941W        W13482  12.455  26.736  11.975
46942W        W13483  33.424  22.388  12.401
46943W        W13484  22.379   3.588   4.945
46944W        W13485   6.546  13.310   1.607
46945W        W13486  12.627  33.038   1.436
46946W        W13487  18.801  40.120  14.037
46947W        W13488  39.423  25.017  14.789
46948W        W13489  33.683  20.626  12.463
46949W        W13490  41.819  35.571  14.936
46950W        W13491   1.923  42.013  11.661
46951W        W13492  16.342  32.687   5.037
46952W        W13493  32.862  33.585   1.192
46953W        W13494  44.877  19.079  12.792
46954W        W13495   7.224  30.221   0.815
46955W        W13496  42.567  37.074  13.409
46956W        W13497   2.809   5.556   2.085
46957W        W13498  10.620   5.340  13.457
46958W        W13499  18.246   0.207   1.229
46959W        W13500  22.933   2.129   3.708
46960W        W13501  13.264  34.556   1.933
46961W        W13502  14.247  44.442   4.658
46962W        W13503  20.670  33.599   1.814
46963W        W13504  20.028   2.406  14.774
46964W        W13505   3.228  20.234  12.577
46965W        W13506  16.496  10.258  12.839
46966W        W13507  18.379  32.443   0.309
46967W        W13508  23.185   1.671   3.726
46968W        W13509   5.511  17.268  12.272
46969W        W13510   8.922  30.105   1.236
46970W        W13511  32.201  15.377  11.750
46971W        W13512  15.559  41.014   0.492
46972W        W13513  42.496  27.233  14.512
46973W        W13514  35.898  15.544  11.585
46974W        W13515  23.990  25.230  13.542
46975W        W13516  27.492  12.379  12.531
46976W        W13517   6.812  18.900  12.953
46977W        W13518  31.293  38.875  10.386
46978W        W13519  35.575  11.866   3.475
46979W        W13520  14.097  14.992   4.479
46980W        W13521  39.028  25.951   2.166
46981W        W13522  23.644   6.641   3.507
46982W        W13523   1.736   2.423   1.899
46983W        W13524  33.233  23.589   4.110
46984W        W13525   2.635  38.496   3.491
46985W        W13526  18.284  40.184  14.073
46986W        W13527  20.579   0.896   3.183
46987W        W13528  12.893   6.461  12.025
46988W        W13529  15.446  16.072   1.304
46989W        W13530   0.454  44.372  13.556
46990W        W13531  19.220  13.075  10.804
46991W        W13532  32.423   5.038   2.844
46992W        W13533   0.479   9.709   0.347
46993W        W13534   7.239  32.588   0.254
46994W        W13535  42.809  14.286  14.219
46995W        W13536   3.009  11.786  13.849
46996W        W13537  14.926  27.118   3.208
46997W        W13538  44.017  26.065   1.385
46998W        W13539  20.171  20.804  11.631
46999W        W13540  28.646   6.518  13.332
47000W        W13541  19.603  15.748  11.370
47001W        W13542   4.934  34.273  12.833
47002W        W13543  11.066   6.543   3.061
47003W        W13544   2.895  18.661   1.248
47004W        W13545   1.355  28.681   3.481
47005W        W13546  19.798  39.838  14.510
47006W        W13547   1.007  38.846   2.145
47007W        W13548  10.508   6.260  10.267
47008W        W13549  32.576  15.558  13.378
47009W        W13550  14.663  26.194   4.643
47010W        W13551  27.795  41.528   4.991
47011W        W13552   1.451  37.264  14.331
47012W        W13553  37.533  44.705  13.390
47013W        W13554   4.869  15.350   0.501
47014W        W13555  12.538  13.248   3.101
47015W        W13556  25.104  26.500  12.999
47016W        W13557  44.035  28.662  11.064
47017W        W13558  11.243   3.188   2.350
47018W        W13559  36.323  13.183  12.799
47019W        W13560   0.307  25.081   4.909
47020W        W13561   2.995  12.794  13.821
47021W        W13562  25.994  43.448  13.794
47022W        W13563  42.492  35.423   3.216
47023W        W13564  31.951  25.594  13.273
47024W        W13565  20.798  30.867  12.097
47025W        W13566  33.630  29.147  13.519
47026W        W13567  35.330   8.708  13.676
47027W        W13568  12.675   3.505   1.886
47028W        W13569   2.553   6.378  12.365
47029W        W13570  12.056   8.182  10.753
47030W        W13571  40.306  22.031  14.994
47031W        W13572  29.533  27.316  13.833
47032W        W13573  16.192  10.678   4.476
47033W        W13574  27.468   2.835  11.427
47034W        W13575   5.773  27.171  11.066
47035W        W13576  18.166   4.783  14.323
47036W        W13577   8.672  26.843   4.972
47037W        W13578  27.028  22.962  12.117
47038W        W13579  30.844  38.800   2.305
47039W        W13580   8.479  11.355  11.447
47040W        W13581  42.018  30.868   1.281
47041W        W13582  12.250  44.812   4.258
47042W        W13583  40.072   2.721  10.588
47043W        W13584  17.071  39.378   4.377
47044W        W13585  31.302  13.672  14.390
47045W        W13586  29.417  23.466   2.780
47046W        W13587   4.780  17.579   1.762
47047W        W13588  15.112   8.461  13.267
47048W        W13589  31.098   2.000  14.782
47049W        W13590   7.949  43.450   2.763
47050W        W13591  17.240  13.149   2.837
47051W        W13592  28.660  15.091   0.917
47052W        W13593   7.118   5.412  11.482
47053W        W13594  32.069   5.560  14.227
47054W        W13595  21.735  42.254  13.562
47055W        W13596   5.521  20.929   0.383
47056W        W13597   6.361   1.208   3.778
47057W        W13598  37.359  42.232  14.524
47058W        W13599  31.167  38.793   0.305
47059W        W13600  43.937   9.442  12.673
47060W        W13601  10.710  17.532   4.904
47061W        W13602  36.440  12.325   2.201
47062W        W13603  22.828  40.334   1.534
47063W        W13604  30.875  37.655   3.713
47064W        W13605  10.604  10.737   4.628
47065W        W13606  24.056  16.325   0.822
47066W        W13607   1.177  25.940  11.247
47067W        W13608  15.647  13.096   4.540
47068W        W13609  43.305   3.915  13.226
47069W        W13610  30.222  31.541  12.793
47070W        W13611  40.032  23.251   3.638
47071W        W13612  38.567   7.930  13.361
47072W        W13613   0.723  39.399  11.377
47073W        W13614  32.871   1.198  10.940
47074W        W13615  20.589  21.983   4.307
47075W        W13616  17.059   4.593   3.206
47076W        W13617  21.616  25.086  12.575
47077W        W13618   6.230   6.045   3.245
47078W        W13619  35.452   4.879   4.460
47079W        W13620  41.018  10.589   5.210
47080W        W13621  16.363  39.887  12.017
47081W        W13622  30.122   7.674   2.736
47082W        W13623  22.208  25.010   3.265
47083W        W13624  36.629   4.319  12.143
47084W        W13625  24.119  30.930   2.406
47085W        W13626  17.256  34.339   1.614
47086W        W13627  23.096  25.769  14.291
47087W        W13628  31.846  27.451   1.806
47088W        W13629  35.478  29.073  12.690
47089W        W13630  37.647  34.545   0.044
47090W        W13631  12.149  34.108   3.225
47091W        W13632  25.574  43.565   4.084
47092W        W13633  25.513  33.462  14.862
47093W        W13634  20.172  26.606  10.298
47094W        W13635  20.336  39.325  13.463
47095W        W13636  32.189  11.635  13.188
47096W        W13637  40.964  23.350  13.315
47097W        W13638  23.038  43.644   0.774
47098W        W13639   3.417   5.635  13.675
47099W        W13640  18.111  30.648   0.583
47100W        W13641  39.929  22.788  14.259
47101W        W13642  43.955  19.076  13.300
47102W        W13643  40.839  36.167  11.203
47103W        W13644  29.551  27.402  14.356
47104W        W13645   2.902  30.460  11.077
47105W        W13646  43.435  23.527   2.370
47106W        W13647   9.651  27.282  12.558
47107W        W13648   3.490  11.161  12.659
47108W        W13649   1.918  22.420   1.829
47109W        W13650   4.882  26.972  11.484
47110W        W13651  18.247  19.767  12.537
47111W        W13652  29.624  10.294  10.382
47112W        W13653  30.671  23.706   3.295
47113W        W13654  16.578  41.318   2.724
47114W        W13655   6.963  25.244   2.209
47115W        W13656  22.065   1.227   3.918
47116W        W13657  15.566   3.316  13.388
47117W        W13658   9.150  38.808  14.442
47118W        W13659  14.384  20.199  12.054
47119W        W13660   2.488  19.090   0.391
47120W        W13661  15.280  13.843  13.022
47121W        W13662  30.742  40.506  14.406
47122W        W13663  26.581  18.402   4.987
47123W        W13664  16.080   3.720   4.668
47124W        W13665  29.872  35.806   2.227
47125W        W13666   4.365  12.260  12.913
47126W        W13667  35.575  44.407  11.335
47127W        W13668  11.374   2.407  14.355
47128W        W13669  26.602  40.216   1.492
47129W        W13670  36.453  19.432  14.455
47130W        W13671   9.337   0.365   0.193
47131W        W13672  18.329  18.038  12.962
47132W        W13673  34.397  42.462   3.214
47133W        W13674  16.552  36.989   1.765
47134W        W13675  11.180  30.001  11.349
47135W        W13676  24.407  44.016   3.692
47136W        W13677  39.756  15.327  12.850
47137W        W13678  16.230  33.896  14.317
47138W        W13679  22.026  44.503  13.015
47139W        W13680  33.060   7.759   2.652
47140W        W13681  13.575  14.815  11.136
47141W        W13682  29.098  41.788   3.424
47142W        W13683  19.848  24.802  12.048
47143W        W13684  23.897  16.189  13.806
47144W        W13685  39.503  21.256   3.727
47145W        W13686  14.854  38.165  10.760
47146W        W13687  43.210  26.557   4.739
47147W        W13688  33.343  12.872  13.969
47148W        W13689  10.275  31.645   1.140
47149W        W13690   9.075  33.202   4.584
47150W        W13691  16.521  25.124  12.392
47151W        W13692  30.771  12.227   0.977
47152W        W13693  37.021  44.717  10.744
47153W        W13694   0.974  26.975   4.911
47154W        W13695  35.381  32.892  13.019
47155W        W13696  34.729  16.514   0.877
47156W        W13697  23.246  17.454  14.804
47157W        W13698  30.624  22.336   2.778
47158W        W13699  34.619  44.879  10.781
47159W        W13700  32.287  19.604  12.928
47160W        W13701  40.340   2.390  14.515
47161W        W13702   5.906  42.488   3.647
47162W        W13703  29.525  20.927   3.829
47163W        W13704  39.013  26.655  13.949
47164W        W13705  28.960  11.300  13.849
47165W        W13706   8.256  40.448  11.604
47166W        W13707  15.846  31.165  14.472
47167W        W13708   8.236  13.498  10.763
47168W        W13709  27.652  20.487   3.231
47169W        W13710   7.943   9.239  11.193
47170W        W13711  41.466  23.141  14.065
47171W        W13712  31.881   7.112  10.865
47172W        W13713  44.770  29.946  13.568
47173W        W13714   2.462  30.979  12.641
47174W        W13715  30.868  42.881   2.199
47175W        W13716  27.616  28.366   0.970
47176W        W13717  12.422  38.968   2.376
47177W        W13718  19.628   5.694   1.790
47178W        W13719  21.165  44.865   2.603
47179W        W13720  30.463  20.173  10.677
47180W        W13721  25.726   4.893   3.598
47181W        W13722   6.750   2.081  11.543
47182W        W13723  10.582  16.019   2.743
47183W        W13724   0.454  36.632  13.455
47184W        W13725  11.073  17.556   0.154
47185W        W13726  23.798  22.048  13.720
47186W        W13727   3.737  22.188  11.499
47187W        W13728  12.201  19.600  13.415
47188W        W13729  36.049  19.299  13.228
47189W        W13730  10.672  31.573  13.450
47190W        W13731  34.709  15.241   3.248
47191W        W13732  16.107  30.215  11.203
47192W        W13733  31.127  24.952  13.872
47193W        W13734  33.019  29.819   0.981
47194W        W13735  33.642  15.447   4.967
47195W        W13736  42.000   1.709  13.017
47196W        W13737   2.206  42.983  11.400
47197W        W13738  18.773  10.983   2.180
47198W        W13739  18.780  31.717   3.122
47199W        W13740  25.600  36.897   3.700
47200W        W13741  19.561  27.673   4.520
47201W        W13742  41.911  13.583   1.515
47202W        W13743  11.790   7.870  11.347
47203W        W13744  18.792   7.698  11.450
47204W        W13745   5.927  41.275   1.925
47205W        W13746  10.531  35.632   1.359
47206W        W13747  21.313  39.743  14.553
47207W        W13748  23.625  31.032   0.235
47208W        W13749  15.271  32.281  11.385
47209W        W13750  30.983  18.306   0.847
47210W        W13751   6.768  30.066  12.929
47211W        W13752  31.063   3.601  10.821
47212W        W13753   3.970   6.786  12.923
47213W        W13754   4.764   4.952  11.598
47214W        W13755  15.112  14.966   4.543
47215W        W13756  10.212   6.244  13.855
47216W        W13757  12.846  13.472  13.935
47217W        W13758   8.685  25.395   1.924
47218W        W13759  25.760  27.112   1.717
47219W        W13760  31.887  30.817  14.911
47220W        W13761  13.136  12.735   4.154
47221W        W13762  20.081  17.024   4.857
47222W        W13763  43.921   4.223  13.348
47223W        W13764  23.399  32.855   0.423
47224W        W13765  35.127  18.326  12.466
47225W        W13766   5.775  10.842  14.288
47226W        W13767  36.535  16.608  11.767
47227W        W13768  16.422  30.918   1.404
47228W        W13769  11.303   7.809   0.895
47229W        W13770   6.302  12.578   0.355
47230W        W13771  39.033  44.458   3.852
47231W        W13772  18.734  24.333  14.356
47232W        W13773  35.931  41.735  12.051
47233W        W13774  10.833  41.479   4.532
47234W        W13775  11.139  22.475  12.118
47235W        W13776  29.647   5.942   1.327
47236W        W13777  19.718  27.233  11.161
47237W        W13778   3.569  26.537  11.166
47238W        W13779   7.281  27.475  14.905
47239W        W13780  22.994   2.858   0.480
47240W        W13781  36.867  11.236   4.530
47241W        W13782  34.595  23.518   2.609
47242W        W13783  15.489  16.016   4.219
47243W        W13784  16.645  18.075  12.134
47244W        W13785  15.576  33.647  13.600
47245W        W13786  41.293  10.893   4.913
47246W        W13787  22.321  12.627   4.103
47247W        W13788  42.335  42.419   4.463
47248W        W13789  28.518  11.679   2.759
47249W        W13790  16.735   4.159   4.767
47250W        W13791   6.273  30.703  10.372
47251W        W13792  37.872  39.594  12.136
47252W        W13793  29.537  36.566   4.565
47253W        W13794  42.711  23.682   3.347
47254W        W13795   8.902  23.578   1.313
47255W        W13796  15.278   1.880  10.800
47256W        W13797  38.307  40.298   4.568
47257W        W13798  26.480  37.098   0.893
47258W        W13799   9.753  38.832   2.712
47259W        W13800  16.770   5.812  14.821
47260W        W13801  25.199  19.916   3.827
47261W        W13802  26.890   4.950  11.946
47262W        W13803   9.842  40.983   1.794
47263W        W13804  14.043  28.942  13.814
47264W        W13805  37.364   9.579   3.797
47265W        W13806  16.328  41.321  12.018
47266W        W13807  31.161   8.694   1.858
47267W        W13808  27.071  19.190   1.439
47268W        W13809  11.622  34.604  14.397
47269W        W13810  30.426  32.942  14.024
47270W        W13811  16.750  35.895  11.984
47271W        W13812   2.983   2.069  13.735
47272W        W13813   6.952  24.071   3.211
47273W        W13814  33.577  14.256  10.433
47274W        W13815  13.854   3.996  11.713
47275W        W13816   6.071  24.082   1.374
47276W        W13817  16.571  10.990   1.351
47277W        W13818  16.114   2.742   0.789
47278W        W13819   9.741   1.319  14.533
47279W        W13820  30.399  21.101  14.804
47280W        W13821  28.020  12.278  13.837
47281W        W13822  18.505   4.490   3.332
47282W        W13823  37.544  30.937  12.525
47283W        W13824  34.858  27.272   3.405
47284W        W13825   6.282  23.494   0.438
47285W        W13826  28.476  39.569  14.822
47286W        W13827  26.123  12.350  10.674
47287W        W13828  20.739  22.391  14.509
47288W        W13829  35.994  35.908   0.194
47289W        W13830  28.653  25.518  14.059
47290W        W13831   4.714  21.017   0.357
47291W        W13832   9.669  11.888  11.134
47292W        W13833  32.603  38.575  13.967
47293W        W13834  15.308  24.950   2.182
47294W        W13835  28.777   5.259  13.446
47295W        W13836   7.390  21.581   0.207
47296W        W13837  32.876  26.435   4.320
47297W        W13838   2.108  36.382   0.378
47298W        W13839  42.357  23.127   4.126
47299W        W13840   5.352   8.758  10.736
47300W        W13841   7.411  41.081  11.590
47301W        W13842  23.274  42.986   2.794
47302W        W13843  37.120  27.085  11.609
47303W        W13844  38.756  18.340   1.447
47304W        W13845  41.603  25.086   3.213
47305W        W13846   4.794  17.042  14.851
47306W        W13847  24.212  20.289  12.912
47307W        W13848  37.716  18.921   3.589
47308W        W13849  15.638  15.491   5.045
47309W        W13850  43.274  43.411   3.959
47310W        W13851  39.522  38.277   4.746
47311W        W13852   1.294   8.798  11.989
47312W        W13853  38.907  30.355  10.727
47313W        W13854   3.651   9.219   0.871
47314W        W13855  14.542  25.964  14.211
47315W        W13856   4.506   6.635   0.520
47316W        W13857  37.305  18.827   1.679
47317W        W13858  12.949   3.688   2.309
47318W        W13859  12.945  19.670  14.276
47319W        W13860  42.017  30.305   0.452
47320W        W13861  34.238  16.689   3.761
47321W        W13862   1.170  22.411   1.319
47322W        W13863  23.582  13.496  10.527
47323W        W13864  26.431  24.000  11.555
47324W        W13865  14.063  10.333   3.078
47325W        W13866  21.342   4.589   2.263
47326W        W13867  23.719  10.838   0.258
47327W        W13868  20.134  16.649   4.489
47328W        W13869  29.536   6.190  10.714
47329W        W13870  43.586  28.857  11.169
47330W        W13871  43.031  37.659  10.429
47331W        W13872  42.070  10.262   1.874
47332W        W13873  43.841   6.079   1.829
47333W        W13874  35.166  13.618   1.627
47334W        W13875   3.779  39.678   4.073
47335W        W13876   1.656  21.601   4.619
47336W        W13877  43.689  21.063  11.576
47337W        W13878  33.369  21.465  13.448
47338W        W13879  10.427  36.318   4.089
47339W        W13880  21.357   3.697  10.568
47340W        W13881  44.902  36.176   0.783
47341W        W13882  28.717  32.327  11.110
47342W        W13883  18.280  44.874  13.016
47343W        W13884  36.001  41.006  14.077
47344W        W13885  29.651   4.644   1.770
47345W        W13886  20.239  24.947   1.518
47346W        W13887  31.179  18.305  12.543
47347W        W13888  12.508   6.263  11.132
47348W        W13889   7.799  21.159   0.036
47349W        W13890  20.686   9.392   2.165
47350W        W13891  22.471  15.102   2.495
47351W        W13892  22.121   1.782   4.031
47352W        W13893  44.388  17.588   4.869
47353W        W13894  30.211  29.388  11.382
47354W        W13895  33.277   0.121   3.742
47355W        W13896  40.406  24.188   4.556
47356W        W13897  27.139  11.199  10.586
47357W        W13898  42.773  18.659  11.288
47358W        W13899  40.423   2.911  14.422
47359W        W13900  33.375  36.196  11.598
47360W        W13901  41.757   2.197  12.077
47361W        W13902  13.666  11.673   4.048
47362W        W13903  15.592  41.852  13.502
47363W        W13904   9.859   1.356  13.528
47364W        W13905  28.664  13.368   1.916
47365W        W13906  11.815  29.992  10.733
47366W        W13907  13.189  41.346   2.793
47367W        W13908  20.305  25.562  12.699
47368W        W13909  17.094  26.512   3.154
47369W        W13910   3.894  29.205   1.347
47370W        W13911  36.140  10.019  13.417
47371W        W13912  19.258   2.028  13.359
47372W        W13913  25.693  27.719   3.227
47373W        W13914   0.031   0.271   1.937
47374W        W13915  43.651   4.220  10.676
47375W        W13916  25.152   9.437   4.967
47376W        W13917  18.534  20.031   5.077
47377W        W13918  26.458  28.500   1.663
47378W        W13919  25.430  34.063   0.922
47379W        W13920  12.249  31.736   4.920
47380W        W13921   8.754  33.896   3.591
47381W        W13922   6.017   4.992   2.650
47382W        W13923  28.264  42.332   2.952
47383W        W13924  19.008  19.586   0.730
47384W        W13925  37.286  21.810  11.401
47385W        W13926  10.509  21.223   1.160
47386W        W13927  39.445  24.077   0.032
47387W        W13928  40.838   4.736  14.361
47388W        W13929  27.117  13.768  13.852
47389W        W13930  27.806  26.609  11.918
47390W        W13931  30.078  27.944   1.477
47391W        W13932   4.825  13.929  11.618
47392W        W13933  33.331  44.379  13.894
47393W        W13934  32.709  19.487   1.325
47394W        W13935  13.658  37.125   3.181
47395W        W13936  30.847  38.478   4.272
47396W        W13937  42.109  11.613   1.224
47397W        W13938  12.883  17.596  13.035
47398W        W13939  39.538  36.542  12.096
47399W        W13940  19.272  30.152   0.515
47400W        W13941  28.115  44.965   3.619
47401W        W13942  36.632  22.259   3.161
47402W        W13943  12.920  24.591   2.781
47403W        W13944   8.279  12.990  14.378
47404W        W13945  35.488   1.199  11.104
47405W        W13946  27.794  17.535  14.590
47406W        W13947  37.451  12.192   4.308
47407W        W13948  33.049   9.195   4.120
47408W        W13949  35.677   8.040  12.520
47409W        W13950  35.935  26.504   2.395
47410W        W13951  43.238   2.149  12.614
47411W        W13952  13.901   7.242  12.599
47412W        W13953  28.340   8.686  12.681
47413W        W13954  32.372   3.708   1.877
47414W        W13955  43.427  32.777  10.680
47415W        W13956  13.810   9.885   4.138
47416W        W13957  24.918  28.484  13.897
47417W        W13958  44.434   6.234  11.303
47418W        W13959  36.326  27.195  12.868
47419W        W13960  44.908  42.111   3.649
47420W        W13961  40.417  14.333  12.217
47421W        W13962  43.557  14.190   1.920
47422W        W13963   9.213  22.052  13.095
47423W        W13964  41.815  23.715  13.040
47424W        W13965  40.463  23.118   2.383
47425W        W13966  24.215  12.894   1.382
47426W        W13967  23.140  13.339  12.112
47427W        W13968  17.869  25.823   1.433
47428W        W13969  10.290   4.911   4.145
47429W        W13970  23.624  44.979   4.253
47430W        W13971  15.599   6.498  10.957
47431W        W13972   9.133  34.114   4.559
47432W        W13973  28.382  20.283   1.866
47433W        W13974  20.928  33.459  13.903
47434W        W13975  20.202  37.006  14.911
47435W        W13976  14.900   5.185  10.966
47436W        W13977  20.317  43.709   0.002
47437W        W13978  39.845   7.074  14.484
47438W        W13979  38.464  36.836  14.892
47439W        W13980   2.393  33.310   1.918
47440W        W13981  27.045  25.226   4.482
47441W        W13982   1.491  43.582   3.870
47442W        W13983  35.960  43.117  10.689
47443W        W13984  18.500  28.532   4.729
47444W        W13985  18.278   1.846   1.854
47445W        W13986  16.339   9.703   3.187
47446W        W13987  10.997   0.485  14.496
47447W        W13988   5.900  13.751  11.561
47448W        W13989  39.421  44.742  11.009
47449W        W13990   4.165  31.645  11.270
47450W        W13991  30.378  10.654   3.033
47451W        W13992  10.297  41.223   1.852
47452W        W13993  10.747  17.225   0.393
47453W        W13994  20.244  13.848   1.256
47454W        W13995   6.631  20.511  10.645
47455W        W13996  29.151  20.109   0.754
47456W        W13997  39.180   0.654  12.997
47457W        W13998  35.127   8.387   1.316
47458W        W13999   2.311   1.376   0.972
47459W        W14000  11.613  35.874   2.734
47460W        W14001  19.994   4.668   3.273
47461W        W14002  16.829  30.518  12.569
47462W        W14003  26.471  38.543  11.216
47463W        W14004  15.714  31.306   2.668
47464W        W14005   7.759  39.360  14.813
47465W        W14006  30.460   0.419   2.006
47466W        W14007  39.345   9.764  14.229
47467W        W14008  27.697  23.240  11.209
47468W        W14009  23.192  12.284   4.147
47469W        W14010   5.209  38.337  13.431
47470W        W14011  17.689  28.472   4.142
47471W        W14012  36.485  42.784   2.757
47472W        W14013  14.848  19.787  14.787
47473W        W14014  16.595  31.716   1.284
47474W        W14015   2.702  22.004  14.842
47475W        W14016  13.328   5.619  12.884
47476W        W14017  43.488   2.981  11.399
47477W        W14018  11.102  38.957  13.308
47478W        W14019  20.011   0.969   2.737
47479W        W14020  10.300   7.137   3.311
47480W        W14021  44.831  24.204  10.773
47481W        W14022  15.300  29.451   1.712
47482W        W14023   9.216  18.782   0.306
47483W        W14024  20.977  25.107  10.683
47484W        W14025   6.668  33.540  13.491
47485W        W14026  44.264  22.973  12.272
47486W        W14027   1.228  12.041   2.198
47487W        W14028   8.168  34.956   3.616
47488W        W14029  10.685  17.827  12.084
47489W        W14030   7.179   9.424   3.756
47490W        W14031   7.916  30.383  14.990
47491W        W14032   3.527  35.129   3.254
47492W        W14033   8.424  23.497  13.074
47493W        W14034   7.799   7.219   4.410
47494W        W14035  37.550   3.152   2.576
47495W        W14036  24.206  41.508  11.220
47496W        W14037  19.303  21.532   1.744
47497W        W14038  43.977  17.214  13.174
47498W        W14039  37.125  26.972  12.403
47499W        W14040  34.219  21.537  13.909
47500W        W14041  34.457  16.165  14.366
47501W        W14042   5.331  11.685   1.914
47502W        W14043  41.449  19.212   3.247
47503W        W14044   2.827   1.363   2.284
47504W        W14045  36.544  10.636  14.530
47505W        W14046  11.189  14.849  12.097
47506W        W14047  18.032  28.663  13.095
47507W        W14048  19.929  15.099  14.065
47508W        W14049   6.075  41.963  13.953
47509W        W14050  34.148  10.953  13.580
47510W        W14051  12.674  18.528   2.916
47511W        W14052   2.518  24.707   1.934
47512W        W14053   1.418  37.360   2.687
47513W        W14054  23.628  39.063  11.391
47514W        W14055  21.226  41.455  13.456
47515W        W14056   1.261  44.962  13.907
47516W        W14057  12.620  43.415   4.153
47517W        W14058   4.131  16.641  12.499
47518W        W14059  23.385  44.679  11.195
47519W        W14060  16.539  25.527   1.406
47520W        W14061  41.085  15.773   5.219
47521W        W14062   1.729  24.011  12.999
47522W        W14063  31.140  29.952  13.092
47523W        W14064  38.029  23.467   4.464
47524W        W14065   2.501  21.053   3.528
47525W        W14066   7.311  31.918  12.119
47526W        W14067  32.485  14.593  13.813
47527W        W14068  38.103  15.814  11.164
47528W        W14069  32.896  13.277   1.784
47529W        W14070  43.460  40.331  11.857
47530W        W14071  19.148  28.682   3.805
47531W        W14072   3.361  20.027   0.987
47532W        W14073  11.374  34.617   2.397
47533W        W14074  44.370   8.448  12.439
47534W        W14075  35.502  16.188  13.601
47535W        W14076  29.612  11.317   1.277
47536W        W14077  21.709  23.885   1.354
47537W        W14078  35.525  33.657  10.545
47538W        W14079  23.134  11.551   0.542
47539W        W14080  20.905   1.960   4.973
47540W        W14081  44.396   8.894  13.326
47541W        W14082  10.828  37.821  13.692
47542W        W14083  21.789  14.678  11.510
47543W        W14084  38.025   0.377   4.981
47544W        W14085   4.847  17.543   0.779
47545W        W14086  43.779  40.092  11.047
47546W        W14087  43.041  17.852  10.755
47547W        W14088  44.710  12.019   0.970
47548W        W14089  11.122  38.010   9.758
47549W        W14090   0.206   5.406  12.517
47550W        W14091  18.998  17.808  11.748
47551W        W14092  37.718  23.680   3.767
47552W        W14093  31.572  24.531  13.052
47553W        W14094  21.188  26.737   0.147
47554W        W14095   4.109   9.587  11.148
47555W        W14096  14.955  21.649   3.626
47556W        W14097   1.790  15.769  10.774
47557W        W14098  22.485  38.456   1.261
47558W        W14099  16.217  29.350  11.551
47559W        W14100  22.165  13.504   0.480
47560W        W14101  31.280  12.075   0.889
47561W        W14102  26.317  24.838  12.429
47562W        W14103  38.246   2.119  14.521
47563W        W14104  29.676  15.417   3.070
47564W        W14105  19.757  29.488   4.575
47565W        W14106  44.419  35.456  12.356
47566W        W14107  14.667  14.752   3.702
47567W        W14108  38.416  19.151   2.274
47568W        W14109  21.734  28.453  14.215
47569W        W14110  13.315  23.017  12.132
47570W        W14111   7.774   5.568  12.921
47571W        W14112  28.033  25.205   0.853
47572W        W14113   1.412  21.850  12.683
47573W        W14114  31.894   3.856  11.362
47574W        W14115  15.768  42.214   4.093
47575W        W14116   5.668  20.513   0.759
47576W        W14117  37.994  29.572   0.629
47577W        W14118  31.167  29.153   4.381
47578W        W14119  24.531   1.151  11.975
47579W        W14120  30.290   7.224  14.788
47580W        W14121   7.855   8.271   0.926
47581W        W14122  10.146  22.833   0.915
47582W        W14123   3.961   8.143  10.817
47583W        W14124  26.276   8.735   9.979
47584W        W14125  43.066  35.082  10.748
47585W        W14126  29.910  13.920   4.933
47586W        W14127  34.484  24.160   3.311
47587W        W14128  13.550  19.028  13.884
47588W        W14129  14.920  34.891  13.321
47589W        W14130  33.963  32.323  14.726
47590W        W14131  32.875   0.861  12.963
47591W        W14132   9.883  38.309  13.009
47592W        W14133  41.416  11.286   3.029
47593W        W14134  22.095   8.942  14.317
47594W        W14135  36.608   8.759  14.041
47595W        W14136  38.387  40.580  11.466
47596W        W14137  15.676  33.091  11.524
47597W        W14138  33.507  24.666  13.786
47598W        W14139  36.989  21.480   0.958
47599W        W14140  35.911   2.744  14.339
47600W        W14141  23.249  24.481  13.839
47601W        W14142  17.017  35.930   0.027
47602W        W14143  21.716  18.715  12.690
47603W        W14144  33.125  28.833   1.882
47604W        W14145  37.901   1.046  11.049
47605W        W14146  41.495   2.826  10.715
47606W        W14147  26.663  13.856  14.072
47607W        W14148  14.629   6.304  10.718
47608W        W14149   1.802  14.709  14.806
47609W        W14150   4.752  14.293   3.146
47610W        W14151  39.382   8.512   4.978
47611W        W14152  32.378  29.424  11.524
47612W        W14153  17.327  37.585   3.770
47613W        W14154   7.264  35.027  14.034
47614W        W14155  42.347  30.440   2.387
47615W        W14156  23.637  32.214  12.305
47616W        W14157  44.824  30.083  10.644
47617W        W14158  24.495  43.756   1.358
47618W        W14159  41.044  27.024  13.598
47619W        W14160  31.974   3.240   0.541
47620W        W14161  29.491  42.750  10.391
47621W        W14162  12.466   6.740  10.719
47622W        W14163   5.224  31.345   1.366
47623W        W14164  17.531  35.394  13.922
47624W        W14165   8.042  11.608   0.253
47625W        W14166   7.323   6.783  14.045
47626W        W14167  40.888  40.571   0.887
47627W        W14168  25.740  20.898  13.384
47628W        W14169  30.763  21.561  11.599
47629W        W14170  32.243  23.695  12.592
47630W        W14171  16.564  24.705   3.117
47631W        W14172   0.931  41.487   1.433
47632W        W14173  24.195  18.789  10.757
47633W        W14174  21.866  30.387   3.243
47634W        W14175  38.085  25.392   1.752
47635W        W14176   6.658   3.741   2.846
47636W        W14177  39.455  39.975  13.029
47637W        W14178  41.327   5.212   0.414
47638W        W14179   2.925  16.343  11.231
47639W        W14180  11.700   8.416   3.741
47640W        W14181  34.560  41.474   2.795
47641W        W14182  38.814  16.063  12.770
47642W        W14183  24.511  37.311  12.609
47643W        W14184  14.800  20.841  12.933
47644W        W14185   8.791  41.919   2.875
47645W        W14186  25.483  22.707  10.131
47646W        W14187  12.532  28.975  10.811
47647W        W14188   2.626   5.158  14.862
47648W        W14189  38.098  14.704  12.986
47649W        W14190  16.145  22.815   2.402
47650W        W14191  11.504  13.663   0.644
47651W        W14192   7.624  18.570  10.515
47652W        W14193  31.889   4.437  11.188
47653W        W14194  41.357  32.511   0.456
47654W        W14195  30.491   7.937  11.148
47655W        W14196   1.931  42.573  13.876
47656W        W14197  13.710  36.901  12.393
47657W        W14198  44.854  10.660  10.340
47658W        W14199  15.367  44.055  13.105
47659W        W14200  26.702  30.500   0.954
47660W        W14201  35.939  25.933  10.390
47661W        W14202  34.251  18.368  10.793
47662W        W14203  32.469   2.170  13.506
47663W        W14204  38.248   6.348  12.814
47664W        W14205  35.005  34.473  10.871
47665W        W14206   8.699   7.200  11.620
47666W        W14207  28.402  16.624   1.401
47667W        W14208  20.730  31.461   1.017
47668W        W14209  42.350  21.869  11.140
47669W        W14210  29.880  15.727   3.409
47670W        W14211  22.965  38.376  14.766
47671W        W14212   8.667  44.745   1.305
47672W        W14213   4.104  36.340  14.271
47673W        W14214  33.549  24.231   1.257
47674W        W14215  24.405  16.983  11.985
47675W        W14216   9.553  23.019   2.238
47676W        W14217  11.136  10.310   2.678
47677W        W14218  31.800  10.312  13.143
47678W        W14219  27.110  41.943   3.576
47679W        W14220  33.850   8.129  14.809
47680W        W14221  21.975  18.813   4.032
47681W        W14222  31.455   4.953   2.219
47682W        W14223  33.927  27.249   3.172
47683W        W14224   0.234  35.122   4.117
47684W        W14225   4.436   2.009   2.881
47685W        W14226  21.694  16.587  13.290
47686W        W14227  10.210  23.353   1.077
47687W        W14228  44.539  14.147  12.954
47688W        W14229   6.226   4.060  12.598
47689W        W14230  41.525  35.147  13.278
47690W        W14231  26.583  23.709   2.785
47691W        W14232  39.518   4.339  13.425
47692W        W14233  20.170  32.666   3.252
47693W        W14234  32.238  10.257  14.498
47694W        W14235   4.921  16.562  14.701
47695W        W14236  33.963  35.623  12.387
47696W        W14237  23.269   0.466   3.425
47697W        W14238   8.402   1.353  14.838
47698W        W14239  36.498  37.885   0.910
47699W        W14240   7.465   1.853   0.715
47700W        W14241  33.551   0.872  12.820
47701W        W14242  39.326  23.170   3.953
47702W        W14243   9.096  13.733   1.009
47703W        W14244   0.313  38.516   0.374
47704W        W14245  27.950  27.094  14.001
47705W        W14246  39.532  16.743  13.807
47706W        W14247  26.517  22.655   0.757
47707W        W14248  37.050  43.508   4.268
47708W        W14249  10.333  17.067  14.643
47709W        W14250  24.682  25.192   3.170
47710W        W14251  13.602  24.650  13.907
47711W        W14252  42.793   0.355  11.789
47712W        W14253  34.989   8.815  10.794
47713W        W14254  17.271  40.528  10.488
47714W        W14255  12.892   4.744  13.674
47715W        W14256  34.352  38.478  13.417
47716W        W14257  16.581   9.939   4.136
47717W        W14258  34.059  31.952   2.814
47718W        W14259  36.553  34.352   0.270
47719W        W14260  16.634  18.692   3.677
47720W        W14261  11.733  14.599   2.392
47721W        W14262   5.302  23.661  11.989
47722W        W14263  25.044   0.505   2.336
47723W        W14264  36.971  36.348   1.721
47724W        W14265  41.581  28.484  12.621
47725W        W14266  42.894  12.647   0.468
47726W        W14267  31.014   8.841   2.332
47727W        W14268   7.390  44.670   0.195
47728W        W14269  37.668   2.343  11.857
47729W        W14270  14.306   7.679  14.250
47730W        W14271  41.335   2.291  14.364
47731W        W14272  11.376   9.124   4.073
47732W        W14273  32.194  13.201   3.223
47733W        W14274  26.807  27.543  10.869
47734W        W14275  17.766   1.532   0.374
47735W        W14276   8.806   8.246  11.501
47736W        W14277  41.885  24.705   0.304
47737W        W14278  29.932  42.247   1.277
47738W        W14279  15.547  33.500  10.249
47739W        W14280  37.211  42.239   2.800
47740W        W14281  40.855   1.206  12.175
47741W        W14282  43.099  27.577   1.350
47742W        W14283   6.383  33.640  13.058
47743W        W14284   3.164  14.839   3.685
47744W        W14285  29.619   0.374  14.161
47745W        W14286  32.506  44.770  10.687
47746W        W14287  36.424  13.706  12.866
47747W        W14288  14.132  10.334  11.883
47748W        W14289  44.241   1.321  12.793
47749W        W14290  21.525  19.176  12.521
47750W        W14291  11.409  11.798   0.911
47751W        W14292   0.742  14.525  14.526
47752W        W14293   6.449   5.462  13.134
47753W        W14294  15.353  33.436  14.529
47754W        W14295   9.669  13.621  10.748
47755W        W14296  38.508  32.499  14.540
47756W        W14297   3.922  14.702  11.855
47757W        W14298  35.599  31.023   2.462
47758W        W14299   4.282  39.608  13.374
47759W        W14300  16.758  34.831  12.825
47760W        W14301  12.332  23.985  11.247
47761W        W14302  10.220   8.416   9.821
47762W        W14303  30.066  30.385   1.237
47763W        W14304  41.513  12.364   2.769
47764W        W14305  44.954  36.243   4.378
47765W        W14306   2.382  14.214   3.741
47766W        W14307  37.549   7.905  12.442
47767W        W14308  10.615  43.401   3.859
47768W        W14309  25.010  38.141   2.850
47769W        W14310   3.650  37.469   2.312
47770W        W14311  14.293  29.402   4.186
47771W        W14312   3.667   2.506  14.292
47772W        W14313   4.943  28.327  12.189
47773W        W14314  25.334  17.604   1.770
47774W        W14315  33.882  44.459  11.365
47775W        W14316  10.868  28.426  12.554
47776W        W14317  42.982  11.832   0.999
47777W        W14318  44.888  39.532   3.944
47778W        W14319  29.364   5.200  14.288
47779W        W14320  40.683  43.664  12.877
47780W        W14321   7.907  28.741  10.826
47781W        W14322   4.565  12.353   1.246
47782W        W14323  26.926   4.690   3.259
47783W        W14324  33.985  43.790   4.112
47784W        W14325  11.871  35.722  12.075
47785W        W14326  35.373   0.390   0.778
47786W        W14327  14.251  44.724   2.300
47787W        W14328  39.928   4.726   2.989
47788W        W14329  39.037  43.675   2.299
47789W        W14330  40.869   0.556   2.713
47790W        W14331  13.234  40.529  14.488
47791W        W14332  12.134  16.096  11.750
47792W        W14333  29.299  10.625  14.368
47793W        W14334  39.909  16.821   2.731
47794W        W14335  16.407   7.961   0.888
47795W        W14336  43.889  29.633   2.665
47796W        W14337   8.186  37.442   0.909
47797W        W14338  27.610  27.786   4.064
47798W        W14339  35.091  11.699   1.438
47799W        W14340  21.778  14.212  14.493
47800W        W14341  35.876  11.714   0.961
47801W        W14342   7.856  18.564  14.545
47802W        W14343   5.046  16.913   1.449
47803W        W14344  27.189  18.237   0.440
47804W        W14345  19.238  15.184  14.828
47805W        W14346  38.642   2.262   2.230
47806W        W14347  20.452  12.060   3.562
47807W        W14348  40.024  16.946   4.619
47808W        W14349  20.790   4.466  12.545
47809W        W14350  43.331  27.959  11.188
47810W        W14351  23.246  33.012  13.483
47811W        W14352  41.987  41.977  12.426
47812W        W14353  32.117  34.414   2.736
47813W        W14354  41.554  14.813   1.303
47814W        W14355   8.751  14.846   3.072
47815W        W14356  24.078   0.293  11.113
47816W        W14357  18.317  21.310   4.544
47817W        W14358   9.757  44.926   4.028
47818W        W14359  17.025  22.251   3.286
47819W        W14360   1.186  10.686  10.693
47820W        W14361  17.517  33.813  11.512
47821W        W14362  22.110   4.439   0.121
47822W        W14363  40.404   5.033  14.223
47823W        W14364  20.271  33.607   4.339
47824W        W14365  11.824  16.610  13.021
47825W        W14366  23.554  25.250   2.337
47826W        W14367   0.032  30.442  11.502
47827W        W14368  18.759  27.075  13.415
47828W        W14369  31.755  31.261  13.322
47829W        W14370  28.286  29.228  12.099
47830W        W14371   8.060  42.262  13.997
47831W        W14372  16.124   2.308  10.749
47832W        W14373  19.950  38.437   0.026
47833W        W14374  16.265  20.155   0.777
47834W        W14375  10.196  17.166  10.149
47835W        W14376  35.136  33.357  13.153
47836W        W14377  27.546   4.933  11.267
47837W        W14378  36.273  39.947  11.118
47838W        W14379  17.780   5.996   2.380
47839W        W14380  41.352  42.884   1.793
47840W        W14381  20.390  17.233  10.646
47841W        W14382  42.932  18.598  14.874
47842W        W14383  10.127  33.616  12.466
47843W        W14384  29.125   1.175  11.390
47844W        W14385  44.063  39.197   9.990
47845W        W14386  25.465   4.196   4.493
47846W        W14387  42.355  23.044   0.272
47847W        W14388   9.215   0.692   1.903
47848W        W14389   9.562  35.604   3.279
47849W        W14390  11.705  19.440   3.247
47850W        W14391   7.951  38.017   4.465
47851W        W14392  25.014  34.852   3.874
47852W        W14393  31.187  36.445  11.185
47853W        W14394  39.191  18.679  13.337
47854W        W14395  26.178  14.515   0.402
47855W        W14396  26.667  34.556   2.639
47856W        W14397  38.878  22.043  13.338
47857W        W14398  17.264  42.708   4.967
47858W        W14399  20.703  13.567   1.265
47859W        W14400  43.356  18.532   0.254
47860W        W14401  23.702  23.783   2.783
47861W        W14402  20.323  33.138   3.146
47862W        W14403  36.626   5.974   3.739
47863W        W14404   8.448  33.011   0.286
47864W        W14405  44.905   4.194  13.322
47865W        W14406  43.228   6.682  12.464
47866W        W14407   3.362  26.303  14.492
47867W        W14408  37.400  13.412  10.180
47868W        W14409  30.434   0.146  14.070
47869W        W14410   8.882  19.505  13.193
47870W        W14411  12.861  34.620   3.340
47871W        W14412   3.611  41.694  12.973
47872W        W14413   4.388  15.608  12.538
47873W        W14414  35.110   3.945   2.602
47874W        W14415   7.230  39.283   2.141
47875W        W14416  36.289  21.570   3.648
47876W        W14417  19.504   8.159  14.694
47877W        W14418  18.263  25.507  14.081
47878W        W14419   3.195  20.527  13.027
47879W        W14420  43.960  12.901  12.919
47880W        W14421  33.857  25.830   4.479
47881W        W14422  38.115   6.418  13.524
47882W        W14423   4.356  19.769   0.440
47883W        W14424  37.048  23.271  13.084
47884W        W14425   4.316  29.587   0.452
47885W        W14426  16.835  27.438   2.904
47886W        W14427  39.822  39.118   1.194
47887W        W14428   2.331   9.360  12.539
47888W        W14429  12.081  29.795  11.514
47889W        W14430  28.096   4.758   3.934
47890W        W14431  44.892  40.363   2.374
47891W        W14432   2.299  12.670   1.056
47892W        W14433   0.912   4.118   0.416
47893W        W14434   3.561  40.831   3.667
47894W        W14435  28.360  13.789   9.827
47895W        W14436  14.650   9.159  10.836
47896W        W14437  20.904   2.284   0.342
47897W        W14438   7.176  30.781   2.738
47898W        W14439  18.132  38.585   0.395
47899W        W14440  16.576  18.473   1.464
47900W        W14441   3.504  24.347  14.717
47901W        W14442  22.669   9.159   1.830
47902W        W14443   9.612  20.688  12.110
47903W        W14444   4.450  25.620   1.388
47904W        W14445  19.290   4.362  10.090
47905W        W14446   7.134  21.816  11.077
47906W        W14447  16.870  21.171   2.859
47907W        W14448  36.690  25.253   1.490
47908W        W14449  13.545   7.262  13.983
47909W        W14450  39.671   0.961   2.268
47910W        W14451   7.636  17.639  11.526
47911W        W14452  42.990  44.365   4.576
47912W        W14453  13.701  20.790   1.622
47913W        W14454  28.562   5.825  10.646
47914W        W14455   5.701  27.380   0.401
47915W        W14456  19.243  25.181   2.523
47916W        W14457  30.389  34.542   4.605
47917W        W14458  10.276  39.918   0.003
47918W        W14459   1.931  29.070  10.574
47919W        W14460  33.800  40.216   4.891
47920W        W14461  10.603  43.435  13.185
47921W        W14462  35.246  28.518   4.285
47922W        W14463  26.198   8.252  12.092
47923W        W14464  38.836  26.117   4.584
47924W        W14465  22.225   4.374   0.628
47925W        W14466  33.459  37.691   3.142
47926W        W14467  36.988  14.359  14.556
47927W        W14468   2.787  33.388  10.712
47928W        W14469  44.550  28.589  12.212
47929W        W14470  17.574  32.624  13.862
47930W        W14471   5.425  19.074   1.718
47931W        W14472  37.515  35.763  14.849
47932W        W14473  16.172  24.778  14.144
47933W        W14474  43.997  32.139  11.599
47934W        W14475  14.864   2.993  11.278
47935W        W14476  19.974   7.879   1.612
47936W        W14477  22.672   8.338  10.233
47937W        W14478  32.125   3.513  13.528
47938W        W14479  30.572  10.200   3.301
47939W        W14480  30.107  29.537   0.215
47940W        W14481   2.921  34.380   5.560
47941W        W14482  18.211  29.945  13.368
47942W        W14483  44.305  16.374   3.626
47943W        W14484  31.169   6.423   3.352
47944W        W14485  23.891  26.690  12.023
47945W        W14486   4.968  18.484  13.742
47946W        W14487  31.071  37.844   3.263
47947W        W14488  41.344  36.945  11.304
47948W        W14489  23.128  27.646   2.661
47949W        W14490  43.328  26.622  12.845
47950W        W14491   5.955  22.312  12.966
47951W        W14492  17.571  33.538   3.098
47952W        W14493  31.992  39.466   4.917
47953W        W14494  35.149  25.705   4.091
47954W        W14495  25.510  26.764   3.445
47955W        W14496   3.927  20.084  12.738
47956W        W14497   8.295  10.767   1.346
47957W        W14498  38.444  35.315   4.722
47958W        W14499  14.693  14.275   2.945
47959W        W14500  18.771  39.988  11.176
47960W        W14501   2.000  27.090  11.478
47961W        W14502  21.715   5.337  12.144
47962W        W14503  22.675  44.773   4.356
47963W        W14504   4.309  10.331  13.556
47964W        W14505  18.149  38.540  12.661
47965W        W14506  13.861  39.838  12.649
47966W        W14507  30.440  35.474   0.926
47967W        W14508  40.899  37.005  14.472
47968W        W14509   8.762  28.002  11.611
47969W        W14510  44.439   5.836   0.814
47970W        W14511  19.265   7.852  11.407
47971W        W14512   6.112  13.128   2.904
47972W        W14513  26.004   8.527   2.824
47973W        W14514   3.983  37.518   2.745
47974W        W14515  35.639  17.577  13.672
47975W        W14516  11.653  24.063  10.109
47976W        W14517  14.083  32.524  10.363
47977W        W14518  22.719  33.414   4.906
47978W        W14519  39.778  27.243  12.120
47979W        W14520  16.706  30.413  14.854
47980W        W14521   5.835  19.552   4.102
47981W        W14522   6.789  23.455  14.928
47982W        W14523  13.315  38.324   3.022
47983W        W14524  44.865  14.052  11.950
47984W        W14525  39.734   0.934  11.769
47985W        W14526  39.623  15.712   1.729
47986W        W14527  34.591  11.674  14.581
47987W        W14528   7.698  30.708  10.638
47988W        W14529  11.645  37.469  14.612
47989W        W14530  20.565  20.711  14.857
47990W        W14531   4.659  20.555   4.569
47991W        W14532  39.863  41.033  13.017
47992W        W14533  35.508  36.306  12.505
47993W        W14534  35.691  21.670   4.725
47994W        W14535   0.015  32.993   4.745
47995W        W14536  27.428  13.783   0.979
47996W        W14537  35.581   8.831  12.075
47997W        W14538  32.331  33.972   4.488
47998W        W14539   6.313   7.770   0.359
47999W        W14540  38.607  22.637   0.915
48000W        W14541  14.838  31.616   1.822
48001W        W14542  25.111  26.135   3.544
48002W        W14543  13.163  20.581   4.662
48003W        W14544   6.452   3.745   4.851
48004W        W14545  28.085  30.971  12.931
48005W        W14546  21.172  27.530  12.799
48006W        W14547   1.671  33.177   4.626
48007W        W14548  44.028  40.852   0.508
48008W        W14549  29.133  24.217   0.964
48009W        W14550  22.075  32.584   4.678
48010W        W14551   2.478  12.671  10.010
48011W        W14552  38.624  10.544  10.754
48012W        W14553   4.693  22.831   4.799
48013W        W14554  13.218  42.887   4.769
48014W        W14555  39.355  36.431   3.974
48015W        W14556   9.773   4.932  12.363
48016W        W14557  17.537  22.961  10.747
48017W        W14558  23.014   1.796   2.216
48018W        W14559  22.002  32.634  11.451
48019W        W14560   5.613  10.441  13.757
48020W        W14561  43.863   5.696   1.449
48021W        W14562  37.233  25.578   1.382
48022W        W14563   1.746  27.654  10.693
48023W        W14564  24.042  19.660   4.842
48024W        W14565  39.768  34.186  14.122
48025W        W14566   6.827   7.992  10.687
48026W        W14567  19.705  42.853   4.659
48027W        W14568  18.537   9.807  11.600
48028W        W14569  27.228  39.174   2.905
48029W        W14570  40.174  21.895   3.311
48030W        W14571  38.183  20.090   1.823
48031W        W14572  17.043  36.889   1.674
48032W        W14573  29.990  29.090   1.831
48033W        W14574  41.981  32.338   1.198
48034W        W14575   2.041  30.017   3.251
48035W        W14576  43.468   4.835  12.158
48036W        W14577   6.625  30.980   4.587
48037W        W14578   9.708  44.417  10.595
48038W        W14579   6.730   7.470  10.685
48039W        W14580  37.437   6.363   2.636
48040W        W14581  28.740  23.242  13.591
48041W        W14582   7.777  31.562  11.102
48042W        W14583   4.907   2.834  12.358
48043W        W14584  39.712  14.038   1.214
48044W        W14585  11.252  34.230   4.361
48045W        W14586  25.034  12.325  12.454
48046W        W14587   5.680  31.162  14.032
48047W        W14588  44.535   8.360  13.773
48048W        W14589  18.814  26.630   0.397
48049W        W14590   0.474  19.982  14.988
48050W        W14591  15.447  23.609  10.813
48051W        W14592  34.549   8.154  11.208
48052W        W14593  43.467  25.064   2.667
48053W        W14594  37.063  40.422  11.614
48054W        W14595  34.615  34.394   0.866
48055W        W14596  18.075  43.323  11.119
48056W        W14597  38.814  20.197   4.447
48057W        W14598  11.272   8.069   5.040
48058W        W14599   5.691   7.715  13.363
48059W        W14600  28.241  29.726  11.925
48060W        W14601   8.367   8.512   3.196
48061W        W14602   1.837  12.387  12.041
48062W        W14603   9.379   2.890   2.916
48063W        W14604  30.109  42.834   4.638
48064W        W14605  44.689  17.815  12.999
48065W        W14606  37.456   5.251   0.629
48066W        W14607  12.910   4.900  10.777
48067W        W14608  37.135  29.155   0.479
48068W        W14609   2.476  29.756  10.414
48069W        W14610   4.541  18.249  13.557
48070W        W14611  40.809  26.209   0.117
48071W        W14612  19.295  39.421  12.064
48072W        W14613  21.967  41.468   1.750
48073W        W14614   0.841  15.486   3.177
48074W        W14615  13.152   7.908   3.014
48075W        W14616  27.459   6.631  13.037
48076W        W14617   4.339  27.190   4.982
48077W        W14618  37.893  33.967   4.399
48078W        W14619  39.172  20.815   2.848
48079W        W14620  31.342   3.910  13.017
48080W        W14621  12.432   6.412  14.041
48081W        W14622   4.818  24.486  13.750
48082W        W14623  16.117   6.855   1.723
48083W        W14624  41.254  28.017  11.498
48084W        W14625  31.081  37.921  12.071
48085W        W14626  34.495  13.700  13.514
48086W        W14627  37.061  32.049   3.922
48087W        W14628  28.974   0.672  11.407
48088W        W14629  32.308  34.709   3.113
48089W        W14630  16.777  11.073  12.919
48090W        W14631  30.068  32.544   2.321
48091W        W14632  33.469  14.188  11.406
48092W        W14633  17.813   9.718  13.988
48093W        W14634  16.711  37.813   0.168
48094W        W14635  26.071  25.270  11.622
48095W        W14636  35.521   6.219   1.727
48096W        W14637  44.976  38.373   0.746
48097W        W14638  35.077   0.936  10.337
48098W        W14639  35.001  26.246   3.284
48099W        W14640  11.426  32.731   1.765
48100W        W14641   0.896  43.756  14.893
48101W        W14642  24.430   9.412  13.002
48102W        W14643  15.984  13.970   3.405
48103W        W14644  43.131  31.589  11.139
48104W        W14645  26.378   7.078   9.938
48105W        W14646  39.060  37.056   4.676
48106W        W14647  11.548   7.011   1.813
48107W        W14648   6.683   2.989   3.672
48108W        W14649  44.727  24.083  11.775
48109W        W14650  14.266  29.655  13.457
48110W        W14651   5.374  16.846   2.194
48111W        W14652  16.947   2.793  14.336
48112W        W14653  37.984   5.175  12.947
48113W        W14654  28.057  21.882  14.438
48114W        W14655  43.447  39.320   1.396
48115W        W14656  36.533  18.950  11.314
48116W        W14657  34.471  29.376   4.974
48117W        W14658  29.371  29.218  11.276
48118W        W14659  23.516  10.297   3.281
48119W        W14660  10.175  31.348  13.470
48120W        W14661  20.749  12.049   4.531
48121W        W14662  12.895  37.888   3.669
48122W        W14663  39.490   8.477   1.457
48123W        W14664  26.250  29.820   1.465
48124W        W14665   4.168   5.465   4.609
48125W        W14666   7.131  22.821  14.731
48126W        W14667   1.833  29.833   9.870
48127W        W14668  21.552  10.273  12.103
48128W        W14669  29.024  18.092  12.019
48129W        W14670   9.370  41.033  13.450
48130W        W14671  26.476  21.427   4.844
48131W        W14672   5.228  14.800  13.787
48132W        W14673  31.525  28.440   3.912
48133W        W14674  33.077  24.916  14.435
48134W        W14675  44.916   4.840   0.732
48135W        W14676  40.933  41.438   4.366
48136W        W14677  41.781  36.341   0.785
48137W        W14678  18.750  14.377   3.327
48138W        W14679   9.786  29.033  11.484
48139W        W14680  35.538   4.859  14.341
48140W        W14681  22.407  27.010  14.814
48141W        W14682  34.897  19.046   4.457
48142W        W14683   3.597  15.590   3.230
48143W        W14684  23.959  21.188  13.111
48144W        W14685  30.461   3.670   1.705
48145W        W14686  17.004   4.804   1.354
48146W        W14687  30.899  14.564  10.197
48147W        W14688  25.672  41.758   4.806
48148W        W14689  42.266  13.203  11.187
48149W        W14690  35.955  10.153   1.408
48150W        W14691   0.756  37.883  14.282
48151W        W14692  41.998  35.340   4.481
48152W        W14693  21.280  41.318   0.347
48153W        W14694  23.788   3.293   1.488
48154W        W14695  21.280  29.753  13.006
48155W        W14696  28.639  36.583  14.064
48156W        W14697  20.674  39.342   3.518
48157W        W14698  12.590  35.830   3.755
48158W        W14699   1.494  21.069   1.796
48159W        W14700  16.787   2.694  11.189
48160W        W14701  39.440  32.465  10.396
48161W        W14702  30.477  29.608  11.005
48162W        W14703  25.699  43.447   1.980
48163W        W14704  10.929  31.044   0.149
48164W        W14705  21.277   1.218  10.749
48165W        W14706  39.659  22.262  12.256
48166W        W14707  33.190   0.158  11.917
48167W        W14708  36.482  30.383  12.114
48168W        W14709  33.076   1.050   3.751
48169W        W14710  24.160  37.800   4.219
48170W        W14711  41.346   9.871  12.961
48171W        W14712  44.936  24.744   0.890
48172W        W14713  22.204  18.809   1.085
48173W        W14714  32.074  29.952  12.402
48174W        W14715  28.864   5.385   3.679
48175W        W14716  39.613  22.770   3.797
48176W        W14717  25.277   0.382  11.677
48177W        W14718  21.240  24.082  13.884
48178W        W14719   5.203   5.405   4.548
48179W        W14720  10.410  25.572   3.276
48180W        W14721  39.947   4.420  11.667
48181W        W14722  41.777  21.118   0.342
48182W        W14723  29.653  41.894  14.044
48183W        W14724  20.187   6.465  12.460
48184W        W14725  43.287  43.185   2.997
48185W        W14726  24.180  33.348   2.799
48186W        W14727  42.242  35.089   4.087
48187W        W14728  25.514  23.970  10.719
48188W        W14729  26.167   1.322  10.630
48189W        W14730  17.949   4.718   2.260
48190W        W14731  16.592  44.960  13.592
48191W        W14732  16.228  16.618  11.120
48192W        W14733   3.481   4.303   2.843
48193W        W14734  16.891  26.709   1.487
48194W        W14735  33.947  39.346   4.815
48195W        W14736  22.596  11.494  13.844
48196W        W14737  10.164   2.654   0.538
48197W        W14738   9.500   0.768   0.482
48198W        W14739  23.121  10.784   1.679
48199W        W14740   2.809  20.074   2.904
48200W        W14741  15.802   5.839   0.131
48201W        W14742  10.406  26.548  13.104
48202W        W14743  41.909   8.713  14.866
48203W        W14744  36.267  14.825  14.970
48204W        W14745   8.663   9.238   3.565
48205W        W14746  17.490  11.144  11.445
48206W        W14747  12.396   3.786   3.160
48207W        W14748   0.970  44.866   0.236
48208W        W14749  30.026  11.834   3.704
48209W        W14750   9.247  12.633   0.996
48210W        W14751  32.004  35.588   2.347
48211W        W14752  20.992  16.476  11.086
48212W        W14753  39.564  26.632   2.562
48213W        W14754  17.556   9.315   3.115
48214W        W14755  38.930  23.554   3.274
48215W        W14756  40.002  38.474  14.393
48216W        W14757  34.836  30.297  12.367
48217W        W14758  24.790   9.253   1.165
48218W        W14759  11.670   2.488  13.955
48219W        W14760  38.944  37.908  12.122
48220W        W14761  25.418  40.036  14.973
48221W        W14762   5.677  14.168   0.933
48222W        W14763  40.394  34.877  10.370
48223W        W14764  30.940  18.850   0.846
48224W        W14765  30.549  38.721  12.512
48225W        W14766  40.485  12.623  13.454
48226W        W14767  29.610   4.934   2.198
48227W        W14768  40.843   8.833  13.877
48228W        W14769  24.164  32.096  12.442
48229W        W14770   3.681  25.557  14.917
48230W        W14771   0.933  15.856  11.519
48231W        W14772  29.073  41.783   2.905
48232W        W14773  10.765  19.125  13.587
48233W        W14774  27.271   2.153   2.779
48234W        W14775  22.130  18.156  11.503
48235W        W14776   7.125  11.996  12.259
48236W        W14777  43.832  34.983   3.199
48237W        W14778   4.326  23.841   9.862
48238W        W14779  35.368  21.481  14.879
48239W        W14780  22.835  36.046   3.685
48240W        W14781  32.340  29.940   4.987
48241W        W14782   6.851  15.620   0.848
48242W        W14783  37.380   5.836   0.341
48243W        W14784  31.659  35.908  11.578
48244W        W14785  10.816   2.596   2.940
48245W        W14786  25.175  38.477  13.458
48246W        W14787  15.293  10.588   1.237
48247W        W14788   1.805  24.032  11.703
48248W        W14789  11.849   7.170  14.350
48249W        W14790   3.463  17.928   4.369
48250W        W14791  18.727   1.959   2.169
48251W        W14792  12.051   3.268   2.717
48252W        W14793  32.303  34.867  12.085
48253W        W14794  11.760   4.780  13.422
48254W        W14795  29.815  41.405  11.504
48255W        W14796  26.316  21.634  13.489
48256W        W14797   9.685  39.634  13.414
48257W        W14798  36.372   2.401   0.894
48258W        W14799  24.280  22.748   2.258
48259W        W14800  28.996   2.908  10.732
48260W        W14801   3.279  32.367  12.445
48261W        W14802  34.445  17.772  12.075
48262W        W14803  41.251  19.260   2.791
48263W        W14804   9.233  35.151  14.133
48264W        W14805  25.473   6.926   2.378
48265W        W14806  28.027  35.350  10.830
48266W        W14807  29.560   9.003  13.170
48267W        W14808   9.388  23.413   0.521
48268W        W14809  36.943  29.666   4.489
48269W        W14810  13.741  17.551   1.162
48270W        W14811  32.681  30.166  12.022
48271W        W14812  23.273  24.488  10.532
48272W        W14813   4.120  38.802  12.595
48273W        W14814  12.526  37.081  11.736
48274W        W14815  15.640   8.448  11.112
48275W        W14816  18.197  13.158  13.612
48276W        W14817  40.950  30.922   0.327
48277W        W14818   5.378   0.288   2.104
48278W        W14819   1.274  19.523  13.058
48279W        W14820  20.276  34.600  12.990
48280W        W14821  21.343  39.271   4.348
48281W        W14822  32.504  33.814  14.923
48282W        W14823   1.999  27.378   0.378
48283W        W14824   0.724  11.448   3.663
48284W        W14825  27.152  29.343   3.109
48285W        W14826   0.227  11.672   4.898
48286W        W14827   7.077   2.186   0.879
48287W        W14828  18.231  35.629   4.635
48288W        W14829  28.611   2.255  14.252
48289W        W14830  30.954  21.766   0.357
48290W        W14831   1.056  39.547  14.064
48291W        W14832  22.326  39.941   0.018
48292W        W14833  43.969  13.678   4.745
48293W        W14834  42.068  24.028  10.814
48294W        W14835  37.278  19.798   2.903
48295W        W14836  16.551  27.485  11.338
48296W        W14837  35.545  40.534   1.039
48297W        W14838  33.551   4.614  13.946
48298W        W14839   8.415  24.234   0.318
48299W        W14840  36.382  31.137   1.740
48300W        W14841  30.990  35.459   3.896
48301W        W14842   1.407  44.814   2.536
48302W        W14843  27.601  31.985  14.883
48303W        W14844   8.863  15.817  13.483
48304W        W14845   1.030  27.252  13.519
48305W        W14846  29.851   3.335  13.255
48306W        W14847   1.740  24.115   1.008
48307W        W14848  20.121  18.093   0.760
48308W        W14849  17.913  35.350   2.515
48309W        W14850  15.376   8.736  10.700
48310W        W14851  30.993  38.208   4.704
48311W        W14852   7.490   6.823  10.876
48312W        W14853  11.487  16.668  14.326
48313W        W14854  12.979  23.907   3.635
48314W        W14855   2.803  26.684  10.810
48315W        W14856   9.786  15.315   1.846
48316W        W14857  27.248  12.695   1.253
48317W        W14858  20.636  11.759  14.834
48318W        W14859  24.773   1.221  14.342
48319W        W14860  17.749   3.944   0.321
48320W        W14861  43.642  14.023  13.883
48321W        W14862  30.233  35.451  12.542
48322W        W14863  33.642  23.932   2.706
48323W        W14864  22.066  33.551   4.410
48324W        W14865  20.047  13.772   3.106
48325W        W14866  36.460  10.819  11.133
48326W        W14867   4.783  17.041   3.339
48327W        W14868  20.547  11.669   0.873
48328W        W14869  15.024  31.537  11.524
48329W        W14870  32.979   6.381  13.855
48330W        W14871  38.389  29.890   1.950
48331W        W14872  10.114  14.224   4.050
48332W        W14873  43.685  41.567   2.899
48333W        W14874  36.520  20.807  12.388
48334W        W14875  27.570   3.385  12.584
48335W        W14876  36.748  39.834   3.680
48336W        W14877  30.641  17.523   2.358
48337W        W14878  20.590  43.574   2.851
48338W        W14879  10.260  27.953   2.465
48339W        W14880  43.442  12.861  14.952
48340W        W14881  15.116  42.773  12.776
48341W        W14882  31.539  16.277   2.282
48342W        W14883   5.491  14.621   1.095
48343W        W14884  18.667  43.919   2.626
48344W        W14885  16.144   2.805   2.629
48345W        W14886  23.756  29.037   3.984
48346W        W14887  14.680  12.759   0.509
48347W        W14888   7.548   2.523  13.931
48348W        W14889  32.723  35.717   5.045
48349W        W14890  24.412  31.971   1.038
48350W        W14891   2.595   5.920   3.901
48351W        W14892  14.568  35.006   4.887
48352W        W14893  20.488   4.742   2.011
48353W        W14894  13.340  19.541  10.969
48354W        W14895   3.322  38.708   2.428
48355W        W14896   3.835   5.824  14.305
48356W        W14897  28.269   4.230   3.283
48357W        W14898  32.912  16.052   2.711
48358W        W14899  42.365  37.217   4.978
48359W        W14900  39.351  14.364   1.366
48360W        W14901  20.745  33.519   4.132
48361W        W14902   3.824   4.117  13.146
48362W        W14903   0.353  27.193   1.886
48363W        W14904  28.888  38.016  12.622
48364W        W14905  44.562  13.544  13.971
48365W        W14906   1.853   1.394   4.768
48366W        W14907   3.320   5.241   1.472
48367W        W14908  24.943  42.380  12.503
48368W        W14909  33.977  30.871   3.807
48369W        W14910  14.681  21.820   1.737
48370W        W14911  25.276  14.084   3.436
48371W        W14912  18.171  33.354   0.862
48372W        W14913  32.077  20.511  14.013
48373W        W14914  25.859   2.153   3.787
48374W        W14915  12.814  29.934  10.512
48375W        W14916  13.782  32.918  14.820
48376W        W14917  18.197  16.542   2.172
48377W        W14918  32.430   9.495  11.352
48378W        W14919  28.006  42.558   1.368
48379W        W14920  34.182  24.779   1.757
48380W        W14921  27.938  24.198  10.680
48381W        W14922  10.123  25.801  10.767
48382W        W14923  40.805  17.202  10.221
48383W        W14924   0.234  24.157  14.084
48384W        W14925  37.431  27.918  10.730
48385W        W14926  35.493  12.078   4.249
48386W        W14927  19.256  29.609   4.626
48387W        W14928  14.784  34.993  11.597
48388W        W14929  12.177  19.136  14.228
48389W        W14930  19.475  41.181   4.149
48390W        W14931  40.606  28.822  12.634
48391W        W14932  35.190   2.785  12.100
48392W        W14933   3.342  40.533  14.797
48393W        W14934  34.425  13.584   2.805
48394W        W14935   4.683  39.028  14.441
48395W        W14936  36.467  17.791   3.684
48396W        W14937  40.502  30.107  12.033
48397W        W14938  33.387  28.904   5.264
48398W        W14939  15.608  26.660   2.727
48399W        W14940  39.368  28.711   1.032
48400W        W14941   8.599  19.177   1.784
48401W        W14942  11.699   8.671   2.315
48402W        W14943  17.346  33.906   1.316
48403W        W14944   3.181  34.721  12.611
48404W        W14945  24.704  15.507  13.433
48405W        W14946  31.426  27.854   2.574
48406W        W14947  15.537   0.354  14.009
48407W        W14948  35.555  23.732   0.361
48408W        W14949  27.495  30.789  14.951
48409W        W14950  27.908   7.627   3.146
48410W        W14951   8.484  40.557   4.642
48411W        W14952  22.078  28.174  11.677
48412W        W14953  41.571  34.146   3.161
48413W        W14954   5.463  18.081   0.424
48414W        W14955  14.142   2.739  13.929
48415W        W14956   0.974   9.104   3.221
48416W        W14957  16.692   7.291   0.082
48417W        W14958  41.601  11.758   1.284
48418W        W14959  36.978  39.319  12.495
48419W        W14960  31.727  11.911   0.363
48420W        W14961  33.859  25.956   0.410
48421W        W14962  27.659  19.663   1.676
48422W        W14963   6.789  27.673   9.918
48423W        W14964  21.419  11.138   3.651
48424W        W14965   6.392  16.283   2.714
48425W        W14966   4.043   8.022  12.658
48426W        W14967  40.577  30.016  11.159
48427W        W14968  30.411  11.642   1.449
48428W        W14969   9.499  11.736  12.551
48429W        W14970   3.970  20.493   3.110
48430W        W14971   0.013  38.133  14.928
48431W        W14972  15.190  41.099   4.176
48432W        W14973  10.472  41.200   0.989
48433W        W14974   0.724  15.288   1.949
48434W        W14975  24.272  17.737   0.845
48435W        W14976  16.747  18.544  13.329
48436W        W14977  19.848   0.194   0.891
48437W        W14978  21.546  23.772  13.544
48438W        W14979   9.942  37.628   1.033
48439W        W14980  23.177  12.772  12.834
48440W        W14981  19.913   4.364   4.664
48441W        W14982  24.408  11.173   1.640
48442W        W14983  26.235  14.611   2.838
48443W        W14984  28.237  28.256   3.091
48444W        W14985  28.784  36.182   3.694
48445W        W14986   0.871  23.982  10.647
48446W        W14987   2.273  17.621   2.650
48447W        W14988   8.901  27.563  13.892
48448W        W14989   4.888  38.452   4.624
48449W        W14990  26.005  29.558  14.813
48450W        W14991  18.534  26.465   2.221
48451W        W14992   6.477   5.805   4.705
48452W        W14993  28.096   5.149  10.644
48453W        W14994  38.819  35.391   1.823
48454W        W14995   0.407  20.185   3.717
48455W        W14996  42.534   5.403   1.289
48456W        W14997  14.573  36.457   0.827
48457W        W14998  13.783  39.472  11.861
48458W        W14999   4.316  44.216  14.939
48459W        W15000  38.303  29.411  12.628
48460W        W15001  18.690  38.298   1.025
48461W        W15002  33.124  41.538  11.193
48462W        W15003  12.600   4.027  14.373
48463W        W15004   6.029  35.893   3.974
48464W        W15005  12.844  37.004   2.401
48465W        W15006  16.588   4.206  13.837
48466W        W15007  14.397  27.390  12.802
48467W        W15008   1.446  15.667  14.813
48468W        W15009  42.457   2.877   2.730
48469W        W15010  24.026  26.659   1.909
48470W        W15011  38.194  25.581  11.635
48471W        W15012  15.327  39.874  14.458
48472W        W15013  16.342  42.571   3.288
48473W        W15014  22.378  11.005   1.357
48474W        W15015  16.224  25.582  12.421
48475W        W15016  34.492  28.934  12.951
48476W        W15017  35.036  41.801  11.566
48477W        W15018  16.628  21.265   4.729
48478W        W15019  21.692  27.448  14.074
48479W        W15020  14.673   9.041   2.148
48480W        W15021   7.660  35.109   2.840
48481W        W15022  41.759  35.086   0.226
48482W        W15023  32.206  21.574  13.863
48483W        W15024  14.663   5.967   3.741
48484W        W15025  19.129  21.170  11.165
48485W        W15026  31.683  24.552   4.043
48486W        W15027  37.932  36.267  13.027
48487W        W15028  15.723  25.103   0.531
48488W        W15029  32.556  42.316   0.872
48489W        W15030  16.341  11.699  13.445
48490W        W15031  26.262  32.596   2.307
48491W        W15032  39.697  35.669   0.283
48492W        W15033  23.725  43.156  12.110
48493W        W15034  38.895  42.419  11.152
48494W        W15035   5.990   2.739  13.558
48495W        W15036  29.131  18.689   2.348
48496W        W15037  20.780  22.579  11.095
48497W        W15038  11.270  25.863   2.210
48498W        W15039   8.826  41.600   4.165
48499W        W15040  17.188  16.277   4.128
48500W        W15041  40.873   8.748   1.253
48501W        W15042  25.942   7.955  12.607
48502W        W15043  22.976   9.528  12.201
48503W        W15044  44.462  29.086  13.983
48504W        W15045  43.903  13.640   0.324
48505W        W15046  19.112  41.812   1.863
48506W        W15047  43.026   3.219   4.613
48507W        W15048  30.953  20.355   4.470
48508W        W15049  21.148  36.639   1.585
48509W        W15050  40.921  35.830  13.020
48510W        W15051  40.266  33.020   4.970
48511W        W15052  42.935  28.770   2.210
48512W        W15053  28.610   4.837  14.156
48513W        W15054  36.848  23.162   1.391
48514W        W15055  30.244  31.497   2.954
48515W        W15056  33.181  35.517  11.251
48516W        W15057  15.332   7.649  14.418
48517W        W15058  42.327   7.601  13.325
48518W        W15059  15.677   8.317  12.473
48519W        W15060  31.136   2.929   1.977
48520W        W15061   3.813  13.855   1.873
48521W        W15062   5.391  35.989  13.358
48522W        W15063  30.549  12.619   3.555
48523W        W15064  34.051  29.459  13.790
48524W        W15065   5.428  41.884   3.272
48525W        W15066  44.480  30.861   3.717
48526W        W15067  15.709  40.382  13.096
48527W        W15068  37.104  23.304   0.852
48528W        W15069  22.132   4.844   2.044
48529W        W15070  32.636  40.120  11.710
48530W        W15071  32.718  44.283   1.546
48531W        W15072   3.082  35.015  14.925
48532W        W15073  31.830  17.531  12.375
48533W        W15074  26.345  21.313   2.677
48534W        W15075  14.377  20.048   0.835
48535W        W15076  35.740  44.086   1.874
48536W        W15077  26.248   4.364  12.950
48537W        W15078  39.927  43.545  14.873
48538W        W15079   7.846  21.230  10.639
48539W        W15080  35.294  25.089   2.374
48540W        W15081  39.245  11.131   2.376
48541W        W15082  23.050   6.513   4.466
48542W        W15083  16.287  32.613   3.669
48543W        W15084  44.670  41.298   1.751
48544W        W15085  12.369  30.575  11.131
48545W        W15086  20.795  25.189  10.187
48546W        W15087   2.338  32.984  13.398
48547W        W15088  29.763  31.317   4.593
48548W        W15089   4.319  16.023  14.390
48549W        W15090  16.991   1.280  11.139
48550W        W15091  31.617  20.332  13.848
48551W        W15092  23.577  22.184  11.296
48552W        W15093  36.925   2.540  13.881
48553W        W15094  40.577  25.350   4.074
48554W        W15095  36.307  41.210  10.712
48555W        W15096   9.544   4.910  12.819
48556W        W15097  33.446   3.754  12.484
48557W        W15098  23.124  42.730  11.315
48558W        W15099  15.174  30.078   5.096
48559W        W15100  20.103  30.205   4.811
48560W        W15101  15.560  31.562  11.629
48561W        W15102  25.530  42.591  13.067
48562W        W15103  38.538  26.580  11.230
48563W        W15104  17.284  32.493   3.875
48564W        W15105   7.293  18.277  14.569
48565W        W15106  40.030  11.890   0.863
48566W        W15107  37.180  25.141   4.893
48567W        W15108   3.401  18.733  13.083
48568W        W15109  25.167  39.815  12.914
48569W        W15110   7.811  39.820   0.719
48570W        W15111  29.132  19.003   1.828
48571W        W15112  17.287  32.225  13.047
48572W        W15113   1.907  41.559   1.907
48573W        W15114  25.572  33.548   2.758
48574W        W15115   0.799   4.451   4.398
48575W        W15116  31.924  37.699   2.724
48576W        W15117  12.680   9.304  13.631
48577W        W15118  26.779  33.070  11.232
48578W        W15119  24.347  15.258   4.183
48579W        W15120   4.291  20.534  11.732
48580W        W15121  40.013   1.441  14.001
48581W        W15122  38.552   4.758   1.920
48582W        W15123   3.102  13.803   3.832
48583W        W15124  28.862  22.082  12.081
48584W        W15125  27.330  39.820  11.556
48585W        W15126   9.231  17.855   1.744
48586W        W15127   5.370   3.912  10.699
48587W        W15128  20.140  39.409   4.585
48588W        W15129  15.478  39.806   3.446
48589W        W15130  40.598   5.281   4.693
48590W        W15131  15.138  38.283   0.887
48591W        W15132  14.722  38.562  14.374
48592W        W15133  15.098   1.483   3.216
48593W        W15134   6.367   0.278   4.308
48594W        W15135   1.158  17.111   4.650
48595W        W15136  31.626  30.074  12.150
48596W        W15137  23.772  11.032   4.668
48597W        W15138  29.704   7.699  14.555
48598W        W15139  12.316  26.672   4.512
48599W        W15140   0.819   3.990  14.229
48600W        W15141  42.430   8.071  13.535
48601W        W15142   5.334  24.569   3.505
48602W        W15143  40.529  19.376  12.044
48603W        W15144  30.533   1.420  12.518
48604W        W15145  26.201   5.009   2.775
48605W        W15146  22.319  31.253  13.314
48606W        W15147  33.856  17.250  13.864
48607W        W15148  36.926  43.006  13.603
48608W        W15149  22.531  26.205  13.631
48609W        W15150  12.090  42.634   3.103
48610W        W15151  22.664  14.265   0.569
48611W        W15152  38.556  25.108  14.841
48612W        W15153  35.321   7.040   3.723
48613W        W15154  37.503  24.718   4.610
48614W        W15155   1.943   1.611   3.346
48615W        W15156   1.772  42.966   1.664
48616W        W15157  37.585  28.680  13.835
48617W        W15158  14.672  10.471   0.104
48618W        W15159   1.661  38.980  10.038
48619W        W15160  25.525  41.030   1.844
48620W        W15161  15.898  29.009   5.379
48621W        W15162  20.566  21.044  14.078
48622W        W15163  42.511   4.977   2.344
48623W        W15164  27.141  33.408   2.704
48624W        W15165   0.423  22.572   2.292
48625W        W15166  27.484  43.424  10.895
48626W        W15167  13.831   4.497   1.038
48627W        W15168  35.375  27.406   3.292
48628W        W15169  14.770  21.741  14.734
48629W        W15170  28.650   5.877   0.897
48630W        W15171  40.424  43.357  10.387
48631W        W15172  40.570  30.125   2.374
48632W        W15173  14.383  26.586  14.798
48633W        W15174  38.824  38.873  11.983
48634W        W15175  25.123  33.679   3.548
48635W        W15176  19.700  33.891   1.871
48636W        W15177  42.313  41.355   3.560
48637W        W15178   7.045   8.453   1.276
48638W        W15179  41.042  31.294  11.502
48639W        W15180  34.464  39.098  12.961
48640W        W15181  17.263  42.948   1.506
48641W        W15182   8.849  44.007   0.246
48642W        W15183   7.849  37.557   4.115
48643W        W15184   3.374   9.914  11.667
48644W        W15185  33.406  30.081   2.361
48645W        W15186  15.080  33.638  14.906
48646W        W15187  13.274  26.123   4.878
48647W        W15188   0.730  10.201  10.137
48648W        W15189  19.464  35.578  13.378
48649W        W15190  35.460  28.016  13.507
48650W        W15191  10.826  30.859   2.396
48651W        W15192  27.903   6.206  14.329
48652W        W15193  36.459  42.341  10.691
48653W        W15194   2.334  43.784  13.448
48654W        W15195   2.144  21.570   0.367
48655W        W15196  24.957   4.767  11.661
48656W        W15197  38.389  44.181   0.722
48657W        W15198  24.419  14.603  13.381
48658W        W15199  20.173  39.572  12.012
48659W        W15200  41.238  16.424  14.061
48660W        W15201  12.578  24.458  11.573
48661W        W15202  11.674  22.036   3.749
48662W        W15203   7.850  40.842   2.674
48663W        W15204   6.658  23.490  12.061
48664W        W15205   7.427  38.037   2.683
48665W        W15206   7.964  27.120  14.370
48666W        W15207   9.682   6.367   3.417
48667W        W15208  30.188  33.835   3.875
48668W        W15209  19.340  14.327  11.185
48669W        W15210   1.035  37.109   3.805
48670W        W15211   3.826  28.241   1.749
48671W        W15212  28.872   6.795   4.694
48672W        W15213  24.078   4.262  13.329
48673W        W15214  29.896  42.142  13.560
48674W        W15215  43.233  31.060   3.082
48675W        W15216   6.240  30.315  10.013
48676W        W15217  41.643   6.392  10.260
48677W        W15218   3.184  12.290  12.148
48678W        W15219  17.134  30.633   0.118
48679W        W15220  39.547  31.127  13.042
48680W        W15221  44.638   2.719  13.525
48681W        W15222  13.270  22.780  14.069
48682W        W15223  19.265  20.044   0.767
48683W        W15224  40.904   3.602  12.903
48684W        W15225  15.623  27.098  14.071
48685W        W15226  30.671  23.889  12.442
48686W        W15227   3.000   3.953  14.073
48687W        W15228  40.436  21.799  13.978
48688W        W15229  38.730  34.997  12.036
48689W        W15230  26.289  35.071   1.878
48690W        W15231  31.291  41.411  14.032
48691W        W15232   6.332  30.422  14.383
48692W        W15233  18.647  28.683  11.164
48693W        W15234   1.406   8.837   1.422
48694W        W15235   7.427  37.030  13.144
48695W        W15236  22.711   1.981   3.273
48696W        W15237  14.230  15.056   3.626
48697W        W15238  13.763  38.110  11.137
48698W        W15239  14.327  13.535   4.545
48699W        W15240   5.506  31.501  13.546
48700W        W15241  41.042  26.945   1.223
48701W        W15242  15.246  21.631  12.392
48702W        W15243  28.710  36.521   0.506
48703W        W15244   3.697  36.376  13.387
48704W        W15245   0.797  16.670  13.391
48705W        W15246  15.799  24.181  10.174
48706W        W15247  37.220  34.475  14.751
48707W        W15248  29.611  35.116  13.411
48708W        W15249  35.220  23.096   4.052
48709W        W15250  36.146   5.171  14.489
48710W        W15251  10.739  20.210   1.866
48711W        W15252   3.851  42.044   3.629
48712W        W15253  23.412  43.817  12.411
48713W        W15254   0.681  40.409   3.625
48714W        W15255   7.348  30.948  11.653
48715W        W15256  42.555   0.830  10.551
48716W        W15257  37.044  35.099  13.406
48717W        W15258  17.069  23.469   5.394
48718W        W15259  21.721   8.876   1.477
48719W        W15260  30.530  15.022  14.295
48720W        W15261  34.891   6.460  12.894
48721W        W15262  37.329  28.599  13.371
48722W        W15263  40.578  27.563  11.148
48723W        W15264  42.909  27.675   5.012
48724W        W15265  40.115  27.135   1.481
48725W        W15266  22.940   3.768   0.001
48726W        W15267  22.278  35.511   2.222
48727W        W15268   6.196   5.670   4.273
48728W        W15269  24.752   4.874   4.544
48729W        W15270  33.005  21.396  13.069
48730W        W15271  26.598  15.983  10.602
48731W        W15272  21.541  19.750   3.863
48732W        W15273  15.675  17.574   2.616
48733W        W15274  32.511  34.989  11.139
48734W        W15275  13.580  25.227   1.739
48735W        W15276  29.146  11.130   1.471
48736W        W15277   2.329  30.615  13.023
48737W        W15278  11.194  42.220   3.827
48738W        W15279  38.062  24.665  11.640
48739W        W15280  12.160  27.647  10.983
48740W        W15281  35.790  43.258   3.148
48741W        W15282  20.677  32.628  14.366
48742W        W15283  41.793  23.672  11.717
48743W        W15284  18.779  21.273  13.034
48744W        W15285  13.612  31.547   2.293
48745W        W15286   5.506  10.037  13.275
48746W        W15287   2.376  16.200  10.334
48747W        W15288   6.639   1.823   4.744
48748W        W15289   5.362  14.377  10.665
48749W        W15290  44.994  44.756  14.459
48750W        W15291  21.581  33.903   0.206
48751W        W15292   2.636  19.144  14.003
48752W        W15293   6.975  26.727  14.318
48753W        W15294   2.897   4.825   0.278
48754W        W15295  36.858   7.562   0.424
48755W        W15296  44.198  20.645  13.074
48756W        W15297   7.738  19.584   1.597
48757W        W15298   1.900   5.782  14.761
48758W        W15299  33.071  43.756  13.404
48759W        W15300  19.866   7.936   2.278
48760W        W15301  32.814  10.323  12.966
48761W        W15302  36.389  37.506   2.838
48762W        W15303  27.461   4.888   3.275
48763W        W15304  23.719   8.642   1.680
48764W        W15305  26.124  44.629   2.213
48765W        W15306  43.858  19.325   0.341
48766W        W15307  20.291  37.731  14.311
48767W        W15308   9.653  33.577   2.611
48768W        W15309  17.710   3.418   0.198
48769W        W15310  11.058  30.619  13.535
48770W        W15311  14.467  41.519  10.409
48771W        W15312  38.008  14.245   2.892
48772W        W15313  26.191   9.902  10.908
48773W        W15314  29.664  42.029   1.695
48774W        W15315  22.529  10.731  14.373
48775W        W15316  28.669   0.274  14.767
48776W        W15317  22.892  42.316   0.695
48777W        W15318  39.078  33.558   1.252
48778W        W15319  18.077  24.738   1.388
48779W        W15320  35.446  11.122   4.213
48780W        W15321  24.537  40.825  12.117
48781W        W15322  38.502  18.135  13.005
48782W        W15323  10.080   4.803  13.938
48783W        W15324  38.845  41.231  11.894
48784W        W15325  14.337  41.492  10.907
48785W        W15326  28.573  30.136   4.284
48786W        W15327  35.028  15.328   4.873
48787W        W15328  20.493   1.417   3.199
48788W        W15329   8.238  43.000   0.297
48789W        W15330  44.209  42.506   0.700
48790W        W15331   4.946  36.044  10.814
48791W        W15332   7.251   6.287   1.267
48792W        W15333  26.073   7.155  12.206
48793W        W15334  11.934   8.166   0.476
48794W        W15335  27.701   4.670  10.844
48795W        W15336  15.346  28.531   1.750
48796W        W15337  35.858   6.383  12.939
48797W        W15338   2.809  22.865  10.723
48798W        W15339   9.923  36.889   3.672
48799W        W15340  14.592  22.535   4.566
48800W        W15341  42.812  38.991   4.153
48801W        W15342  27.696  26.268  12.656
48802W        W15343  34.961  24.045  12.509
48803W        W15344  14.389  30.215   5.411
48804W        W15345  44.819  34.974  11.946
48805W        W15346  26.482  33.944   4.168
48806W        W15347  16.853  36.819  12.906
48807W        W15348  27.004  15.628   0.008
48808W        W15349  33.540  36.347   2.764
48809W        W15350  34.035  16.397   0.917
48810W        W15351  37.383  10.465   2.705
48811W        W15352  17.793  19.823  13.856
48812W        W15353  25.931  38.468  14.263
48813W        W15354   9.746  34.384  14.944
48814W        W15355  30.129  18.523  12.672
48815W        W15356  34.447  36.549   3.238
48816W        W15357   2.553   8.413   1.455
48817W        W15358  13.762  15.139  10.676
48818W        W15359  17.075  42.289  11.132
48819W        W15360  44.405  14.379  14.266
48820W        W15361  36.849   0.995   1.835
48821W        W15362  14.313  30.761  11.742
48822W        W15363   6.834   4.176   0.499
48823W        W15364   2.767  15.039  14.837
48824W        W15365  22.956  38.560  11.911
48825W        W15366   7.906  18.541   2.653
48826W        W15367  12.556   1.414  12.439
48827W        W15368  41.784  36.065  11.150
48828W        W15369  34.992  12.193   4.205
48829W        W15370  18.177  34.085   1.210
48830W        W15371  20.067  38.339   0.537
48831W        W15372  34.901  28.462  14.061
48832W        W15373  18.943   5.195  11.384
48833W        W15374  33.826  24.758  11.119
48834W        W15375  22.578  26.610   1.787
48835W        W15376  23.741  26.068   1.950
48836W        W15377  20.265  41.761   1.311
48837W        W15378  26.918   6.773  10.681
48838W        W15379   5.302  21.203   3.217
48839W        W15380   9.710  35.240   0.417
48840W        W15381   1.991   2.459   2.334
48841W        W15382   8.766  20.587  14.283
48842W        W15383  44.371  13.719  13.533
48843W        W15384  27.409  34.671  12.072
48844W        W15385  41.264  34.314   3.534
48845W        W15386  40.344  19.198   4.583
48846W        W15387  21.478  35.419   0.012
48847W        W15388  42.501  14.957  13.375
48848W        W15389  17.762  28.558  11.396
48849W        W15390   3.243  25.804  13.464
48850W        W15391  42.847  10.431  11.766
48851W        W15392  16.051  10.941   1.368
48852W        W15393  32.065  30.535  13.778
48853W        W15394   6.701  24.527  14.938
48854W        W15395   8.677  20.146  11.163
48855W        W15396  42.754  42.396  12.613
48856W        W15397  32.430   0.197   1.283
48857W        W15398  20.757   7.354   0.904
48858W        W15399  31.558   1.746  14.755
48859W        W15400  34.951  42.090   2.605
48860W        W15401  38.730  19.798  14.767
48861W        W15402  41.809  37.083   3.151
48862W        W15403  43.935  20.253   0.332
48863W        W15404  42.979  41.726   1.667
48864W        W15405  44.305  40.051   4.156
48865W        W15406  40.712  17.385   2.275
48866W        W15407  28.690   2.502  14.735
48867W        W15408   5.708  33.778   0.956
48868W        W15409  27.391   6.608  11.586
48869W        W15410  20.578   2.593  11.457
48870W        W15411  11.765  11.598  12.079
48871W        W15412   4.253  40.037   2.099
48872W        W15413  10.256  44.337  14.263
48873W        W15414   8.734  21.629   2.384
48874W        W15415   3.268  37.680  13.892
48875W        W15416   1.687  40.115  13.725
48876W        W15417  30.737  11.319  12.844
48877W        W15418  33.169   0.797  13.391
48878W        W15419  16.955  28.180   0.382
48879W        W15420  12.216   1.488  12.827
48880W        W15421  15.758  25.669   1.147
48881W        W15422  30.870  12.720  14.267
48882W        W15423  36.086  40.482   4.015
48883W        W15424   2.760   0.230  12.936
48884W        W15425  16.640  15.860   4.677
48885W        W15426  21.405  15.984   3.190
48886W        W15427  16.532   7.927  11.408
48887W        W15428  15.259  16.116  13.346
48888W        W15429   6.866   6.414   4.357
48889W        W15430   4.344  19.517  11.622
48890W        W15431  22.343  33.008  13.972
48891W        W15432   2.237  11.212   3.749
48892W        W15433  24.617  14.744  11.902
48893W        W15434   9.105  38.437  13.660
48894W        W15435  13.298  23.285  10.777
48895W        W15436  22.299  41.317   3.283
48896W        W15437  29.586  30.643  13.349
48897W        W15438   8.708  13.718   1.360
48898W        W15439  30.320  31.514   1.552
48899W        W15440  17.320  32.942   4.617
48900W        W15441  37.797  16.578   4.419
48901W        W15442  24.363   2.191   2.875
48902W        W15443  31.318   1.769   0.209
48903W        W15444  27.173   7.894  13.844
48904W        W15445  44.473   2.198  11.199
48905W        W15446   9.969  13.185  13.881
48906W        W15447  31.146  33.373   3.725
48907W        W15448   7.091  41.177   3.017
48908W        W15449  24.063  40.309   2.757
48909W        W15450  32.757   9.084   0.779
48910W        W15451   1.999  19.503   3.269
48911W        W15452  44.899  40.762  11.600
48912W        W15453  16.396   3.128   1.027
48913W        W15454   8.952  25.801  12.019
48914W        W15455  43.339  20.752   1.335
48915W        W15456   9.535  12.586  12.421
48916W        W15457  36.962  32.051  12.602
48917W        W15458   2.786  38.129   4.664
48918W        W15459  26.067  34.676  11.211
48919W        W15460   0.841   3.113  10.432
48920W        W15461  16.644  33.015  12.045
48921W        W15462  32.135  38.817   1.357
48922W        W15463  42.201  15.995  14.917
48923W        W15464  26.516   3.856   1.702
48924W        W15465  41.295  17.011   0.738
48925W        W15466  24.047  12.693   3.115
48926W        W15467  25.775   9.823  11.192
48927W        W15468  42.443  41.456   1.171
48928W        W15469  44.068  14.084   1.845
48929W        W15470  26.106  19.539  13.589
48930W        W15471  35.668   7.798   1.876
48931W        W15472  44.005  41.412  10.655
48932W        W15473  27.849  13.757   1.897
48933W        W15474  25.667  24.221  11.147
48934W        W15475  40.323  38.924   4.998
48935W        W15476  32.398   8.700   0.430
48936W        W15477   1.771  20.137  12.510
48937W        W15478  38.249  14.348   0.372
48938W        W15479  14.922  38.985  14.614
48939W        W15480  11.538  25.561   0.215
48940W        W15481  29.043  22.889   4.127
48941W        W15482  23.950   8.567   1.214
48942W        W15483  41.029  32.112  12.466
48943W        W15484  43.807  15.321   5.413
48944W        W15485   7.423  44.171   3.658
48945W        W15486  18.643  16.506   0.568
48946W        W15487  13.683  42.402   4.115
48947W        W15488  36.159  24.806  10.865
48948W        W15489  12.606  33.535  14.297
48949W        W15490  32.145  24.716   1.804
48950W        W15491  17.353  23.497  11.480
48951W        W15492  31.315  10.728  12.377
48952W        W15493  15.265  37.916  13.991
48953W        W15494   8.387  25.457   2.373
48954W        W15495  16.148  34.339  10.227
48955W        W15496  18.212  21.558   4.100
48956W        W15497   7.652  29.558  12.519
48957W        W15498  43.929  24.503  12.064
48958W        W15499  28.992  31.413   0.688
48959W        W15500  37.369  44.775   4.467
48960W        W15501  23.003  41.264   4.614
48961W        W15502  18.518  20.598  10.808
48962W        W15503  38.746  32.887   4.523
48963W        W15504   1.046  17.533  13.379
48964W        W15505  15.758   7.156  10.325
48965W        W15506  43.404  44.185  13.907
48966W        W15507  16.044  22.519   3.863
48967W        W15508  33.584  23.519  11.579
48968W        W15509   6.479  42.698  11.632
48969W        W15510  44.678  19.225   0.800
48970W        W15511   2.132  22.211   2.720
48971W        W15512  11.779   4.283   4.507
48972W        W15513  40.550   1.921   1.335
48973W        W15514   9.390  39.410   1.404
48974W        W15515  39.842   3.348   4.098
48975W        W15516  17.790  15.989   1.855
48976W        W15517   9.663  39.695  10.686
48977W        W15518  25.257  39.447   3.231
48978W        W15519  17.677  23.181   4.770
48979W        W15520  30.924  31.002  13.909
48980W        W15521  24.374  23.471  12.977
48981W        W15522  38.202  12.917  11.167
48982W        W15523  44.511  29.696   0.356
48983W        W15524   8.699  36.853   4.279
48984W        W15525  31.208  37.081   1.265
48985W        W15526  18.616   4.415  11.376
48986W        W15527  26.040  10.213   3.222
48987W        W15528  29.509  18.325   5.000
48988W        W15529   9.666  20.960   2.780
48989W        W15530   2.420  43.338   1.008
48990W        W15531  23.277  24.647   4.107
48991W        W15532  18.015  18.674   2.725
48992W        W15533  41.982  17.560  11.139
48993W        W15534  40.580   0.789  13.043
48994W        W15535  24.454  20.277  10.654
48995W        W15536   7.638  42.855   2.649
48996W        W15537  32.537  15.000   0.725
48997W        W15538  33.850  35.651   2.932
48998W        W15539  19.644  26.723  11.176
48999W        W15540  14.188  18.643   2.662
49000W        W15541  27.451  17.702   4.890
49001W        W15542  17.955  35.393  13.128
49002W        W15543  18.510  38.933  12.201
49003W        W15544  13.591  37.521   4.907
49004W        W15545  34.843   0.443   0.859
49005W        W15546  22.619   8.452  14.056
49006W        W15547  14.245  15.545   4.535
49007W        W15548  16.176  42.976   1.018
49008W        W15549  43.879  20.094  13.087
49009W        W15550  41.000   0.052  14.457
49010W        W15551  15.178  33.694  12.504
49011W        W15552  40.325  28.944   0.312
49012W        W15553   7.820  21.020   3.319
49013W        W15554  14.671   4.763  10.742
49014W        W15555  32.848  27.083  12.996
49015W        W15556  12.385  43.825  13.118
49016W        W15557  15.365  19.878  10.751
49017W        W15558  13.696  17.125   1.453
49018W        W15559  18.604  33.308   0.221
49019W        W15560  29.370  27.089   1.025
49020W        W15561   5.428   8.852  13.965
49021W        W15562  16.199   3.711  12.068
49022W        W15563  19.265  26.562   0.718
49023W        W15564  35.875  34.520  11.565
49024W        W15565  41.610  30.209  13.141
49025W        W15566  25.049  22.215   4.889
49026W        W15567  25.501  27.218  13.955
49027W        W15568  27.594  39.554  12.893
49028W        W15569  28.421  35.053   0.353
49029W        W15570  32.787  44.395   4.392
49030W        W15571  36.107   2.178   1.798
49031W        W15572   6.365   3.966  11.584
49032W        W15573   4.414  36.673  12.518
49033W        W15574  21.273  38.374   0.296
49034W        W15575  35.205  42.548   2.611
49035W        W15576  11.011  38.999   9.849
49036W        W15577  35.480  26.213   2.706
49037W        W15578  25.152   6.456   1.693
49038W        W15579  12.387   3.238  13.880
49039W        W15580   4.008   1.850  11.625
49040W        W15581  18.562  44.678  14.942
49041W        W15582  13.814  43.543   4.918
49042W        W15583  43.373  18.541   0.765
49043W        W15584  34.468  22.312   4.675
49044W        W15585   3.089   2.351   0.095
49045W        W15586  13.630  39.020  13.917
49046W        W15587   0.985   4.506   1.317
49047W        W15588   6.147  44.930   3.422
49048W        W15589  26.392  24.352  13.819
49049W        W15590  32.672  24.422  12.055
49050W        W15591  22.091  32.382  11.019
49051W        W15592  27.983  31.603   3.353
49052W        W15593  28.022  38.434   0.687
49053W        W15594   3.637  43.447   0.996
49054W        W15595   4.461   9.469   1.914
49055W        W15596  17.971  21.156   1.400
49056W        W15597  15.251  25.217   2.639
49057W        W15598  22.829  22.792  10.930
49058W        W15599   8.108  14.181   3.208
49059W        W15600  10.184   9.739  13.919
49060W        W15601  44.563  12.284   1.445
49061W        W15602  22.063  37.166   3.247
49062W        W15603  34.459   9.522   4.003
49063W        W15604  32.935  14.041   1.283
49064W        W15605  19.671   9.771   4.737
49065W        W15606  22.147  28.211   1.280
49066W        W15607  40.078  37.326  14.892
49067W        W15608  36.582  15.072  10.465
49068W        W15609  10.629  28.710  11.186
49069W        W15610   0.595   8.261  11.281
49070W        W15611  26.217  18.575  13.407
49071W        W15612  27.521  30.336  11.941
49072W        W15613  20.416   3.216   2.793
49073W        W15614  42.436  40.920   2.780
49074W        W15615  43.574  44.983  14.352
49075W        W15616  27.600  14.859  12.472
49076W        W15617  12.616  21.007   3.431
49077W        W15618  28.538  34.308   3.438
49078W        W15619  30.171   6.758   0.833
49079W        W15620   3.411  28.019   1.962
49080W        W15621  36.109  24.508  13.003
49081W        W15622  38.842   7.972  11.126
49082W        W15623  15.905  17.783  10.892
49083W        W15624   1.869  15.093   4.561
49084W        W15625   8.894  10.431   0.244
49085W        W15626  13.749   4.319   2.830
49086W        W15627  33.392  14.312  10.910
49087W        W15628  26.633   6.259  11.627
49088W        W15629  14.259  29.153   2.361
49089W        W15630  44.357  44.712   4.219
49090W        W15631  29.926  22.812  12.918
49091W        W15632  44.904  37.401  14.443
49092W        W15633  21.194  12.345   3.171
49093W        W15634   8.708  27.522  12.899
49094W        W15635  29.062  22.270  10.628
49095W        W15636  28.164  19.556   1.771
49096W        W15637  14.430  20.804  14.438
49097W        W15638   4.221  25.290  13.394
49098W        W15639  38.404  17.152   9.982
49099W        W15640  33.496  16.831  14.278
49100W        W15641  16.880  29.405   0.916
49101W        W15642  37.377  33.721  12.522
49102W        W15643  29.168  37.892   1.676
49103W        W15644  29.163  14.304   2.217
49104W        W15645  29.323  27.029   0.486
49105W        W15646   0.441  14.729   0.223
49106W        W15647  30.859   6.171   4.558
49107W        W15648  10.820  36.755  11.159
49108W        W15649  27.988  29.151   2.806
49109W        W15650  35.397  15.561   1.858
49110W        W15651  32.090  36.390   2.697
49111W        W15652  17.979  33.549  12.030
49112W        W15653  13.773  12.043  14.017
49113W        W15654  38.579  29.987   3.521
49114W        W15655  13.831  15.849   1.717
49115W        W15656  10.311  41.040  12.458
49116W        W15657  17.791  11.901   1.746
49117W        W15658  19.823   8.454   9.824
49118W        W15659  10.584  10.973   0.008
49119W        W15660   3.545   7.240   1.628
49120W        W15661   4.101  11.403   4.736
49121W        W15662  16.091  36.391   0.454
49122W        W15663  44.938  10.924   3.790
49123W        W15664  15.568   3.775   4.716
49124W        W15665  26.471  35.060   3.650
49125W        W15666  23.582   8.246  11.174
49126W        W15667  31.998   4.730  11.639
49127W        W15668  36.355  27.816   5.012
49128W        W15669  38.940   9.816   1.209
49129W        W15670  33.003   2.483   1.415
49130W        W15671  15.403  24.275  12.481
49131W        W15672  18.642  22.483  14.622
49132W        W15673  33.718  35.998   0.729
49133W        W15674  30.630   8.182   0.302
49134W        W15675  38.208  31.864   4.940
49135W        W15676  40.808  41.824   0.326
49136W        W15677  44.416  16.921   1.424
49137W        W15678   8.588  23.342   3.909
49138W        W15679  25.709   2.962   0.893
49139W        W15680  32.213   6.254   0.004
49140W        W15681   9.215  12.555   1.901
49141W        W15682  18.820   7.737   0.307
49142W        W15683  35.457  16.610   4.703
49143W        W15684  12.743  35.838  12.426
49144W        W15685  26.026  22.614  10.794
49145W        W15686  18.126  17.601   1.670
49146W        W15687  38.176  14.274   4.325
49147W        W15688  41.621  11.351  14.930
49148W        W15689   1.871  13.253  11.651
49149W        W15690  21.131  30.016   4.156
49150W        W15691   4.207  39.012   0.771
49151W        W15692   1.406   0.195   2.175
49152W        W15693   6.983  38.395  14.505
49153W        W15694  21.961  10.275  14.219
49154W        W15695  40.605  28.592   3.227
49155W        W15696  32.862  34.018  12.019
49156W        W15697  11.534  35.583   3.189
49157W        W15698  22.567   5.695  12.931
49158W        W15699  34.131  27.687  13.131
49159W        W15700  22.011  29.909  13.121
49160W        W15701  23.944  27.687  13.925
49161W        W15702  38.793  17.269   0.913
49162W        W15703  14.851  41.477   2.358
49163W        W15704   7.682  21.925   2.423
49164W        W15705  19.183  42.056   4.665
49165W        W15706   1.650  28.019   4.646
49166W        W15707  11.647  28.054  14.377
49167W        W15708  25.611  40.151  10.344
49168W        W15709  13.912  15.412   2.449
49169W        W15710   7.088  42.500   0.028
49170W        W15711   5.166  27.020  12.355
49171W        W15712   9.983  36.309  14.645
49172W        W15713   6.256   0.255  13.124
49173W        W15714  33.494  24.661   0.427
49174W        W15715  15.177  39.993  12.030
49175W        W15716  28.403  28.434   0.832
49176W        W15717   7.472  34.946   1.029
49177W        W15718   0.714   8.366   1.813
49178W        W15719  34.974  35.866   0.051
49179W        W15720  17.007  36.931  14.315
49180W        W15721   5.423  15.629  12.562
49181W        W15722  24.560  31.119  13.451
49182W        W15723  11.608  38.922   4.623
49183W        W15724  36.035  16.082  12.899
49184W        W15725   4.165  30.300  11.594
49185W        W15726   3.892  34.579   0.876
49186W        W15727  27.792  34.553   0.052
49187W        W15728  11.375  40.903   0.532
49188W        W15729  29.193  37.294  14.850
49189W        W15730   7.889  15.044   2.153
49190W        W15731  37.736  32.146  13.087
49191W        W15732  13.797  35.805  13.013
49192W        W15733  21.755  10.795   3.209
49193W        W15734   7.290  17.838  10.734
49194W        W15735  11.267  39.825  13.104
49195W        W15736   6.313  42.840   4.063
49196W        W15737  27.033  19.117   3.951
49197W        W15738  41.144  11.399   2.182
49198W        W15739  24.344   0.480   1.303
49199W        W15740  19.393  37.844   0.821
49200W        W15741  37.441   2.369   1.216
49201W        W15742  30.672  16.208  11.103
49202W        W15743  23.195  11.159   0.900
49203W        W15744  32.642  17.279   3.637
49204W        W15745  36.625  44.779   2.371
49205W        W15746  23.204   7.186   2.707
49206W        W15747   2.938  23.596  14.911
49207W        W15748  33.398  11.207   1.081
49208W        W15749  33.123   8.205  11.456
49209W        W15750  14.818  12.784  13.001
49210W        W15751  39.928   9.761  13.462
49211W        W15752  12.244  22.660   0.467
49212W        W15753  19.834  27.719   4.090
49213W        W15754   4.498  10.915  14.792
49214W        W15755  26.595   3.287   0.432
49215W        W15756  23.335  31.809   0.084
49216W        W15757  35.476  42.297   4.652
49217W        W15758  10.110  44.653   1.205
49218W        W15759  14.509  26.626  10.681
49219W        W15760  20.528   3.522   2.395
49220W        W15761  22.040  18.349   4.303
49221W        W15762  33.608   7.752   0.301
49222W        W15763  33.871  38.429   4.399
49223W        W15764  36.225   1.255   3.830
49224W        W15765   7.945  42.067   2.339
49225W        W15766  31.420  22.071   2.372
49226W        W15767  39.982   8.811  13.405
49227W        W15768  12.651  37.454  11.403
49228W        W15769  19.036   1.597  12.158
49229W        W15770  38.394  26.469  11.744
49230W        W15771  36.072  35.851   1.663
49231W        W15772  20.967  21.610   2.181
49232W        W15773  41.698  34.499  13.947
49233W        W15774   2.269  21.716   1.670
49234W        W15775   5.895  40.761   3.679
49235W        W15776  24.713  44.764   0.219
49236W        W15777  10.294  11.159   0.419
49237W        W15778  41.022  40.458  13.262
49238W        W15779  20.572  25.419  10.670
49239W        W15780  41.107  38.717  12.556
49240W        W15781  30.692   4.165  10.583
49241W        W15782  28.464  18.224   0.761
49242W        W15783   7.320  40.574   0.879
49243W        W15784  15.783   2.677  14.950
49244W        W15785   3.456   0.485  11.579
49245W        W15786  29.488  37.019   3.663
49246W        W15787  18.944  19.963  12.427
49247W        W15788  32.034  17.067   4.992
49248W        W15789  18.164  39.525  10.546
49249W        W15790  34.073   5.262  10.408
49250W        W15791  16.810  25.548  11.143
49251W        W15792  38.662  41.342   0.993
49252W        W15793  26.285  44.292  13.569
49253W        W15794  17.542   9.257  13.828
49254W        W15795  28.052  44.350   1.982
49255W        W15796  13.576  17.297   4.288
49256W        W15797  34.361  33.032  11.617
49257W        W15798  19.699  35.149  13.523
49258W        W15799  38.333   1.827   0.271
49259W        W15800  33.684   2.469  13.926
49260W        W15801   6.434  13.111   0.479
49261W        W15802  21.004  29.926   3.258
49262W        W15803   1.877   2.242  13.782
49263W        W15804   6.009  10.787  12.927
49264W        W15805  19.604  41.047  11.952
49265W        W15806  13.678  20.648   4.667
49266W        W15807  39.475  31.071   0.471
49267W        W15808   4.233   9.869   2.394
49268W        W15809  42.878   9.771  13.779
49269W        W15810  12.872  29.629  14.902
49270W        W15811  25.848  21.510   1.017
49271W        W15812  13.613   2.848  11.467
49272W        W15813  10.155  42.288  10.196
49273W        W15814   4.812  40.386   5.111
49274W        W15815   7.095   1.170   9.753
49275W        W15816  33.902  39.398   1.733
49276W        W15817  16.145  36.941  10.738
49277W        W15818  34.013   4.293  11.171
49278W        W15819  21.757   4.083  12.499
49279W        W15820   1.026   9.906  11.445
49280W        W15821  38.938   1.721  14.357
49281W        W15822  32.505  36.568  10.764
49282W        W15823  35.890  37.020  11.581
49283W        W15824  19.583   5.859   3.612
49284W        W15825  28.461  37.911   4.443
49285W        W15826  20.379  11.601   0.336
49286W        W15827  26.548   7.652   0.547
49287W        W15828  22.608  17.519   0.459
49288W        W15829  21.503  43.039   4.879
49289W        W15830  14.499  42.882  12.633
49290W        W15831   5.757  12.410  11.974
49291W        W15832   6.772  15.639  13.705
49292W        W15833  16.712  19.343   1.465
49293W        W15834  41.553  40.322  11.567
49294W        W15835  27.649  16.140   3.744
49295W        W15836  36.600  24.986  10.672
49296W        W15837  25.129  28.528   2.173
49297W        W15838  19.664  17.289  11.711
49298W        W15839  17.371   8.817   3.169
49299W        W15840  13.898  29.134  12.889
49300W        W15841  39.627  17.131   1.368
49301W        W15842  17.815  28.573   0.499
49302W        W15843  25.728   3.731  13.406
49303W        W15844  40.386  18.627  13.186
49304W        W15845  23.102  15.099   1.890
49305W        W15846   5.730  26.184   1.682
49306W        W15847  44.638   6.721   2.688
49307W        W15848  23.780   3.496  13.525
49308W        W15849   7.813  31.197  14.419
49309W        W15850  39.972  22.856   1.691
49310W        W15851  36.378  32.207  13.867
49311W        W15852  15.192  18.052  14.376
49312W        W15853  17.151  16.150  14.914
49313W        W15854  39.019  28.063  14.471
49314W        W15855  28.669  26.616   2.748
49315W        W15856  34.525  43.059  11.510
49316W        W15857  34.738  19.613  11.654
49317W        W15858  12.439  33.908   1.837
49318W        W15859  35.514   7.113   4.533
49319W        W15860  29.874   3.429   3.747
49320W        W15861  22.699  36.453  10.051
49321W        W15862  10.661   2.670   0.367
49322W        W15863   3.204  41.580  13.959
49323W        W15864   6.827   3.452   3.790
49324W        W15865  16.532  28.097   4.759
49325W        W15866   2.643  11.735  12.502
49326W        W15867  41.232  27.629   0.876
49327W        W15868  41.146  13.864   1.230
49328W        W15869  44.447  19.539   3.431
49329W        W15870  20.979  29.596   2.762
49330W        W15871  34.706  42.499   2.400
49331W        W15872  21.752  20.206   0.663
49332W        W15873  22.964  11.292  12.865
49333W        W15874   4.981  38.479  11.984
49334W        W15875  20.969  23.243  10.019
49335W        W15876   0.726  32.196  13.983
49336W        W15877  24.702  15.735   4.562
49337W        W15878  23.509  25.522  14.526
49338W        W15879  27.621  11.615   0.911
49339W        W15880  21.759  20.174  12.242
49340W        W15881   6.264   9.704   3.422
49341W        W15882  13.417  33.076  10.793
49342W        W15883  10.347  13.401  12.860
49343W        W15884  11.133  13.745   0.294
49344W        W15885  28.537  34.705   0.779
49345W        W15886  18.375  19.175  10.712
49346W        W15887  23.710  13.163  10.879
49347W        W15888  39.069  25.750  14.764
49348W        W15889  23.008  36.390   1.908
49349W        W15890  10.309  34.176  12.116
49350W        W15891  21.129   8.612   4.590
49351W        W15892   2.351  36.888  13.285
49352W        W15893  35.059   4.396   2.873
49353W        W15894  30.925  22.924  13.952
49354W        W15895  38.573   7.206   1.786
49355W        W15896   6.457  27.972  12.522
49356W        W15897  18.738  10.252   1.819
49357W        W15898  33.601  16.058  14.662
49358W        W15899  34.048  28.941  14.488
49359W        W15900  11.572   8.390   4.661
49360W        W15901   5.163  41.843  11.672
49361W        W15902   3.322   0.371  14.858
49362W        W15903   4.795  38.669   1.501
49363W        W15904  35.931  18.604   0.363
49364W        W15905   4.701   0.362   4.425
49365W        W15906  23.700  13.296  12.815
49366W        W15907  26.422  31.089  11.856
49367W        W15908  19.190  13.908   9.820
49368W        W15909  36.124   4.833  12.702
49369W        W15910  12.008  37.028  11.736
49370W        W15911  39.424  13.874   1.674
49371W        W15912  14.621  16.159  13.050
49372W        W15913  30.824  21.425   1.335
49373W        W15914  39.003  24.177  11.215
49374W        W15915   8.906  29.901  12.563
49375W        W15916  20.162   1.124  13.651
49376W        W15917  42.429  33.392   0.655
49377W        W15918  24.874  38.649   2.868
49378W        W15919  27.006  23.143   4.120
49379W        W15920  14.190  18.699   1.606
49380W        W15921   7.974  44.580  13.174
49381W        W15922   4.675  22.830   2.240
49382W        W15923  38.016  34.591   1.260
49383W        W15924  11.590  38.495  13.813
49384W        W15925  37.999  12.800   3.643
49385W        W15926  38.951  25.493  10.072
49386W        W15927  37.472   3.740   1.605
49387W        W15928  14.782  28.731   1.266
49388W        W15929  26.102  19.658   1.354
49389W        W15930  20.726  37.810  10.807
49390W        W15931  37.472   4.805  12.324
49391W        W15932  16.144  40.378  14.332
49392W        W15933  38.062   2.251   4.694
49393W        W15934   9.278  22.665   0.620
49394W        W15935   5.896  16.223  12.848
49395W        W15936  42.555   2.489  14.764
49396W        W15937  17.101   8.847  12.956
49397W        W15938  31.439   2.354  12.456
49398W        W15939  40.946  24.933   2.703
49399W        W15940   5.000  42.046   1.816
49400W        W15941  24.645  18.582   3.766
49401W        W15942  16.178   1.306  11.826
49402W        W15943   8.660  13.912   3.343
49403W        W15944  30.124   1.066  12.584
49404W        W15945   4.731  29.369  12.168
49405W        W15946  40.312  41.940   0.020
49406W        W15947   6.763  21.022  10.722
49407W        W15948   0.399  30.479  14.545
49408W        W15949  11.035  26.022   2.655
49409W        W15950  32.435   2.756   1.598
49410W        W15951  22.433  38.373  13.498
49411W        W15952   5.203  12.145  12.887
49412W        W15953  11.852  13.076   2.191
49413W        W15954  28.017  32.434   3.299
49414W        W15955  15.228  23.582   0.099
49415W        W15956   4.795  35.436   4.618
49416W        W15957  33.277  15.861   1.370
49417W        W15958  17.520  20.546  10.842
49418W        W15959  43.386   2.210  13.694
49419W        W15960  32.101  24.959   4.652
49420W        W15961  20.149  30.952  14.588
49421W        W15962   0.391  15.146   2.346
49422W        W15963  22.688  21.445  13.107
49423W        W15964  22.787  42.290   4.353
49424W        W15965  41.718  17.490  14.886
49425W        W15966  16.364  11.883  11.126
49426W        W15967  17.167   5.414  11.353
49427W        W15968  14.652  29.355   2.897
49428W        W15969   2.775  34.513  12.885
49429W        W15970  20.579  41.788   3.150
49430W        W15971   2.802   3.682  12.196
49431W        W15972   4.840  16.361  13.362
49432W        W15973  18.167   2.794   0.801
49433W        W15974  31.632  13.328  10.865
49434W        W15975  10.226  14.261   2.244
49435W        W15976   0.527   1.138  14.031
49436W        W15977  38.668  15.583   2.706
49437W        W15978  22.710  41.988   1.839
49438W        W15979  34.094  28.052   2.342
49439W        W15980  17.990  33.852  10.230
49440W        W15981  22.184  29.711   3.732
49441W        W15982  17.259  22.386   0.955
49442W        W15983  42.990  20.063  14.016
49443W        W15984  17.064   2.369   2.680
49444W        W15985  25.797  14.477  11.449
49445W        W15986  43.473   0.227  12.971
49446W        W15987  36.359  10.367  10.851
49447W        W15988  26.715  41.048   3.583
49448W        W15989  25.340  36.062  14.759
49449W        W15990  32.014  17.301  11.924
49450W        W15991  19.266   4.739  14.563
49451W        W15992  31.422  15.303   2.989
49452W        W15993  22.447   8.780  10.120
49453W        W15994  41.269  25.236   0.985
49454W        W15995  42.748  26.908  12.770
49455W        W15996   8.947   1.473   4.683
49456W        W15997   0.284  26.107  10.443
49457W        W15998  21.220  28.817   4.323
49458W        W15999  26.419   6.381   3.252
49459W        W16000  14.068   4.146   0.749
49460W        W16001  21.641  43.910  14.845
49461W        W16002  40.036  11.346   1.768
49462W        W16003  43.572  18.569  11.588
49463W        W16004  17.720  18.182  14.866
49464W        W16005  40.458  11.651  11.666
49465W        W16006  35.407  23.290  11.472
49466W        W16007  32.300  44.847   3.796
49467W        W16008  32.209  19.908  12.518
49468W        W16009  18.316  27.455  11.456
49469W        W16010  38.535  36.665   3.423
49470W        W16011  19.729  39.534   1.822
49471W        W16012  44.500   5.339   5.048
49472W        W16013  19.460  21.949  11.054
49473W        W16014  33.624  29.548  11.055
49474W        W16015  14.688  22.535   3.274
49475W        W16016  29.651  15.497  11.777
49476W        W16017  39.920  29.658  10.651
49477W        W16018   1.828   1.526   2.345
49478W        W16019  14.010   6.776   1.950
49479W        W16020  33.715   2.818   0.266
49480W        W16021   9.302  33.619  14.082
49481W        W16022  13.343  30.125  14.576
49482W        W16023  37.283   1.791  11.255
49483W        W16024  27.117  26.087   1.654
49484W        W16025  15.659   5.524  13.088
49485W        W16026  41.024  24.034   2.788
49486W        W16027   8.254  35.630   3.243
49487W        W16028  25.535   6.363  12.958
49488W        W16029   9.209   9.302  12.221
49489W        W16030  12.727  13.902  11.665
49490W        W16031  12.664  32.583  14.773
49491W        W16032  43.746  28.480  13.328
49492W        W16033   1.348  24.753  10.685
49493W        W16034   8.865  28.148   3.660
49494W        W16035  18.140  18.775   0.939
49495W        W16036  14.266  20.944  13.813
49496W        W16037   7.432   5.902  13.123
49497W        W16038  31.601  32.232  11.410
49498W        W16039  35.585   0.893  10.560
49499W        W16040  20.934  32.458   0.224
49500W        W16041  22.236  28.356   3.905
49501W        W16042  35.554  24.050   0.819
49502W        W16043  34.035  28.421  13.631
49503W        W16044   3.869  17.181   4.378
49504W        W16045   4.480  32.121  12.885
49505W        W16046  13.778   5.422   2.064
49506W        W16047   8.325  11.280  13.432
49507W        W16048  11.909  39.146   5.031
49508W        W16049  10.710  36.159   3.624
49509W        W16050   0.584  24.752  10.955
49510W        W16051   5.895  44.965   0.333
49511W        W16052  29.229  44.678  12.468
49512W        W16053  37.101  31.584  13.913
49513W        W16054  24.794  14.726  14.085
49514W        W16055  19.591  34.362  11.597
49515W        W16056  23.142  43.268   3.347
49516W        W16057  13.226  11.908  11.152
49517W        W16058  38.899  23.725   1.828
49518W        W16059  29.143   7.764   0.912
49519W        W16060  30.241   6.160   3.126
49520W        W16061  15.865  11.916   3.995
49521W        W16062  20.428  15.703  10.658
49522W        W16063   5.707  42.203   0.901
49523W        W16064  11.319  14.365   2.723
49524W        W16065   7.821  14.775  13.783
49525W        W16066  21.777   2.061  13.850
49526W        W16067  22.327  33.328  11.047
49527W        W16068  34.300  20.102   2.835
49528W        W16069  19.808  21.081   0.884
49529W        W16070   1.230  26.627  11.724
49530W        W16071  40.279  44.280  14.399
49531W        W16072   0.415  13.643  12.551
49532W        W16073  26.174  28.683  12.036
49533W        W16074  16.888  19.983  12.419
49534W        W16075  44.054  25.708  11.494
49535W        W16076  43.354  14.016   3.352
49536W        W16077  14.715  21.056  11.768
49537W        W16078  25.103  35.932  10.582
49538W        W16079  23.287  37.382   0.428
49539W        W16080  32.115  10.649  14.823
49540W        W16081  13.868   3.576   2.296
49541W        W16082  40.403  14.643  10.370
49542W        W16083   7.211  37.120  10.747
49543W        W16084  19.480  30.648   1.708
49544W        W16085  42.328  13.762  14.706
49545W        W16086  39.336  24.532  12.007
49546W        W16087  34.417  32.900   2.861
49547W        W16088   4.818  32.879  11.207
49548W        W16089  22.719  36.565  14.261
49549W        W16090  37.183  37.501   2.409
49550W        W16091  42.445  22.605   3.930
49551W        W16092  10.589  37.905   1.792
49552W        W16093  40.360  10.145   0.194
49553W        W16094  35.471   6.728  13.007
49554W        W16095  18.870  33.439  13.422
49555W        W16096   2.772   4.877   2.750
49556W        W16097  15.589  12.148  14.057
49557W        W16098  13.080   3.183   4.241
49558W        W16099  42.977   2.959   2.648
49559W        W16100  31.111   7.406  12.934
49560W        W16101  32.993  29.420  10.972
49561W        W16102  43.091  14.889   0.369
49562W        W16103   2.430  38.560  12.516
49563W        W16104   3.939  14.901  13.280
49564W        W16105  29.558  13.909  14.800
49565W        W16106  11.961  23.134  11.831
49566W        W16107  21.454  31.664  14.660
49567W        W16108  39.078   7.981  12.474
49568W        W16109  30.084   0.222  14.461
49569W        W16110   2.276  39.308   0.726
49570W        W16111  22.715   2.689   3.682
49571W        W16112  41.841   9.543  14.493
49572W        W16113  32.082   5.425   4.593
49573W        W16114  18.563  43.125   2.041
49574W        W16115  36.744   1.835  10.178
49575W        W16116  24.818   4.381   3.325
49576W        W16117  25.214   9.093   3.316
49577W        W16118  24.680   5.777  13.743
49578W        W16119  28.629  30.478   1.696
49579W        W16120  18.127  14.100   2.672
49580W        W16121  14.277  36.854  11.096
49581W        W16122   0.194  28.568   3.897
49582W        W16123  31.131   4.815   1.765
49583W        W16124  26.271  19.642   0.461
49584W        W16125  43.218   4.236  12.008
49585W        W16126  32.818   3.914   1.672
49586W        W16127  39.324  11.437   3.261
49587W        W16128   9.137  19.038   0.956
49588W        W16129  38.586  23.759   2.886
49589W        W16130  19.526  13.302  12.485
49590W        W16131   2.220  29.768  11.513
49591W        W16132  22.024   3.876   0.661
49592W        W16133   7.251  13.143  13.966
49593W        W16134  43.191  23.987  12.380
49594W        W16135  17.058   1.760  14.559
49595W        W16136   1.920  44.230   4.058
49596W        W16137   6.143  35.563  13.427
49597W        W16138  44.855  29.249  12.755
49598W        W16139  23.014  31.154   2.764
49599W        W16140   2.316  37.929  14.709
49600W        W16141  16.335  39.887  14.414
49601W        W16142  37.331  31.258   3.183
49602W        W16143  11.678  30.834  14.395
49603W        W16144   2.297  26.771  12.969
49604W        W16145   3.296  27.041   0.936
49605W        W16146   2.219  26.320   4.538
49606W        W16147  44.345  18.755  13.832
49607W        W16148   1.492  42.576  14.871
49608W        W16149   2.358  32.528  14.982
49609W        W16150  12.862  13.695   4.249
49610W        W16151  27.736  27.825   2.449
49611W        W16152   9.479  43.138  11.410
49612W        W16153  25.965  26.492   3.336
49613W        W16154  38.361  22.123  13.479
49614W        W16155  38.628  22.688   1.426
49615W        W16156   5.886   3.186  14.551
49616W        W16157  38.402  29.575   0.944
49617W        W16158  44.853  21.785  13.900
49618W        W16159  44.703  15.381   1.647
49619W        W16160  19.944  32.340  12.095
49620W        W16161  11.587  11.340  12.942
49621W        W16162   1.909  20.611  13.616
49622W        W16163  40.438   0.922  13.950
49623W        W16164   2.796  26.504  14.532
49624W        W16165   1.390  40.029  12.423
49625W        W16166  19.134  26.412  13.055
49626W        W16167  33.447   2.974   3.591
49627W        W16168  12.318  15.531   1.731
49628W        W16169   3.436  41.365   3.758
49629W        W16170  39.374  12.571  12.880
49630W        W16171  32.117  14.630  11.034
49631W        W16172  26.300  38.277  13.971
49632W        W16173  31.535  37.413  12.963
49633W        W16174   7.517  11.713   0.226
49634W        W16175  24.217  24.237  11.496
49635W        W16176  34.361   6.627  11.085
49636W        W16177  39.525  23.356  11.111
49637W        W16178   6.911   1.606  11.557
49638W        W16179  11.808  36.347   2.543
49639W        W16180  34.936  23.268  14.869
49640W        W16181  36.928  21.351   2.265
49641W        W16182  44.661  18.030  13.725
49642W        W16183  16.276  35.245   1.935
49643W        W16184  11.667  25.663   1.928
49644W        W16185  17.094  15.937  12.466
49645W        W16186  44.757   3.472   1.787
49646W        W16187  27.118  42.892   4.015
49647W        W16188  14.085  12.293   3.043
49648W        W16189  14.624  40.064   2.273
49649W        W16190   5.742  31.628  14.260
49650W        W16191  18.654  41.382  10.931
49651W        W16192   8.365  24.106  14.798
49652W        W16193  25.387  20.302   1.741
49653W        W16194  11.454  28.161   2.665
49654W        W16195  29.926  17.316   2.308
49655W        W16196  28.214  41.807  13.877
49656W        W16197  30.463  23.565   1.866
49657W        W16198   6.802  28.085   0.060
49658W        W16199  23.387  19.523  14.816
49659W        W16200   4.889  43.001   1.866
49660W        W16201  44.128  29.775   1.292
49661W        W16202   3.806  35.619  11.554
49662W        W16203  10.719  44.432  14.065
49663W        W16204  23.912  38.637  14.445
49664W        W16205  32.051  15.419   0.384
49665W        W16206  33.054  23.542  13.250
49666W        W16207  26.073  20.096  12.403
49667W        W16208  42.660   2.962   4.060
49668W        W16209  19.889  26.124   2.760
49669W        W16210  41.798  31.535  11.017
49670W        W16211  36.608  44.769  11.180
49671W        W16212  24.302  16.071  12.019
49672W        W16213  35.701  32.622   1.209
49673W        W16214   5.794   6.385  12.950
49674W        W16215  20.221   6.674   1.132
49675W        W16216   7.117   7.599   1.794
49676W        W16217   1.477  35.926   1.889
49677W        W16218  32.094  12.645  13.896
49678W        W16219   2.104  16.564  11.090
49679W        W16220  32.368  22.224  10.703
49680W        W16221  29.482  34.234  14.868
49681W        W16222   6.279  28.256   2.657
49682W        W16223  28.761  15.467  14.977
49683W        W16224  35.505   6.707   0.993
49684W        W16225   6.823   1.900   2.959
49685W        W16226  34.412   8.727   2.749
49686W        W16227  10.626  30.169   1.196
49687W        W16228  18.603  44.375   2.845
49688W        W16229  17.461   9.835  13.624
49689W        W16230  17.756  30.568   2.589
49690W        W16231  31.751  30.432   4.900
49691W        W16232  13.848  39.418   0.246
49692W        W16233  12.818  38.453   3.709
49693W        W16234   7.357  39.640   2.764
49694W        W16235  31.386   6.190   4.615
49695W        W16236   8.153  27.421  14.833
49696W        W16237  19.234  29.127  14.164
49697W        W16238  14.783  10.301  11.216
49698W        W16239   3.761  27.963   2.304
49699W        W16240  22.560  42.060  13.831
49700W        W16241   6.442  36.536  11.641
49701W        W16242  25.983   4.555  12.150
49702W        W16243  34.902  29.080   1.275
49703W        W16244  15.471  26.597   2.221
49704W        W16245  23.554  21.254  14.884
49705W        W16246   1.676   0.484  13.829
49706W        W16247   5.205  15.545  13.025
49707W        W16248  24.558  43.345  14.571
49708W        W16249  13.581   8.315   4.670
49709W        W16250  24.711  20.477  12.992
49710W        W16251  31.633  30.517  11.367
49711W        W16252  11.781  41.511   0.849
49712W        W16253   0.643  36.461   0.198
49713W        W16254   4.254  17.222   2.216
49714W        W16255  40.179  24.724   1.742
49715W        W16256  25.224  24.672   2.202
49716W        W16257   4.803  28.862  11.554
49717W        W16258  39.050  26.936   3.146
49718W        W16259  29.709  16.172   1.504
49719W        W16260   5.759   0.991   0.362
49720W        W16261  10.466  44.777   2.784
49721W        W16262  37.675  20.062   1.714
49722W        W16263  20.648  26.281   0.842
49723W        W16264  24.055   7.679   0.397
49724W        W16265  38.166  44.799  12.943
49725W        W16266  25.220  43.335  10.631
49726W        W16267  33.125  14.551   4.280
49727W        W16268  14.733  14.262   4.809
49728W        W16269  28.590  15.137  13.015
49729W        W16270  31.036  31.892  10.212
49730W        W16271  14.687  14.845   1.812
49731W        W16272  23.511  44.843   4.731
49732W        W16273  23.605  25.127   3.304
49733W        W16274  18.232  35.068   2.210
49734W        W16275  23.885   7.965   3.636
49735W        W16276  33.488  32.783  13.419
49736W        W16277  33.541  31.043  13.524
49737W        W16278  24.545  21.308  14.942
49738W        W16279  20.585   2.511   2.172
49739W        W16280  26.783   9.941   2.688
49740W        W16281  44.827  11.251   0.883
49741W        W16282  42.795  18.976  12.585
49742W        W16283  28.360  44.546  11.891
49743W        W16284  32.966  11.553  11.095
49744W        W16285  17.890  14.668  13.289
49745W        W16286  23.168  17.482  11.084
49746W        W16287  23.732  28.505   0.376
49747W        W16288  10.171  20.172  11.962
49748W        W16289   5.888  42.346  12.892
49749W        W16290  43.263   8.943  12.913
49750W        W16291  17.375  33.891   1.864
49751W        W16292   0.208  40.398  11.803
49752W        W16293  14.056   9.966   1.837
49753W        W16294   3.404  41.053  14.799
49754W        W16295   2.977   7.405   0.869
49755W        W16296  43.908  31.945   2.386
49756W        W16297  39.735  34.414   2.454
49757W        W16298  20.595  12.759  11.115
49758W        W16299  34.960  16.164  10.750
49759W        W16300  31.057  38.489  13.709
49760W        W16301   3.193  22.929  11.952
49761W        W16302  35.753  31.498  11.990
49762W        W16303   4.970  15.071  14.935
49763W        W16304  37.516  43.292   4.072
49764W        W16305  21.137  21.173  12.414
49765W        W16306  44.450  40.646   1.213
49766W        W16307  39.461   6.359   1.209
49767W        W16308  17.967  29.030   0.291
49768W        W16309   2.743  25.011  11.511
49769W        W16310   1.065  39.007   1.122
49770W        W16311  25.612  41.776  11.176
49771W        W16312  34.010   5.123  13.535
49772W        W16313  37.848  31.669  14.931
49773W        W16314  16.738  43.997  10.784
49774W        W16315  20.605  32.592   1.625
49775W        W16316  23.666  40.838   4.155
49776W        W16317  29.069   6.518  10.663
49777W        W16318  26.350  26.309  13.190
49778W        W16319  24.620  11.904  13.324
49779W        W16320  33.631  24.573  10.646
49780W        W16321   6.446  12.832   1.873
49781W        W16322  18.438  35.459  11.875
49782W        W16323  37.065  16.124  14.861
49783W        W16324   7.694  16.423   2.041
49784W        W16325  19.690   8.645  10.842
49785W        W16326  36.088   0.958   0.565
49786W        W16327  34.897   9.779   4.104
49787W        W16328  15.770   8.830  14.436
49788W        W16329  22.032   1.622  13.807
49789W        W16330  13.267   3.585  14.960
49790W        W16331  36.896  27.677  13.017
49791W        W16332  12.933  23.103  13.084
49792W        W16333  39.901  33.793  13.788
49793W        W16334  20.645   8.467   1.728
49794W        W16335  12.105   0.712  13.631
49795W        W16336   9.208  34.789   1.015
49796W        W16337   7.720  14.204  14.588
49797W        W16338  12.880  18.028  13.360
49798W        W16339   4.739  37.668   4.170
49799W        W16340  20.013  22.924  12.514
49800W        W16341  43.976  19.459   2.494
49801W        W16342  36.472  22.950   3.644
49802W        W16343  19.261  20.783  13.721
49803W        W16344  19.773  12.659   4.296
49804W        W16345  37.561  22.038  12.927
49805W        W16346  40.427   7.833   0.297
49806W        W16347  42.771  11.269   3.205
49807W        W16348   9.583  36.408   4.529
49808W        W16349  39.836  39.874   1.637
49809W        W16350  12.810   4.682   4.172
49810W        W16351  34.879  10.750  10.572
49811W        W16352  10.603   5.750   1.250
49812W        W16353  30.070  37.837  12.710
49813W        W16354  23.394  25.662  11.713
49814W        W16355   6.217  34.124   4.272
49815W        W16356  16.245  39.375  11.887
49816W        W16357  11.199   9.327   0.732
49817W        W16358  35.419  15.924   0.959
49818W        W16359  38.157  42.255   3.761
49819W        W16360  19.050  27.684  13.948
49820W        W16361  17.571  10.298   3.158
49821W        W16362  10.817  42.559   0.680
49822W        W16363  32.906  28.510  13.864
49823W        W16364  42.454   8.290  14.015
49824W        W16365  26.967  37.079  11.549
49825W        W16366  41.498  14.746  11.451
49826W        W16367   9.714  35.510   1.992
49827W        W16368  38.839  27.095   0.772
49828W        W16369   9.822  29.517  11.659
49829W        W16370  24.235  15.943  12.568
49830W        W16371  35.389  41.912  14.911
49831W        W16372  31.950  36.771   4.834
49832W        W16373   1.852  22.011   0.386
49833W        W16374   5.187  28.408  12.621
49834W        W16375   8.471   6.477  11.127
49835W        W16376   0.521   7.679  11.870
49836W        W16377  32.676   9.359  10.907
49837W        W16378  37.252  44.316  13.132
49838W        W16379  14.789  34.064   2.785
49839W        W16380  38.926   8.175  11.600
49840W        W16381  28.535  25.506  10.597
49841W        W16382  20.336   7.026  13.050
49842W        W16383   7.132  36.084  11.249
49843W        W16384  38.075  30.337  10.381
49844W        W16385   7.595  30.028   0.245
49845W        W16386  44.549  13.332  12.366
49846W        W16387  21.051  34.624   0.019
49847W        W16388  24.915  19.177   0.837
49848W        W16389  23.252  31.439  12.128
49849W        W16390  29.571  32.917   0.411
49850W        W16391  21.506   3.805  11.059
49851W        W16392  27.198  44.932   3.269
49852W        W16393   7.423  26.597  12.953
49853W        W16394  28.618  42.517  14.917
49854W        W16395  22.665  21.634   3.099
49855W        W16396  26.442  40.954   1.767
49856W        W16397  33.927  20.455   2.278
49857W        W16398  22.020   0.784  11.097
49858W        W16399  19.591   4.350   1.979
49859W        W16400  42.745  14.012   2.271
49860W        W16401  15.225  44.474   3.751
49861W        W16402  35.461  25.949   1.229
49862W        W16403  16.526  17.957   1.309
49863W        W16404  28.678  11.232   3.698
49864W        W16405   3.304  44.021  14.471
49865W        W16406  43.677   1.897  12.707
49866W        W16407  42.559  23.164  10.828
49867W        W16408  44.362  42.972  14.182
49868W        W16409  37.422  36.353  10.548
49869W        W16410  18.589  21.949  14.493
49870W        W16411   3.858  33.677  11.622
49871W        W16412   6.658  28.754  11.288
49872W        W16413   1.185  19.008  13.267
49873W        W16414  23.586  33.649  12.432
49874W        W16415  13.856  35.880   1.496
49875W        W16416  38.538   8.703   2.780
49876W        W16417  31.119  44.184   4.149
49877W        W16418  38.498  16.576  11.357
49878W        W16419  19.681   6.641  12.424
49879W        W16420  41.350  16.605   4.742
49880W        W16421  23.444  43.972   0.898
49881W        W16422  16.086   1.482  14.361
49882W        W16423  42.221   7.990  12.520
49883W        W16424  35.919  26.737  13.547
49884W        W16425  32.734  33.122   3.213
49885W        W16426  14.359  37.765   4.430
49886W        W16427  30.577   7.449   2.757
49887W        W16428  11.622  34.614   4.302
49888W        W16429  23.422  44.129  14.877
49889W        W16430  37.918  16.050  13.866
49890W        W16431   7.819  28.707  12.863
49891W        W16432  25.918  10.260   4.146
49892W        W16433  18.787   3.431  14.351
49893W        W16434  32.634  20.207  11.203
49894W        W16435  23.113  15.570  14.399
49895W        W16436  12.127  21.514   4.211
49896W        W16437  34.191   9.355  12.998
49897W        W16438   9.058   7.773  14.369
49898W        W16439   7.304  26.846  12.047
49899W        W16440  40.999   8.017  12.358
49900W        W16441  33.525   3.674  13.415
49901W        W16442   6.977  31.074  14.390
49902W        W16443  21.978  27.895   4.125
49903W        W16444  25.533   3.514  13.830
49904W        W16445  43.535  34.516  14.341
49905W        W16446  16.800  25.604  14.585
49906W        W16447  30.581  34.636   3.688
49907W        W16448  36.812  13.578   1.670
49908W        W16449  26.578  33.584  12.952
49909W        W16450   6.939   8.074  14.908
49910W        W16451  20.138   7.737   4.099
49911W        W16452   1.586  25.190  11.182
49912W        W16453  26.198  23.146  12.560
49913W        W16454  10.230   5.046   2.330
49914W        W16455  14.329   9.838   4.181
49915W        W16456  13.853  15.986   3.144
49916W        W16457  18.450  31.493   3.445
49917W        W16458  11.599   2.669  10.380
49918W        W16459  43.608  27.510  12.508
49919W        W16460   3.496  43.559   1.839
49920W        W16461  37.345  11.325  11.034
49921W        W16462  18.999  17.196   4.664
49922W        W16463  29.033  32.615  11.386
49923W        W16464   0.411   8.638  12.468
49924W        W16465  33.883  20.864   3.083
49925W        W16466  12.952  38.914   2.411
49926W        W16467  17.319  15.813   2.427
49927W        W16468  24.112   6.796   3.330
49928W        W16469  27.615  24.235   3.993
49929W        W16470  38.800  37.141  14.576
49930W        W16471   3.832   3.351  14.734
49931W        W16472  32.482  39.244   3.817
49932W        W16473  41.824  31.185   3.209
49933W        W16474  10.955  39.985  12.726
49934W        W16475  20.656  35.389   4.657
49935W        W16476  25.868  23.783   1.795
49936W        W16477  36.863   2.006   0.232
49937W        W16478  32.114  26.538  12.907
49938W        W16479   2.161   1.894   0.933
49939W        W16480  11.101  38.838   3.423
49940W        W16481  22.419  15.039  12.099
49941W        W16482  29.048  23.320   3.157
49942W        W16483  14.155  11.229  13.587
49943W        W16484   8.863  15.432  14.505
49944W        W16485  28.561  39.331  12.317
49945W        W16486  44.816  29.673   2.695
49946W        W16487  24.556  20.095   1.036
49947W        W16488  43.849  36.885   1.357
49948W        W16489  13.861   6.350  11.899
49949W        W16490  44.566  16.651   4.451
49950W        W16491  33.931  25.573  10.939
49951W        W16492  24.075  18.195   3.202
49952W        W16493  30.864  23.987  12.934
49953W        W16494  42.890   1.483  13.252
49954W        W16495  13.558   3.921  13.370
49955W        W16496  20.670  12.303  13.921
49956W        W16497  44.451   4.578   2.385
49957W        W16498   6.418  10.950  14.878
49958W        W16499  42.970  32.594  10.548
49959W        W16500  18.994  42.508   4.853
49960W        W16501  12.119  41.958  12.650
49961W        W16502  12.142  29.021  14.964
49962W        W16503   5.831  27.527  11.607
49963W        W16504  12.792  18.829  11.190
49964W        W16505  42.050  16.741   1.252
49965W        W16506  29.397  38.872   2.138
49966W        W16507  34.922  19.645   2.171
49967W        W16508   7.741   6.343   5.001
49968W        W16509  20.977  11.880  11.192
49969W        W16510   6.465  44.533   3.208
49970W        W16511   4.381  31.389   0.485
49971W        W16512  25.525   3.003   3.265
49972W        W16513  37.411   5.215  13.221
49973W        W16514  41.588  42.496  10.830
49974W        W16515  35.683  26.676   2.824
49975W        W16516   1.440   8.299   4.494
49976W        W16517  29.125  43.133  13.849
49977W        W16518  33.426  40.530  11.891
49978W        W16519  35.412  13.531  12.098
49979W        W16520   6.454  16.807  12.478
49980W        W16521  39.950  21.120  10.829
49981W        W16522  30.569  34.410   2.440
49982W        W16523  10.253   3.954   0.725
49983W        W16524  13.118  15.496   0.017
49984W        W16525  20.641  35.448  13.617
49985W        W16526  18.276   0.045  13.537
49986W        W16527  19.201  30.002   1.863
49987W        W16528  10.255   3.733   4.506
49988W        W16529   4.030  15.797   4.993
49989W        W16530  21.293  23.816   0.273
49990W        W16531  34.840   7.301  11.462
49991W        W16532  28.497  39.627  10.340
49992W        W16533  39.576  42.252   2.773
49993W        W16534   8.443  12.327  12.067
49994W        W16535   3.394  17.538   3.863
49995W        W16536  18.010  21.219   3.152
49996W        W16537  13.874  38.705  14.727
49997W        W16538   8.811  40.309   5.494
49998W        W16539  44.228  23.642  10.257
49999W        W16540  43.459  25.322  11.940
50000W        W16541   2.032  43.178  14.531
50001W        W16542  34.064  26.502   1.623
50002W        W16543   9.548  33.490   4.119
50003W        W16544  32.210  28.048   0.374
50004W        W16545  38.406  32.025  14.802
50005W        W16546  23.263  43.562  13.006
50006W        W16547  22.066  38.185  13.801
50007W        W16548  44.496   1.413   2.482
50008W        W16549  34.653  17.228   1.006
50009W        W16550  26.519  29.679  14.124
50010W        W16551  22.564  16.730   0.748
50011W        W16552  29.986  34.959  11.590
50012W        W16553  40.775  36.330  12.516
50013W        W16554  25.593   4.026  13.896
50014W        W16555   3.736  44.247  11.700
50015W        W16556  18.337  33.857  11.227
50016W        W16557  44.384   1.030   2.828
50017W        W16558   1.499  34.138  14.670
50018W        W16559  19.290  20.734   2.120
50019W        W16560  10.179   0.020  10.117
50020W        W16561  27.952  11.346  14.711
50021W        W16562  17.255  36.115   3.210
50022W        W16563  16.747   9.457  10.748
50023W        W16564  25.765  43.437  13.327
50024W        W16565  35.456   8.349  11.182
50025W        W16566  33.575  14.786   2.155
50026W        W16567  42.375  21.468  13.415
50027W        W16568  27.466  42.721   0.355
50028W        W16569  40.360  17.082   2.766
50029W        W16570  31.896  43.927   0.872
50030W        W16571  23.691  36.749  11.139
50031W        W16572  33.181   7.773  10.698
50032W        W16573  16.153  13.835  10.402
50033W        W16574  32.920   6.192   3.225
50034W        W16575   2.002  30.146   4.032
50035W        W16576  38.285   9.694  10.941
50036W        W16577  31.693  34.306  14.356
50037W        W16578  35.001   2.987   3.302
50038W        W16579   0.259   6.180   0.428
50039W        W16580  15.077  17.529  10.972
50040W        W16581  38.930  42.886   3.215
50041W        W16582  44.653  36.474   4.723
50042W        W16583  13.149   9.554   0.779
50043W        W16584  31.080  43.316   3.980
50044W        W16585  30.038  38.987  13.397
50045W        W16586   4.352  40.119   1.615
50046W        W16587  41.457  40.783   4.893
50047W        W16588   9.234  26.917  14.993
50048W        W16589  11.901  25.002  13.562
50049W        W16590  30.192  39.496  12.480
50050W        W16591   4.911  35.559  13.857
50051W        W16592   7.116  30.848   4.453
50052W        W16593  25.076   3.412   2.575
50053W        W16594   3.761  18.157   4.725
50054W        W16595  42.876   5.970   4.532
50055W        W16596  38.960  32.203   0.703
50056W        W16597  39.128  37.693   0.822
50057W        W16598  31.838  17.294   2.946
50058W        W16599  43.233  10.690   1.376
50059W        W16600  41.332  34.156  13.525
50060W        W16601   2.873   1.237  14.050
50061W        W16602  12.879   0.323   2.650
50062W        W16603   2.092  43.375   1.939
50063W        W16604  39.533  14.812  14.294
50064W        W16605  25.370   9.567   3.116
50065W        W16606  20.191  29.857  12.791
50066W        W16607  27.037  31.494   1.504
50067W        W16608  17.704   2.790   1.024
50068W        W16609  36.507  40.274   4.625
50069W        W16610  19.341  14.673  11.592
50070W        W16611  11.869  34.094  10.634
50071W        W16612  10.667  37.612   3.135
50072W        W16613  29.136  38.985   0.968
50073W        W16614  32.590  40.830   1.467
50074W        W16615  38.234  11.494  13.372
50075W        W16616  35.387  14.076  14.153
50076W        W16617   2.805  36.973  14.936
50077W        W16618  34.656   2.976  12.154
50078W        W16619  28.406  10.752   4.670
50079W        W16620  34.505  38.315  10.740
50080W        W16621  28.569  14.580  12.000
50081W        W16622   9.685   7.714   2.186
50082W        W16623  30.243  20.578  13.370
50083W        W16624   0.771  28.016   0.100
50084W        W16625  18.528  28.149   1.224
50085W        W16626   2.326  35.875  10.726
50086W        W16627  34.844   6.408  13.392
50087W        W16628   9.592  40.434  13.011
50088W        W16629  13.690  29.734  10.310
50089W        W16630  32.083  12.259   2.914
50090W        W16631  44.252  30.876  11.998
50091W        W16632  10.677  44.958  13.506
50092W        W16633  35.200  21.708  10.912
50093W        W16634   5.354  41.579   0.175
50094W        W16635  44.344   6.185   3.316
50095W        W16636  19.241  21.283  12.817
50096W        W16637  17.998  27.493  14.744
50097W        W16638  38.799  21.818  12.404
50098W        W16639   1.541   9.904   4.754
50099W        W16640  19.348  16.724  11.203
50100W        W16641   8.344   1.292  12.895
50101W        W16642   5.193   2.123   2.290
50102W        W16643  43.411  21.159  10.576
50103W        W16644   6.389  19.812   2.208
50104W        W16645   3.399  44.829   3.591
50105W        W16646  22.793  30.760   4.158
50106W        W16647  40.073  42.565   3.854
50107W        W16648   5.901  19.722   2.193
50108W        W16649   9.383  10.694  10.974
50109W        W16650  39.992   9.094   2.226
50110W        W16651  15.065  33.386  12.897
50111W        W16652   1.277  13.703   3.876
50112W        W16653   6.241  10.337  12.948
50113W        W16654  27.436   2.668   3.569
50114W        W16655  22.298  37.999   0.712
50115W        W16656  32.040   7.058   0.207
50116W        W16657  37.694   0.031  12.991
50117W        W16658  18.232  20.549   0.366
50118W        W16659  15.311   6.973   4.345
50119W        W16660  44.760  20.567   4.154
50120W        W16661  19.653   4.237  14.840
50121W        W16662  32.442  18.700   1.722
50122W        W16663  28.484   2.149  13.745
50123W        W16664   5.131  15.292  11.661
50124W        W16665   5.323   5.512   1.755
50125W        W16666  13.169  42.707  14.073
50126W        W16667   5.826   6.802  11.584
50127W        W16668  35.969   7.641   3.368
50128W        W16669  22.534   4.359  14.356
50129W        W16670  11.722  31.460  10.239
50130W        W16671  25.509   6.294   9.833
50131W        W16672  30.211  40.413  14.362
50132W        W16673  14.513  13.625  11.045
50133W        W16674  30.022  29.035   0.108
50134W        W16675  15.189  21.174  10.403
50135W        W16676   7.756  23.495   4.992
50136W        W16677  28.672  28.095  10.698
50137W        W16678   6.043  31.943  10.665
50138W        W16679   4.197  16.244  11.169
50139W        W16680   8.655  11.409   0.142
50140W        W16681  17.104  17.578   0.222
50141W        W16682  10.115  38.286   4.020
50142W        W16683  36.546  11.806  11.364
50143W        W16684   5.756  31.223   3.715
50144W        W16685   9.734  37.560   4.039
50145W        W16686  19.112  22.494   1.367
50146W        W16687   2.741  18.147  13.880
50147W        W16688  14.512   7.259   3.046
50148W        W16689   4.850  29.729  11.323
50149W        W16690  35.603   3.051   1.241
50150W        W16691  37.185  25.060  12.562
50151W        W16692  24.614  28.156   3.793
50152W        W16693  25.280  35.410  11.412
50153W        W16694  28.631   1.871   0.344
50154W        W16695  13.182  32.790  13.613
50155W        W16696  24.548  26.128  10.749
50156W        W16697  35.592  36.651   2.243
50157W        W16698  41.361   6.853  14.887
50158W        W16699  26.327  12.755   1.119
50159W        W16700   7.297  11.026  14.840
50160W        W16701  43.973  19.941  10.597
50161W        W16702  43.973  19.000   2.232
50162W        W16703  18.081  42.281   3.689
50163W        W16704  37.583  19.046   2.567
50164W        W16705  35.470  16.803   0.225
50165W        W16706  16.007  33.995   0.326
50166W        W16707  39.327  29.660   4.391
50167W        W16708  16.234   9.697  13.619
50168W        W16709   7.579  36.633  13.422
50169W        W16710   9.787  10.135   1.273
50170W        W16711  17.148   7.162  11.289
50171W        W16712  25.409  32.637   4.132
50172W        W16713   3.265  34.393  13.000
50173W        W16714  17.647  28.396   1.467
50174W        W16715  38.832  26.181   2.660
50175W        W16716  42.262  30.844   0.346
50176W        W16717  41.301  42.684  13.780
50177W        W16718   0.280  12.819  14.224
50178W        W16719  17.893  33.079  10.773
50179W        W16720  16.520  19.724   3.650
50180W        W16721  33.598  20.176  13.978
50181W        W16722  44.846  17.108  13.428
50182W        W16723  30.678  30.123  12.005
50183W        W16724  37.720  43.072   3.491
50184W        W16725  30.543  10.644   2.555
50185W        W16726  41.400  39.513   2.377
50186W        W16727  12.300  43.996  11.629
50187W        W16728  25.078  38.058   0.238
50188W        W16729  10.584   9.921   4.214
50189W        W16730  44.414  17.811   1.927
50190W        W16731  39.590   2.935   3.296
50191W        W16732  14.714  25.537  13.484
50192W        W16733  37.364  39.278  11.178
50193W        W16734   1.330  21.737   3.816
50194W        W16735  11.506   7.292  10.154
50195W        W16736  16.979   2.975  12.905
50196W        W16737  31.845  36.471  12.448
50197W        W16738  37.406  26.694   2.419
50198W        W16739   8.621  19.654  14.375
50199W        W16740  29.892  19.221   3.776
50200W        W16741   3.251  15.090  13.874
50201W        W16742  38.878  36.375   2.212
50202W        W16743  12.323  18.465   1.904
50203W        W16744  34.519  23.958  14.890
50204W        W16745  22.314  36.337  12.176
50205W        W16746  37.899  23.964   4.595
50206W        W16747  17.369  41.437   0.954
50207W        W16748  14.422  24.143  12.425
50208W        W16749  29.433  19.175  10.835
50209W        W16750  40.022   6.808  12.082
50210W        W16751   0.792  29.666  12.019
50211W        W16752  20.642  24.785  14.394
50212W        W16753  35.457  40.029  12.073
50213W        W16754  36.130  24.928   3.638
50214W        W16755  33.089  27.227   4.149
50215W        W16756  39.992  36.825  11.967
50216W        W16757  41.045  16.511   2.696
50217W        W16758  16.869   3.018  13.411
50218W        W16759  33.393  26.597   2.817
50219W        W16760   2.412   2.895  13.014
50220W        W16761  34.201  10.933   4.288
50221W        W16762  30.807  29.679   2.264
50222W        W16763  22.473   6.499   3.606
50223W        W16764  33.879  34.200   1.744
50224W        W16765   4.029  23.280  12.313
50225W        W16766  38.019  31.628   3.830
50226W        W16767   1.635  21.902  13.878
50227W        W16768   2.268  34.933   4.554
50228W        W16769  43.086  27.679   0.210
50229W        W16770   4.220  13.725  10.901
50230W        W16771   1.388  41.265   1.311
50231W        W16772   6.466  16.232   4.900
50232W        W16773  15.089  26.027  11.932
50233W        W16774   4.362  39.633  12.081
50234W        W16775  26.754  44.032  10.733
50235W        W16776  42.585  18.307  14.028
50236W        W16777  22.632  10.526  10.740
50237W        W16778  13.999  40.255  11.553
50238W        W16779  15.331   1.122   1.699
50239W        W16780  42.943  35.787   1.409
50240W        W16781  41.786  36.385   1.820
50241W        W16782   9.714  28.246  13.713
50242W        W16783   4.306  40.445  13.328
50243W        W16784  44.793  27.740   3.838
50244W        W16785  16.264  16.954  12.464
50245W        W16786   0.058  27.589  11.562
50246W        W16787  21.907  27.210  12.471
50247W        W16788  24.999  24.786  13.038
50248W        W16789   4.342  24.129   2.853
50249W        W16790  43.336  12.382  11.194
50250W        W16791   4.226  33.654   3.872
50251W        W16792   0.676  24.184   0.427
50252W        W16793  33.756  10.128  14.727
50253W        W16794  11.218   6.665  12.427
50254W        W16795  19.253  19.026   4.257
50255W        W16796  15.311  24.649   4.380
50256W        W16797  40.128  30.069  12.387
50257W        W16798  28.463  36.485   1.610
50258W        W16799  24.730  44.253   0.066
50259W        W16800   4.761  41.305   3.096
50260W        W16801  17.570  21.693  13.284
50261W        W16802  18.035  18.231  12.484
50262W        W16803  23.715  15.665   3.521
50263W        W16804   3.915  44.343   4.198
50264W        W16805  20.206  44.349  11.500
50265W        W16806  13.886   1.248   2.294
50266W        W16807  34.516  42.300   1.461
50267W        W16808  26.521   2.979  11.528
50268W        W16809  17.276   7.199  12.112
50269W        W16810  12.040   4.938  13.968
50270W        W16811   0.758  22.273   1.945
50271W        W16812  38.930   0.389  10.689
50272W        W16813   5.384  30.316   2.714
50273W        W16814  13.172   0.841   4.494
50274W        W16815   4.266  20.336  13.028
50275W        W16816  15.075  35.625   3.812
50276W        W16817  26.350   4.711   2.338
50277W        W16818  11.352  11.439  11.397
50278W        W16819  13.625  14.715   2.690
50279W        W16820  14.225  43.994  14.089
50280W        W16821   9.622  17.796  10.635
50281W        W16822  39.875  36.026  10.946
50282W        W16823  24.783  32.284   3.635
50283W        W16824  35.539  22.259  12.954
50284W        W16825  15.255  41.816   2.885
50285W        W16826  24.156  32.086  13.256
50286W        W16827  18.763  26.512  11.671
50287W        W16828  17.500   0.359  11.471
50288W        W16829  39.773  24.065  13.374
50289W        W16830   4.695   8.443  11.891
50290W        W16831   8.198   8.570  13.072
50291W        W16832  28.174  28.154   0.467
50292W        W16833  23.734  16.545   3.485
50293W        W16834  35.190  21.137   4.041
50294W        W16835  24.175  37.296   0.720
50295W        W16836  30.373  25.889  14.362
50296W        W16837  40.555  37.945   0.935
50297W        W16838   1.489  33.386  14.529
50298W        W16839  33.266   4.192  11.252
50299W        W16840  39.498  36.869  14.552
50300W        W16841  37.094  18.301  14.892
50301W        W16842   4.574  40.953  13.501
50302W        W16843  34.089  10.302   3.183
50303W        W16844  13.615  32.852   4.545
50304W        W16845  36.574  18.445  14.802
50305W        W16846  28.504   0.957  13.037
50306W        W16847   3.980   1.801  12.618
50307W        W16848   9.625   3.350   1.495
50308W        W16849  20.941  40.515   1.920
50309W        W16850  17.581  38.615   4.539
50310W        W16851   9.392  44.075   3.522
50311W        W16852  31.956  32.527   0.316
50312W        W16853   8.136  27.681  12.161
50313W        W16854  36.301   9.339  12.640
50314W        W16855  43.430  23.333   1.207
50315W        W16856   3.892   4.890  14.785
50316W        W16857  37.217  15.269   0.454
50317W        W16858  10.281  22.490  11.640
50318W        W16859  19.764  41.772   1.411
50319W        W16860  39.372  31.373  12.443
50320W        W16861  41.023   4.070  12.009
50321W        W16862  44.968  17.165   1.854
50322W        W16863  33.221   7.485   4.782
50323W        W16864  16.819  43.733   3.919
50324W        W16865  20.646   6.856   2.749
50325W        W16866  26.087   8.942  14.918
50326W        W16867  31.435  29.955  12.615
50327W        W16868  21.616  12.957   4.564
50328W        W16869  40.917   3.004  14.563
50329W        W16870  32.525  17.224  12.825
50330W        W16871  21.189  24.084   4.507
50331W        W16872  16.820  10.649   0.343
50332W        W16873   7.879   0.923   3.229
50333W        W16874  22.675  39.332  10.775
50334W        W16875  22.026   6.287  12.581
50335W        W16876  24.578   4.666   3.670
50336W        W16877  41.285   2.796  14.251
50337W        W16878   3.358  17.019   1.249
50338W        W16879   9.171  43.747  10.816
50339W        W16880  17.053  24.633   4.402
50340W        W16881   5.753  20.183  10.691
50341W        W16882   2.859  35.885   0.198
50342W        W16883  32.387   8.660   2.757
50343W        W16884  11.347  25.154  11.616
50344W        W16885  13.877  43.043  14.326
50345W        W16886   6.698  16.501  13.358
50346W        W16887  20.802  19.507  12.876
50347W        W16888  12.136  41.296   4.215
50348W        W16889  16.147  20.235  14.961
50349W        W16890   0.293  28.097   1.412
50350W        W16891   8.291  38.924  13.371
50351W        W16892  10.440  40.170   3.605
50352W        W16893  33.360   5.183   3.196
50353W        W16894  41.350  23.103   4.337
50354W        W16895   6.819  12.229   3.149
50355W        W16896   8.421  28.875  12.537
50356W        W16897  11.225  31.144   0.551
50357W        W16898  27.047  38.878   3.308
50358W        W16899  25.487  27.261   3.335
50359W        W16900  17.214   6.315  13.530
50360W        W16901   9.728   3.892  14.861
50361W        W16902   7.896   0.871  14.161
50362W        W16903  31.292  13.706   3.756
50363W        W16904  39.419  44.748  11.514
50364W        W16905  10.126  25.165   2.784
50365W        W16906   0.317  35.502  13.338
50366W        W16907  15.561  34.776  12.374
50367W        W16908  12.667  32.420   2.219
50368W        W16909  18.264   3.715   2.288
50369W        W16910  25.744  43.297  10.990
50370W        W16911   9.481  37.507  12.640
50371W        W16912  12.105  37.950   0.423
50372W        W16913  26.712  18.930   4.727
50373W        W16914  11.337  19.504  13.000
50374W        W16915  38.494  36.761  14.366
50375W        W16916   1.819   2.952  11.164
50376W        W16917   7.927  20.030   3.466
50377W        W16918  35.138   0.229  11.425
50378W        W16919  29.373  36.600  11.604
50379W        W16920  35.620  17.676   1.276
50380W        W16921  22.957  37.318   4.816
50381W        W16922  33.400  28.288  11.438
50382W        W16923  43.980  31.740  11.945
50383W        W16924   3.153  25.850   2.347
50384W        W16925  16.994  39.869  10.730
50385W        W16926  36.090  28.459  10.750
50386W        W16927  43.905  15.307  10.270
50387W        W16928   0.819  17.801  14.402
50388W        W16929  38.891  22.131  12.795
50389W        W16930  22.002  16.243  10.920
50390W        W16931   3.947  44.014   5.098
50391W        W16932  34.883  24.992   4.185
50392W        W16933   9.287  21.305  13.561
50393W        W16934  40.321  38.536  14.814
50394W        W16935  11.860  40.802   4.099
50395W        W16936   7.303  22.307  13.805
50396W        W16937   2.909   1.207   4.735
50397W        W16938  31.981  32.812   3.631
50398W        W16939  19.931  22.039  12.966
50399W        W16940  17.199  31.539  14.488
50400W        W16941  22.151  32.712   1.907
50401W        W16942   3.372  31.357  12.682
50402W        W16943  30.215  11.211  14.802
50403W        W16944  35.883  31.096   1.617
50404W        W16945  23.795  43.464  11.536
50405W        W16946  40.808  22.928  12.365
50406W        W16947  19.076   9.846  12.857
50407W        W16948   8.273  18.893  11.589
50408W        W16949  39.599  13.331  13.515
50409W        W16950  29.938   0.726   0.350
50410W        W16951  31.398  33.194  11.634
50411W        W16952  18.553  17.770  14.729
50412W        W16953  36.496  22.736  11.190
50413W        W16954  29.798  38.917   4.641
50414W        W16955  25.430  20.444  14.346
50415W        W16956  13.377  34.615   3.351
50416W        W16957  30.662  35.662  14.267
50417W        W16958   4.960  31.363  12.188
50418W        W16959   7.859  40.149  11.434
50419W        W16960  41.738  39.903  10.937
50420W        W16961  30.565  36.588   1.583
50421W        W16962   6.073   7.268  12.156
50422W        W16963  16.789  18.886   1.230
50423W        W16964  29.909   2.420   0.696
50424W        W16965  29.166  40.113   3.223
50425W        W16966  12.645   9.723  14.292
50426W        W16967  39.439  28.246  11.434
50427W        W16968  32.974   5.299  12.794
50428W        W16969  25.026  21.124  11.731
50429W        W16970  16.726   5.912  10.390
50430W        W16971  19.463  44.348  11.082
50431W        W16972  16.931  34.423  12.440
50432W        W16973  36.005  37.286   0.080
50433W        W16974  19.573  22.681   1.245
50434W        W16975   9.921   0.739  13.872
50435W        W16976  18.793  39.716   3.435
50436W        W16977   2.196  34.012   3.557
50437W        W16978  36.605  10.309  13.084
50438W        W16979  12.889   0.433  12.221
50439W        W16980  19.964  28.733  14.606
50440W        W16981  35.895  44.474  10.680
50441W        W16982  26.903  37.982   3.547
50442W        W16983  37.916  41.603  11.116
50443W        W16984  17.172   4.307   1.381
50444W        W16985   9.660  21.002  10.969
50445W        W16986  26.724  35.072   4.597
50446W        W16987  19.587   4.186   1.483
50447W        W16988  11.868  30.061   3.167
50448W        W16989  37.467  41.845  14.860
50449W        W16990  27.248  30.199   4.489
50450W        W16991  13.076   7.708  11.458
50451W        W16992  19.252  25.261   3.090
50452W        W16993  43.340   5.179  10.525
50453W        W16994  26.075  36.155   3.913
50454W        W16995  18.060  16.262   0.917
50455W        W16996  20.150   9.185  13.409
50456W        W16997  13.960  40.304   3.086
50457W        W16998  25.764  25.152  12.963
50458W        W16999  39.925  39.071   2.124
50459W        W17000  18.271   0.222   0.361
50460W        W17001   9.267  25.192   4.688
50461W        W17002  26.694  30.908   3.809
50462W        W17003  10.197  15.264   2.268
50463W        W17004  17.118  35.408  13.599
50464W        W17005  19.666  43.201  14.481
50465W        W17006  33.101  34.996   0.956
50466W        W17007  25.225  31.498   0.477
50467W        W17008  34.935   4.410   3.892
50468W        W17009  11.374  41.798   0.545
50469W        W17010  31.912  26.107  12.073
50470W        W17011   4.710  13.146  13.349
50471W        W17012   3.329  35.474   0.979
50472W        W17013   0.950  31.108  14.358
50473W        W17014  24.205   4.120   1.354
50474W        W17015  13.213  23.020  13.526
50475W        W17016  24.435   8.970   0.147
50476W        W17017  40.558   3.718  14.829
50477W        W17018  22.904  24.526  14.699
50478W        W17019   5.189  33.555  10.214
50479W        W17020  41.644   6.774   2.702
50480W        W17021  43.113  14.158   0.936
50481W        W17022  32.092  29.573  12.911
50482W        W17023  33.191  27.727  13.589
50483W        W17024  24.035  44.922   4.638
50484W        W17025  25.672  11.448  12.433
50485W        W17026   4.029   3.010  10.843
50486W        W17027   3.622  43.337   2.378
50487W        W17028  26.340   5.559  10.270
50488W        W17029  36.567  11.060   4.120
50489W        W17030  17.649  20.893  10.458
50490W        W17031  16.801   0.199   3.413
50491W        W17032   6.569  27.351   1.380
50492W        W17033   3.342  35.659   1.988
50493W        W17034  39.058  36.403  14.788
50494W        W17035  41.820  44.744  13.994
50495W        W17036  34.354  44.376   2.412
50496W        W17037  22.986  19.684  10.699
50497W        W17038  38.419  39.573  10.427
50498W        W17039  37.390  13.431  12.807
50499W        W17040  36.851   6.983  13.568
50500W        W17041  21.133  10.009   3.681
50501W        W17042  19.195  37.905   4.900
50502W        W17043  29.828  26.029   1.298
50503W        W17044   1.282  42.020  12.461
50504W        W17045  13.320  13.736   0.559
50505W        W17046  39.096  22.667   1.666
50506W        W17047  12.802  17.866  13.974
50507W        W17048  32.571  23.948  11.166
50508W        W17049  40.808  28.191   4.202
50509W        W17050   1.430   9.923   2.422
50510W        W17051  33.582   4.483  10.942
50511W        W17052  27.541  23.254  14.463
50512W        W17053   2.802  39.920  12.100
50513W        W17054  26.113   3.052   3.960
50514W        W17055   2.789  13.204  11.101
50515W        W17056  26.736   8.308  11.011
50516W        W17057  15.548  16.941  11.370
50517W        W17058   9.600  28.392  11.184
50518W        W17059  35.610  32.011  13.580
50519W        W17060  34.969   5.803  12.565
50520W        W17061   3.939   4.811   4.561
50521W        W17062   9.888   2.757   4.056
50522W        W17063  14.085  32.606  10.963
50523W        W17064  11.193  35.855  13.990
50524W        W17065   0.012   0.627  14.986
50525W        W17066  15.580  40.130  10.503
50526W        W17067  32.087   4.422  10.698
50527W        W17068   2.203  22.066  14.760
50528W        W17069  21.739  29.964  10.716
50529W        W17070  41.471  30.957   2.906
50530W        W17071   7.081  41.908  14.012
50531W        W17072  39.981   4.569  12.872
50532W        W17073  27.867  15.970   1.889
50533W        W17074  24.936   0.964   4.162
50534W        W17075  37.941   3.769  13.322
50535W        W17076   9.268  27.346   1.611
50536W        W17077  13.092  26.645  10.787
50537W        W17078   6.693  16.474   0.726
50538W        W17079  34.447   5.896   0.892
50539W        W17080   3.366  35.333  12.615
50540W        W17081   1.474  33.889  10.978
50541W        W17082  19.042   2.287  13.814
50542W        W17083  15.438  18.239   4.517
50543W        W17084  21.959  36.125   0.597
50544W        W17085   4.568   4.393  11.095
50545W        W17086  19.543  31.037   1.367
50546W        W17087  19.357  27.569   2.883
50547W        W17088  40.929  29.660   1.803
50548W        W17089   9.952  37.309  12.596
50549W        W17090   6.413   7.219   1.662
50550W        W17091  44.846  37.873  13.524
50551W        W17092  34.854  25.378   3.818
50552W        W17093  21.160  38.645  12.529
50553W        W17094  12.685  26.558  13.966
50554W        W17095  27.588  20.637   4.886
50555W        W17096   4.299   7.632  14.452
50556W        W17097  44.218  19.112   4.115
50557W        W17098   9.316  26.481  13.089
50558W        W17099  36.372  22.178  10.741
50559W        W17100  17.635  14.673   2.351
50560W        W17101  31.189  11.115  14.835
50561W        W17102  35.350  29.366  13.161
50562W        W17103  42.636   0.969   3.736
50563W        W17104  43.002  14.131   9.976
50564W        W17105  44.860  38.389  11.389
50565W        W17106  42.289  36.496   0.771
50566W        W17107   5.511  35.637   2.110
50567W        W17108  38.298  28.480   1.678
50568W        W17109   6.112  43.935  13.756
50569W        W17110  37.506  17.183  13.577
50570W        W17111  29.264  39.440   0.349
50571W        W17112  29.962  36.892  12.539
50572W        W17113   7.993   4.779  10.469
50573W        W17114  30.201  15.274   1.218
50574W        W17115  18.691  42.976   1.488
50575W        W17116  33.193  21.593  11.210
50576W        W17117  21.627  38.046   2.587
50577W        W17118   2.756  39.364   1.846
50578W        W17119  41.955  40.249  13.058
50579W        W17120  32.319   3.288   4.167
50580W        W17121  39.350  19.037   3.182
50581W        W17122  40.480  15.235  11.621
50582W        W17123  44.673  35.861   4.183
50583W        W17124  28.243  15.694  13.538
50584W        W17125   7.288   0.426   4.268
50585W        W17126  33.538  36.195   1.184
50586W        W17127  32.121   6.037  13.466
50587W        W17128  22.589  28.685  13.777
50588W        W17129  26.447  11.108   0.743
50589W        W17130  10.623  29.617   1.863
50590W        W17131   2.288  30.061  12.337
50591W        W17132  25.035  13.388  14.643
50592W        W17133  40.377  13.383  12.217
50593W        W17134  41.133  16.808  12.318
50594W        W17135   8.175  18.341  13.463
50595W        W17136  44.944  36.439   1.407
50596W        W17137  43.074  17.655  12.291
50597W        W17138  15.161  40.131   1.260
50598W        W17139  41.943  44.908  14.462
50599W        W17140   2.760  10.200  12.649
50600W        W17141  41.490  28.156  14.033
50601W        W17142  20.227  40.896   5.109
50602W        W17143  41.610  30.506   0.715
50603W        W17144   6.948   1.204  14.850
50604W        W17145   4.743  31.714  12.656
50605W        W17146  33.805  18.741   1.891
50606W        W17147  36.928  42.111  11.921
50607W        W17148   6.893   7.080   0.319
50608W        W17149  28.112  35.321  11.700
50609W        W17150  27.463  40.727   1.396
50610W        W17151  39.316  19.495  11.925
50611W        W17152  33.679  24.513  14.969
50612W        W17153  41.779  32.506   3.659
50613W        W17154  16.328  36.250   3.329
50614W        W17155  18.265   3.646   4.094
50615W        W17156  34.359  10.152  13.315
50616W        W17157  39.467  21.114   3.172
50617W        W17158  19.356  13.534  11.547
50618W        W17159   0.891  13.825  13.946
50619W        W17160  18.714  26.713  11.201
50620W        W17161   6.398  25.992   0.088
50621W        W17162  16.561  15.112  12.466
50622W        W17163  25.632  28.433   4.604
50623W        W17164   6.716   9.238   0.844
50624W        W17165  13.096  40.772  12.570
50625W        W17166  44.557  34.401  14.400
50626W        W17167  22.780  39.556  11.657
50627W        W17168  33.147  13.560   4.031
50628W        W17169  24.658  20.362  13.849
50629W        W17170  44.323  18.550   0.761
50630W        W17171  27.721  17.093  12.846
50631W        W17172  34.963  37.154  13.285
50632W        W17173  44.616  34.070  11.018
50633W        W17174  19.085  10.485   4.622
50634W        W17175  23.676  32.848  11.194
50635W        W17176  14.353  27.082   0.034
50636W        W17177  13.939   9.175   0.321
50637W        W17178  21.284  43.729   4.896
50638W        W17179  28.932  23.828  10.699
50639W        W17180  11.868  28.631   3.969
50640W        W17181  18.144   6.691   0.942
50641W        W17182  36.204  22.068   3.732
50642W        W17183   8.727  35.976   2.329
50643W        W17184  41.315  40.995   1.322
50644W        W17185  21.923  17.086  10.914
50645W        W17186   2.495  11.115  10.707
50646W        W17187  12.880  28.338   3.939
50647W        W17188  40.050  30.988  12.957
50648W        W17189   0.307  39.436   0.007
50649W        W17190  18.085  39.081   0.301
50650W        W17191  32.190  36.885  12.444
50651W        W17192  10.588  21.011  13.889
50652W        W17193   6.679  35.696  14.800
50653W        W17194  14.327   8.849   0.277
50654W        W17195  11.234  41.520  11.593
50655W        W17196  37.355  13.894   4.550
50656W        W17197   9.851  37.662   0.274
50657W        W17198  19.681  40.345  14.552
50658W        W17199  34.147   8.111  13.448
50659W        W17200  40.103  40.960  11.267
50660W        W17201  19.256   9.583  13.262
50661W        W17202  44.753  25.055  13.876
50662W        W17203  21.263  24.032   2.296
50663W        W17204  42.807  28.053  12.540
50664W        W17205  19.680   8.934  11.732
50665W        W17206  13.533   8.772   2.949
50666W        W17207  35.767  12.227  11.132
50667W        W17208  32.689  40.119   1.447
50668W        W17209  22.264  21.501   3.924
50669W        W17210  43.299  13.195   2.287
50670W        W17211  19.220   7.645   3.638
50671W        W17212  14.334  41.981  10.726
50672W        W17213  42.941  25.974  12.399
50673W        W17214  31.608  36.413   3.763
50674W        W17215  16.194  32.160   2.820
50675W        W17216  42.288   3.804  13.349
50676W        W17217   3.744  42.346  12.001
50677W        W17218   5.763  37.895  14.962
50678W        W17219   5.121  23.154   3.209
50679W        W17220  42.113  40.020   0.127
50680W        W17221  34.949  15.685  13.884
50681W        W17222  22.305  17.676  11.570
50682W        W17223  33.014  41.493   0.812
50683W        W17224  35.227  27.877   1.818
50684W        W17225  37.354  30.034   1.867
50685W        W17226   4.401  32.535  13.963
50686W        W17227  16.590  34.528   3.450
50687W        W17228  17.147  40.570   0.739
50688W        W17229  37.563  24.742  11.686
50689W        W17230   6.060  40.005   4.979
50690W        W17231  44.080  42.702   3.669
50691W        W17232  21.643   6.348   2.690
50692W        W17233  37.662  29.141  14.039
50693W        W17234   9.684  44.316   4.755
50694W        W17235  22.775   0.762   3.697
50695W        W17236  18.447  23.697  12.020
50696W        W17237  23.534  21.595   3.621
50697W        W17238  36.387  12.607  14.984
50698W        W17239  42.874  14.142   3.200
50699W        W17240   1.771  24.438   3.808
50700W        W17241  34.335  27.122  14.095
50701W        W17242  22.139  26.961  12.075
50702W        W17243  27.079  17.936  10.812
50703W        W17244   7.640  25.547  12.056
50704W        W17245  44.951  13.557   0.335
50705W        W17246  34.028  11.713  12.880
50706W        W17247  10.394  21.989  14.311
50707W        W17248   1.370  36.716   0.679
50708W        W17249   5.718  14.566   0.109
50709W        W17250  31.469  15.714   3.328
50710W        W17251  27.990  37.424   2.595
50711W        W17252  35.156  39.103  11.934
50712W        W17253  14.861  35.774  12.056
50713W        W17254  36.070   3.188   1.446
50714W        W17255  15.330   4.394  11.533
50715W        W17256  28.109   7.715  13.416
50716W        W17257   5.230  30.035  14.705
50717W        W17258  19.548  26.637  14.897
50718W        W17259   6.250   4.882  11.466
50719W        W17260  39.569   3.217  11.545
50720W        W17261  26.401  31.112   2.840
50721W        W17262   4.154  11.295   4.217
50722W        W17263  41.810  40.980  13.757
50723W        W17264  33.848  30.022  11.152
50724W        W17265  12.605  12.115   3.082
50725W        W17266  30.027  44.046  13.865
50726W        W17267  40.270   9.661   1.730
50727W        W17268  10.243  44.234  13.422
50728W        W17269  23.192  44.850  13.384
50729W        W17270  13.653  34.733   1.631
50730W        W17271   2.456  30.099  14.945
50731W        W17272  13.381  34.880  14.507
50732W        W17273  15.107   1.506  10.470
50733W        W17274  44.406  28.832   0.728
50734W        W17275  31.115  37.790  13.504
50735W        W17276  33.078  27.270  12.158
50736W        W17277  39.071  34.116  12.043
50737W        W17278  10.541   4.142   0.333
50738W        W17279  34.857  37.386   0.463
50739W        W17280   7.739  13.258  10.714
50740W        W17281   9.467  10.787  12.546
50741W        W17282  12.101  25.220   0.857
50742W        W17283  17.807  33.570   4.245
50743W        W17284  20.137  18.996   2.937
50744W        W17285   9.903   4.705   0.929
50745W        W17286  27.958  42.563  11.166
50746W        W17287  32.686  24.196  13.415
50747W        W17288   0.763  20.160  12.630
50748W        W17289  15.644  17.092   2.767
50749W        W17290  32.384  38.104  13.945
50750W        W17291  22.788  10.748   0.215
50751W        W17292  42.553  38.147  11.914
50752W        W17293   4.696  42.807  14.576
50753W        W17294  34.849  12.837  12.942
50754W        W17295  19.608   3.907   4.532
50755W        W17296   5.665  21.142   1.956
50756W        W17297  29.129  36.303  14.697
50757W        W17298   4.016  15.179  14.866
50758W        W17299  24.236  22.524  13.796
50759W        W17300  11.966  22.368   4.119
50760W        W17301  23.100  22.093   4.856
50761W        W17302  29.119   9.564   0.275
50762W        W17303  42.384  13.584   2.334
50763W        W17304   8.101   2.326  11.475
50764W        W17305  16.349  31.885  13.915
50765W        W17306  28.930   5.675  11.591
50766W        W17307  24.391  38.049   3.758
50767W        W17308  38.099  27.272   4.058
50768W        W17309  11.234  23.528   4.579
50769W        W17310  32.248   4.359   3.555
50770W        W17311  41.479   9.888   4.575
50771W        W17312  41.355  34.814  12.466
50772W        W17313   7.445  41.433   4.333
50773W        W17314  28.181  34.586   0.392
50774W        W17315  20.709  29.189  13.369
50775W        W17316   0.319   9.921   4.098
50776W        W17317   5.726   5.487  13.906
50777W        W17318  35.988  31.420  12.892
50778W        W17319  43.247  23.522   3.325
50779W        W17320  20.020  13.774   0.749
50780W        W17321  18.320   2.324  12.066
50781W        W17322   4.756   0.788   2.149
50782W        W17323  39.913  10.675   1.308
50783W        W17324  22.810  13.732   5.186
50784W        W17325  18.983  36.129   0.783
50785W        W17326  43.403   2.928  13.532
50786W        W17327   1.713  16.074   3.569
50787W        W17328   2.352   7.130   5.022
50788W        W17329  28.719  26.499  11.386
50789W        W17330  18.520   3.266  11.662
50790W        W17331  27.135  19.749  11.459
50791W        W17332  12.609  21.758  13.513
50792W        W17333  20.397  17.434   4.572
50793W        W17334  44.755  19.519  13.845
50794W        W17335   0.917  23.227   2.738
50795W        W17336  24.480  31.435  14.849
50796W        W17337  42.806  33.938   1.400
50797W        W17338  30.954  18.248  13.010
50798W        W17339   4.194  41.234   4.179
50799W        W17340  32.907  35.918   3.222
50800W        W17341   0.507   1.044   3.153
50801W        W17342  33.032   0.788  14.342
50802W        W17343  35.670  33.359   4.173
50803W        W17344  28.983  20.818  11.062
50804W        W17345   4.841  22.270   0.866
50805W        W17346   7.139  30.834  13.930
50806W        W17347   8.861  25.057   0.746
50807W        W17348  20.259  14.584   0.505
50808W        W17349  24.702  28.175   4.800
50809W        W17350  42.912  22.045  13.026
50810W        W17351  30.519  30.405   3.348
50811W        W17352   3.723  14.826   4.639
50812W        W17353  31.056  42.440  13.435
50813W        W17354  29.850  36.720  10.841
50814W        W17355  43.460  29.267  14.975
50815W        W17356  31.464  22.487  11.194
50816W        W17357  17.549  22.073   1.938
50817W        W17358  16.290   1.396   4.103
50818W        W17359  42.059  17.048   3.698
50819W        W17360  11.167  30.924  10.733
50820W        W17361  18.029   1.322  12.953
50821W        W17362  38.985  44.205  12.113
50822W        W17363   7.179  22.099  11.505
50823W        W17364  13.731  23.439   4.556
50824W        W17365  20.227  34.276   3.833
50825W        W17366  17.188  26.530  12.386
50826W        W17367  24.416   8.796   1.321
50827W        W17368  38.200   0.760  10.704
50828W        W17369  39.996   5.308  12.073
50829W        W17370   0.296  31.469  13.005
50830W        W17371   3.003  43.651   4.880
50831W        W17372  35.124  16.393   2.132
50832W        W17373  16.322  30.853   0.612
50833W        W17374  15.402  19.285   2.275
50834W        W17375  40.120  38.434   1.710
50835W        W17376  40.427   8.346   2.786
50836W        W17377  40.059   4.896   0.086
50837W        W17378  34.759  26.004  13.287
50838W        W17379  26.165   0.798   0.856
50839W        W17380   0.684   4.428   0.747
50840W        W17381  27.927  37.570  12.495
50841W        W17382  44.375  27.494  14.786
50842W        W17383  14.864  31.175   2.711
50843W        W17384  42.285   5.872  11.811
50844W        W17385  16.184  27.125   1.180
50845W        W17386  19.528  27.228  12.546
50846W        W17387   5.205  31.389   0.372
50847W        W17388  42.934  43.270   2.159
50848W        W17389  32.169  26.638   1.340
50849W        W17390   7.275  15.651   1.828
50850W        W17391  33.064  33.935   4.620
50851W        W17392  43.400   3.039  13.035
50852W        W17393   4.989  29.607  10.852
50853W        W17394  16.649   1.686   3.214
50854W        W17395  23.568  14.514   3.237
50855W        W17396  33.334  18.058   3.010
50856W        W17397  32.491  40.926  14.057
50857W        W17398  23.210  23.258  12.652
50858W        W17399  29.930  43.288  12.629
50859W        W17400  24.471  17.386  13.949
50860W        W17401  21.672   3.970   1.498
50861W        W17402  10.785  29.691   1.337
50862W        W17403  36.551  41.394   2.779
50863W        W17404   1.764  44.822   2.165
50864W        W17405   5.883  42.552   2.258
50865W        W17406   7.961  15.308   4.539
50866W        W17407  16.737  29.743  10.765
50867W        W17408  10.855   0.924   0.095
50868W        W17409   3.923  29.681  12.691
50869W        W17410  37.559  13.193   0.646
50870W        W17411  14.845  31.678  12.003
50871W        W17412   9.792  22.705   3.615
50872W        W17413  17.456  10.222   2.135
50873W        W17414  24.195  43.409   3.373
50874W        W17415  42.200   3.506   2.785
50875W        W17416  44.076  11.195   2.780
50876W        W17417   7.392  29.921   1.195
50877W        W17418  16.095  37.930  10.712
50878W        W17419  31.870  35.897   2.798
50879W        W17420  21.139  19.187  12.177
50880W        W17421  27.037  18.283   2.906
50881W        W17422  35.581  25.073  13.747
50882W        W17423   3.807  40.737  14.690
50883W        W17424  15.642  29.638   1.225
50884W        W17425  17.775  30.981  14.036
50885W        W17426  19.810  41.315  11.572
50886W        W17427  43.061  30.405   0.032
50887W        W17428  10.158   2.455   3.653
50888W        W17429  39.739  42.479   2.337
50889W        W17430   1.382  10.809  12.192
50890W        W17431  20.931  35.792  13.869
50891W        W17432  11.680  38.114  13.053
50892W        W17433  39.348  37.039  12.318
50893W        W17434   9.778  42.069   2.827
50894W        W17435  31.185   0.267   4.576
50895W        W17436  41.132  20.976   1.163
50896W        W17437  36.411  40.365  13.489
50897W        W17438  44.265  16.595  10.566
50898W        W17439  28.200  35.807   0.761
50899W        W17440  25.929  30.123  11.966
50900W        W17441  20.322  40.067  12.002
50901W        W17442   9.788  19.103  13.167
50902W        W17443  20.970  28.127  12.178
50903W        W17444  22.058   4.165   1.890
50904W        W17445  22.630  13.327  14.508
50905W        W17446  39.743  16.229  11.544
50906W        W17447  16.337  23.991   0.834
50907W        W17448   9.929  31.689  14.843
50908W        W17449  26.709  11.545  10.791
50909W        W17450  14.843  29.173  11.985
50910W        W17451  10.146  28.050   0.361
50911W        W17452   9.205  38.076   1.724
50912W        W17453   3.711   4.999   1.248
50913W        W17454  35.134  28.842   4.825
50914W        W17455  36.122  40.982   4.703
50915W        W17456  17.823  22.867  11.181
50916W        W17457  29.319  26.607  12.207
50917W        W17458  40.762  39.016  14.375
50918W        W17459  20.183  41.274  14.405
50919W        W17460  15.650  20.045  14.882
50920W        W17461  33.368  27.456  14.876
50921W        W17462  44.013  32.639  11.941
50922W        W17463  35.427  44.910  13.487
50923W        W17464  41.435  40.820  11.835
50924W        W17465  39.748  36.047   3.291
50925W        W17466  28.955  41.630   0.369
50926W        W17467  18.320  35.317   0.904
50927W        W17468   8.362   8.357   2.709
50928W        W17469  24.038   1.287  11.404
50929W        W17470  34.476  21.050   1.618
50930W        W17471  21.109  36.523   3.503
50931W        W17472  24.389  24.456   1.852
50932W        W17473  10.898   8.591  13.035
50933W        W17474   0.451  26.879   3.204
50934W        W17475  32.671  33.662  13.451
50935W        W17476  18.390   5.243   4.133
50936W        W17477   8.424  33.046   3.970
50937W        W17478  11.294  43.297   0.668
50938W        W17479  18.276  27.029  11.163
50939W        W17480   4.829  33.046   2.895
50940W        W17481   7.725   1.534   4.200
50941W        W17482  22.988  35.324   0.918
50942W        W17483  32.076  44.569   0.153
50943W        W17484  16.282   7.338   1.809
50944W        W17485  34.118  11.740   4.145
50945W        W17486  24.862  26.883  12.772
50946W        W17487   0.846  18.382  12.529
50947W        W17488  39.083   2.872  12.632
50948W        W17489  41.740   7.391   1.271
50949W        W17490  36.614  10.959   0.393
50950W        W17491  36.389  43.221  14.762
50951W        W17492   7.526  19.746   3.604
50952W        W17493  42.544  36.392   3.158
50953W        W17494   5.279  36.932   4.330
50954W        W17495   1.017  22.175  10.756
50955W        W17496  31.799  25.732  11.086
50956W        W17497  35.843  36.317  12.967
50957W        W17498   9.281  18.320   2.270
50958W        W17499  28.170  24.190   0.780
50959W        W17500  32.419  16.625   2.386
50960W        W17501  22.527  17.776   1.055
50961W        W17502  20.238  23.198  13.816
50962W        W17503  11.050   3.203  12.703
50963W        W17504  40.717  27.994  14.755
50964W        W17505  17.773  34.315  14.707
50965W        W17506   5.364  41.471   2.461
50966W        W17507  18.094  44.081  10.637
50967W        W17508  33.187  21.094   4.741
50968W        W17509  10.351   4.162   4.865
50969W        W17510  16.035   5.498   1.911
50970W        W17511  35.889  11.260   4.475
50971W        W17512   4.416  26.408   0.346
50972W        W17513  31.693  17.625  11.623
50973W        W17514  20.732   2.863   3.927
50974W        W17515   5.430  38.945  11.568
50975W        W17516  27.405  44.618  11.133
50976W        W17517  12.004  29.618  11.037
50977W        W17518   8.648  29.745   1.973
50978W        W17519   2.154  34.253  14.261
50979W        W17520  32.664  32.724  12.020
50980W        W17521  12.664  44.617   1.504
50981W        W17522  21.685  25.780   0.816
50982W        W17523  41.058   2.010   3.613
50983W        W17524  44.364  40.550  13.378
50984W        W17525  30.909   5.221  14.744
50985W        W17526  18.399  33.609   3.147
50986W        W17527  10.721  35.914   0.429
50987W        W17528  30.389  10.826   2.114
50988W        W17529  10.820  39.620   0.326
50989W        W17530  31.548  39.134  13.471
50990W        W17531  44.453  12.939   1.400
50991W        W17532  20.097   9.103   3.917
50992W        W17533  31.727  36.333  14.310
50993W        W17534  37.041   8.841  12.039
50994W        W17535  43.229   1.346  10.785
50995W        W17536  43.218  34.520  13.929
50996W        W17537  30.455  40.464   0.337
50997W        W17538  19.609  44.787   1.827
50998W        W17539  35.183  13.441   4.019
50999W        W17540  39.673  37.668  12.414
51000W        W17541  39.264  35.171   2.705
51001W        W17542   1.212  42.033   3.243
51002W        W17543   3.558   5.064   2.127
51003W        W17544   2.813  12.505  11.786
51004W        W17545  27.712  33.192  10.978
51005W        W17546  14.814   0.419   0.996
51006W        W17547  29.163   6.261  12.515
51007W        W17548  22.700  21.211  14.989
51008W        W17549   0.849  43.072   2.410
51009W        W17550  19.711  25.375   3.318
51010W        W17551   7.144  15.913  13.115
51011W        W17552  30.732  36.225  13.537
51012W        W17553  35.401  13.155  13.907
51013W        W17554   0.635   4.360  13.362
51014W        W17555  18.160   9.256  14.499
51015W        W17556  37.970  15.599   2.094
51016W        W17557  38.661  22.707   2.824
51017W        W17558  15.895  34.123   9.788
51018W        W17559  40.013   2.216   3.603
51019W        W17560  29.489  16.040   3.736
51020W        W17561  42.317  30.506  11.523
51021W        W17562  26.511  38.700   3.245
51022W        W17563  27.186   0.406   0.041
51023W        W17564  31.958  17.815   0.836
51024W        W17565  21.058  19.313   4.092
51025W        W17566  16.249  26.123   4.483
51026W        W17567  34.561   2.317   2.417
51027W        W17568  19.220   2.980   3.713
51028W        W17569  38.704   3.236  12.403
51029W        W17570  11.149  11.171   2.878
51030W        W17571   0.102  19.448  11.128
51031W        W17572  21.655  13.768  11.878
51032W        W17573  22.946  20.536  14.458
51033W        W17574   6.785   6.982  11.565
51034W        W17575   5.912  43.470   4.603
51035W        W17576  31.463  19.312   2.150
51036W        W17577  11.896   0.360  12.397
51037W        W17578  25.260  39.394   1.795
51038W        W17579   9.768  35.295   3.642
51039W        W17580  29.988  18.342   3.705
51040W        W17581   1.016  37.597   3.687
51041W        W17582  16.775  24.265   0.889
51042W        W17583  39.108  17.660   2.999
51043W        W17584  37.837  16.430   9.808
51044W        W17585  17.979  33.504   3.444
51045W        W17586  35.127  25.093  13.514
51046W        W17587  10.246  22.110  14.818
51047W        W17588  44.751   5.482  14.916
51048W        W17589  19.719  13.034   0.922
51049W        W17590  13.836   7.274  11.009
51050W        W17591  33.967  32.726  11.618
51051W        W17592  20.513  33.517   0.512
51052W        W17593  28.374   5.815  14.017
51053W        W17594  10.681  19.943  10.755
51054W        W17595  43.387  15.776  12.136
51055W        W17596  23.133  41.120  13.338
51056W        W17597  25.510  14.837  12.834
51057W        W17598   3.346   6.806   1.380
51058W        W17599  31.753  26.432   2.235
51059W        W17600  38.935   2.729  14.407
51060W        W17601  39.348  32.676  14.087
51061W        W17602  39.272  12.256  14.998
51062W        W17603  20.779  18.079   2.959
51063W        W17604  10.857   0.363   0.323
51064W        W17605  30.200  42.871   2.963
51065W        W17606  34.344  13.235  12.847
51066W        W17607  28.363   6.448   2.312
51067W        W17608  27.927  43.426  12.407
51068W        W17609  11.671  33.590  10.654
51069W        W17610   0.426  24.525   0.803
51070W        W17611  17.854  13.852  12.206
51071W        W17612   4.285  22.286   0.055
51072W        W17613  26.619  36.169  12.882
51073W        W17614  24.013   3.317  14.547
51074W        W17615  13.827  41.520  13.409
51075W        W17616   1.707  12.247   2.284
51076W        W17617  33.344  37.129  13.066
51077W        W17618  30.064  25.674   2.239
51078W        W17619  20.233  14.231   0.885
51079W        W17620   9.377   3.275  12.111
51080W        W17621   7.486  19.092  11.194
51081W        W17622  27.977   2.598  10.178
51082W        W17623   3.914  36.485  13.826
51083W        W17624  21.100  30.267  12.898
51084W        W17625  14.278  32.466  13.129
51085W        W17626  16.877   9.317  13.001
51086W        W17627   3.660  29.918   2.543
51087W        W17628  42.800   1.717  11.626
51088W        W17629  27.913  39.186  14.030
51089W        W17630  28.895  35.969   1.241
51090W        W17631   4.929  40.881  12.697
51091W        W17632  44.283  25.149   0.726
51092W        W17633   2.794  22.683   2.275
51093W        W17634  33.811  27.662   4.091
51094W        W17635   3.622  28.535   3.881
51095W        W17636  40.168  17.610  11.767
51096W        W17637  30.878  19.021   2.870
51097W        W17638  42.787   2.450   4.048
51098W        W17639   8.432  24.683  12.411
51099W        W17640  34.905  37.424   1.519
51100W        W17641  34.205  17.273   0.760
51101W        W17642  34.189  15.272   3.283
51102W        W17643  42.209  21.748   1.032
51103W        W17644  22.065  34.898  14.688
51104W        W17645   7.104  11.791   3.197
51105W        W17646  35.471  10.738  13.588
51106W        W17647  22.089  29.189  11.512
51107W        W17648  36.593  29.758  12.537
51108W        W17649  20.233  17.756   2.247
51109W        W17650  29.685   3.301   4.975
51110W        W17651  35.400  36.910  10.720
51111W        W17652   2.185   2.422   0.340
51112W        W17653  42.004   0.041  13.586
51113W        W17654  35.193  41.037   0.427
51114W        W17655  26.509  40.212  14.026
51115W        W17656  23.786  12.719   4.513
51116W        W17657  23.750  34.619  14.727
51117W        W17658  23.677  30.430   2.637
51118W        W17659  43.379  11.399  12.835
51119W        W17660   4.719  10.160  13.288
51120W        W17661  33.311  28.486  11.905
51121W        W17662  42.036   7.140  11.561
51122W        W17663  16.642  12.297  11.057
51123W        W17664  40.820   9.075   2.756
51124W        W17665   5.862   1.273  10.399
51125W        W17666  13.780  42.864  11.824
51126W        W17667  13.303  44.472  13.924
51127W        W17668  37.133  15.940   4.858
51128W        W17669  12.886  15.286   2.374
51129W        W17670  18.594  43.524   2.952
51130W        W17671   6.208  14.998   1.340
51131W        W17672  24.294  21.170  14.437
51132W        W17673   3.345   0.311   5.231
51133W        W17674  36.983  38.786   2.641
51134W        W17675  17.456   0.008   1.727
51135W        W17676  31.987  28.430  13.984
51136W        W17677  12.330   6.200  10.658
51137W        W17678  28.406  22.364  12.693
51138W        W17679   1.512  28.621  14.925
51139W        W17680   2.235  18.584   0.631
51140W        W17681  19.191  27.429   1.638
51141W        W17682  23.985  21.245  11.231
51142W        W17683   0.490  35.872  13.909
51143W        W17684  20.133  32.592   1.392
51144W        W17685  12.347   8.921   0.856
51145W        W17686  29.797  39.849   3.932
51146W        W17687  10.182  31.476   2.176
51147W        W17688  43.477  32.005  11.115
51148W        W17689  31.828  34.314   2.115
51149W        W17690  17.721  25.082  11.547
51150W        W17691  17.293  34.728  11.651
51151W        W17692  17.817  23.733  11.378
51152W        W17693  25.712  22.278  13.864
51153W        W17694  15.414  37.519  14.964
51154W        W17695  22.115  21.167   4.773
51155W        W17696  15.224  26.978  12.214
51156W        W17697  22.047   9.436  10.555
51157W        W17698  27.160   3.878   4.361
51158W        W17699  35.098  23.961   0.222
51159W        W17700  12.645  16.458  11.573
51160W        W17701   8.239  11.596  11.057
51161W        W17702   2.243  33.024  14.808
51162W        W17703  27.166  29.263  14.764
51163W        W17704   6.242   9.476  11.457
51164W        W17705  33.584  18.328  12.043
51165W        W17706   6.952  10.910  12.827
51166W        W17707  22.288  37.134  14.719
51167W        W17708   8.705  37.380   0.904
51168W        W17709  43.770  36.867   0.634
51169W        W17710   9.641  40.050  11.077
51170W        W17711  38.305  34.444  10.722
51171W        W17712  22.714  13.099  10.763
51172W        W17713  17.310  10.186  10.550
51173W        W17714  36.015  11.650   2.679
51174W        W17715  21.957  19.097  13.884
51175W        W17716   4.820  43.712   2.261
51176W        W17717  35.370  16.169  12.102
51177W        W17718  14.836  15.820  13.458
51178W        W17719  20.199  43.566  14.508
51179W        W17720  31.119  27.243  14.587
51180W        W17721  37.434  20.626   1.049
51181W        W17722  27.760  14.698   9.997
51182W        W17723  20.192  16.988   0.335
51183W        W17724   6.870   1.090  11.574
51184W        W17725   0.918  17.659  12.064
51185W        W17726  22.154  21.810  13.746
51186W        W17727   8.276  40.116  13.543
51187W        W17728   1.929  33.904  10.753
51188W        W17729  30.590  22.543   3.322
51189W        W17730  11.915  18.016  11.608
51190W        W17731  10.585  19.593  14.909
51191W        W17732  13.211   2.882  10.618
51192W        W17733   1.827  32.458   3.480
51193W        W17734  20.719  22.958   4.214
51194W        W17735  38.643   9.811   4.693
51195W        W17736   7.145  10.803   1.024
51196W        W17737  29.578  25.269   0.322
51197W        W17738  44.900  35.572  14.916
51198W        W17739   1.582  16.499   2.844
51199W        W17740  31.920  21.907  10.688
51200W        W17741  44.190  37.182   4.938
51201W        W17742   7.727  41.422   0.912
51202W        W17743  25.537   4.246  11.468
51203W        W17744  44.771  19.484   5.084
51204W        W17745  32.930  18.158  11.464
51205W        W17746  41.914   2.009   0.789
51206W        W17747  11.835  36.812  13.464
51207W        W17748   8.241  26.064   0.986
51208W        W17749  43.739  13.348  11.135
51209W        W17750  44.234  28.724   1.219
51210W        W17751  28.894   9.303   4.607
51211W        W17752  15.267  18.753  13.412
51212W        W17753   4.406  25.000  12.991
51213W        W17754  25.236   0.809   2.756
51214W        W17755  13.076  15.122   4.408
51215W        W17756  42.598  10.224   1.796
51216W        W17757   6.267  11.717   4.923
51217W        W17758  43.814   3.303   0.553
51218W        W17759  37.298  11.369   4.264
51219W        W17760  21.913   1.444  13.009
51220W        W17761  29.380  11.890   1.354
51221W        W17762  38.888  18.333   2.290
51222W        W17763  12.201  25.122   0.015
51223W        W17764  33.357  35.143  13.775
51224W        W17765  23.768  10.139   3.695
51225W        W17766  42.971  24.069   1.222
51226W        W17767  33.114  41.313  12.900
51227W        W17768  36.959  10.256  14.974
51228W        W17769  32.730  40.541  14.328
51229W        W17770   8.732  21.866  12.484
51230W        W17771   0.494   7.217   0.302
51231W        W17772  32.045  39.411  10.644
51232W        W17773   6.431  22.722  11.613
51233W        W17774  31.778   1.961  11.519
51234W        W17775  15.204  19.016   3.614
51235W        W17776  26.900  27.017   3.281
51236W        W17777   4.688  34.776  11.465
51237W        W17778  41.493  28.145   0.012
51238W        W17779  10.853  29.251   1.576
51239W        W17780  23.465   8.450  10.324
51240W        W17781  40.103   6.870   1.689
51241W        W17782  37.083  11.471   2.796
51242W        W17783  28.943   3.793   0.060
51243W        W17784  10.830  32.312  12.116
51244W        W17785  11.189  36.486   4.452
51245W        W17786   9.902   0.804   3.095
51246W        W17787   5.171  26.573   3.155
51247W        W17788   1.236  14.654   1.549
51248W        W17789  22.963  23.190   2.850
51249W        W17790  17.117  18.582   3.830
51250W        W17791  34.532  15.133  14.627
51251W        W17792  28.586  21.235  14.623
51252W        W17793   1.999  27.947   3.813
51253W        W17794  21.452  41.947   0.214
51254W        W17795  30.061   9.654  13.869
51255W        W17796  17.622  23.139  12.024
51256W        W17797  24.411  10.987  14.472
51257W        W17798  36.440  22.196  11.769
51258W        W17799  22.753  41.067   1.856
51259W        W17800  33.341  16.954  10.448
51260W        W17801  34.420  24.595  13.602
51261W        W17802  44.973  37.005   3.334
51262W        W17803  30.937  33.367  13.293
51263W        W17804  35.324   1.093  11.734
51264W        W17805  38.322  12.594   2.707
51265W        W17806  18.040  33.046  11.834
51266W        W17807  31.702   3.297  13.303
51267W        W17808  32.494  36.704  13.910
51268W        W17809  30.801   9.357  12.452
51269W        W17810   2.457   8.417   0.349
51270W        W17811   9.835  34.833   3.881
51271W        W17812  41.925  27.931   1.364
51272W        W17813  21.230  16.339  13.377
51273W        W17814  16.211   0.817  12.102
51274W        W17815  14.883   6.844   4.771
51275W        W17816   3.839  33.178  11.646
51276W        W17817  18.985  18.234   4.797
51277W        W17818  11.939  39.574  14.844
51278W        W17819  24.605  32.641   2.313
51279W        W17820   5.888  15.193  14.598
51280W        W17821   7.901  21.511   0.417
51281W        W17822   8.388  14.747   1.410
51282W        W17823   0.218   9.439  14.972
51283W        W17824  16.284  33.337  14.933
51284W        W17825  21.530  28.912  12.959
51285W        W17826  25.486  39.257   4.921
51286W        W17827  44.693  36.958  11.635
51287W        W17828   3.356  11.799  11.360
51288W        W17829  15.411  36.448  11.623
51289W        W17830  11.815   6.265  14.375
51290W        W17831  32.916  40.001  11.274
51291W        W17832  39.124  30.555   2.224
51292W        W17833  39.479  34.491  14.472
51293W        W17834  44.443   6.465  14.387
51294W        W17835  40.612  25.493  14.815
51295W        W17836  16.551  22.647   4.708
51296W        W17837  30.500   3.365   4.660
51297W        W17838   4.079  43.173  10.130
51298W        W17839  34.312  11.995  11.275
51299W        W17840   9.420   5.961   0.361
51300W        W17841  38.453   0.453   0.082
51301W        W17842  34.055   7.908   4.898
51302W        W17843  40.502  25.721   0.951
51303W        W17844  17.629  35.079   0.244
51304W        W17845  19.868  26.161   3.771
51305W        W17846  24.586  38.489   2.450
51306W        W17847  30.561  40.366   1.005
51307W        W17848   2.762   5.817  13.998
51308W        W17849  11.992  33.866  11.928
51309W        W17850  19.640  17.844   4.890
51310W        W17851  27.083  12.703  10.621
51311W        W17852  11.150  35.936   1.872
51312W        W17853  43.784  31.568   4.743
51313W        W17854  40.984  16.068   3.065
51314W        W17855  44.477   3.768   4.575
51315W        W17856  11.517  38.624   0.788
51316W        W17857  15.868  37.768   1.686
51317W        W17858  41.337  21.410   1.005
51318W        W17859  13.833  44.025   4.328
51319W        W17860  13.416  16.289  12.378
51320W        W17861   2.270  29.533   3.530
51321W        W17862  18.208  24.185   0.363
51322W        W17863  11.673  37.536   3.264
51323W        W17864  12.376  18.620  10.981
51324W        W17865  34.195  11.493  13.311
51325W        W17866  38.837  29.672   2.133
51326W        W17867  19.965   8.278  11.080
51327W        W17868  22.674  19.253   0.883
51328W        W17869  38.812  29.789   1.631
51329W        W17870   6.915   6.887  14.503
51330W        W17871   7.790  14.745   2.572
51331W        W17872  16.613  41.141   4.368
51332W        W17873   1.980  35.102  10.685
51333W        W17874  33.132  40.447   0.641
51334W        W17875  10.347   8.483   2.402
51335W        W17876  42.370  17.785  13.096
51336W        W17877  33.829  12.700  10.248
51337W        W17878  17.345   6.814  13.404
51338W        W17879  17.356  35.562   4.074
51339W        W17880  40.030  33.550  14.879
51340W        W17881  17.358  13.058   3.631
51341W        W17882  30.423  37.749   2.301
51342W        W17883  19.552  23.980   0.969
51343W        W17884  26.132  16.253  12.907
51344W        W17885  25.114  11.307   3.688
51345W        W17886  35.774  36.852  14.894
51346W        W17887  29.428  10.120   1.404
51347W        W17888  12.143   5.211   3.184
51348W        W17889   8.424  25.882   4.066
51349W        W17890  25.672  36.537   0.705
51350W        W17891  13.711  33.442  11.820
51351W        W17892  11.747  39.031   1.052
51352W        W17893  32.443  17.499  11.114
51353W        W17894  15.592   0.838  11.621
51354W        W17895   8.509  37.748  12.024
51355W        W17896  14.686  33.203  12.029
51356W        W17897  29.085  44.968  12.015
51357W        W17898  41.318  41.679  11.985
51358W        W17899  32.929  21.762  13.471
51359W        W17900  10.163  20.578   1.371
51360W        W17901   3.192  27.204   0.031
51361W        W17902  33.557   5.171  10.291
51362W        W17903   1.836   8.640  14.265
51363W        W17904   8.454  10.271  10.737
51364W        W17905   0.314  27.855   0.373
51365W        W17906  22.179  18.079  12.297
51366W        W17907  30.012   0.480  13.831
51367W        W17908   2.495  43.412  10.684
51368W        W17909  20.429  32.095  11.022
51369W        W17910   8.177  23.160  12.360
51370W        W17911   5.463  29.152   3.866
51371W        W17912  12.646  37.282  14.244
51372W        W17913  24.076  33.907  13.396
51373W        W17914   4.423   4.827  11.989
51374W        W17915  11.761  25.482   3.450
51375W        W17916  13.412  40.320   0.515
51376W        W17917   2.654  31.853  12.106
51377W        W17918  41.239  42.245  11.112
51378W        W17919  11.312   4.489  14.547
51379W        W17920   6.010  27.927   3.229
51380W        W17921  35.662  43.775   3.189
51381W        W17922  12.116  33.207   0.496
51382W        W17923  18.870   7.197   4.511
51383W        W17924  31.408   8.419  14.985
51384W        W17925   5.329  37.402  11.571
51385W        W17926  18.641  19.104   0.190
51386W        W17927  30.299   8.795   1.632
51387W        W17928   8.147   4.658  13.928
51388W        W17929  11.997  22.131  12.352
51389W        W17930  40.111  33.061   3.995
51390W        W17931   4.939  31.615   2.280
51391W        W17932   4.792  35.621  14.931
51392W        W17933  25.616  16.178  11.645
51393W        W17934  27.108   8.961   2.836
51394W        W17935  34.381   2.753   2.681
51395W        W17936   0.913  24.251   2.872
51396W        W17937  25.066   9.647  13.751
51397W        W17938  31.373  17.228   3.669
51398W        W17939  31.062  38.522  14.227
51399W        W17940  25.081  36.356   1.465
51400W        W17941  22.595  39.056  14.676
51401W        W17942  39.212  12.433  13.991
51402W        W17943  18.894  22.039   2.392
51403W        W17944  40.020  19.170  14.880
51404W        W17945  15.269  44.897   2.419
51405W        W17946   2.482  31.068  13.204
51406W        W17947  10.006   8.077   3.286
51407W        W17948  14.853  29.983   4.166
51408W        W17949  24.750  40.719  11.095
51409W        W17950  13.790  26.581  12.079
51410W        W17951   2.081   4.225  13.865
51411W        W17952  32.673  24.532   2.677
51412W        W17953  15.705   7.455  13.754
51413W        W17954  43.849  33.086   0.263
51414W        W17955  28.617  43.982  10.607
51415W        W17956  27.083  40.450   3.167
51416W        W17957   6.191  17.081  10.733
51417W        W17958  42.028  35.869  10.711
51418W        W17959  43.478  10.311   3.086
51419W        W17960   8.685   8.653   1.917
51420W        W17961  17.236   9.777   0.303
51421W        W17962  39.428  38.330   2.314
51422W        W17963  16.730  29.489  14.808
51423W        W17964  41.268  14.724   0.887
51424W        W17965  13.156  15.614  13.620
51425W        W17966  36.893  26.054   4.576
51426W        W17967  12.351  43.532   2.215
51427W        W17968  38.017  35.750  12.120
51428W        W17969  19.167  16.050   1.398
51429W        W17970   3.531  23.228  12.473
51430W        W17971  43.277  11.125   4.103
51431W        W17972  22.550  36.852   1.430
51432W        W17973  40.754  40.428  10.494
51433W        W17974  18.276  14.076   3.175
51434W        W17975  28.434  24.800   3.888
51435W        W17976  20.240   1.376  14.120
51436W        W17977  32.543  29.212   3.225
51437W        W17978  40.711  20.776  13.526
51438W        W17979   6.679  21.405  10.307
51439W        W17980   9.072  10.832  13.047
51440W        W17981  23.642   4.019  13.429
51441W        W17982   0.266   8.634   1.778
51442W        W17983   8.500  41.759  11.525
51443W        W17984   4.767  19.848   1.221
51444W        W17985  33.549  31.910   2.596
51445W        W17986   5.412  26.261   3.607
51446W        W17987  26.584  18.738   2.890
51447W        W17988   6.161  29.091   2.876
51448W        W17989  24.969  44.478  13.909
51449W        W17990  36.673   6.915  10.603
51450W        W17991  18.601   3.779  13.093
51451W        W17992  41.076  31.680   3.764
51452W        W17993  28.257  43.434   1.764
51453W        W17994  43.262  24.068   4.539
51454W        W17995  41.028  26.646  13.286
51455W        W17996  39.161  41.470   1.068
51456W        W17997  27.613  10.190   2.757
51457W        W17998  24.065  22.277   2.196
51458W        W17999  22.552   8.312  13.530
51459W        W18000  21.195   9.738  14.311
51460W        W18001  38.481  27.728   3.377
51461W        W18002  36.580  15.773  10.134
51462W        W18003   6.415  29.393  13.399
51463W        W18004  31.793  13.798   3.544
51464W        W18005   8.575   8.914  14.892
51465W        W18006  17.062   4.831   2.267
51466W        W18007   7.648  42.513  13.798
51467W        W18008  27.139  21.060   0.743
51468W        W18009  22.753  30.729   2.274
51469W        W18010  10.786  26.689   2.219
51470W        W18011  21.801  17.744   0.031
51471W        W18012   8.804  44.192  12.052
51472W        W18013  24.260   9.264  13.867
51473W        W18014  17.115   8.916   4.966
51474W        W18015  33.108   7.707   4.336
51475W        W18016  33.128   9.881  12.149
51476W        W18017  16.987  12.167  11.741
51477W        W18018  42.800  37.538  11.916
51478W        W18019   2.926   8.231   0.320
51479W        W18020  38.983  18.320  11.118
51480W        W18021  22.790  42.675  12.595
51481W        W18022   0.859  19.771   4.013
51482W        W18023   2.713  14.677   4.825
51483W        W18024  42.515   7.242  14.488
51484W        W18025  20.030  26.173  13.911
51485W        W18026   6.617  41.018   0.241
51486W        W18027  29.828  38.000  13.138
51487W        W18028  40.589   9.671  11.019
51488W        W18029  20.237  22.523   0.516
51489W        W18030   5.784   3.475   1.994
51490W        W18031  29.940  42.391  11.189
51491W        W18032   4.665  17.604   0.288
51492W        W18033  32.967  31.262   2.117
51493W        W18034  12.844  24.654   1.405
51494W        W18035  32.024  38.439   3.675
51495W        W18036  17.924  14.574   2.809
51496W        W18037  24.880  17.119  13.741
51497W        W18038  30.546  30.706   4.123
51498W        W18039  38.664  38.465   1.164
51499W        W18040  23.739  36.420  14.522
51500W        W18041  15.552  10.758  13.452
51501W        W18042   8.872  31.975   1.636
51502W        W18043  37.884  41.381   1.315
51503W        W18044  32.481  25.713   4.661
51504W        W18045  43.317  42.808  12.974
51505W        W18046  14.633  24.574   0.254
51506W        W18047  38.532   3.158   2.446
51507W        W18048  14.574   3.654   3.329
51508W        W18049  11.802  35.345   3.791
51509W        W18050  15.256  41.216   3.275
51510W        W18051  10.422  41.452   2.283
51511W        W18052  34.115  12.154   4.449
51512W        W18053  10.731  21.213  14.755
51513W        W18054  40.908  37.616   3.212
51514W        W18055  29.457  22.926  10.785
51515W        W18056  19.623   7.887   4.867
51516W        W18057  28.209   4.677  10.812
51517W        W18058   1.862  26.228   4.156
51518W        W18059  15.116  30.605   0.403
51519W        W18060  34.867  29.144   2.161
51520W        W18061  44.000  24.567  13.900
51521W        W18062  17.528   5.362  14.425
51522W        W18063   2.626  28.958   2.806
51523W        W18064  23.459  15.045  12.081
51524W        W18065   9.087  33.769   1.874
51525W        W18066  22.399  26.072  10.741
51526W        W18067  27.647   5.174   2.357
51527W        W18068   3.806   7.638   4.852
51528W        W18069  44.848  38.101  13.063
51529W        W18070  40.970  16.853  13.682
51530W        W18071  23.794  12.303  14.169
51531W        W18072  42.143  31.864  11.228
51532W        W18073  41.414  24.494  10.769
51533W        W18074  43.184   8.102  11.201
51534W        W18075  21.255  16.439  14.270
51535W        W18076  13.389  24.099   2.734
51536W        W18077  16.263   4.967   3.764
51537W        W18078   0.314   3.313   3.669
51538W        W18079  17.573  21.883  11.924
51539W        W18080   8.654   7.601  13.072
51540W        W18081  26.436  21.533   1.171
51541W        W18082  12.173  44.822  13.270
51542W        W18083  16.324  32.345   2.373
51543W        W18084  13.730  30.107   0.374
51544W        W18085   8.205  25.622  10.510
51545W        W18086  27.508  22.670   0.257
51546W        W18087   6.720  44.327  13.501
51547W        W18088   4.133  33.944   0.848
51548W        W18089  23.989  18.186   1.727
51549W        W18090  14.227  25.743  13.434
51550W        W18091  23.000  42.299  10.368
51551W        W18092  28.636  43.867  14.647
51552W        W18093  25.566  21.713  10.802
51553W        W18094   2.945  38.474   2.865
51554W        W18095  27.946  22.549  11.902
51555W        W18096  38.447  42.978  12.702
51556W        W18097  34.578  40.943  12.028
51557W        W18098  16.565  39.759  13.206
51558W        W18099  38.873  29.570  14.414
51559W        W18100  42.184  37.586   4.019
51560W        W18101   4.802  21.475   4.068
51561W        W18102  34.011  17.440  12.889
51562W        W18103  26.123   5.882   1.838
51563W        W18104   1.854   7.005   0.185
51564W        W18105  21.088  35.939  14.355
51565W        W18106  20.196  35.314   3.352
51566W        W18107  38.397  14.076   3.165
51567W        W18108  42.745  38.495  10.723
51568W        W18109  32.532  10.462   0.698
51569W        W18110  44.872  21.721  13.191
51570W        W18111  30.992  10.531   1.439
51571W        W18112   6.848   4.164  11.464
51572W        W18113  28.455   2.909   2.244
51573W        W18114  26.656  35.400  11.452
51574W        W18115  37.518  28.743  11.156
51575W        W18116   0.038  33.405  11.558
51576W        W18117  22.664  11.565   4.447
51577W        W18118  37.465  10.828   3.284
51578W        W18119  31.522  22.937   3.540
51579W        W18120  40.927  30.639  10.882
51580W        W18121  23.660  16.717  14.449
51581W        W18122  36.071   2.577   2.175
51582W        W18123  17.759  34.077  14.259
51583W        W18124  38.915   4.059   4.582
51584W        W18125  44.046  22.990  14.907
51585W        W18126  25.905  15.350  12.560
51586W        W18127  28.447  43.740   1.267
51587W        W18128  39.462  39.198   1.919
51588W        W18129  27.254  33.886   3.876
51589W        W18130  19.049  12.126   0.034
51590W        W18131  38.986  28.618   0.323
51591W        W18132   4.000  40.913  12.325
51592W        W18133   8.275  39.359   3.966
51593W        W18134  43.211   7.716  12.229
51594W        W18135  38.429  11.395   4.835
51595W        W18136   2.404   1.790   3.496
51596W        W18137  40.561  13.013  12.530
51597W        W18138  10.286  31.596  10.732
51598W        W18139  24.575  39.423  14.257
51599W        W18140  42.768  31.410  14.878
51600W        W18141  13.091  22.696   3.870
51601W        W18142  14.573   9.736   2.706
51602W        W18143  27.920  33.869   2.679
51603W        W18144  21.817   4.333  13.770
51604W        W18145  30.496  32.357   2.115
51605W        W18146  16.292  19.511   0.370
51606W        W18147  10.131  22.124   4.348
51607W        W18148  16.277  11.401   1.481
51608W        W18149  12.349  34.363  13.938
51609W        W18150  38.786  20.958   1.789
51610W        W18151  39.803  10.018  12.163
51611W        W18152  25.091  11.776  14.385
51612W        W18153  33.089  14.516  12.083
51613W        W18154  20.516   9.237   0.236
51614W        W18155   2.980  37.146   2.779
51615W        W18156  13.873  31.224  12.970
51616W        W18157  20.796  37.919  14.156
51617W        W18158  21.470   4.782   0.906
51618W        W18159  43.956  42.776   4.176
51619W        W18160   8.803  20.262   3.010
51620W        W18161  32.573  21.785   3.686
51621W        W18162  41.899  16.608   4.761
51622W        W18163  12.601   0.010  13.529
51623W        W18164   5.917  35.512   2.440
51624W        W18165  31.210  31.181   3.082
51625W        W18166  23.581  42.633   4.705
51626W        W18167  39.206  42.132   3.704
51627W        W18168  13.372   2.705   2.765
51628W        W18169  11.819  24.528   3.841
51629W        W18170   5.093  30.661   1.352
51630W        W18171   7.860  25.228   4.442
51631W        W18172  15.603  24.022   1.407
51632W        W18173   5.158   5.370  14.382
51633W        W18174  29.008  31.609   4.652
51634W        W18175  31.495   8.777   3.232
51635W        W18176  12.497   9.676   1.631
51636W        W18177  14.186  23.849  12.843
51637W        W18178  34.947  11.382  13.876
51638W        W18179  12.725  19.047   0.447
51639W        W18180  42.124  14.169  12.477
51640W        W18181   5.750  20.699   4.516
51641W        W18182  39.492  14.467  13.091
51642W        W18183  42.006  42.504  11.114
51643W        W18184  16.593  16.134  14.478
51644W        W18185  42.074  40.561   2.859
51645W        W18186   7.769  36.392   2.878
51646W        W18187  12.566  21.149  12.420
51647W        W18188  34.893  15.153  10.926
51648W        W18189   2.504   2.223  13.955
51649W        W18190   2.713   1.233  11.628
51650W        W18191  22.684  23.096   0.339
51651W        W18192  36.950  39.086  14.689
51652W        W18193  20.753  14.588   1.531
51653W        W18194  39.996  19.169   4.998
51654W        W18195  12.403  32.918  12.316
51655W        W18196  27.994  16.699  13.362
51656W        W18197   3.233  22.124  11.578
51657W        W18198  24.080  28.206  13.817
51658W        W18199   7.090  30.115   0.327
51659W        W18200   6.405  19.467   0.392
51660W        W18201  23.998   3.085   1.013
51661W        W18202  43.375   8.474   2.585
51662W        W18203  29.533  44.364   2.145
51663W        W18204   3.970  44.514  12.084
51664W        W18205  23.433  16.237  11.514
51665W        W18206  23.038  16.698   2.816
51666W        W18207  11.522  34.535  12.409
51667W        W18208  32.438  28.208  13.805
51668W        W18209   4.466  15.940   4.229
51669W        W18210  17.069   4.462   1.863
51670W        W18211  21.479  14.290  13.631
51671W        W18212  10.496   2.334   5.115
51672W        W18213  16.761  20.666   1.075
51673W        W18214  32.018  13.457   1.505
51674W        W18215  21.045   5.731   1.502
51675W        W18216  24.643  21.458   4.619
51676W        W18217   8.939  10.669  11.253
51677W        W18218  15.724  32.855  12.521
51678W        W18219  40.493  23.377  12.513
51679W        W18220  42.414  27.035   1.279
51680W        W18221  15.123  35.548  11.452
51681W        W18222  33.571  30.741   0.288
51682W        W18223   6.796   5.110  10.155
51683W        W18224  11.985  10.733  14.670
51684W        W18225  10.333  26.656  12.400
51685W        W18226  33.791  35.557   0.352
51686W        W18227  28.862  33.871   4.174
51687W        W18228  42.570  38.792  12.526
51688W        W18229  17.289  44.969   3.617
51689W        W18230  44.925  34.094  12.130
51690W        W18231   3.856  39.098  10.099
51691W        W18232  13.638   5.363  13.373
51692W        W18233  23.114  30.072  11.641
51693W        W18234  10.208  33.100   1.580
51694W        W18235   5.711  42.898   3.868
51695W        W18236  24.018  16.276   2.777
51696W        W18237   7.347  38.118   4.473
51697W        W18238  16.681  10.622  11.677
51698W        W18239  14.168   1.721  14.303
51699W        W18240  40.064  10.338   2.810
51700W        W18241   2.992  38.931  11.647
51701W        W18242  29.806  11.193  12.987
51702W        W18243   6.226  18.752   1.795
51703W        W18244  14.599  36.129   2.834
51704W        W18245  26.472  33.086   4.702
51705W        W18246   4.823  16.568  12.070
51706W        W18247  13.371  10.303   2.319
51707W        W18248  42.583   6.375  10.629
51708W        W18249  19.697   4.663   2.807
51709W        W18250  15.502  32.112   2.279
51710W        W18251  28.391  13.857  11.603
51711W        W18252  41.447  16.629   4.240
51712W        W18253  33.992  39.585   0.133
51713W        W18254  37.546  22.704   1.288
51714W        W18255  14.147   8.918  11.144
51715W        W18256  22.300   2.181  12.662
51716W        W18257  13.326  20.156   3.379
51717W        W18258   0.310  14.067  13.430
51718W        W18259  33.778   8.348   4.781
51719W        W18260  25.991  38.540   1.340
51720W        W18261  16.895  14.633   2.699
51721W        W18262   9.445  31.366   0.747
51722W        W18263  38.579  29.970   1.204
51723W        W18264  31.901  43.882  12.837
51724W        W18265   5.992  16.322   3.045
51725W        W18266  44.403  14.742   4.051
51726W        W18267  19.898  37.401   1.413
51727W        W18268  15.227   1.565  11.503
51728W        W18269   6.847  28.569   0.266
51729W        W18270  40.843  42.987   1.799
51730W        W18271  44.299   7.895   4.350
51731W        W18272  15.208  15.734   1.656
51732W        W18273  31.586   5.886  13.329
51733W        W18274  41.864  32.851  12.526
51734W        W18275  30.467  31.042   0.775
51735W        W18276  21.109   7.742   4.045
51736W        W18277  12.516  25.483   1.780
51737W        W18278  37.313   3.882   0.277
51738W        W18279  20.008   3.688  12.286
51739W        W18280   3.407   0.768   9.846
51740W        W18281  37.068   8.938  14.966
51741W        W18282  12.744  17.492   4.637
51742W        W18283  43.779  32.395  14.855
51743W        W18284  44.012   5.754   4.151
51744W        W18285   5.524  29.333   1.794
51745W        W18286   3.125  24.142   4.038
51746W        W18287   4.258  38.972  13.123
51747W        W18288  39.448  39.447  12.987
51748W        W18289   7.840  13.593  11.486
51749W        W18290  42.439  16.435  12.643
51750W        W18291  33.897   5.853   2.571
51751W        W18292   7.816  20.170   4.315
51752W        W18293  28.685   3.029  11.144
51753W        W18294  11.045  13.854   0.800
51754W        W18295  25.635  10.951   4.554
51755W        W18296  27.690  28.125  11.617
51756W        W18297  26.223  41.628  12.568
51757W        W18298   0.500  44.774  14.278
51758W        W18299  20.787  34.829  11.653
51759W        W18300  11.263  10.107   1.238
51760W        W18301   9.897   2.734  11.150
51761W        W18302   9.617  37.429   3.563
51762W        W18303  43.737   7.695   3.446
51763W        W18304  16.759   7.690  14.535
51764W        W18305  13.590   9.035  14.333
51765W        W18306  24.272  41.969   1.650
51766W        W18307  29.652   5.855  12.824
51767W        W18308  37.786   7.174   3.704
51768W        W18309   5.997  24.918  11.599
51769W        W18310   9.715  13.214  11.666
51770W        W18311   9.049   2.374   1.197
51771W        W18312  30.918   2.493  13.858
51772W        W18313  15.106  31.716   2.282
51773W        W18314  40.656  13.770   1.399
51774W        W18315   8.720  36.034  12.368
51775W        W18316   9.153  18.177   3.215
51776W        W18317  18.073  36.297   4.133
51777W        W18318  26.092  15.505   0.317
51778W        W18319  16.555  10.420   2.114
51779W        W18320   0.964  13.225   2.144
51780W        W18321  25.446   1.859  10.697
51781W        W18322  41.392  12.687   3.165
51782W        W18323  24.331   3.513   2.142
51783W        W18324  36.154  26.497   4.735
51784W        W18325  23.086  11.649   1.049
51785W        W18326  34.514  18.802  12.055
51786W        W18327  19.064  37.503  14.866
51787W        W18328  11.817  31.005  13.880
51788W        W18329   3.305  38.699  12.405
51789W        W18330   2.434  18.218   0.249
51790W        W18331  17.364  18.182   5.086
51791W        W18332  14.472  24.994   4.549
51792W        W18333   8.188  30.030   3.189
51793W        W18334  31.775   2.267  11.097
51794W        W18335  27.194  35.940   1.572
51795W        W18336   2.257   1.971  12.582
51796W        W18337  42.192  39.762   3.243
51797W        W18338  28.696  18.621   2.659
51798W        W18339   6.340  22.728   0.851
51799W        W18340  15.408  36.093  13.014
51800W        W18341  38.019  20.319   4.498
51801W        W18342  43.954   3.014  13.948
51802W        W18343  31.844  24.273   1.773
51803W        W18344  22.230  32.108  14.791
51804W        W18345  18.714  18.310   1.719
51805W        W18346  44.147  25.682   4.887
51806W        W18347   8.423  42.121  14.411
51807W        W18348  12.153  26.949   4.114
51808W        W18349  24.664  17.234   0.323
51809W        W18350  32.452  32.273  11.942
51810W        W18351  33.056  32.141   2.347
51811W        W18352  32.463   9.453  14.860
51812W        W18353   7.339  20.608   2.583
51813W        W18354  42.594  38.788  14.805
51814W        W18355  22.752  11.008   4.375
51815W        W18356  19.921  32.528  13.819
51816W        W18357  12.859   2.288  11.495
51817W        W18358   6.758  37.246   4.614
51818W        W18359  23.831  28.853   0.772
51819W        W18360  28.190   1.246   3.274
51820W        W18361   0.573  25.652  14.793
51821W        W18362   7.338  12.083   2.813
51822W        W18363  10.505  35.229  10.841
51823W        W18364  22.510  37.618  14.771
51824W        W18365  39.238  21.278   1.656
51825W        W18366  39.942  21.398  12.127
51826W        W18367   3.880  12.359  14.906
51827W        W18368   0.703   5.327  13.426
51828W        W18369   5.794   9.688   2.344
51829W        W18370   0.989  36.461   2.343
51830W        W18371  13.812  44.869   3.523
51831W        W18372  29.680  14.376   0.035
51832W        W18373   7.238   1.708   5.415
51833W        W18374  21.799  39.890  11.895
51834W        W18375   0.312  10.222   0.455
51835W        W18376  20.770  32.109   3.077
51836W        W18377  34.453  11.861  13.581
51837W        W18378  36.159   7.160  12.031
51838W        W18379  13.927  20.713   0.966
51839W        W18380  28.445  13.124  14.023
51840W        W18381  32.475  39.996   3.339
51841W        W18382  28.661  16.419  10.614
51842W        W18383  33.609   4.492  10.441
51843W        W18384  28.436  26.698   4.204
51844W        W18385   4.464  17.176   2.709
51845W        W18386   2.288  40.720  13.018
51846W        W18387  13.515  20.908  14.244
51847W        W18388  17.803  29.868   1.798
51848W        W18389  20.566  20.576  14.316
51849W        W18390  19.342   9.155   2.596
51850W        W18391  26.512   4.810  10.705
51851W        W18392  14.149  27.637   0.745
51852W        W18393  26.625  39.977  14.954
51853W        W18394  17.218  32.442   2.257
51854W        W18395  19.770  11.031  14.738
51855W        W18396  36.785  22.747   3.269
51856W        W18397  41.321  31.376   4.700
51857W        W18398   2.260  21.706   3.409
51858W        W18399  44.504  10.052   4.499
51859W        W18400  14.632  28.380  14.250
51860W        W18401  43.797  25.972  12.635
51861W        W18402  26.774  25.538  13.409
51862W        W18403  40.740  22.626  10.618
51863W        W18404   5.778  24.613  12.818
51864W        W18405  40.474   4.494  10.723
51865W        W18406  19.347  36.112   0.333
51866W        W18407   8.250  23.022  10.944
51867W        W18408   4.973  23.052  10.712
51868W        W18409  15.128   0.865  10.970
51869W        W18410  22.531   0.639   2.768
51870W        W18411  17.166   9.419  13.492
51871W        W18412  17.150   7.099  10.279
51872W        W18413  34.640  28.082  11.869
51873W        W18414   4.411  19.592  13.880
51874W        W18415  37.830   6.685  14.342
51875W        W18416  44.757  24.612   2.442
51876W        W18417  26.095  10.658   3.843
51877W        W18418  25.060   0.387   0.749
51878W        W18419  38.897  37.449   1.861
51879W        W18420  36.341  43.427   3.207
51880W        W18421   3.146   1.892   1.034
51881W        W18422   8.955  24.613   3.910
51882W        W18423  19.477  18.154  10.243
51883W        W18424   2.273  24.572  11.108
51884W        W18425  10.188  33.110   2.088
51885W        W18426  14.929   2.059  13.721
51886W        W18427  35.426  38.412   3.740
51887W        W18428  27.767  22.821  11.493
51888W        W18429  13.083  23.826   1.289
51889W        W18430  41.062  43.532   0.964
51890W        W18431  42.799  38.255   0.286
51891W        W18432  25.995  27.121   2.641
51892W        W18433  32.974   9.759  11.276
51893W        W18434  11.263  14.492   2.211
51894W        W18435   2.660   5.548  12.045
51895W        W18436   2.757  31.913   1.857
51896W        W18437  25.251  26.180  12.047
51897W        W18438   7.959  41.343   0.464
51898W        W18439  18.611  31.018   0.644
51899W        W18440   8.696   6.936  12.566
51900W        W18441  13.364  39.944  14.914
51901W        W18442  32.084  20.788  14.469
51902W        W18443  10.833  10.282  13.418
51903W        W18444  10.083  30.663   1.228
51904W        W18445   7.331  37.058   0.064
51905W        W18446  27.770  44.046   3.264
51906W        W18447   6.119  43.619   2.841
51907W        W18448  19.314  37.005   4.113
51908W        W18449   1.900  16.808   2.589
51909W        W18450   4.864  23.121  13.011
51910W        W18451  30.233  21.225  14.340
51911W        W18452  18.270   0.719   1.241
51912W        W18453  12.328   5.842  13.078
51913W        W18454  38.073   5.885   4.034
51914W        W18455  16.119  44.783  11.108
51915W        W18456   4.634  37.881   1.240
51916W        W18457  40.527  13.858  12.033
51917W        W18458  34.610  19.045  14.745
51918W        W18459  10.771  43.987   2.136
51919W        W18460  17.182  14.044  13.755
51920W        W18461  20.691  12.179   0.875
51921W        W18462   9.850  38.854  13.907
51922W        W18463  32.457  10.260  10.711
51923W        W18464   4.800  41.074  10.243
51924W        W18465  30.897  20.360  14.494
51925W        W18466  34.399   7.922   4.089
51926W        W18467  37.177  27.367  14.394
51927W        W18468  17.522   7.481  14.941
51928W        W18469  36.323  31.908   2.205
51929W        W18470  18.127  24.648   3.368
51930W        W18471  12.901  17.994   0.004
51931W        W18472  18.674  11.864   3.017
51932W        W18473   5.015   1.916  13.540
51933W        W18474  44.911  44.483  11.515
51934W        W18475  40.023  21.210   1.003
51935W        W18476  40.917   3.942   0.528
51936W        W18477  18.493  18.536  12.174
51937W        W18478  34.261  42.287   2.188
51938W        W18479  34.945  44.892   3.206
51939W        W18480  37.486  20.753   0.032
51940W        W18481  12.058  34.915   2.649
51941W        W18482   6.640  41.776   3.724
51942W        W18483   0.703  24.740   3.651
51943W        W18484  27.933  29.621  14.724
51944W        W18485  21.117  30.948   4.660
51945W        W18486  40.318  44.970   1.198
51946W        W18487  19.833  25.929   0.496
51947W        W18488  25.545  40.339  12.688
51948W        W18489  22.445  32.514  10.222
51949W        W18490  44.521  38.846  11.631
51950W        W18491   9.447  40.027   2.662
51951W        W18492  26.167  10.376  10.690
51952W        W18493  35.838  10.457  10.679
51953W        W18494  28.614  14.066  12.011
51954W        W18495   0.479  22.462  14.358
51955W        W18496   8.410  40.626  13.456
51956W        W18497  28.607  16.547  13.106
51957W        W18498  41.956  20.332  13.409
51958W        W18499  42.818  26.736   1.064
51959W        W18500  33.707  16.196   2.201
51960W        W18501  41.085  27.908  11.983
51961W        W18502   4.343   3.352   1.509
51962W        W18503  37.659  35.924  10.744
51963W        W18504  38.073  39.276   2.347
51964W        W18505  14.172  28.924  14.773
51965W        W18506  20.131  31.381   0.866
51966W        W18507  37.326  16.131  10.676
51967W        W18508  43.572  10.187  14.197
51968W        W18509  28.508  37.033   5.039
51969W        W18510  34.692   8.474   0.002
51970W        W18511  19.063  41.200  13.488
51971W        W18512  12.938  20.124   3.740
51972W        W18513  18.967  39.857  12.042
51973W        W18514  35.005  20.936   2.739
51974W        W18515  36.629  10.937  12.002
51975W        W18516   8.589  34.374   9.811
51976W        W18517  20.645   0.261  12.812
51977W        W18518  10.367  18.092  12.418
51978W        W18519  43.174  26.083   0.749
51979W        W18520  20.663  20.103   4.199
51980W        W18521  17.043  24.211  14.277
51981W        W18522  39.498   1.330  11.518
51982W        W18523  40.264  16.260  10.176
51983W        W18524  11.201  42.903  13.606
51984W        W18525  16.542   1.213   1.810
51985W        W18526  22.480   6.285  14.423
51986W        W18527   7.218   0.790  14.730
51987W        W18528  33.593  15.789   3.899
51988W        W18529  39.778  30.437  12.384
51989W        W18530  32.143   9.752  11.832
51990W        W18531  23.845  21.731   4.296
51991W        W18532  36.563  17.904   3.161
51992W        W18533  21.912   3.335  12.232
51993W        W18534   1.041  41.577  14.867
51994W        W18535  14.351  29.383  12.888
51995W        W18536  39.654  42.992   2.382
51996W        W18537  30.539  33.530  10.440
51997W        W18538  37.278   7.373   3.627
51998W        W18539   9.792   5.867   3.298
51999W        W18540  24.183  15.894  11.221
52000W        W18541  35.172  17.584  13.918
52001W        W18542  22.987  20.944   1.252
52002W        W18543   5.240  18.121  13.994
52003W        W18544  27.305  18.019  11.273
52004W        W18545  18.564   0.214   0.793
52005W        W18546  29.684  18.416  14.468
52006W        W18547  43.304  37.604   2.221
52007W        W18548  10.896  18.290   3.736
52008W        W18549  39.340  35.707  11.533
52009W        W18550  18.317  35.294   4.226
52010W        W18551  14.926  34.452   5.188
52011W        W18552  22.106  27.923   0.845
52012W        W18553  26.224  31.167   3.774
52013W        W18554  18.441  25.444   5.020
52014W        W18555   0.917  24.106   2.372
52015W        W18556  14.825  44.500   3.246
52016W        W18557  39.872  36.984  13.533
52017W        W18558   3.952   9.825   1.246
52018W        W18559  25.643  34.431  12.354
52019W        W18560  43.274  42.221   3.271
52020W        W18561  14.654  16.264   4.505
52021W        W18562  30.114   6.183   0.473
52022W        W18563  13.125  44.271  13.456
52023W        W18564  15.566  20.832  13.359
52024W        W18565   7.928   7.032   2.306
52025W        W18566  31.481   2.264  10.599
52026W        W18567  31.457  35.737  12.036
52027W        W18568   9.573  33.991   1.782
52028W        W18569  23.636   0.959  12.060
52029W        W18570  23.195  29.574  12.926
52030W        W18571  40.340  16.741   3.552
52031W        W18572  10.404  25.046   4.943
52032W        W18573  11.750  16.613   4.728
52033W        W18574  30.644   6.807  13.499
52034W        W18575   5.071   9.872  13.002
52035W        W18576   3.241  26.250   1.100
52036W        W18577   3.939   5.165   2.866
52037W        W18578  17.302  17.916   0.567
52038W        W18579   9.642  13.411   2.855
52039W        W18580   0.780  32.133   0.856
52040W        W18581  33.454  29.478   4.134
52041W        W18582  38.948  19.211   4.894
52042W        W18583  33.921  33.964  11.717
52043W        W18584  28.145  38.048   1.005
52044W        W18585  25.927  16.777  10.541
52045W        W18586   1.483  14.032  13.914
52046W        W18587   9.650  40.391  14.525
52047W        W18588  22.688  28.076   3.845
52048W        W18589  25.474  17.574  13.023
52049W        W18590  41.351  23.055   1.892
52050W        W18591  32.150  16.395  12.018
52051W        W18592   1.255  25.226   0.268
52052W        W18593   8.766  15.024   0.771
52053W        W18594   8.570  16.043  11.148
52054W        W18595  34.580  41.439  11.795
52055W        W18596  12.616  32.654  13.252
52056W        W18597  41.917   9.350   2.203
52057W        W18598   5.003  19.300   2.679
52058W        W18599  26.620  25.996  10.775
52059W        W18600  39.855  10.158   0.346
52060W        W18601  32.060  28.967   2.505
52061W        W18602  35.261  33.421   2.139
52062W        W18603  38.901   7.358   2.659
52063W        W18604  33.993  29.344  14.803
52064W        W18605  29.607  28.927  12.017
52065W        W18606  44.770  12.520  12.293
52066W        W18607  43.319  10.741   2.805
52067W        W18608  26.713  33.687  14.964
52068W        W18609   6.016  35.882  14.610
52069W        W18610  15.277  44.871  10.862
52070W        W18611   3.887  37.852   3.728
52071W        W18612  40.536  18.201   2.831
52072W        W18613  39.364  10.806   1.193
52073W        W18614  43.078   8.738  14.387
52074W        W18615   5.967  18.601  11.576
52075W        W18616  34.952  23.414  11.712
52076W        W18617  44.258   6.926  10.832
52077W        W18618   7.765   7.768  14.867
52078W        W18619  39.966  33.745  11.000
52079W        W18620  38.527  34.159   3.214
52080W        W18621  15.150  20.372  10.744
52081W        W18622  34.050  38.575  10.694
52082W        W18623  27.475  26.558   4.357
52083W        W18624  10.365  13.298  14.802
52084W        W18625  23.686  39.369   3.340
52085W        W18626  31.255  36.922  14.101
52086W        W18627   4.383   7.021   3.728
52087W        W18628  41.072  25.060  12.715
52088W        W18629  23.570  36.214  11.125
52089W        W18630  36.567   9.111  14.919
52090W        W18631   2.499  35.091   4.107
52091W        W18632   7.255  22.736   0.224
52092W        W18633  27.832  31.354  14.904
52093W        W18634  27.317  11.394   4.116
52094W        W18635  20.542  21.754  11.411
52095W        W18636  28.316   0.349  14.350
52096W        W18637  32.494  33.595  14.346
52097W        W18638   6.635  20.143  10.994
52098W        W18639   3.436  27.293  11.635
52099W        W18640  11.300  33.116  11.243
52100W        W18641  38.005  15.687   0.570
52101W        W18642  27.552   9.156  14.879
52102W        W18643  37.458  20.499  11.213
52103W        W18644  21.621  41.332  12.463
52104W        W18645  26.277   4.552  14.342
52105W        W18646  18.876  26.814  13.946
52106W        W18647  13.646  40.135   2.355
52107W        W18648   8.650  22.571   2.746
52108W        W18649  40.475  34.017   3.184
52109W        W18650  44.824  13.299   4.639
52110W        W18651  21.253   5.146   1.714
52111W        W18652  30.649   7.637  12.934
52112W        W18653  34.867  21.990  12.412
52113W        W18654  21.111  34.956  11.221
52114W        W18655  17.843   9.683  14.517
52115W        W18656  41.312  29.527   2.892
52116W        W18657  40.087  37.532   0.449
52117W        W18658  35.931  18.100   0.438
52118W        W18659  43.805  27.798  13.987
52119W        W18660  11.277  18.030   0.752
52120W        W18661  11.304  22.507   4.609
52121W        W18662  32.043   8.823   1.921
52122W        W18663   3.373  15.784   2.820
52123W        W18664  42.858  41.363   4.703
52124W        W18665   3.873   0.888  13.152
52125W        W18666   3.345   0.836   2.836
52126W        W18667  18.189  22.976  11.657
52127W        W18668  43.824  42.558   0.311
52128W        W18669  42.763  34.265  14.004
52129W        W18670  12.899  25.894  13.025
52130W        W18671   1.897  22.964  11.645
52131W        W18672  23.787  24.693   4.087
52132W        W18673  42.773  43.264  12.494
52133W        W18674  29.934   6.972   1.380
52134W        W18675   0.382   6.353   2.298
52135W        W18676  42.896  23.732  14.961
52136W        W18677  13.751  24.067  10.723
52137W        W18678  31.645  40.216   2.136
52138W        W18679   1.178   6.881   2.676
52139W        W18680  41.836  34.950   1.578
52140W        W18681   0.945   1.147  12.590
52141W        W18682  27.276   3.249   4.961
52142W        W18683   0.708  18.253   0.214
52143W        W18684  31.013  36.015  12.088
52144W        W18685  44.320  10.834  11.589
52145W        W18686  18.328  22.837   3.491
52146W        W18687  24.113  36.113  13.099
52147W        W18688  22.515  25.638   0.925
52148W        W18689   3.834  40.277  14.919
52149W        W18690  17.830  40.375   1.671
52150W        W18691   3.307  17.891  10.290
52151W        W18692  15.887   3.405  11.433
52152W        W18693  17.085  22.354  13.958
52153W        W18694  24.939  34.086   4.335
52154W        W18695  30.076  39.230   4.099
52155W        W18696   8.881  31.639  13.002
52156W        W18697  30.478   2.809  14.909
52157W        W18698  40.264  27.142   1.982
52158W        W18699  20.305   9.568  14.508
52159W        W18700  17.720  42.424  13.902
52160W        W18701   7.452  44.598   2.275
52161W        W18702   5.487  44.886  11.354
52162W        W18703  35.832   7.343   1.691
52163W        W18704  42.890  41.130   2.612
52164W        W18705  24.400  10.680   3.903
52165W        W18706  16.827  20.496   0.158
52166W        W18707   4.570   6.318   0.076
52167W        W18708   0.863  19.602   4.605
52168W        W18709  16.626  24.056   2.711
52169W        W18710  18.309  20.398  14.275
52170W        W18711  44.958   7.216  13.490
52171W        W18712   9.381   5.228   3.503
52172W        W18713   1.227  19.320   3.226
52173W        W18714  36.469  28.614   2.383
52174W        W18715   1.310   0.813   2.815
52175W        W18716   7.361  23.516  10.707
52176W        W18717  23.191  21.262  10.724
52177W        W18718  29.227  20.590   2.840
52178W        W18719   7.662   7.351   5.314
52179W        W18720   2.505  32.348   1.685
52180W        W18721  38.524  42.063  11.430
52181W        W18722  28.262   7.646   2.740
52182W        W18723  30.987  33.309   0.773
52183W        W18724  37.146   9.838   3.352
52184W        W18725   3.296   4.779   2.886
52185W        W18726  26.434  38.978  12.758
52186W        W18727  18.168   4.511   3.723
52187W        W18728  19.019  24.082  12.468
52188W        W18729  39.353   1.354   1.007
52189W        W18730   2.424  16.302  11.377
52190W        W18731  36.997  22.708  14.766
52191W        W18732  44.493  40.836   0.304
52192W        W18733  33.587  12.558   3.800
52193W        W18734  15.078  28.944  14.641
52194W        W18735  38.410  35.631   3.176
52195W        W18736  29.718  38.859   4.130
52196W        W18737  18.197  12.873   4.686
52197W        W18738  35.640   3.423   1.643
52198W        W18739   0.883  30.169  12.043
52199W        W18740  36.985  21.701   3.283
52200W        W18741  34.953   2.524   3.078
52201W        W18742  37.259  14.330  11.994
52202W        W18743  44.866   6.742  11.569
52203W        W18744  38.445  28.071   1.371
52204W        W18745  30.965  24.321  10.981
52205W        W18746   7.915  18.652  12.874
52206W        W18747   1.520  39.422   4.674
52207W        W18748  38.588  31.704  10.907
52208W        W18749  43.135   9.821   1.423
52209W        W18750  41.074  14.149   1.696
52210W        W18751  35.754  12.120  13.918
52211W        W18752  15.570  32.194   3.218
52212W        W18753  34.564  21.157  12.207
52213W        W18754  16.510  25.585   0.514
52214W        W18755  36.469   4.830  14.707
52215W        W18756  31.525  21.135  11.758
52216W        W18757   6.990   6.328   3.013
52217W        W18758   1.817  40.727  11.091
52218W        W18759  17.878  40.524  14.079
52219W        W18760  13.179  34.178   2.275
52220W        W18761  24.958  38.237  13.874
52221W        W18762  16.062   8.294  13.294
52222W        W18763  15.336  18.311  13.931
52223W        W18764   1.755  31.492   2.694
52224W        W18765   2.454  28.251  13.059
52225W        W18766  35.939  28.206   4.999
52226W        W18767  41.561  23.047  10.677
52227W        W18768   4.652  33.940   3.955
52228W        W18769  30.544  17.711   4.884
52229W        W18770  39.558  15.130  14.707
52230W        W18771  20.129  29.652  13.816
52231W        W18772   0.459  19.946   0.858
52232W        W18773  12.634  22.110  10.716
52233W        W18774  19.464  11.827   2.831
52234W        W18775  18.984  23.453  14.387
52235W        W18776  11.806   8.376  11.165
52236W        W18777  43.712  28.163   3.373
52237W        W18778  23.964   8.873  12.182
52238W        W18779  30.870   1.369   1.866
52239W        W18780  28.703   6.714  12.573
52240W        W18781   9.877  13.342   0.013
52241W        W18782  18.681  18.178   1.221
52242W        W18783  13.589  41.052   2.633
52243W        W18784  36.641   5.278  14.484
52244W        W18785  19.883  20.222   3.641
52245W        W18786  35.150  36.043   0.547
52246W        W18787  10.307  37.032  10.100
52247W        W18788  19.300  33.945   3.316
52248W        W18789  38.008   3.622  10.398
52249W        W18790  23.748  34.550  13.367
52250W        W18791  44.436  32.261  13.660
52251W        W18792  22.260  10.336  10.427
52252W        W18793  34.368  25.958   1.106
52253W        W18794   3.321  42.680   1.957
52254W        W18795  43.731   3.989   3.300
52255W        W18796   8.551  10.897   1.780
52256W        W18797  15.709  22.063  11.660
52257W        W18798  12.569   8.391  14.110
52258W        W18799  39.728  12.211  13.092
52259W        W18800   2.690  43.306  12.760
52260W        W18801  26.489  37.251  11.599
52261W        W18802  36.510  40.526   0.270
52262W        W18803  18.333  25.763   0.833
52263W        W18804  31.775  30.123  11.660
52264W        W18805   2.490  29.347  11.154
52265W        W18806  44.769  23.671  10.987
52266W        W18807  19.183   9.132   0.377
52267W        W18808  29.788   2.877  12.994
52268W        W18809  28.087  19.243   3.113
52269W        W18810   9.666  23.096  12.510
52270W        W18811  11.251  22.044  11.637
52271W        W18812  20.057  41.935   0.822
52272W        W18813  40.834  36.106  14.352
52273W        W18814   8.220  15.111  11.153
52274W        W18815  26.423  27.221   1.148
52275W        W18816  19.217   8.076   4.587
52276W        W18817  24.023  31.778   0.716
52277W        W18818  21.790  42.426  11.610
52278W        W18819   8.129  38.820   2.025
52279W        W18820  41.319   8.270   1.712
52280W        W18821  19.650   8.786   1.030
52281W        W18822  35.815  24.048  12.039
52282W        W18823  38.062  22.577   3.880
52283W        W18824  38.846  22.188   1.476
52284W        W18825  37.877  36.863   1.726
52285W        W18826  30.697   4.919  13.493
52286W        W18827  13.088  41.680   2.282
52287W        W18828   9.914   7.419   3.595
52288W        W18829  32.755  31.455  10.971
52289W        W18830  19.767  16.584   3.385
52290W        W18831  33.651  29.671   2.147
52291W        W18832  30.471  39.420   3.853
52292W        W18833  17.019   7.702  14.993
52293W        W18834   3.905  25.470   2.848
52294W        W18835  34.414  39.090   4.948
52295W        W18836  35.571  22.163   3.239
52296W        W18837  30.680  19.711  14.409
52297W        W18838  15.708  43.481   1.408
52298W        W18839   9.111   0.504   3.853
52299W        W18840   8.754  14.538   1.092
52300W        W18841  42.381   3.177   3.208
52301W        W18842   0.056  20.163   1.696
52302W        W18843  14.791  15.836   3.701
52303W        W18844  43.791  13.641   4.200
52304W        W18845  18.370  41.244  14.036
52305W        W18846  18.463  39.311   4.658
52306W        W18847  34.980  23.868  13.017
52307W        W18848  16.104  34.317  13.965
52308W        W18849  22.013  36.352   2.822
52309W        W18850  35.937  21.010   0.237
52310W        W18851   7.772  15.085  10.896
52311W        W18852  37.642  30.870  13.049
52312W        W18853  36.024  20.685   3.108
52313W        W18854  37.072  14.289   5.340
52314W        W18855  28.381  37.598  11.101
52315W        W18856  14.009  17.129   0.718
52316W        W18857  28.358   2.105  14.680
52317W        W18858  29.847  40.310  11.905
52318W        W18859   4.112  15.695   3.269
52319W        W18860  27.643  25.889   0.969
52320W        W18861  14.899  13.275   1.711
52321W        W18862   2.353   2.235   1.340
52322W        W18863  15.318   6.359   5.089
52323W        W18864  10.731  11.905   1.287
52324W        W18865  39.289  25.521   1.253
52325W        W18866  15.882  34.154  13.510
52326W        W18867  37.363  13.198  13.879
52327W        W18868  14.213   7.151   3.615
52328W        W18869  33.183  36.582  12.875
52329W        W18870  13.526   4.187  12.061
52330W        W18871  40.378  13.745  12.589
52331W        W18872   6.374  37.417  13.073
52332W        W18873  41.904  19.506   3.220
52333W        W18874  25.857  30.053   4.393
52334W        W18875   4.373   7.105   0.335
52335W        W18876  16.166  28.537   1.017
52336W        W18877   7.023  41.991  11.288
52337W        W18878  25.127  21.533   1.787
52338W        W18879   0.434  29.767  14.527
52339W        W18880  12.744   4.339   0.910
52340W        W18881   8.759  37.348   5.138
52341W        W18882   4.667  22.214  13.478
52342W        W18883  10.877  18.332  14.274
52343W        W18884  28.840  11.691   4.503
52344W        W18885  14.481  11.062  13.948
52345W        W18886  20.104  37.975   2.320
52346W        W18887  23.301  18.111  14.166
52347W        W18888  13.279  22.733   4.379
52348W        W18889  30.515   0.004  11.489
52349W        W18890  15.312  38.565   1.298
52350W        W18891  42.913  26.572   3.856
52351W        W18892  35.072  38.058  11.974
52352W        W18893  36.316  10.210   3.627
52353W        W18894   7.669   1.680  10.042
52354W        W18895   8.889  34.538  10.921
52355W        W18896   4.060  30.831   5.001
52356W        W18897   1.379  23.222  13.291
52357W        W18898   0.725  13.612  10.842
52358W        W18899  18.218   6.450  13.118
52359W        W18900  26.126  23.683   0.920
52360W        W18901  29.413  13.117   1.427
52361W        W18902   7.271   6.940   2.936
52362W        W18903  33.914  23.086   4.636
52363W        W18904  28.632  14.345   3.139
52364W        W18905  40.466  22.218   2.265
52365W        W18906  29.530  43.480   3.138
52366W        W18907   1.511  35.322   3.300
52367W        W18908  26.846  41.259  11.884
52368W        W18909  16.302  23.430  12.743
52369W        W18910  35.590   4.179  13.921
52370W        W18911  30.731  25.656  12.398
52371W        W18912  34.615   1.895  13.060
52372W        W18913  20.961  28.451   4.601
52373W        W18914  21.543  40.831  14.462
52374W        W18915  12.797   2.428   3.713
52375W        W18916  41.278  15.216   1.175
52376W        W18917   6.345  42.792  12.569
52377W        W18918  39.411  27.003  14.851
52378W        W18919  14.650  10.052  14.795
52379W        W18920  12.549  21.994  14.910
52380W        W18921   9.152  32.280   1.954
52381W        W18922  39.595  10.538  10.907
52382W        W18923   1.466  28.250  10.219
52383W        W18924  15.966  34.309   1.854
52384W        W18925  12.804   4.024   1.843
52385W        W18926  16.836  29.381  11.994
52386W        W18927  19.610  24.482   0.907
52387W        W18928  10.214  11.064  11.462
52388W        W18929  41.146  31.779   5.019
52389W        W18930  17.605  37.046   1.327
52390W        W18931  28.730  41.644  14.903
52391W        W18932  41.136  23.237   2.939
52392W        W18933  24.575  20.758   2.198
52393W        W18934  39.773  22.700   4.805
52394W        W18935   6.484   7.957   4.923
52395W        W18936  11.993  44.461   3.083
52396W        W18937   1.982  38.291  14.874
52397W        W18938  44.010   5.874  13.304
52398W        W18939   4.444  27.143  10.143
52399W        W18940  20.567  42.837  14.552
52400W        W18941  25.935  26.652  13.377
52401W        W18942  38.853   8.261   3.144
52402W        W18943   4.795  18.339  10.368
52403W        W18944  43.799  14.496  10.533
52404W        W18945  38.957  16.987   2.894
52405W        W18946   2.464  39.190   4.564
52406W        W18947  26.436  33.443   4.006
52407W        W18948  24.218   6.957   1.789
52408W        W18949  39.286  38.018  10.819
52409W        W18950  34.587  33.273   1.582
52410W        W18951  31.105   0.703  14.383
52411W        W18952   2.277   7.601  11.749
52412W        W18953  11.798  14.168  10.658
52413W        W18954  26.551  31.582  11.510
52414W        W18955  40.945   4.271   1.267
52415W        W18956   8.383  17.284  13.572
52416W        W18957  32.924  21.837   1.484
52417W        W18958  28.011  33.602  11.106
52418W        W18959   1.503  29.633   2.406
52419W        W18960  30.042  12.245   2.229
52420W        W18961  34.546   1.644   1.264
52421W        W18962   7.642  39.746  14.472
52422W        W18963  23.571  43.985  11.556
52423W        W18964  37.226  19.021   3.669
52424W        W18965  10.820  38.338  11.978
52425W        W18966   2.696  10.775  12.898
52426W        W18967  20.037  44.731   0.836
52427W        W18968  27.390  24.063  13.890
52428W        W18969  17.889   1.824   4.506
52429W        W18970  35.245  16.576  13.328
52430W        W18971  17.656   8.755   4.521
52431W        W18972  29.238  41.697   1.661
52432W        W18973  37.102  29.510  13.417
52433W        W18974   0.273  18.572  12.095
52434W        W18975  22.984   4.405  12.534
52435W        W18976  38.944  35.289   0.957
52436W        W18977  21.703  43.492   1.222
52437W        W18978  18.583  23.190   0.296
52438W        W18979  24.573  36.043   0.394
52439W        W18980  21.718  41.004   1.783
52440W        W18981  18.506  21.305   0.330
52441W        W18982   0.886   1.352   0.919
52442W        W18983  28.102  16.166   3.032
52443W        W18984   6.933  27.993   4.498
52444W        W18985  35.967  41.457  13.019
52445W        W18986  34.106  38.404   2.227
52446W        W18987  18.560   4.655  14.716
52447W        W18988  15.655  36.133   4.399
52448W        W18989  28.107   7.930   3.545
52449W        W18990  22.301  13.907   2.436
52450W        W18991  28.241  33.401  14.111
52451W        W18992  19.136  26.596  10.938
52452W        W18993   1.100  11.891  13.402
52453W        W18994  30.598  40.917  14.083
52454W        W18995  14.710   8.592   0.038
52455W        W18996  38.827  39.429   4.584
52456W        W18997   2.817   6.685   4.200
52457W        W18998   7.923   7.362   1.893
52458W        W18999   2.314  10.661  14.815
52459W        W19000  17.266  27.636   2.717
52460W        W19001  20.693  17.646  10.632
52461W        W19002   9.041  25.257  11.146
52462W        W19003  25.364  22.529   4.595
52463W        W19004  20.648  29.517   2.325
52464W        W19005   1.814  29.307   4.982
52465W        W19006  23.545  37.123   1.771
52466W        W19007  33.903  36.464  13.949
52467W        W19008  18.643   6.281   2.225
52468W        W19009  12.690  41.101  12.454
52469W        W19010  11.826   3.198  11.647
52470W        W19011  44.721  20.615  13.446
52471W        W19012  26.368  32.155  14.001
52472W        W19013   8.666   4.344   0.282
52473W        W19014  34.922  19.264  12.458
52474W        W19015  35.405  11.204  11.126
52475W        W19016  31.068  26.602   4.531
52476W        W19017  28.776  25.597  13.483
52477W        W19018  13.331  38.494  13.284
52478W        W19019  14.279   2.930   0.325
52479W        W19020  24.107  30.318   3.203
52480W        W19021  21.954  11.212  13.822
52481W        W19022  29.926  23.410   1.241
52482W        W19023  11.595  15.594  13.913
52483W        W19024  34.043  10.458   4.161
52484W        W19025  27.278  24.743   3.768
52485W        W19026  38.856  36.359   3.111
52486W        W19027   4.741   8.997   0.583
52487W        W19028  15.183   8.825   0.087
52488W        W19029   8.400  38.880  11.560
52489W        W19030  43.232  29.716   5.019
52490W        W19031  12.150  17.552  14.414
52491W        W19032   3.950  37.359  13.357
52492W        W19033  21.572  15.553   1.379
52493W        W19034  41.532  18.888  13.890
52494W        W19035  41.612  38.891   4.880
52495W        W19036  24.111  13.127   0.482
52496W        W19037  37.816  39.069  12.089
52497W        W19038  42.452  23.799  12.170
52498W        W19039   2.230  38.436  11.636
52499W        W19040  20.430  40.804   3.474
52500W        W19041  43.816  44.171   1.493
52501W        W19042  36.448  33.352   4.484
52502W        W19043  11.089  24.524   2.234
52503W        W19044  18.812  35.259   1.605
52504W        W19045   7.380  22.715  11.901
52505W        W19046  43.565  35.202  11.272
52506W        W19047  17.620  39.823   0.725
52507W        W19048  33.000  33.063  14.008
52508W        W19049  37.324  42.738  14.611
52509W        W19050   4.109  41.027   2.158
52510W        W19051  31.217   5.383  12.066
52511W        W19052  36.086   7.425  12.996
52512W        W19053   6.734  33.079   3.761
52513W        W19054   2.031  17.215   1.691
52514W        W19055  25.267   5.408   2.749
52515W        W19056  33.636  27.894  11.196
52516W        W19057  22.061   4.027   4.059
52517W        W19058   8.248  21.466  14.900
52518W        W19059   3.956  12.080  12.352
52519W        W19060  22.897  20.961  12.104
52520W        W19061  25.742  44.261   4.482
52521W        W19062  14.234  14.373   1.815
52522W        W19063  44.774   3.104   4.947
52523W        W19064   1.787  27.166  11.024
52524W        W19065  11.035  15.481  14.605
52525W        W19066  30.602  19.069   1.888
52526W        W19067  31.123  28.652  11.513
52527W        W19068  39.497  17.316   1.859
52528W        W19069  22.566  35.028  13.930
52529W        W19070  23.281  24.285   2.144
52530W        W19071  21.602  34.901   0.019
52531W        W19072  43.038  14.624   1.226
52532W        W19073  22.908  31.769  12.803
52533W        W19074  24.033  40.301   3.540
52534W        W19075  12.253   6.988   1.157
52535W        W19076   7.239  18.967   0.916
52536W        W19077  28.808  15.647   1.542
52537W        W19078  35.070  39.301  10.929
52538W        W19079  43.478   2.752   2.759
52539W        W19080  23.625   5.912  11.239
52540W        W19081  37.150  26.213  12.800
52541W        W19082   0.166  33.854   0.832
52542W        W19083  39.993  40.575   2.345
52543W        W19084   6.806   1.070   3.451
52544W        W19085   9.655  40.132   4.260
52545W        W19086   8.041  16.565   2.613
52546W        W19087  39.201  10.892  10.198
52547W        W19088  44.240  11.481   4.175
52548W        W19089  33.564  39.002   5.019
52549W        W19090  23.555  16.555   4.489
52550W        W19091  36.604  22.914  13.975
52551W        W19092  23.467  16.572  14.911
52552W        W19093  21.669  38.037  11.977
52553W        W19094  24.412  22.193  11.019
52554W        W19095  29.978  16.194  12.094
52555W        W19096   6.366  22.543  13.371
52556W        W19097  32.425  38.582   2.694
52557W        W19098   2.217  33.119   3.194
52558W        W19099  26.129  22.935  11.177
52559W        W19100   5.891  20.037   4.370
52560W        W19101  25.592  12.697   3.278
52561W        W19102  38.755   8.902  10.447
52562W        W19103  19.344  37.549   3.249
52563W        W19104  25.985  21.628  11.090
52564W        W19105  12.402   6.732   2.783
52565W        W19106  16.595  35.609  13.325
52566W        W19107   3.337  24.032  13.899
52567W        W19108   0.915  36.045  11.016
52568W        W19109  12.276  19.197   2.283
52569W        W19110  17.017  12.217  13.869
52570W        W19111   7.607  38.426   3.087
52571W        W19112   6.359  25.018   0.358
52572W        W19113  39.503   9.882   3.460
52573W        W19114  19.180  44.363  14.100
52574W        W19115  42.396   0.733  13.448
52575W        W19116  35.158  43.855  14.899
52576W        W19117  35.417  12.257  11.532
52577W        W19118   2.560   9.399  13.002
52578W        W19119  24.500  13.932  11.212
52579W        W19120  15.636   7.891   2.796
52580W        W19121  10.282  43.039   0.465
52581W        W19122  34.880  30.909  13.428
52582W        W19123  31.376  11.380   4.188
52583W        W19124  29.639   8.548  13.437
52584W        W19125   5.657   2.822  12.723
52585W        W19126  10.876  37.504   3.607
52586W        W19127   2.382  39.911   3.250
52587W        W19128  34.568   3.105   4.096
52588W        W19129  13.098   8.209  12.429
52589W        W19130  14.128  27.105   2.887
52590W        W19131  29.666   8.778   4.119
52591W        W19132  23.571  24.207  14.147
52592W        W19133  40.535  10.333   4.497
52593W        W19134  35.048  11.252   2.859
52594W        W19135  14.190   6.924   0.022
52595W        W19136  24.000  43.809  11.142
52596W        W19137   9.882   6.278  12.833
52597W        W19138  26.642  15.063  14.235
52598W        W19139   9.237  35.369  12.052
52599W        W19140  44.018  18.548  13.022
52600W        W19141  42.281  11.403  14.319
52601W        W19142  32.210   4.952  14.800
52602W        W19143  16.834  44.338  14.438
52603W        W19144   1.721  41.869   3.249
52604W        W19145  44.228   6.797  14.757
52605W        W19146  34.049  38.812  13.086
52606W        W19147  20.212  40.820   2.647
52607W        W19148  14.564  30.980   0.803
52608W        W19149  22.539  23.569   4.236
52609W        W19150   9.180   9.902   3.328
52610W        W19151  20.227   6.166   5.053
52611W        W19152  15.763  44.617   2.522
52612W        W19153  31.809   4.892  12.690
52613W        W19154  27.881  11.071   2.868
52614W        W19155   6.272  17.018  13.012
52615W        W19156  28.215  21.663  13.035
52616W        W19157  33.647  29.876  12.050
52617W        W19158   4.390  32.108  14.369
52618W        W19159   9.607  43.544  11.055
52619W        W19160   2.772  39.339   0.924
52620W        W19161  21.194   1.658   2.082
52621W        W19162  32.992  43.609   3.478
52622W        W19163  23.151  22.183   2.524
52623W        W19164  38.176   4.358  12.093
52624W        W19165   1.220   3.754  11.885
52625W        W19166  23.222  34.352  13.449
52626W        W19167  12.424  18.302  13.330
52627W        W19168   8.439   5.207   2.844
52628W        W19169  19.513   4.780  10.701
52629W        W19170  43.521  33.673   1.005
52630W        W19171  42.169   9.896  14.302
52631W        W19172  15.003  18.437   4.282
52632W        W19173  30.426   2.721   2.866
52633W        W19174   8.177  20.084  11.064
52634W        W19175  17.092   6.327   4.258
52635W        W19176  13.902  42.916   2.272
52636W        W19177  28.506  14.218   0.545
52637W        W19178  31.913  39.908  13.583
52638W        W19179   8.994  43.491   0.956
52639W        W19180  15.607   6.203  14.766
52640W        W19181  33.436  35.529  12.996
52641W        W19182  21.338  24.253   4.979
52642W        W19183  18.676  21.255  10.912
52643W        W19184  28.536  41.279   0.211
52644W        W19185   9.567   0.414   2.918
52645W        W19186   7.856  30.698  12.885
52646W        W19187   0.619   5.390  11.143
52647W        W19188   2.786   3.164  12.141
52648W        W19189  32.652  16.041  11.169
52649W        W19190  14.859  14.306   3.944
52650W        W19191   6.750  16.778   0.310
52651W        W19192  22.558  42.768  12.141
52652W        W19193  27.233  35.891   3.126
52653W        W19194   0.986  28.624   4.851
52654W        W19195  24.673  24.181  12.658
52655W        W19196  44.759  44.021  10.810
52656W        W19197  22.500   2.725  10.361
52657W        W19198  25.901   4.291   4.789
52658W        W19199  15.364  37.268   3.712
52659W        W19200  24.318  35.644  13.220
52660W        W19201  42.025  37.776   2.236
52661W        W19202  29.209  40.921   1.414
52662W        W19203  19.053  14.117  10.765
52663W        W19204   9.066  14.242   2.628
52664W        W19205  29.123  19.996   4.590
52665W        W19206  10.276   2.318  12.079
52666W        W19207   8.965  33.649   4.874
52667W        W19208   9.288  19.555  11.467
52668W        W19209  29.636  23.919  12.429
52669W        W19210  15.747  27.970  13.962
52670W        W19211  24.102  30.916   0.926
52671W        W19212   2.240  18.758   2.461
52672W        W19213  30.002   3.365   4.594
52673W        W19214  14.647  22.478  13.978
52674W        W19215   0.848  42.378   4.657
52675W        W19216  11.808   3.439   0.662
52676W        W19217  11.515   3.440  10.714
52677W        W19218  28.246  13.758   3.281
52678W        W19219   6.877  32.136   3.768
52679W        W19220  10.878  30.946  11.624
52680W        W19221  30.574  23.567  12.053
52681W        W19222  40.925  19.679   1.069
52682W        W19223  22.711   1.393  11.005
52683W        W19224  21.389   6.671  10.611
52684W        W19225   9.239  26.183   1.683
52685W        W19226  36.495   8.266   3.577
52686W        W19227  13.189  13.724  11.458
52687W        W19228  37.376  22.046  13.425
52688W        W19229  21.984  21.885   2.069
52689W        W19230  19.037  24.322   2.712
52690W        W19231  10.238  18.595  13.768
52691W        W19232  34.481  29.747  13.953
52692W        W19233  41.043  23.249   3.915
52693W        W19234  23.340  25.620   1.359
52694W        W19235  22.464  43.642  12.589
52695W        W19236   7.745  40.543   3.116
52696W        W19237  10.568  14.176  11.458
52697W        W19238  29.516   9.931   3.815
52698W        W19239  32.469  26.256  14.374
52699W        W19240   6.840  26.640   4.543
52700W        W19241  32.570  37.091   1.289
52701W        W19242  11.684   0.445   4.944
52702W        W19243  39.501  34.680   4.430
52703W        W19244  14.665   5.655  13.867
52704W        W19245  14.786  12.759   1.020
52705W        W19246   1.520   6.188  13.301
52706W        W19247  15.866  21.426  14.071
52707W        W19248  30.053   2.472  13.875
52708W        W19249  37.366  38.230   0.413
52709W        W19250  43.359  41.688   3.347
52710W        W19251  38.884   6.266   0.900
52711W        W19252  18.232   6.968   4.385
52712W        W19253  38.401   0.980  11.150
52713W        W19254  29.069  29.433  11.622
52714W        W19255   1.256  28.708   2.974
52715W        W19256  40.988  30.766  11.374
52716W        W19257  43.048   9.256   4.117
52717W        W19258  23.152  24.737   2.392
52718W        W19259  14.111   4.180  10.808
52719W        W19260  18.843   8.103  12.921
52720W        W19261  42.623  13.313   4.258
52721W        W19262  42.911  37.345   3.785
52722W        W19263   9.420  15.845  11.151
52723W        W19264  42.040  13.453   0.012
52724W        W19265  28.429   0.721   3.339
52725W        W19266   2.241  31.933  12.468
52726W        W19267  23.728  21.563   3.139
52727W        W19268  21.201   3.764  11.856
52728W        W19269  16.610   7.920   2.559
52729W        W19270  13.873  36.410   1.471
52730W        W19271   3.900  11.595  13.951
52731W        W19272  10.642  36.428   4.536
52732W        W19273  21.570   4.336   1.856
52733W        W19274  19.271  27.678  12.510
52734W        W19275  39.713  10.713  13.912
52735W        W19276  41.452  20.285  11.869
52736W        W19277  15.771  12.645  10.455
52737W        W19278  33.554   0.735   1.620
52738W        W19279   7.355  15.744  14.254
52739W        W19280  44.258  41.910   3.042
52740W        W19281  30.930  25.264   0.179
52741W        W19282  25.296  12.819  12.555
52742W        W19283  16.970  29.140   0.469
52743W        W19284  42.312  41.864   0.882
52744W        W19285  17.219  15.345   1.165
52745W        W19286  39.955  41.767  12.565
52746W        W19287   2.823  35.338  13.339
52747W        W19288   8.990  27.205  14.564
52748W        W19289  10.835  43.761   4.148
52749W        W19290  18.978  23.118   3.309
52750W        W19291  23.742  11.808  11.716
52751W        W19292  38.107  24.263   0.871
52752W        W19293  17.851  12.145   1.237
52753W        W19294  10.960  16.123   1.800
52754W        W19295  15.306  14.998  13.951
52755W        W19296  26.746  32.023  12.342
52756W        W19297  22.785  19.207  10.649
52757W        W19298  19.187   1.485  14.965
52758W        W19299  23.781   6.532   2.991
52759W        W19300  31.670  16.660   1.700
52760W        W19301  12.871  43.788   4.634
52761W        W19302  17.741   9.458  13.393
52762W        W19303  32.437   8.956   1.444
52763W        W19304  31.671  25.791  13.952
52764W        W19305  22.648  21.656   3.613
52765W        W19306   6.688  26.662  11.900
52766W        W19307  19.764  41.083   2.699
52767W        W19308  16.763   4.801   0.746
52768W        W19309  33.105  34.889  14.148
52769W        W19310  42.517  35.346   0.306
52770W        W19311  16.300  42.036  12.665
52771W        W19312  30.858   1.170  14.408
52772W        W19313   4.941  32.585   0.699
52773W        W19314   2.285   0.416   2.774
52774W        W19315  21.245  42.034   0.877
52775W        W19316  16.687  38.728  10.898
52776W        W19317  15.986  17.009  14.698
52777W        W19318   2.925  11.844  11.064
52778W        W19319   1.286  43.734   1.651
52779W        W19320   3.466  11.939   2.761
52780W        W19321  43.791   5.770  11.230
52781W        W19322  28.523  15.592   1.088
52782W        W19323   0.022   7.667  11.653
52783W        W19324  15.117  23.728   2.175
52784W        W19325  12.847   1.698   1.390
52785W        W19326  15.856  44.776  11.569
52786W        W19327  18.455  44.455   9.965
52787W        W19328  10.939  44.005  13.912
52788W        W19329  17.339  24.673  14.335
52789W        W19330  21.577  25.590  12.642
52790W        W19331  33.959  23.746   1.839
52791W        W19332  40.274  12.622   4.030
52792W        W19333  37.196  28.347  12.511
52793W        W19334  15.238  32.010   2.703
52794W        W19335   3.673  11.266   4.460
52795W        W19336  27.385  17.304  12.049
52796W        W19337  32.147  20.024   0.199
52797W        W19338  36.129   3.923   2.237
52798W        W19339  34.999   7.053   2.232
52799W        W19340  19.016  21.474   3.620
52800W        W19341   1.804  17.801  11.823
52801W        W19342  35.578  37.763   1.841
52802W        W19343  38.958  20.037  12.960
52803W        W19344   4.721  17.248  12.905
52804W        W19345  19.972  35.863  12.580
52805W        W19346  24.565  40.488   2.661
52806W        W19347  14.069  32.185  12.759
52807W        W19348  28.973   5.053   2.821
52808W        W19349  41.270  40.460   1.283
52809W        W19350  25.212   4.883   0.956
52810W        W19351  18.544  34.744  11.175
52811W        W19352  34.234  35.028   4.208
52812W        W19353   9.409  20.550   0.061
52813W        W19354  13.930  14.143  12.929
52814W        W19355  18.846  29.425  12.961
52815W        W19356   5.199  39.069  14.446
52816W        W19357  40.008   5.775  11.243
52817W        W19358  40.022   5.992  12.673
52818W        W19359  19.085  36.021  11.123
52819W        W19360  11.057   8.203   4.548
52820W        W19361  35.385  32.898   0.329
52821W        W19362  12.798  30.837  14.998
52822W        W19363   2.427  42.875  13.300
52823W        W19364  31.192  43.404  11.210
52824W        W19365  15.308  28.704   3.185
52825W        W19366  33.029  22.891  11.892
52826W        W19367  30.764  21.516   4.067
52827W        W19368   7.414  37.782   2.233
52828W        W19369   6.341  15.593  12.021
52829W        W19370  22.679  39.657  13.813
52830W        W19371  11.023  31.501  13.846
52831W        W19372   0.166  25.979  13.858
52832W        W19373  18.700   2.826   0.942
52833W        W19374   0.500  23.551   3.479
52834W        W19375  41.009  30.146  11.988
52835W        W19376  34.472   7.024  13.902
52836W        W19377  19.280  12.462  12.994
52837W        W19378  20.777  41.518  11.874
52838W        W19379  14.881  20.995   4.520
52839W        W19380  12.658  20.529   4.543
52840W        W19381  13.757  35.249   0.280
52841W        W19382   0.698  16.762  11.195
52842W        W19383  42.048  21.560  13.986
52843W        W19384   4.993  35.996   0.421
52844W        W19385  38.022   5.893  14.165
52845W        W19386  23.236  17.723  11.568
52846W        W19387  31.573  11.134  11.948
52847W        W19388  20.948  15.696  11.538
52848W        W19389  31.491  24.189   3.712
52849W        W19390  27.908  36.969  14.432
52850W        W19391   6.587  33.831  14.422
52851W        W19392  24.596  15.664   1.165
52852W        W19393   0.429  38.370   1.422
52853W        W19394  29.056  22.324  13.862
52854W        W19395   4.440  44.934   4.168
52855W        W19396  15.519  25.644  12.513
52856W        W19397  15.687  35.182   1.444
52857W        W19398  30.467   1.983  14.492
52858W        W19399  22.518   7.192   1.862
52859W        W19400  32.633  17.108  13.325
52860W        W19401   2.654  20.001   0.422
52861W        W19402   1.347  32.287  12.136
52862W        W19403  14.361   1.323  12.045
52863W        W19404  43.476  27.497  14.924
52864W        W19405  13.863   8.610   1.957
52865W        W19406   7.336  13.558   3.428
52866W        W19407  31.943  15.803   4.657
52867W        W19408  15.992   9.973  14.876
52868W        W19409   0.450   6.479   0.812
52869W        W19410  19.321   0.904   4.605
52870W        W19411  14.737  36.865   0.503
52871W        W19412   3.206  30.105   0.792
52872W        W19413  34.072  35.377  10.737
52873W        W19414  14.528   7.963  11.193
52874W        W19415   6.213  36.431   4.895
52875W        W19416   6.197  40.944  14.552
52876W        W19417  28.159  34.352   0.845
52877W        W19418  30.941  42.887   2.716
52878W        W19419   8.977   1.812   0.396
52879W        W19420  25.133  44.029   2.439
52880W        W19421   9.171  11.140  10.848
52881W        W19422  12.770  37.321  12.675
52882W        W19423  16.375  10.421  13.435
52883W        W19424  29.482  22.046   3.792
52884W        W19425   2.087   8.044   3.518
52885W        W19426  13.168  36.762  14.786
52886W        W19427   2.221   1.818   2.157
52887W        W19428  15.774  18.020  13.815
52888W        W19429  20.409  15.531   1.726
52889W        W19430  30.325   1.749  12.025
52890W        W19431   5.087  12.135  11.461
52891W        W19432   4.841  43.256   1.345
52892W        W19433  31.396   6.922   4.192
52893W        W19434  21.781  33.920   4.726
52894W        W19435   8.073  20.171   4.752
52895W        W19436  25.987  27.178  14.816
52896W        W19437   9.204   7.762  12.167
52897W        W19438  22.994  28.390  14.965
52898W        W19439  43.527   5.298   1.465
52899W        W19440  34.898  15.319   2.235
52900W        W19441   7.272  36.083   1.374
52901W        W19442  42.950  16.270   0.253
52902W        W19443  25.827  42.806  11.136
52903W        W19444  32.869  20.794   3.803
52904W        W19445  27.563  33.338  13.097
52905W        W19446  32.332  13.873   3.558
52906W        W19447  41.962  25.226   0.273
52907W        W19448  32.586   4.884  11.475
52908W        W19449  40.392   8.854   1.471
52909W        W19450   5.722  29.366  11.634
52910W        W19451  18.840  18.237  12.978
52911W        W19452  18.792  14.280   2.388
52912W        W19453  12.118  18.714  13.434
52913W        W19454  34.781  11.170  14.329
52914W        W19455  10.373   5.909   4.578
52915W        W19456  18.044   7.246  11.587
52916W        W19457  19.095  24.530  13.368
52917W        W19458  30.576  26.518   4.725
52918W        W19459  20.942  14.429  11.877
52919W        W19460  14.153  31.672   0.883
52920W        W19461  34.710  33.418   3.907
52921W        W19462  11.890  21.192   2.594
52922W        W19463  13.200  36.544  12.480
52923W        W19464  37.152  17.939  13.513
52924W        W19465  14.581  36.688  10.703
52925W        W19466   8.423  19.268   3.356
52926W        W19467   2.016  32.497  12.727
52927W        W19468   0.894  33.330  11.139
52928W        W19469  24.854  19.053   3.561
52929W        W19470  44.669  12.546  10.459
52930W        W19471   7.900   3.858   4.133
52931W        W19472   5.180  13.694   3.700
52932W        W19473   1.744   7.842  10.817
52933W        W19474  14.733   3.865  11.109
52934W        W19475  22.956  29.061  13.769
52935W        W19476  34.573   3.117  14.221
52936W        W19477   4.922  17.324   3.743
52937W        W19478  15.023  17.106   4.575
52938W        W19479  42.495  12.139   3.607
52939W        W19480  24.568  13.295  11.923
52940W        W19481  11.360  27.634  10.750
52941W        W19482  12.725  44.732   0.937
52942W        W19483   3.421  33.687  12.959
52943W        W19484  41.060  30.868   1.378
52944W        W19485  35.474  28.282  14.463
52945W        W19486  16.691  34.594   2.939
52946W        W19487  21.708  19.635  14.500
52947W        W19488  19.550  38.540   2.780
52948W        W19489  19.579  35.160   0.482
52949W        W19490  23.226  26.932   1.358
52950W        W19491   8.677   8.828   2.774
52951W        W19492  23.789  20.063  14.908
52952W        W19493  39.769  43.064  13.942
52953W        W19494  10.686   1.394   3.408
52954W        W19495  20.565   1.374   4.290
52955W        W19496  27.098  28.644  11.704
52956W        W19497   6.932  19.760  13.057
52957W        W19498  25.525  22.036   4.682
52958W        W19499  12.595  15.966  11.475
52959W        W19500  33.063  29.387  13.843
52960W        W19501  18.763  33.497  10.021
52961W        W19502  22.900  25.872  12.519
52962W        W19503   8.686  29.124  12.890
52963W        W19504  28.473  21.156   0.204
52964W        W19505   2.783  29.599  14.048
52965W        W19506  13.743   4.982  11.761
52966W        W19507  12.897   9.578   0.299
52967W        W19508  25.681  22.036   3.739
52968W        W19509  12.122  15.662  12.658
52969W        W19510  41.077   0.978   3.674
52970W        W19511  18.030   0.165  12.536
52971W        W19512  26.804  28.091   1.979
52972W        W19513  20.088   3.406  10.666
52973W        W19514  39.351  16.473   3.130
52974W        W19515  25.321  35.979   5.115
52975W        W19516  11.158  17.168  11.073
52976W        W19517  31.363   6.489  12.405
52977W        W19518  12.304  11.383   3.457
52978W        W19519  15.796  35.102  10.634
52979W        W19520  30.669   5.878  13.117
52980W        W19521  19.334  11.800   1.278
52981W        W19522  36.460  30.436   0.370
52982W        W19523  35.829  27.116   1.721
52983W        W19524  28.868  31.411   4.199
52984W        W19525  13.859  17.647  11.639
52985W        W19526  28.445   9.626  12.546
52986W        W19527  21.540  22.757  11.222
52987W        W19528  43.071  31.936   1.736
52988W        W19529   1.702  30.045   5.382
52989W        W19530  41.567  43.275  12.760
52990W        W19531   5.330   2.652  13.052
52991W        W19532  26.458  27.165   3.065
52992W        W19533  42.700  29.048   3.685
52993W        W19534   4.704  20.058   2.419
52994W        W19535  25.973  23.159   2.161
52995W        W19536  16.272  13.592  11.272
52996W        W19537  29.542  44.513   3.048
52997W        W19538   7.222  18.313  10.914
52998W        W19539   1.525  43.827  12.997
52999W        W19540  11.621  28.555  13.166
53000W        W19541  39.913   4.244   0.712
53001W        W19542  42.099  28.167   2.776
53002W        W19543  25.531  18.345   2.235
53003W        W19544  12.070  17.763   3.908
53004W        W19545   1.267  43.831   3.330
53005W        W19546   9.229  22.807  14.780
53006W        W19547  11.868   8.189   2.395
53007W        W19548   6.726  28.973  13.568
53008W        W19549  35.270  43.872   1.862
53009W        W19550  14.778   3.873  12.166
53010W        W19551  19.162  26.687  10.436
53011W        W19552  22.117  15.374   2.262
53012W        W19553  18.816   5.787   2.305
53013W        W19554  27.010   6.264  13.965
53014W        W19555  24.257  27.199  14.937
53015W        W19556  34.796  34.225   1.753
53016W        W19557  30.914  41.243   4.907
53017W        W19558  40.629   8.343  13.109
53018W        W19559  16.518  38.688  14.849
53019W        W19560  24.345  15.053   0.462
53020W        W19561   4.525  17.198  13.374
53021W        W19562  24.368  15.646  14.250
53022W        W19563  44.371  18.785  13.325
53023W        W19564  38.833  34.335  10.784
53024W        W19565  18.672  34.139   1.016
53025W        W19566   5.899  16.233   3.528
53026W        W19567  13.216  44.468  10.355
53027W        W19568   6.277  29.100  13.805
53028W        W19569   3.642  41.239   2.431
53029W        W19570  41.596  19.985  10.721
53030W        W19571  23.681  39.435  11.057
53031W        W19572  35.960  25.299  14.547
53032W        W19573  11.836   0.046  11.996
53033W        W19574   3.861  19.397  14.385
53034W        W19575  21.159  35.045  10.723
53035W        W19576   9.659  23.001   0.739
53036W        W19577   6.894  28.616  14.247
53037W        W19578  18.115  15.739   3.627
53038W        W19579   5.399  21.419   2.774
53039W        W19580  13.177  20.963   2.317
53040W        W19581   3.899  37.508  12.020
53041W        W19582  14.077   3.383   0.456
53042W        W19583  25.102  35.650  13.194
53043W        W19584  25.999   9.714   1.465
53044W        W19585   8.775  36.040   4.773
53045W        W19586  17.598  43.183   0.744
53046W        W19587  11.815  40.279   4.070
53047W        W19588  20.968  37.112   0.785
53048W        W19589  21.591  39.650   4.585
53049W        W19590  12.173  31.361  10.479
53050W        W19591  13.832   1.423   2.776
53051W        W19592  41.981  18.609   2.320
53052W        W19593   7.950  40.847  11.721
53053W        W19594   3.261  33.899   2.918
53054W        W19595  24.040   0.197   2.119
53055W        W19596  16.264  30.337   0.615
53056W        W19597  16.918  19.689   5.039
53057W        W19598  12.802  26.496   4.532
53058W        W19599  13.898   0.314  10.923
53059W        W19600  33.167  33.556   0.422
53060W        W19601  14.475  28.059   4.893
53061W        W19602  37.429  22.298  10.738
53062W        W19603  38.363   6.209  13.938
53063W        W19604  22.842  32.102  13.731
53064W        W19605  32.968  29.335   1.907
53065W        W19606  30.084   7.735   2.162
53066W        W19607   1.339  37.085   4.818
53067W        W19608   2.421  43.404  11.196
53068W        W19609  35.021  27.016   5.054
53069W        W19610  43.296  35.946  13.886
53070W        W19611  42.134  17.037   4.577
53071W        W19612   1.250  31.863  11.819
53072W        W19613  23.139   7.753   5.002
53073W        W19614  44.492  12.258  11.601
53074W        W19615  33.465   3.309   1.182
53075W        W19616  43.655  39.074  11.508
53076W        W19617  13.659   1.399  11.516
53077W        W19618  35.370  17.569   1.709
53078W        W19619  40.905  37.550   4.557
53079W        W19620  27.143  19.619  11.981
53080W        W19621  21.354   4.200  12.107
53081W        W19622   8.951  39.344   0.645
53082W        W19623   7.666  15.827  13.045
53083W        W19624  16.673  17.633  14.273
53084W        W19625  28.602  41.905  12.593
53085W        W19626  29.597  20.121  13.977
53086W        W19627   4.226   6.321  12.073
53087W        W19628  17.840  30.125   0.450
53088W        W19629  24.559  13.535  14.758
53089W        W19630  14.805  21.273   4.095
53090W        W19631  14.053  42.490  10.609
53091W        W19632  38.833   7.370  14.899
53092W        W19633  25.940  28.540   1.800
53093W        W19634  20.726  32.673   0.710
53094W        W19635  10.591  24.036  14.297
53095W        W19636  32.027  12.789   3.636
53096W        W19637  27.056  40.837   2.754
53097W        W19638  34.102  10.731  11.146
53098W        W19639  11.242  15.145   1.437
53099W        W19640  24.801  26.878  11.121
53100W        W19641  24.205  20.006   2.632
53101W        W19642   8.740  28.444  12.394
53102W        W19643   4.197  27.915  11.992
53103W        W19644  25.844   5.813   4.107
53104W        W19645  35.908   9.152   1.660
53105W        W19646  21.150  34.123  12.775
53106W        W19647  20.757   7.325  12.823
53107W        W19648  43.004  25.198   1.958
53108W        W19649   9.667   1.990   4.727
53109W        W19650   0.444  16.611   3.810
53110W        W19651   7.848   1.220   0.898
53111W        W19652  43.785   4.818  14.348
53112W        W19653  40.421  11.855  11.163
53113W        W19654  28.544  20.509  11.113
53114W        W19655   0.540  10.818  13.245
53115W        W19656  21.790   9.384   2.694
53116W        W19657  22.602   6.270   4.539
53117W        W19658  39.549  40.271   2.781
53118W        W19659  15.899  35.125   0.967
53119W        W19660  28.459  40.322  10.959
53120W        W19661  24.578  36.486  12.210
53121W        W19662  44.684  24.673   3.671
53122W        W19663   4.523  32.985  12.863
53123W        W19664  10.668  29.617  14.990
53124W        W19665  32.363  32.367  14.775
53125W        W19666  38.390  42.880   3.166
53126W        W19667  39.378  33.310  12.200
53127W        W19668  27.697  31.981   2.241
53128W        W19669  29.466  20.805   0.049
53129W        W19670  40.969  31.062   2.799
53130W        W19671  21.934  35.578  13.099
53131W        W19672  22.601  24.079  10.685
53132W        W19673  33.827  40.749   3.635
53133W        W19674  17.812  20.294   0.049
53134W        W19675   9.266   2.580   4.208
53135W        W19676   2.133  15.817  13.423
53136W        W19677  24.095  24.107   3.132
53137W        W19678  14.489  43.221  11.427
53138W        W19679   0.000  44.666  13.449
53139W        W19680  13.245  23.683  11.663
53140W        W19681   9.931   1.322  11.159
53141W        W19682   2.531  42.302  11.493
53142W        W19683  26.696  36.526   2.271
53143W        W19684  17.831  19.228   3.632
53144W        W19685   7.331  39.741   1.232
53145W        W19686  16.659   8.872  14.868
53146W        W19687   9.806  18.483   4.321
53147W        W19688   1.286  26.816  13.414
53148W        W19689  17.133  10.117   3.368
53149W        W19690  15.743  16.696  10.923
53150W        W19691   5.895  11.885   4.056
53151W        W19692  23.894  44.319  14.981
53152W        W19693  17.768  35.842   2.335
53153W        W19694   5.765  30.398  12.454
53154W        W19695  44.487   5.674  11.984
53155W        W19696  18.358   4.231  12.633
53156W        W19697  27.697   4.035   3.093
53157W        W19698  39.159  38.988  13.573
53158W        W19699  42.181  12.100  14.823
53159W        W19700  13.649   9.131   4.317
53160W        W19701   9.697  15.261  14.392
53161W        W19702  18.586  37.919   0.315
53162W        W19703  39.560   8.574  12.934
53163W        W19704  19.198  19.338   3.257
53164W        W19705   5.642  35.548  13.354
53165W        W19706   0.884   5.635  14.914
53166W        W19707  41.365  17.832  12.354
53167W        W19708   3.697  12.202  11.378
53168W        W19709  29.584  26.415  10.817
53169W        W19710  20.351  13.798  11.205
53170W        W19711   7.915   7.383   1.381
53171W        W19712   9.233  12.693   0.468
53172W        W19713   8.946  43.926  14.349
53173W        W19714  21.136   2.157   2.950
53174W        W19715  12.934  43.269  11.660
53175W        W19716  42.077  44.933   3.455
53176W        W19717  20.675  37.883   2.013
53177W        W19718   8.291   5.700   2.754
53178W        W19719   2.077  31.566  12.152
53179W        W19720  14.296  35.648  11.988
53180W        W19721  18.165  43.690   0.330
53181W        W19722  20.726  40.064   0.594
53182W        W19723  37.678  28.201  14.454
53183W        W19724  38.446  40.045  10.627
53184W        W19725  37.132  28.688  11.675
53185W        W19726  39.953   5.218  10.683
53186W        W19727  27.900  37.489   1.662
53187W        W19728  19.267   3.763   4.892
53188W        W19729  10.590  19.481  11.436
53189W        W19730  41.471   9.803   3.222
53190W        W19731  10.652   0.813  11.521
53191W        W19732   4.270  13.323   1.397
53192W        W19733  23.032  29.503   0.027
53193W        W19734  13.005  18.728  14.433
53194W        W19735  32.798  10.255  11.231
53195W        W19736  41.811  19.633   1.405
53196W        W19737  11.018  32.861   0.660
53197W        W19738  37.357   4.771   1.517
53198W        W19739  35.369  28.579  12.833
53199W        W19740  14.220  42.413   3.739
53200W        W19741  14.180  43.151   4.984
53201W        W19742  11.689   6.722  14.065
53202W        W19743  43.883  36.547  14.835
53203W        W19744  19.777  21.674  12.080
53204W        W19745  22.006  20.744  12.828
53205W        W19746  28.346  41.404   4.154
53206W        W19747  10.926  18.039  12.469
53207W        W19748  26.699  36.974   3.618
53208W        W19749  38.587   6.297  12.447
53209W        W19750  33.854   3.747  14.073
53210W        W19751   1.872  30.843   4.962
53211W        W19752  17.557  25.996  10.950
53212W        W19753   0.916   0.840   3.786
53213W        W19754  12.528   1.154  11.953
53214W        W19755  29.460  32.874  11.560
53215W        W19756  38.498  30.650  10.515
53216W        W19757  28.201   4.306   0.788
53217W        W19758   4.011  36.320   4.217
53218W        W19759  26.505  15.316   2.329
53219W        W19760  43.354   9.604  12.413
53220W        W19761  22.124  15.846  14.913
53221W        W19762  22.144  28.528   0.870
53222W        W19763  34.068  30.669  12.905
53223W        W19764  21.429  40.345  14.976
53224W        W19765  31.998  17.229  11.419
53225W        W19766   0.143   6.837   2.759
53226W        W19767   6.495  38.505   3.569
53227W        W19768  10.631  20.668  11.966
53228W        W19769  37.461  34.441  14.250
53229W        W19770  33.350  11.089  13.816
53230W        W19771  21.560  27.375  10.751
53231W        W19772  31.705  21.616  13.873
53232W        W19773   3.354  20.739  12.576
53233W        W19774  41.332  19.898   2.151
53234W        W19775  35.635  15.533  12.059
53235W        W19776  30.434  30.085   2.500
53236W        W19777   1.065   3.350   0.430
53237W        W19778  14.827   7.283   3.471
53238W        W19779  36.504  20.202   3.848
53239W        W19780  18.652  35.589  12.880
53240W        W19781  35.264  15.174   3.898
53241W        W19782  37.349  36.576  11.096
53242W        W19783   4.367  15.505  14.325
53243W        W19784  19.279  30.038   4.087
53244W        W19785  19.075  23.965  14.423
53245W        W19786  14.715  43.019   3.279
53246W        W19787  35.516   0.459   0.278
53247W        W19788   1.273  42.789   1.654
53248W        W19789  43.209   3.228  10.679
53249W        W19790   4.382   0.011  14.472
53250W        W19791  29.495   4.257  11.051
53251W        W19792  13.352   4.132  12.948
53252W        W19793  36.575   2.330   3.595
53253W        W19794  19.517  37.607   2.285
53254W        W19795  41.242  30.369   3.728
53255W        W19796  43.156  17.760   1.018
53256W        W19797  16.083  41.812   0.539
53257W        W19798  41.260  21.129   0.284
53258W        W19799  10.524  10.193   3.784
53259W        W19800  24.674  13.664   4.440
53260W        W19801  20.992  44.997  13.908
53261W        W19802   1.687   8.691   1.855
53262W        W19803  42.169  42.579   3.959
53263W        W19804  40.062  22.411   1.477
53264W        W19805  13.597  21.055  10.766
53265W        W19806  31.418   5.424  10.197
53266W        W19807  36.779   1.768  14.240
53267W        W19808  10.788  43.110  11.700
53268W        W19809  27.237  39.289   1.966
53269W        W19810  25.705  35.898   1.771
53270W        W19811  34.051   6.632   1.879
53271W        W19812  21.569  25.923  12.250
53272W        W19813  30.181  34.865  12.065
53273W        W19814  17.532  35.869  14.817
53274W        W19815  31.082  38.090  11.502
53275W        W19816  40.825  19.001   2.845
53276W        W19817  41.941  21.235   4.657
53277W        W19818  10.353  17.320   4.136
53278W        W19819  41.906   3.940   3.598
53279W        W19820  35.318  42.856  14.841
53280W        W19821  43.916  10.890  10.749
53281W        W19822  36.841  10.258   3.622
53282W        W19823  11.691  20.744   2.777
53283W        W19824   9.234  43.642   3.259
53284W        W19825  40.215  32.992  11.152
53285W        W19826  28.424  24.742   2.448
53286W        W19827   9.433  33.521   1.594
53287W        W19828   8.201  35.023   3.110
53288W        W19829  23.207  18.335  13.699
53289W        W19830  29.463  23.033  13.140
53290W        W19831  20.445  34.741   1.329
53291W        W19832   4.703  38.505  13.284
53292W        W19833  43.452  42.942  10.682
53293W        W19834   4.823  13.534  13.013
53294W        W19835  27.217  44.845  10.542
53295W        W19836  28.002  15.267   3.059
53296W        W19837  12.394  30.947  13.435
53297W        W19838   0.273  22.456   1.804
53298W        W19839  39.402  18.075  12.380
53299W        W19840  10.921  33.566   1.793
53300W        W19841  19.232  16.747   4.603
53301W        W19842   5.748  23.589   2.121
53302W        W19843  10.091  43.885   1.421
53303W        W19844   2.446   8.899   1.363
53304W        W19845  25.804  21.041   1.207
53305W        W19846   6.219  31.773  14.502
53306W        W19847   7.422  24.187   0.425
53307W        W19848   4.341   6.848  10.871
53308W        W19849  29.448  10.103  11.567
53309W        W19850  29.568   6.650   1.682
53310W        W19851  25.423  33.121   4.744
53311W        W19852   5.531   7.562   1.761
53312W        W19853   0.307  34.874  12.124
53313W        W19854  30.552  13.115  12.016
53314W        W19855  16.227   5.372  13.945
53315W        W19856   4.763  32.516  10.519
53316W        W19857   9.155  37.882  14.517
53317W        W19858   6.769  42.150  13.676
53318W        W19859   0.018  37.124  13.065
53319W        W19860  33.422  33.533   9.833
53320W        W19861  18.374  30.221   4.026
53321W        W19862  19.509   2.894  12.539
53322W        W19863  29.006  27.941   0.150
53323W        W19864   1.684  20.895  12.986
53324W        W19865  26.684   2.286   4.693
53325W        W19866  40.635  43.520  11.865
53326W        W19867   1.378  16.152   0.659
53327W        W19868  36.855  17.844   0.774
53328W        W19869   6.409   3.992   3.258
53329W        W19870  24.779  14.751   3.749
53330W        W19871  21.842  42.403   3.638
53331W        W19872  24.470  18.218  12.996
53332W        W19873  14.954  41.392  12.118
53333W        W19874  12.870  43.271   4.605
53334W        W19875  32.736  24.955   4.177
53335W        W19876  23.653  36.674  12.001
53336W        W19877  24.048   2.429  12.232
53337W        W19878  24.142  19.056   2.163
53338W        W19879  25.301  42.671  13.788
53339W        W19880  40.482  39.419   0.505
53340W        W19881  13.490  11.142   2.808
53341W        W19882  10.047  26.097   2.970
53342W        W19883   5.460  13.854  11.198
53343W        W19884  34.637  23.783  14.336
53344W        W19885   3.647  33.907  13.776
53345W        W19886  33.976  23.215   1.930
53346W        W19887   9.824  41.016  11.088
53347W        W19888  39.097  38.109  13.949
53348W        W19889   1.274  14.161  13.438
53349W        W19890  38.719   9.323   5.005
53350W        W19891  13.527  25.634  12.422
53351W        W19892  16.648  40.873   4.830
53352W        W19893  36.855  43.424  14.903
53353W        W19894   5.959  43.874   0.318
53354W        W19895  30.581  27.995   4.114
53355W        W19896  23.196   0.946  10.189
53356W        W19897   3.383   8.144   2.656
53357W        W19898  15.685   8.796   5.023
53358W        W19899  35.553  23.541  11.909
53359W        W19900  12.722  37.251   4.229
53360W        W19901  36.281  22.755   3.200
53361W        W19902  30.155   3.859   0.869
53362W        W19903  15.077  25.674   1.745
53363W        W19904  42.937  30.142  13.092
53364W        W19905  33.129  12.654  14.619
53365W        W19906  37.730  32.627  12.865
53366W        W19907   3.446  30.883  14.027
53367W        W19908  41.837   2.154  11.224
53368W        W19909  36.485   9.186  13.138
53369W        W19910  26.498  36.644  13.714
53370W        W19911  16.121   9.007  10.296
53371W        W19912   0.199  25.628   1.759
53372W        W19913   4.100  41.465  12.980
53373W        W19914  31.259  29.462  12.535
53374W        W19915  15.373   7.417  11.197
53375W        W19916  22.252   9.897  13.412
53376W        W19917  14.000   7.271  11.486
53377W        W19918  16.177  38.980  14.090
53378W        W19919  28.625  12.635  13.763
53379W        W19920  23.133  43.287  14.400
53380W        W19921   8.890  16.898   4.551
53381W        W19922  11.638  11.127  11.962
53382W        W19923  23.203   5.395  12.588
53383W        W19924   0.757   7.349  13.061
53384W        W19925  41.506  13.797  14.231
53385W        W19926  36.803  28.514  13.356
53386W        W19927   4.066   9.370  13.211
53387W        W19928  30.976  44.452   2.725
53388W        W19929  15.626  16.149  11.646
53389W        W19930  41.768  15.165   0.495
53390W        W19931  11.746  28.633  14.155
53391W        W19932   8.493  32.343   0.965
53392W        W19933  14.421  36.992   2.101
53393W        W19934  38.054   5.380   4.703
53394W        W19935  27.967  19.808  14.231
53395W        W19936  13.018  10.015  14.531
53396W        W19937   0.796  44.049   9.375
53397W        W19938   2.717  35.599  11.453
53398W        W19939  38.942  19.110  14.384
53399W        W19940  15.226  29.419   2.239
53400W        W19941  25.938  29.055  13.612
53401W        W19942  23.405  22.877  12.325
53402W        W19943   1.540  44.360  10.674
53403W        W19944  32.763  13.580   1.397
53404W        W19945  14.387  36.479   4.850
53405W        W19946   5.683  44.219   4.043
53406W        W19947  38.396  22.579  11.593
53407W        W19948   0.322   4.271   2.713
53408W        W19949  40.793   9.933  10.624
53409W        W19950  39.043  39.093   2.671
53410W        W19951  29.152   2.263  11.510
53411W        W19952  42.022  18.582  12.993
53412W        W19953  19.439   4.802  13.889
53413W        W19954   0.279  16.148   4.665
53414W        W19955  24.756   2.994   2.971
53415W        W19956  42.823  28.304   4.042
53416W        W19957  32.936  19.365   0.345
53417W        W19958  19.241  30.490   3.861
53418W        W19959  26.765   9.603   1.021
53419W        W19960   2.858   4.040   0.856
53420W        W19961  12.355  44.024  12.629
53421W        W19962  29.512  26.975   3.675
53422W        W19963  26.681  39.926  10.061
53423W        W19964   8.288  12.299   2.275
53424W        W19965  12.480  12.961  13.323
53425W        W19966   6.347  12.535   3.390
53426W        W19967  24.433  16.375   2.189
53427W        W19968  21.132  12.842  11.072
53428W        W19969  25.170  13.619   0.943
53429W        W19970  30.694  21.089   2.296
53430W        W19971  17.865  32.327   0.054
53431W        W19972  19.580   3.265   0.160
53432W        W19973  32.045  21.191   2.768
53433W        W19974  26.782  32.000   0.934
53434W        W19975  44.449  37.751   4.564
53435W        W19976  16.374  14.627   4.112
53436W        W19977  43.986  19.047  12.801
53437W        W19978  22.022  32.257   1.664
53438W        W19979  44.742  14.675   2.803
53439W        W19980  43.983  24.123   1.425
53440W        W19981   5.431  20.790   4.127
53441W        W19982  29.546   1.254   1.429
53442W        W19983  32.673  33.939   2.395
53443W        W19984  19.838  25.529   4.412
53444W        W19985   6.279  23.080  10.681
53445W        W19986  44.943   0.481  10.712
53446W        W19987  38.575  32.900   1.183
53447W        W19988  30.409  40.684  10.891
53448W        W19989   1.692  41.215  11.034
53449W        W19990  11.525  21.307   2.269
53450W        W19991  15.133  26.265   2.744
53451W        W19992  22.133  43.775  10.757
53452W        W19993  35.054  21.621  13.514
53453W        W19994  11.268  39.581  10.659
53454W        W19995  19.108   9.355  14.917
53455W        W19996   2.182   1.004  14.421
53456W        W19997  15.299  42.920   2.189
53457W        W19998  26.554  17.529  14.833
53458W        W19999   4.998  25.519  13.991
53459W        W20000  38.964  21.652   1.245
53460W        W20001   2.041  29.078  11.104
53461W        W20002  22.763   4.058   3.692
53462W        W20003   9.866   4.492   3.524
53463W        W20004   1.424  19.249   2.721
53464W        W20005  39.820  17.247  14.436
53465W        W20006  19.684  20.058   2.729
53466W        W20007  11.594  16.197   2.693
53467W        W20008  33.196   1.241  14.055
53468W        W20009  17.835  41.022  11.303
53469W        W20010  34.597  15.642  11.949
53470W        W20011  18.300  42.495   4.205
53471W        W20012   1.214  29.770   2.808
53472W        W20013   6.464  14.288   0.394
53473W        W20014  36.533  41.025   1.328
53474W        W20015   4.665  28.446  13.528
53475W        W20016  23.526  26.565   0.570
53476W        W20017   2.263  17.061  10.950
53477W        W20018  42.789  39.235   2.226
53478W        W20019  17.938  20.462  10.512
53479W        W20020  22.326  30.222   2.939
53480W        W20021   9.430   4.313   4.141
53481W        W20022  15.279  36.165   2.640
53482W        W20023  38.374  17.200   4.648
53483W        W20024   2.336  31.022   2.317
53484W        W20025  28.150  26.970   3.838
53485W        W20026   3.374  28.143   4.095
53486W        W20027  18.326  26.131  13.551
53487W        W20028   4.209  23.967   0.375
53488W        W20029  22.488  35.036   2.281
53489W        W20030  17.585  31.905  14.437
53490W        W20031  16.224  40.899   3.550
53491W        W20032  39.129  43.165   2.316
53492W        W20033   0.900   7.642   2.299
53493W        W20034  15.511  31.472   0.675
53494W        W20035  22.486  25.432  12.612
53495W        W20036  31.692  15.151  11.620
53496W        W20037  18.233   6.355   0.519
53497W        W20038  35.835   5.404  14.846
53498W        W20039  37.395  26.233  11.026
53499W        W20040  23.157   6.109  11.130
53500W        W20041  21.061  24.471   1.256
53501W        W20042  30.944  44.256  12.528
53502W        W20043  42.439  31.066   4.550
53503W        W20044  27.521  34.588   2.901
53504W        W20045   5.862  42.832   3.143
53505W        W20046  21.564   6.072  12.640
53506W        W20047  40.043  25.978  11.536
53507W        W20048  29.390  14.135   2.695
53508W        W20049  33.073   8.478   2.236
53509W        W20050  38.056   4.686   2.681
53510W        W20051  43.305  31.971   1.219
53511W        W20052  43.186  43.114  13.833
53512W        W20053  44.506  12.776   3.982
53513W        W20054  24.013  25.198   4.460
53514W        W20055  31.124  15.332  12.976
53515W        W20056  32.936   7.260  13.378
53516W        W20057  42.121  29.860   4.573
53517W        W20058  28.738  32.245  13.423
53518W        W20059  39.860  44.545  11.285
53519W        W20060   0.675  19.060  13.500
53520W        W20061  40.512  34.566   1.892
53521W        W20062   5.881  40.167   0.844
53522W        W20063   5.457  18.607  13.892
53523W        W20064  15.380  30.924   4.570
53524W        W20065  44.417  12.833  14.539
53525W        W20066  23.000  12.728   3.147
53526W        W20067  12.567  40.259   0.872
53527W        W20068  31.028  22.748   2.778
53528W        W20069   2.939   2.616  12.124
53529W        W20070  12.762  11.737  14.448
53530W        W20071  28.099  27.094   0.991
53531W        W20072  26.723  18.005   3.594
53532W        W20073  26.415   5.326  11.977
53533W        W20074  21.353  17.313  13.616
53534W        W20075  10.911   9.800  12.429
53535W        W20076  18.689  15.237  14.984
53536W        W20077  27.578  21.049  14.172
53537W        W20078   9.235   7.887  11.182
53538W        W20079  19.433  34.596  14.689
53539W        W20080  22.286  21.914  14.685
53540W        W20081  44.244   3.554  13.541
53541W        W20082   2.735  15.545  11.988
53542W        W20083  12.611  33.659   3.605
53543W        W20084  19.356  18.616   0.589
53544W        W20085  42.868  40.099  14.482
53545W        W20086  28.647   1.035   4.729
53546W        W20087  17.763   3.234  13.887
53547W        W20088  38.785  14.430   1.583
53548W        W20089   4.829  27.509  10.706
53549W        W20090  24.624  14.648  12.387
53550W        W20091  11.676  13.154  12.165
53551W        W20092  10.837   7.216  14.433
53552W        W20093  21.025  36.062   1.697
53553W        W20094   1.947  35.338   2.453
53554W        W20095  35.253  37.956   3.516
53555W        W20096  23.681  11.796  12.978
53556W        W20097  39.371  40.758   0.500
53557W        W20098  39.280   4.504  12.090
53558W        W20099  40.864  15.329   0.449
53559W        W20100  25.495  11.186   3.273
53560W        W20101  24.400   0.112  14.945
53561W        W20102  11.372  34.193   0.420
53562W        W20103  41.175   9.082  10.793
53563W        W20104  41.195  16.526   1.269
53564W        W20105  30.681  22.706   2.394
53565W        W20106  43.982  41.402  11.153
53566W        W20107  44.325  28.079   4.527
53567W        W20108   2.388  30.131   0.482
53568W        W20109   0.422  37.111   3.838
53569W        W20110  41.586  25.043   0.601
53570W        W20111  11.603   8.769  10.901
53571W        W20112   4.216  31.998  12.447
53572W        W20113   9.671  40.685  10.638
53573W        W20114   9.772  44.889  10.859
53574W        W20115   0.246  16.395  13.445
53575W        W20116  28.730  36.228  13.695
53576W        W20117  34.428  43.500  14.163
53577W        W20118   1.274  29.492  12.031
53578W        W20119  28.926  19.752   4.149
53579W        W20120  17.633  12.395  13.431
53580W        W20121   5.435   5.193   4.130
53581W        W20122  36.819  13.843   2.964
53582W        W20123  11.861  29.524   3.923
53583W        W20124  17.125  37.114   4.810
53584W        W20125  31.389  43.127  13.995
53585W        W20126  27.690  12.265   3.164
53586W        W20127  42.314  21.277  12.935
53587W        W20128  31.163  43.312   0.353
53588W        W20129  42.013  24.036  12.008
53589W        W20130  41.250  35.458  11.414
53590W        W20131  12.712  24.701   3.266
53591W        W20132   3.968   7.103  14.964
53592W        W20133  19.926  18.220  10.532
53593W        W20134   6.967  24.191  12.533
53594W        W20135  36.959  41.290   0.405
53595W        W20136   6.995  33.150   1.833
53596W        W20137   8.714  24.411  13.588
53597W        W20138  29.100  28.933   1.222
53598W        W20139  34.308  41.382   0.370
53599W        W20140   6.868  23.716  11.629
53600W        W20141  10.929  26.693   1.362
53601W        W20142   1.947  34.912   2.180
53602W        W20143  22.651  38.665   4.915
53603W        W20144   6.567  13.253   2.159
53604W        W20145  15.832  37.811   1.167
53605W        W20146  12.332  24.659   0.322
53606W        W20147  26.804  18.037  11.224
53607W        W20148  33.558  19.574   2.653
53608W        W20149  14.833  17.086   3.250
53609W        W20150  17.295   3.205  14.281
53610W        W20151  20.981  42.807   1.507
53611W        W20152  19.655  29.037   4.799
53612W        W20153  10.662   7.348   2.898
53613W        W20154  12.643  36.041   2.279
53614W        W20155   5.821   5.761   3.315
53615W        W20156   5.820  24.317   0.357
53616W        W20157   6.293  37.936  14.911
53617W        W20158   6.749  36.712   4.660
53618W        W20159   8.176  18.189  12.964
53619W        W20160  42.393   5.831  11.182
53620W        W20161  11.485  38.481  11.472
53621W        W20162  33.614   9.693  14.463
53622W        W20163  40.471   8.143   4.186
53623W        W20164  32.466  21.519  13.405
53624W        W20165   7.640   2.572  11.550
53625W        W20166  16.164  35.368   1.408
53626W        W20167   2.862  27.833  11.993
53627W        W20168  10.804   3.877   2.390
53628W        W20169  11.373  29.232   4.058
53629W        W20170  26.027  18.078  13.319
53630W        W20171  10.879  35.384   2.585
53631W        W20172  38.839  37.813   0.376
53632W        W20173  18.576  31.933   1.706
53633W        W20174  38.339  17.659  12.814
53634W        W20175  25.532  44.492  10.400
53635W        W20176   2.031   3.463  10.953
53636W        W20177  25.815   1.948  13.027
53637W        W20178  34.717  38.119  14.363
53638W        W20179   3.846  20.226   2.664
53639W        W20180   4.262  12.370  11.954
53640W        W20181  30.081  26.798   0.996
53641W        W20182   3.264  27.457  13.996
53642W        W20183  35.050   4.839  13.963
53643W        W20184  31.803   8.964   4.847
53644W        W20185  43.290  19.691  13.782
53645W        W20186   8.670   0.975   4.689
53646W        W20187  43.251  39.901  13.794
53647W        W20188  42.401  25.999  12.692
53648W        W20189  26.711  41.512  11.438
53649W        W20190  38.986  40.799  10.955
53650W        W20191  25.082  34.728   0.489
53651W        W20192  36.455  10.119   4.908
53652W        W20193  37.591  19.329  13.815
53653W        W20194  13.111  37.057  10.567
53654W        W20195  19.221  17.081  11.557
53655W        W20196  28.990  37.931   2.269
53656W        W20197  43.901  19.988  12.590
53657W        W20198   3.521  10.651   0.390
53658W        W20199  38.129  17.995   3.728
53659W        W20200  22.776  25.743  13.577
53660W        W20201  10.001  29.790   5.097
53661W        W20202   6.842  28.095   3.536
53662W        W20203   4.821  38.783   3.346
53663W        W20204  38.515  16.051  11.993
53664W        W20205   5.574   4.978   0.195
53665W        W20206  13.128  28.240  12.371
53666W        W20207   9.126  35.706  14.357
53667W        W20208   4.640  30.184  11.482
53668W        W20209   3.922  22.221   0.425
53669W        W20210  19.749  43.379   0.429
53670W        W20211  15.811  38.077   0.146
53671W        W20212  15.102  27.166  14.090
53672W        W20213  15.172   6.755   3.907
53673W        W20214   6.200  26.319   0.436
53674W        W20215  36.489  31.526  13.060
53675W        W20216   6.904  44.687  12.622
53676W        W20217  42.869  34.606  10.728
53677W        W20218  33.951  24.913  13.895
53678W        W20219  16.662  18.587  12.060
53679W        W20220  15.593   4.608  13.906
53680W        W20221  25.728  43.052  12.925
53681W        W20222  33.022   5.903   1.014
53682W        W20223  39.011   5.125  10.626
53683W        W20224   3.341  14.589   0.831
53684W        W20225  29.093  43.311   4.372
53685W        W20226  43.082  24.889  14.091
53686W        W20227  11.911  25.109   3.104
53687W        W20228  38.827  19.794  13.856
53688W        W20229  41.482  10.297   3.353
53689W        W20230  43.774  10.568  14.543
53690W        W20231  43.461  17.891  11.050
53691W        W20232  12.066  26.443   3.203
53692W        W20233   1.271  16.150  14.831
53693W        W20234  30.456  29.157   2.658
53694W        W20235  17.951  12.321   3.596
53695W        W20236  12.158  25.912  12.402
53696W        W20237  31.882  28.970  14.516
53697W        W20238  33.623  44.008   4.723
53698W        W20239  20.813  43.182  12.758
53699W        W20240   6.461  31.731   2.121
53700W        W20241  20.016  30.729   4.674
53701W        W20242  44.241  35.366   3.136
53702W        W20243  22.703  41.412   4.191
53703W        W20244   2.757  20.255  14.543
53704W        W20245  44.059  29.936   0.452
53705W        W20246  23.746  37.373   2.214
53706W        W20247  12.312  16.679  12.585
53707W        W20248  41.372  35.179   3.350
53708W        W20249  42.827  43.718  13.275
53709W        W20250  40.548  29.673   2.134
53710W        W20251  12.608   8.782  14.438
53711W        W20252   7.372  14.806   4.076
53712W        W20253  29.962  37.258   1.645
53713W        W20254  44.846  35.317  14.428
53714W        W20255   4.301  38.661  13.555
53715W        W20256  26.596  32.658  10.594
53716W        W20257  22.128  13.088  12.101
53717W        W20258   6.774   4.635   2.339
53718W        W20259  27.610   6.912  11.931
53719W        W20260  13.256  44.893   4.464
53720W        W20261  13.789  38.368   3.783
53721W        W20262  12.747  14.552   4.558
53722W        W20263  30.446  17.999  10.538
53723W        W20264  14.188   0.455   1.677
53724W        W20265   2.641  42.594   3.925
53725W        W20266   1.038  12.857   2.585
53726W        W20267  18.762   0.119  14.151
53727W        W20268  22.789   5.347  14.028
53728W        W20269  30.474  20.176   1.333
53729W        W20270  18.127  27.199   4.716
53730W        W20271  33.624   1.127   1.234
53731W        W20272  35.399  18.299  12.007
53732W        W20273   3.258  40.791   3.256
53733W        W20274  22.629  33.376  11.872
53734W        W20275   5.977  18.402  11.076
53735W        W20276  24.717   8.758  10.776
53736W        W20277  10.398  16.839  12.553
53737W        W20278  44.558   9.870   2.774
53738W        W20279  26.208  35.320   1.047
53739W        W20280  29.549  11.953  12.617
53740W        W20281  27.208  14.287   3.049
53741W        W20282  14.646  40.523  11.056
53742W        W20283  17.575  34.638   1.343
53743W        W20284  42.917  42.840   1.396
53744W        W20285   5.183  42.927  14.518
53745W        W20286  14.603  35.598   0.724
53746W        W20287  22.570  27.965   1.465
53747W        W20288  35.049  17.091   0.224
53748W        W20289  37.230  29.272   2.615
53749W        W20290   4.339  34.059  10.793
53750W        W20291  19.110  21.196  13.994
53751W        W20292  40.637  30.438  13.628
53752W        W20293   6.855  26.197  14.305
53753W        W20294  22.669  21.847   1.375
53754W        W20295   3.108  33.614  14.886
53755W        W20296  27.731  14.214   1.203
53756W        W20297  13.361  34.135  13.847
53757W        W20298  20.316  40.801   0.305
53758W        W20299  43.342  11.918   0.270
53759W        W20300  11.634   5.728  10.957
53760W        W20301  36.292  26.880  12.061
53761W        W20302   9.394  13.266  10.426
53762W        W20303  12.286  18.196   3.747
53763W        W20304  30.274  18.806  11.741
53764W        W20305  25.979  28.716  11.104
53765W        W20306  44.491   8.875   2.731
53766W        W20307  40.491   8.804   3.031
53767W        W20308   7.944  17.845   2.109
53768W        W20309   1.262  16.750   4.165
53769W        W20310  31.724   0.368  14.073
53770W        W20311  41.282  16.657  14.528
53771W        W20312   8.177  17.927  12.498
53772W        W20313  39.376  37.472  13.093
53773W        W20314  14.636   8.929   4.023
53774W        W20315  11.322  38.806   1.250
53775W        W20316  10.423  37.877  14.105
53776W        W20317  24.637  10.907   0.350
53777W        W20318  30.604   2.465  13.087
53778W        W20319  35.540   7.880  13.436
53779W        W20320  16.082  22.794  13.889
53780W        W20321  38.279   6.749   0.268
53781W        W20322   0.903  30.490  11.559
53782W        W20323  36.327  14.374  12.391
53783W        W20324  42.736  19.363  13.260
53784W        W20325  24.137   1.256  14.273
53785W        W20326  38.126  22.442  11.146
53786W        W20327  30.576  19.525   3.197
53787W        W20328  15.338  27.740  12.857
53788W        W20329  14.923  24.229  12.303
53789W        W20330  21.035  13.283   3.265
53790W        W20331   5.748  28.477   1.261
53791W        W20332  31.580  35.922  10.600
53792W        W20333  16.195  20.739  12.318
53793W        W20334  15.775  32.481  14.987
53794W        W20335   8.417  38.622   0.352
53795W        W20336   8.793  21.533  13.328
53796W        W20337  13.313   1.809   3.132
53797W        W20338  43.948   9.604   2.320
53798W        W20339   1.901  44.589   2.619
53799W        W20340  40.814  13.765   1.899
53800W        W20341  11.156  44.819  13.326
53801W        W20342  27.717  33.024  12.165
53802W        W20343  31.358   4.399  12.859
53803W        W20344   0.905  42.738   2.826
53804W        W20345  15.155  11.141  11.526
53805W        W20346  38.278   3.189  12.674
53806W        W20347  41.761  33.341   0.962
53807W        W20348  41.074  18.024   4.543
53808W        W20349  25.661  15.774   1.319
53809W        W20350  12.212  26.152   1.421
53810W        W20351  28.347   2.991   3.622
53811W        W20352  22.892  22.465   3.628
53812W        W20353   5.073  10.730  11.667
53813W        W20354  26.363  23.149   0.809
53814W        W20355   0.004  18.106  14.731
53815W        W20356  25.557  21.170   3.332
53816W        W20357  30.857  15.493  13.389
53817W        W20358  16.141  35.324   0.365
53818W        W20359  37.786  18.498   1.002
53819W        W20360  41.257  16.645  11.421
53820W        W20361  24.764   0.941   2.975
53821W        W20362   3.382  38.827   0.261
53822W        W20363   3.595  21.258  13.450
53823W        W20364  43.836  21.763  11.969
53824W        W20365  14.802  16.310  11.209
53825W        W20366   6.686  14.595  12.354
53826W        W20367  20.738  23.892  12.041
53827W        W20368  15.729  30.019   0.822
53828W        W20369  28.441   1.624   2.982
53829W        W20370  22.574  29.159  12.065
53830W        W20371  30.632  18.819  14.244
53831W        W20372  36.440  27.650   2.327
53832W        W20373   7.052  24.705  13.359
53833W        W20374  14.544  24.769   2.103
53834W        W20375  15.658  40.260  14.913
53835W        W20376  36.489  36.374  11.644
53836W        W20377  10.003  11.675  12.651
53837W        W20378  18.312   1.553  14.888
53838W        W20379  36.423   7.230  13.765
53839W        W20380  10.389  30.575  12.023
53840W        W20381  22.668  11.344   3.982
53841W        W20382  35.671  34.652   2.261
53842W        W20383  28.169  37.643  12.958
53843W        W20384   6.916  40.417   2.722
53844W        W20385   9.123   4.387   0.571
53845W        W20386  43.355   0.239   3.707
53846W        W20387  25.399  43.059  11.273
53847W        W20388  37.386  11.404  13.214
53848W        W20389  36.396   1.861  12.475
53849W        W20390  27.104  31.065  14.768
53850W        W20391  36.213   0.022   2.748
53851W        W20392  10.898  39.178   2.585
53852W        W20393  12.979  31.636   0.182
53853W        W20394  40.906  28.445  13.515
53854W        W20395  20.807  19.179   0.980
53855W        W20396  38.751  21.825  13.815
53856W        W20397  19.054  14.677  13.455
53857W        W20398   8.159  33.434   3.196
53858W        W20399   1.524  31.529   3.156
53859W        W20400   7.613  24.036  14.961
53860W        W20401  37.403  29.087  13.581
53861W        W20402  43.875   2.024   3.389
53862W        W20403  16.925  18.908   2.380
53863W        W20404  19.079   5.734   4.700
53864W        W20405  17.335  33.211   1.836
53865W        W20406  21.209  18.579   0.261
53866W        W20407  14.099  19.165   1.850
53867W        W20408  43.171  41.149  10.215
53868W        W20409  21.194  33.086  10.687
53869W        W20410  33.622  13.401  14.451
53870W        W20411  14.912  12.834   4.923
53871W        W20412  29.827  10.605  12.371
53872W        W20413  20.451  29.761   1.352
53873W        W20414  26.414   0.074   4.573
53874W        W20415  24.295  17.185   1.323
53875W        W20416  22.596  16.046  13.625
53876W        W20417  25.067  36.552   4.552
53877W        W20418  28.042  36.850  13.941
53878W        W20419  33.320  11.694   2.368
53879W        W20420  12.750  30.544  13.515
53880W        W20421  31.602   4.829   3.208
53881W        W20422  21.395  27.040   2.664
53882W        W20423   8.484   8.120  13.135
53883W        W20424  43.500  33.129  13.970
53884W        W20425  43.462   8.920   3.992
53885W        W20426   6.138  17.354   5.015
53886W        W20427   5.092  15.489   0.947
53887W        W20428   3.190  14.694  14.877
53888W        W20429   1.263  28.524  10.727
53889W        W20430  26.178  36.804  12.245
53890W        W20431  16.575  13.879  10.071
53891W        W20432  25.537  19.853  14.325
53892W        W20433  19.077   7.652  12.769
53893W        W20434  23.493  10.495  13.031
53894W        W20435  15.606  42.551  11.924
53895W        W20436  37.482   0.294  10.903
53896W        W20437  22.599  37.118   1.862
53897W        W20438  33.118  20.656  13.774
53898W        W20439  22.678  34.108  13.071
53899W        W20440  20.194  19.820   4.054
53900W        W20441  29.937  30.142  14.000
53901W        W20442   6.185  20.179   3.752
53902W        W20443   5.228   2.897   1.751
53903W        W20444  27.765  23.851   0.883
53904W        W20445  39.740  33.076   4.353
53905W        W20446  19.625  32.379   3.725
53906W        W20447  39.343  31.981   1.005
53907W        W20448  43.155  22.742   2.376
53908W        W20449   0.145  12.640   3.030
53909W        W20450  43.443  24.131  11.050
53910W        W20451  12.101  36.704   2.294
53911W        W20452  41.048  41.990  13.536
53912W        W20453  29.976   2.994   0.020
53913W        W20454  38.329  14.019   5.220
53914W        W20455   7.389  14.980  13.514
53915W        W20456  40.594  22.736  11.091
53916W        W20457   2.363  33.577   4.772
53917W        W20458  24.583  32.100   2.105
53918W        W20459  17.955  16.978  12.768
53919W        W20460  20.183  11.192  12.000
53920W        W20461  23.768  24.219   0.879
53921W        W20462  31.458  14.662   5.397
53922W        W20463   2.816  44.478   0.920
53923W        W20464  36.046  21.572  13.914
53924W        W20465  40.788   5.115  12.981
53925W        W20466  26.446  13.805  13.546
53926W        W20467  42.662  44.671   3.595
53927W        W20468  37.001  18.238  11.596
53928W        W20469   5.465   7.915   3.458
53929W        W20470  33.195  35.496  14.275
53930W        W20471  28.192  27.155  11.672
53931W        W20472  29.558  10.832   1.538
53932W        W20473  24.684  22.668  10.944
53933W        W20474   7.461  44.388  13.924
53934W        W20475  44.249  16.838   2.948
53935W        W20476   6.502  15.133   0.859
53936W        W20477  14.679  27.427  13.333
53937W        W20478  24.477  15.200   4.841
53938W        W20479  37.282  15.700  10.112
53939W        W20480   8.858  15.279  13.318
53940W        W20481  43.935  12.658  12.394
53941W        W20482  23.724  10.817  13.414
53942W        W20483  16.929  36.300  12.881
53943W        W20484  25.791  42.864  13.817
53944W        W20485  22.619  30.826  12.564
53945W        W20486   0.371   1.511  14.723
53946W        W20487  19.421  24.704  14.907
53947W        W20488  42.985  12.913  14.327
53948W        W20489  22.838  11.347  13.395
53949W        W20490   6.149   8.172  11.739
53950W        W20491   5.645  37.208   3.530
53951W        W20492  33.651  13.518  10.248
53952W        W20493  18.734  32.055  11.170
53953W        W20494  25.668  32.954  14.929
53954W        W20495  41.030  35.609   0.168
53955W        W20496  22.467  10.859  11.131
53956W        W20497  41.671  16.044   0.765
53957W        W20498  21.823  21.327   3.704
53958W        W20499  23.983  42.805   0.443
53959W        W20500  16.343  37.450   3.702
53960W        W20501  20.833  34.538  13.972
53961W        W20502  32.898   2.074   1.732
53962W        W20503  14.914  38.074  14.454
53963W        W20504  10.409  40.980  11.584
53964W        W20505   7.374  12.176   1.138
53965W        W20506  34.648  24.165   4.736
53966W        W20507  10.408   4.317  11.410
53967W        W20508  25.947  14.646   0.910
53968W        W20509  23.814  19.926  11.051
53969W        W20510  26.612  28.277   0.285
53970W        W20511  15.509   3.419   1.681
53971W        W20512  24.759  31.405  13.064
53972W        W20513   6.751  30.464  14.055
53973W        W20514  39.623  40.060   3.621
53974W        W20515  20.208  26.508   0.560
53975W        W20516  22.095   3.217  14.535
53976W        W20517  39.576  28.943  14.809
53977W        W20518   5.581  27.991  11.503
53978W        W20519  34.532  35.103  14.762
53979W        W20520   1.038  36.412  12.628
53980W        W20521  21.272  20.077  14.793
53981W        W20522  44.959   9.566  10.504
53982W        W20523  13.266   0.244  12.531
53983W        W20524   0.808  19.288   0.364
53984W        W20525  29.966  14.764  11.965
53985W        W20526  43.267   2.540  11.210
53986W        W20527   6.168   6.198  14.251
53987W        W20528  29.784  16.801  14.870
53988W        W20529  13.947   1.494   3.902
53989W        W20530  39.498   9.426   1.437
53990W        W20531  35.327   3.355   3.038
53991W        W20532  43.387  25.784  12.899
53992W        W20533  44.274  22.544  14.803
53993W        W20534  33.883   7.195   4.139
53994W        W20535  42.075   8.821   0.971
53995W        W20536  30.768  11.328   3.802
53996W        W20537   7.568  10.417  12.874
53997W        W20538  27.403  37.442   1.727
53998W        W20539   7.758   1.540  11.474
53999W        W20540  35.431  17.182  11.735
54000W        W20541  41.756  35.362   3.657
54001W        W20542  41.844  34.070   1.679
54002W        W20543  22.804   6.216   3.249
54003W        W20544  43.561  29.146  10.742
54004W        W20545  14.609  14.037   4.308
54005W        W20546  40.904  10.714  12.855
54006W        W20547  23.705  33.647   1.762
54007W        W20548  43.882  40.481  13.192
54008W        W20549  41.045  42.164   3.684
54009W        W20550  14.800  24.542  13.626
54010W        W20551   9.524  13.754  13.564
54011W        W20552  24.775  42.890   2.868
54012W        W20553  22.840  10.846   2.585
54013W        W20554  37.645   5.696  13.367
54014W        W20555   1.043   9.731  13.579
54015W        W20556  42.738  32.423  12.278
54016W        W20557  10.890   8.909   0.772
54017W        W20558  17.541  20.370  11.689
54018W        W20559  36.082  28.949   4.356
54019W        W20560   5.323  33.051  11.053
54020W        W20561  14.456   0.695   1.277
54021W        W20562  14.494   8.596   1.915
54022W        W20563  38.689  34.404   3.674
54023W        W20564   3.348  17.141   2.725
54024W        W20565  20.968   7.397   0.084
54025W        W20566  39.083  11.165  12.928
54026W        W20567  19.264  19.839   3.123
54027W        W20568  37.677  39.550   0.274
54028W        W20569  19.617  23.751  11.111
54029W        W20570  43.436  28.739  14.828
54030W        W20571  12.274  17.492   1.493
54031W        W20572  43.025  23.167  12.938
54032W        W20573  43.898  15.871   2.819
54033W        W20574  11.224  41.247   3.643
54034W        W20575  36.035  36.417   2.370
54035W        W20576  25.532  10.713   2.250
54036W        W20577  36.359  37.051   1.456
54037W        W20578  34.072  20.733  11.084
54038W        W20579   7.906   1.432  14.962
54039W        W20580  15.422  44.537   0.112
54040W        W20581  17.454  39.107   4.584
54041W        W20582  16.729  41.794   1.281
54042W        W20583  14.780  39.919   3.532
54043W        W20584   2.991   1.752   1.727
54044W        W20585  21.660  33.850   2.780
54045W        W20586   3.183  25.091   0.180
54046W        W20587   6.696  30.720   4.140
54047W        W20588  18.798  41.083   2.126
54048W        W20589  39.283  31.454   1.788
54049W        W20590  44.073   0.095  13.431
54050W        W20591  19.382   7.197  13.968
54051W        W20592   7.961  44.359   3.781
54052W        W20593  17.123  24.588  13.862
54053W        W20594  14.637  32.219   1.286
54054W        W20595  20.645  21.305   1.232
54055W        W20596  34.632  37.083  11.133
54056W        W20597  30.860  44.423  13.438
54057W        W20598   3.674  33.060   1.392
54058W        W20599  42.926  28.947  13.954
54059W        W20600  38.173  34.665   5.118
54060W        W20601  28.577   9.301   3.351
54061W        W20602  12.008   1.520  13.979
54062W        W20603  39.257  40.387   3.452
54063W        W20604  25.803  30.098  14.728
54064W        W20605  13.149  29.226  12.446
54065W        W20606  11.269   6.677  13.294
54066W        W20607  43.933  40.960  11.896
54067W        W20608   5.768  44.697   3.151
54068W        W20609  29.379  32.126  10.783
54069W        W20610  37.879   3.885  12.015
54070W        W20611  21.018  42.742  10.748
54071W        W20612  13.558  15.800   0.345
54072W        W20613  34.877  36.770   3.489
54073W        W20614   8.675   4.695   5.035
54074W        W20615   9.743  29.678   3.865
54075W        W20616   5.163  18.801  10.809
54076W        W20617  38.793  18.793  10.876
54077W        W20618  36.375   9.878  13.889
54078W        W20619   6.656  30.352  13.566
54079W        W20620  22.557  37.611   2.783
54080W        W20621   7.539   6.341  14.233
54081W        W20622  30.922  32.518  11.143
54082W        W20623  29.978  31.053  10.728
54083W        W20624   1.648   8.291  11.273
54084W        W20625  41.271   4.297   3.273
54085W        W20626  41.385   2.919  13.249
54086W        W20627  33.862  12.476  13.706
54087W        W20628   6.603  39.297  13.061
54088W        W20629  29.226   6.015   2.790
54089W        W20630  17.121  37.617   0.944
54090W        W20631  40.234  30.550   1.310
54091W        W20632  34.015  14.631   3.703
54092W        W20633  33.902  36.259  11.638
54093W        W20634   9.674  29.194   3.631
54094W        W20635  40.306  24.192   1.761
54095W        W20636  16.581  25.052  14.458
54096W        W20637  37.869  34.067  13.762
54097W        W20638  19.122   4.753   0.877
54098W        W20639  27.201  17.249  13.887
54099W        W20640  19.765   9.879   0.315
54100W        W20641  18.881   9.160   2.889
54101W        W20642  10.749  20.500  13.145
54102W        W20643  44.534  31.106  14.493
54103W        W20644  13.117   2.732  11.409
54104W        W20645  41.415  43.385   4.393
54105W        W20646  14.115   0.740  11.140
54106W        W20647  27.168  11.821   0.308
54107W        W20648  16.325  32.139   1.075
54108W        W20649   6.569  12.308  11.600
54109W        W20650  42.294   2.629   3.155
54110W        W20651   1.736  39.298   3.339
54111W        W20652   9.312  16.814   3.244
54112W        W20653  26.482   9.866   4.274
54113W        W20654  40.960  24.256  13.947
54114W        W20655  19.561  16.611   2.045
54115W        W20656   5.868  29.770   4.866
54116W        W20657  44.752   1.890   4.200
54117W        W20658  40.411  18.925  11.599
54118W        W20659  41.963  44.029   1.813
54119W        W20660   2.502   0.854  14.045
54120W        W20661  38.890  13.944   0.686
54121W        W20662  15.381  10.755  14.719
54122W        W20663  31.900  38.068  13.771
54123W        W20664  13.792  17.161   2.416
54124W        W20665  41.268  23.227   1.369
54125W        W20666  37.230  13.937   9.549
54126W        W20667  29.465  10.333   2.295
54127W        W20668  26.210  31.522   1.657
54128W        W20669  26.567  30.603  12.144
54129W        W20670  18.989  10.792  12.060
54130W        W20671  32.654  18.682  10.665
54131W        W20672  25.767  12.784  11.828
54132W        W20673   7.292  44.534   1.361
54133W        W20674  12.096   9.170  12.437
54134W        W20675  21.527  25.887   0.322
54135W        W20676  39.021  26.599  11.003
54136W        W20677  20.782  10.845  11.481
54137W        W20678  34.789  44.273  13.662
54138W        W20679  21.689   7.022  10.846
54139W        W20680  19.414  15.328  14.012
54140W        W20681  43.868  34.903  12.452
54141W        W20682  31.131  12.328   1.924
54142W        W20683  36.868  18.612   1.484
54143W        W20684  23.279  15.359   4.173
54144W        W20685  32.840  30.131   1.399
54145W        W20686   3.927  21.052  10.516
54146W        W20687  41.385  40.787   0.862
54147W        W20688  26.480  21.197  11.950
54148W        W20689   0.738  13.175  10.563
54149W        W20690  42.423  17.515  13.515
54150W        W20691  13.285  40.915   0.898
54151W        W20692  22.927  26.508   3.313
54152W        W20693  10.343  23.060  14.484
54153W        W20694   4.536  11.182   4.533
54154W        W20695  32.657  17.097   0.715
54155W        W20696  40.246  34.140  13.929
54156W        W20697  17.122   1.417  12.932
54157W        W20698  32.040  41.764  13.782
54158W        W20699   2.943  41.873  13.631
54159W        W20700  20.111  41.254   0.423
54160W        W20701  20.767   8.387  14.004
54161W        W20702  35.183   2.485   1.728
54162W        W20703  28.719  11.845  13.195
54163W        W20704  36.946  44.443   4.346
54164W        W20705  18.503  38.876   4.987
54165W        W20706  19.497  43.203  13.982
54166W        W20707  43.332  15.619  13.180
54167W        W20708  30.128  14.068   4.483
54168W        W20709   1.996  28.057  13.808
54169W        W20710  20.004   3.067   4.532
54170W        W20711   7.757   5.642  12.008
54171W        W20712  18.616  30.617   4.284
54172W        W20713  10.882  36.496  11.926
54173W        W20714   9.887  37.386   1.494
54174W        W20715  11.416  18.593  12.909
54175W        W20716  39.673  39.782   2.728
54176W        W20717   7.534  38.931   1.905
54177W        W20718   8.191  44.346  14.582
54178W        W20719   1.061  27.854  12.194
54179W        W20720  23.178  34.998  12.855
54180W        W20721  12.943  15.649  12.667
54181W        W20722  38.920  39.030  14.040
54182W        W20723  15.637  43.982   1.293
54183W        W20724   4.997  39.358  12.783
54184W        W20725  38.285  13.433  13.003
54185W        W20726  17.184   5.165  12.339
54186W        W20727  39.397  10.362   3.630
54187W        W20728   1.949  11.660   3.538
54188W        W20729  24.926  41.257   3.027
54189W        W20730   8.713   0.202   2.419
54190W        W20731  23.761  42.501   3.202
54191W        W20732  37.628  41.319   0.068
54192W        W20733  34.143   8.823  13.024
54193W        W20734  43.492  35.456  13.806
54194W        W20735  33.459  21.188   2.274
54195W        W20736   3.920  40.168   4.136
54196W        W20737  23.230  41.299   3.457
54197W        W20738  40.559  19.275  11.255
54198W        W20739  24.558  19.309  12.345
54199W        W20740  12.504   0.086   0.458
54200W        W20741  39.370  16.664   0.224
54201W        W20742  19.257  33.835  14.000
54202W        W20743  19.473  12.220  10.572
54203W        W20744  17.003  21.514   5.033
54204W        W20745  42.095  32.970  12.997
54205W        W20746   3.347  19.710  14.587
54206W        W20747  34.896   0.317  10.753
54207W        W20748  22.089  39.358   2.406
54208W        W20749  43.058  24.633  11.647
54209W        W20750   9.347  26.831  14.437
54210W        W20751  37.322  28.979   3.675
54211W        W20752  13.890  33.897  12.092
54212W        W20753  26.968  25.210  10.654
54213W        W20754  27.743   2.921  12.790
54214W        W20755  27.921   0.957   2.036
54215W        W20756  25.940  32.971   2.489
54216W        W20757  41.438  29.151   2.080
54217W        W20758  16.267   8.764  14.328
54218W        W20759  25.511  25.904   2.164
54219W        W20760  34.635  17.512  11.686
54220W        W20761  26.732  29.431   3.814
54221W        W20762  39.114   1.833  14.846
54222W        W20763  23.465  11.230  13.601
54223W        W20764  21.199  22.245  14.388
54224W        W20765  43.930  31.456   3.352
54225W        W20766  43.861   7.569  14.832
54226W        W20767  23.947  26.535  12.527
54227W        W20768   4.360  39.020   4.558
54228W        W20769  12.034  13.310  11.204
54229W        W20770  14.400  41.464   3.680
54230W        W20771   0.420  11.751   1.834
54231W        W20772  24.496  15.111  14.292
54232W        W20773   7.656  43.117  11.226
54233W        W20774  43.923  10.047   1.377
54234W        W20775   5.200  39.869   2.651
54235W        W20776  18.836   3.274  13.155
54236W        W20777  21.917  36.039   3.975
54237W        W20778  17.902   8.252   3.777
54238W        W20779  43.368  31.454   0.900
54239W        W20780  41.032  14.680  11.667
54240W        W20781  27.214  17.115  11.219
54241W        W20782  26.504  18.028  13.534
54242W        W20783  26.099  25.140   3.569
54243W        W20784  35.396   7.758  12.163
54244W        W20785   8.070  23.609   2.181
54245W        W20786  12.691  20.141   0.390
54246W        W20787  32.616  42.897  10.566
54247W        W20788  19.686   6.871   0.280
54248W        W20789  26.066   6.112  14.492
54249W        W20790  41.433   1.729   1.891
54250W        W20791  23.235  34.091   2.491
54251W        W20792  15.936  13.081   1.700
54252W        W20793  27.931   5.470  12.931
54253W        W20794  20.909  24.392   3.576
54254W        W20795  29.574  15.184   1.781
54255W        W20796  41.767   0.361  11.955
54256W        W20797   8.410   8.591  11.512
54257W        W20798  44.416   0.829  10.780
54258W        W20799  43.072   2.092  11.002
54259W        W20800  17.308  42.331   2.394
54260W        W20801  27.184  21.668  13.989
54261W        W20802   0.660   1.272   3.613
54262W        W20803   9.619  28.396   0.851
54263W        W20804  20.947   4.984   2.156
54264W        W20805  26.041  21.435  12.076
54265W        W20806  16.755  29.962   3.153
54266W        W20807  10.520  35.594   2.256
54267W        W20808   2.496  43.800   2.908
54268W        W20809   7.060  36.642  14.907
54269W        W20810  37.018  11.756   4.529
54270W        W20811  21.581  20.149  11.751
54271W        W20812  20.526  43.837   4.212
54272W        W20813  18.269  23.412  13.512
54273W        W20814  23.649  19.153   1.294
54274W        W20815  15.306  10.103  13.362
54275W        W20816  23.426  16.536  12.993
54276W        W20817  44.972  18.824   2.845
54277W        W20818  37.684  26.582  14.522
54278W        W20819  11.204  13.253  12.432
54279W        W20820  37.099   1.415   2.529
54280W        W20821  24.989  32.152   0.246
54281W        W20822  18.657  24.002   2.889
54282W        W20823   2.650  28.610  10.716
54283W        W20824  18.962  13.579  10.730
54284W        W20825  12.950  34.681  14.298
54285W        W20826  43.650  42.971  14.716
54286W        W20827  20.913  33.367   0.187
54287W        W20828  42.764  12.365  13.861
54288W        W20829  39.978  43.104  12.369
54289W        W20830  38.009  30.506  11.757
54290W        W20831  41.173   3.733   0.923
54291W        W20832  30.944  36.939  13.048
54292W        W20833  27.916  16.697   0.039
54293W        W20834   3.415  40.522  12.974
54294W        W20835  16.540   7.953  14.135
54295W        W20836  10.763  33.121  13.052
54296W        W20837  14.701   3.758  14.155
54297W        W20838  11.238  29.159  12.266
54298W        W20839  42.028  30.959  11.508
54299W        W20840   2.172  33.488   0.050
54300W        W20841  44.500  23.226  10.477
54301W        W20842   6.542  16.094  10.372
54302W        W20843   3.030  12.595   0.744
54303W        W20844   7.806  32.441  11.500
54304W        W20845  21.580  30.730  14.965
54305W        W20846  43.262  32.403   3.668
54306W        W20847  11.388   6.949  11.800
54307W        W20848  11.384  24.199   3.189
54308W        W20849  33.075  17.136  14.284
54309W        W20850   1.425  24.440  12.992
54310W        W20851   6.746  11.706  12.483
54311W        W20852  30.065  17.974  11.360
54312W        W20853   1.714  29.968   2.809
54313W        W20854  42.020  21.002  12.623
54314W        W20855   6.987  18.462  13.826
54315W        W20856  12.124  17.081   4.629
54316W        W20857  19.740   3.991  14.318
54317W        W20858   1.953  36.454   1.465
54318W        W20859   1.564  16.575   0.921
54319W        W20860  44.416   1.388  12.231
54320W        W20861  26.675   7.434   2.183
54321W        W20862  19.678  16.651  12.654
54322W        W20863  20.087   8.739   0.656
54323W        W20864  36.724  24.484  13.651
54324W        W20865  24.599  31.444  10.859
54325W        W20866   5.320  12.240   0.674
54326W        W20867  34.616  43.446   1.395
54327W        W20868  23.410  18.736  14.842
54328W        W20869  44.792  35.894   0.351
54329W        W20870  24.019  10.629  14.311
54330W        W20871  20.674   7.423  13.892
54331W        W20872  10.768   8.444  13.902
54332W        W20873  10.196   0.711  10.665
54333W        W20874  25.959  23.148  13.622
54334W        W20875  27.042  17.647   2.302
54335W        W20876  19.310   0.201  11.204
54336W        W20877  11.092  30.433   3.264
54337W        W20878  32.973  10.716  14.116
54338W        W20879  29.966  26.599  13.840
54339W        W20880  17.964   8.098  13.100
54340W        W20881  35.614  24.257  13.510
54341W        W20882  13.084   1.336  10.748
54342W        W20883  11.842  15.314  13.570
54343W        W20884  13.286  20.805  12.928
54344W        W20885  22.246  30.140   4.524
54345W        W20886  30.836  28.526   0.972
54346W        W20887  21.225  41.279  12.109
54347W        W20888  20.182  26.149   4.549
54348W        W20889  28.121  44.864  14.441
54349W        W20890  25.604  31.777   3.935
54350W        W20891  33.076  39.370   1.328
54351W        W20892  40.379  31.914   1.464
54352W        W20893  21.540  10.428  11.588
54353W        W20894  33.126  41.942  10.889
54354W        W20895  25.288  41.250   2.652
54355W        W20896  26.669  44.785  10.650
54356W        W20897   4.811  21.078  11.161
54357W        W20898   6.572   2.967   3.169
54358W        W20899  12.788  14.574   4.056
54359W        W20900  25.680   2.854   4.762
54360W        W20901   6.087   7.675  12.479
54361W        W20902  16.792   1.200   3.314
54362W        W20903  41.147   6.885   1.773
54363W        W20904  19.601  22.561  12.511
54364W        W20905  23.213  12.274   3.262
54365W        W20906  33.883  44.908   1.349
54366W        W20907  13.924   5.423  12.384
54367W        W20908  40.871  28.837   3.612
54368W        W20909  31.145  37.266  10.364
54369W        W20910  35.151  25.671  10.759
54370W        W20911  40.808  28.681  13.074
54371W        W20912  32.904  38.875   2.289
54372W        W20913  19.622  41.021   1.766
54373W        W20914  41.176   4.670   1.845
54374W        W20915   9.433  39.932  14.359
54375W        W20916  14.220   8.813  12.915
54376W        W20917  16.223  19.706  10.736
54377W        W20918   4.292  27.975   2.797
54378W        W20919   4.286   8.897   4.776
54379W        W20920  26.123  33.895   4.535
54380W        W20921  28.982  23.597  11.144
54381W        W20922  17.237   7.229   2.244
54382W        W20923  29.400  24.454   3.765
54383W        W20924  28.041   9.372   3.631
54384W        W20925  21.256  34.105  10.574
54385W        W20926  24.093   5.208  13.612
54386W        W20927   0.924  33.434   1.362
54387W        W20928   4.897   0.870  13.575
54388W        W20929  22.168  13.849  13.179
54389W        W20930  16.846  35.975   3.577
54390W        W20931  26.111  11.231  11.290
54391W        W20932  36.453  37.921  13.520
54392W        W20933  33.073  29.898  10.769
54393W        W20934  34.730  22.658  11.084
54394W        W20935  20.060  21.066   3.137
54395W        W20936  35.171  32.101  11.320
54396W        W20937   1.225  38.309  14.377
54397W        W20938  17.827  39.524   0.311
54398W        W20939  14.213  26.227  12.994
54399W        W20940  10.889  26.314   3.267
54400W        W20941  38.005   0.424  13.164
54401W        W20942  27.040  40.972   1.289
54402W        W20943  13.291  43.775   1.659
54403W        W20944  32.268  28.716  12.046
54404W        W20945  42.589  23.037  14.794
54405W        W20946  20.142  20.515   2.610
54406W        W20947  37.983  19.529  11.964
54407W        W20948  32.916   4.294  12.024
54408W        W20949  42.038  16.121   3.857
54409W        W20950  25.598  13.431  14.964
54410W        W20951  28.620  22.530  10.635
54411W        W20952  37.310  37.353   0.429
54412W        W20953  26.448  36.165  10.934
54413W        W20954  25.002  21.809   3.179
54414W        W20955   8.318  39.937  11.680
54415W        W20956  30.417  35.522   3.859
54416W        W20957  20.881  27.236   2.708
54417W        W20958   9.293  39.676   0.877
54418W        W20959  17.088  13.085  12.149
54419W        W20960  34.306  31.479   2.839
54420W        W20961   8.725  15.162  13.986
54421W        W20962  43.785  26.158   2.226
54422W        W20963  12.406  14.346   1.326
54423W        W20964  17.617  21.739  12.780
54424W        W20965   9.945  16.809  10.541
54425W        W20966  43.235   4.125   4.373
54426W        W20967  43.741  41.440   4.169
54427W        W20968  20.467  33.814   1.364
54428W        W20969  38.930   1.888  10.394
54429W        W20970  39.966  28.953   3.544
54430W        W20971  37.866  29.190   3.247
54431W        W20972  33.669   3.920  12.070
54432W        W20973  26.500  40.955   4.599
54433W        W20974  27.182  42.757  14.916
54434W        W20975   7.839  33.044  10.666
54435W        W20976  37.628  28.565  11.618
54436W        W20977  19.883  31.632   3.291
54437W        W20978  13.581   1.904   4.072
54438W        W20979  22.659   8.182  11.683
54439W        W20980  34.838  40.451   0.285
54440W        W20981  29.403   2.320   0.553
54441W        W20982  15.928  14.618   9.849
54442W        W20983  20.165  25.169   0.488
54443W        W20984  16.712  18.714   0.629
54444W        W20985  33.189  26.034  11.727
54445W        W20986  36.024  44.150  12.548
54446W        W20987  29.546  17.535   1.976
54447W        W20988   1.112  37.800   0.308
54448W        W20989   8.800   7.240   2.165
54449W        W20990  43.040  24.251  10.692
54450W        W20991  13.641   0.997  14.369
54451W        W20992   5.208   6.796   2.146
54452W        W20993  10.812  14.613   2.872
54453W        W20994   7.692  21.503   4.697
54454W        W20995  16.219   4.344  14.707
54455W        W20996  36.930   8.806   3.327
54456W        W20997  41.321  33.413   3.731
54457W        W20998  10.153   0.646   4.514
54458W        W20999   9.938  15.125   3.967
54459W        W21000  38.604  33.443  13.464
54460W        W21001   8.711  20.901   3.524
54461W        W21002  10.810  26.140  10.538
54462W        W21003  19.679  10.769  10.760
54463W        W21004  38.506  35.827   4.565
54464W        W21005  17.831  25.787  12.826
54465W        W21006  22.380  27.392   2.270
54466W        W21007  15.184  35.613  13.864
54467W        W21008   4.400  23.816   0.980
54468W        W21009  43.263  24.849   0.337
54469W        W21010  41.907  27.967   0.269
54470W        W21011  21.438  40.705   3.135
54471W        W21012  29.064   9.079  13.334
54472W        W21013  25.452  36.903   2.446
54473W        W21014  31.332  27.669   1.101
54474W        W21015  18.210  16.786   1.715
54475W        W21016   7.489  32.346  11.119
54476W        W21017  18.086  31.903   5.000
54477W        W21018   1.965  13.535   4.969
54478W        W21019   2.430  18.425   4.299
54479W        W21020   2.932   9.514   2.748
54480W        W21021  26.773  20.546  10.354
54481W        W21022  19.767  18.611  11.711
54482W        W21023   3.914  15.252   3.875
54483W        W21024  31.630  30.586   1.672
54484W        W21025  24.765  17.497  12.254
54485W        W21026  35.819   3.910   3.744
54486W        W21027  19.566  16.928   3.021
54487W        W21028   9.145  15.270   2.930
54488W        W21029  22.503  42.014  14.362
54489W        W21030  14.654  14.608   0.955
54490W        W21031   4.961  30.573  11.390
54491W        W21032  10.562   8.706   4.280
54492W        W21033  16.726  26.978  12.970
54493W        W21034  40.811  19.220   0.827
54494W        W21035  18.621  10.139  11.987
54495W        W21036  27.979   8.231   0.652
54496W        W21037  27.508  35.444  14.519
54497W        W21038  42.478  36.980   1.470
54498W        W21039  37.785   7.253   0.218
54499W        W21040  20.203  15.521  13.980
54500W        W21041  18.576   3.630   3.659
54501W        W21042  16.687  31.693   0.240
54502W        W21043  35.203  12.801  14.223
54503W        W21044  28.043  43.929  11.361
54504W        W21045  19.216  21.898   4.049
54505W        W21046  28.515   9.295   3.857
54506W        W21047  42.451  21.363   0.772
54507W        W21048   8.336  31.085   2.192
54508W        W21049  17.256  36.437  12.518
54509W        W21050  10.830  31.626  14.975
54510W        W21051   8.734  30.191   3.811
54511W        W21052  28.111   2.044  11.679
54512W        W21053  40.753  19.834  10.760
54513W        W21054  18.471  17.007  12.883
54514W        W21055  15.174  34.024   1.265
54515W        W21056  11.811  36.365   1.180
54516W        W21057   5.945  21.681   4.116
54517W        W21058  15.552  13.286  11.660
54518W        W21059  17.634  14.221   1.398
54519W        W21060  23.572  30.955  12.962
54520W        W21061  28.954  15.904  14.733
54521W        W21062  31.540  23.965   2.344
54522W        W21063  16.472  23.256  11.774
54523W        W21064  40.078  37.142  13.052
54524W        W21065  27.335  32.240   4.953
54525W        W21066  31.625  24.894  11.904
54526W        W21067  29.217  38.105  10.985
54527W        W21068  39.371  23.039  10.715
54528W        W21069  29.442  16.866  12.436
54529W        W21070  43.483  38.769   4.014
54530W        W21071   5.441   1.010  14.330
54531W        W21072  18.992   3.003   1.871
54532W        W21073   2.416   7.596  12.293
54533W        W21074  38.091  17.255   3.227
54534W        W21075  12.845   7.825  12.682
54535W        W21076   9.727  42.412  12.501
54536W        W21077  38.489   9.832   1.916
54537W        W21078  17.570  34.637  13.375
54538W        W21079   7.984  19.173   2.291
54539W        W21080   9.207   2.452  14.798
54540W        W21081   2.907   7.179   4.250
54541W        W21082  43.986  37.358   0.530
54542W        W21083   9.161  34.744   2.063
54543W        W21084  27.857  28.029  12.784
54544W        W21085   1.699  39.226  11.923
54545W        W21086  35.812  17.863   1.791
54546W        W21087   5.961  43.994   3.667
54547W        W21088  12.936   4.976  11.329
54548W        W21089   5.202  17.370   4.555
54549W        W21090  22.099  39.347   3.851
54550W        W21091  21.038  26.587   0.629
54551W        W21092  10.076  38.020  14.466
54552W        W21093   2.820  33.625   2.857
54553W        W21094  36.524  32.529   1.452
54554W        W21095  17.691   3.172  14.734
54555W        W21096  23.654  11.708  13.991
54556W        W21097   5.206  31.207   3.542
54557W        W21098  18.519  42.790   2.437
54558W        W21099   4.268  41.927  11.754
54559W        W21100   5.517  33.147  10.038
54560W        W21101  42.955  22.965  11.223
54561W        W21102   9.394   0.787   4.176
54562W        W21103  10.197  23.462  13.489
54563W        W21104  43.353  34.683  14.943
54564W        W21105  18.161  14.610   0.023
54565W        W21106  10.296   1.588  10.919
54566W        W21107  24.639  27.926  11.152
54567W        W21108  31.079  20.948  12.466
54568W        W21109  31.392   1.703   1.213
54569W        W21110  10.561  27.371  10.058
54570W        W21111   0.381  27.431  11.089
54571W        W21112  42.405   6.663   2.171
54572W        W21113  10.351  10.242  14.582
54573W        W21114  12.713  29.638  13.091
54574W        W21115  20.145  16.725   3.057
54575W        W21116  22.484   3.408   4.484
54576W        W21117   2.433   3.187   2.694
54577W        W21118   0.537  43.920   2.873
54578W        W21119  42.741  33.977   1.921
54579W        W21120   5.698  41.004  11.529
54580W        W21121  32.948  38.592  12.476
54581W        W21122  25.624  23.962  14.842
54582W        W21123  30.955  28.074  13.552
54583W        W21124  44.503   9.931   0.303
54584W        W21125  39.070  41.815   3.322
54585W        W21126  13.232  17.479  11.080
54586W        W21127   8.163  39.345  12.621
54587W        W21128   8.392  36.031   0.695
54588W        W21129  11.287  27.067  14.447
54589W        W21130   7.749  11.045  11.184
54590W        W21131  28.875  10.817  11.430
54591W        W21132  43.610  27.449   1.259
54592W        W21133   8.622  29.103   0.464
54593W        W21134  27.274   3.046  11.018
54594W        W21135  37.899   6.629   2.690
54595W        W21136  37.185  25.634  10.526
54596W        W21137  37.735  10.810  13.956
54597W        W21138  17.062  35.150  11.264
54598W        W21139  40.602   5.470  14.534
54599W        W21140  29.573  20.255   4.644
54600W        W21141   4.666  39.238   0.809
54601W        W21142   5.774  39.846  12.832
54602W        W21143   0.304   6.723  13.412
54603W        W21144  22.563  29.423  10.681
54604W        W21145  13.152   2.103   3.885
54605W        W21146  31.810  14.374   5.108
54606W        W21147   6.679  12.353   2.643
54607W        W21148   4.827  13.220   3.684
54608W        W21149  19.763  36.590  12.262
54609W        W21150  16.478  12.039  11.694
54610W        W21151  25.334  18.504   0.329
54611W        W21152  11.764  18.677   0.241
54612W        W21153  10.313   9.320   2.754
54613W        W21154  28.247  12.814   9.766
54614W        W21155   4.169  41.809   0.229
54615W        W21156   1.743   9.461  11.197
54616W        W21157  39.543   9.265  11.479
54617W        W21158  30.449  17.150   3.154
54618W        W21159  20.308  36.335  13.463
54619W        W21160   7.466   0.362   1.322
54620W        W21161   0.370  17.542  11.204
54621W        W21162   4.675  37.392   2.124
54622W        W21163  20.684  38.359   3.346
54623W        W21164  14.222  20.155  12.585
54624W        W21165  36.456  30.401  13.428
54625W        W21166   3.471  14.196  12.872
54626W        W21167   4.785  23.685   2.666
54627W        W21168  11.929  29.530   0.904
54628W        W21169  25.486  31.867  14.103
54629W        W21170   7.195  22.171   3.891
54630W        W21171  28.165  33.271  10.762
54631W        W21172  13.199  26.696  14.088
54632W        W21173  42.932  33.371   3.820
54633W        W21174  37.465  12.688  14.076
54634W        W21175  42.515  37.892   0.832
54635W        W21176  25.851  38.822  10.640
54636W        W21177   3.153  30.865   0.368
54637W        W21178  25.085  12.155   4.565
54638W        W21179  19.167  37.998   0.156
54639W        W21180  14.277  16.831  12.070
54640W        W21181  35.464  15.048  12.058
54641W        W21182  42.380  26.021   1.414
54642W        W21183  43.542   2.085  11.220
54643W        W21184  36.632  36.634  13.050
54644W        W21185  33.112   3.693   4.018
54645W        W21186  35.117  16.235   3.113
54646W        W21187  38.437  41.352   3.714
54647W        W21188  20.322  27.595  13.433
54648W        W21189  37.906  44.214  14.972
54649W        W21190  22.431  32.507   2.901
54650W        W21191   4.559  10.690  11.703
54651W        W21192  13.524  13.074   4.154
54652W        W21193  12.645  13.113   1.717
54653W        W21194  17.543  38.795  14.169
54654W        W21195  29.073  37.763  14.720
54655W        W21196  11.024  31.865   3.212
54656W        W21197  24.533  20.269   1.854
54657W        W21198  21.464  25.474   2.167
54658W        W21199  30.612  41.472  12.048
54659W        W21200  44.971  20.766   0.443
54660W        W21201  30.491  28.026  11.144
54661W        W21202  25.737  30.611   0.856
54662W        W21203  26.727  24.587   2.348
54663W        W21204  17.515  38.482  13.290
54664W        W21205  43.302   0.937  14.349
54665W        W21206   0.201   2.824   3.865
54666W        W21207  17.258  38.881  14.998
54667W        W21208  32.355  27.626   3.997
54668W        W21209  24.901  21.024   2.519
54669W        W21210   9.213  10.606  13.465
54670W        W21211  27.023  39.053   0.193
54671W        W21212  14.114  28.996   4.546
54672W        W21213  25.527   6.664   5.423
54673W        W21214  13.067  10.127  13.070
54674W        W21215   8.316   0.490  11.047
54675W        W21216   3.959  31.053  12.086
54676W        W21217  31.938  19.504   1.924
54677W        W21218   3.509  32.157   3.182
54678W        W21219  41.785  29.133   2.896
54679W        W21220  40.012  13.661   1.359
54680W        W21221  28.474  23.682   3.733
54681W        W21222   8.278  43.378   3.680
54682W        W21223  40.300   5.954  10.800
54683W        W21224  12.000  41.252   3.289
54684W        W21225  22.014  25.471  14.964
54685W        W21226  24.965   4.765   0.445
54686W        W21227  19.221  38.808  13.981
54687W        W21228  14.847  40.994  11.065
54688W        W21229  18.191  20.291  13.439
54689W        W21230  40.921  37.922   4.163
54690W        W21231  18.581   7.670  12.872
54691W        W21232  32.690  32.875  12.502
54692W        W21233  38.546  28.740   2.096
54693W        W21234  12.962  33.899  14.081
54694W        W21235  34.108  21.652  11.262
54695W        W21236  37.693  25.204   4.726
54696W        W21237  18.064   4.184   3.360
54697W        W21238  12.914  43.287   1.477
54698W        W21239  32.833  34.730  12.653
54699W        W21240  35.979  21.183   4.656
54700W        W21241   1.768  19.646  11.389
54701W        W21242  33.734  38.656   3.230
54702W        W21243  23.279  40.478  13.900
54703W        W21244   8.151  34.497   0.931
54704W        W21245   1.573   8.897  14.668
54705W        W21246  22.799  16.360   0.468
54706W        W21247   9.951   5.080  11.252
54707W        W21248  12.353  31.352   1.936
54708W        W21249  17.156  19.866   0.793
54709W        W21250  35.883  28.995   3.176
54710W        W21251  41.919  36.964  13.516
54711W        W21252   0.558   1.895  13.033
54712W        W21253   6.724  30.201   4.109
54713W        W21254   7.260  27.563  12.195
54714W        W21255  35.987  44.383  13.017
54715W        W21256   2.318  34.584  12.363
54716W        W21257  36.001   6.275  10.678
54717W        W21258  37.545  10.500  13.405
54718W        W21259   3.232  23.193   1.005
54719W        W21260  16.094  37.127  13.356
54720W        W21261  41.155   6.552   2.620
54721W        W21262  19.138  43.953  11.034
54722W        W21263  33.987  43.213   2.191
54723W        W21264   8.329  35.141   0.151
54724W        W21265  26.711  38.043  11.238
54725W        W21266  24.062  21.613  10.584
54726W        W21267  42.489  42.477  10.928
54727W        W21268  10.092  19.804   2.363
54728W        W21269   0.009  28.976  10.793
54729W        W21270  26.225  10.767  11.439
54730W        W21271  13.511  15.952  10.635
54731W        W21272  32.571  28.680   3.349
54732W        W21273  18.706  33.165   3.177
54733W        W21274  42.372  29.323  12.096
54734W        W21275   6.530  28.427   1.687
54735W        W21276  36.529   3.742   0.884
54736W        W21277   6.843   5.471   5.035
54737W        W21278   3.401  22.722   2.902
54738W        W21279   0.261   8.196   3.751
54739W        W21280  28.181  43.020  13.058
54740W        W21281  14.133  19.157   2.769
54741W        W21282  20.458  24.093   1.849
54742W        W21283  30.873  27.978  14.108
54743W        W21284   6.523   2.946   0.919
54744W        W21285  28.592  33.023   0.941
54745W        W21286  31.389  15.392   2.466
54746W        W21287  43.491  19.816  12.861
54747W        W21288  31.682  17.666  10.754
54748W        W21289  40.432  27.468  12.477
54749W        W21290  14.216  29.921  10.255
54750W        W21291  14.572  40.267  13.983
54751W        W21292  12.095   2.772  11.561
54752W        W21293  12.689   7.016  14.843
54753W        W21294   2.842  31.358   1.234
54754W        W21295  31.139  29.840  12.185
54755W        W21296  22.242  43.465  13.048
54756W        W21297  29.683   8.394   0.456
54757W        W21298  40.062  42.426   2.756
54758W        W21299  13.956  31.942   3.058
54759W        W21300  33.621  38.175   2.383
54760W        W21301  16.530  20.276   4.517
54761W        W21302  10.795  37.582   1.418
54762W        W21303  21.121  20.574  14.915
54763W        W21304   3.935  13.631  11.691
54764W        W21305  19.777  17.191   1.272
54765W        W21306  40.078  40.257   3.612
54766W        W21307  33.095   3.998  13.473
54767W        W21308   1.733  23.660  12.598
54768W        W21309  20.508  16.037   1.377
54769W        W21310  26.078  32.390  10.667
54770W        W21311   5.668  28.501  14.549
54771W        W21312  30.988  31.519  11.296
54772W        W21313  29.498  29.193  12.460
54773W        W21314  31.403  36.375   4.239
54774W        W21315  18.743  23.617  10.933
54775W        W21316  42.454  24.941   4.687
54776W        W21317   1.888   6.152  10.764
54777W        W21318  21.229  35.635   4.361
54778W        W21319  19.303  30.732   2.214
54779W        W21320  37.028  41.335   2.967
54780W        W21321  24.963   0.308  13.527
54781W        W21322   9.894  29.397  14.543
54782W        W21323   3.822  21.877   1.612
54783W        W21324  10.644  36.802   2.818
54784W        W21325  10.332  26.672   3.661
54785W        W21326  16.185   8.292  11.560
54786W        W21327  40.578   7.456  12.951
54787W        W21328   5.998   3.818   4.528
54788W        W21329  10.557  31.087  14.797
54789W        W21330  39.227  25.704   4.058
54790W        W21331  34.611  32.818   1.939
54791W        W21332  22.952  27.177   0.648
54792W        W21333   3.765  32.199  14.823
54793W        W21334  33.707  40.940  11.575
54794W        W21335  29.086  29.035  13.749
54795W        W21336   3.264   4.880   3.856
54796W        W21337   1.971  23.220   0.797
54797W        W21338   0.814  28.473  14.356
54798W        W21339  36.827  39.041   3.073
54799W        W21340  43.383  26.487   2.649
54800W        W21341  26.794   9.908   0.583
54801W        W21342  25.063  15.301   2.720
54802W        W21343   0.309  29.375  11.984
54803W        W21344  40.555   5.486  10.921
54804W        W21345  12.120  26.193   4.592
54805W        W21346   1.024  44.033  11.220
54806W        W21347   7.298  38.853   3.097
54807W        W21348  21.650  36.608   2.371
54808W        W21349   1.215  34.801   3.658
54809W        W21350  36.129  19.853  14.428
54810W        W21351  28.623  39.618   4.429
54811W        W21352  12.746  15.243   0.271
54812W        W21353  30.976  18.273  11.607
54813W        W21354  14.150   6.889   3.164
54814W        W21355   9.322  42.280   4.876
54815W        W21356  20.271  24.640  10.898
54816W        W21357  34.810  10.299  13.082
54817W        W21358  32.064  10.613  10.734
54818W        W21359  14.338  35.879  11.230
54819W        W21360  31.329  44.301   3.302
54820W        W21361  19.617  17.604   3.378
54821W        W21362  38.476  18.836   2.726
54822W        W21363   7.726  44.290   1.293
54823W        W21364  28.629  43.270  13.863
54824W        W21365  37.312  41.331  10.575
54825W        W21366  35.073  44.421   0.834
54826W        W21367  39.772  39.434   3.090
54827W        W21368  38.002  27.044  11.908
54828W        W21369  15.167  20.257   4.334
54829W        W21370  22.762  21.919  12.935
54830W        W21371  32.196   0.843  12.461
54831W        W21372  22.043  24.403  14.359
54832W        W21373  36.306   9.638  11.012
54833W        W21374  34.777  26.042   0.469
54834W        W21375  26.496   2.190   4.224
54835W        W21376  25.945  37.929  11.655
54836W        W21377  26.748  31.612   0.253
54837W        W21378  12.410  29.368   0.796
54838W        W21379  20.683   6.070  14.415
54839W        W21380   5.371   3.637  12.853
54840W        W21381  41.339  44.290  14.007
54841W        W21382  22.752   0.437   4.254
54842W        W21383  35.454   4.723   3.411
54843W        W21384   9.878  42.869   2.178
54844W        W21385  30.663  28.736  13.827
54845W        W21386  24.190  28.705  10.753
54846W        W21387  28.130  27.687   0.665
54847W        W21388   3.171  24.263  11.919
54848W        W21389  13.519  41.605   2.010
54849W        W21390  32.595  22.076  14.930
54850W        W21391  34.379  21.659   2.318
54851W        W21392  19.238  11.685  10.610
54852W        W21393  37.339  36.026  12.025
54853W        W21394  39.567   5.142  12.308
54854W        W21395  36.094   8.880  12.061
54855W        W21396  17.702  22.471  12.121
54856W        W21397  42.259  10.290   1.396
54857W        W21398  30.698  28.481   3.263
54858W        W21399  14.813  36.752   1.790
54859W        W21400   8.883  16.486  12.866
54860W        W21401   9.547  44.082  11.067
54861W        W21402  37.806  40.843   3.795
54862W        W21403   9.770  10.680   0.294
54863W        W21404  13.328  30.291   5.425
54864W        W21405  31.510   1.369  10.981
54865W        W21406  16.284  38.092  12.457
54866W        W21407  29.024  34.880  13.392
54867W        W21408  17.082  35.864   0.861
54868W        W21409  24.770  17.532   0.841
54869W        W21410  23.232  37.925   0.356
54870W        W21411  29.397  31.850  12.956
54871W        W21412   9.875  26.754   1.450
54872W        W21413   0.097  13.284  13.992
54873W        W21414  43.917   8.166   3.255
54874W        W21415  13.396  15.352  14.472
54875W        W21416  29.509  34.513   4.067
54876W        W21417   6.179   9.190  11.018
54877W        W21418  10.390  42.274  12.726
54878W        W21419  40.352   5.500   3.235
54879W        W21420  12.167  22.741  14.897
54880W        W21421  34.402  31.278   1.175
54881W        W21422  39.341  26.195   2.824
54882W        W21423   6.672   0.781  14.948
54883W        W21424  33.040  39.599  14.963
54884W        W21425   8.099  13.160  13.338
54885W        W21426  16.402  28.884   1.327
54886W        W21427  29.203  34.501  11.591
54887W        W21428  28.403  38.352  12.340
54888W        W21429  32.898  35.415  13.091
54889W        W21430  43.542  23.158  13.002
54890W        W21431   9.812  18.337  13.624
54891W        W21432  19.763  35.007  10.812
54892W        W21433  25.572  26.536  11.629
54893W        W21434  25.405  35.401  14.761
54894W        W21435  21.268  28.595   2.793
54895W        W21436   3.428   8.446  12.240
54896W        W21437  31.981  35.971  12.530
54897W        W21438  41.022  35.169  14.256
54898W        W21439   5.948  14.287   2.719
54899W        W21440  11.454   3.019  11.183
54900W        W21441  22.236  35.013   3.147
54901W        W21442  27.704  27.273   3.949
54902W        W21443  37.873  32.101  10.585
54903W        W21444  11.298   3.963  14.020
54904W        W21445  37.068  14.374  11.532
54905W        W21446  29.098  37.471  14.291
54906W        W21447  41.926   6.971   0.088
54907W        W21448  26.708  28.656   3.303
54908W        W21449  33.460  16.594  13.835
54909W        W21450   8.453  44.481  12.987
54910W        W21451   1.958   7.570   3.681
54911W        W21452  43.011  24.395  14.040
54912W        W21453   8.424  35.293  11.195
54913W        W21454  14.294  15.743   2.236
54914W        W21455  24.646  39.815   4.077
54915W        W21456  24.139   1.256   1.375
54916W        W21457  12.577  14.900  12.777
54917W        W21458  29.730   2.582   0.240
54918W        W21459  27.301  43.329   2.830
54919W        W21460   6.935  29.569   2.844
54920W        W21461  41.742  40.553   0.468
54921W        W21462  29.652   6.741  14.434
54922W        W21463  15.772  27.620   1.859
54923W        W21464  24.083  35.547   3.107
54924W        W21465   1.547   6.137  14.963
54925W        W21466  34.058   7.665  10.556
54926W        W21467   8.719  16.246  11.607
54927W        W21468  13.723   0.455   0.290
54928W        W21469  25.004  23.608  14.322
54929W        W21470   7.742  27.878   5.032
54930W        W21471   1.547  36.052  13.976
54931W        W21472  19.786  28.115   4.791
54932W        W21473  23.083  20.287  13.457
54933W        W21474  21.444   3.596   4.140
54934W        W21475  21.466  20.610  10.933
54935W        W21476  21.615  12.698   2.222
54936W        W21477   3.176  34.395  14.377
54937W        W21478  10.392  14.784   2.227
54938W        W21479   6.883  43.018  11.710
54939W        W21480  16.771  37.362   1.496
54940W        W21481  33.185  43.972  10.714
54941W        W21482  21.634  25.487   4.040
54942W        W21483   3.152  34.016  11.188
54943W        W21484  30.524   6.858   2.076
54944W        W21485  19.713   7.819   3.798
54945W        W21486  10.824  37.403   4.509
54946W        W21487  11.225  19.250   3.209
54947W        W21488  20.927  16.715   4.615
54948W        W21489  14.692  44.983   2.184
54949W        W21490  10.810  36.046   2.267
54950W        W21491  39.380  13.535  13.976
54951W        W21492  11.053  15.157  11.434
54952W        W21493  39.834   6.268   2.802
54953W        W21494  11.864  44.037   0.864
54954W        W21495   1.498  13.659   1.499
54955W        W21496  44.059  17.064   5.033
54956W        W21497  34.462  42.057  10.757
54957W        W21498  37.757  25.722  14.424
54958W        W21499  33.354   6.982   4.082
54959W        W21500  42.128  30.714  11.951
54960W        W21501  38.029  28.913  11.559
54961W        W21502  11.119  43.849  12.087
54962W        W21503  34.671  16.687   3.497
54963W        W21504  26.914  38.662  14.394
54964W        W21505  13.357  40.874   4.444
54965W        W21506  22.608  23.175   3.329
54966W        W21507  19.361  11.365   1.533
54967W        W21508  36.526  23.894   1.712
54968W        W21509  33.226   5.930   1.995
54969W        W21510  41.839   5.580   2.347
54970W        W21511   0.048  41.870  14.428
54971W        W21512  13.249  38.919  13.576
54972W        W21513  13.264  11.718   4.384
54973W        W21514  15.138  28.431   3.632
54974W        W21515  25.526  40.363   2.776
54975W        W21516  28.764  26.474  14.797
54976W        W21517  43.874   1.746   0.477
54977W        W21518  20.066   6.766  14.422
54978W        W21519  39.416   7.854   4.698
54979W        W21520  31.020  31.410  13.455
54980W        W21521   0.575  12.664   5.041
54981W        W21522  25.036  28.562  11.516
54982W        W21523  32.983  32.866  13.546
54983W        W21524  14.556  38.599  12.450
54984W        W21525  35.779  22.694  12.912
54985W        W21526  29.462  31.188  10.754
54986W        W21527  41.292  28.452   3.688
54987W        W21528  30.683   2.884   4.769
54988W        W21529   4.668  44.845   0.886
54989W        W21530   2.447  29.612   1.240
54990W        W21531  18.705  10.116   3.740
54991W        W21532   6.704  36.987  14.772
54992W        W21533  10.172  37.395   0.633
54993W        W21534  44.950   1.056  14.715
54994W        W21535  40.467  43.181   1.352
54995W        W21536  15.641  17.137  10.176
54996W        W21537  27.594   5.188  10.803
54997W        W21538  18.718  19.712   2.407
54998W        W21539  35.895  41.210  12.058
54999W        W21540  30.028  27.356  11.533
55000W        W21541  33.397   1.931  11.893
55001W        W21542  38.353  27.027   4.662
55002W        W21543   0.255  17.062   2.288
55003W        W21544  21.832  39.424  13.822
55004W        W21545  35.170  19.145  12.939
55005W        W21546  37.629   7.173  10.820
55006W        W21547  20.685  24.534   1.630
55007W        W21548  24.133   1.972  10.670
55008W        W21549  36.039  38.361   3.553
55009W        W21550   3.917   7.212  13.389
55010W        W21551  27.078  25.169   3.971
55011W        W21552  18.500  27.641  10.819
55012W        W21553  24.637   4.856  14.585
55013W        W21554  26.228  16.120   3.698
55014W        W21555   4.855  12.727   3.504
55015W        W21556   1.940  31.015   0.880
55016W        W21557  30.390  18.461  13.506
55017W        W21558  39.000  32.685   2.804
55018W        W21559   0.717  19.733   1.275
55019W        W21560  31.591  44.024  10.670
55020W        W21561   4.435  31.645  11.698
55021W        W21562  19.810  14.343  13.867
55022W        W21563  43.711  42.599   0.810
55023W        W21564  36.570  22.131   2.127
55024W        W21565  12.812  17.176   3.602
55025W        W21566  40.822  12.697  10.303
55026W        W21567  21.724   5.347   1.815
55027W        W21568  41.598  11.897  13.063
55028W        W21569  12.199  24.642   3.174
55029W        W21570  32.821  11.063  11.537
55030W        W21571  27.355  14.687  12.998
55031W        W21572  15.318  14.689  11.480
55032W        W21573  30.426   6.793   3.836
55033W        W21574   5.917  39.024   0.794
55034W        W21575  34.445  32.804   1.445
55035W        W21576   3.007  17.166  13.484
55036W        W21577   1.044  16.707  12.934
55037W        W21578  38.380   2.658   4.871
55038W        W21579  27.163   2.721  13.409
55039W        W21580  22.805  31.178   1.203
55040W        W21581  17.329  16.220   3.642
55041W        W21582  14.641  34.442  12.498
55042W        W21583  11.837   2.751  12.589
55043W        W21584  24.706   1.828  11.222
55044W        W21585  29.138  16.662   2.223
55045W        W21586  24.079  39.352   3.724
55046W        W21587  34.879  15.967   0.951
55047W        W21588  19.862  35.933   4.728
55048W        W21589  25.019  12.305  14.470
55049W        W21590  10.845  42.131  11.514
55050W        W21591  10.411   0.260   4.260
55051W        W21592  37.630  37.346   1.319
55052W        W21593  15.800  40.730   3.809
55053W        W21594  43.080  14.506  14.591
55054W        W21595  14.707   0.181  11.538
55055W        W21596   7.746   2.671   4.477
55056W        W21597  13.679  34.844   4.820
55057W        W21598  37.156  27.449  10.757
55058W        W21599  23.753  40.067   3.101
55059W        W21600  22.225  11.859  12.189
55060W        W21601   4.405   8.607   2.841
55061W        W21602  39.033  23.973   2.972
55062W        W21603  21.630  11.632  14.744
55063W        W21604  44.830  40.753   2.717
55064W        W21605  21.990  23.592  13.320
55065W        W21606  26.119  14.569  14.115
55066W        W21607  39.004   7.722  14.501
55067W        W21608  18.822  22.555   2.257
55068W        W21609   4.587  18.688   4.884
55069W        W21610  36.876  34.573   3.117
55070W        W21611  41.555  18.304  12.798
55071W        W21612  34.862  26.395   2.349
55072W        W21613  36.977  40.775   0.325
55073W        W21614  14.253   0.514   0.154
55074W        W21615  38.860  37.614  14.368
55075W        W21616  12.587   0.506   2.258
55076W        W21617  42.268  32.005   2.119
55077W        W21618  11.913  41.227   2.175
55078W        W21619   9.465  42.890  13.917
55079W        W21620  18.581  29.543  12.526
55080W        W21621  28.200  35.965  14.405
55081W        W21622   4.612   1.664   1.155
55082W        W21623  39.308   6.611  13.899
55083W        W21624  28.146  17.811  13.808
55084W        W21625   7.784  38.341   0.026
55085W        W21626  36.460  41.570   1.242
55086W        W21627  41.470   2.287   3.679
55087W        W21628   1.111  25.158  12.345
55088W        W21629  12.908  14.687  13.576
55089W        W21630  33.165  12.328   0.034
55090W        W21631   6.171  40.243  11.623
55091W        W21632   7.676  19.514  12.022
55092W        W21633  41.540  14.698   0.428
55093W        W21634   4.480   0.698  14.279
55094W        W21635  31.091  30.330  12.700
55095W        W21636  40.003   4.928  12.488
55096W        W21637  42.479  21.812   4.827
55097W        W21638   6.692  34.949   1.789
55098W        W21639  14.032  37.837   2.560
55099W        W21640  39.885  11.100   0.310
55100W        W21641  20.258  25.524  12.206
55101W        W21642  25.634  32.431  12.811
55102W        W21643  17.109  13.402  10.648
55103W        W21644  31.918  29.676  11.485
55104W        W21645  44.504  14.235   4.120
55105W        W21646  17.693  28.092  13.011
55106W        W21647   4.677   7.386  11.041
55107W        W21648  27.591  36.466  10.461
55108W        W21649  43.875  22.358  11.264
55109W        W21650   5.619  20.145  11.201
55110W        W21651  32.167  36.885  10.566
55111W        W21652  22.267  29.047  14.475
55112W        W21653  28.202   1.513   0.391
55113W        W21654   3.215  29.546   0.817
55114W        W21655  41.953   4.712  12.175
55115W        W21656  35.313  30.693  13.015
55116W        W21657  23.525  19.738   4.766
55117W        W21658   1.107   0.228  13.479
55118W        W21659  39.941  14.515   1.207
55119W        W21660  43.780  26.652  12.307
55120W        W21661   7.746  11.589   0.684
55121W        W21662  33.298   3.635   9.584
55122W        W21663   6.841   3.837  13.894
55123W        W21664  14.764  17.499  11.709
55124W        W21665  35.152  41.736  10.954
55125W        W21666  12.692  39.782   4.044
55126W        W21667  42.979  10.273   4.493
55127W        W21668   7.843  20.475   3.220
55128W        W21669  23.022  19.787   4.427
55129W        W21670  14.251  33.119  14.839
55130W        W21671  32.471  43.433  12.616
55131W        W21672  31.842   5.734  13.787
55132W        W21673  13.080  44.898  11.598
55133W        W21674  19.533  13.599   2.368
55134W        W21675  19.279  22.092  12.375
55135W        W21676  43.015  16.058  13.844
55136W        W21677  27.866  10.707   4.728
55137W        W21678   4.377   3.336   0.976
55138W        W21679  43.770  12.362   4.378
55139W        W21680  40.820   5.136   4.264
55140W        W21681  29.364  38.513  12.064
55141W        W21682   9.969   2.845  14.285
55142W        W21683   7.302  24.991   2.893
55143W        W21684  38.338  14.332  13.246
55144W        W21685  13.326  30.126   2.260
55145W        W21686   8.938   1.519  12.545
55146W        W21687   0.832  43.947   1.843
55147W        W21688   0.533  11.633   0.527
55148W        W21689   9.847  22.621   2.142
55149W        W21690  12.692  42.212   1.766
55150W        W21691  12.876  14.240   3.688
55151W        W21692   8.647  32.578   3.264
55152W        W21693  37.434   1.239  14.602
55153W        W21694  31.350  40.554   4.178
55154W        W21695  43.962  20.377   4.408
55155W        W21696  40.413  21.074  12.489
55156W        W21697  17.611   3.244   4.214
55157W        W21698  43.566  26.954  13.605
55158W        W21699  10.157  26.126   4.379
55159W        W21700  42.523  43.723  14.607
55160W        W21701  26.672  21.125   0.928
55161W        W21702  38.585  42.136  11.981
55162W        W21703  13.685   1.404   1.259
55163W        W21704  27.911  35.658   3.120
55164W        W21705  42.853  33.585  10.759
55165W        W21706  38.286  39.766  12.469
55166W        W21707  17.167  38.464   4.854
55167W        W21708  16.077  16.733  14.259
55168W        W21709  12.386  42.783  14.478
55169W        W21710   4.808  34.147   0.205
55170W        W21711  27.659  14.688   2.471
55171W        W21712  39.786  43.810   2.728
55172W        W21713  39.739  21.108   4.178
55173W        W21714  26.414   6.979   2.299
55174W        W21715  24.080  13.216  11.743
55175W        W21716  35.191  25.353  11.998
55176W        W21717  29.601  22.299  11.527
55177W        W21718  43.386  39.413   2.896
55178W        W21719   7.327   3.740  10.796
55179W        W21720   8.992  13.791   2.366
55180W        W21721  11.692  12.638  12.067
55181W        W21722  23.233  26.138   3.112
55182W        W21723  34.030  17.175   3.882
55183W        W21724   4.528  25.756  11.244
55184W        W21725  42.510  24.006   2.558
55185W        W21726  20.378  44.759   2.250
55186W        W21727  44.382  34.925   4.742
55187W        W21728  31.986  23.456   4.673
55188W        W21729  38.388   1.342   0.018
55189W        W21730  32.203   4.472   2.537
55190W        W21731  19.664   5.828   3.108
55191W        W21732  35.594   5.438   4.622
55192W        W21733  23.553  11.150   4.200
55193W        W21734  20.140   5.659  12.953
55194W        W21735  40.950  12.966  10.732
55195W        W21736  32.906  22.137  12.331
55196W        W21737  32.367  11.173   4.306
55197W        W21738  44.411  27.637   3.476
55198W        W21739  42.921   4.724   2.492
55199W        W21740  38.558  31.533   1.161
55200W        W21741  15.992  41.328  14.877
55201W        W21742  16.850  28.303  12.168
55202W        W21743  25.048  17.143   1.806
55203W        W21744  39.261   6.301   2.783
55204W        W21745  34.984  19.713  11.199
55205W        W21746   3.187  28.451   3.306
55206W        W21747  23.097  28.165   2.695
55207W        W21748  22.939   0.927   4.326
55208W        W21749  29.259  37.383  11.269
55209W        W21750  35.971  29.122  13.559
55210W        W21751  25.035  34.593   4.414
55211W        W21752   7.449  11.116  10.646
55212W        W21753  30.103  32.429  11.946
55213W        W21754  40.291   5.534  10.470
55214W        W21755   3.782  32.372   9.764
55215W        W21756   7.224  16.676   1.442
55216W        W21757  15.634  12.764   1.461
55217W        W21758  30.927   6.764  10.902
55218W        W21759  10.256  12.575   0.043
55219W        W21760  31.379   7.022   2.242
55220W        W21761  20.398  29.258   1.482
55221W        W21762   6.726   2.698  12.477
55222W        W21763  22.497  18.824  12.116
55223W        W21764  31.520  13.320  13.008
55224W        W21765   8.444  29.378   3.720
55225W        W21766   1.946  10.747   3.777
55226W        W21767   9.097  16.041   4.608
55227W        W21768  18.781   3.702  11.678
55228W        W21769  41.689   6.194  12.254
55229W        W21770  41.705  35.006  13.766
55230W        W21771  13.440  13.074   2.738
55231W        W21772  10.800   8.202  14.367
55232W        W21773   1.214  17.788   4.178
55233W        W21774   8.029   8.783   5.079
55234W        W21775   6.125   1.651   4.709
55235W        W21776   4.251  16.184  14.888
55236W        W21777  18.059  26.283   4.427
55237W        W21778  26.156  31.115   4.492
55238W        W21779  20.223  18.527  14.533
55239W        W21780  42.924  31.679   0.303
55240W        W21781  33.234  10.978   0.628
55241W        W21782  36.899  38.549   3.252
55242W        W21783  12.218  22.676   3.308
55243W        W21784   8.783  35.086  14.869
55244W        W21785  34.316  29.124   3.656
55245W        W21786  37.930  31.037   4.084
55246W        W21787  44.247  10.203  12.885
55247W        W21788  21.967   4.890  13.003
55248W        W21789   1.946  11.649  14.796
55249W        W21790   7.190  26.478   0.233
55250W        W21791   5.798  18.147   2.629
55251W        W21792  36.836  27.004   4.574
55252W        W21793   0.060  42.080   2.652
55253W        W21794  32.509  21.758   4.552
55254W        W21795  19.978  33.212  10.073
55255W        W21796  15.675  10.261   2.128
55256W        W21797  13.726  22.457  14.780
55257W        W21798   1.557  12.527   0.388
55258W        W21799   9.340  41.062   3.632
55259W        W21800   5.649  39.324   2.330
55260W        W21801  43.606  17.264   1.841
55261W        W21802  29.706   6.735  13.356
55262W        W21803  15.627  12.392  13.576
55263W        W21804   8.838  15.591   0.833
55264W        W21805  37.040   9.110   2.921
55265W        W21806  23.116  20.983  14.763
55266W        W21807  13.459  14.926   0.411
55267W        W21808  40.589  10.159   3.524
55268W        W21809  11.889  41.531  12.893
55269W        W21810  13.070  28.999   1.423
55270W        W21811  43.276  16.807   3.237
55271W        W21812  18.137   9.565   1.268
55272W        W21813  18.549  24.304  11.136
55273W        W21814  10.948  31.718  11.209
55274W        W21815  44.851  30.071   3.419
55275W        W21816  21.087   3.936   0.239
55276W        W21817  31.005  25.480  11.411
55277W        W21818  17.802   7.161   0.260
55278W        W21819  21.770  19.144  14.373
55279W        W21820  23.643   7.379   0.379
55280W        W21821  31.048  15.608   2.812
55281W        W21822   7.178  22.210   1.954
55282W        W21823  23.512  27.559   0.367
55283W        W21824  36.792  32.897   2.926
55284W        W21825   3.716  15.117   1.312
55285W        W21826   3.707  34.246   2.921
55286W        W21827  24.115   0.977  12.238
55287W        W21828  32.099  37.384   3.083
55288W        W21829  17.160  30.696  11.267
55289W        W21830  24.241  33.604  13.843
55290W        W21831  18.530  42.842   0.366
55291W        W21832  10.086  39.892  13.205
55292W        W21833  24.736  13.075  14.951
55293W        W21834   2.858  23.129  14.271
55294W        W21835  11.292  14.887   2.845
55295W        W21836   7.082  36.603  12.461
55296W        W21837  24.068  24.429   0.325
55297W        W21838  24.664   3.827  12.555
55298W        W21839  42.683  32.568  14.369
55299W        W21840  33.358  35.187   5.061
55300W        W21841  29.224  38.551   2.849
55301W        W21842  15.816  17.229   3.252
55302W        W21843  37.472   6.844  11.714
55303W        W21844  28.629  38.053   0.356
55304W        W21845  32.102  30.205   2.751
55305W        W21846  13.529  15.335  12.022
55306W        W21847   2.169  26.578   3.702
55307W        W21848   8.445  17.544  11.942
55308W        W21849  16.112  42.657   2.766
55309W        W21850   4.738  28.521  14.383
55310W        W21851  27.815  37.276  12.906
55311W        W21852  44.991  16.331   0.821
55312W        W21853  40.026  40.893  14.057
55313W        W21854  25.098  13.187  13.102
55314W        W21855  44.624  11.739  11.527
55315W        W21856  22.396  38.908   1.482
55316W        W21857  26.681  28.725  13.430
55317W        W21858  25.913  43.769   3.678
55318W        W21859  44.418   3.142  13.315
55319W        W21860   7.311  31.608   2.285
55320W        W21861  21.296  32.600  14.815
55321W        W21862   8.774   9.313  12.989
55322W        W21863  23.834  39.860   2.612
55323W        W21864  13.729  39.379   1.244
55324W        W21865  32.655   0.325   4.156
55325W        W21866  21.235  27.637   0.274
55326W        W21867  26.053  12.932   3.265
55327W        W21868  17.827   8.328   1.054
55328W        W21869  22.169  34.993   4.494
55329W        W21870  18.595  13.817   2.587
55330W        W21871   8.533   2.452  12.305
55331W        W21872  17.013  30.305  11.558
55332W        W21873  16.354   0.002  10.714
55333W        W21874   8.563  30.335   3.355
55334W        W21875   8.769  31.976   2.162
55335W        W21876  21.720   2.664  14.761
55336W        W21877  15.175   1.402  10.993
55337W        W21878  28.662  33.898   2.243
55338W        W21879  44.498  35.911  11.854
55339W        W21880   5.868  36.029   2.901
55340W        W21881  29.752  10.709  11.046
55341W        W21882  42.448  10.759   4.122
55342W        W21883   8.408   1.934   0.490
55343W        W21884  25.835  37.581   1.279
55344W        W21885   6.653  37.874   1.647
55345W        W21886   5.676  13.333   4.868
55346W        W21887  43.071  11.244  13.599
55347W        W21888  35.080  20.698  11.335
55348W        W21889  43.934  42.665  13.497
55349W        W21890   9.414   6.161  11.152
55350W        W21891  38.401  10.824   1.727
55351W        W21892  10.740   1.315  14.235
55352W        W21893   9.071   3.624  13.476
55353W        W21894  39.625   5.617   4.241
55354W        W21895  41.011  27.475   2.303
55355W        W21896  26.092  31.439   0.762
55356W        W21897  30.632  37.299  11.742
55357W        W21898  20.562  43.283   4.987
55358W        W21899  33.505  22.849   3.707
55359W        W21900  31.955   7.678   0.355
55360W        W21901  20.503  20.069   0.243
55361W        W21902  34.944  34.849  10.531
55362W        W21903  21.217  44.388  13.278
55363W        W21904  41.861  18.803  13.450
55364W        W21905  11.749  21.855   0.669
55365W        W21906  31.239  34.570  10.460
55366W        W21907  12.056  40.436  14.913
55367W        W21908   3.311  11.275   0.717
55368W        W21909   3.918  32.400   1.915
55369W        W21910  28.124  10.627   1.939
55370W        W21911   6.162  17.192   0.736
55371W        W21912   6.170  34.106  14.511
55372W        W21913   2.980  39.833   2.912
55373W        W21914   3.766  10.053   2.586
55374W        W21915   5.402  32.687   1.817
55375W        W21916  11.318   2.467   3.796
55376W        W21917  38.938  41.851  11.221
55377W        W21918  26.874  12.858  14.495
55378W        W21919  11.554  22.095   0.237
55379W        W21920  10.134  12.274   3.208
55380W        W21921   0.517  26.472  11.871
55381W        W21922  18.212  15.465   2.188
55382W        W21923  24.500  38.997  12.022
55383W        W21924   6.165  21.106   1.843
55384W        W21925   5.437  16.663  14.752
55385W        W21926  31.185  11.588  12.957
55386W        W21927  31.783   9.324  12.595
55387W        W21928  38.101   6.921   0.711
55388W        W21929   7.907  23.767   3.229
55389W        W21930  20.772  26.942  13.895
55390W        W21931   5.420  40.515   2.435
55391W        W21932  29.636  11.504   3.746
55392W        W21933  40.846  16.031   2.567
55393W        W21934  19.806  22.416   3.706
55394W        W21935  21.366  20.801   3.191
55395W        W21936   6.254  30.777   2.633
55396W        W21937   8.859  13.744  11.373
55397W        W21938  30.590  32.542  12.840
55398W        W21939  13.638  21.777  12.427
55399W        W21940  18.967  32.736   2.430
55400W        W21941  26.000   3.335  11.122
55401W        W21942  25.832   7.125  14.909
55402W        W21943  35.911  22.934  11.232
55403W        W21944   3.049  13.113   0.852
55404W        W21945  10.643  44.697  14.482
55405W        W21946  39.001   1.659  12.977
55406W        W21947  32.795  10.697   1.449
55407W        W21948  26.681  15.101   3.647
55408W        W21949   8.101   4.005   3.641
55409W        W21950  38.449  13.249  10.741
55410W        W21951  13.080  20.628   2.721
55411W        W21952  22.420  23.278  11.020
55412W        W21953  41.407   7.682   4.104
55413W        W21954  22.874  22.594  11.429
55414W        W21955  11.711  26.874   3.682
55415W        W21956  37.793  36.150   2.213
55416W        W21957   9.596  22.223   2.339
55417W        W21958  28.882   2.786   1.301
55418W        W21959  32.388  23.968  12.101
55419W        W21960  27.460  40.979   2.419
55420W        W21961  38.986  24.398   2.367
55421W        W21962  22.517   7.667   4.347
55422W        W21963  17.053  42.478  13.604
55423W        W21964   8.941  20.169   0.829
55424W        W21965  19.858  25.290   1.435
55425W        W21966  37.719  40.945   4.961
55426W        W21967  41.797  22.711  13.352
55427W        W21968   3.582  22.230  10.066
55428W        W21969  35.058  41.833   1.685
55429W        W21970   9.988  21.696  13.999
55430W        W21971   3.497   5.178   2.623
55431W        W21972  11.862  32.514   5.178
55432W        W21973  29.409  41.763  11.626
55433W        W21974  25.072  25.372  10.805
55434W        W21975   8.226  31.685   4.581
55435W        W21976   7.388   8.836  11.546
55436W        W21977  12.761  19.725   1.842
55437W        W21978  29.628  15.818  12.178
55438W        W21979  28.409  27.221   1.384
55439W        W21980  40.910  36.044  14.892
55440W        W21981  17.068  24.450  13.334
55441W        W21982  18.268  24.718  12.818
55442W        W21983  40.847  15.219  14.405
55443W        W21984  37.968  42.624   3.380
55444W        W21985  10.599   0.263   2.851
55445W        W21986   7.326  23.771   1.285
55446W        W21987  13.515  29.032   1.099
55447W        W21988  21.745   7.158   0.638
55448W        W21989   9.391  31.836   0.990
55449W        W21990  38.524  14.293  11.441
55450W        W21991  17.085  41.733  11.136
55451W        W21992  37.276  15.289   9.780
55452W        W21993  27.079  28.590  12.740
55453W        W21994  29.091   9.652   1.761
55454W        W21995   1.111   4.521  13.072
55455W        W21996   1.781   5.705  12.448
55456W        W21997  41.647  35.204   0.912
55457W        W21998  44.936  30.625   4.255
55458W        W21999  28.405   7.944   1.417
55459W        W22000  41.120  30.274  12.955
55460W        W22001  12.165  33.069  12.797
55461W        W22002   7.838  28.585  14.299
55462W        W22003   5.157   7.799   4.419
55463W        W22004  13.083   6.399   1.274
55464W        W22005   5.248   5.932  12.808
55465W        W22006   7.152   6.320   0.774
55466W        W22007  30.391  29.631  12.651
55467W        W22008   7.468   3.326  14.385
55468W        W22009  26.335   6.388   0.934
55469W        W22010  21.649   2.836   3.826
55470W        W22011  14.789   4.512   2.747
55471W        W22012  39.050  33.700   5.010
55472W        W22013  25.652  22.823   1.908
55473W        W22014  34.382  32.100  11.883
55474W        W22015  37.623  23.174   1.763
55475W        W22016  37.830  15.480   3.053
55476W        W22017  39.891  27.249  14.784
55477W        W22018  23.656  44.213  11.106
55478W        W22019  21.611   1.750   4.080
55479W        W22020   8.336  33.693  14.035
55480W        W22021  13.097  37.556   4.020
55481W        W22022  11.354  37.554  10.666
55482W        W22023   6.196  40.807   0.471
55483W        W22024   9.990  35.403  12.464
55484W        W22025  29.063  42.882  10.107
55485W        W22026  11.835  37.640   4.596
55486W        W22027  36.786  40.898   1.763
55487W        W22028  22.492  27.560  11.178
55488W        W22029  39.968  11.480  11.961
55489W        W22030   3.415  12.100  14.897
55490W        W22031   6.150   0.367  13.617
55491W        W22032  20.252  17.043  11.112
55492W        W22033  27.937  18.279   2.875
55493W        W22034  30.654  11.613   2.628
55494W        W22035  13.245  11.617  12.498
55495W        W22036  14.746   6.877   0.585
55496W        W22037  33.623   9.695  12.142
55497W        W22038  44.578  18.759   1.543
55498W        W22039  29.329  41.979   2.095
55499W        W22040  41.378  12.051  11.639
55500W        W22041  37.962  35.072   2.360
55501W        W22042  23.976  20.068  13.357
55502W        W22043  15.327  31.892   1.840
55503W        W22044   3.946  33.947  14.795
55504W        W22045  33.609  40.470   4.490
55505W        W22046  26.803  18.796  10.807
55506W        W22047   4.685  22.454   3.220
55507W        W22048   9.919  35.353  11.136
55508W        W22049  44.509  30.220   0.449
55509W        W22050  24.507   4.309  12.440
55510W        W22051  21.242  37.210  13.998
55511W        W22052  33.274   4.846  10.659
55512W        W22053  35.782  41.959   3.997
55513W        W22054   0.785  36.039   0.465
55514W        W22055  13.705   0.713   3.665
55515W        W22056  27.429  14.990   4.343
55516W        W22057  30.667  38.948   0.277
55517W        W22058  35.694  10.134   0.274
55518W        W22059   1.865  35.035   0.496
55519W        W22060  26.076   6.218  13.992
55520W        W22061  21.915  23.524  11.471
55521W        W22062  22.998  28.630  11.528
55522W        W22063  14.589  13.651   1.481
55523W        W22064  30.577  24.594   0.144
55524W        W22065  23.374  38.115  11.280
55525W        W22066  35.536   8.910   0.789
55526W        W22067   2.080  12.820   1.506
55527W        W22068  43.429   0.054  11.245
55528W        W22069  10.180   7.932  13.098
55529W        W22070  11.850  15.727   4.631
55530W        W22071  24.973  36.722  13.069
55531W        W22072   2.589   7.344   0.379
55532W        W22073  22.388  15.375  11.429
55533W        W22074  27.074   2.325  12.626
55534W        W22075   9.622  18.774  12.344
55535W        W22076  43.363   5.340  12.222
55536W        W22077  29.283  18.601  13.871
55537W        W22078  34.040  39.098  10.743
55538W        W22079   0.329   6.292  14.375
55539W        W22080  22.942  39.497   4.533
55540W        W22081  23.481  43.033  11.619
55541W        W22082  10.780  19.020   2.350
55542W        W22083  25.176  17.279   4.913
55543W        W22084  25.956  37.809   2.630
55544W        W22085   0.869  27.560   1.932
55545W        W22086   7.840   8.439  14.351
55546W        W22087  18.846  14.576  11.626
55547W        W22088   1.227  25.978  13.973
55548W        W22089  29.157   2.175  12.565
55549W        W22090   1.103   0.709  10.577
55550W        W22091  35.546  11.323  14.792
55551W        W22092  34.930   3.252   2.362
55552W        W22093  18.820  39.165  13.974
55553W        W22094  35.456  28.549   1.852
55554W        W22095  42.745  22.506  12.919
55555W        W22096   3.558  35.943  11.839
55556W        W22097  38.037  43.862   0.936
55557W        W22098   3.361  39.381  13.027
55558W        W22099   3.820  33.508   4.170
55559W        W22100  40.509  40.331   4.139
55560W        W22101  29.218  22.699  14.847
55561W        W22102   1.228  15.886   2.330
55562W        W22103   2.662  19.276   4.051
55563W        W22104   1.840  17.229  11.163
55564W        W22105  42.063  16.095  12.401
55565W        W22106  41.104  44.273   2.252
55566W        W22107  14.062   2.802   0.790
55567W        W22108  40.001  18.391  14.663
55568W        W22109  43.096  10.244  13.989
55569W        W22110   9.900  21.580   3.601
55570W        W22111  31.898  18.071  12.957
55571W        W22112  15.392  29.129  14.277
55572W        W22113  30.198  42.552  13.469
55573W        W22114  43.475  14.609   2.213
55574W        W22115  13.201  18.166   4.527
55575W        W22116  39.044   5.091   4.953
55576W        W22117   9.869  43.322  12.416
55577W        W22118  32.789   6.687  12.699
55578W        W22119   9.639   0.175  12.703
55579W        W22120   3.927   6.855   1.689
55580W        W22121  36.133  34.609   0.491
55581W        W22122  21.652  23.694   3.229
55582W        W22123  13.418  30.449   9.925
55583W        W22124  39.825  14.376  14.477
55584W        W22125   0.820  14.354  14.053
55585W        W22126  18.074  15.029   1.275
55586W        W22127  12.467  44.602  14.184
55587W        W22128   8.917  12.723  14.864
55588W        W22129   2.595  41.205  12.887
55589W        W22130  28.247   2.701  11.119
55590W        W22131  42.535  21.239  10.593
55591W        W22132  31.821  11.292  11.494
55592W        W22133  11.237   0.918   2.936
55593W        W22134  40.763   7.840  13.956
55594W        W22135  40.580  29.823  12.472
55595W        W22136  10.555   8.059  11.611
55596W        W22137  34.562  30.116  13.536
55597W        W22138  33.599  10.960  11.125
55598W        W22139  31.778  42.506   2.410
55599W        W22140   3.404  44.079   3.047
55600W        W22141  11.639  34.875   3.868
55601W        W22142  20.061  36.420   2.637
55602W        W22143  28.524   6.667  13.812
55603W        W22144   3.303  26.187  12.287
55604W        W22145  17.176  19.110   3.787
55605W        W22146   8.006  18.955   3.470
55606W        W22147  32.394   0.030  12.877
55607W        W22148  42.329  43.294  14.392
55608W        W22149  29.223  39.071   4.082
55609W        W22150  42.290   7.726   0.640
55610W        W22151  35.767  35.413  11.214
55611W        W22152   7.054  33.546  10.818
55612W        W22153  14.105  36.116  12.676
55613W        W22154  18.030  43.365  14.943
55614W        W22155   5.424  19.556   0.460
55615W        W22156   7.302  26.446   4.667
55616W        W22157  27.631  44.432  12.027
55617W        W22158   8.293  15.779   4.177
55618W        W22159  37.602  11.142  12.825
55619W        W22160  38.672  21.110   3.174
55620W        W22161   7.808  19.491  11.046
55621W        W22162   5.303  19.260  11.669
55622W        W22163  42.913  12.100   2.860
55623W        W22164  26.460  15.848   4.093
55624W        W22165  41.928   4.508  11.571
55625W        W22166  23.117   9.663  10.875
55626W        W22167  22.206  33.685   0.053
55627W        W22168  21.701  22.579   4.305
55628W        W22169  27.442   3.758  14.888
55629W        W22170  29.977  13.694   0.730
55630W        W22171  43.490   7.150   2.028
55631W        W22172   2.924  30.061   3.629
55632W        W22173  42.770  28.153  13.457
55633W        W22174   3.419  17.809  12.984
55634W        W22175  16.625  12.243   3.878
55635W        W22176  21.728   3.496  10.275
55636W        W22177   8.393  44.175   0.476
55637W        W22178  35.800  19.522  11.758
55638W        W22179  41.096  28.662  12.641
55639W        W22180  20.662   7.010   4.243
55640W        W22181   9.750  35.301  12.902
55641W        W22182  15.276   8.070   2.316
55642W        W22183  37.509  20.455   3.636
55643W        W22184  26.508  16.636   4.549
55644W        W22185  14.664   5.944  13.446
55645W        W22186   9.871   3.398   2.312
55646W        W22187  12.180  18.234  13.821
55647W        W22188  38.854  43.793   4.067
55648W        W22189  38.823  31.177   1.926
55649W        W22190   0.315  30.272   3.559
55650W        W22191  42.299  25.982   0.461
55651W        W22192  44.415  40.821  12.670
55652W        W22193   0.399  28.234  12.974
55653W        W22194  14.485  23.501   0.986
55654W        W22195  34.360  44.115   1.952
55655W        W22196  21.553   0.695   4.346
55656W        W22197  10.861  41.046   4.844
55657W        W22198  14.935  35.163  12.879
55658W        W22199  42.393  38.383   2.117
55659W        W22200  27.103  28.436  13.228
55660W        W22201  31.530  24.689   3.560
55661W        W22202  36.454   6.236  12.944
55662W        W22203  42.746  17.588   0.080
55663W        W22204  16.788  16.005  11.675
55664W        W22205  30.401  15.516   2.544
55665W        W22206  32.117  21.531  12.999
55666W        W22207  28.798  31.345  14.278
55667W        W22208  38.428   3.343   2.952
55668W        W22209  31.368  15.740  12.747
55669W        W22210  28.524  32.562  11.553
55670W        W22211  22.166   3.224  11.119
55671W        W22212  37.363  24.514   2.209
55672W        W22213  36.319   1.509   3.092
55673W        W22214  14.844  39.157   3.269
55674W        W22215  15.653  39.482  14.513
55675W        W22216  32.534  22.992  12.010
55676W        W22217   9.361  27.954   0.843
55677W        W22218  31.821   7.677  10.822
55678W        W22219   1.696  14.147   1.610
55679W        W22220   7.729   6.441  10.626
55680W        W22221  30.204  26.966   1.493
55681W        W22222  29.596   1.924  10.672
55682W        W22223  35.976   4.821  14.958
55683W        W22224   0.462  21.123  13.438
55684W        W22225  38.584  34.848   1.416
55685W        W22226   5.739  36.479  12.323
55686W        W22227   9.422  42.026   9.772
55687W        W22228   3.991  31.478  13.041
55688W        W22229  23.003  23.027   1.903
55689W        W22230   0.132  44.276   3.598
55690W        W22231  44.468  34.525   3.017
55691W        W22232  37.373  14.275   4.924
55692W        W22233  38.474   6.305   4.433
55693W        W22234  31.061  10.854  11.966
55694W        W22235  42.213  36.885   4.635
55695W        W22236   1.676  25.027  13.515
55696W        W22237  41.940  40.095   3.565
55697W        W22238  27.691   7.887   4.406
55698W        W22239  22.703  22.682   0.011
55699W        W22240   0.799  14.151   4.597
55700W        W22241   5.477  22.351  14.456
55701W        W22242  10.858   4.383  14.808
55702W        W22243  37.170  24.998   3.561
55703W        W22244  29.880  16.519   2.885
55704W        W22245   1.341  26.927   1.657
55705W        W22246  27.107  31.578   1.007
55706W        W22247  27.486  42.509   4.067
55707W        W22248  38.379  23.754   4.785
55708W        W22249  25.173   7.198  14.316
55709W        W22250  43.782  31.030  10.688
55710W        W22251  34.460  38.702   1.537
55711W        W22252  23.962  17.678   2.140
55712W        W22253  42.326  17.280   4.104
55713W        W22254  24.265  17.281   2.260
55714W        W22255   9.794  11.681  10.678
55715W        W22256  24.254   1.978  12.103
55716W        W22257  38.252  42.536  14.643
55717W        W22258   0.882  27.671  11.010
55718W        W22259  43.909  19.005  13.854
55719W        W22260  40.438  43.364   2.791
55720W        W22261  13.267  22.839   5.149
55721W        W22262   2.442   4.776   0.555
55722W        W22263   3.236  36.156   3.670
55723W        W22264  14.714   6.908   2.726
55724W        W22265  14.900  21.266  12.202
55725W        W22266  32.448   9.196  14.392
55726W        W22267  40.423   8.129   0.726
55727W        W22268   6.835  39.323  14.852
55728W        W22269  19.093   2.476   0.993
55729W        W22270   6.022  24.496  11.981
55730W        W22271  37.413  14.320   1.623
55731W        W22272  12.073  12.532   0.600
55732W        W22273  22.030  29.169  12.019
55733W        W22274  12.029  44.903   0.325
55734W        W22275  17.617  40.368  11.797
55735W        W22276  29.052  38.454   0.937
55736W        W22277  23.015  22.041   0.335
55737W        W22278  22.616  30.199  14.800
55738W        W22279   4.924  25.736  12.530
55739W        W22280  18.824  35.067  14.308
55740W        W22281   8.743   3.418  12.554
55741W        W22282  23.709  36.139   2.942
55742W        W22283  11.456  10.651  10.776
55743W        W22284  37.907   6.767   3.256
55744W        W22285  11.688   5.420   2.804
55745W        W22286  13.312  17.982  11.178
55746W        W22287  20.705  12.272   1.769
55747W        W22288  15.269  37.451   4.562
55748W        W22289  39.174  42.768   1.031
55749W        W22290  29.444   4.757  13.965
55750W        W22291  30.803  29.322  12.718
55751W        W22292   8.344   2.962   0.187
55752W        W22293   1.733  28.773   3.124
55753W        W22294  18.671   6.616  11.039
55754W        W22295   0.973  38.651  10.986
55755W        W22296  18.183  32.857   3.610
55756W        W22297  11.768   2.873   3.357
55757W        W22298  29.623  16.605   2.417
55758W        W22299   9.462  11.635   1.785
55759W        W22300   7.328  26.529  11.210
55760W        W22301   7.287   1.932   2.701
55761W        W22302   3.260  25.496   3.196
55762W        W22303  31.015  11.609   2.219
55763W        W22304  14.308   1.546   1.640
55764W        W22305   7.424  12.371  11.997
55765W        W22306  39.782  35.548   1.784
55766W        W22307  26.546  14.321   1.750
55767W        W22308   7.339  34.524  14.344
55768W        W22309  21.995  17.406   4.225
55769W        W22310  36.806   7.367  14.069
55770W        W22311   9.909  29.459   2.374
55771W        W22312  24.993  42.840  14.227
55772W        W22313   7.391  29.441   2.613
55773W        W22314  24.731  34.354  12.810
55774W        W22315  25.738   7.926  13.987
55775W        W22316  37.600  20.038   2.579
55776W        W22317  36.912  44.771   1.829
55777W        W22318   1.368  21.993  11.846
55778W        W22319  44.303  15.838  12.189
55779W        W22320  17.027  14.650   1.906
55780W        W22321  10.561  25.622  11.659
55781W        W22322  29.217   1.096   4.645
55782W        W22323   0.026  16.710  12.094
55783W        W22324   9.731  38.619   4.055
55784W        W22325   3.793   3.755  12.468
55785W        W22326  11.241   6.229   1.689
55786W        W22327  21.223  20.527   2.783
55787W        W22328  20.927  21.098  13.715
55788W        W22329  26.799  26.307   2.842
55789W        W22330  34.421  11.910   1.021
55790W        W22331  20.696  31.922   4.793
55791W        W22332  33.949  29.160  12.820
55792W        W22333  31.594  38.100  10.629
55793W        W22334  29.900  40.101  10.431
55794W        W22335  20.457  32.324   3.524
55795W        W22336  31.068   3.520  13.892
55796W        W22337  25.730  24.641   0.368
55797W        W22338  31.380  28.063  12.128
55798W        W22339  17.179  28.395  11.798
55799W        W22340  43.349   7.929   4.171
55800W        W22341  38.758   4.331   3.249
55801W        W22342  38.608  26.441  13.616
55802W        W22343  37.116  43.301   2.805
55803W        W22344  37.603  22.156  14.724
55804W        W22345   5.209  44.500  11.576
55805W        W22346  25.604  36.532   2.800
55806W        W22347   3.765  19.126   4.220
55807W        W22348  25.137  40.515  11.451
55808W        W22349  23.171  39.904  11.640
55809W        W22350  21.096  22.120  10.653
55810W        W22351  31.412  16.207   3.660
55811W        W22352  42.099  33.788  11.128
55812W        W22353  15.867  35.467  14.493
55813W        W22354  19.855  27.383   0.962
55814W        W22355  41.907  11.550   3.121
55815W        W22356   3.214  14.738   4.657
55816W        W22357  36.073  28.401  11.256
55817W        W22358   0.577  35.042   3.123
55818W        W22359   0.572  28.993  11.678
55819W        W22360   8.424  29.918   0.437
55820W        W22361   2.331  30.100   1.000
55821W        W22362  16.543  42.664   0.808
55822W        W22363  17.429  31.098  11.505
55823W        W22364   3.642  29.515  14.597
55824W        W22365   6.594  21.556  11.944
55825W        W22366  18.825  34.683  12.052
55826W        W22367  27.419  35.796   0.469
55827W        W22368   6.014   4.624  11.043
55828W        W22369   7.933  17.829   4.235
55829W        W22370  41.290  34.789  11.178
55830W        W22371  18.302  33.859   0.760
55831W        W22372  32.656   1.456   5.093
55832W        W22373  32.413  21.063   1.795
55833W        W22374  32.518  27.289  14.329
55834W        W22375  43.777   7.058  11.039
55835W        W22376  44.936  39.345  14.639
55836W        W22377   8.173  25.693  12.660
55837W        W22378  14.329  15.823   3.188
55838W        W22379  33.320  40.365   1.755
55839W        W22380  44.869  43.786  14.085
55840W        W22381  35.836  31.160  11.514
55841W        W22382  29.648   1.535  13.144
55842W        W22383  21.119  26.208   0.243
55843W        W22384  30.147  41.117  11.082
55844W        W22385  28.689  10.290   4.640
55845W        W22386  34.869  43.524   2.721
55846W        W22387   6.490  27.646  12.912
55847W        W22388   1.753  40.971   0.580
55848W        W22389  24.714   5.794  14.702
55849W        W22390  24.676  16.824   1.258
55850W        W22391  41.012  26.668  11.202
55851W        W22392   7.514   3.660  11.253
55852W        W22393  31.485  39.337   1.810
55853W        W22394  42.336  27.992   2.260
55854W        W22395   6.448  34.495   1.869
55855W        W22396  28.099  19.260  12.368
55856W        W22397  19.778   3.284  11.954
55857W        W22398  35.615  34.835  12.398
55858W        W22399   1.889  30.302   1.190
55859W        W22400  33.109   6.516   5.036
55860W        W22401  14.674  20.971   3.701
55861W        W22402   4.011  19.949   2.258
55862W        W22403  37.947  36.062  14.845
55863W        W22404  23.408  12.334   4.614
55864W        W22405   0.738  35.833   4.191
55865W        W22406  40.880  32.140   4.612
55866W        W22407  31.030  28.194   2.364
55867W        W22408  35.383  37.105  14.029
55868W        W22409  17.324  32.411   2.891
55869W        W22410  44.230   1.196  13.476
55870W        W22411   5.146  11.284   4.156
55871W        W22412  21.891  33.551   0.443
55872W        W22413  33.316   0.377  11.401
55873W        W22414   5.239   1.784  13.978
55874W        W22415  44.958  32.942  13.831
55875W        W22416  29.494  15.768  10.807
55876W        W22417  23.148  33.386   1.048
55877W        W22418  39.013  40.029   0.327
55878W        W22419   8.609  41.472  14.895
55879W        W22420  39.583  41.407   4.101
55880W        W22421  22.666   8.466   0.356
55881W        W22422  26.742  33.512  11.506
55882W        W22423  24.496  17.118   2.705
55883W        W22424   7.499  37.601  14.272
55884W        W22425   1.264   2.312  12.639
55885W        W22426   0.855   0.112   3.266
55886W        W22427   0.805   9.364  14.432
55887W        W22428   4.837  31.159  13.929
55888W        W22429  32.920  33.585  11.056
55889W        W22430  11.089   1.720  11.506
55890W        W22431  34.419   5.149  14.796
55891W        W22432  40.967  40.218   2.281
55892W        W22433   5.141  44.343   2.948
55893W        W22434   4.849  41.521   0.237
55894W        W22435  20.379  36.032  10.269
55895W        W22436  11.372  12.845   1.758
55896W        W22437  41.693  44.465   1.662
55897W        W22438   5.427  22.659   5.144
55898W        W22439  33.074  16.896  12.043
55899W        W22440  22.980  41.977  13.545
55900W        W22441  24.227  22.000  13.997
55901W        W22442  24.285   8.225   4.544
55902W        W22443  16.905  28.094  11.376
55903W        W22444   7.143   1.465   1.756
55904W        W22445  34.944   2.010  11.656
55905W        W22446  40.854  37.062  12.077
55906W        W22447  32.001   8.873  12.803
55907W        W22448  27.536  18.782  14.930
55908W        W22449   3.811   7.564  12.467
55909W        W22450  15.038  22.189  14.855
55910W        W22451  33.184  44.260   4.098
55911W        W22452  27.235  20.520   3.521
55912W        W22453  35.585  42.883   0.488
55913W        W22454   5.148  34.614   2.862
55914W        W22455  10.116  21.969  12.101
55915W        W22456  17.390   8.892  12.529
55916W        W22457   8.711   8.182   3.410
55917W        W22458  23.550  17.053   3.630
55918W        W22459  37.745  43.997  12.355
55919W        W22460  36.799  24.605   0.985
55920W        W22461  34.155  13.577   1.317
55921W        W22462  35.071  17.294   1.367
55922W        W22463  40.281  39.556  10.741
55923W        W22464  15.482  25.545   0.742
55924W        W22465   2.879  36.515   3.831
55925W        W22466  42.297  40.466   3.686
55926W        W22467   8.690  26.199  13.252
55927W        W22468  36.056   5.755  14.211
55928W        W22469  17.603   4.156   4.587
55929W        W22470   8.335  44.337  11.001
55930W        W22471   7.164  29.169   0.416
55931W        W22472   1.144  24.929  11.109
55932W        W22473  27.618  15.072  14.393
55933W        W22474   2.477   8.034   2.975
55934W        W22475  15.647  14.770   2.167
55935W        W22476  39.946  32.174  14.206
55936W        W22477  30.429  20.360  12.948
55937W        W22478   1.243  38.634   4.522
55938W        W22479  39.741  36.449   1.784
55939W        W22480   8.746  38.497  11.559
55940W        W22481  17.716  28.427   3.242
55941W        W22482  16.190  24.661  12.836
55942W        W22483  12.685  19.592   4.660
55943W        W22484   5.496   6.270  14.796
55944W        W22485  41.005  17.606   3.248
55945W        W22486  39.377  32.343  12.458
55946W        W22487   0.028  21.338   3.663
55947W        W22488  15.683  17.577  12.868
55948W        W22489  15.339  22.624   0.728
55949W        W22490  22.419  20.522  14.500
55950W        W22491  41.067  12.168  12.026
55951W        W22492  33.601  34.415   9.899
55952W        W22493  43.252  38.917   3.580
55953W        W22494  42.327   4.097   1.436
55954W        W22495  42.836   5.191  14.478
55955W        W22496  31.528  23.706   4.799
55956W        W22497  20.571  22.163   3.731
55957W        W22498  15.701  23.432   0.269
55958W        W22499  40.319  24.121  13.226
55959W        W22500  36.386  34.925   3.700
55960W        W22501  32.416   4.817   3.715
55961W        W22502  39.795  31.114   4.218
55962W        W22503  23.227  11.065   0.385
55963W        W22504  30.632  10.052  12.053
55964W        W22505  29.944   7.140   3.879
55965W        W22506   2.222   2.515   3.619
55966W        W22507  25.199   1.804   0.431
55967W        W22508  42.892  18.663   2.335
55968W        W22509  21.002   4.299   4.520
55969W        W22510  40.633  33.371   5.104
55970W        W22511   0.890  19.120   4.851
55971W        W22512  27.545  17.635  14.114
55972W        W22513   9.778  26.762   1.968
55973W        W22514  11.598   7.324   4.574
55974W        W22515   3.875  44.732   0.339
55975W        W22516  22.131  42.578   4.567
55976W        W22517  44.288  23.005  13.890
55977W        W22518  34.613   0.385   9.750
55978W        W22519  32.100   6.966  14.231
55979W        W22520  26.544   4.700   0.298
55980W        W22521  18.299  21.341   2.733
55981W        W22522  39.251  20.696  11.663
55982W        W22523  17.468  38.609   1.880
55983W        W22524  13.266  40.120  13.482
55984W        W22525   9.254  24.404   0.189
55985W        W22526  10.794  33.078  13.887
55986W        W22527  32.448  40.430  13.893
55987W        W22528  19.618  20.453  12.439
55988W        W22529  40.526  35.104   3.366
55989W        W22530  40.809   9.837  11.905
55990W        W22531  41.777   9.683   0.889
55991W        W22532  17.391  27.949  11.519
55992W        W22533   7.336  12.310   1.637
55993W        W22534  25.153  13.337   1.391
55994W        W22535  20.046  40.491  14.908
55995W        W22536  30.918  10.724   0.029
55996W        W22537  32.975  25.523   4.596
55997W        W22538  41.557  22.657   4.156
55998W        W22539   4.898  13.858   1.822
55999W        W22540  41.600   7.917   2.771
56000W        W22541   9.207  23.174  13.392
56001W        W22542  18.514  17.834   2.410
56002W        W22543  30.412  36.357   2.808
56003W        W22544   3.420   5.648   2.799
56004W        W22545  10.624  19.688  14.279
56005W        W22546  36.497  42.399  12.141
56006W        W22547  34.379   3.958  13.221
56007W        W22548  10.336  30.380   1.576
56008W        W22549  20.110  35.773   3.646
56009W        W22550  34.880  18.549   4.612
56010W        W22551  36.964   9.400   2.496
56011W        W22552  14.176  36.587  12.354
56012W        W22553  27.670  38.952   0.768
56013W        W22554  22.975   9.294   3.271
56014W        W22555  28.878  35.994   0.407
56015W        W22556  14.837  37.530   1.431
56016W        W22557  39.114   3.141   4.549
56017W        W22558   3.030  38.081  12.028
56018W        W22559  17.644  36.395  12.145
56019W        W22560  31.003  14.384   5.439
56020W        W22561   4.008  13.608  13.015
56021W        W22562  28.623   9.240  14.419
56022W        W22563   9.278   1.679  14.394
56023W        W22564  18.263  11.117  10.738
56024W        W22565  23.554  32.616   2.485
56025W        W22566   3.850  37.591   1.824
56026W        W22567  17.959   1.748  11.277
56027W        W22568  13.754  25.074   2.215
56028W        W22569  23.557  33.474   0.365
56029W        W22570  17.907  17.075   3.814
56030W        W22571   8.465  39.541  12.187
56031W        W22572   6.933  44.483  14.957
56032W        W22573  35.626  20.082   1.409
56033W        W22574  17.348   1.705  13.406
56034W        W22575   3.270   1.088   2.143
56035W        W22576   6.090   3.886   3.663
56036W        W22577   4.203  11.873   4.888
56037W        W22578  37.525  39.621   1.780
56038W        W22579  25.682   6.203  11.614
56039W        W22580   0.406  13.836  11.172
56040W        W22581  25.088  19.512  11.556
56041W        W22582  28.694   2.630   1.819
56042W        W22583  24.150  15.302   3.235
56043W        W22584  33.597  18.246  10.758
56044W        W22585  25.801   9.389   4.563
56045W        W22586  16.821  13.652   2.150
56046W        W22587  16.094  13.645   2.329
56047W        W22588  22.718  32.373   0.907
56048W        W22589  12.889  39.721  12.540
56049W        W22590  20.324   1.756  11.239
56050W        W22591  29.992  17.310   1.735
56051W        W22592   6.482  20.204  14.262
56052W        W22593  17.015  10.186  12.832
56053W        W22594   1.424   4.813  12.809
56054W        W22595  33.382  44.481   4.544
56055W        W22596  22.623   1.016   5.003
56056W        W22597   8.045  15.583   1.419
56057W        W22598  21.862  32.483   3.925
56058W        W22599  29.854  15.502  12.661
56059W        W22600  13.338  30.088  11.921
56060W        W22601  19.784  21.618  13.848
56061W        W22602  44.017   5.426  11.994
56062W        W22603  41.629  15.516   1.910
56063W        W22604  38.447  26.691  12.708
56064W        W22605  29.606   1.739   1.114
56065W        W22606  16.060  44.272  11.172
56066W        W22607  11.813  40.880  14.655
56067W        W22608  17.829  31.785   5.422
56068W        W22609  37.025  33.050  11.588
56069W        W22610  31.890   6.671  11.141
56070W        W22611  24.170  18.535   1.368
56071W        W22612  21.628  38.480  13.077
56072W        W22613   7.241  27.190   3.814
56073W        W22614  29.871  37.917  11.717
56074W        W22615  17.165  23.753  12.503
56075W        W22616  25.536  42.476   0.938
56076W        W22617  15.064  20.079   2.768
56077W        W22618  33.619   5.123  13.861
56078W        W22619  20.727  36.101   4.902
56079W        W22620  24.991  15.785  10.587
56080W        W22621  15.458   1.250  13.357
56081W        W22622  23.910   1.961  14.983
56082W        W22623   6.757   8.817   2.208
56083W        W22624  41.018  43.529   3.033
56084W        W22625   0.445   3.827   3.421
56085W        W22626  39.136  33.092   2.439
56086W        W22627   4.431  35.906  14.222
56087W        W22628   7.805   0.529  11.593
56088W        W22629   8.179  15.874  14.842
56089W        W22630  36.674   2.999  11.675
56090W        W22631  42.400  20.110  11.421
56091W        W22632  24.742   0.163   4.132
56092W        W22633   8.771  19.650   0.820
56093W        W22634  17.057  24.288  12.493
56094W        W22635  17.712  31.513   9.624
56095W        W22636  18.245  12.288   2.734
56096W        W22637  19.652   2.051   1.211
56097W        W22638  43.533  19.154   2.458
56098W        W22639  11.837   4.397  11.913
56099W        W22640   6.319  24.939   1.005
56100W        W22641  22.478  29.644  11.128
56101W        W22642  12.128  35.530  13.375
56102W        W22643  18.549   4.711  13.988
56103W        W22644  14.498   6.268   1.238
56104W        W22645  19.476  44.169  14.930
56105W        W22646   5.083  24.283  12.270
56106W        W22647   1.301  39.792  14.444
56107W        W22648  31.954   3.300   0.012
56108W        W22649   8.029  14.315  13.618
56109W        W22650  12.948  33.430   4.560
56110W        W22651  17.043  28.121   1.347
56111W        W22652  41.190  27.436  12.946
56112W        W22653  12.122  43.887  10.757
56113W        W22654  20.260   0.970   0.867
56114W        W22655  34.886  10.797   1.694
56115W        W22656  31.915  30.033   2.297
56116W        W22657  34.104  19.687   1.690
56117W        W22658  14.721  19.021  14.142
56118W        W22659  10.013  26.978   0.205
56119W        W22660  14.061  20.855   0.353
56120W        W22661  21.210  27.683   2.749
56121W        W22662  13.601  41.377  11.881
56122W        W22663  36.991  11.715  11.100
56123W        W22664  39.574  31.973   4.063
56124W        W22665  36.496   2.518   1.876
56125W        W22666  36.113  33.943   1.242
56126W        W22667  40.680  14.969   5.373
56127W        W22668   1.861   8.653   3.136
56128W        W22669  19.439   2.926  11.214
56129W        W22670  17.573  22.596  14.831
56130W        W22671  29.087  38.968  11.352
56131W        W22672   6.427  20.645   3.816
56132W        W22673  22.162  21.267  10.520
56133W        W22674   1.964   9.839  14.508
56134W        W22675  16.649  24.560  14.116
56135W        W22676  12.640  28.516   1.923
56136W        W22677  26.628  12.193  12.490
56137W        W22678  12.778  41.929   4.457
56138W        W22679   5.777  14.525  14.098
56139W        W22680  21.268  18.042   0.340
56140W        W22681  40.071  31.629  14.050
56141W        W22682  29.675  15.127   3.520
56142W        W22683  42.017  15.705  10.862
56143W        W22684   0.402  37.547   5.092
56144W        W22685  16.813  39.123  14.889
56145W        W22686  40.196  25.722  11.974
56146W        W22687  15.109  25.452  14.817
56147W        W22688  11.114  34.949  13.949
56148W        W22689  30.284   6.965   4.805
56149W        W22690  29.227  13.166   0.875
56150W        W22691   3.967  27.912   0.886
56151W        W22692  24.953  20.686   0.023
56152W        W22693   0.870  24.147   0.925
56153W        W22694  10.375  21.191  11.097
56154W        W22695  30.677  41.822   2.250
56155W        W22696  34.090  23.630   3.980
56156W        W22697  30.603  10.530   4.983
56157W        W22698   7.860   9.732  11.219
56158W        W22699  41.807  15.704   4.075
56159W        W22700  28.057  38.832   2.450
56160W        W22701   1.326  27.209   3.577
56161W        W22702  25.008   6.484   4.533
56162W        W22703   7.063  21.551  12.738
56163W        W22704  32.211   0.477   0.268
56164W        W22705  26.992   7.816  13.375
56165W        W22706  17.561  30.482   4.017
56166W        W22707  24.563  36.322  11.197
56167W        W22708   1.521  35.608   2.433
56168W        W22709  30.668  27.976   3.277
56169W        W22710  29.521  26.623   4.666
56170W        W22711  33.359  40.473  12.385
56171W        W22712   7.279  24.237  10.154
56172W        W22713  41.035  27.964   1.356
56173W        W22714  30.565  18.935   3.299
56174W        W22715  11.170  18.764   3.432
56175W        W22716  38.819  40.340   1.530
56176W        W22717   7.792  38.971   1.466
56177W        W22718   8.863  44.925   4.649
56178W        W22719   5.939   1.727  13.480
56179W        W22720  40.067  12.558   1.708
56180W        W22721   0.439  35.821  11.135
56181W        W22722   7.230   7.195   1.126
56182W        W22723   8.098   5.352   0.398
56183W        W22724  17.293   4.484  13.500
56184W        W22725  26.828  39.448   0.502
56185W        W22726   1.211  16.259   4.864
56186W        W22727  33.378  24.061  10.681
56187W        W22728  11.243  35.905   0.038
56188W        W22729  27.795  20.639  13.895
56189W        W22730  27.168   8.810  13.496
56190W        W22731  16.711  30.386   4.439
56191W        W22732  39.338   5.959  11.883
56192W        W22733  44.505  29.503   3.871
56193W        W22734  11.259  12.355   0.981
56194W        W22735  23.007  13.073  11.187
56195W        W22736  15.069  23.222   1.923
56196W        W22737  33.882   8.783   0.412
56197W        W22738  23.280  25.450  11.188
56198W        W22739  40.411  26.442  10.593
56199W        W22740   1.205  13.843  10.742
56200W        W22741   3.552  32.678   4.724
56201W        W22742  29.119  19.668   3.673
56202W        W22743  26.557   4.147   2.967
56203W        W22744   8.626  42.759   1.457
56204W        W22745  27.176  26.362  11.427
56205W        W22746  12.861  25.202  10.448
56206W        W22747   6.486  25.112   1.458
56207W        W22748  24.469  31.439   2.891
56208W        W22749  28.469  15.330   3.240
56209W        W22750  33.867   7.339  13.079
56210W        W22751  36.112   8.572   2.211
56211W        W22752   0.210   2.028   1.165
56212W        W22753  21.812  44.454  14.005
56213W        W22754  38.429  32.357   4.207
56214W        W22755  24.034   2.488  14.117
56215W        W22756  30.964  14.009  10.777
56216W        W22757   4.399  16.375  13.985
56217W        W22758  39.999  31.902   2.347
56218W        W22759  21.741  34.942  11.974
56219W        W22760   5.835  21.018  10.735
56220W        W22761  33.026  30.774   1.957
56221W        W22762   6.734  11.787  10.676
56222W        W22763  41.873  27.422  13.989
56223W        W22764  23.643  38.566   0.862
56224W        W22765  10.358  12.207   4.558
56225W        W22766  36.922  41.376   2.379
56226W        W22767  26.994  44.031   0.331
56227W        W22768  11.646  16.333  13.447
56228W        W22769  42.439  16.062   3.527
56229W        W22770  25.707  31.105  12.820
56230W        W22771   2.290  43.592  14.013
56231W        W22772  43.477   9.444  12.926
56232W        W22773  20.207  10.402   2.128
56233W        W22774   4.369  21.625  12.451
56234W        W22775  42.993  20.517   3.084
56235W        W22776  32.556   0.881   3.646
56236W        W22777   7.102  21.678  11.992
56237W        W22778  31.593  42.004   2.293
56238W        W22779  11.295  35.746  10.935
56239W        W22780  27.318  35.992   4.978
56240W        W22781  14.309  16.766  10.680
56241W        W22782   1.157  39.802   2.800
56242W        W22783  17.180  27.899  12.960
56243W        W22784  40.013  39.799  12.070
56244W        W22785  34.107  24.477  10.786
56245W        W22786  21.716  13.178   2.055
56246W        W22787   6.433   4.947  13.869
56247W        W22788  13.218   5.710  11.564
56248W        W22789  34.325  34.384  14.531
56249W        W22790  25.810  35.617  12.630
56250W        W22791  34.831  14.804   1.366
56251W        W22792  30.153  34.571  12.518
56252W        W22793   6.178   6.555   3.306
56253W        W22794   2.385  24.313  13.853
56254W        W22795  27.448  28.584  10.425
56255W        W22796  37.722  11.714   4.029
56256W        W22797  20.615  36.485   3.313
56257W        W22798  43.208   5.695  10.605
56258W        W22799  29.546  34.579   1.851
56259W        W22800  13.648  34.960  13.988
56260W        W22801  17.667  38.368   0.141
56261W        W22802  18.601  16.175   0.990
56262W        W22803  39.734  10.191   1.345
56263W        W22804  43.409  21.717  14.439
56264W        W22805  41.838  27.867   2.382
56265W        W22806  41.953  37.621  11.210
56266W        W22807  15.581  21.250   1.731
56267W        W22808  25.611  13.271  13.049
56268W        W22809  16.175  41.428   4.276
56269W        W22810  24.546  14.033  14.595
56270W        W22811  41.422  41.958  11.535
56271W        W22812  17.491  22.422  10.745
56272W        W22813   7.985  17.744  12.015
56273W        W22814  15.981  14.962  13.012
56274W        W22815  23.276  10.710   1.169
56275W        W22816   8.310   7.435  14.747
56276W        W22817  23.534   8.776   5.221
56277W        W22818   9.452  26.758  12.685
56278W        W22819  35.820  15.761  13.238
56279W        W22820  21.612   2.261   4.209
56280W        W22821  25.887  19.572   0.040
56281W        W22822  33.586  20.080   0.368
56282W        W22823  26.425  26.690  11.079
56283W        W22824  37.911  12.912  12.044
56284W        W22825  21.110  21.682  12.479
56285W        W22826  30.161  23.561  14.411
56286W        W22827  28.521  28.418  12.668
56287W        W22828   8.920  23.242   0.372
56288W        W22829  12.276  31.562  11.411
56289W        W22830   5.264  23.451  11.524
56290W        W22831  39.485  16.688  12.363
56291W        W22832  19.949  11.252   3.316
56292W        W22833  33.566  16.475  10.291
56293W        W22834  11.338  10.099   2.240
56294W        W22835  40.997  39.395   3.348
56295W        W22836  35.063  41.194  10.199
56296W        W22837  12.751   8.260   2.891
56297W        W22838  26.595  28.028   4.089
56298W        W22839  27.464   8.861  12.602
56299W        W22840  43.981  37.899  10.988
56300W        W22841  11.389  33.796  12.939
56301W        W22842  43.757  28.986   0.303
56302W        W22843  31.344  24.818   3.106
56303W        W22844  31.361  32.314  12.402
56304W        W22845  15.226  42.821   0.315
56305W        W22846   2.502   0.109  11.582
56306W        W22847  13.942   3.589   5.134
56307W        W22848  30.147  21.872  12.835
56308W        W22849   5.162  28.739   3.792
56309W        W22850   3.914   9.117  10.869
56310W        W22851  23.070  24.145   0.003
56311W        W22852   0.885  27.400  14.008
56312W        W22853   9.620  13.863  14.847
56313W        W22854  35.292  20.542  14.811
56314W        W22855   0.573  22.806   3.970
56315W        W22856   5.950  43.194  13.925
56316W        W22857  23.445  29.468   4.152
56317W        W22858  44.944  18.140   4.207
56318W        W22859  39.720  42.482  13.943
56319W        W22860  29.551  43.069  14.334
56320W        W22861  10.987  14.860  11.015
56321W        W22862  16.222   4.803   1.886
56322W        W22863  25.056  22.450   1.170
56323W        W22864  33.107  22.150  14.925
56324W        W22865  42.226   9.214   2.622
56325W        W22866  31.273   2.354  11.065
56326W        W22867  15.662  42.522   0.472
56327W        W22868  14.622  44.459  10.988
56328W        W22869   3.031  33.583   1.176
56329W        W22870  22.651  10.348  14.061
56330W        W22871  19.188  13.760  11.988
56331W        W22872   0.442  10.180   4.538
56332W        W22873  35.290  33.736   2.549
56333W        W22874  20.927  12.372   2.710
56334W        W22875  24.650  32.938  14.045
56335W        W22876   0.278  26.044   0.733
56336W        W22877   1.296  32.422  12.650
56337W        W22878  21.764  19.067   0.993
56338W        W22879   5.525  19.274  14.448
56339W        W22880  26.767  34.413   0.247
56340W        W22881  35.490   2.685   0.863
56341W        W22882  26.009   0.091   0.314
56342W        W22883  25.599  23.729   4.226
56343W        W22884  13.247  38.457   4.499
56344W        W22885  24.569  20.102   0.502
56345W        W22886  35.603  40.071  13.912
56346W        W22887  28.493  39.289  13.337
56347W        W22888  26.452  11.152  13.080
56348W        W22889  21.395  25.515  13.973
56349W        W22890  16.245  32.992   0.302
56350W        W22891  36.478  20.223  14.018
56351W        W22892  29.925   2.005   3.274
56352W        W22893  21.940   1.927   0.498
56353W        W22894  25.190  13.242   4.200
56354W        W22895  39.645   9.336  14.119
56355W        W22896  40.428   1.379   3.299
56356W        W22897  21.000  12.896  12.509
56357W        W22898  10.501  37.687   0.949
56358W        W22899  25.856  18.260  14.549
56359W        W22900  11.916  20.233  12.491
56360W        W22901  24.670   6.231  10.279
56361W        W22902  40.901  12.154   1.281
56362W        W22903  14.291   2.682   2.677
56363W        W22904  22.589  27.938   4.342
56364W        W22905  29.667  34.928  12.908
56365W        W22906  18.175  15.949  14.517
56366W        W22907  37.731  10.876   3.783
56367W        W22908  30.418  12.846  12.471
56368W        W22909   4.904  34.543  13.299
56369W        W22910   5.220  39.607   5.398
56370W        W22911   9.495  10.515  13.014
56371W        W22912  34.503   8.817  11.522
56372W        W22913   5.946  20.400   1.370
56373W        W22914   6.232  19.246   2.049
56374W        W22915   1.879   4.860  12.076
56375W        W22916   7.856   0.943  10.199
56376W        W22917  39.249  36.085  12.587
56377W        W22918  21.466  35.499  12.568
56378W        W22919  37.454  32.665   4.677
56379W        W22920   4.633  38.706  11.635
56380W        W22921  39.557  34.762   2.813
56381W        W22922  12.220  33.695   0.325
56382W        W22923  25.831  32.914  11.121
56383W        W22924  29.730  18.187   2.731
56384W        W22925   7.735  34.749   4.361
56385W        W22926  28.615  29.095  11.612
56386W        W22927  42.903  34.847  12.140
56387W        W22928  42.740  42.041  11.123
56388W        W22929  39.887  12.620  11.156
56389W        W22930  26.991  17.765   1.374
56390W        W22931  26.535  43.095  10.753
56391W        W22932  37.837  38.730  12.961
56392W        W22933  12.180  36.293  14.847
56393W        W22934  16.110  36.903   0.233
56394W        W22935  18.632  29.895  12.993
56395W        W22936  17.596  38.104  12.274
56396W        W22937   9.803  31.882   4.581
56397W        W22938  16.438  33.547   4.667
56398W        W22939   7.436   8.676   4.079
56399W        W22940   2.494  36.046  12.949
56400W        W22941  11.379  26.392   1.331
56401W        W22942  22.483   5.794  13.916
56402W        W22943  25.321   5.483  10.257
56403W        W22944  21.573  24.196  11.599
56404W        W22945  15.681  19.676  12.028
56405W        W22946   3.440   7.785  11.444
56406W        W22947   6.356  27.791  11.119
56407W        W22948  36.111  40.237   1.841
56408W        W22949  33.220   1.224  13.094
56409W        W22950  25.285   6.682   4.945
56410W        W22951  42.633  38.908  11.526
56411W        W22952   4.335  30.415  10.895
56412W        W22953  31.131  25.230   3.383
56413W        W22954  39.995  25.245  13.008
56414W        W22955   8.410   7.866  12.615
56415W        W22956   3.929  25.490   1.414
56416W        W22957  44.554  22.733  12.636
56417W        W22958  20.485  28.905  12.105
56418W        W22959   8.196  24.111   4.869
56419W        W22960  12.473  27.408  14.203
56420W        W22961  39.951   0.951  11.288
56421W        W22962   4.300   9.331   2.398
56422W        W22963  43.667   5.663   0.284
56423W        W22964  18.004   5.380   0.875
56424W        W22965  20.745   8.472  13.444
56425W        W22966  29.554  43.280   2.657
56426W        W22967  28.993  27.362  11.637
56427W        W22968  26.163  22.552   2.955
56428W        W22969  24.663  12.017   2.755
56429W        W22970  40.740  41.756  14.798
56430W        W22971   6.285  28.989   4.373
56431W        W22972  26.942  19.117   2.428
56432W        W22973  30.846  30.120   0.295
56433W        W22974   6.438  20.128   1.789
56434W        W22975   9.152  42.460  14.755
56435W        W22976  44.726  27.226   3.769
56436W        W22977  14.381  13.820  12.020
56437W        W22978   0.491  13.788  13.029
56438W        W22979  33.431  41.020  12.004
56439W        W22980   5.180  15.758   4.575
56440W        W22981  44.905  43.464  10.702
56441W        W22982  41.515  22.621  14.036
56442W        W22983  42.331  19.340  11.855
56443W        W22984  42.344  35.831  12.845
56444W        W22985   8.448  13.269   1.885
56445W        W22986   1.520   8.812   3.732
56446W        W22987  33.162  18.926   0.122
56447W        W22988  25.919  36.854   1.872
56448W        W22989  28.204   1.514  10.659
56449W        W22990  41.019   7.926  11.086
56450W        W22991  43.829  36.731   4.781
56451W        W22992  23.968  42.927  11.483
56452W        W22993  18.995   0.024   4.203
56453W        W22994  20.332  12.894  14.822
56454W        W22995  17.469   2.744  14.478
56455W        W22996  40.544  38.381  12.872
56456W        W22997  44.292  38.930  14.049
56457W        W22998   4.742  31.348   2.665
56458W        W22999   0.189  29.718  10.720
56459W        W23000  19.237  33.948  12.368
56460W        W23001   6.155  26.157  10.787
56461W        W23002  21.711  15.778  14.479
56462W        W23003  32.244   9.975  11.382
56463W        W23004   8.287  24.229  11.432
56464W        W23005   4.465   0.385   3.646
56465W        W23006  44.906   6.342  13.537
56466W        W23007  40.016  42.779   2.038
56467W        W23008  22.446  30.915  14.012
56468W        W23009  39.879   8.601   2.311
56469W        W23010  37.192  21.528   2.722
56470W        W23011  17.637  10.545   4.862
56471W        W23012   3.690  30.344   0.872
56472W        W23013   6.328  22.460   0.414
56473W        W23014  11.079   5.888   3.861
56474W        W23015   7.755  44.255  13.506
56475W        W23016  41.959   0.383  14.268
56476W        W23017   0.530  11.908  12.519
56477W        W23018  36.401  36.206  11.142
56478W        W23019   4.061  33.130  10.769
56479W        W23020  36.105  17.536  11.963
56480W        W23021  39.133  40.914   2.279
56481W        W23022  10.543  11.379  12.848
56482W        W23023   9.582  13.244   1.469
56483W        W23024  22.762  31.017   0.192
56484W        W23025  24.731  38.041   1.213
56485W        W23026  35.170  13.697  13.831
56486W        W23027   1.987   8.258   0.215
56487W        W23028   1.399   5.291   2.346
56488W        W23029  18.313  40.538  10.592
56489W        W23030  18.491  13.238  11.882
56490W        W23031  25.678  33.052   2.939
56491W        W23032   5.719  15.636  14.269
56492W        W23033  12.799  13.846   1.880
56493W        W23034   1.318   4.711  11.018
56494W        W23035  23.300  38.930   1.710
56495W        W23036  44.867  10.145   2.405
56496W        W23037  28.071  24.502   4.120
56497W        W23038   2.852  19.695  14.788
56498W        W23039  42.535   4.519   1.654
56499W        W23040  34.482  29.212  14.590
56500W        W23041  41.922  30.912   0.766
56501W        W23042  15.905   6.328   2.643
56502W        W23043  35.439  11.662  13.760
56503W        W23044   1.436  15.569  13.950
56504W        W23045   3.401  11.547   1.360
56505W        W23046   8.464  34.970   4.504
56506W        W23047   0.539  12.369   4.269
56507W        W23048  38.331   9.944   2.892
56508W        W23049  41.814   1.377  10.760
56509W        W23050  33.844   2.733  11.847
56510W        W23051  10.763   1.282  12.194
56511W        W23052   6.391  15.222   0.330
56512W        W23053   0.415   5.411  13.000
56513W        W23054   7.290  19.338  10.732
56514W        W23055   5.697   1.015  13.009
56515W        W23056  38.737  43.314  13.019
56516W        W23057  22.559  36.878  11.202
56517W        W23058  18.068   8.585  12.965
56518W        W23059   7.204  34.066   4.054
56519W        W23060  15.809  24.198  11.972
56520W        W23061  15.698  31.122   2.008
56521W        W23062   1.213  26.532   4.794
56522W        W23063   1.495  35.094   2.395
56523W        W23064  20.297  28.060  10.669
56524W        W23065  10.234  29.940   9.934
56525W        W23066  17.999   2.868   1.892
56526W        W23067  18.793  32.085  14.566
56527W        W23068  31.193  13.314   0.441
56528W        W23069  44.048   6.202  14.648
56529W        W23070   7.215  42.141  14.510
56530W        W23071   3.170  15.886   3.290
56531W        W23072   1.009   0.721  12.208
56532W        W23073  37.596   7.946   4.729
56533W        W23074  10.784  39.076   1.134
56534W        W23075  38.414   2.592  14.399
56535W        W23076   8.845  27.214   4.624
56536W        W23077  17.129  43.467   0.710
56537W        W23078  43.848  25.241  11.602
56538W        W23079  38.854  41.037   2.786
56539W        W23080   4.067  24.252  13.383
56540W        W23081  40.939  37.490  12.936
56541W        W23082  43.987  34.942  11.129
56542W        W23083  39.385   7.150   5.128
56543W        W23084  22.280  14.041  14.202
56544W        W23085  37.740  28.920   4.581
56545W        W23086  24.304  22.572   0.746
56546W        W23087  11.161  13.317  14.585
56547W        W23088  29.221   7.744  12.145
56548W        W23089  25.227   0.817  12.385
56549W        W23090  15.261   0.020   3.834
56550W        W23091  42.882  34.373  10.220
56551W        W23092  27.016  19.304   2.932
56552W        W23093  19.158  44.187   1.349
56553W        W23094   7.810  19.808   4.985
56554W        W23095  35.640   8.599  11.611
56555W        W23096   5.440   7.434  12.961
56556W        W23097   0.404   1.434  12.199
56557W        W23098  38.484  22.138   4.816
56558W        W23099  24.434  13.719  10.715
56559W        W23100  23.273  22.736  13.557
56560W        W23101  25.252  21.060  12.693
56561W        W23102  24.871  16.201  13.939
56562W        W23103  17.825   8.482  13.424
56563W        W23104   6.365  34.968   3.158
56564W        W23105  34.773   7.305   9.907
56565W        W23106   2.462   7.363  13.112
56566W        W23107  27.134  24.504   0.439
56567W        W23108  34.883  38.839  11.576
56568W        W23109  15.637  31.980   1.399
56569W        W23110  36.562   2.002   3.151
56570W        W23111  36.362  42.474   0.371
56571W        W23112  13.790  30.577  12.441
56572W        W23113  37.623  30.165   2.388
56573W        W23114  32.994   2.416  11.648
56574W        W23115  40.536  42.470  10.683
56575W        W23116   9.534  43.733  13.095
56576W        W23117   7.762   0.496   4.012
56577W        W23118  12.786  27.838  14.384
56578W        W23119  41.936  21.052   1.758
56579W        W23120  11.404  15.108  13.896
56580W        W23121  41.936  27.046   4.356
56581W        W23122   4.262   7.627   2.829
56582W        W23123   0.797  27.107  14.915
56583W        W23124  18.341  31.877  11.932
56584W        W23125  17.544   9.003  14.942
56585W        W23126  23.202  39.525  13.858
56586W        W23127   7.307  18.709  13.040
56587W        W23128   4.769  29.236  13.805
56588W        W23129  17.174  16.710   2.884
56589W        W23130  32.940  37.430   4.309
56590W        W23131  17.553   7.641   2.824
56591W        W23132  18.820   8.165   1.239
56592W        W23133   8.760  20.804   1.784
56593W        W23134  27.519  34.806   1.366
56594W        W23135  11.162  25.911   1.352
56595W        W23136  38.952  27.587   2.732
56596W        W23137  42.559  12.399  11.565
56597W        W23138   7.780  17.548  14.486
56598W        W23139  18.574  31.347  14.676
56599W        W23140  35.165  21.592  12.600
56600W        W23141  32.336  15.337  13.998
56601W        W23142  40.977  11.347   3.759
56602W        W23143   0.352  44.554   3.214
56603W        W23144  31.028  25.661   3.064
56604W        W23145  40.812  27.674   0.552
56605W        W23146   6.381  41.715   3.283
56606W        W23147  16.577  13.370   0.246
56607W        W23148  34.389  33.101   4.192
56608W        W23149  43.014  40.803  10.582
56609W        W23150  22.596  26.402   2.299
56610W        W23151  35.445  42.848  12.192
56611W        W23152   9.802  40.191  12.456
56612W        W23153  43.625  14.597  13.901
56613W        W23154   1.285  31.508  13.150
56614W        W23155  24.224  42.397  10.714
56615W        W23156  27.902  23.661  11.514
56616W        W23157  28.773  11.204   2.762
56617W        W23158  11.690  39.575   2.389
56618W        W23159  34.123  23.965  12.120
56619W        W23160  44.924  24.919   4.133
56620W        W23161  26.650  40.756   3.113
56621W        W23162   5.926  27.898  13.419
56622W        W23163  24.883  30.231  14.337
56623W        W23164   6.517  44.808   4.934
56624W        W23165  25.167   2.697  14.925
56625W        W23166  25.892  30.152   1.872
56626W        W23167  26.195  42.350  13.314
56627W        W23168  37.666  19.460   2.895
56628W        W23169  13.640   9.339   2.922
56629W        W23170  14.297   8.428   4.112
56630W        W23171   2.722  13.179   4.504
56631W        W23172  41.794  24.802   4.851
56632W        W23173  40.891   0.369   3.189
56633W        W23174  25.236  44.323  13.481
56634W        W23175  20.693  19.855   3.727
56635W        W23176  17.794  26.769  12.042
56636W        W23177  15.828  22.590  14.858
56637W        W23178   0.716  33.350   0.307
56638W        W23179  32.934  34.985   4.710
56639W        W23180  43.765  15.221   3.635
56640W        W23181  13.721  15.723   3.600
56641W        W23182  15.279  31.364   1.858
56642W        W23183  27.745  37.853   3.800
56643W        W23184  25.122  31.441  14.535
56644W        W23185  13.394   0.565  12.143
56645W        W23186  12.642  43.094   0.244
56646W        W23187  38.283  42.585  14.137
56647W        W23188   7.669  16.655   3.830
56648W        W23189  24.492  20.661   0.243
56649W        W23190  18.595  40.893   4.826
56650W        W23191   8.198  21.283   2.686
56651W        W23192  42.832  14.393  13.074
56652W        W23193   6.394   7.257   0.256
56653W        W23194   9.915  36.166   4.098
56654W        W23195  39.902  23.648  14.598
56655W        W23196  34.877  18.857  13.528
56656W        W23197  17.442  30.900   4.635
56657W        W23198  35.413  41.273  10.905
56658W        W23199   8.826  19.906   3.423
56659W        W23200  23.606  34.338   4.238
56660W        W23201   6.213  34.750  11.595
56661W        W23202  33.949  42.983   4.116
56662W        W23203   2.684   3.629   2.805
56663W        W23204  19.420  12.871   0.279
56664W        W23205  13.030  16.708   0.306
56665W        W23206  39.148  24.894   3.243
56666W        W23207  19.911  42.839  11.646
56667W        W23208  37.114  22.179  14.874
56668W        W23209  24.027  10.257   3.237
56669W        W23210  27.931  33.436  14.519
56670W        W23211   4.607   4.767   1.744
56671W        W23212  12.556  19.157  10.648
56672W        W23213   1.347  24.924   0.672
56673W        W23214  13.559  36.493   0.718
56674W        W23215  44.730  20.333  14.455
56675W        W23216  19.187  18.064  11.223
56676W        W23217   2.865  22.599   4.118
56677W        W23218  22.660  10.334   4.604
56678W        W23219  13.181   9.232   4.145
56679W        W23220  25.173   5.991  12.047
56680W        W23221  33.192  35.989   1.955
56681W        W23222   3.992  16.204   3.842
56682W        W23223   1.552  41.971  13.477
56683W        W23224   9.601   2.755  10.742
56684W        W23225  34.618  27.543   1.012
56685W        W23226  18.712   1.859   0.696
56686W        W23227  37.388  33.933  14.006
56687W        W23228  43.183   2.150  10.394
56688W        W23229  39.750  37.724  11.633
56689W        W23230  25.078  43.823   1.965
56690W        W23231  31.813  13.782  14.361
56691W        W23232  42.495  43.558   1.328
56692W        W23233  11.872  23.745   3.186
56693W        W23234   9.394   9.941   2.843
56694W        W23235  19.153  44.883  11.955
56695W        W23236  30.957  34.385   1.582
56696W        W23237  21.063  17.577   2.764
56697W        W23238  33.928   4.211   4.349
56698W        W23239  11.029  43.626   2.402
56699W        W23240  39.883  17.329   2.820
56700W        W23241  10.341   4.213  10.890
56701W        W23242  23.163  17.044  12.634
56702W        W23243  36.267  22.662  12.675
56703W        W23244  36.608  31.083   0.887
56704W        W23245   8.711   7.657  13.968
56705W        W23246  22.355  25.418  11.118
56706W        W23247  32.699  42.045  10.630
56707W        W23248  13.606  42.076  11.212
56708W        W23249  31.610  33.856  12.390
56709W        W23250  12.426   9.938  12.443
56710W        W23251  38.075   9.223  10.994
56711W        W23252  44.696  26.644   1.331
56712W        W23253   9.427   3.743   1.241
56713W        W23254  31.981  27.575  10.184
56714W        W23255  23.469  42.396   1.813
56715W        W23256   4.655  25.420  11.626
56716W        W23257  33.346  20.410   0.705
56717W        W23258  27.002  24.087   1.277
56718W        W23259  26.078  30.287   1.410
56719W        W23260  22.627   0.797   1.456
56720W        W23261  14.174   3.975   3.385
56721W        W23262  39.358  24.507  14.762
56722W        W23263  22.002   8.127   3.084
56723W        W23264  17.036  35.098   4.606
56724W        W23265  21.947  18.024   3.770
56725W        W23266  18.257  18.951  11.929
56726W        W23267   9.254  24.168  14.716
56727W        W23268  26.553  12.991  13.125
56728W        W23269  13.298  29.688   3.052
56729W        W23270  17.022  22.494  10.528
56730W        W23271  38.551  33.010  10.325
56731W        W23272  14.687   1.783   4.529
56732W        W23273   7.742  25.801  10.347
56733W        W23274  26.184   7.381  10.310
56734W        W23275   9.358  19.526   3.049
56735W        W23276  35.327   7.779  11.160
56736W        W23277  43.519  34.652   1.230
56737W        W23278  35.767   3.213   2.756
56738W        W23279  24.066  21.125   5.045
56739W        W23280  11.630  18.274  11.984
56740W        W23281   0.178  12.485  10.701
56741W        W23282   5.185  16.074   3.244
56742W        W23283  19.726   8.052  12.375
56743W        W23284  18.349   0.832   3.766
56744W        W23285   3.420  37.033   1.632
56745W        W23286  19.238  26.127  11.671
56746W        W23287  41.384  18.506   0.738
56747W        W23288  15.403  20.141  11.972
56748W        W23289  30.731  15.783  10.426
56749W        W23290  37.910  29.105  13.542
56750W        W23291  10.336  34.650   0.307
56751W        W23292   8.391  38.487  13.106
56752W        W23293  16.814  21.662   2.317
56753W        W23294  35.482   0.209   3.309
56754W        W23295  31.881  14.627   4.663
56755W        W23296  10.686  27.502  11.223
56756W        W23297  34.211  40.387   3.667
56757W        W23298  25.705   4.336  12.928
56758W        W23299  17.193  25.624   0.872
56759W        W23300   1.527  15.103   0.425
56760W        W23301  20.792   7.891   0.454
56761W        W23302   9.639  32.215   2.170
56762W        W23303   6.700   5.963   1.899
56763W        W23304  22.215  14.143   4.399
56764W        W23305   2.343  14.314   0.261
56765W        W23306  42.569   8.720  14.542
56766W        W23307   7.748  39.312  11.688
56767W        W23308  25.344  12.969   2.139
56768W        W23309  26.277   9.812   1.919
56769W        W23310  42.910  21.650  14.301
56770W        W23311  33.615  40.310  13.377
56771W        W23312  30.914  37.535  14.557
56772W        W23313   9.832  16.125  14.992
56773W        W23314  29.448  10.272  14.000
56774W        W23315   8.996  21.991  13.976
56775W        W23316  13.346  32.746  14.568
56776W        W23317  29.156  18.566  11.132
56777W        W23318  38.402  40.273  14.974
56778W        W23319  23.353  23.421   4.576
56779W        W23320  36.828   6.854   4.054
56780W        W23321  12.672  11.067   4.477
56781W        W23322   6.334   5.738   0.478
56782W        W23323  28.589  10.043   0.744
56783W        W23324  24.220   0.272  14.074
56784W        W23325   5.451   0.496   3.312
56785W        W23326  11.707  13.791   2.895
56786W        W23327  29.213  33.211  13.932
56787W        W23328   8.251   1.714  13.816
56788W        W23329  18.028   5.265  14.463
56789W        W23330  27.588  24.718   4.186
56790W        W23331  20.733   4.023   1.409
56791W        W23332   6.144   4.778  11.967
56792W        W23333  22.575  24.914   4.778
56793W        W23334  33.471  30.735  13.948
56794W        W23335   0.301   6.808  12.459
56795W        W23336  23.031  10.321   4.201
56796W        W23337  27.552  42.536   3.149
56797W        W23338  28.818   9.979   0.287
56798W        W23339  28.010  31.086   0.357
56799W        W23340   2.328  15.584   3.184
56800W        W23341  35.756  19.036   3.669
56801W        W23342   3.319  37.493  11.551
56802W        W23343   5.483   1.449   1.269
56803W        W23344  15.082   7.971   1.413
56804W        W23345  22.703  17.852  12.570
56805W        W23346  24.300  19.259  13.951
56806W        W23347  35.111  21.992   0.139
56807W        W23348   1.375   7.474  10.825
56808W        W23349  13.495   8.650   1.549
56809W        W23350   5.449  28.162  12.217
56810W        W23351  29.893  30.281  13.057
56811W        W23352   0.782  21.158   4.999
56812W        W23353   8.867  26.536  11.567
56813W        W23354  18.239  35.965   3.216
56814W        W23355  39.417  30.331   2.668
56815W        W23356  19.418   5.392   2.981
56816W        W23357   7.285  22.840  12.400
56817W        W23358  35.352  34.026  12.028
56818W        W23359  30.827  36.783   0.731
56819W        W23360  13.740  27.397  10.729
56820W        W23361  34.130  39.768   0.591
56821W        W23362  14.648  44.338   0.449
56822W        W23363   9.926  24.406   3.790
56823W        W23364  24.219  30.456  13.016
56824W        W23365  21.972   2.685  10.285
56825W        W23366  44.162   8.410  11.060
56826W        W23367   0.609  15.245   3.895
56827W        W23368  18.981  44.385  12.008
56828W        W23369  11.463  38.862   1.996
56829W        W23370  27.091  22.460   0.007
56830W        W23371  31.958   6.628   0.469
56831W        W23372  32.347   2.395  14.391
56832W        W23373  26.315  11.807  12.569
56833W        W23374  15.537  15.025  11.083
56834W        W23375  17.151  24.782  12.313
56835W        W23376   7.618  12.249  11.543
56836W        W23377  27.307   6.835  14.672
56837W        W23378  30.100   9.843  10.046
56838W        W23379   5.838   8.943  11.945
56839W        W23380  10.891  33.030  10.969
56840W        W23381  27.661  31.549   4.671
56841W        W23382  23.146  39.381   0.036
56842W        W23383   8.661  29.836   0.901
56843W        W23384  40.038  12.694   1.177
56844W        W23385  29.908  34.948   1.483
56845W        W23386  36.988  39.751   0.246
56846W        W23387   9.240   9.862  13.966
56847W        W23388  23.482  24.483   4.558
56848W        W23389  40.412  19.933   0.280
56849W        W23390  24.244  42.811   1.942
56850W        W23391  16.221  38.486   3.634
56851W        W23392  10.122   8.318   0.957
56852W        W23393  22.620  26.871  10.768
56853W        W23394   6.163  19.039  11.986
56854W        W23395  37.859   2.421   4.093
56855W        W23396  32.418  36.299   1.696
56856W        W23397  44.910  39.814  13.416
56857W        W23398  13.623  24.036  13.631
56858W        W23399  11.365   3.385  11.515
56859W        W23400  16.822  34.514   4.343
56860W        W23401  30.618  18.357  14.527
56861W        W23402  16.254  13.374  10.785
56862W        W23403  41.992  43.334  12.015
56863W        W23404   8.282   2.159   3.627
56864W        W23405  11.348   8.751  14.959
56865W        W23406  13.667   5.692  14.560
56866W        W23407  14.883  18.276  11.983
56867W        W23408   2.963  31.615  12.480
56868W        W23409   1.403   3.708   0.910
56869W        W23410  36.204  35.990   2.642
56870W        W23411  11.091  18.224  10.726
56871W        W23412   5.742  44.664   0.771
56872W        W23413  23.562  41.093  10.689
56873W        W23414  21.762  15.257   1.811
56874W        W23415  24.818  19.546  13.233
56875W        W23416  41.312  29.942  11.614
56876W        W23417   8.589  23.244   2.186
56877W        W23418  16.542   2.353  12.114
56878W        W23419  24.106  23.366  12.137
56879W        W23420  29.857  28.521   4.851
56880W        W23421   3.871  26.724  13.961
56881W        W23422  24.010   6.757  12.103
56882W        W23423   3.926   4.075   4.351
56883W        W23424  16.134  38.155   3.227
56884W        W23425  44.773   6.783  13.301
56885W        W23426  17.036  26.734  10.211
56886W        W23427  43.078  21.218   1.409
56887W        W23428  17.277  33.326   0.989
56888W        W23429   2.836  16.279  13.461
56889W        W23430  24.134  14.717  11.723
56890W        W23431  22.033   1.653   0.949
56891W        W23432  26.092  12.059  13.938
56892W        W23433  10.333  36.356   2.824
56893W        W23434   2.956   5.846  13.531
56894W        W23435  40.072   0.357  14.235
56895W        W23436  10.264  32.785   0.409
56896W        W23437  12.676  11.217  11.965
56897W        W23438   1.299  30.476  12.221
56898W        W23439  14.271  43.111   0.011
56899W        W23440   2.276  41.021  11.854
56900W        W23441   1.475  43.236  13.635
56901W        W23442  22.358   3.328  13.977
56902W        W23443   6.919  25.554  13.977
56903W        W23444  38.975  14.137  12.606
56904W        W23445   8.846  24.936  11.517
56905W        W23446  25.546  25.947  13.379
56906W        W23447  42.332  10.880   0.268
56907W        W23448  21.325  21.454  12.006
56908W        W23449  36.744   9.885  11.120
56909W        W23450  17.527  41.767   2.346
56910W        W23451  44.925  30.581   3.735
56911W        W23452  17.335  31.056   0.382
56912W        W23453  31.693  43.854   2.512
56913W        W23454  29.104  22.900   0.315
56914W        W23455  30.115  18.647   0.481
56915W        W23456  31.155   9.362   0.218
56916W        W23457  40.588   6.715   4.768
56917W        W23458   6.729  10.380   2.724
56918W        W23459  27.439  24.542  10.808
56919W        W23460  25.544  23.221   4.212
56920W        W23461  41.461  29.902  12.720
56921W        W23462  29.059  11.578  12.042
56922W        W23463  25.684  14.039  13.170
56923W        W23464  38.482  25.651   4.518
56924W        W23465  37.321  28.188   2.278
56925W        W23466  42.101  29.643   1.777
56926W        W23467  31.837  11.958  11.184
56927W        W23468  44.934  10.146  13.127
56928W        W23469  41.873  32.257   2.708
56929W        W23470  31.869  12.590  13.434
56930W        W23471  42.827  36.365   4.546
56931W        W23472  34.882  41.812  14.864
56932W        W23473   8.419  21.209   3.155
56933W        W23474   3.829  44.210   0.369
56934W        W23475   9.042  15.271  14.988
56935W        W23476   3.655  19.118  13.936
56936W        W23477  29.186  28.300   0.475
56937W        W23478  15.127  38.445  11.861
56938W        W23479   9.411  35.301  11.567
56939W        W23480  40.383  28.424  10.651
56940W        W23481   8.668  33.469   0.454
56941W        W23482  12.876  21.834   0.421
56942W        W23483   9.619  10.292  13.473
56943W        W23484   6.753  27.595  12.365
56944W        W23485   7.963   1.662   4.942
56945W        W23486  17.262  22.111  14.908
56946W        W23487   9.781  31.359   3.794
56947W        W23488   2.553  34.170  12.569
56948W        W23489  17.189  39.482  14.750
56949W        W23490  12.577  41.865   2.225
56950W        W23491   0.983  26.257   2.875
56951W        W23492  14.130   5.252  11.955
56952W        W23493  11.951  41.075   0.111
56953W        W23494  34.526   9.325   4.479
56954W        W23495  32.357  42.271   1.349
56955W        W23496  30.119  21.284   0.230
56956W        W23497   1.002   1.596  12.939
56957W        W23498  39.988   2.248  12.636
56958W        W23499   7.368  18.711   4.070
56959W        W23500   7.698  36.963  11.405
56960W        W23501   3.110  19.192  11.173
56961W        W23502  11.082   2.566  13.964
56962W        W23503  14.335  18.678  10.810
56963W        W23504  32.619  39.615   1.371
56964W        W23505   2.833  18.339  14.407
56965W        W23506  19.863  25.055   4.743
56966W        W23507  14.832  25.193  10.864
56967W        W23508  29.880  14.272  14.558
56968W        W23509  42.944  28.939  14.821
56969W        W23510  28.701  30.387   2.245
56970W        W23511  15.051  40.669   1.180
56971W        W23512   1.275  20.156   3.176
56972W        W23513  19.083   2.624  10.972
56973W        W23514  30.217   5.797   2.731
56974W        W23515  19.231  14.144  10.278
56975W        W23516  38.022  24.743  14.918
56976W        W23517  12.412   7.148  14.270
56977W        W23518  31.141   6.937  12.577
56978W        W23519  23.459  15.897   2.149
56979W        W23520  29.723   0.269   4.594
56980W        W23521   7.169  43.515  13.060
56981W        W23522  34.554   1.085  10.265
56982W        W23523  37.398  20.456  14.611
56983W        W23524   7.314  44.127  14.347
56984W        W23525  19.105  22.582  12.398
56985W        W23526  13.639   0.176  12.884
56986W        W23527  22.454  39.564   4.699
56987W        W23528  27.057  44.914  12.993
56988W        W23529  22.488  15.644  10.638
56989W        W23530  31.463  32.917   2.215
56990W        W23531  43.370  21.382   2.103
56991W        W23532  42.731  38.255   3.667
56992W        W23533   2.142   4.308  14.827
56993W        W23534   2.771   1.349   2.799
56994W        W23535  29.617  24.740   1.390
56995W        W23536  39.421  29.734  14.393
56996W        W23537  25.853   4.748  14.623
56997W        W23538  39.132  14.262   2.338
56998W        W23539  17.868  44.700  12.735
56999W        W23540  25.944  18.084   3.908
57000W        W23541   7.890   5.891  14.800
57001W        W23542  21.773   3.138  14.997
57002W        W23543  15.773  38.394   3.848
57003W        W23544  36.086  39.463  11.533
57004W        W23545   0.954  26.420  14.008
57005W        W23546  30.988  11.648  11.494
57006W        W23547  42.943  12.731   4.789
57007W        W23548  18.068  29.615   2.511
57008W        W23549  23.935  14.651  14.888
57009W        W23550  24.018   1.789  11.651
57010W        W23551  32.107  37.895   3.221
57011W        W23552  36.001  27.849   0.700
57012W        W23553  13.165  30.505  13.182
57013W        W23554  33.883  42.208  14.392
57014W        W23555  30.171  29.521   4.706
57015W        W23556   1.990  18.755  11.986
57016W        W23557  23.711  27.530   0.860
57017W        W23558  16.851  24.590  14.585
57018W        W23559  23.046  43.112  12.744
57019W        W23560  19.255   5.096  10.363
57020W        W23561   9.857  42.379   4.706
57021W        W23562  41.787  30.499  11.615
57022W        W23563  22.576  40.827  10.624
57023W        W23564   8.740  35.030   2.979
57024W        W23565   9.645  39.914  12.921
57025W        W23566  22.040   3.501   1.318
57026W        W23567   9.202  43.965  11.782
57027W        W23568  15.735  23.942   2.867
57028W        W23569  41.328  38.540   4.110
57029W        W23570  20.758  34.295   2.661
57030W        W23571   7.901  37.636  14.604
57031W        W23572  19.928  30.105   3.401
57032W        W23573  16.818  25.737   2.303
57033W        W23574  30.057   1.582  12.667
57034W        W23575  36.933  34.523  12.543
57035W        W23576   9.928  40.954   4.577
57036W        W23577  38.359  10.622   1.239
57037W        W23578  18.150  27.419   2.432
57038W        W23579   6.838   3.473   4.634
57039W        W23580  36.089  39.986  11.585
57040W        W23581   4.927   4.475  11.452
57041W        W23582   0.780  14.417   1.425
57042W        W23583  20.332   9.684   1.195
57043W        W23584   3.730  43.786  11.489
57044W        W23585   6.217  18.669   3.088
57045W        W23586  43.073  29.924  10.616
57046W        W23587  21.720  28.352   2.758
57047W        W23588  15.509  38.819   2.331
57048W        W23589  42.352  20.033   0.325
57049W        W23590  42.493  10.188  12.033
57050W        W23591  29.244  35.051   0.953
57051W        W23592  34.540   8.494  12.964
57052W        W23593  11.766  27.447   2.803
57053W        W23594  37.508  38.995  11.639
57054W        W23595  15.241   3.677   1.247
57055W        W23596  22.022  19.294   4.296
57056W        W23597  19.705   6.652   1.896
57057W        W23598   9.407  24.213   1.930
57058W        W23599  31.534  30.192   0.804
57059W        W23600  28.848  31.236   2.861
57060W        W23601  27.684  35.988  11.216
57061W        W23602   5.825   7.597   2.191
57062W        W23603   4.430  40.968   4.556
57063W        W23604  18.379  24.727  14.471
57064W        W23605  22.116  27.738   0.356
57065W        W23606  13.173  16.015   4.155
57066W        W23607  25.411  29.457   3.185
57067W        W23608  35.172  10.287   2.269
57068W        W23609  15.550  37.041   4.211
57069W        W23610  15.227  33.495   1.289
57070W        W23611  41.478  39.883   2.765
57071W        W23612  24.061  24.444  12.905
57072W        W23613  13.789  38.373   4.798
57073W        W23614  28.528   8.908   4.585
57074W        W23615  20.547  12.633  12.584
57075W        W23616  28.520  19.900  12.068
57076W        W23617   7.442  27.613   3.605
57077W        W23618   8.204  13.703  12.114
57078W        W23619  29.623  24.135   2.780
57079W        W23620  19.514  33.022   4.324
57080W        W23621  35.266  42.905  11.235
57081W        W23622  29.149  39.964   2.739
57082W        W23623  13.349   7.740  12.894
57083W        W23624  18.748  24.695  10.794
57084W        W23625  42.462  33.201   1.503
57085W        W23626  29.440  28.519   0.871
57086W        W23627  28.018  35.599   3.649
57087W        W23628  17.283  44.795  11.590
57088W        W23629   9.654   7.173  13.007
57089W        W23630  37.089   4.863  11.538
57090W        W23631  33.942  36.681  12.409
57091W        W23632  35.064  16.942   0.798
57092W        W23633  26.078  19.138   1.492
57093W        W23634   4.727   9.195   3.651
57094W        W23635   2.892   3.394  12.609
57095W        W23636  15.819   6.224  12.528
57096W        W23637   0.659  39.202  14.309
57097W        W23638  28.951  36.640   1.776
57098W        W23639  10.480  12.883  11.502
57099W        W23640   0.325  32.411   0.856
57100W        W23641  21.091   2.492   4.033
57101W        W23642  41.161   4.739   5.043
57102W        W23643   3.921  25.160  12.978
57103W        W23644  18.276   9.225  12.363
57104W        W23645  12.660  37.537  11.960
57105W        W23646  31.632  24.737  13.915
57106W        W23647  21.685  30.901   3.143
57107W        W23648  32.071  40.194   3.713
57108W        W23649  43.769   3.243  12.603
57109W        W23650  34.885  15.685  12.911
57110W        W23651  44.333  34.964   0.579
57111W        W23652  15.790   1.766  10.699
57112W        W23653  27.067  30.462  12.161
57113W        W23654  30.856  10.637   3.257
57114W        W23655  41.731  17.275  12.115
57115W        W23656  38.203  38.623   4.484
57116W        W23657   6.809  13.768   0.792
57117W        W23658  27.673  15.984   3.259
57118W        W23659   8.048   7.740   0.318
57119W        W23660  40.379  19.813   3.031
57120W        W23661  41.327  38.254  12.433
57121W        W23662  17.211  38.938   2.192
57122W        W23663   4.257  41.946  14.298
57123W        W23664  29.951  34.070  13.848
57124W        W23665  34.591  16.882   0.035
57125W        W23666  32.409  12.819   1.716
57126W        W23667  17.460  33.952   4.178
57127W        W23668  28.387   1.014   0.493
57128W        W23669   8.412  25.742   0.614
57129W        W23670  16.561  44.056   1.304
57130W        W23671  24.579   0.195  14.447
57131W        W23672  10.170   9.317  12.992
57132W        W23673   9.616  16.091   2.280
57133W        W23674  42.896  30.581  11.387
57134W        W23675  11.334  28.132  12.551
57135W        W23676  44.621   8.849   4.693
57136W        W23677  42.567  27.041  13.572
57137W        W23678   2.679   2.850  12.551
57138W        W23679  40.348  34.613  13.039
57139W        W23680   2.498  20.623   4.250
57140W        W23681   2.328  40.965  10.374
57141W        W23682  24.011  41.115   2.167
57142W        W23683  17.614   4.711  12.052
57143W        W23684   7.780   6.995   4.933
57144W        W23685   1.243  26.652   0.350
57145W        W23686  13.019  26.817  13.604
57146W        W23687  29.220  15.557  14.435
57147W        W23688  33.254  23.878   0.336
57148W        W23689  20.189  17.680  10.450
57149W        W23690  29.483  36.618  13.426
57150W        W23691  43.894  16.983  14.105
57151W        W23692  15.804  41.861  12.775
57152W        W23693  12.189  42.173  11.217
57153W        W23694  10.948  38.824   3.900
57154W        W23695  16.779  15.632   1.857
57155W        W23696  38.586  43.443  14.164
57156W        W23697  18.454  23.005  12.599
57157W        W23698  22.231  43.409  11.428
57158W        W23699   2.300   9.803  12.861
57159W        W23700  14.715  26.130   0.275
57160W        W23701   0.663   9.914   0.794
57161W        W23702   3.337  27.114   3.997
57162W        W23703  26.662  13.343  14.363
57163W        W23704  39.316  21.113  11.362
57164W        W23705  21.007   6.518   3.603
57165W        W23706  34.170  17.241  11.603
57166W        W23707  12.758  13.610  12.109
57167W        W23708   0.010  25.965   0.264
57168W        W23709  36.769   4.913  13.854
57169W        W23710   9.861  18.529  11.005
57170W        W23711  31.010  20.659  11.582
57171W        W23712  30.143  31.572  10.592
57172W        W23713  40.395  40.688   1.945
57173W        W23714   6.137  20.109  12.046
57174W        W23715   6.987  18.762   3.576
57175W        W23716  33.397  34.006  14.757
57176W        W23717   5.744   5.864   1.766
57177W        W23718  12.857  16.203   2.330
57178W        W23719   1.759  17.425  12.458
57179W        W23720  10.427  36.657  14.550
57180W        W23721  20.723  11.901   1.316
57181W        W23722  36.848  24.087   1.262
57182W        W23723  26.664   6.221   2.782
57183W        W23724  38.968  35.921  12.976
57184W        W23725  38.627  19.109   0.277
57185W        W23726  23.897  39.185  14.501
57186W        W23727   8.923  42.106   9.949
57187W        W23728  40.927  42.469   3.243
57188W        W23729   9.825  33.558   3.148
57189W        W23730   1.641  43.531  11.582
57190W        W23731   5.314  14.317   2.305
57191W        W23732   8.306  39.045   1.608
57192W        W23733  15.101  29.329   4.599
57193W        W23734   7.766  15.413   1.806
57194W        W23735  29.582   6.289   2.512
57195W        W23736  32.932  25.598   1.868
57196W        W23737  40.375  12.411  11.157
57197W        W23738  35.808  33.470  10.934
57198W        W23739  36.370  11.937   4.158
57199W        W23740  41.546  44.266   3.709
57200W        W23741  24.034  15.626  14.662
57201W        W23742  24.719   9.417  12.556
57202W        W23743  21.511  17.819  10.818
57203W        W23744  41.759  30.719   0.284
57204W        W23745  35.118  10.870  13.944
57205W        W23746  27.368  44.789   4.156
57206W        W23747  40.717   9.209  15.000
57207W        W23748  34.320  22.656   3.388
57208W        W23749   8.826  39.878   5.191
57209W        W23750  39.464   4.023   1.376
57210W        W23751  32.619  24.562  10.732
57211W        W23752   8.927  42.161   2.446
57212W        W23753   7.607  16.144  12.614
57213W        W23754  27.692  11.921  12.382
57214W        W23755   8.592  30.210   2.709
57215W        W23756  20.538   2.061  14.585
57216W        W23757  43.811  34.886  14.553
57217W        W23758  18.286  21.671   3.139
57218W        W23759  20.006  10.262   1.688
57219W        W23760   7.521  13.548  14.080
57220W        W23761  21.125  39.486   2.823
57221W        W23762  17.963  34.935  14.813
57222W        W23763   1.130  19.730  12.607
57223W        W23764  15.502   5.695  11.117
57224W        W23765   0.490  18.821   2.718
57225W        W23766  12.016  41.379  10.715
57226W        W23767  39.618   0.350  14.496
57227W        W23768  23.986  26.516   3.342
57228W        W23769   7.607  11.329   1.212
57229W        W23770  27.054  35.593  14.319
57230W        W23771   7.696  35.050  11.833
57231W        W23772  39.827  20.155   2.764
57232W        W23773   1.931  23.773   2.026
57233W        W23774  27.539   7.840   0.473
57234W        W23775  23.047  23.148  10.643
57235W        W23776   4.250   1.261   2.579
57236W        W23777   2.941  42.453   1.246
57237W        W23778  27.008  27.850   3.004
57238W        W23779  41.732  22.270   4.487
57239W        W23780   3.763  17.163   2.418
57240W        W23781  28.992  21.544   1.451
57241W        W23782  43.942  40.033  12.910
57242W        W23783  42.785  27.660  14.345
57243W        W23784  32.438   6.523   2.207
57244W        W23785  43.782  30.955   0.388
57245W        W23786  43.117  39.547   1.027
57246W        W23787  44.812   5.965   3.349
57247W        W23788  34.604  14.748  11.189
57248W        W23789  21.741  17.213  12.477
57249W        W23790  37.784  40.458   1.373
57250W        W23791   4.532  41.341   2.205
57251W        W23792  36.568  14.145   1.116
57252W        W23793  24.652   3.893  11.500
57253W        W23794  39.721  40.730  13.451
57254W        W23795  41.488   1.235  13.309
57255W        W23796  11.454  12.834  11.615
57256W        W23797  41.570  34.681  12.037
57257W        W23798  18.195  16.049  13.135
57258W        W23799  32.972  33.841  12.507
57259W        W23800  22.380  34.619  12.979
57260W        W23801   5.390  24.770   0.761
57261W        W23802  34.395  36.123  11.616
57262W        W23803  24.049  10.097  14.336
57263W        W23804  40.441  10.618  13.197
57264W        W23805   9.629  44.302  12.420
57265W        W23806   1.803  16.081  12.022
57266W        W23807  18.757   1.377  10.970
57267W        W23808   4.281  15.348  13.847
57268W        W23809  34.458  42.922  14.402
57269W        W23810  12.354  11.631  11.902
57270W        W23811  14.948  30.077  14.483
57271W        W23812  18.616  15.859  13.685
57272W        W23813  19.918  26.661  13.828
57273W        W23814   3.063  34.712  11.856
57274W        W23815  24.133  11.109   3.458
57275W        W23816  41.848  15.326   1.487
57276W        W23817  33.937  42.733  14.546
57277W        W23818  23.280  16.738  11.533
57278W        W23819  14.214  26.775   4.608
57279W        W23820   5.358  21.058  13.546
57280W        W23821  11.626  21.610   2.727
57281W        W23822  21.671   2.553  10.753
57282W        W23823  23.547  33.314  14.874
57283W        W23824   9.681   1.973  10.483
57284W        W23825  31.436  19.877  14.038
57285W        W23826  11.231  21.844   3.521
57286W        W23827   6.080  44.868  13.424
57287W        W23828  18.103  29.325  12.551
57288W        W23829  29.635   8.797   0.812
57289W        W23830  39.265  40.512   1.345
57290W        W23831   6.805  22.238   3.372
57291W        W23832  34.534   1.309   5.401
57292W        W23833  20.734  35.517   4.155
57293W        W23834  19.664  16.767  11.609
57294W        W23835  35.307  43.750  12.993
57295W        W23836  44.817   8.584   4.110
57296W        W23837  10.860  23.800  14.673
57297W        W23838  44.334  32.985  14.448
57298W        W23839  33.831   0.822   3.166
57299W        W23840  28.638   5.013   4.600
57300W        W23841   6.136  12.418  10.747
57301W        W23842  23.144  13.553   3.512
57302W        W23843  11.613   0.978   0.532
57303W        W23844  39.319  20.967  13.559
57304W        W23845  34.478  41.456  13.050
57305W        W23846  20.688  31.926   1.353
57306W        W23847  17.223   5.290   1.431
57307W        W23848  30.538  16.505   2.369
57308W        W23849  27.917  33.013   3.640
57309W        W23850  37.636  23.506   0.962
57310W        W23851   2.757  43.076   3.669
57311W        W23852  40.972   7.300  12.083
57312W        W23853   5.199  32.022   2.120
57313W        W23854  37.290  38.806   1.360
57314W        W23855   0.151  13.308  12.050
57315W        W23856  17.690  32.081   2.339
57316W        W23857  33.522  30.892   3.547
57317W        W23858   5.936  33.848   2.759
57318W        W23859  40.160  18.023   0.445
57319W        W23860  28.215   1.119   5.006
57320W        W23861  14.936  16.789  11.298
57321W        W23862   0.969   6.960  14.419
57322W        W23863  10.616  44.778   1.141
57323W        W23864   1.823  35.487  14.222
57324W        W23865  29.686  23.007   2.740
57325W        W23866  36.061  38.875  12.316
57326W        W23867  14.096  42.289   1.726
57327W        W23868  28.373  14.114   0.033
57328W        W23869  41.803  37.569   2.669
57329W        W23870  16.494  37.891  13.293
57330W        W23871  18.885  11.710  14.296
57331W        W23872   5.164  29.149  12.038
57332W        W23873  12.021  38.785  11.120
57333W        W23874   3.861  29.897  14.327
57334W        W23875  34.073  22.253  10.503
57335W        W23876  27.436  41.866  14.925
57336W        W23877  21.362  15.026  11.448
57337W        W23878   4.459   5.684  10.891
57338W        W23879   3.661  27.456   2.290
57339W        W23880  27.442  11.134   3.686
57340W        W23881  20.699  30.426   2.440
57341W        W23882  18.663  22.161   1.950
57342W        W23883   4.925   8.399   4.118
57343W        W23884  17.027  31.540   1.058
57344W        W23885  30.482  38.253  14.909
57345W        W23886  35.041  21.080  14.790
57346W        W23887  41.158  14.286  12.784
57347W        W23888  20.131  19.806  14.923
57348W        W23889  14.330  32.987   2.830
57349W        W23890  10.718  32.994   0.274
57350W        W23891  27.740  21.535  13.325
57351W        W23892  18.890  28.761  12.917
57352W        W23893   3.331   4.186  12.964
57353W        W23894   3.512  21.723  11.212
57354W        W23895   6.710  27.147   3.750
57355W        W23896  12.267  40.252   1.419
57356W        W23897   8.612  44.651  14.763
57357W        W23898  30.320   1.058   4.632
57358W        W23899  31.065  19.323   1.785
57359W        W23900  39.096   5.892   3.355
57360W        W23901  42.788  26.988   4.138
57361W        W23902   0.742  32.478   0.471
57362W        W23903  21.660   6.857  11.980
57363W        W23904  26.603   3.367  12.802
57364W        W23905  15.745  25.299   1.512
57365W        W23906  27.133  20.215  13.787
57366W        W23907  27.143  37.357  14.858
57367W        W23908  21.018  42.302   1.420
57368W        W23909  21.417  28.807   3.248
57369W        W23910  28.632  43.838  11.134
57370W        W23911  19.534  14.823  13.902
57371W        W23912  32.542  39.663   0.522
57372W        W23913  44.909  21.351   2.659
57373W        W23914   6.200  44.974  12.369
57374W        W23915  12.836  32.772  11.505
57375W        W23916  21.091  13.371  13.517
57376W        W23917  14.053  31.883   2.219
57377W        W23918  30.079  41.856  11.345
57378W        W23919  17.220  24.051   0.723
57379W        W23920  41.480   4.357  10.691
57380W        W23921  25.572   6.741   0.634
57381W        W23922  17.189   0.431  10.605
57382W        W23923   7.859  41.843   1.854
57383W        W23924   1.668   4.561  13.872
57384W        W23925   7.703  12.720  14.824
57385W        W23926  21.001  32.876   2.822
57386W        W23927  10.269  38.726   3.705
57387W        W23928  34.840  38.847   0.671
57388W        W23929  15.775  39.248  14.967
57389W        W23930  44.523   6.947  14.206
57390W        W23931  22.020  31.135  11.610
57391W        W23932  35.105  25.176   4.929
57392W        W23933  19.019  20.888   4.114
57393W        W23934  41.761  31.994   2.243
57394W        W23935   3.861  18.865  14.361
57395W        W23936  14.224  24.310  11.580
57396W        W23937   4.320  27.640  11.552
57397W        W23938   0.955  38.587  12.473
57398W        W23939  42.722  24.269  11.552
57399W        W23940  35.602   7.872   2.806
57400W        W23941  30.611  39.117   2.675
57401W        W23942  17.255  16.728   2.383
57402W        W23943  33.352  22.522   2.770
57403W        W23944  41.093  35.942  11.623
57404W        W23945   2.014  27.503   0.962
57405W        W23946  29.631  16.617  13.036
57406W        W23947  23.451  14.315  13.423
57407W        W23948  18.225  39.153   1.739
57408W        W23949  15.223  33.400   1.801
57409W        W23950  22.981   8.806  13.858
57410W        W23951  12.095   6.632   1.494
57411W        W23952  20.726  27.246  12.014
57412W        W23953  18.751   9.412  12.487
57413W        W23954  32.881  14.639   0.053
57414W        W23955  24.676  37.608   9.845
57415W        W23956  21.593  11.748  13.803
57416W        W23957  38.077   7.519  10.893
57417W        W23958  18.215  40.944  10.951
57418W        W23959  14.589  12.615   2.273
57419W        W23960   3.104  11.228  14.838
57420W        W23961  29.140  44.808  10.841
57421W        W23962  20.852  34.970  12.184
57422W        W23963  29.191  19.619   2.836
57423W        W23964  41.126  28.052   3.358
57424W        W23965   1.741  23.461   0.404
57425W        W23966   9.551  26.721   3.363
57426W        W23967  28.030   2.657  12.450
57427W        W23968   8.615  32.909  14.270
57428W        W23969  19.604  23.010   4.874
57429W        W23970  15.871  32.579  14.403
57430W        W23971   9.406  17.379   3.973
57431W        W23972  42.747  19.141  11.551
57432W        W23973   5.803  37.120  11.148
57433W        W23974  20.054  30.873   0.506
57434W        W23975  12.193   5.781   4.659
57435W        W23976  28.982  19.186  14.364
57436W        W23977  26.950  11.396  11.912
57437W        W23978  14.288  14.979   1.009
57438W        W23979  18.734   5.811  12.684
57439W        W23980  32.509   6.358  13.596
57440W        W23981  33.140  11.828  14.850
57441W        W23982  19.112  41.767  11.247
57442W        W23983  22.101  34.586   3.846
57443W        W23984  38.472  38.748   3.342
57444W        W23985  27.951  21.296   0.197
57445W        W23986  26.577   5.350  10.693
57446W        W23987   4.766   5.643  13.094
57447W        W23988  23.294  27.032  11.319
57448W        W23989   8.694  10.975  10.922
57449W        W23990  17.754  19.649   3.299
57450W        W23991  40.359   2.301   0.041
57451W        W23992  36.891  10.799   3.737
57452W        W23993  31.151   4.761  11.293
57453W        W23994  26.451  18.814   0.865
57454W        W23995  29.416  27.688  10.769
57455W        W23996  18.252  26.550  14.374
57456W        W23997  33.372  25.966   3.644
57457W        W23998   6.371  36.740   3.238
57458W        W23999  36.368  25.067   4.074
57459W        W24000  29.693  44.806  12.710
57460W        W24001  31.067  26.717  14.239
57461W        W24002   2.952   6.327  12.025
57462W        W24003   9.182  22.932  13.939
57463W        W24004  44.382  32.855  10.710
57464W        W24005  38.616  30.132   0.199
57465W        W24006  19.309  19.156   0.660
57466W        W24007  35.276  39.689  11.212
57467W        W24008  35.578   0.865   0.601
57468W        W24009  20.741  17.613   1.477
57469W        W24010  12.770  36.789   3.414
57470W        W24011  27.711  32.462   2.870
57471W        W24012   1.603   0.339  13.346
57472W        W24013   4.722   2.881  14.824
57473W        W24014   8.822  30.582   2.983
57474W        W24015  17.428  37.839  10.555
57475W        W24016   2.153  41.005   1.971
57476W        W24017  40.954   2.655   3.586
57477W        W24018  10.133   5.619  12.646
57478W        W24019  35.411  31.222   1.434
57479W        W24020  35.033   2.443   0.261
57480W        W24021  32.194  44.792  14.058
57481W        W24022  20.345  21.177   0.806
57482W        W24023  23.650  32.182   2.195
57483W        W24024  16.425  23.916   0.066
57484W        W24025   7.655  20.546   2.187
57485W        W24026  22.732  42.103   9.924
57486W        W24027  11.964  40.352   2.439
57487W        W24028   3.330  25.256  14.338
57488W        W24029  27.593  34.081  14.970
57489W        W24030   5.703   1.603   4.399
57490W        W24031   3.286  38.407   1.997
57491W        W24032  34.546  34.607  11.635
57492W        W24033  40.575  26.378   3.777
57493W        W24034  40.739  40.454  12.325
57494W        W24035  28.104  21.541  11.024
57495W        W24036  22.255  20.763  11.385
57496W        W24037  20.892  18.138   1.302
57497W        W24038  36.532  15.541   1.873
57498W        W24039  17.017  31.967   9.737
57499W        W24040  38.335  41.071   2.777
57500W        W24041  37.875  15.089   4.307
57501W        W24042  44.000  19.301   3.653
57502W        W24043  26.213  31.579  11.962
57503W        W24044  34.601  28.606   4.931
57504W        W24045  19.162  36.057   3.230
57505W        W24046  28.589  33.388   3.187
57506W        W24047  36.791  40.081  14.851
57507W        W24048  16.258  28.179  12.005
57508W        W24049  34.046  14.421   4.197
57509W        W24050  11.797  17.649  12.961
57510W        W24051  18.074  10.843   3.809
57511W        W24052  25.522  31.041  14.324
57512W        W24053   9.803  14.308   0.223
57513W        W24054  38.110  33.583   4.014
57514W        W24055  25.564  35.035  10.133
57515W        W24056  32.555  43.271   1.363
57516W        W24057  24.158  25.643   3.840
57517W        W24058   5.950   6.315  11.409
57518W        W24059  12.390  12.313   2.185
57519W        W24060  31.560  28.469   3.390
57520W        W24061   9.860  14.736   2.660
57521W        W24062  42.019  10.977   1.885
57522W        W24063   3.911  29.500  13.164
57523W        W24064  43.532  29.905  11.205
57524W        W24065  25.520  29.165   0.568
57525W        W24066  24.841  25.698  14.491
57526W        W24067  13.259  24.887  14.980
57527W        W24068  22.810  41.433  11.100
57528W        W24069  10.781  21.666   4.297
57529W        W24070  33.344  17.028  12.468
57530W        W24071   5.503  25.080  11.663
57531W        W24072  10.792   2.244   4.672
57532W        W24073   4.307  38.960  11.281
57533W        W24074  12.844   3.635  12.966
57534W        W24075  44.550  24.063  14.723
57535W        W24076  35.332  19.310   3.819
57536W        W24077  16.855  40.658  13.895
57537W        W24078  32.424   1.907   0.998
57538W        W24079   1.270  14.329   4.816
57539W        W24080  30.501  28.889  12.122
57540W        W24081  42.504  44.905   3.154
57541W        W24082  30.701  43.917   4.010
57542W        W24083  24.056  32.409  14.857
57543W        W24084   3.959  33.661  10.710
57544W        W24085  15.359  18.890   4.140
57545W        W24086  13.142   9.665   3.834
57546W        W24087  29.601  38.772   0.792
57547W        W24088  23.497  41.459   0.916
57548W        W24089  10.226  19.657   4.609
57549W        W24090  39.705  36.228   0.306
57550W        W24091  40.732  18.841  11.054
57551W        W24092  24.114   3.141   1.858
57552W        W24093   3.657  12.093  10.445
57553W        W24094  38.894  27.018  10.726
57554W        W24095   0.082   7.555  10.992
57555W        W24096  22.608  42.532  11.147
57556W        W24097  31.589  24.733   4.514
57557W        W24098  12.351   3.976  14.839
57558W        W24099  28.498  27.920  14.985
57559W        W24100  43.852  44.167   3.335
57560W        W24101   7.769  20.994   1.928
57561W        W24102   2.311   2.367   2.761
57562W        W24103  20.320  40.746  12.505
57563W        W24104   9.316  20.569   0.569
57564W        W24105   4.291  44.201   1.430
57565W        W24106   4.275  15.515  11.261
57566W        W24107  15.777  12.092   1.777
57567W        W24108  30.588   4.904   3.508
57568W        W24109  22.542  24.157   1.500
57569W        W24110  39.940  31.918   0.208
57570W        W24111  27.884  41.763   2.017
57571W        W24112  30.704   2.029   4.658
57572W        W24113  40.780  18.530   4.836
57573W        W24114   1.888  19.683  11.878
57574W        W24115  38.947   9.643  12.132
57575W        W24116   2.924  30.101  14.046
57576W        W24117  41.028  18.804   2.403
57577W        W24118  33.460  12.948   4.109
57578W        W24119   6.137  23.019  13.296
57579W        W24120  17.249  14.156   1.032
57580W        W24121  28.963   5.027  10.458
57581W        W24122  33.990  21.613  13.410
57582W        W24123   8.876  21.076  14.423
57583W        W24124   0.739   2.500  13.620
57584W        W24125  23.266  34.912   1.866
57585W        W24126  28.532  13.052   3.744
57586W        W24127   2.351  18.600   2.945
57587W        W24128   2.200  32.005  11.887
57588W        W24129  17.918   8.989  13.505
57589W        W24130   0.735  38.413  14.528
57590W        W24131  34.951  20.745  14.431
57591W        W24132   7.450   3.693  10.291
57592W        W24133  20.131  18.148   1.863
57593W        W24134  21.439  11.539  13.318
57594W        W24135  37.600   9.580   2.350
57595W        W24136  13.113   7.255   4.635
57596W        W24137  28.717  18.312  11.681
57597W        W24138  12.513   6.240   4.606
57598W        W24139  14.171  35.078  14.477
57599W        W24140  16.660  30.688  14.414
57600W        W24141   8.711  40.484  11.872
57601W        W24142  22.710  28.937  13.321
57602W        W24143  25.522  25.056  10.803
57603W        W24144  12.404  25.623   0.771
57604W        W24145  15.680  41.276   4.503
57605W        W24146  34.610  27.968  12.929
57606W        W24147  35.929  13.584  12.831
57607W        W24148  35.474  42.946  10.749
57608W        W24149  44.917  15.520  14.769
57609W        W24150  30.444   5.077   4.835
57610W        W24151  27.600   5.217   2.879
57611W        W24152  24.269  24.313   0.857
57612W        W24153  42.878  13.828  12.982
57613W        W24154  34.329   8.590  13.437
57614W        W24155   3.029  26.340  14.961
57615W        W24156   7.171  15.809   2.708
57616W        W24157  29.060  11.132   1.987
57617W        W24158  15.730   0.806  13.305
57618W        W24159  24.136   6.704  13.106
57619W        W24160   6.796  14.179  11.821
57620W        W24161   9.633  37.558  13.507
57621W        W24162   0.377  21.595  11.958
57622W        W24163  20.539  19.820  13.192
57623W        W24164   8.647  24.292  12.721
57624W        W24165  33.858  42.692  13.575
57625W        W24166  29.857  16.023   2.804
57626W        W24167  14.871   1.398   4.192
57627W        W24168  19.824  11.926   4.471
57628W        W24169  24.245  44.222  13.161
57629W        W24170   6.713  30.652  11.150
57630W        W24171  25.358  31.897   5.373
57631W        W24172  19.525  27.636   1.298
57632W        W24173  17.558  44.045   3.482
57633W        W24174  14.079  38.898   3.762
57634W        W24175   1.723  18.826   1.740
57635W        W24176  26.917  33.985  12.934
57636W        W24177  18.359  11.554   0.405
57637W        W24178  34.933  33.062   1.207
57638W        W24179   4.308  17.270  11.025
57639W        W24180  31.163  42.013  11.135
57640W        W24181  10.333  34.822   3.742
57641W        W24182  21.842  12.847   4.073
57642W        W24183  15.891   4.170   3.604
57643W        W24184   6.867   8.415   1.827
57644W        W24185  26.409  26.790  13.357
57645W        W24186  36.439  14.421  14.659
57646W        W24187  41.216   7.560   2.819
57647W        W24188  33.018  42.405   3.553
57648W        W24189  25.259  23.452   2.650
57649W        W24190  20.762  30.372   4.199
57650W        W24191  26.376  36.492   4.651
57651W        W24192  29.078  21.588   4.438
57652W        W24193   7.281  22.453   1.240
57653W        W24194  25.554  43.310  11.955
57654W        W24195   2.728  17.673   0.211
57655W        W24196  39.207   6.946  11.641
57656W        W24197  21.603  41.868  14.266
57657W        W24198  35.386   9.727   0.214
57658W        W24199  26.392  39.855  10.484
57659W        W24200  43.462  11.419  11.133
57660W        W24201  19.091   0.202   1.466
57661W        W24202   1.486   5.180   4.189
57662W        W24203  31.608   5.649   0.841
57663W        W24204  36.438  21.692  11.988
57664W        W24205  39.277  28.756  12.186
57665W        W24206  44.458  33.617  14.054
57666W        W24207  14.028  36.599  12.837
57667W        W24208  11.270  27.418   1.252
57668W        W24209   8.658  39.506  10.827
57669W        W24210  23.640  27.663   2.852
57670W        W24211  37.574  41.881   1.267
57671W        W24212   0.160  39.902  13.854
57672W        W24213   8.708   8.687  13.829
57673W        W24214  35.319  18.846   1.819
57674W        W24215  44.895   6.190  11.566
57675W        W24216  15.818  20.623  12.942
57676W        W24217  27.525  41.506  10.534
57677W        W24218  29.432  44.411  10.651
57678W        W24219  10.754  18.047   4.845
57679W        W24220  34.878   7.332  14.277
57680W        W24221  40.121  29.824   4.951
57681W        W24222  12.014  42.525   2.252
57682W        W24223  31.633  17.276   2.454
57683W        W24224   4.438  25.599  14.461
57684W        W24225  37.502  34.841  11.534
57685W        W24226  31.497  36.473  12.884
57686W        W24227  14.071   1.075   4.759
57687W        W24228   2.995   1.577  13.533
57688W        W24229  20.059  19.726   2.231
57689W        W24230  31.492  20.936   3.995
57690W        W24231  29.598  28.182   3.169
57691W        W24232  19.282  17.477   1.229
57692W        W24233   6.701  28.008   4.037
57693W        W24234  26.326  37.124  13.650
57694W        W24235  20.362  19.904   5.040
57695W        W24236  18.278   8.154  14.029
57696W        W24237   5.953   3.655   3.231
57697W        W24238  30.049  13.369   2.238
57698W        W24239  29.374  30.066   0.745
57699W        W24240  30.894  22.840   4.570
57700W        W24241  30.652  29.420   3.255
57701W        W24242  28.875  19.368   1.424
57702W        W24243  44.522  41.476   3.167
57703W        W24244   4.596  29.196  12.888
57704W        W24245   6.405  40.457  14.484
57705W        W24246  13.606  42.997   1.278
57706W        W24247  24.894  23.701  12.504
57707W        W24248  12.675   3.860   0.246
57708W        W24249  25.585  30.105  14.237
57709W        W24250  12.180  36.802  14.799
57710W        W24251  36.522  14.133   3.320
57711W        W24252   9.189  18.526  12.443
57712W        W24253   4.122  27.049   2.855
57713W        W24254  38.483   1.221   1.928
57714W        W24255  29.501   7.934  14.998
57715W        W24256  37.401  36.078  10.058
57716W        W24257  38.966  13.435  11.981
57717W        W24258  11.089  36.778  13.024
57718W        W24259  27.063  26.768  14.495
57719W        W24260  40.500  41.848   2.978
57720W        W24261   1.873  21.946  10.638
57721W        W24262  41.962  32.511   4.149
57722W        W24263  38.042   3.133   4.252
57723W        W24264  30.253  34.415   3.350
57724W        W24265  16.548  11.688  13.993
57725W        W24266  25.970  27.800  11.042
57726W        W24267  39.978  31.077   0.284
57727W        W24268   7.960  36.743  10.440
57728W        W24269  37.798  23.764  11.612
57729W        W24270  34.315   9.444   3.316
57730W        W24271  22.523  44.974   3.203
57731W        W24272  21.351   8.343  14.934
57732W        W24273   5.211  12.325   4.164
57733W        W24274  15.380  26.143   3.216
57734W        W24275  12.119  39.361   0.648
57735W        W24276  32.464  13.526  13.983
57736W        W24277  17.493   0.371   2.914
57737W        W24278  14.644  27.542   3.231
57738W        W24279  25.255   9.426  12.490
57739W        W24280  34.485  30.946  13.053
57740W        W24281  19.936  10.853   2.974
57741W        W24282  21.838  27.601  13.585
57742W        W24283  40.282  24.332  11.894
57743W        W24284  11.622  17.176   0.719
57744W        W24285   8.429  14.350   3.570
57745W        W24286  10.662  41.861  12.943
57746W        W24287  26.601  18.269   3.155
57747W        W24288  41.461   8.860   0.441
57748W        W24289  19.417  17.227  10.675
57749W        W24290   1.041   2.967   4.870
57750W        W24291  31.840   3.639  12.896
57751W        W24292   8.632  28.605   4.392
57752W        W24293  10.107  43.443   3.750
57753W        W24294   1.917   2.193  13.265
57754W        W24295  13.418  32.397   0.577
57755W        W24296  18.489  16.068  11.846
57756W        W24297   6.112  12.305   3.837
57757W        W24298   1.539  35.475  12.351
57758W        W24299  14.853  18.174   1.754
57759W        W24300   7.620  28.829   3.428
57760W        W24301  38.357  42.673   1.326
57761W        W24302  34.416   7.806   2.153
57762W        W24303  35.612  23.452  10.671
57763W        W24304  22.553  30.487  14.328
57764W        W24305  40.011  37.504  10.779
57765W        W24306  39.074  21.341   3.436
57766W        W24307  31.219  13.313  12.568
57767W        W24308  43.702  41.434   0.448
57768W        W24309  10.333  19.346   2.340
57769W        W24310  12.662  20.828   2.932
57770W        W24311  42.005  43.142   3.145
57771W        W24312  12.097   7.207   4.678
57772W        W24313  40.377   1.262  12.901
57773W        W24314   8.394   3.478   0.077
57774W        W24315  19.069   1.639   2.357
57775W        W24316  32.612  24.999  14.158
57776W        W24317  32.710   3.660  11.228
57777W        W24318  10.146  41.424  10.673
57778W        W24319  17.047   4.159   0.904
57779W        W24320  38.021   6.846  13.856
57780W        W24321  40.969  29.534   4.647
57781W        W24322  25.638  23.648  13.830
57782W        W24323   6.227  33.325   1.376
57783W        W24324  38.311   3.288  10.652
57784W        W24325  12.790  36.685   1.712
57785W        W24326   7.122  14.589   3.293
57786W        W24327  31.828  43.389   2.210
57787W        W24328  36.353  10.289   2.679
57788W        W24329   9.007  32.749   1.762
57789W        W24330  22.165  23.473   3.311
57790W        W24331  14.686  39.227   0.929
57791W        W24332  27.333  15.891  14.693
57792W        W24333  20.157  20.230  12.208
57793W        W24334  37.620  18.048   2.771
57794W        W24335  36.425  29.088  12.079
57795W        W24336  22.649  39.228   0.151
57796W        W24337  35.444   8.636  12.528
57797W        W24338  27.490  17.116  10.786
57798W        W24339  29.883  28.798   2.822
57799W        W24340   0.241  37.092  13.533
57800W        W24341  33.464  31.836  10.644
57801W        W24342  41.901  31.021  14.844
57802W        W24343  27.043  13.362   1.835
57803W        W24344  17.950  17.172   0.873
57804W        W24345  33.707  40.400   3.151
57805W        W24346  28.710  31.425  12.898
57806W        W24347  31.684  39.591   1.380
57807W        W24348  40.079  35.353   2.170
57808W        W24349  21.972   3.393   0.429
57809W        W24350  26.676  42.977  14.968
57810W        W24351  20.467  41.550  12.274
57811W        W24352  15.708  21.336  10.311
57812W        W24353   8.411   1.558  11.098
57813W        W24354  44.877  17.031  14.380
57814W        W24355  35.330  21.603  13.079
57815W        W24356  33.978  31.177   4.225
57816W        W24357  18.513  34.447   1.418
57817W        W24358  19.804  42.448  12.576
57818W        W24359   8.451  29.108  11.609
57819W        W24360  20.204  20.964  14.448
57820W        W24361   9.826  25.729  11.208
57821W        W24362   4.484  38.601  12.122
57822W        W24363  32.677  40.364  13.409
57823W        W24364   7.313  18.434   0.939
57824W        W24365  29.441  25.041   4.897
57825W        W24366  30.436  38.461   0.439
57826W        W24367  40.583   3.331   3.727
57827W        W24368  12.874  25.406   0.744
57828W        W24369  35.861  32.759  12.976
57829W        W24370  35.927  38.307   4.511
57830W        W24371  18.475  34.089  11.677
57831W        W24372  20.974  19.657  10.808
57832W        W24373  40.930  40.033  13.538
57833W        W24374   3.581   7.629  14.314
57834W        W24375   9.261  29.581   0.193
57835W        W24376   8.332  21.808   0.293
57836W        W24377  19.179  37.779   2.799
57837W        W24378  31.880  16.227   2.721
57838W        W24379  37.294   4.476   3.267
57839W        W24380  12.602  24.057   1.270
57840W        W24381   4.184  37.350  10.629
57841W        W24382  40.726  15.986   5.527
57842W        W24383  13.709  44.304   0.800
57843W        W24384   3.949  33.426  13.102
57844W        W24385  22.176  44.873   2.789
57845W        W24386  22.577  39.086   3.821
57846W        W24387  44.167  38.311   0.880
57847W        W24388  25.509  41.388   5.122
57848W        W24389   0.018  26.238   3.944
57849W        W24390   8.277  11.733   1.873
57850W        W24391  23.446  17.550  13.070
57851W        W24392  26.794  25.720   1.430
57852W        W24393   5.359  34.039  10.060
57853W        W24394  38.786  31.161  13.546
57854W        W24395  14.418  39.883   1.811
57855W        W24396  28.685  31.347   3.707
57856W        W24397  44.042  41.480   4.586
57857W        W24398  31.846  39.866   4.609
57858W        W24399  31.018  15.061  10.168
57859W        W24400   6.627   6.319   3.364
57860W        W24401  29.954  26.308   0.872
57861W        W24402  28.140   9.436   2.212
57862W        W24403  25.760  30.082  10.793
57863W        W24404  15.667  38.416   4.831
57864W        W24405  16.607  34.455   0.918
57865W        W24406  44.748  33.876  12.610
57866W        W24407  27.420  15.380  14.803
57867W        W24408  13.189  22.014  12.293
57868W        W24409  37.602   5.709  13.881
57869W        W24410   1.129  12.083   0.879
57870W        W24411  17.791  18.832   0.565
57871W        W24412  13.866  18.819  14.780
57872W        W24413  17.565  12.197  13.925
57873W        W24414  23.754   7.345  11.270
57874W        W24415  25.005   1.281  12.221
57875W        W24416  33.361  22.934   0.762
57876W        W24417   5.692  35.081   1.359
57877W        W24418  43.598  11.364   2.842
57878W        W24419  37.789  11.519   1.452
57879W        W24420  35.655  28.933  13.141
57880W        W24421  38.473  35.381   2.226
57881W        W24422  32.965  37.303   0.423
57882W        W24423   5.019  22.784   1.672
57883W        W24424   1.948   4.421   2.675
57884W        W24425  20.207  34.605   4.254
57885W        W24426  24.428  20.417   4.007
57886W        W24427  21.124  34.447   3.343
57887W        W24428  40.092  41.424   0.878
57888W        W24429  22.757  15.362   4.262
57889W        W24430   5.648  24.547  11.654
57890W        W24431  33.681  18.477   1.463
57891W        W24432   0.838  20.778   1.931
57892W        W24433   4.833  19.551  12.946
57893W        W24434  34.183  13.713  12.493
57894W        W24435  33.747  13.642  11.545
57895W        W24436   9.129  21.018  13.979
57896W        W24437  37.511  25.552   4.073
57897W        W24438  17.111   5.150   0.939
57898W        W24439  21.562  40.010  12.430
57899W        W24440  21.645  12.575   1.715
57900W        W24441   4.971   5.289   0.945
57901W        W24442  21.386  33.916   2.327
57902W        W24443  10.358  30.663  12.962
57903W        W24444  17.513   0.864  12.221
57904W        W24445  24.523  28.763  11.500
57905W        W24446  30.626  21.599   3.309
57906W        W24447   4.030  15.186   1.776
57907W        W24448  21.962   2.945   2.125
57908W        W24449  41.308  44.805  14.097
57909W        W24450   8.332   9.669  11.431
57910W        W24451  14.638  35.636  10.573
57911W        W24452  29.631   3.424  14.652
57912W        W24453   4.944  36.662  10.803
57913W        W24454   9.152  11.802   4.236
57914W        W24455  16.496  42.032   0.314
57915W        W24456  21.952  26.496   0.792
57916W        W24457  24.820  36.865   3.243
57917W        W24458  28.178  30.462   4.607
57918W        W24459  11.212  24.197  14.799
57919W        W24460  18.221  11.706  14.922
57920W        W24461  34.586   1.411  11.101
57921W        W24462  23.469  28.207  14.764
57922W        W24463  39.506  34.830   1.381
57923W        W24464   6.594  14.270  11.074
57924W        W24465   9.606   7.812  13.969
57925W        W24466  17.211  17.671   4.291
57926W        W24467   4.416  17.100  11.508
57927W        W24468  25.942  18.510   3.207
57928W        W24469  40.599  15.853  13.950
57929W        W24470  18.889  26.103   2.898
57930W        W24471  26.257   3.642   1.272
57931W        W24472  37.822  33.868   0.957
57932W        W24473  36.869  32.925  13.056
57933W        W24474  24.025  37.413  14.820
57934W        W24475   9.356  27.050   2.052
57935W        W24476  43.072  31.003  11.604
57936W        W24477  44.542  29.843   0.883
57937W        W24478   3.005  16.128  12.966
57938W        W24479  17.646  23.353  11.060
57939W        W24480  11.649   6.174  11.650
57940W        W24481  39.536  19.066   4.081
57941W        W24482  32.386  23.680   2.297
57942W        W24483  28.038   7.518  12.060
57943W        W24484   7.925   7.066   0.467
57944W        W24485  35.799   6.807  14.986
57945W        W24486  34.850  43.000   2.324
57946W        W24487  31.763  29.506   1.880
57947W        W24488   1.979  18.038   3.251
57948W        W24489  30.032  32.065  11.568
57949W        W24490  34.101   2.808   2.259
57950W        W24491  27.479  21.204   0.379
57951W        W24492  43.801  18.631  13.500
57952W        W24493   3.918  27.670  10.548
57953W        W24494  34.690  12.684  13.426
57954W        W24495   0.292   4.738   2.479
57955W        W24496  18.145  16.799  10.657
57956W        W24497  42.765  18.445  12.599
57957W        W24498  40.532   2.243  11.414
57958W        W24499  39.827  23.710   4.435
57959W        W24500  35.410  15.848   3.313
57960W        W24501  11.850  18.158   2.707
57961W        W24502   9.808  14.225  13.029
57962W        W24503  35.541  20.764  13.839
57963W        W24504  27.652  19.275   0.824
57964W        W24505   8.845  42.013  14.719
57965W        W24506  37.621  16.592  10.931
57966W        W24507  38.325  27.902  12.177
57967W        W24508  23.179  31.910  12.379
57968W        W24509  26.052  29.445   0.813
57969W        W24510  29.934   6.848  14.878
57970W        W24511  30.751  13.338   0.791
57971W        W24512  37.994   9.356   1.403
57972W        W24513  26.192  35.057  11.637
57973W        W24514  33.803  25.048  11.581
57974W        W24515  40.347  15.510  10.531
57975W        W24516   8.177  44.916  11.175
57976W        W24517  24.304  24.274  14.255
57977W        W24518  12.152  41.401   0.462
57978W        W24519  17.320  14.074   4.173
57979W        W24520   5.307   1.543  12.235
57980W        W24521  22.917  29.644   1.083
57981W        W24522  13.168  13.311  13.462
57982W        W24523  19.708  11.164  10.118
57983W        W24524  29.607  11.405  13.435
57984W        W24525  12.816   3.396   4.650
57985W        W24526  32.953  31.566  13.583
57986W        W24527  39.088  13.899  12.167
57987W        W24528   3.468  29.504   1.313
57988W        W24529   1.806  20.032  13.024
57989W        W24530  21.139   8.658   0.291
57990W        W24531  23.707   5.933  12.081
57991W        W24532   9.387   5.338   2.130
57992W        W24533  32.563   8.628  11.620
57993W        W24534   2.396  33.693  12.647
57994W        W24535  28.915   3.520   2.599
57995W        W24536   7.859  29.710  11.926
57996W        W24537   9.273  16.932   3.750
57997W        W24538  38.052  15.760  12.178
57998W        W24539  31.973  27.490  13.888
57999W        W24540   4.953  41.702   4.132
58000W        W24541  39.837  18.811  14.435
58001W        W24542  23.725  37.844   1.310
58002W        W24543   0.708   1.269   2.653
58003W        W24544  18.597  37.461   0.079
58004W        W24545  36.922   4.408  11.731
58005W        W24546  19.535   3.936   0.947
58006W        W24547  33.534   2.890  12.849
58007W        W24548  10.057  29.926  13.962
58008W        W24549  34.281  25.896  11.646
58009W        W24550  19.207  26.530   1.710
58010W        W24551  17.433  26.925  11.584
58011W        W24552  13.394   2.305  11.553
58012W        W24553  36.582  41.025   2.219
58013W        W24554  11.697  26.100   4.895
58014W        W24555  28.553  30.285   0.720
58015W        W24556  18.820  42.473   4.034
58016W        W24557  36.464  41.020  13.801
58017W        W24558  36.907  39.006   1.703
58018W        W24559  11.875  24.253  11.076
58019W        W24560  22.571  18.163   4.372
58020W        W24561  26.602   3.191   4.232
58021W        W24562  17.723   2.738  10.788
58022W        W24563  35.500  38.568   4.678
58023W        W24564  44.941  10.634   0.277
58024W        W24565  20.731  31.676  11.702
58025W        W24566  32.253  34.577  12.518
58026W        W24567  41.036   7.186  12.940
58027W        W24568   2.744  29.139   1.354
58028W        W24569   5.980  14.730  11.623
58029W        W24570  22.129   7.390  13.106
58030W        W24571   3.344   0.262  12.072
58031W        W24572  25.675  11.898  13.349
58032W        W24573  34.891  44.250   4.092
58033W        W24574  15.728  15.346   3.188
58034W        W24575   1.719  23.516   4.325
58035W        W24576  44.955  16.284  11.703
58036W        W24577  10.447  27.574  14.422
58037W        W24578   4.766  21.195  11.657
58038W        W24579  17.552  39.331  14.376
58039W        W24580  15.035  28.373  10.339
58040W        W24581   5.270  36.441  12.511
58041W        W24582  20.524  44.027  10.668
58042W        W24583  36.549  18.638  12.717
58043W        W24584   2.312  14.241   2.849
58044W        W24585   7.559  35.308   1.374
58045W        W24586  10.587   7.304   1.937
58046W        W24587  36.422  26.279  11.161
58047W        W24588   2.967  43.042   3.186
58048W        W24589  24.495  42.885   1.337
58049W        W24590  33.429  25.773   1.907
58050W        W24591  18.289  41.844   1.825
58051W        W24592  25.767  13.972   3.302
58052W        W24593   5.706   2.866   1.554
58053W        W24594  42.763  29.404  12.942
58054W        W24595  12.960  10.890  14.421
58055W        W24596  12.296  10.844   0.883
58056W        W24597  14.862  10.733   0.996
58057W        W24598  21.643  10.153   4.432
58058W        W24599  11.556  32.104  12.571
58059W        W24600  26.007   4.208  12.530
58060W        W24601  31.951  41.922   1.351
58061W        W24602  24.328  33.135   0.353
58062W        W24603  37.908  20.991   1.273
58063W        W24604  28.025  12.183  10.312
58064W        W24605  16.993  39.827   1.487
58065W        W24606  32.011  30.799  14.229
58066W        W24607  37.886  43.906   1.865
58067W        W24608   4.675  16.308  10.783
58068W        W24609  42.722  40.732  13.941
58069W        W24610  11.586  30.555  13.486
58070W        W24611  27.398  36.399   4.628
58071W        W24612  25.308  23.225   0.483
58072W        W24613   0.448  19.788   4.356
58073W        W24614  32.154  30.383   0.261
58074W        W24615  12.811  27.184   1.385
58075W        W24616  15.467   6.034   4.572
58076W        W24617  17.123  39.114   0.445
58077W        W24618  34.494   0.240  14.875
58078W        W24619  39.828  29.393   3.787
58079W        W24620  11.029  33.506   1.139
58080W        W24621  12.233  40.066  11.992
58081W        W24622   2.881  29.000   1.858
58082W        W24623  41.526  18.165   1.766
58083W        W24624   7.765  28.966   3.914
58084W        W24625   2.800  43.131   1.401
58085W        W24626  12.119  24.077  14.677
58086W        W24627  40.168   8.321  12.327
58087W        W24628  24.556  33.962   1.856
58088W        W24629  28.416   3.438  12.859
58089W        W24630  18.651  26.180  13.016
58090W        W24631  40.197  43.588   1.756
58091W        W24632   8.764  35.064  10.832
58092W        W24633  10.860  14.759   4.307
58093W        W24634   6.552  39.866  11.639
58094W        W24635  22.691  44.756  13.369
58095W        W24636  40.247   9.426  14.957
58096W        W24637  38.485  14.735  11.693
58097W        W24638  38.552   1.344   3.827
58098W        W24639   7.266   7.686   4.919
58099W        W24640   7.745  14.548  11.606
58100W        W24641  11.822  43.165   1.334
58101W        W24642  42.867   4.764  11.655
58102W        W24643   7.278  23.035   4.099
58103W        W24644  22.895  19.673  14.935
58104W        W24645  10.460   3.844  12.495
58105W        W24646  42.256  39.373   0.675
58106W        W24647  30.763  14.761   3.621
58107W        W24648  13.819  14.337  11.142
58108W        W24649   6.166  29.195  12.101
58109W        W24650  32.981  39.392   0.450
58110W        W24651  35.942   3.352   0.369
58111W        W24652  27.945  43.887   0.319
58112W        W24653   3.666  19.695   2.728
58113W        W24654  41.438   4.385  12.536
58114W        W24655  36.900  22.266   1.718
58115W        W24656  10.283   8.767  10.223
58116W        W24657  43.788  25.504   2.825
58117W        W24658  22.193   4.419   2.307
58118W        W24659  13.823   3.106   2.122
58119W        W24660  30.408  13.419  11.468
58120W        W24661  42.132   0.214   0.576
58121W        W24662  13.685  13.229  13.549
58122W        W24663  37.394  12.866  12.126
58123W        W24664  16.234   3.989   1.202
58124W        W24665  14.649   6.462  13.402
58125W        W24666  10.730  29.164  12.053
58126W        W24667   7.446  39.307  14.311
58127W        W24668   2.582  44.482  14.050
58128W        W24669  18.552  44.664  12.029
58129W        W24670  44.517  23.817  12.591
58130W        W24671  16.861  26.398  12.002
58131W        W24672  32.450   7.368   3.202
58132W        W24673   1.241  25.587  14.338
58133W        W24674   6.912  38.822   3.708
58134W        W24675  16.202  17.186   4.132
58135W        W24676  16.342  32.653   2.791
58136W        W24677  42.905  36.380   3.562
58137W        W24678   1.695  16.862   1.802
58138W        W24679  10.876  22.243   2.720
58139W        W24680  43.581  10.900   2.388
58140W        W24681  22.106  32.551  14.220
58141W        W24682  26.228  19.875   4.520
58142W        W24683  37.736   9.664   0.404
58143W        W24684  11.193  33.440  13.928
58144W        W24685  20.266  13.031  11.783
58145W        W24686  41.186  28.969  11.525
58146W        W24687  27.129  26.954   1.454
58147W        W24688   5.237  10.604   2.689
58148W        W24689  33.584  34.850   0.783
58149W        W24690  13.681   9.535  12.878
58150W        W24691  32.673  40.994  12.425
58151W        W24692   2.785   3.457  11.394
58152W        W24693   2.308   5.020  10.984
58153W        W24694   6.278  38.347   9.626
58154W        W24695  12.440   5.750   0.102
58155W        W24696  43.434  23.718  11.352
58156W        W24697  41.825  30.047  14.996
58157W        W24698  34.904  28.066  10.589
58158W        W24699  19.049  24.553   1.782
58159W        W24700  29.045  44.813   2.757
58160W        W24701  37.886  27.732   2.202
58161W        W24702  39.821   4.895  11.060
58162W        W24703  38.053  37.317   2.954
58163W        W24704   8.097   0.433   3.231
58164W        W24705  23.701  30.898  14.736
58165W        W24706  23.431  17.730   2.121
58166W        W24707  25.702   5.992  12.084
58167W        W24708  42.165   5.344   1.641
58168W        W24709   1.079  35.002   3.181
58169W        W24710   4.158  17.603   1.849
58170W        W24711   4.765  40.662  11.548
58171W        W24712  18.277  12.034  12.023
58172W        W24713  11.832  25.131   2.195
58173W        W24714  38.091  28.997   1.954
58174W        W24715  28.113  20.254   3.147
58175W        W24716  25.526  10.442  11.439
58176W        W24717  14.311  39.801   2.742
58177W        W24718  29.422   1.731  12.058
58178W        W24719  44.436  36.001  14.103
58179W        W24720  27.789   8.901  14.425
58180W        W24721  38.831   0.482   3.661
58181W        W24722  31.763  29.033   1.477
58182W        W24723  16.009  38.229  14.693
58183W        W24724  34.590  31.912   2.826
58184W        W24725  44.343   6.291   2.784
58185W        W24726  42.272  19.596  13.168
58186W        W24727   7.880  15.184  12.377
58187W        W24728  25.182  34.251  12.105
58188W        W24729  22.008   6.432  14.599
58189W        W24730  18.058   3.911  14.434
58190W        W24731  38.604  15.752   1.828
58191W        W24732  12.105  37.763  13.777
58192W        W24733  39.332  38.065   0.520
58193W        W24734   1.039  42.486  12.437
58194W        W24735  31.537  21.919   2.852
58195W        W24736  40.490  30.987   0.037
58196W        W24737  22.081  43.767  11.752
58197W        W24738   1.372   1.371   4.490
58198W        W24739  37.152  42.402   3.737
58199W        W24740  42.772  11.351  12.215
58200W        W24741  42.634  44.124   4.287
58201W        W24742  27.919  15.468   1.975
58202W        W24743  15.501   7.002  13.538
58203W        W24744  43.943  11.781   0.467
58204W        W24745  30.258   2.594   0.321
58205W        W24746  29.108   4.712  14.367
58206W        W24747  42.123   4.883  11.245
58207W        W24748  18.774  35.873  13.918
58208W        W24749  12.600   0.434  11.304
58209W        W24750  14.466   1.256   3.845
58210W        W24751  38.719  35.282  11.122
58211W        W24752   9.744   4.235   2.736
58212W        W24753  38.363  38.617  13.034
58213W        W24754  10.744  39.982   5.016
58214W        W24755  27.530  32.600   1.014
58215W        W24756  37.481  42.257  12.663
58216W        W24757  39.013   6.734  12.098
58217W        W24758  33.078  11.237  12.342
58218W        W24759  35.566  19.162  11.476
58219W        W24760   1.317  17.312   0.227
58220W        W24761  25.612  36.259   0.183
58221W        W24762  21.249  27.132  14.088
58222W        W24763  40.123  26.303   4.902
58223W        W24764   5.006   2.302  12.107
58224W        W24765  20.601  37.799   2.507
58225W        W24766  34.250  10.309   2.368
58226W        W24767  36.825  15.758  13.460
58227W        W24768  36.887  15.045  13.827
58228W        W24769  29.334  37.041   1.815
58229W        W24770  25.164  18.521   5.025
58230W        W24771   8.962  41.799  11.719
58231W        W24772  28.641  24.569   0.439
58232W        W24773  19.713  25.998   4.736
58233W        W24774  44.011  39.842  11.410
58234W        W24775  26.504   1.035   1.884
58235W        W24776  32.479  18.984  13.653
58236W        W24777  30.102  21.811   0.153
58237W        W24778  24.058  37.407  12.380
58238W        W24779  33.894   1.935  13.868
58239W        W24780  34.942  40.333  13.391
58240W        W24781  10.339  35.668  11.115
58241W        W24782  31.615  23.602  13.112
58242W        W24783  44.043  36.943   0.205
58243W        W24784  15.875   7.286  13.298
58244W        W24785  21.593  39.382   3.056
58245W        W24786  13.329  20.613   0.850
58246W        W24787  44.012  11.155   2.263
58247W        W24788   9.630  25.163   4.250
58248W        W24789  17.884  10.570   2.833
58249W        W24790   6.437   7.245  13.114
58250W        W24791   7.010  32.646   3.749
58251W        W24792  12.518  43.886   2.658
58252W        W24793  14.968  32.856   2.057
58253W        W24794  16.524  18.757  12.890
58254W        W24795  37.273  23.997  13.582
58255W        W24796  41.382   7.638  11.266
58256W        W24797   3.072  19.677  11.390
58257W        W24798   2.857   1.420   0.928
58258W        W24799   7.860  10.323  14.901
58259W        W24800  24.363   7.207   3.890
58260W        W24801   2.553  38.682   4.622
58261W        W24802  29.647   6.854   0.788
58262W        W24803  38.924  43.243   1.151
58263W        W24804  18.842  32.233   3.259
58264W        W24805   8.715  15.313  10.774
58265W        W24806  11.476  33.928  13.959
58266W        W24807  30.013  38.395   0.783
58267W        W24808  42.034  29.752  14.462
58268W        W24809  24.470  22.628   3.634
58269W        W24810  23.172  42.376   4.027
58270W        W24811  28.959  37.468   0.734
58271W        W24812  36.964  29.706   3.914
58272W        W24813   2.904  17.729   3.275
58273W        W24814  12.147  41.887  10.783
58274W        W24815  24.214  12.215   3.318
58275W        W24816  44.293   4.877  13.499
58276W        W24817  20.560   8.339   0.354
58277W        W24818  28.897  20.718   3.295
58278W        W24819  42.842  28.430  10.747
58279W        W24820  21.597  29.599  13.561
58280W        W24821   1.854  21.697   0.812
58281W        W24822  44.325  13.103   4.855
58282W        W24823   3.312  44.898   4.903
58283W        W24824  30.251  41.393   3.017
58284W        W24825  34.663   1.904  11.216
58285W        W24826  42.918  43.264  11.577
58286W        W24827  31.687  14.576   0.932
58287W        W24828  40.817  13.853  12.872
58288W        W24829  29.476  42.449   0.351
58289W        W24830  32.593   8.422  13.987
58290W        W24831  22.641  15.784  14.316
58291W        W24832  16.890  31.512   3.165
58292W        W24833   4.931  30.194  11.056
58293W        W24834   6.541  41.461  10.696
58294W        W24835  22.608  20.078  14.317
58295W        W24836   4.663  32.563   3.156
58296W        W24837  32.985  43.942   4.504
58297W        W24838  39.592  24.573  12.481
58298W        W24839  41.410   5.067   1.302
58299W        W24840  12.638  37.714  14.541
58300W        W24841  11.643  15.132  12.141
58301W        W24842  37.035  10.576  12.157
58302W        W24843  25.925  41.317   4.692
58303W        W24844  29.007  39.985  14.442
58304W        W24845  26.101  34.412   2.713
58305W        W24846  27.534   8.652  14.917
58306W        W24847  19.982  20.146   0.263
58307W        W24848  16.712  32.599   1.907
58308W        W24849  34.402  35.785   4.618
58309W        W24850  42.558  15.619   0.857
58310W        W24851  31.006  35.303  14.476
58311W        W24852  18.022  12.171   4.093
58312W        W24853  41.959  27.012   3.847
58313W        W24854  20.983  10.623  13.908
58314W        W24855  33.146  19.090   1.172
58315W        W24856  16.247  22.914   0.049
58316W        W24857  28.880  12.067   0.832
58317W        W24858  31.885  16.706  13.828
58318W        W24859  13.813  26.120  10.711
58319W        W24860  27.671   6.362  12.646
58320W        W24861  40.320  29.617  12.902
58321W        W24862  44.712  30.078  11.709
58322W        W24863  40.817  31.618  12.421
58323W        W24864  36.646   9.882  13.379
58324W        W24865  25.639  34.918  14.931
58325W        W24866  40.124   8.934   4.012
58326W        W24867   3.266  23.316  13.246
58327W        W24868   6.226  15.818  13.528
58328W        W24869   6.943  17.816  14.526
58329W        W24870  31.943  38.850  14.410
58330W        W24871   8.344  29.781  13.223
58331W        W24872  21.112  27.905   5.077
58332W        W24873   6.734  13.719   2.321
58333W        W24874   5.445  22.649   0.986
58334W        W24875  28.769  13.900  10.134
58335W        W24876  10.246   3.436   0.820
58336W        W24877  26.626  32.361   4.962
58337W        W24878   0.307  10.511  14.403
58338W        W24879   9.525  40.579   1.879
58339W        W24880  23.606  30.166   2.187
58340W        W24881   6.376   9.315   1.206
58341W        W24882  32.795   6.375   0.082
58342W        W24883  40.813  26.196   2.125
58343W        W24884  23.352  20.820  14.350
58344W        W24885  17.267  34.150   3.719
58345W        W24886  12.616   3.096  11.111
58346W        W24887  38.083  27.193  13.335
58347W        W24888  39.194  27.894  12.028
58348W        W24889  26.052  42.577  12.038
58349W        W24890   3.477  27.102   0.459
58350W        W24891  32.904  31.530   0.115
58351W        W24892  34.014  41.374  13.290
58352W        W24893  18.566  14.385   1.131
58353W        W24894  27.462  28.750  14.984
58354W        W24895  24.654  28.942   3.376
58355W        W24896  13.139   4.542  12.075
58356W        W24897  44.412  35.157   1.408
58357W        W24898  37.310   0.838  14.297
58358W        W24899  18.456  18.588  11.326
58359W        W24900  22.709  38.583   2.757
58360W        W24901  24.150  17.268  14.768
58361W        W24902  22.454  20.478  13.556
58362W        W24903  27.629  26.411   0.912
58363W        W24904  33.490  12.812  12.942
58364W        W24905  43.970  16.544  13.861
58365W        W24906  27.945  43.835  13.900
58366W        W24907   2.806  43.799   4.348
58367W        W24908  27.164  35.518  11.251
58368W        W24909  27.760  22.846  10.297
58369W        W24910  26.107  17.623  11.028
58370W        W24911  22.183   9.363  14.036
58371W        W24912  31.516  21.682  14.463
58372W        W24913  11.080  42.645   3.014
58373W        W24914   9.698  38.218   9.753
58374W        W24915  17.211  32.064   3.610
58375W        W24916  33.042  35.563  14.807
58376W        W24917  32.821  24.543  11.196
58377W        W24918  35.393   2.714   3.590
58378W        W24919  27.992  40.484   1.660
58379W        W24920   0.517   1.212  11.042
58380W        W24921  21.647  35.099  14.364
58381W        W24922  43.731   5.654   2.763
58382W        W24923  33.871  26.043   0.918
58383W        W24924  14.088  44.529  14.990
58384W        W24925  43.496  31.785   2.614
58385W        W24926  31.488  40.458   1.699
58386W        W24927  21.624  40.061   1.822
58387W        W24928  42.218  31.318   2.396
58388W        W24929  37.799   6.979  12.992
58389W        W24930   7.800  44.966   0.296
58390W        W24931  41.549  36.612   3.147
58391W        W24932  29.857  10.437   1.367
58392W        W24933  28.198  28.776  13.427
58393W        W24934  24.726  28.247  14.370
58394W        W24935  32.430  34.522   4.538
58395W        W24936   0.878  21.197  11.718
58396W        W24937  14.624  30.074   1.874
58397W        W24938  37.941  40.343  11.586
58398W        W24939  44.744  41.591  12.015
58399W        W24940   7.254   0.182  12.972
58400W        W24941  27.305  36.591  11.340
58401W        W24942   7.994  24.365   0.055
58402W        W24943  26.663  42.254   1.364
58403W        W24944  10.248  44.056   0.478
58404W        W24945  14.605  43.204  13.766
58405W        W24946  31.444  19.607  14.895
58406W        W24947  11.242  12.498   4.355
58407W        W24948   8.244  44.986   0.009
58408W        W24949  18.302  16.516   1.284
58409W        W24950   5.652  33.899   3.198
58410W        W24951   2.275  29.668  13.369
58411W        W24952  40.267   5.206   0.452
58412W        W24953   7.900  32.946   1.219
58413W        W24954  31.716   6.333  13.625
58414W        W24955  39.423   3.731  12.228
58415W        W24956  42.052  23.261  12.849
58416W        W24957  27.438   4.183   2.663
58417W        W24958  42.497  25.303   0.800
58418W        W24959   3.184  17.317  12.973
58419W        W24960  12.137  18.366   0.411
58420W        W24961  28.232  30.929   4.864
58421W        W24962  40.763  24.284   0.424
58422W        W24963  13.833  28.602  12.014
58423W        W24964  11.909  30.387  12.042
58424W        W24965   7.859  36.395  12.939
58425W        W24966  29.378  18.240   3.140
58426W        W24967   6.796   1.920  10.555
58427W        W24968   5.827  26.510   4.703
58428W        W24969  25.404  26.500  10.706
58429W        W24970  31.160  13.220   1.447
58430W        W24971  38.965  31.030  12.473
58431W        W24972  25.887  36.665  12.656
58432W        W24973  33.917  13.091  13.108
58433W        W24974  38.760  14.909   4.172
58434W        W24975  44.255  34.571  13.868
58435W        W24976  34.870  37.958  10.636
58436W        W24977   1.457  39.049  14.926
58437W        W24978  24.760  42.435  14.456
58438W        W24979  35.889  42.800   2.466
58439W        W24980   6.733  10.261  13.024
58440W        W24981  17.849  29.236  14.415
58441W        W24982  29.669  28.706   3.291
58442W        W24983  16.043   9.262  14.443
58443W        W24984   3.184  21.947  12.900
58444W        W24985  20.675   9.910  14.436
58445W        W24986   7.023  18.408   0.368
58446W        W24987  27.100   4.759  12.916
58447W        W24988  13.594  18.039   1.266
58448W        W24989  17.422  17.078   3.634
58449W        W24990   1.369   0.723  14.397
58450W        W24991   0.039  35.069  13.963
58451W        W24992   3.305  24.115   1.720
58452W        W24993  32.240  20.130   2.905
58453W        W24994  42.320  30.144  14.256
58454W        W24995  44.226   8.051  10.197
58455W        W24996  27.211   7.484   3.122
58456W        W24997  31.476  36.336  13.395
58457W        W24998  36.017   8.186   1.850
58458W        W24999  28.454  14.144  12.941
58459W        W25000  44.989   8.211   1.199
58460W        W25001  37.168  29.623   2.177
58461W        W25002  33.151  16.456  11.213
58462W        W25003   2.957  32.050  14.393
58463W        W25004  39.086  22.782  13.854
58464W        W25005  24.488  34.808  12.633
58465W        W25006   5.866  18.290   3.105
58466W        W25007  32.309  32.895  11.539
58467W        W25008  21.746  32.226   1.243
58468W        W25009  17.288   3.161   9.900
58469W        W25010  17.317  40.017   3.474
58470W        W25011   6.836   4.277   3.082
58471W        W25012  10.932  38.896   2.127
58472W        W25013  27.398  39.058   3.678
58473W        W25014  12.656  23.535   1.182
58474W        W25015  39.193  39.528   4.222
58475W        W25016  31.641  36.920   3.646
58476W        W25017  36.851  10.513  14.019
58477W        W25018  16.766  28.363   3.217
58478W        W25019   5.018  43.247   4.137
58479W        W25020  37.972  32.671  13.642
58480W        W25021  29.042  21.592  14.089
58481W        W25022  42.432  26.254   4.111
58482W        W25023  18.175  18.741   4.661
58483W        W25024  26.033  10.950  13.763
58484W        W25025  17.034  21.440   0.088
58485W        W25026  17.523  13.528   2.650
58486W        W25027  23.897  38.431  11.667
58487W        W25028  30.026   4.402   0.275
58488W        W25029  36.475  25.228   0.488
58489W        W25030   6.117  39.246  13.309
58490W        W25031  30.421  35.964  13.867
58491W        W25032  25.168  18.162   2.613
58492W        W25033  17.155   4.663   0.388
58493W        W25034  40.393  28.677   3.729
58494W        W25035  11.315   6.510  10.814
58495W        W25036  24.739  44.708  14.348
58496W        W25037  19.305   5.866  12.580
58497W        W25038  40.384  26.298  13.855
58498W        W25039  20.580   2.512   1.348
58499W        W25040  39.457   7.990  11.675
58500W        W25041   0.822  27.998  13.174
58501W        W25042  25.230  22.707  13.888
58502W        W25043  19.306  25.950  13.561
58503W        W25044  34.374  10.822  10.573
58504W        W25045  22.147  12.767   9.989
58505W        W25046  26.005  35.657  13.519
58506W        W25047  11.928  16.940  12.334
58507W        W25048  35.195  27.681   4.569
58508W        W25049   2.336  41.877   1.782
58509W        W25050   4.223  32.076  10.966
58510W        W25051  31.880  33.644  10.656
58511W        W25052  29.719  29.357  13.000
58512W        W25053   8.206   0.189   0.536
58513W        W25054  15.992  13.322  10.324
58514W        W25055  24.982   1.885  13.502
58515W        W25056  16.790  41.799  10.723
58516W        W25057  22.859  21.550   2.095
58517W        W25058  30.581  14.136  11.991
58518W        W25059  25.903  18.095   4.431
58519W        W25060  40.719   4.083  12.841
58520W        W25061  35.027  16.331   4.595
58521W        W25062  38.367   1.971   1.303
58522W        W25063   9.160  35.126  13.580
58523W        W25064  40.447  29.176   3.548
58524W        W25065  11.765  14.263  14.275
58525W        W25066   1.220  42.774   4.616
58526W        W25067  17.745  27.925  14.887
58527W        W25068   5.309   3.807  13.454
58528W        W25069  42.458   1.819  10.768
58529W        W25070   9.197  31.833   3.331
58530W        W25071  10.786  34.434   2.790
58531W        W25072   0.941  38.918  11.754
58532W        W25073   2.295  30.165  11.827
58533W        W25074  15.161   9.850   0.229
58534W        W25075   0.324  22.567  10.374
58535W        W25076  12.130  43.184   0.238
58536W        W25077  43.586  27.937  12.151
58537W        W25078   5.799  30.687  11.124
58538W        W25079  34.330  23.539   2.170
58539W        W25080  25.789   3.816   2.246
58540W        W25081  34.205  16.092   2.234
58541W        W25082  14.337  36.245  13.618
58542W        W25083  28.536  10.116  14.861
58543W        W25084  25.347   2.262   3.093
58544W        W25085  29.442  18.927  13.450
58545W        W25086  36.054  37.982  14.391
58546W        W25087  38.515  14.868  11.183
58547W        W25088  21.702  16.051   2.244
58548W        W25089  13.302  35.865  13.123
58549W        W25090   1.406  20.322  13.577
58550W        W25091  10.299  16.277   1.287
58551W        W25092  22.757   6.831  12.082
58552W        W25093  19.881  18.244  12.989
58553W        W25094  22.660  42.279  12.918
58554W        W25095  40.271  17.521  10.357
58555W        W25096  27.650  19.820  10.769
58556W        W25097  38.254  42.000  13.521
58557W        W25098  14.579  39.006   1.383
58558W        W25099  36.573  21.381  11.227
58559W        W25100  19.214  29.740   0.814
58560W        W25101  27.156  22.762   1.930
58561W        W25102  30.235  33.566  12.503
58562W        W25103  36.102  11.894  13.429
58563W        W25104  13.866  16.029  12.418
58564W        W25105   9.925  33.962   4.090
58565W        W25106  35.181  14.248   1.342
58566W        W25107   0.935  28.339   2.815
58567W        W25108   0.027  23.680  13.953
58568W        W25109  29.187  14.488   4.457
58569W        W25110  14.777  35.168  10.737
58570W        W25111  28.401  43.155  10.392
58571W        W25112  24.854  25.583   2.206
58572W        W25113  42.249  11.848  10.707
58573W        W25114   8.011   2.349  13.744
58574W        W25115  13.821  26.009   1.923
58575W        W25116  29.078   1.407   0.719
58576W        W25117  20.630  39.940   1.614
58577W        W25118  26.352  38.939  14.734
58578W        W25119  44.974  40.926  12.472
58579W        W25120  30.053  13.661  14.766
58580W        W25121  15.097   9.892  11.084
58581W        W25122  36.889  34.950   4.487
58582W        W25123  30.500  34.961  11.671
58583W        W25124  41.406  29.960  14.126
58584W        W25125  10.369  16.325  11.170
58585W        W25126  29.949  27.670  10.677
58586W        W25127  16.459  33.479  11.956
58587W        W25128  13.821   2.889   2.577
58588W        W25129  41.654  16.311  10.734
58589W        W25130  12.895  34.849   2.192
58590W        W25131  24.958  40.508  11.960
58591W        W25132  29.898  21.698   2.367
58592W        W25133   7.181   9.184  12.156
58593W        W25134  43.741  41.707   3.704
58594W        W25135  18.132  15.912  13.924
58595W        W25136  23.772  41.554   2.300
58596W        W25137  40.403   8.139   4.691
58597W        W25138   4.689  16.693   2.709
58598W        W25139  31.606  20.699   2.162
58599W        W25140  37.815  17.278   2.240
58600W        W25141   1.925  37.296   9.942
58601W        W25142  30.026  15.695  13.575
58602W        W25143   6.636  21.067   2.706
58603W        W25144  31.433  17.561  12.048
58604W        W25145   4.140  34.426   4.637
58605W        W25146  40.666  42.188  13.117
58606W        W25147  11.629  27.908   0.248
58607W        W25148  33.131  31.918  12.368
58608W        W25149  37.171  30.817  13.744
58609W        W25150  30.177  19.643   3.689
58610W        W25151  40.080   8.713  14.282
58611W        W25152  20.833   6.860  13.003
58612W        W25153  21.660  16.773  14.234
58613W        W25154  13.201  32.537   0.057
58614W        W25155   9.514  34.146  11.490
58615W        W25156  19.826   8.537  14.915
58616W        W25157   5.731  37.409  11.919
58617W        W25158   1.679  17.125   4.473
58618W        W25159  32.168  44.967   0.493
58619W        W25160  12.239   0.460   4.641
58620W        W25161  16.084  11.931  10.511
58621W        W25162  10.529  13.193   2.942
58622W        W25163   8.806  41.530  12.964
58623W        W25164  24.603  10.657   4.743
58624W        W25165  42.692  41.862   4.865
58625W        W25166   0.833  18.963  11.509
58626W        W25167  16.722  12.948  11.754
58627W        W25168  18.515  27.764  13.951
58628W        W25169  43.361  28.571   4.106
58629W        W25170  38.368   0.898   0.336
58630W        W25171  33.551  14.362   3.527
58631W        W25172  18.263  28.922  14.447
58632W        W25173  32.458   7.251  12.146
58633W        W25174   5.135  36.490   2.298
58634W        W25175  17.807   0.890   2.101
58635W        W25176  25.425  16.698  10.357
58636W        W25177   8.278  25.537  14.265
58637W        W25178  43.573  11.384   1.059
58638W        W25179  12.532  30.048  11.505
58639W        W25180   8.361  11.800  10.606
58640W        W25181  13.885  30.429   3.801
58641W        W25182  43.333  22.083   1.928
58642W        W25183   5.051  33.123   1.903
58643W        W25184  35.972  32.874   2.210
58644W        W25185  17.629  40.366   4.258
58645W        W25186  10.215   4.269   2.988
58646W        W25187   7.249  22.608   0.731
58647W        W25188  26.244   3.788  13.403
58648W        W25189  15.701  38.377  10.070
58649W        W25190  40.261  27.983  11.172
58650W        W25191  10.036  44.926   0.423
58651W        W25192  42.894  11.280   4.725
58652W        W25193  22.208  28.505  11.130
58653W        W25194   5.385  27.634  12.123
58654W        W25195  12.336   7.753  12.546
58655W        W25196  14.019  44.366  14.372
58656W        W25197   3.937   5.813  12.380
58657W        W25198  27.232  17.171   3.286
58658W        W25199  22.434  25.694   1.667
58659W        W25200  33.149  37.835  13.642
58660W        W25201  18.701  20.293  12.083
58661W        W25202  34.525  27.214   2.999
58662W        W25203  24.951   0.696   1.859
58663W        W25204  29.456  22.971   3.199
58664W        W25205   9.198  40.644  14.830
58665W        W25206  10.888  14.392   1.464
58666W        W25207  32.285  25.822  11.162
58667W        W25208   4.806  16.553   1.796
58668W        W25209   2.743  36.138   2.896
58669W        W25210  14.782   8.684  13.876
58670W        W25211  13.699   4.652  12.188
58671W        W25212  31.000  28.644   4.545
58672W        W25213   6.794  23.081  14.056
58673W        W25214  44.909   9.781  10.964
58674W        W25215   9.766  20.790   2.236
58675W        W25216   7.262  26.922  13.318
58676W        W25217   8.658  25.665   1.454
58677W        W25218  13.199  15.353   0.502
58678W        W25219  35.426  20.526   1.177
58679W        W25220  30.469  43.683  13.977
58680W        W25221  17.630  29.427  12.305
58681W        W25222  41.428  31.644  11.632
58682W        W25223  36.236   3.895  12.841
58683W        W25224  30.011  26.818   3.786
58684W        W25225   8.077  22.262   2.297
58685W        W25226  14.807  16.319  13.608
58686W        W25227  34.066   0.371  11.717
58687W        W25228  39.499  29.748   2.755
58688W        W25229  21.444   2.728   4.336
58689W        W25230  15.065  23.789  14.090
58690W        W25231  41.466  44.708   0.355
58691W        W25232  10.314  17.832   4.180
58692W        W25233  40.957  25.658  14.326
58693W        W25234  20.171  26.077   1.369
58694W        W25235  43.458  12.689   2.270
58695W        W25236  29.071  21.333  13.562
58696W        W25237  14.231   0.490   4.634
58697W        W25238  27.675   0.327  10.935
58698W        W25239  36.391  10.768   2.931
58699W        W25240  26.256   2.722   1.827
58700W        W25241   6.500   3.845   1.425
58701W        W25242  30.055  24.595  11.148
58702W        W25243  16.889  17.613   1.395
58703W        W25244  12.344  19.462   2.726
58704W        W25245   3.278  11.674   0.357
58705W        W25246   9.673  31.997   3.163
58706W        W25247  37.871  36.493  13.514
58707W        W25248   9.589   6.184  13.279
58708W        W25249  19.611  32.649  13.414
58709W        W25250  39.574  30.969  14.941
58710W        W25251  23.159  17.086  14.400
58711W        W25252  24.768  17.824   2.639
58712W        W25253  26.057  16.301  12.361
58713W        W25254  44.416  36.488  14.999
58714W        W25255  39.956  20.308  13.591
58715W        W25256  37.481   3.094   0.717
58716W        W25257  33.892   5.673  11.427
58717W        W25258  38.484   6.347   4.949
58718W        W25259  10.010  42.867   4.674
58719W        W25260  30.957  34.530   2.091
58720W        W25261  44.532   8.941  12.398
58721W        W25262  18.876  30.181   0.159
58722W        W25263   8.770  41.029   3.798
58723W        W25264  26.071  28.483  11.572
58724W        W25265  10.662  25.326  14.753
58725W        W25266  24.072  37.787   0.727
58726W        W25267  43.971  42.992  10.799
58727W        W25268  28.072  35.564  14.777
58728W        W25269  23.073   7.026   4.519
58729W        W25270  38.424   7.291   2.854
58730W        W25271   3.878  28.759   4.338
58731W        W25272  42.491  28.702   0.743
58732W        W25273  11.701  18.723   2.707
58733W        W25274   8.292  43.609  13.297
58734W        W25275  38.616  26.542   4.842
58735W        W25276  44.566  38.935   1.392
58736W        W25277   0.825  10.975   4.400
58737W        W25278  22.960  26.984   2.665
58738W        W25279  24.995  25.130   2.423
58739W        W25280  12.794   4.926  14.781
58740W        W25281  26.045   0.284   2.690
58741W        W25282  20.252  32.600   0.483
58742W        W25283  30.735  13.651  10.477
58743W        W25284  31.469  25.163   3.835
58744W        W25285  35.550   1.543   1.707
58745W        W25286  25.062   8.772  13.901
58746W        W25287  26.573  11.832   3.742
58747W        W25288  16.053  16.301  10.690
58748W        W25289   2.070  29.479   4.554
58749W        W25290  13.888  11.864  14.998
58750W        W25291  30.889  16.569   5.426
58751W        W25292   4.685  44.519   5.074
58752W        W25293  33.351   1.378  12.609
58753W        W25294  21.927  41.815   2.352
58754W        W25295  16.210  11.624  11.938
58755W        W25296  27.658  43.437  13.718
58756W        W25297  20.070   5.203  12.564
58757W        W25298  23.167  10.813   4.104
58758W        W25299  44.020  20.683   0.044
58759W        W25300  31.899  35.205   4.883
58760W        W25301  30.170  13.902   1.656
58761W        W25302  28.146  42.552  13.337
58762W        W25303  24.004   2.723  11.669
58763W        W25304  24.371  37.063  14.636
58764W        W25305  36.930  38.898   0.676
58765W        W25306  38.356  10.776   2.265
58766W        W25307  27.245  14.889  14.061
58767W        W25308  20.013   1.906  12.916
58768W        W25309  29.712  15.131  14.680
58769W        W25310   8.677  33.580  11.594
58770W        W25311  33.441  27.146   4.504
58771W        W25312  10.651  14.774   4.780
58772W        W25313  26.658   9.538   0.237
58773W        W25314  26.712   3.688   4.102
58774W        W25315   0.854  16.217   2.492
58775W        W25316  21.567  42.805  12.922
58776W        W25317  39.439   2.826   0.296
58777W        W25318  27.582  16.491   3.334
58778W        W25319  41.560  23.617  13.874
58779W        W25320  17.296   7.020   3.875
58780W        W25321  34.534  29.463  10.784
58781W        W25322  36.664  37.809   0.067
58782W        W25323  31.167  42.970  14.990
58783W        W25324  44.917  25.183   4.587
58784W        W25325  34.155  39.562   1.305
58785W        W25326   0.906  39.115   3.825
58786W        W25327   3.451  31.444   3.570
58787W        W25328   7.464  32.900   3.769
58788W        W25329  10.916  40.816  14.388
58789W        W25330   5.706  41.230   4.706
58790W        W25331   9.623  18.652  14.996
58791W        W25332  10.440  25.030  13.462
58792W        W25333  11.348  38.030   2.439
58793W        W25334   3.976  31.983  12.963
58794W        W25335  39.043  35.103  14.774
58795W        W25336   7.067  24.225   1.395
58796W        W25337  14.665  24.620  12.581
58797W        W25338   6.964  39.399   1.282
58798W        W25339  38.599  30.739   2.895
58799W        W25340   8.737   1.999   1.361
58800W        W25341  34.362  37.463  13.839
58801W        W25342  36.058  15.329   1.711
58802W        W25343   6.186   1.345   0.398
58803W        W25344   3.743   4.248   1.844
58804W        W25345  17.533  17.096  14.884
58805W        W25346  28.548   7.167  13.948
58806W        W25347  14.523  39.498  12.446
58807W        W25348  21.194   2.626   3.136
58808W        W25349   4.218  37.348  14.502
58809W        W25350  33.559  29.388  13.053
58810W        W25351  14.830  35.293   4.114
58811W        W25352  21.631   7.183   3.589
58812W        W25353  42.247   4.752  12.641
58813W        W25354  17.632  38.859   0.351
58814W        W25355  36.539  38.175   3.346
58815W        W25356  25.260  35.712  11.011
58816W        W25357  29.483  41.359  13.993
58817W        W25358  33.418  30.917  11.573
58818W        W25359  20.297  36.785   3.863
58819W        W25360  21.294   8.470   3.594
58820W        W25361  20.302  27.066   1.275
58821W        W25362   1.008   1.490   2.279
58822W        W25363  36.921  15.336  12.319
58823W        W25364  22.580  11.042   2.155
58824W        W25365   6.148   4.870   1.235
58825W        W25366   8.278  44.770   3.760
58826W        W25367   6.784  21.415   0.943
58827W        W25368  31.176  11.155   4.624
58828W        W25369  22.694  14.250   5.098
58829W        W25370  35.622   7.842  13.954
58830W        W25371  14.795  25.741   1.316
58831W        W25372  21.097  25.425   3.645
58832W        W25373   9.233  31.644   4.629
58833W        W25374  31.594  20.340  13.323
58834W        W25375  22.298   6.691   3.183
58835W        W25376  32.786  42.416   2.270
58836W        W25377  41.934   4.488   3.691
58837W        W25378  34.676   0.120  11.215
58838W        W25379  26.570  34.057  10.929
58839W        W25380   9.663  31.533   2.795
58840W        W25381  26.269  41.831   3.095
58841W        W25382  30.521  25.226  12.592
58842W        W25383  30.246  23.592  13.516
58843W        W25384   8.125  30.853   2.592
58844W        W25385  39.813  28.948   4.561
58845W        W25386  21.022  36.929  14.379
58846W        W25387  11.724   5.093   2.355
58847W        W25388  17.212  43.707  10.803
58848W        W25389  43.825  13.994   3.128
58849W        W25390  18.334  35.402   2.810
58850W        W25391  37.868   0.864   4.952
58851W        W25392  28.008   3.381   3.604
58852W        W25393  21.749  40.598  13.601
58853W        W25394  41.509   1.771   2.794
58854W        W25395  22.093  16.599   2.881
58855W        W25396  24.123  21.215   4.226
58856W        W25397  29.439  15.719  14.877
58857W        W25398  42.325  32.659  13.368
58858W        W25399  23.606  13.199   3.735
58859W        W25400  35.461   2.849   3.106
58860W        W25401  33.513  14.821  14.549
58861W        W25402  27.053  41.193  12.387
58862W        W25403   2.747  41.557  13.261
58863W        W25404   3.903  13.373  11.218
58864W        W25405   7.728   5.312   4.161
58865W        W25406   3.510   0.996  11.565
58866W        W25407  25.577   4.945  12.369
58867W        W25408  39.287  43.951   0.045
58868W        W25409   4.824  39.828  12.621
58869W        W25410   2.794  31.877   2.402
58870W        W25411  44.797   3.755  11.894
58871W        W25412  10.525  42.893   4.597
58872W        W25413  19.236   5.308  12.105
58873W        W25414  40.879  42.605  12.857
58874W        W25415   5.739  33.029   3.708
58875W        W25416  16.719  41.261  11.547
58876W        W25417   0.175  20.297  11.316
58877W        W25418  34.152  23.268   2.704
58878W        W25419  41.538  38.566  14.523
58879W        W25420  27.032  42.261  14.246
58880W        W25421   0.762  24.580  13.390
58881W        W25422   0.252  41.767  14.894
58882W        W25423  37.101  31.196   2.648
58883W        W25424  42.238  38.381  10.753
58884W        W25425  23.196  32.432  12.191
58885W        W25426   3.306  44.049   0.431
58886W        W25427   0.723  17.671  13.009
58887W        W25428  13.613  19.329   1.927
58888W        W25429  40.709  13.339  14.330
58889W        W25430  13.705   6.265   0.141
58890W        W25431  36.977  43.026  12.534
58891W        W25432  24.707  26.672  11.588
58892W        W25433  25.568  33.925   2.302
58893W        W25434  42.588  27.516   1.367
58894W        W25435  23.690   9.761   4.505
58895W        W25436  37.912  33.805   1.706
58896W        W25437  31.374   0.158  11.959
58897W        W25438  29.462  29.797  11.640
58898W        W25439  23.565  36.811  12.858
58899W        W25440  14.834  23.235   0.572
58900W        W25441  32.042   8.190   1.069
58901W        W25442  31.181  37.132   2.686
58902W        W25443  21.111  17.798   2.285
58903W        W25444  33.102  31.856  14.305
58904W        W25445  24.203  18.621   1.890
58905W        W25446  40.268   3.185  10.385
58906W        W25447  35.153  12.125   1.755
58907W        W25448   0.245   5.152   3.159
58908W        W25449   0.227   0.691  13.350
58909W        W25450  20.020  11.669  11.187
58910W        W25451  11.705  42.009   0.903
58911W        W25452  18.775  38.170  11.520
58912W        W25453  39.359   8.012   3.262
58913W        W25454  36.816  37.407   4.152
58914W        W25455  33.103  16.375  12.010
58915W        W25456   2.544  41.216  10.876
58916W        W25457  15.151  11.215  12.425
58917W        W25458  27.134  37.103  12.037
58918W        W25459   2.742   9.674  12.605
58919W        W25460  14.790  11.177  10.691
58920W        W25461  37.635  23.096  12.047
58921W        W25462  15.332  21.184   0.816
58922W        W25463  16.269  29.678  14.948
58923W        W25464  36.428  26.088  14.953
58924W        W25465  34.984  29.058  14.456
58925W        W25466  23.575  44.227   1.328
58926W        W25467  37.806  12.662   2.127
58927W        W25468  41.007  42.048  12.766
58928W        W25469  38.113  28.659   3.283
58929W        W25470  36.491  42.586   4.510
58930W        W25471   3.747  21.950  14.131
58931W        W25472  39.641  29.989   2.306
58932W        W25473   0.768  26.065  10.600
58933W        W25474  15.171  38.503  14.625
58934W        W25475   3.147  22.584  11.338
58935W        W25476  25.639  33.969   1.380
58936W        W25477   6.479   5.752   2.330
58937W        W25478  17.681  37.356  12.795
58938W        W25479  36.326  23.425  15.000
58939W        W25480  10.415  33.067   4.214
58940W        W25481  21.902  30.896  11.160
58941W        W25482  16.588  40.819  13.464
58942W        W25483  10.933   2.125  14.226
58943W        W25484   3.641  33.987   4.267
58944W        W25485  18.717   9.479   1.303
58945W        W25486  15.863  10.844  12.118
58946W        W25487  29.571  36.351   3.794
58947W        W25488  16.932   0.453  13.532
58948W        W25489  38.962  22.251   1.981
58949W        W25490  25.057  15.323   3.255
58950W        W25491   1.404  27.698  11.080
58951W        W25492  17.681   7.418   0.758
58952W        W25493  14.091  14.252   0.363
58953W        W25494  10.815  20.214  14.506
58954W        W25495  16.726  39.423  10.660
58955W        W25496  29.164  22.998  12.217
58956W        W25497  42.472  40.888   0.529
58957W        W25498   8.287  38.568   0.855
58958W        W25499  23.266   9.342  14.908
58959W        W25500  34.562   6.848  12.853
58960W        W25501   1.342  30.608  14.989
58961W        W25502  42.770   9.541  12.086
58962W        W25503  27.013  11.268   1.021
58963W        W25504   0.815  24.945   2.198
58964W        W25505   4.774  36.614  14.734
58965W        W25506  38.333  31.623   0.134
58966W        W25507  22.910  21.436   0.452
58967W        W25508  33.357  24.997  12.411
58968W        W25509  15.803  13.679  14.576
58969W        W25510  24.761   9.940  12.618
58970W        W25511   5.540  44.398  11.162
58971W        W25512  34.849  19.822  12.384
58972W        W25513  25.412  24.581   2.766
58973W        W25514  35.429  13.750   0.222
58974W        W25515  32.058  11.622   5.333
58975W        W25516  37.261  30.834   5.019
58976W        W25517  25.167  26.043  11.200
58977W        W25518  29.617   9.878  12.166
58978W        W25519  32.984  22.994   2.242
58979W        W25520  17.813  31.084   0.588
58980W        W25521  20.355  18.887  14.874
58981W        W25522  44.156   0.356  14.916
58982W        W25523  18.107   2.699  11.141
58983W        W25524  18.525  17.307   4.866
58984W        W25525  35.418  29.650  14.876
58985W        W25526  10.290  35.747  13.455
58986W        W25527  21.194  12.034   0.936
58987W        W25528  26.791  19.550  12.597
58988W        W25529  39.545  29.138  12.966
58989W        W25530  20.259   5.280   5.390
58990W        W25531  35.645   2.170  12.233
58991W        W25532  18.666  29.403  14.787
58992W        W25533   9.524  28.866   5.312
58993W        W25534   9.800  29.438  10.562
58994W        W25535  26.297  13.625  12.460
58995W        W25536   5.679  33.589  12.397
58996W        W25537  24.714  15.814   0.263
58997W        W25538  19.733  24.960   0.717
58998W        W25539  29.581   7.722  12.542
58999W        W25540   3.283  20.967   3.823
59000W        W25541  32.056  32.415  11.605
59001W        W25542  28.883  33.677   1.827
59002W        W25543  34.481  37.101  13.496
59003W        W25544   8.205  39.042   1.107
59004W        W25545  10.683  38.515  11.134
59005W        W25546  42.754  23.491   4.214
59006W        W25547  13.232   7.827   1.676
59007W        W25548   6.480  25.033  13.981
59008W        W25549  11.777  26.734  11.191
59009W        W25550  42.772  25.621   2.160
59010W        W25551  22.765  10.896  12.601
59011W        W25552   5.050  14.323   2.737
59012W        W25553  25.997  19.699  14.517
59013W        W25554   8.620  37.426   2.243
59014W        W25555  40.378  35.937  14.839
59015W        W25556  17.782  10.438  14.684
59016W        W25557   1.049  26.479  13.081
59017W        W25558  43.935  17.114   4.549
59018W        W25559   3.805  32.448  13.143
59019W        W25560  37.574  42.003   4.207
59020W        W25561   6.690   4.431   1.869
59021W        W25562  37.062  33.876   0.442
59022W        W25563  33.014  27.385   1.316
59023W        W25564  11.661  19.809  13.922
59024W        W25565  19.741  26.365   1.434
59025W        W25566  12.542  35.947   0.530
59026W        W25567  30.012  31.079  12.990
59027W        W25568  19.715  24.594   2.240
59028W        W25569   3.851  27.858  14.983
59029W        W25570  25.279   5.773   3.097
59030W        W25571   2.237  23.791   4.940
59031W        W25572   1.817  18.774   3.543
59032W        W25573  41.031  30.524   4.204
59033W        W25574  35.130  18.849  10.531
59034W        W25575  18.126  18.672  14.789
59035W        W25576   1.325  21.530   0.870
59036W        W25577  35.672  35.258   4.088
59037W        W25578  14.535  42.021   2.336
59038W        W25579   0.641  28.651   2.536
59039W        W25580  37.417  26.972   1.993
59040W        W25581  35.290   9.154  13.371
59041W        W25582   1.681   6.929  13.917
59042W        W25583   9.252  24.999   1.549
59043W        W25584  35.293   2.255   3.343
59044W        W25585  37.373  35.154   4.611
59045W        W25586  16.800  20.257   2.465
59046W        W25587  19.708  41.325   4.610
59047W        W25588  20.692  38.523  13.015
59048W        W25589  43.310  38.519   0.319
59049W        W25590  22.075  32.751  13.225
59050W        W25591  21.217  31.523   0.800
59051W        W25592   5.630  21.622   4.520
59052W        W25593  24.718  16.230  10.593
59053W        W25594   7.293   6.697   4.341
59054W        W25595  18.809   6.645  12.398
59055W        W25596  27.490  38.224  12.739
59056W        W25597  15.822  13.732  14.013
59057W        W25598  29.976  12.775   0.198
59058W        W25599  16.766   0.006   2.265
59059W        W25600  15.287   0.462   0.818
59060W        W25601  26.530   5.344   0.915
59061W        W25602  41.955   2.781   4.868
59062W        W25603  17.819  17.744  12.244
59063W        W25604  14.511   6.068  11.150
59064W        W25605  12.922   0.384   0.484
59065W        W25606   8.755  26.970   3.087
59066W        W25607  26.087  15.072  14.320
59067W        W25608  23.504  19.316  13.546
59068W        W25609  26.281  15.282  11.696
59069W        W25610  10.894  17.085  10.621
59070W        W25611   5.137  28.479  11.482
59071W        W25612  37.754  16.100   0.821
59072W        W25613  11.488   1.247  13.516
59073W        W25614  35.878   3.476   3.198
59074W        W25615   8.741  39.332  14.842
59075W        W25616  29.532  17.092   1.675
59076W        W25617  21.687  18.727  11.142
59077W        W25618  27.108  35.326  11.714
59078W        W25619  11.109  31.085   1.064
59079W        W25620  24.446   6.779  14.524
59080W        W25621   0.556   4.817  12.176
59081W        W25622  18.916  37.601   0.967
59082W        W25623   3.289  34.010   2.414
59083W        W25624  30.160   5.732   4.451
59084W        W25625   1.355  37.233  12.461
59085W        W25626  10.421   1.173   3.804
59086W        W25627  15.145  20.102   0.070
59087W        W25628  33.490  36.238   4.813
59088W        W25629  15.638  40.055   5.241
59089W        W25630  23.001  32.302  12.672
59090W        W25631  36.579  40.433  12.422
59091W        W25632  36.289   4.842  13.697
59092W        W25633  15.944  17.162  11.644
59093W        W25634  42.531  26.493   3.296
59094W        W25635  24.422  43.086  13.443
59095W        W25636   4.654  33.008   1.054
59096W        W25637  17.734  42.873   1.149
59097W        W25638  33.394  19.727   3.128
59098W        W25639  12.997  38.122   5.059
59099W        W25640   7.663  25.680  12.575
59100W        W25641  35.900  15.609   4.590
59101W        W25642  11.124  17.092  12.617
59102W        W25643  12.834   9.623  10.736
59103W        W25644  16.508  37.426  14.062
59104W        W25645  35.633  43.779   1.439
59105W        W25646  26.993  41.976   0.481
59106W        W25647  39.921   4.755   1.963
59107W        W25648  19.756  17.064  13.566
59108W        W25649  20.152  15.105  14.547
59109W        W25650  36.491  39.532  12.531
59110W        W25651  34.154  29.700   0.362
59111W        W25652  37.585  37.354  14.958
59112W        W25653  34.430   2.395   3.443
59113W        W25654   6.378   8.096  12.179
59114W        W25655  10.732   9.294  12.136
59115W        W25656  15.056  14.547  11.044
59116W        W25657  41.955  41.815  14.533
59117W        W25658  30.717  20.608   1.141
59118W        W25659  11.739  10.704   3.253
59119W        W25660  30.578  34.144   1.826
59120W        W25661   7.768  25.607  11.363
59121W        W25662  26.208  12.738  11.566
59122W        W25663   5.044  41.729   4.936
59123W        W25664  36.916  28.407   2.638
59124W        W25665  37.770  10.946   0.949
59125W        W25666   1.672  29.635   3.245
59126W        W25667  21.655   7.211  14.316
59127W        W25668  18.238  11.860  13.363
59128W        W25669  39.370  30.650  11.431
59129W        W25670  43.659  36.384  10.916
59130W        W25671  32.546  42.560  14.483
59131W        W25672  39.107  42.010  14.396
59132W        W25673  13.645  29.444   0.308
59133W        W25674  31.958   0.550  14.819
59134W        W25675  21.754  18.214  11.059
59135W        W25676   8.885  23.756  12.824
59136W        W25677  39.349  14.807  13.443
59137W        W25678  18.348  36.151   0.396
59138W        W25679  34.333  43.983   0.487
59139W        W25680  19.645  30.956  10.810
59140W        W25681  26.847  39.381   2.614
59141W        W25682  44.737   9.433   1.849
59142W        W25683  33.483  21.793   4.929
59143W        W25684   7.356  25.360  10.123
59144W        W25685  11.124  34.992  14.816
59145W        W25686  21.073  25.611   0.247
59146W        W25687  21.014   3.739  14.742
59147W        W25688  35.678  34.934   0.530
59148W        W25689  22.503  31.136  12.169
59149W        W25690  38.591  42.538   1.811
59150W        W25691  12.316  22.697   4.354
59151W        W25692  39.301  40.767   2.774
59152W        W25693  30.188  29.173  10.903
59153W        W25694  11.715  12.210   0.791
59154W        W25695   3.262  27.652   3.870
59155W        W25696  40.524  41.833  13.468
59156W        W25697  41.583  39.280   1.937
59157W        W25698  41.126  32.137   4.103
59158W        W25699  15.852  38.038   0.697
59159W        W25700  31.189  14.362   0.846
59160W        W25701  40.326  35.344   0.937
59161W        W25702  42.518  28.531   3.378
59162W        W25703  11.764  21.269   3.106
59163W        W25704  33.829  43.530  13.926
59164W        W25705  27.147  19.089  12.030
59165W        W25706  37.326   1.783   0.300
59166W        W25707   4.934  43.415   4.743
59167W        W25708  30.887  32.529  12.401
59168W        W25709  11.819  20.587   0.306
59169W        W25710  23.232  20.794   1.789
59170W        W25711   0.233   6.267  13.147
59171W        W25712   8.929  40.749  13.494
59172W        W25713  42.010  28.106  12.036
59173W        W25714  37.131  13.157   2.378
59174W        W25715  33.947  18.600   1.005
59175W        W25716  23.809  23.954  11.589
59176W        W25717  35.388   6.205   2.223
59177W        W25718  16.061  35.967   1.496
59178W        W25719  24.978  39.362   3.683
59179W        W25720   0.993   1.220  10.865
59180W        W25721  30.861  28.481   2.773
59181W        W25722   2.152  11.192  14.931
59182W        W25723  34.645   5.250   4.428
59183W        W25724  31.028   6.332  13.749
59184W        W25725  11.194  31.498  13.329
59185W        W25726  21.705  13.243  14.772
59186W        W25727  19.746   4.430  10.376
59187W        W25728  37.509   2.834   2.091
59188W        W25729  27.184   3.345  14.492
59189W        W25730   3.171   8.595  14.229
59190W        W25731  20.578   9.280   3.696
59191W        W25732   1.482   5.713   1.797
59192W        W25733   4.548   4.016   4.611
59193W        W25734  26.755  41.488  12.773
59194W        W25735  21.033  10.697   1.988
59195W        W25736  12.872  36.379   2.607
59196W        W25737  27.556  42.803   1.284
59197W        W25738  26.329  33.794   0.935
59198W        W25739  17.198  20.766   2.731
59199W        W25740   0.691  22.683   2.720
59200W        W25741  28.606   3.718  13.587
59201W        W25742  29.152  34.744   4.571
59202W        W25743  43.019  34.182   4.827
59203W        W25744  40.376   5.967  10.191
59204W        W25745  34.436  42.342   4.386
59205W        W25746  28.110  20.358   3.952
59206W        W25747  15.652  18.446   1.237
59207W        W25748   7.310  19.727  14.029
59208W        W25749  18.964  12.195   3.700
59209W        W25750  29.168  31.207   3.728
59210W        W25751  20.516  13.110  14.371
59211W        W25752  42.965  18.738  10.802
59212W        W25753  39.127  40.540   4.220
59213W        W25754  10.363  13.606  14.347
59214W        W25755   7.276   8.796  12.513
59215W        W25756  18.093  21.456   0.825
59216W        W25757   1.947  12.161   4.780
59217W        W25758   2.738  36.066   4.372
59218W        W25759  39.394   3.936   0.463
59219W        W25760  11.039  15.759   0.278
59220W        W25761  11.335  32.929   3.187
59221W        W25762  23.211  28.022   0.292
59222W        W25763  44.338  36.642  14.297
59223W        W25764  17.710  28.438  13.928
59224W        W25765   0.041  27.948   2.800
59225W        W25766  35.078  42.339  14.866
59226W        W25767  38.238   9.485  14.503
59227W        W25768  37.241  41.422  14.116
59228W        W25769  43.764   2.920   3.331
59229W        W25770  40.451   2.355   1.031
59230W        W25771   8.152  34.445   4.315
59231W        W25772  30.677  26.999  14.450
59232W        W25773   2.723  21.530   3.591
59233W        W25774  33.903  12.081  11.625
59234W        W25775  44.919  12.744   2.106
59235W        W25776  40.905  37.575  12.128
59236W        W25777  40.304   3.403   0.492
59237W        W25778  18.128  41.028   4.111
59238W        W25779   9.489  42.733   4.739
59239W        W25780  16.200  40.525  13.276
59240W        W25781  38.261  31.016   4.893
59241W        W25782  26.709  35.838  12.481
59242W        W25783  20.267   7.877   0.523
59243W        W25784  20.076   1.832  12.108
59244W        W25785  40.091  40.082  12.947
59245W        W25786   0.272  18.375   2.894
59246W        W25787  29.066  43.936  11.368
59247W        W25788  43.988   1.869  13.940
59248W        W25789   1.408  23.087   2.260
59249W        W25790  32.234  26.955  10.715
59250W        W25791   1.191  34.950  12.426
59251W        W25792   5.852  33.891  13.810
59252W        W25793  39.744  37.963  11.062
59253W        W25794   4.684  31.955  13.437
59254W        W25795   2.247  15.974   4.053
59255W        W25796  23.776  34.159  13.020
59256W        W25797   7.587  18.109   4.487
59257W        W25798  26.950   0.692  14.688
59258W        W25799  15.138  17.400  14.910
59259W        W25800   7.262  11.643   0.967
59260W        W25801  20.308  13.201   2.052
59261W        W25802   1.636   1.927   0.852
59262W        W25803  42.014  10.614  11.090
59263W        W25804  15.245  17.539   2.922
59264W        W25805  43.896  25.230   4.723
59265W        W25806  37.629  42.033   0.309
59266W        W25807  18.075  22.927  14.831
59267W        W25808  34.512  30.782  12.061
59268W        W25809  36.302  13.726  13.394
59269W        W25810  38.643   9.247   3.557
59270W        W25811  14.786  32.236   2.745
59271W        W25812  13.930   2.298   0.839
59272W        W25813   3.289  30.395   1.799
59273W        W25814   7.841  31.971  12.488
59274W        W25815  17.548  22.918  12.492
59275W        W25816   9.613  26.059  12.984
59276W        W25817  43.335  19.138   2.937
59277W        W25818  39.456   3.225  11.036
59278W        W25819  21.535  40.306   2.773
59279W        W25820  10.878   3.450   2.085
59280W        W25821  19.090   3.046   0.396
59281W        W25822  18.588  30.010   1.156
59282W        W25823   0.860   8.696  13.117
59283W        W25824   4.378  13.472  14.248
59284W        W25825  24.271   2.964   4.280
59285W        W25826  12.360  33.012   0.973
59286W        W25827  19.385   0.501   4.164
59287W        W25828   1.272  39.030   4.900
59288W        W25829   0.671   6.950   2.747
59289W        W25830   5.536  26.184  14.564
59290W        W25831  31.796  44.331  13.060
59291W        W25832  31.882   5.755  11.691
59292W        W25833  35.073   9.892   0.919
59293W        W25834   7.323  37.340  10.296
59294W        W25835  40.924  40.976  11.208
59295W        W25836  21.124  41.749  14.450
59296W        W25837  43.982  16.214   4.496
59297W        W25838  44.406   3.089   0.517
59298W        W25839  31.038  23.104  13.453
59299W        W25840  12.858  26.063  14.135
59300W        W25841  39.457  37.533   3.208
59301W        W25842  44.022  44.905   2.655
59302W        W25843  39.500  36.896   3.823
59303W        W25844  38.353  44.801   3.402
59304W        W25845  12.170  30.140  14.488
59305W        W25846  11.734  20.504  11.210
59306W        W25847   0.400  34.403   2.635
59307W        W25848  21.762  43.264  13.024
59308W        W25849  11.115  35.877   2.790
59309W        W25850  20.295  44.131   3.303
59310W        W25851  25.227   0.124  11.123
59311W        W25852  24.004   8.092   9.953
59312W        W25853  22.525  43.057   1.299
59313W        W25854  20.663  43.271  11.662
59314W        W25855   9.367  41.243  11.197
59315W        W25856  23.004  43.738  11.221
59316W        W25857  14.871  38.075   3.630
59317W        W25858  36.357   1.991  13.416
59318W        W25859  24.007  31.422   2.624
59319W        W25860   5.656  17.124   0.675
59320W        W25861  40.700  10.423  10.781
59321W        W25862  21.055  14.802  14.394
59322W        W25863   8.914   1.278  13.587
59323W        W25864  24.894   8.087   3.325
59324W        W25865  37.303  33.331   2.371
59325W        W25866   0.469  39.641  13.001
59326W        W25867   1.292  25.828   5.285
59327W        W25868  42.053  11.630  12.960
59328W        W25869  10.661   3.918  14.887
59329W        W25870  33.023  33.120   2.492
59330W        W25871  12.817  13.751   0.461
59331W        W25872  37.105  33.019  12.592
59332W        W25873   3.716  44.475  13.429
59333W        W25874  13.668  11.227  14.416
59334W        W25875  12.737   6.815   1.229
59335W        W25876  39.325   4.642  14.759
59336W        W25877  33.978  44.403   1.248
59337W        W25878  39.882  12.636  12.016
59338W        W25879  23.339  13.835   2.648
59339W        W25880   2.438   3.022   3.569
59340W        W25881  38.265  32.812   4.349
59341W        W25882  29.898  23.672   2.752
59342W        W25883  13.591   0.417  13.821
59343W        W25884  33.194  41.040  12.445
59344W        W25885  37.354  37.885  13.328
59345W        W25886   7.659  30.505   1.874
59346W        W25887  22.461   1.532   3.203
59347W        W25888  38.621  26.207   1.909
59348W        W25889  10.895  11.732   0.832
59349W        W25890  37.050  30.226  12.945
59350W        W25891  34.492  24.788  14.578
59351W        W25892  44.100  14.826  13.865
59352W        W25893  23.641  12.830  13.053
59353W        W25894   8.659  16.104   1.901
59354W        W25895  33.969  29.189   3.290
59355W        W25896  11.990  24.195   3.499
59356W        W25897  30.141  12.328  13.324
59357W        W25898   1.004  12.509   0.369
59358W        W25899  15.679  31.819  12.465
59359W        W25900  23.691  42.354   0.382
59360W        W25901  22.722  38.415  10.603
59361W        W25902   0.150  30.938  10.266
59362W        W25903  43.294  13.105  13.921
59363W        W25904   0.741   4.261  14.927
59364W        W25905  28.250   6.312  14.722
59365W        W25906  17.121  30.477   3.733
59366W        W25907  26.716   6.701  13.902
59367W        W25908  42.969  21.758   4.654
59368W        W25909   3.968  26.549   4.564
59369W        W25910  13.958  34.394   4.791
59370W        W25911  32.445  42.413  13.322
59371W        W25912  26.387  17.166  12.094
59372W        W25913  35.704  23.106  12.618
59373W        W25914  43.593  14.102   0.696
59374W        W25915  23.432  24.223   1.310
59375W        W25916   0.886  13.531   0.318
59376W        W25917   9.237  32.411  13.376
59377W        W25918  44.089  32.543   0.231
59378W        W25919  26.303   1.791  12.907
59379W        W25920   3.384  27.809  11.652
59380W        W25921  14.187  22.963   2.799
59381W        W25922   9.232  34.423  14.036
59382W        W25923  26.440  12.347   0.177
59383W        W25924  40.280  23.957   2.246
59384W        W25925  12.905   3.459   1.003
59385W        W25926   9.284  22.060   4.040
59386W        W25927  22.587   4.282  12.940
59387W        W25928  26.535  43.091   5.312
59388W        W25929  12.595  29.469   0.310
59389W        W25930  22.001  10.283   2.158
59390W        W25931  30.024  44.760   0.386
59391W        W25932   0.003  17.820  12.456
59392W        W25933   8.220  44.671   2.773
59393W        W25934  37.066  40.405   0.790
59394W        W25935  35.758  32.339  12.031
59395W        W25936  30.461   0.665  14.069
59396W        W25937   7.615   4.956   1.227
59397W        W25938  24.462  28.463   3.418
59398W        W25939  18.836  44.733  11.593
59399W        W25940  10.196   3.705  14.816
59400W        W25941  15.276  32.635  12.419
59401W        W25942  36.853  32.862  11.140
59402W        W25943  42.114  20.620   2.917
59403W        W25944  11.237   2.828  10.733
59404W        W25945  41.475   8.133  12.134
59405W        W25946   0.400  14.112  13.938
59406W        W25947  29.696  30.456   3.609
59407W        W25948  37.416   9.282   0.207
59408W        W25949  38.061   1.826  14.054
59409W        W25950  33.201  32.018   1.288
59410W        W25951   8.350  29.260  13.297
59411W        W25952  20.437  11.241   3.166
59412W        W25953  10.614  17.678  12.633
59413W        W25954   6.036   0.825   2.183
59414W        W25955  32.575   1.167   4.468
59415W        W25956  29.547  35.480  14.346
59416W        W25957  16.221   5.936   0.944
59417W        W25958  40.038  23.960   0.894
59418W        W25959  18.143  17.219  13.235
59419W        W25960  44.562   0.213  13.488
59420W        W25961   0.244  19.038   1.722
59421W        W25962  39.285  17.209  13.776
59422W        W25963   5.195   7.802  13.491
59423W        W25964  25.712  24.450   3.168
59424W        W25965  10.100  40.339  12.944
59425W        W25966  24.758  27.133   2.233
59426W        W25967  25.210  40.111  14.508
59427W        W25968   3.744  26.279   3.162
59428W        W25969  41.388  33.533  12.438
59429W        W25970  12.424  37.675  12.421
59430W        W25971  15.763  35.650  12.062
59431W        W25972  24.555  37.014  12.170
59432W        W25973  23.801  35.766  12.874
59433W        W25974  42.546  34.467   0.257
59434W        W25975   2.411  27.172  14.304
59435W        W25976  18.979  40.797   1.008
59436W        W25977  18.390  39.457  13.899
59437W        W25978  28.108  43.347  13.971
59438W        W25979  32.372  10.322   4.475
59439W        W25980   9.960   6.680  11.184
59440W        W25981   7.698  25.661   2.118
59441W        W25982   9.067  24.157  12.484
59442W        W25983  38.658  20.015  14.305
59443W        W25984  21.105   7.365   2.233
59444W        W25985  28.944  20.088   2.776
59445W        W25986  20.639  33.293   4.594
59446W        W25987  11.269  17.213  13.103
59447W        W25988  32.572   4.727   0.834
59448W        W25989   9.460  27.548   2.071
59449W        W25990  23.084  19.478  11.183
59450W        W25991  38.356   6.215   0.879
59451W        W25992  10.641  39.603  11.540
59452W        W25993  43.889   2.867  13.069
59453W        W25994   6.772  44.006  14.843
59454W        W25995  39.099  11.191  14.627
59455W        W25996  21.470  19.348   1.397
59456W        W25997   6.677  27.340  10.632
59457W        W25998   2.396  44.804  12.043
59458W        W25999  20.701   3.814  11.632
59459W        W26000  25.391   2.657  13.398
59460W        W26001   9.218   4.394  14.554
59461W        W26002  13.193  37.018   2.784
59462W        W26003  26.182   8.816   4.346
59463W        W26004   2.519  35.514   3.301
59464W        W26005  27.657   9.740   4.635
59465W        W26006  27.366  36.526   1.772
59466W        W26007  18.795   6.937  11.397
59467W        W26008  27.249  33.301  10.678
59468W        W26009  16.739  21.451  12.065
59469W        W26010   0.296  22.549  14.911
59470W        W26011   3.206  13.846  13.494
59471W        W26012  43.402  25.790   4.140
59472W        W26013   8.038   0.060   5.009
59473W        W26014  11.354  23.593  14.334
59474W        W26015   4.718  18.080  14.030
59475W        W26016  29.919  16.306   3.704
59476W        W26017  33.508  21.007  11.209
59477W        W26018  38.447  29.243  11.703
59478W        W26019  44.874  42.921  10.727
59479W        W26020   2.404  19.351   4.510
59480W        W26021  27.027  21.626   1.934
59481W        W26022  40.008  32.701   3.571
59482W        W26023  26.425  21.632  14.455
59483W        W26024  23.246  18.608   1.952
59484W        W26025  40.798  36.019   2.391
59485W        W26026  18.539  27.873   3.663
59486W        W26027  17.479  22.426  12.583
59487W        W26028  43.456   1.043   2.411
59488W        W26029  13.244  35.481  11.423
59489W        W26030  35.010   6.451   1.481
59490W        W26031  16.624  42.465  12.862
59491W        W26032  33.770  18.110   3.296
59492W        W26033  14.658  23.926  10.604
59493W        W26034  26.209   9.239  12.143
59494W        W26035  15.524  31.174   4.133
59495W        W26036  23.203  22.495  14.994
59496W        W26037  25.295  24.627   4.143
59497W        W26038  33.670  19.077   0.917
59498W        W26039   2.372  39.889  10.307
59499W        W26040  38.135  11.937   3.789
59500W        W26041   2.298  16.602  14.311
59501W        W26042  16.823  30.456  12.034
59502W        W26043  17.786  17.845   3.613
59503W        W26044  21.655   6.794   0.252
59504W        W26045  27.885  12.357   0.744
59505W        W26046  43.235   5.215  14.800
59506W        W26047  26.026   0.805  12.043
59507W        W26048  44.590  44.274   5.519
59508W        W26049  35.925   1.597   9.850
59509W        W26050  11.363  32.244  10.714
59510W        W26051   7.401  26.057   1.905
59511W        W26052   6.678  30.354   1.939
59512W        W26053   7.685   2.434  10.665
59513W        W26054   8.947  19.380   3.326
59514W        W26055  43.279  13.639  14.799
59515W        W26056  23.021   3.919   1.032
59516W        W26057   4.691   5.210  14.547
59517W        W26058  44.834  34.581  13.015
59518W        W26059   9.196   0.934   0.893
59519W        W26060  15.076  17.318  12.096
59520W        W26061  32.180  16.579   1.905
59521W        W26062   2.234  17.306   3.591
59522W        W26063  24.584  40.303   0.344
59523W        W26064  22.467   4.847   4.004
59524W        W26065   3.963  16.143  13.793
59525W        W26066  36.420  21.792   3.179
59526W        W26067   7.081  35.276   3.878
59527W        W26068  32.018  40.760  13.863
59528W        W26069  20.126   8.649   1.146
59529W        W26070   2.676  21.414  11.594
59530W        W26071  11.350  28.891   0.403
59531W        W26072  30.042   1.726  14.310
59532W        W26073   8.508  28.031  14.550
59533W        W26074  15.844  23.039   4.583
59534W        W26075   2.477  22.916   3.966
59535W        W26076   8.433  40.829  10.354
59536W        W26077  12.451  12.856   0.438
59537W        W26078  13.363  21.060  12.034
59538W        W26079  28.141  11.113   3.305
59539W        W26080  26.400  11.143   4.267
59540W        W26081  28.103  22.174  13.091
59541W        W26082   1.348  19.747   3.843
59542W        W26083  19.591   9.281   5.062
59543W        W26084  15.543  40.993  13.584
59544W        W26085   0.082   8.679   4.545
59545W        W26086  41.230  44.750   4.747
59546W        W26087  27.090  41.479   1.346
59547W        W26088  36.555  10.166  12.597
59548W        W26089  10.933  12.156   3.620
59549W        W26090   8.357  20.419   2.808
59550W        W26091   3.340  36.904  11.601
59551W        W26092  32.737  11.933   2.820
59552W        W26093  15.316  40.577  13.872
59553W        W26094  19.628  13.037  11.132
59554W        W26095  15.577  36.826  12.476
59555W        W26096  18.993  14.399   4.464
59556W        W26097  14.641  26.445   2.764
59557W        W26098  33.364   2.159  13.675
59558W        W26099  13.404  26.952  12.073
59559W        W26100   2.270  23.000  13.456
59560W        W26101  18.558  16.929   4.459
59561W        W26102  13.113  25.162  14.563
59562W        W26103  22.645  23.761  11.085
59563W        W26104  26.887  19.250  13.932
59564W        W26105   2.669  25.481   1.665
59565W        W26106  39.318  32.279   1.439
59566W        W26107  44.271  24.765  11.139
59567W        W26108   3.819  44.279   2.191
59568W        W26109  36.072  22.068   1.893
59569W        W26110  17.678  19.533  10.639
59570W        W26111  13.539   4.604  12.975
59571W        W26112  40.073  42.784  14.290
59572W        W26113  19.992  36.476  14.763
59573W        W26114  29.294  30.232  11.935
59574W        W26115   3.889   3.897  11.451
59575W        W26116  22.548  38.315  11.685
59576W        W26117  18.246  35.058  11.632
59577W        W26118  43.827  11.183   3.271
59578W        W26119   6.704   4.177   2.581
59579W        W26120  38.925  27.481  10.412
59580W        W26121  23.643  40.347   0.387
59581W        W26122   3.433  17.270  11.067
59582W        W26123  28.028  36.331  10.684
59583W        W26124  42.409   6.682   3.277
59584W        W26125  41.658  26.103  14.928
59585W        W26126  43.565  18.801  13.058
59586W        W26127  22.708  13.584  11.565
59587W        W26128  35.859  18.832  14.883
59588W        W26129  13.770  25.172   0.762
59589W        W26130  17.628  40.942  11.827
59590W        W26131   1.806  14.245  14.295
59591W        W26132  20.165  10.020  14.310
59592W        W26133  38.463   3.952   4.286
59593W        W26134  23.747  16.786  10.662
59594W        W26135  29.007  39.477  12.109
59595W        W26136  17.073  33.979  14.799
59596W        W26137  14.310   7.853  14.734
59597W        W26138  12.576  38.034   1.727
59598W        W26139  43.533  32.595  14.001
59599W        W26140  41.832  20.808   2.213
59600W        W26141  42.385  33.450   3.657
59601W        W26142   5.988  32.585   3.587
59602W        W26143  22.538  35.631  10.530
59603W        W26144  33.341  40.793   0.981
59604W        W26145  43.943   0.679   4.892
59605W        W26146  19.265   5.092   4.078
59606W        W26147  23.596  44.311  12.476
59607W        W26148  31.273  25.114   4.333
59608W        W26149   4.681   6.118  14.596
59609W        W26150  12.859  20.212   0.909
59610W        W26151  17.655  16.013   2.760
59611W        W26152  11.115  19.555   0.800
59612W        W26153   3.953  28.145   9.999
59613W        W26154   4.207  11.938   0.361
59614W        W26155  32.203  20.720  13.567
59615W        W26156  39.713  16.233   0.796
59616W        W26157   9.399  23.632  14.628
59617W        W26158  11.932  16.445  14.750
59618W        W26159  14.506   2.244   4.165
59619W        W26160  17.219  36.362   1.821
59620W        W26161  26.676  14.438  10.705
59621W        W26162  34.598   4.314   9.752
59622W        W26163   1.072  24.006  14.555
59623W        W26164  41.478   0.732   5.136
59624W        W26165  33.157  24.708   2.647
59625W        W26166  14.790  17.016  14.972
59626W        W26167  20.582  10.859  11.965
59627W        W26168  28.722   6.233   1.270
59628W        W26169  25.031  14.067  11.226
59629W        W26170  41.806   3.333  10.658
59630W        W26171   3.780  18.184  13.886
59631W        W26172  42.890  15.108   1.735
59632W        W26173  22.583  27.721  14.574
59633W        W26174  16.369  19.081   0.096
59634W        W26175  40.387  17.036  10.495
59635W        W26176   5.488  18.768   2.170
59636W        W26177  37.097   0.713   3.072
59637W        W26178  39.907   2.168   0.325
59638W        W26179   5.007  26.451  14.532
59639W        W26180   2.917  42.849   4.278
59640W        W26181  26.470  39.834   4.163
59641W        W26182  39.830  35.526  11.689
59642W        W26183  39.583   1.365  12.016
59643W        W26184  25.235  19.319   1.236
59644W        W26185  21.605  32.528  13.018
59645W        W26186  27.679  31.091   1.275
59646W        W26187  40.772  36.645  13.159
59647W        W26188  11.619  22.366  11.463
59648W        W26189  36.424  11.979   0.290
59649W        W26190  32.894  16.278  10.768
59650W        W26191  32.442  41.140  14.540
59651W        W26192  11.464  36.914   0.519
59652W        W26193  15.386   9.677  10.708
59653W        W26194   9.730  12.385  11.811
59654W        W26195  10.950  41.405  12.911
59655W        W26196  41.032   8.044  13.518
59656W        W26197  11.970  36.484   3.008
59657W        W26198  38.828  15.338  10.091
59658W        W26199  34.938  20.151   2.491
59659W        W26200   9.577   0.210  12.059
59660W        W26201  38.345  22.238   1.358
59661W        W26202  36.648   8.369   3.101
59662W        W26203  10.883  28.197  13.869
59663W        W26204  42.053   7.144  13.788
59664W        W26205   0.204   8.610  14.272
59665W        W26206  29.290  11.227  13.019
59666W        W26207  17.978  31.163  12.494
59667W        W26208   9.759  12.913   3.745
59668W        W26209   2.196  25.444   2.212
59669W        W26210   1.340  35.992   3.899
59670W        W26211  32.967  15.751  13.086
59671W        W26212  31.010  44.721   3.844
59672W        W26213  36.981  20.265  13.044
59673W        W26214  14.652  22.544  10.676
59674W        W26215   9.284   1.785  10.799
59675W        W26216  27.214  31.961  12.025
59676W        W26217   9.062  37.086  11.157
59677W        W26218  42.326  42.101  12.999
59678W        W26219   6.213  29.188  14.893
59679W        W26220  16.968   1.259  14.553
59680W        W26221   1.492  20.669   1.430
59681W        W26222  42.152  41.936  14.022
59682W        W26223  21.806   3.369   2.358
59683W        W26224  17.834   1.285  10.582
59684W        W26225   4.277  10.233  10.481
59685W        W26226  34.889  32.918   2.421
59686W        W26227  11.875  31.505  12.144
59687W        W26228  30.847  19.901   4.174
59688W        W26229  14.235  29.717  11.599
59689W        W26230  24.624  27.171  12.408
59690W        W26231  11.644  40.466   1.733
59691W        W26232  18.104  42.083  14.275
59692W        W26233  14.765  40.447  13.490
59693W        W26234  17.487  39.763  12.571
59694W        W26235  30.292  30.610  10.800
59695W        W26236   4.323  29.099  11.953
59696W        W26237  27.814  12.153   4.049
59697W        W26238  30.433  16.719   1.372
59698W        W26239  18.144  39.445  14.362
59699W        W26240  19.019  27.464   2.129
59700W        W26241  25.612  35.235   3.001
59701W        W26242  28.645  22.001  12.960
59702W        W26243  16.363   8.710  13.386
59703W        W26244   4.977  10.927  13.057
59704W        W26245  30.540  26.547  12.112
59705W        W26246  43.810  12.880  11.895
59706W        W26247  42.478   7.142   2.331
59707W        W26248  15.101  13.828   2.400
59708W        W26249  29.347  27.948  11.900
59709W        W26250  37.818  37.992   0.640
59710W        W26251  25.495  14.838  13.346
59711W        W26252   6.379  27.982  14.761
59712W        W26253  39.968  31.541   1.529
59713W        W26254   7.451  12.033   0.641
59714W        W26255  41.134  24.049  11.088
59715W        W26256  14.387  10.443  14.251
59716W        W26257  27.639  22.247   4.796
59717W        W26258  16.745  12.698   4.134
59718W        W26259  35.088   2.965   1.002
59719W        W26260  14.070  21.160  14.285
59720W        W26261  18.254   7.695  13.359
59721W        W26262  15.721   4.420   4.019
59722W        W26263  31.977  39.375   3.890
59723W        W26264   7.722   2.061  11.950
59724W        W26265   8.880   2.252   1.795
59725W        W26266  21.037   9.900  11.212
59726W        W26267  25.919  20.964  11.911
59727W        W26268   5.359  30.080   3.183
59728W        W26269   5.615  41.733  13.915
59729W        W26270  29.469   6.562   3.239
59730W        W26271   4.320  20.038  11.582
59731W        W26272  42.045  17.249  10.729
59732W        W26273  42.520  38.179  11.148
59733W        W26274  25.539  12.850   4.233
59734W        W26275   0.266  22.710  11.439
59735W        W26276  19.662  30.467   4.186
59736W        W26277  34.546   8.475   3.208
59737W        W26278  28.493  23.547  14.836
59738W        W26279  16.610   6.694  12.077
59739W        W26280  37.895  20.171  10.716
59740W        W26281  25.632  17.213  12.625
59741W        W26282  14.532   6.647  14.698
59742W        W26283  22.970  31.151  11.754
59743W        W26284  11.349  23.007   1.361
59744W        W26285  24.567   6.878  11.945
59745W        W26286  33.104  40.044  12.567
59746W        W26287   0.597  34.909   0.297
59747W        W26288  12.641   1.122  13.037
59748W        W26289  27.642  21.990   1.843
59749W        W26290  36.801  20.120  10.891
59750W        W26291  12.848   8.689  10.712
59751W        W26292  16.215  26.460   3.216
59752W        W26293   1.454  22.063  13.168
59753W        W26294  42.323   0.693  14.514
59754W        W26295  29.417  13.755  12.445
59755W        W26296   1.606  37.460   4.557
59756W        W26297  39.622  33.031   3.681
59757W        W26298  38.322  11.824   0.445
59758W        W26299  24.111   3.985   0.852
59759W        W26300  22.768  27.977   0.569
59760W        W26301  21.704   1.474  12.537
59761W        W26302   5.198  21.202   4.304
59762W        W26303  27.856   3.455  12.144
59763W        W26304  29.173   4.183  14.302
59764W        W26305   3.815   0.828  13.656
59765W        W26306  31.120  10.300   0.284
59766W        W26307  18.212  20.678   1.528
59767W        W26308   5.727  18.624   1.708
59768W        W26309  16.540  28.489   0.652
59769W        W26310  27.080  31.613  13.922
59770W        W26311  12.982  43.245   3.815
59771W        W26312  40.105  33.413   4.572
59772W        W26313  22.968  34.530   1.664
59773W        W26314  38.538  18.761   1.758
59774W        W26315  39.455  20.980  14.867
59775W        W26316   5.134  36.959  14.900
59776W        W26317  42.075  39.799  13.305
59777W        W26318  10.659  10.828  11.319
59778W        W26319  14.646  38.969  10.245
59779W        W26320  11.428  21.711   4.935
59780W        W26321  28.889  24.170  10.298
59781W        W26322  43.014  34.970   4.525
59782W        W26323   4.254  24.066  14.273
59783W        W26324   0.847  13.545   3.120
59784W        W26325  43.290  32.430  13.333
59785W        W26326  36.265  13.757   0.839
59786W        W26327  31.423  25.745   0.910
59787W        W26328   0.273  42.484   3.550
59788W        W26329  37.650  30.149  11.248
59789W        W26330   2.097   0.115  14.330
59790W        W26331  43.941  39.919   0.432
59791W        W26332  26.992  19.678  13.625
59792W        W26333   3.912   7.273   2.015
59793W        W26334  29.826  22.287  12.872
59794W        W26335  24.011  30.590  11.898
59795W        W26336  28.967  41.126   0.474
59796W        W26337  39.220  22.070   1.091
59797W        W26338   5.253  17.929  14.945
59798W        W26339  17.066  40.095  13.917
59799W        W26340  42.623  10.131   2.689
59800W        W26341  31.814   6.740   2.321
59801W        W26342  28.050  28.692   4.987
59802W        W26343  40.693  38.030  11.101
59803W        W26344  20.085  18.178  12.489
59804W        W26345   6.226  23.951   3.701
59805W        W26346  35.592  20.382   3.178
59806W        W26347  44.847  11.668   4.537
59807W        W26348  17.221  27.006   1.215
59808W        W26349  22.974  40.066  13.885
59809W        W26350  38.130  35.279  11.219
59810W        W26351  32.109  43.537  11.180
59811W        W26352  28.962  31.394   1.742
59812W        W26353  32.900   1.714   2.109
59813W        W26354  27.769  34.981   1.797
59814W        W26355  23.994  38.147   2.924
59815W        W26356  44.072  41.919   1.250
59816W        W26357  12.348  20.621   0.495
59817W        W26358  35.090  28.510   3.605
59818W        W26359  33.501  24.018  14.885
59819W        W26360  28.026   4.301   4.693
59820W        W26361  24.932  32.730   1.499
59821W        W26362  17.297   1.294   0.309
59822W        W26363   5.978  31.491  13.744
59823W        W26364  10.953  28.651   4.586
59824W        W26365  16.319  13.276   2.618
59825W        W26366   7.776  32.048   3.528
59826W        W26367  16.336  42.581  11.573
59827W        W26368  36.999   3.134   4.147
59828W        W26369  19.110  12.130  14.475
59829W        W26370   9.143   7.313  13.314
59830W        W26371   2.300  23.823  13.812
59831W        W26372  37.391  43.813   4.908
59832W        W26373  15.938  32.129  13.287
59833W        W26374  21.770  43.837   0.364
59834W        W26375  13.488  44.884   1.234
59835W        W26376  14.669  18.718   2.903
59836W        W26377  32.622  18.413  12.218
59837W        W26378  42.957   7.156   0.888
59838W        W26379  34.935  14.830  13.013
59839W        W26380  21.538  13.323  11.105
59840W        W26381  27.620  22.484  10.692
59841W        W26382  22.569  25.398  10.158
59842W        W26383  23.337  42.121  12.091
59843W        W26384  27.423  27.131  14.011
59844W        W26385  36.300   0.557  14.598
59845W        W26386  41.034  21.003   1.771
59846W        W26387  27.037  24.174  14.408
59847W        W26388  27.371   6.416   0.984
59848W        W26389   2.264  16.575   2.847
59849W        W26390  21.022  16.522   0.792
59850W        W26391  17.802  43.506  13.929
59851W        W26392  15.309   0.380  10.949
59852W        W26393  12.919  30.892  12.871
59853W        W26394  23.037   3.768  11.953
59854W        W26395  39.731   9.468   0.074
59855W        W26396  15.829  24.751  14.533
59856W        W26397  29.416  41.061   0.734
59857W        W26398   1.382  19.315  12.379
59858W        W26399   6.765  31.133  12.045
59859W        W26400  32.609  38.345  13.091
59860W        W26401   4.674  31.110  13.103
59861W        W26402  32.583   6.772  14.384
59862W        W26403  38.561   0.363   4.106
59863W        W26404  25.094  21.448   2.805
59864W        W26405  34.992  39.290   0.904
59865W        W26406  21.636  14.725  14.405
59866W        W26407  30.824  30.144   1.224
59867W        W26408  27.649  30.616  12.370
59868W        W26409  21.105  32.027   2.689
59869W        W26410  29.503  22.019  10.726
59870W        W26411  38.966  13.193   0.012
59871W        W26412  33.587   6.863  13.395
59872W        W26413  21.358  39.497   0.028
59873W        W26414  36.803  14.856  12.135
59874W        W26415  43.120  32.871   3.807
59875W        W26416  14.162   0.790   2.714
59876W        W26417  22.916  29.414   4.081
59877W        W26418  39.512   4.885   0.189
59878W        W26419  16.597  15.722   0.467
59879W        W26420  36.518  16.159   1.351
59880W        W26421  33.680  10.699  13.884
59881W        W26422  41.374  15.229   2.585
59882W        W26423  28.318  32.418  14.831
59883W        W26424  25.650   7.443  12.473
59884W        W26425  28.987  14.849  12.119
59885W        W26426  26.910   3.675  14.793
59886W        W26427  20.181  43.581  10.781
59887W        W26428  31.673  18.397  12.612
59888W        W26429  32.934  40.428   2.747
59889W        W26430   1.727  17.044  13.814
59890W        W26431  14.790  40.571  10.562
59891W        W26432  26.524  39.741   2.819
59892W        W26433  40.671  13.823  10.469
59893W        W26434  24.464  33.578  13.363
59894W        W26435  40.708  13.397   0.833
59895W        W26436  30.909  37.065   3.686
59896W        W26437  13.958  35.809  13.495
59897W        W26438  44.952   5.382   4.053
59898W        W26439  35.934  28.655   1.673
59899W        W26440  10.565  23.318   0.345
59900W        W26441  27.557  44.953  12.089
59901W        W26442  18.505  12.028   0.192
59902W        W26443  32.169  27.168   1.350
59903W        W26444  23.549  17.541  13.836
59904W        W26445  23.146  31.167  11.066
59905W        W26446  10.404  14.103  14.503
59906W        W26447  40.746   7.362   2.717
59907W        W26448  26.544   2.811  14.730
59908W        W26449  14.808  10.983   1.878
59909W        W26450  22.212   3.585  12.569
59910W        W26451  20.232  12.253   3.137
59911W        W26452  20.631  21.853  13.556
59912W        W26453  18.391  20.381  11.265
59913W        W26454  12.945   8.760   2.935
59914W        W26455  41.428  21.462   3.822
59915W        W26456  13.591  19.283  14.765
59916W        W26457  22.127  31.050   3.461
59917W        W26458  20.687   7.178  14.430
59918W        W26459  43.037  27.244   3.198
59919W        W26460  20.432  44.861  12.480
59920W        W26461  33.129  32.511   4.172
59921W        W26462  13.248  25.083   0.880
59922W        W26463  12.624   6.712  14.443
59923W        W26464  23.463   8.628   4.241
59924W        W26465  37.374  32.904   0.688
59925W        W26466  30.647   3.795   0.658
59926W        W26467  30.372  24.878  11.452
59927W        W26468   8.348  31.598  13.074
59928W        W26469   3.233  14.330   3.819
59929W        W26470   5.284  27.953   4.145
59930W        W26471   1.886   7.912   1.963
59931W        W26472  19.743  41.875  13.285
59932W        W26473   0.474  18.026   2.061
59933W        W26474  37.382  30.742   4.525
59934W        W26475  13.184  40.115   1.290
59935W        W26476  11.246  22.224  13.931
59936W        W26477  39.957  21.003   2.455
59937W        W26478  23.038   5.530   1.312
59938W        W26479   7.531  41.928  10.684
59939W        W26480  28.240   3.711   3.176
59940W        W26481  21.009  27.084  12.531
59941W        W26482  14.243   0.762  12.986
59942W        W26483  14.665  32.980   0.427
59943W        W26484  13.791   1.805  13.927
59944W        W26485  27.808  34.320  13.736
59945W        W26486  34.966  42.047  12.029
59946W        W26487  32.477   6.313  11.576
59947W        W26488  15.891  18.072  13.082
59948W        W26489   0.701   4.955   1.370
59949W        W26490  12.623  15.620  11.830
59950W        W26491  37.249  37.636   3.098
59951W        W26492  21.421   6.584   2.072
59952W        W26493   8.025   6.571   0.331
59953W        W26494  18.562   7.255  12.553
59954W        W26495  42.704  16.082   0.718
59955W        W26496  30.522  10.301  12.504
59956W        W26497  21.754  31.076  12.487
59957W        W26498   4.326   2.578  14.854
59958W        W26499  35.782  44.416   2.306
59959W        W26500   9.907  15.181   1.324
59960W        W26501  23.239  17.178   4.915
59961W        W26502  13.322   0.861  10.706
59962W        W26503   5.334  10.851  13.479
59963W        W26504   5.393  13.541  12.854
59964W        W26505  28.517  40.077   4.730
59965W        W26506  11.238  39.068   0.819
59966W        W26507  21.978  20.623   2.347
59967W        W26508  33.575  29.500   1.681
59968W        W26509   8.666  14.590   2.626
59969W        W26510  19.610  26.911  14.456
59970W        W26511  24.968  41.108  14.484
59971W        W26512  38.888  39.860  13.879
59972W        W26513  37.061  39.046   5.052
59973W        W26514  37.918  35.570   2.456
59974W        W26515   6.201   6.652   0.962
59975W        W26516  25.534  10.290   0.893
59976W        W26517  32.572  14.672  12.177
59977W        W26518  13.248   6.890   0.055
59978W        W26519  12.338  27.479   3.318
59979W        W26520  37.066  20.665   3.250
59980W        W26521  22.946  33.822   2.823
59981W        W26522  11.926   4.798   4.480
59982W        W26523  21.281  14.975   3.874
59983W        W26524   5.281  30.545  12.261
59984W        W26525  22.408  17.215  13.840
59985W        W26526   5.400  42.403   1.350
59986W        W26527  33.485   0.007   2.345
59987W        W26528   7.714  16.176   4.750
59988W        W26529   1.246  24.730   1.500
59989W        W26530   2.452  15.013   4.039
59990W        W26531  12.386   8.771  14.924
59991W        W26532  22.211  19.458   1.066
59992W        W26533  44.366  19.235  13.573
59993W        W26534  41.550   4.348  13.050
59994W        W26535  30.532  25.056   1.646
59995W        W26536  30.711  36.866  13.786
59996W        W26537  27.548   0.746   3.849
59997W        W26538  43.819  21.015  12.492
59998W        W26539  18.741  14.050  12.082
59999W        W26540   6.144  38.758  13.563
60000W        W26541  38.572  22.123  11.429
60001W        W26542  28.674  40.639   2.194
60002W        W26543  43.515  16.689  14.773
60003W        W26544  17.167   2.954  13.859
60004W        W26545  16.750   2.457   0.242
60005W        W26546   0.894   1.400   3.150
60006W        W26547  19.216  28.997   3.387
60007W        W26548  34.534  27.011  13.120
60008W        W26549   1.813  23.189   2.628
60009W        W26550   7.448  20.776   3.057
60010W        W26551  39.815  27.354  10.759
60011W        W26552  13.646  12.378  10.925
60012W        W26553   8.371   1.020   1.280
60013W        W26554   4.362  33.027  11.731
60014W        W26555  11.303   0.843  14.262
60015W        W26556  18.645  16.737  10.480
60016W        W26557  37.103  41.503  14.968
60017W        W26558   2.712  24.850   0.113
60018W        W26559  43.206   5.679   4.794
60019W        W26560   8.729   7.365  14.421
60020W        W26561  15.263  33.277   4.045
60021W        W26562  19.339  17.578  11.450
60022W        W26563  18.264  26.585  11.440
60023W        W26564  10.308  32.164   1.009
60024W        W26565   8.722  17.457  13.215
60025W        W26566  20.354   4.669   0.126
60026W        W26567  22.701  35.119   3.330
60027W        W26568   0.980  33.432  14.438
60028W        W26569  12.464  44.860   0.001
60029W        W26570  11.085   8.605  14.535
60030W        W26571  30.281  39.891   3.767
60031W        W26572  40.542  18.638   2.572
60032W        W26573  41.963  17.499  12.969
60033W        W26574  21.793  14.337  12.072
60034W        W26575   9.464  11.157   2.679
60035W        W26576  33.606  38.006  11.048
60036W        W26577  10.417  22.335   1.767
60037W        W26578   3.508  28.530   2.901
60038W        W26579  37.389  37.036   1.666
60039W        W26580  15.661   8.249  11.569
60040W        W26581  34.312  13.857   5.514
60041W        W26582   5.258  14.777   2.068
60042W        W26583  21.745   8.181  11.522
60043W        W26584   3.250   8.812  11.923
60044W        W26585  21.751  12.312  12.974
60045W        W26586  14.859  26.871  10.369
60046W        W26587  16.832  37.985  12.494
60047W        W26588  24.985  25.097   1.906
60048W        W26589  25.719  26.083  10.710
60049W        W26590  30.868  10.290  14.762
60050W        W26591  16.541   0.199   2.701
60051W        W26592  37.767  38.351   2.748
60052W        W26593  43.848  29.232   4.570
60053W        W26594  39.522  43.788   3.230
60054W        W26595   8.240   9.808  13.723
60055W        W26596   5.681  14.272   4.087
60056W        W26597  11.881   4.407   2.767
60057W        W26598  13.996  25.082  14.200
60058W        W26599  25.255  27.192  12.872
60059W        W26600  11.112  37.863   0.342
60060W        W26601   0.232   1.829   0.673
60061W        W26602   3.929  40.719   4.037
60062W        W26603  44.762  36.339  14.375
60063W        W26604   5.004  40.376  11.918
60064W        W26605   0.689   3.623   3.821
60065W        W26606   0.289   3.819   1.388
60066W        W26607   8.164  16.231   1.965
60067W        W26608  12.341  37.493  12.890
60068W        W26609  26.935   8.869  12.514
60069W        W26610  32.565  30.406   2.634
60070W        W26611  33.447  39.529   2.657
60071W        W26612  16.099   5.305   0.115
60072W        W26613   3.042  39.228  13.842
60073W        W26614   3.838  17.648   4.085
60074W        W26615  32.648  10.089  12.204
60075W        W26616  16.865  35.405  14.736
60076W        W26617  11.836  11.619   4.543
60077W        W26618  37.993   7.199   2.227
60078W        W26619  35.855  21.318  14.368
60079W        W26620  41.336  16.568   0.491
60080W        W26621   7.217  20.239   2.222
60081W        W26622  28.938  21.211   4.128
60082W        W26623   6.368  36.334  10.563
60083W        W26624  24.931  24.240   4.122
60084W        W26625  20.710  40.526   3.815
60085W        W26626  31.957   0.703   0.657
60086W        W26627   0.200  26.452  11.161
60087W        W26628  23.899  11.849   0.722
60088W        W26629  43.382   2.888  14.860
60089W        W26630  35.348  19.604  14.239
60090W        W26631  33.122  12.148   3.270
60091W        W26632  22.558  43.134  12.577
60092W        W26633  38.298  33.355   3.546
60093W        W26634  39.539  41.475  10.644
60094W        W26635   2.799   6.877   4.692
60095W        W26636  20.198  22.009   2.183
60096W        W26637   2.580   6.893  12.973
60097W        W26638  33.136  20.556   4.693
60098W        W26639  23.732  10.103  11.231
60099W        W26640   8.606  30.220  13.048
60100W        W26641  14.737   0.715  11.539
60101W        W26642  31.176  18.488   1.297
60102W        W26643  25.893  34.849  12.102
60103W        W26644  39.690  18.879   3.579
60104W        W26645  41.634   8.294   3.594
60105W        W26646  33.000   3.295   3.661
60106W        W26647  16.996   7.312   1.340
60107W        W26648  44.083   9.775  13.524
60108W        W26649   3.869   0.270  14.487
60109W        W26650  18.570   3.362   2.556
60110W        W26651  21.779   4.772  13.472
60111W        W26652   1.833   0.114   2.602
60112W        W26653  35.584  14.372  13.260
60113W        W26654  25.658  13.370  14.103
60114W        W26655  18.413  38.334   0.001
60115W        W26656   7.327  39.109   3.547
60116W        W26657  41.544  33.679   1.373
60117W        W26658  10.667  23.596   0.979
60118W        W26659  36.551   8.897  10.637
60119W        W26660  18.729  37.581   3.678
60120W        W26661  29.408  20.810  12.003
60121W        W26662  30.429  16.141   3.731
60122W        W26663   5.941   0.619  11.627
60123W        W26664  33.970   0.427   1.351
60124W        W26665   1.760   7.455  11.863
60125W        W26666  28.009  24.684   0.824
60126W        W26667   1.161  14.784  12.222
60127W        W26668   1.926  12.739   2.345
60128W        W26669  15.606  39.227  14.028
60129W        W26670  37.676  11.443   0.959
60130W        W26671   4.530   6.686  14.021
60131W        W26672  28.633  21.300   1.869
60132W        W26673  32.158   3.578   2.381
60133W        W26674  34.372  36.298   4.668
60134W        W26675  42.741   0.261   2.477
60135W        W26676   4.355   0.883   3.681
60136W        W26677  11.688  41.065  13.808
60137W        W26678  19.041  19.538   2.779
60138W        W26679  35.924  10.552   1.764
60139W        W26680  28.906  26.046   2.649
60140W        W26681   5.846  37.089  10.643
60141W        W26682  43.979  32.010   1.038
60142W        W26683  11.060   0.556  11.005
60143W        W26684  20.141   0.152   0.459
60144W        W26685  15.101   9.141  11.564
60145W        W26686   7.287  35.840   0.428
60146W        W26687  31.937   4.936   2.795
60147W        W26688  18.298  27.161   0.039
60148W        W26689   7.946  12.002  10.269
60149W        W26690  40.407   5.727   0.343
60150W        W26691  11.818  18.114   0.770
60151W        W26692   6.364  21.499   1.264
60152W        W26693  24.959   8.584  11.203
60153W        W26694  40.408   8.233  13.964
60154W        W26695   3.222  15.322  10.819
60155W        W26696  23.573  16.205  14.534
60156W        W26697  17.676  30.107  13.334
60157W        W26698  12.162   4.345  14.532
60158W        W26699  44.297   1.905   2.598
60159W        W26700   8.209  20.061  13.832
60160W        W26701  27.508  42.265   3.586
60161W        W26702  34.633  17.000  11.527
60162W        W26703   5.617  19.738   0.911
60163W        W26704  41.537   3.488  11.082
60164W        W26705  14.274  37.259  13.614
60165W        W26706  12.733  17.449  11.632
60166W        W26707  35.077  10.078  14.432
60167W        W26708   2.748  29.909  13.301
60168W        W26709  30.522  43.414  12.016
60169W        W26710  33.235  29.165   2.795
60170W        W26711  16.363  23.159  13.174
60171W        W26712  25.157   3.153   0.699
60172W        W26713  38.982  43.382  14.533
60173W        W26714  11.303  14.070  14.133
60174W        W26715  11.210  27.768  13.851
60175W        W26716  20.119  38.903  13.822
60176W        W26717  31.248  18.941  10.563
60177W        W26718  12.640  31.662   2.784
60178W        W26719   7.356   2.289   4.552
60179W        W26720  21.005  10.827  12.627
60180W        W26721  23.084  18.217  11.552
60181W        W26722  23.099  30.951  12.723
60182W        W26723  26.735  38.997  10.908
60183W        W26724  12.344   7.813   0.849
60184W        W26725  32.802  27.204   2.631
60185W        W26726  31.423  24.732  10.968
60186W        W26727  26.213  10.181   1.360
60187W        W26728  23.246  41.127  11.096
60188W        W26729  28.313  12.661  14.183
60189W        W26730  32.863  30.074   0.544
60190W        W26731   6.587   5.787   1.428
60191W        W26732  25.454   3.760   1.825
60192W        W26733  34.585  17.804   2.216
60193W        W26734  17.687  13.666  13.083
60194W        W26735  40.446  37.787   4.462
60195W        W26736  30.572   1.496   4.792
60196W        W26737   6.173  15.692  14.529
60197W        W26738  23.735  38.152   4.278
60198W        W26739  39.083  40.240  12.227
60199W        W26740  33.429   8.640  14.457
60200W        W26741  38.098   0.407  14.534
60201W        W26742  16.644   5.678  13.875
60202W        W26743  25.420  10.961   1.805
60203W        W26744  34.800  26.951  14.293
60204W        W26745  20.098  21.982   3.537
60205W        W26746  24.359  27.450   2.355
60206W        W26747  12.076  26.421   0.165
60207W        W26748  41.501  18.688   4.151
60208W        W26749  30.118  12.002   4.193
60209W        W26750   8.896  41.898  12.210
60210W        W26751  44.893  32.975   4.228
60211W        W26752  35.152  15.896  14.345
60212W        W26753  44.754  36.862  13.478
60213W        W26754  41.303  16.539  11.914
60214W        W26755  11.442  11.841   1.799
60215W        W26756  29.686  32.167  12.614
60216W        W26757   3.232  15.320   3.458
60217W        W26758  41.953   3.279   0.301
60218W        W26759  43.863   5.322  13.999
60219W        W26760   3.063   0.481   1.341
60220W        W26761  35.650  39.014   2.488
60221W        W26762   8.958  38.356  14.601
60222W        W26763  33.566  19.048  14.781
60223W        W26764  16.739   2.838  12.192
60224W        W26765  37.516  40.568   4.178
60225W        W26766  37.604  34.527  13.753
60226W        W26767  33.993  41.852  10.667
60227W        W26768  18.567   2.965  12.849
60228W        W26769  11.292  16.318   2.280
60229W        W26770  36.977   3.345  11.958
60230W        W26771  26.610  28.241  10.731
60231W        W26772  12.305  37.891  11.971
60232W        W26773  10.708  18.541   3.307
60233W        W26774  27.863  31.971  10.665
60234W        W26775  21.047  40.820  11.266
60235W        W26776  17.316  40.504   3.698
60236W        W26777  43.859  10.731   2.913
60237W        W26778  27.923  15.818  11.063
60238W        W26779  28.073   5.479   3.187
60239W        W26780   5.417  21.927   2.734
60240W        W26781  43.969  21.760   0.787
60241W        W26782   4.489  14.664   1.345
60242W        W26783  25.072   1.281   4.541
60243W        W26784  14.761  13.233   4.620
60244W        W26785   5.695   6.844   4.624
60245W        W26786  32.320   3.701  13.960
60246W        W26787  26.557  33.481   1.880
60247W        W26788  42.766  13.088  11.040
60248W        W26789  10.077  31.655  13.856
60249W        W26790   3.211  33.058   2.319
60250W        W26791  21.685   0.934   3.688
60251W        W26792  28.363  17.098  11.685
60252W        W26793  30.872  43.395  10.740
60253W        W26794  12.224  11.808   3.733
60254W        W26795  16.786  11.458   0.620
60255W        W26796   4.315   5.930  13.028
60256W        W26797  11.255  24.490   4.546
60257W        W26798  25.591  33.774  13.116
60258W        W26799  10.486  15.384  14.720
60259W        W26800   8.641  28.208   1.288
60260W        W26801   0.727  19.674  13.856
60261W        W26802   9.574  21.307   1.198
60262W        W26803   7.316   7.616   0.116
60263W        W26804  38.327  25.474   2.199
60264W        W26805  25.484  22.211   2.397
60265W        W26806  42.710  26.578  10.699
60266W        W26807  10.387  22.450   3.132
60267W        W26808   0.604  37.734  11.030
60268W        W26809  10.618  28.414  13.470
60269W        W26810   8.968   3.670   4.226
60270W        W26811  39.483   5.919  14.342
60271W        W26812  25.930  18.796  12.302
60272W        W26813   2.188   1.567  12.260
60273W        W26814  44.916  11.138   2.185
60274W        W26815  34.070   0.013   0.324
60275W        W26816  30.617  12.297  14.101
60276W        W26817  38.482   6.144   1.945
60277W        W26818  43.445  11.410  13.939
60278W        W26819  41.906  22.077  13.928
60279W        W26820   3.651  38.830  14.387
60280W        W26821  25.543   2.519   3.481
60281W        W26822  41.000  22.538  13.921
60282W        W26823  34.341  10.884  12.374
60283W        W26824   0.099  26.200  12.971
60284W        W26825  29.519  18.682  11.589
60285W        W26826  43.648  28.391   4.939
60286W        W26827  38.860  26.756   4.003
60287W        W26828  41.065  43.806   0.122
60288W        W26829  17.570  32.957  11.608
60289W        W26830  15.017  10.231   0.926
60290W        W26831  10.115  15.725   1.316
60291W        W26832  42.636  26.328  13.986
60292W        W26833  42.377  23.497   0.937
60293W        W26834  43.003  13.854  14.427
60294W        W26835  20.674  33.332  10.709
60295W        W26836  35.812  25.233   0.041
60296W        W26837   4.811   2.896  13.854
60297W        W26838   7.936   5.894   1.058
60298W        W26839  34.635  15.069  13.610
60299W        W26840  28.159  41.855   4.741
60300W        W26841   6.657  27.316   0.485
60301W        W26842  16.063  16.331   1.831
60302W        W26843  12.756  42.788  11.840
60303W        W26844  28.024  41.396   3.743
60304W        W26845  44.927  29.968   0.150
60305W        W26846  19.123  25.745  14.769
60306W        W26847  44.228  23.957   0.884
60307W        W26848   5.501  31.391  13.032
60308W        W26849  15.054  19.277  12.700
60309W        W26850  27.253  30.611   2.766
60310W        W26851  42.241   0.037   2.724
60311W        W26852  40.574  16.088  11.224
60312W        W26853   4.419  26.168  11.656
60313W        W26854  20.778  20.132   0.688
60314W        W26855  14.834  43.775  12.457
60315W        W26856  33.201  14.253  12.878
60316W        W26857  22.510   8.868  13.572
60317W        W26858   3.094  37.956   1.694
60318W        W26859   8.247  31.114   1.323
60319W        W26860  40.718  40.003  14.991
60320W        W26861   6.362  36.481   4.414
60321W        W26862  40.135   2.635   0.354
60322W        W26863  17.347  31.077  14.338
60323W        W26864  24.533   2.458   3.706
60324W        W26865  27.822  29.958  13.779
60325W        W26866  21.131  18.069  11.695
60326W        W26867  36.614  35.961   0.230
60327W        W26868  36.261  18.712   3.766
60328W        W26869  30.761  21.611   1.830
60329W        W26870  30.106   8.720   2.111
60330W        W26871  16.825  44.519   0.383
60331W        W26872  21.186  42.075  14.025
60332W        W26873   5.398  18.912   4.322
60333W        W26874   3.704  28.470   3.375
60334W        W26875  10.821  28.153   0.520
60335W        W26876  44.904  35.393   1.304
60336W        W26877   6.884   8.401  13.429
60337W        W26878  34.731  32.881   3.838
60338W        W26879  39.444  21.299   4.674
60339W        W26880  11.678  10.190  12.473
60340W        W26881   7.337  31.800  14.849
60341W        W26882  20.830  22.365  10.253
60342W        W26883  31.958  34.262   1.089
60343W        W26884  13.183   2.251   3.391
60344W        W26885  22.785  17.706  14.892
60345W        W26886  37.357   2.710   4.823
60346W        W26887  28.966  44.229  12.426
60347W        W26888  29.185   8.680   3.961
60348W        W26889  35.055  43.772  12.531
60349W        W26890  16.174  14.676  14.012
60350W        W26891  33.799  23.067  13.293
60351W        W26892  12.877  11.528   1.882
60352W        W26893   3.909   6.845  11.131
60353W        W26894  18.286   9.231   0.370
60354W        W26895  27.453  43.019   0.781
60355W        W26896  24.287  34.359  12.550
60356W        W26897  13.118  25.021  11.086
60357W        W26898   4.873  34.793  13.764
60358W        W26899   5.875   8.561   3.985
60359W        W26900   1.294  43.364  11.229
60360W        W26901   8.806   1.232  11.169
60361W        W26902  13.348   7.525   0.752
60362W        W26903  37.715  44.235   4.378
60363W        W26904  35.113  24.266   0.638
60364W        W26905   6.134  29.923  14.366
60365W        W26906   5.082  36.703   1.817
60366W        W26907  19.963  18.204  14.254
60367W        W26908  22.444  16.540  10.275
60368W        W26909  20.170  14.759  11.936
60369W        W26910  16.769  34.379   4.854
60370W        W26911  38.404  30.547   3.371
60371W        W26912  29.163  35.782   0.829
60372W        W26913  13.749  16.805   4.138
60373W        W26914  29.486  35.048  10.851
60374W        W26915   9.354  31.296  10.505
60375W        W26916   1.126  44.425   3.754
60376W        W26917  25.060  21.607  10.955
60377W        W26918  41.044  22.761   2.766
60378W        W26919   8.228  32.446  12.089
60379W        W26920   5.775  36.425   1.141
60380W        W26921  37.437  21.945   1.275
60381W        W26922  38.445   7.178  13.005
60382W        W26923  41.902  26.756  11.200
60383W        W26924  34.561   9.810  10.581
60384W        W26925  14.102  42.490  11.937
60385W        W26926  41.978   0.923   0.812
60386W        W26927  42.236   9.899   2.976
60387W        W26928  30.707  11.355   4.647
60388W        W26929   2.806  15.909   0.851
60389W        W26930  26.750   1.950   3.668
60390W        W26931  29.050  11.670   0.197
60391W        W26932  36.279  43.702   2.725
60392W        W26933  32.276  27.693  11.988
60393W        W26934  14.865  28.426   4.851
60394W        W26935  39.733   2.469   3.150
60395W        W26936  41.114  16.622  13.263
60396W        W26937  35.312   7.551   2.524
60397W        W26938  16.812  40.268   1.671
60398W        W26939  43.110  20.469   2.570
60399W        W26940  36.448  32.801   0.451
60400W        W26941  33.129  28.517  14.333
60401W        W26942  16.139  12.767   1.202
60402W        W26943  16.188  13.527  12.147
60403W        W26944  22.315  22.680   0.361
60404W        W26945   5.748  31.564   2.664
60405W        W26946  29.889  22.261   2.283
60406W        W26947  17.141  27.533   2.221
60407W        W26948  34.637  35.935   1.815
60408W        W26949  11.064  15.031  14.298
60409W        W26950  26.679  12.862  11.857
60410W        W26951  32.787   1.854  12.515
60411W        W26952  40.398  17.234  11.498
60412W        W26953   9.116  28.265  10.377
60413W        W26954  38.322  34.410  11.227
60414W        W26955  12.711  36.290  12.657
60415W        W26956  16.063  10.674  13.977
60416W        W26957  36.971   2.408  14.854
60417W        W26958  26.974  42.854   2.660
60418W        W26959  39.944  13.735  13.353
60419W        W26960   4.340  29.020   2.757
60420W        W26961   9.413   8.149  12.919
60421W        W26962  14.510  16.608   0.133
60422W        W26963  38.621   5.384  11.263
60423W        W26964  17.757  30.424  12.063
60424W        W26965  35.153  42.199   3.692
60425W        W26966   0.305  13.102   4.714
60426W        W26967  21.070  40.176  12.576
60427W        W26968  20.162   4.998  12.101
60428W        W26969   9.112  34.462  11.368
60429W        W26970   3.362   5.305   0.965
60430W        W26971   8.470   0.523   1.387
60431W        W26972  21.258  20.205  13.902
60432W        W26973  27.891  29.966   1.060
60433W        W26974  14.146  41.028   4.058
60434W        W26975   0.045  42.170   1.352
60435W        W26976   7.168   8.683  12.019
60436W        W26977  23.025  41.078  14.861
60437W        W26978   0.062   9.152  10.802
60438W        W26979  36.219  22.586   0.957
60439W        W26980  15.869  42.840  11.593
60440W        W26981  17.832  10.896  12.449
60441W        W26982  37.338  29.568   0.221
60442W        W26983  23.141  25.258  14.274
60443W        W26984   5.249  10.360  12.086
60444W        W26985  40.337  40.823  14.486
60445W        W26986  31.064   3.752   3.325
60446W        W26987   7.171  15.760   3.622
60447W        W26988  42.602  11.471   5.504
60448W        W26989  10.621  44.960  10.418
60449W        W26990  25.306   8.821   4.170
60450W        W26991  29.229  38.400   2.314
60451W        W26992  11.398  14.362  10.403
60452W        W26993   9.391  13.190   4.555
60453W        W26994  33.103   3.158  12.908
60454W        W26995  33.299  22.322  14.413
60455W        W26996  16.793   0.970   1.412
60456W        W26997  17.529  15.288   2.329
60457W        W26998   9.259  21.942  14.433
60458W        W26999   3.255  35.609  13.605
60459W        W27000  20.782  23.799  14.858
60460W        W27001  27.359   2.695  11.898
60461W        W27002  18.187  30.864   9.890
60462W        W27003  22.505  28.445   4.776
60463W        W27004  21.695  22.163  13.012
60464W        W27005   3.390   1.308   0.921
60465W        W27006  25.732  11.808   4.046
60466W        W27007  40.850  12.785   2.224
60467W        W27008   0.051  41.329   0.859
60468W        W27009   8.268  24.205  12.370
60469W        W27010  37.500   7.419  12.541
60470W        W27011  33.205  40.425   3.199
60471W        W27012  42.526  17.326  14.220
60472W        W27013  21.768  30.675   0.794
60473W        W27014  10.877  27.723   2.395
60474W        W27015  18.162  25.793   4.206
60475W        W27016  41.370  35.042   2.859
60476W        W27017  21.217  43.901  13.082
60477W        W27018  33.033  32.837  14.482
60478W        W27019  40.916   7.865   3.988
60479W        W27020   4.756  44.685  14.299
60480W        W27021  33.210  29.784   1.921
60481W        W27022  22.644   1.821  14.979
60482W        W27023  43.464  12.662   0.961
60483W        W27024  36.567  33.674  11.339
60484W        W27025   8.148  13.235   1.031
60485W        W27026  23.397  42.222  11.167
60486W        W27027  43.763  41.994   3.200
60487W        W27028  18.042  11.548  12.055
60488W        W27029  30.543  14.278   3.699
60489W        W27030   8.351  26.320   1.930
60490W        W27031   3.195  17.719  11.165
60491W        W27032   0.871  29.571   0.467
60492W        W27033  39.443  39.030  14.022
60493W        W27034  15.720  29.630   2.142
60494W        W27035   9.187  20.087  11.071
60495W        W27036  34.419  26.114   1.594
60496W        W27037  18.924  14.336  14.721
60497W        W27038  38.449  12.797  14.249
60498W        W27039  11.821   7.090   1.393
60499W        W27040  26.307   0.796  12.466
60500W        W27041  13.842  15.793   0.786
60501W        W27042  16.811  15.328   3.811
60502W        W27043  27.862  24.035   2.890
60503W        W27044  13.408   3.575   0.906
60504W        W27045  11.098  17.814   2.049
60505W        W27046  15.761  22.116   2.184
60506W        W27047  26.129  25.939  12.352
60507W        W27048  26.913  13.228   2.358
60508W        W27049   6.633  29.109  14.595
60509W        W27050  15.873  14.134   1.115
60510W        W27051  23.718  30.878  10.415
60511W        W27052  27.026  24.265   1.916
60512W        W27053  10.643  40.453   2.743
60513W        W27054  38.360  31.379   1.798
60514W        W27055  29.089  23.620   1.691
60515W        W27056  35.906  44.590   2.780
60516W        W27057  42.895  38.954  10.988
60517W        W27058   3.523  15.565   2.380
60518W        W27059  29.502  44.283   3.586
60519W        W27060  28.090  19.276   4.535
60520W        W27061  40.980  20.547   0.502
60521W        W27062  20.848  28.926  10.804
60522W        W27063   6.288   4.006   0.073
60523W        W27064  14.210  39.422   4.611
60524W        W27065  38.793  38.032  10.684
60525W        W27066  25.592  25.338   4.099
60526W        W27067   6.225  41.447  11.938
60527W        W27068  15.320  36.983  13.759
60528W        W27069  12.120  42.303   0.198
60529W        W27070   3.976  24.481   0.512
60530W        W27071  43.766  39.746   2.766
60531W        W27072  21.575   5.940  11.486
60532W        W27073  16.237  29.972   0.979
60533W        W27074  21.558  41.945  11.605
60534W        W27075  29.832   5.727   0.396
60535W        W27076  36.531  28.553  11.038
60536W        W27077  12.487  12.858  12.458
60537W        W27078  33.236   8.152   0.350
60538W        W27079  37.901  44.449  11.145
60539W        W27080   3.211  35.116   4.575
60540W        W27081   2.117  38.762  12.008
60541W        W27082  17.096   8.850   1.679
60542W        W27083  38.484  23.368  12.893
60543W        W27084  25.079  16.687  12.646
60544W        W27085  38.941  16.545   1.414
60545W        W27086  27.396   8.300   4.338
60546W        W27087  15.241  21.346   4.818
60547W        W27088  15.724  22.587  13.499
60548W        W27089  21.778  32.886  14.841
60549W        W27090  35.820  12.294   3.660
60550W        W27091  36.000  40.054   3.213
60551W        W27092   8.541  15.244  14.912
60552W        W27093  20.959  28.985  13.863
60553W        W27094  41.201  31.537  13.413
60554W        W27095  11.243  42.403  13.755
60555W        W27096  21.019  34.347   4.366
60556W        W27097  28.466  27.871  11.137
60557W        W27098  18.485   0.914  11.987
60558W        W27099  43.477   8.259  11.593
60559W        W27100  10.883  21.242  11.569
60560W        W27101  34.363   0.256   5.373
60561W        W27102   0.783  17.495   4.265
60562W        W27103  32.490  33.913   1.406
60563W        W27104  27.091  16.054   2.325
60564W        W27105  19.988  28.854  13.550
60565W        W27106  10.330  18.815   3.107
60566W        W27107  21.492  20.058  14.331
60567W        W27108  21.622  12.001   5.525
60568W        W27109  38.835   7.938   1.719
60569W        W27110  13.350  23.182   0.863
60570W        W27111  12.392   2.404  10.666
60571W        W27112   9.794  36.503   0.968
60572W        W27113  19.741  18.948  13.458
60573W        W27114   6.912   7.766   4.072
60574W        W27115  14.868   7.660  11.536
60575W        W27116   4.768   2.493   2.403
60576W        W27117   3.870  18.357   2.740
60577W        W27118  34.063  31.009   2.880
60578W        W27119  44.749  36.645  13.006
60579W        W27120  41.479  19.354   2.325
60580W        W27121  29.427  21.931  13.954
60581W        W27122  29.512  27.828   0.266
60582W        W27123  18.445   5.236  13.336
60583W        W27124  42.277  23.576  10.641
60584W        W27125  32.399  29.671   3.068
60585W        W27126  29.440  10.296  12.503
60586W        W27127  43.833  34.007   3.368
60587W        W27128   9.868  20.021  13.312
60588W        W27129   3.086  26.723  11.238
60589W        W27130  44.111  12.100   4.658
60590W        W27131  12.908   4.938  12.355
60591W        W27132  30.494  28.287  12.887
60592W        W27133  29.284   2.362   2.358
60593W        W27134   1.285  13.659  13.600
60594W        W27135   7.159  33.401  13.434
60595W        W27136  17.012  18.206   1.331
60596W        W27137  22.705   8.747  10.572
60597W        W27138  14.792  22.483   2.225
60598W        W27139  38.503  24.598   2.343
60599W        W27140  35.944  15.678   0.170
60600W        W27141   4.403  30.915   5.380
60601W        W27142   3.028   8.283  12.537
60602W        W27143  26.047   2.354   1.034
60603W        W27144  41.309  21.207  10.094
60604W        W27145  16.233  33.998   5.498
60605W        W27146  28.457  42.610  11.207
60606W        W27147   0.310  17.200  14.975
60607W        W27148  19.166   6.139   2.156
60608W        W27149  17.192  36.967  11.608
60609W        W27150   5.303   8.102   0.838
60610W        W27151  22.480  17.397   1.844
60611W        W27152  42.442  44.213  14.679
60612W        W27153  15.560  17.031   4.558
60613W        W27154  36.215  22.648  14.345
60614W        W27155  21.526  15.627   3.957
60615W        W27156  20.903  11.155  10.332
60616W        W27157  17.823  15.315   3.538
60617W        W27158  31.351  23.590   1.269
60618W        W27159  17.344  10.639   0.230
60619W        W27160  36.559   9.586   4.611
60620W        W27161  27.794  31.163  12.448
60621W        W27162   8.007  44.309   0.849
60622W        W27163  40.497  43.939  12.139
60623W        W27164  35.785  15.659   5.089
60624W        W27165   3.891  20.835  13.359
60625W        W27166  11.146  16.390  12.652
60626W        W27167   2.466  20.481  12.891
60627W        W27168   0.777   6.308   0.425
60628W        W27169  28.510  31.746  13.330
60629W        W27170  38.001  20.790  12.458
60630W        W27171  29.034  24.212  14.433
60631W        W27172  23.953  33.978  11.192
60632W        W27173  24.287  12.342   1.334
60633W        W27174  42.959  15.975   3.608
60634W        W27175  29.512  43.393  11.440
60635W        W27176   5.257  37.731   1.808
60636W        W27177  12.747  29.358  14.493
60637W        W27178  23.963  19.586  13.702
60638W        W27179   3.802  20.495   0.307
60639W        W27180  34.634  27.009  11.411
60640W        W27181   4.837  28.471   3.470
60641W        W27182  18.240  24.230  14.442
60642W        W27183  24.901  29.431   3.282
60643W        W27184  31.920   6.183   1.439
60644W        W27185  13.247   2.025  13.169
60645W        W27186  32.895  11.169   4.181
60646W        W27187  41.140   1.427  14.099
60647W        W27188  23.212  41.935   1.673
60648W        W27189  12.806  37.377   0.495
60649W        W27190  29.505  21.797  11.692
60650W        W27191  15.717  28.683   0.814
60651W        W27192  44.992  34.686   0.907
60652W        W27193  32.982   1.918   3.043
60653W        W27194  15.825  35.797  13.192
60654W        W27195  39.542  17.307  12.933
60655W        W27196  11.070  15.308   2.599
60656W        W27197   7.147   2.294   3.080
60657W        W27198   4.796   8.039  12.166
60658W        W27199  41.632  22.214  14.365
60659W        W27200  16.984   0.800   4.172
60660W        W27201  34.285  11.817   2.031
60661W        W27202  36.704   0.158   2.877
60662W        W27203   0.783   5.730  12.136
60663W        W27204  37.736  14.342   0.293
60664W        W27205  15.767  27.436  12.896
60665W        W27206  19.137  36.622   2.089
60666W        W27207  28.487  23.087   1.512
60667W        W27208   5.873  11.268  12.781
60668W        W27209  29.459  33.944   3.278
60669W        W27210  19.467  20.581  12.927
60670W        W27211   5.972  25.638  11.273
60671W        W27212  41.469  43.456   3.884
60672W        W27213  27.282   8.670   0.822
60673W        W27214   5.999  10.107   3.168
60674W        W27215  38.012   1.284   3.054
60675W        W27216  31.079  42.463  14.934
60676W        W27217  43.227  31.931   3.019
60677W        W27218   8.352   0.512  14.856
60678W        W27219   0.474  38.467   4.233
60679W        W27220  24.396   6.147  11.104
60680W        W27221  31.931   5.713   2.364
60681W        W27222  40.991  24.209  14.836
60682W        W27223  15.514  38.098   3.106
60683W        W27224  16.673  26.666   1.942
60684W        W27225  19.800  24.185   0.514
60685W        W27226  14.068   9.838  11.143
60686W        W27227  44.237  27.162  13.970
60687W        W27228  23.009  16.730  13.991
60688W        W27229  37.242  23.506   3.924
60689W        W27230   2.968  43.252  11.427
60690W        W27231   1.640  16.751  11.124
60691W        W27232  15.538  33.199  10.725
60692W        W27233  33.910  21.456   2.390
60693W        W27234  36.336  23.212   1.344
60694W        W27235   1.104   4.806   4.151
60695W        W27236  23.132  25.435  10.678
60696W        W27237  35.639  37.204  11.068
60697W        W27238  38.731  12.707   3.140
60698W        W27239   5.274  14.556  13.333
60699W        W27240  26.718  11.738  12.226
60700W        W27241   9.645  18.067  11.081
60701W        W27242  19.684  26.613   1.908
60702W        W27243  32.843  14.281   3.331
60703W        W27244  34.503  17.396   0.047
60704W        W27245  33.537  44.227   2.854
60705W        W27246  36.961  16.582  12.061
60706W        W27247  31.037  11.866  11.039
60707W        W27248  41.126  22.515  11.979
60708W        W27249  29.655  42.364   3.772
60709W        W27250  27.207  13.317  11.051
60710W        W27251  10.119  13.661   0.937
60711W        W27252  23.959  10.891   1.602
60712W        W27253  26.655  11.055  10.645
60713W        W27254  15.730  27.165  11.870
60714W        W27255  15.232  30.427   4.704
60715W        W27256  14.702  31.408  12.431
60716W        W27257  42.044   9.094   3.108
60717W        W27258  25.171  39.069  11.645
60718W        W27259  17.622  24.489   1.263
60719W        W27260  35.269  10.871   1.301
60720W        W27261  14.096   5.034   2.330
60721W        W27262  16.208  27.919   1.734
60722W        W27263  34.149  16.119   3.259
60723W        W27264  12.244  20.957  14.509
60724W        W27265  40.323  38.764  13.101
60725W        W27266  11.142   5.236  13.470
60726W        W27267  43.177  17.669   4.175
60727W        W27268  10.170   5.439   1.349
60728W        W27269  14.227   6.872   2.553
60729W        W27270  35.237   5.641  11.580
60730W        W27271  12.842  30.106   1.389
60731W        W27272   5.971   4.681   3.436
60732W        W27273  29.427  30.793  12.403
60733W        W27274  16.131  38.263   4.671
60734W        W27275  30.598  27.977   1.744
60735W        W27276  11.640  10.326   1.877
60736W        W27277   7.257  41.600   0.844
60737W        W27278  15.076  39.640   3.159
60738W        W27279  38.716  29.413   5.136
60739W        W27280  30.680  39.306   2.190
60740W        W27281  38.007  16.824  14.919
60741W        W27282  13.836  29.207   1.479
60742W        W27283  19.651   3.953  10.555
60743W        W27284  37.325  34.950   0.030
60744W        W27285  13.724   0.695  12.885
60745W        W27286  39.066  21.581   0.197
60746W        W27287  11.873  23.731   1.812
60747W        W27288  36.353  30.594   3.817
60748W        W27289   8.891  39.244  12.023
60749W        W27290  36.917   5.081   3.568
60750W        W27291  27.225  21.661   2.993
60751W        W27292  30.857  22.023  14.892
60752W        W27293  27.155   1.930   1.287
60753W        W27294  44.676  39.715  13.901
60754W        W27295   3.122  42.756   3.813
60755W        W27296  27.132   5.529   3.611
60756W        W27297  10.181  17.532   1.756
60757W        W27298  33.549  22.009  10.228
60758W        W27299  39.173  31.869   4.399
60759W        W27300   5.229  13.007   4.811
60760W        W27301  39.955  24.481  13.111
60761W        W27302  15.507  32.415  13.851
60762W        W27303  23.030  27.127   1.802
60763W        W27304  32.346  19.021   3.206
60764W        W27305  37.871  19.206  11.598
60765W        W27306   7.130  33.935   0.345
60766W        W27307   1.430  15.701  12.664
60767W        W27308  26.598  29.183  14.250
60768W        W27309   3.897   1.922   0.422
60769W        W27310  17.584  12.820   0.981
60770W        W27311  30.459   3.415   0.358
60771W        W27312  21.607  10.038   0.524
60772W        W27313  35.102  15.168  13.833
60773W        W27314  38.739   2.824   3.603
60774W        W27315  23.248  38.446   4.133
60775W        W27316  41.208  44.426  11.327
60776W        W27317  18.815  30.135  12.077
60777W        W27318  28.582  22.361   4.797
60778W        W27319   7.446  37.210   5.233
60779W        W27320  24.678  14.983  13.634
60780W        W27321   5.102  10.091   1.354
60781W        W27322  40.994  29.950   1.364
60782W        W27323  25.188  35.282  12.265
60783W        W27324  27.127  22.126   3.244
60784W        W27325  16.950  23.706  14.443
60785W        W27326  12.109   5.756  12.615
60786W        W27327   5.914   6.328   1.525
60787W        W27328  15.590   6.736   3.617
60788W        W27329   2.930  22.953   2.768
60789W        W27330  15.785  32.098  14.613
60790W        W27331  21.155  23.764   4.096
60791W        W27332  21.325   4.282  13.915
60792W        W27333  36.672  15.714  12.026
60793W        W27334  15.589  44.551  11.160
60794W        W27335   0.751  18.177  10.825
60795W        W27336  44.946  34.199  10.613
60796W        W27337   9.161  26.084  14.346
60797W        W27338  30.127  26.115  13.957
60798W        W27339  44.328  15.100   5.404
60799W        W27340  44.781   5.682  12.479
60800W        W27341  16.235   5.989   3.818
60801W        W27342   4.918  29.836   3.043
60802W        W27343  23.227   9.340   0.429
60803W        W27344  39.435   9.205  10.929
60804W        W27345  11.873  22.269   3.302
60805W        W27346  42.243   6.450   0.607
60806W        W27347  32.594   8.897   4.225
60807W        W27348  17.588  15.714  13.772
60808W        W27349  44.259  19.862   1.302
60809W        W27350  20.501  12.089  11.304
60810W        W27351  11.647  37.196  12.125
60811W        W27352  20.501  26.004  14.011
60812W        W27353  24.210  26.561   3.863
60813W        W27354  16.273   9.856  11.569
60814W        W27355  17.663  18.605  14.552
60815W        W27356  44.438  42.436  14.219
60816W        W27357  10.815  21.868  11.924
60817W        W27358  16.718  19.327  14.782
60818W        W27359   2.447  38.979  12.908
60819W        W27360  22.249  40.471   2.413
60820W        W27361   8.375  39.244   2.287
60821W        W27362  12.812   6.946   0.344
60822W        W27363  36.638  41.655  14.801
60823W        W27364  11.676   1.177   1.343
60824W        W27365  43.602  17.400   2.793
60825W        W27366  15.034  14.153  13.946
60826W        W27367  20.844   8.188  14.939
60827W        W27368  17.732  32.537  11.855
60828W        W27369  32.644  20.632  10.671
60829W        W27370  29.499   2.486   1.039
60830W        W27371  20.669  41.206  12.616
60831W        W27372  40.601   0.835   0.260
60832W        W27373  20.678   5.777   9.812
60833W        W27374  27.756  41.273   2.106
60834W        W27375  40.081  22.798   2.854
60835W        W27376  34.597  33.176   3.453
60836W        W27377  31.892  22.087  14.447
60837W        W27378   6.905  15.047  12.393
60838W        W27379  40.382  23.028  10.703
60839W        W27380  37.505  24.541   0.657
60840W        W27381  14.350  41.825   1.876
60841W        W27382  23.157  30.684  10.892
60842W        W27383  19.700  16.906   4.506
60843W        W27384  35.455  10.182  13.806
60844W        W27385  22.445  41.576  14.028
60845W        W27386  16.642  24.578  13.077
60846W        W27387  14.680  27.284   1.286
60847W        W27388  36.478  28.610   3.775
60848W        W27389   7.619  10.174  11.134
60849W        W27390   7.027  25.304  12.442
60850W        W27391  13.094   0.915   2.218
60851W        W27392  44.394  14.826  11.954
60852W        W27393  38.541  24.198  13.821
60853W        W27394  31.969  10.897  14.399
60854W        W27395  16.217  12.093  14.337
60855W        W27396  34.656  40.977   0.398
60856W        W27397  13.125   7.502   2.253
60857W        W27398  37.894  24.921   4.336
60858W        W27399  22.464  25.988  11.241
60859W        W27400  40.260  36.162  13.896
60860W        W27401  32.593   7.763  12.826
60861W        W27402  42.988  31.893   0.794
60862W        W27403  15.391   2.492   4.614
60863W        W27404  31.350  17.360   4.142
60864W        W27405  16.838  29.100   2.757
60865W        W27406  38.262  22.644  13.395
60866W        W27407  29.213  11.192   3.770
60867W        W27408  29.160  38.936   0.465
60868W        W27409  19.289  18.729   5.132
60869W        W27410  10.231  34.941   4.759
60870W        W27411  11.863  35.297   2.919
60871W        W27412   5.486   0.701   2.858
60872W        W27413  41.353  33.627  13.528
60873W        W27414  42.513  36.512  14.016
60874W        W27415  42.711  23.302  13.357
60875W        W27416  23.866   5.376   3.887
60876W        W27417  34.942   4.764  11.505
60877W        W27418  35.100  44.700   0.349
60878W        W27419  37.424  28.878  12.590
60879W        W27420  18.145   5.472   3.727
60880W        W27421  27.301  27.993  13.996
60881W        W27422  32.017  43.376  12.138
60882W        W27423  18.574   7.700   1.200
60883W        W27424  18.739   2.311  11.204
60884W        W27425  14.609  23.783   2.859
60885W        W27426   9.247   6.656  10.641
60886W        W27427   6.881  13.633  11.719
60887W        W27428  10.704  41.536   1.815
60888W        W27429  29.556   3.876  10.695
60889W        W27430  32.975   8.921   3.674
60890W        W27431  38.533  31.998   2.376
60891W        W27432  42.412  35.570   1.818
60892W        W27433  40.566  31.512   1.762
60893W        W27434  14.603  30.606   0.373
60894W        W27435  14.697  44.736   4.593
60895W        W27436  36.323  35.053   3.215
60896W        W27437  35.545   9.240   2.805
60897W        W27438  22.282  27.021  11.137
60898W        W27439  34.506   0.811   0.700
60899W        W27440  14.694   3.870   2.882
60900W        W27441  11.516  13.355  11.256
60901W        W27442  29.440  20.933  13.811
60902W        W27443  22.917  28.638   2.523
60903W        W27444  15.215  37.333   2.444
60904W        W27445  33.873  14.473   1.222
60905W        W27446  37.097  14.796  11.219
60906W        W27447   2.744  41.657   2.513
60907W        W27448  39.939   3.770   3.442
60908W        W27449  27.586  37.389  14.289
60909W        W27450  10.337  36.189  11.109
60910W        W27451  42.314  19.044  13.357
60911W        W27452  17.310  15.344   5.085
60912W        W27453   8.596   4.888  13.900
60913W        W27454  19.046  28.175   0.321
60914W        W27455   2.508  12.806  12.076
60915W        W27456   5.252  42.490   2.394
60916W        W27457  10.563   2.010   4.246
60917W        W27458  33.581  27.734  14.447
60918W        W27459  33.471  15.126  13.313
60919W        W27460  32.577  33.371   4.091
60920W        W27461  44.374  16.225  14.009
60921W        W27462  40.111  11.410  13.174
60922W        W27463  30.719  28.944   3.044
60923W        W27464   0.793  31.592  13.058
60924W        W27465  38.992  36.577   4.496
60925W        W27466  31.419  31.925  10.657
60926W        W27467  15.626   8.859  11.984
60927W        W27468  27.489  23.308   4.501
60928W        W27469  19.992  23.338  12.830
60929W        W27470   2.725  26.839  12.099
60930W        W27471   0.748   6.303   1.921
60931W        W27472  16.287  36.406  14.471
60932W        W27473  43.755  25.954   3.775
60933W        W27474  38.436  26.155  14.858
60934W        W27475  18.277  34.899  10.739
60935W        W27476   7.956   2.413  14.269
60936W        W27477  24.046  12.332   0.877
60937W        W27478  25.252  14.229   1.226
60938W        W27479  27.426  15.487   1.175
60939W        W27480  14.637   9.611  12.949
60940W        W27481  12.051  39.097   0.181
60941W        W27482   8.286   5.719   0.722
60942W        W27483  28.582  31.163   1.168
60943W        W27484  36.646   5.166   0.414
60944W        W27485  23.848  22.365  14.126
60945W        W27486  42.628  14.503  10.052
60946W        W27487  32.511  16.583   4.291
60947W        W27488  36.969  38.535  11.996
60948W        W27489  28.185  25.353  14.243
60949W        W27490  30.496  40.834  11.380
60950W        W27491   5.672  37.387   2.140
60951W        W27492   5.546  41.655   4.990
60952W        W27493  38.389   6.998  11.693
60953W        W27494   5.974   4.958   3.848
60954W        W27495  32.983  27.708  12.684
60955W        W27496  23.363  11.540  11.461
60956W        W27497  28.395  18.034   2.164
60957W        W27498   0.811   0.281  13.062
60958W        W27499  44.002   2.912  10.649
60959W        W27500   5.601  23.016   4.330
60960W        W27501   4.285  39.740  13.926
60961W        W27502  23.314  15.815   3.178
60962W        W27503  21.084  27.161  10.699
60963W        W27504  20.158  29.628  11.990
60964W        W27505  19.202   0.524  14.412
60965W        W27506  26.058  41.764   1.870
60966W        W27507  44.671  21.637   3.039
60967W        W27508  31.523  32.017  13.816
60968W        W27509  16.157  29.856  11.569
60969W        W27510  44.915  42.944   2.402
60970W        W27511  40.402  26.085  13.003
60971W        W27512  21.556  24.614   2.330
60972W        W27513  38.000  34.943  10.753
60973W        W27514   7.902   3.674  14.975
60974W        W27515  24.795  26.095  12.894
60975W        W27516  43.759  35.374   1.854
60976W        W27517   8.234  12.750   4.119
60977W        W27518   4.044  18.127  13.399
60978W        W27519  13.190  39.638   3.231
60979W        W27520  27.303  19.513   2.035
60980W        W27521  22.971  20.680   2.206
60981W        W27522   8.201  41.063   9.952
60982W        W27523  12.266  32.098  11.669
60983W        W27524  20.253   6.280  13.421
60984W        W27525  41.489  21.695  13.645
60985W        W27526  34.223  10.412  12.869
60986W        W27527   0.944  11.727   0.209
60987W        W27528   7.646  42.450  12.401
60988W        W27529  22.164  30.974   2.423
60989W        W27530   9.295  33.011  11.664
60990W        W27531  20.350   6.182   2.251
60991W        W27532  26.556   4.726   1.663
60992W        W27533  24.218  42.509  12.192
60993W        W27534   3.024  22.365   3.688
60994W        W27535   9.802  44.767  13.895
60995W        W27536  26.061  18.777   3.765
60996W        W27537  15.327  14.252   2.201
60997W        W27538  19.493   1.624  10.342
60998W        W27539   2.001   0.514   3.199
60999W        W27540   2.738  29.609  11.531
61000W        W27541  31.638  42.806  10.539
61001W        W27542  29.865  12.814  14.185
61002W        W27543   4.973  27.730  13.067
61003W        W27544  36.055  23.918  11.061
61004W        W27545  18.589  19.954  14.454
61005W        W27546  36.593  12.322  11.556
61006W        W27547  10.733   0.989   3.109
61007W        W27548  32.533   5.309   0.489
61008W        W27549  33.195  42.791   4.761
61009W        W27550   9.542  26.953  13.845
61010W        W27551  26.125  28.457  12.489
61011W        W27552  37.880   3.230   1.265
61012W        W27553   5.812  27.098   0.937
61013W        W27554  39.782   4.395  14.711
61014W        W27555  39.376  29.107  10.899
61015W        W27556  15.091  34.732  12.629
61016W        W27557   4.522  43.122   4.063
61017W        W27558  36.299  23.007   2.626
61018W        W27559  39.127  21.638  14.171
61019W        W27560  39.637  25.485   1.650
61020W        W27561  42.087  26.398   1.641
61021W        W27562  12.895  16.784  11.906
61022W        W27563  23.609  36.154  11.991
61023W        W27564  40.898  16.651   0.874
61024W        W27565   0.315  33.039   3.927
61025W        W27566  32.148  37.028  14.698
61026W        W27567  17.106   1.770   0.412
61027W        W27568   6.353  33.986  13.503
61028W        W27569  14.687  40.461  14.512
61029W        W27570  30.694  44.470   1.735
61030W        W27571  34.857  10.797   3.043
61031W        W27572  41.315  13.329  12.010
61032W        W27573  24.854  15.583  14.407
61033W        W27574  17.304  44.517  10.455
61034W        W27575  31.593  27.060   0.444
61035W        W27576   0.036   4.182  11.677
61036W        W27577  42.524  21.185   3.754
61037W        W27578  33.654  19.144   4.746
61038W        W27579  41.816  11.369   1.606
61039W        W27580  15.521  20.126  12.898
61040W        W27581  44.261  12.613   3.123
61041W        W27582  19.488  30.618   0.767
61042W        W27583  25.589  43.536  12.852
61043W        W27584  33.999  12.437  12.336
61044W        W27585  43.428  35.446   3.809
61045W        W27586  25.679  21.654   0.041
61046W        W27587  31.135  10.279   4.641
61047W        W27588  40.495   2.855   1.225
61048W        W27589   5.929   1.275  14.910
61049W        W27590  19.238  37.254   2.774
61050W        W27591  23.689   2.095  11.362
61051W        W27592  12.227   1.697   2.917
61052W        W27593  37.965  36.639   2.172
61053W        W27594   5.888  33.751   3.677
61054W        W27595  36.360   5.266  12.982
61055W        W27596  15.506  22.298  13.061
61056W        W27597  14.690   8.937   1.586
61057W        W27598   0.264   3.840  13.370
61058W        W27599  43.286  42.234  14.994
61059W        W27600  19.672  11.612  13.930
61060W        W27601   4.351  41.408  13.423
61061W        W27602   4.645   4.784   0.776
61062W        W27603  35.219  20.693   3.656
61063W        W27604   0.881  30.096  11.055
61064W        W27605   2.464  37.955  13.303
61065W        W27606   9.771  19.689   0.376
61066W        W27607  40.169   5.273  11.167
61067W        W27608  36.517  29.670  10.774
61068W        W27609  26.007   7.658  14.361
61069W        W27610  25.244  32.157   3.840
61070W        W27611  15.399  39.904   1.666
61071W        W27612  44.341   9.567  12.018
61072W        W27613  40.763  11.005  10.682
61073W        W27614   7.176  42.987  13.128
61074W        W27615   5.128  39.266   5.025
61075W        W27616  24.973  21.733  12.794
61076W        W27617  10.428  38.248   4.991
61077W        W27618   2.449   3.406   0.039
61078W        W27619  30.707   7.531  14.870
61079W        W27620  31.710   3.280   2.397
61080W        W27621  42.675  13.597  11.118
61081W        W27622  13.555  22.558   0.259
61082W        W27623  35.099  22.032  13.838
61083W        W27624   7.663   4.431  12.414
61084W        W27625   1.236   0.440   4.541
61085W        W27626  33.816  42.563  11.480
61086W        W27627  10.788  26.990  14.405
61087W        W27628  14.736  14.307   1.922
61088W        W27629  13.257   6.381   3.847
61089W        W27630   6.414  23.998   4.949
61090W        W27631   1.426  26.755  12.863
61091W        W27632  11.957  35.367  14.859
61092W        W27633  27.149  15.365  11.656
61093W        W27634  44.653   0.789   3.192
61094W        W27635  39.576  20.738  11.105
61095W        W27636  22.254  17.379  11.173
61096W        W27637  36.100  21.619  12.382
61097W        W27638  15.101   5.385  13.890
61098W        W27639  16.089  10.928  10.650
61099W        W27640  13.670  21.121  14.674
61100W        W27641   9.157  14.620   1.389
61101W        W27642   0.649  29.150   2.608
61102W        W27643  12.917  23.147   2.319
61103W        W27644  28.014  19.039  14.910
61104W        W27645  30.184  37.768   3.677
61105W        W27646  21.025  42.864  13.623
61106W        W27647   4.354  16.117   4.740
61107W        W27648  44.423  43.705  10.547
61108W        W27649   6.389  32.554   1.713
61109W        W27650  11.543  22.774   0.907
61110W        W27651  24.018  12.595  13.308
61111W        W27652  30.529   0.600   4.815
61112W        W27653  13.211  44.518   0.948
61113W        W27654   2.285  32.051  13.384
61114W        W27655   4.852   6.709   4.921
61115W        W27656  36.000  27.928  10.643
61116W        W27657  24.890   3.928  10.562
61117W        W27658   8.115  17.206   4.556
61118W        W27659   1.203  33.829  13.321
61119W        W27660  41.567  28.214   2.076
61120W        W27661  13.164  41.111  14.976
61121W        W27662  44.106  30.897  12.898
61122W        W27663  27.683  35.022   3.353
61123W        W27664  34.472  10.400  11.429
61124W        W27665  19.735  31.159  11.275
61125W        W27666  14.379  43.827   0.426
61126W        W27667  13.415  38.782  12.333
61127W        W27668  16.067  19.527   2.793
61128W        W27669  29.918  34.785   0.005
61129W        W27670   7.396   1.074   2.153
61130W        W27671  30.632  10.136   0.212
61131W        W27672  21.300  15.198   2.527
61132W        W27673   2.888   9.186   2.346
61133W        W27674  39.551  13.670   0.336
61134W        W27675  32.080  24.670  11.575
61135W        W27676   8.270   3.754  14.061
61136W        W27677   0.011  28.583  12.931
61137W        W27678  37.074  18.197   3.659
61138W        W27679  10.481   5.599   4.981
61139W        W27680  22.480  23.009   1.908
61140W        W27681   4.216  36.061   4.737
61141W        W27682  30.610  11.114   2.813
61142W        W27683  19.099  31.135  13.845
61143W        W27684  36.922  34.004  12.543
61144W        W27685  40.164  31.678   2.844
61145W        W27686  27.172  29.036  10.396
61146W        W27687  34.551  43.988   3.326
61147W        W27688  35.356  42.329   4.151
61148W        W27689  34.491  19.338  14.328
61149W        W27690  16.926  17.166   3.577
61150W        W27691  27.147  16.580   2.287
61151W        W27692  30.656  17.711   4.375
61152W        W27693  42.954   0.347   0.072
61153W        W27694   2.593  10.648  10.905
61154W        W27695  43.074  43.044  10.324
61155W        W27696  21.524  26.416  12.454
61156W        W27697  16.590  38.022   2.839
61157W        W27698  19.569  38.049   2.554
61158W        W27699  19.462  38.053  11.971
61159W        W27700  34.068  32.886   0.890
61160W        W27701   5.478  37.630  13.909
61161W        W27702  41.807  40.374  12.581
61162W        W27703  38.683  44.858   2.031
61163W        W27704  30.948  25.830   3.553
61164W        W27705  24.855   3.537  14.659
61165W        W27706  17.882  37.097  10.593
61166W        W27707   1.531  17.860   1.438
61167W        W27708  37.192  29.254  12.960
61168W        W27709   4.019  28.018  13.330
61169W        W27710  40.881   4.779  10.432
61170W        W27711  22.122   1.298   2.370
61171W        W27712  37.137  31.512  10.647
61172W        W27713  33.465  12.174   2.203
61173W        W27714  41.326   1.692  12.589
61174W        W27715  35.486  13.849   1.180
61175W        W27716  36.300   9.781   1.487
61176W        W27717  21.414  14.011  14.051
61177W        W27718  21.048  20.341  14.386
61178W        W27719   1.403  38.057  13.922
61179W        W27720  17.602  30.502   3.496
61180W        W27721   5.723  26.106   0.807
61181W        W27722  37.003  34.622   0.274
61182W        W27723  43.062  43.445   2.610
61183W        W27724  32.939  31.405  14.091
61184W        W27725  12.704  34.051  10.510
61185W        W27726  25.067  14.602  13.559
61186W        W27727  42.833  17.678  11.194
61187W        W27728  19.511  26.486   4.669
61188W        W27729  39.848  35.728   2.444
61189W        W27730  25.157  37.761  11.916
61190W        W27731  20.473  30.583  12.403
61191W        W27732  21.556  24.994   1.970
61192W        W27733  18.267   1.307   0.370
61193W        W27734  18.678  22.846  14.068
61194W        W27735  15.544  19.737   3.720
61195W        W27736  26.963   5.845  12.887
61196W        W27737   9.681  16.151  13.669
61197W        W27738  38.600  22.689  12.039
61198W        W27739  11.926  36.079  14.442
61199W        W27740  41.080   8.861   0.789
61200W        W27741  21.211  43.312  11.627
61201W        W27742  28.328  24.929  14.512
61202W        W27743   2.760  31.406   1.746
61203W        W27744  44.420   8.192  11.457
61204W        W27745  30.191   7.427  11.161
61205W        W27746   6.252  12.956   0.013
61206W        W27747  37.443  44.372  11.434
61207W        W27748  27.560   9.714   1.256
61208W        W27749  29.896  33.179  11.560
61209W        W27750  37.317   2.472   3.128
61210W        W27751  32.331  24.179  14.771
61211W        W27752  26.175  35.463  14.793
61212W        W27753  11.350   7.928  11.075
61213W        W27754  13.437  42.479  13.346
61214W        W27755  25.122  16.549  14.243
61215W        W27756  38.366  44.692   0.692
61216W        W27757  32.614  11.335  13.141
61217W        W27758  10.732   4.247   3.704
61218W        W27759   6.461  15.617  14.976
61219W        W27760  25.058   8.350   1.029
61220W        W27761  16.027  20.530   4.635
61221W        W27762  22.985   2.539   4.550
61222W        W27763  18.616  17.686   3.404
61223W        W27764  41.855  39.559   3.592
61224W        W27765  15.248   6.355  12.724
61225W        W27766  43.880  35.447   1.344
61226W        W27767  38.922  20.679   4.860
61227W        W27768  30.101  10.610   3.970
61228W        W27769   5.750  14.845   1.901
61229W        W27770  27.171  42.921   3.128
61230W        W27771  29.062   0.917  14.859
61231W        W27772   8.105  41.362  13.845
61232W        W27773  21.716  31.733   3.360
61233W        W27774  20.476  21.682   0.862
61234W        W27775  16.073  44.964   2.824
61235W        W27776  26.718  10.829   0.366
61236W        W27777  24.706  27.232  14.522
61237W        W27778  39.011  29.587   3.581
61238W        W27779   7.988   9.955   4.195
61239W        W27780  17.791   5.007  11.148
61240W        W27781  41.349  33.073   2.602
61241W        W27782  40.739  16.082  14.882
61242W        W27783  44.473  32.093   4.223
61243W        W27784  13.055  12.884   3.202
61244W        W27785  40.619  37.180   1.601
61245W        W27786  42.860  44.403  11.926
61246W        W27787   2.198  20.443  10.688
61247W        W27788  34.977  31.103  12.962
61248W        W27789  42.314  18.145   2.439
61249W        W27790   2.204  10.212  11.735
61250W        W27791  13.153  36.057  12.680
61251W        W27792   6.150  34.593  14.280
61252W        W27793  14.077  26.586   3.582
61253W        W27794  25.520  21.670  12.724
61254W        W27795  44.218   7.429  12.346
61255W        W27796  32.828  22.539   3.251
61256W        W27797   3.947   2.845   3.939
61257W        W27798   3.169  13.634   0.912
61258W        W27799  17.719   7.789   3.498
61259W        W27800  44.013   1.851  11.190
61260W        W27801   9.590  12.816   2.289
61261W        W27802   6.748  33.469   1.517
61262W        W27803  33.280  34.347  13.399
61263W        W27804   9.080   5.816   0.714
61264W        W27805  24.713  41.275   2.347
61265W        W27806  41.599  42.831   3.141
61266W        W27807  33.941  37.413   3.512
61267W        W27808  27.525   3.702   1.868
61268W        W27809  33.404  10.920  14.310
61269W        W27810   0.310   5.302   3.639
61270W        W27811  26.691  37.303   0.076
61271W        W27812  40.490  18.528  10.696
61272W        W27813  38.796  42.604  11.975
61273W        W27814  30.466   6.786  11.608
61274W        W27815   9.253  41.289  13.004
61275W        W27816  38.728  42.832   2.265
61276W        W27817  41.720  44.344  11.225
61277W        W27818  12.557  28.590   0.249
61278W        W27819  17.100  24.143   2.891
61279W        W27820  35.538   7.239  14.080
61280W        W27821  18.095  10.295  11.136
61281W        W27822  43.061  44.999  14.326
61282W        W27823  32.655  21.506   4.117
61283W        W27824  21.684  28.966  10.767
61284W        W27825  23.942   7.333  13.854
61285W        W27826  24.973   6.247   9.866
61286W        W27827  11.743  43.380   3.919
61287W        W27828  10.248   6.916   0.883
61288W        W27829   0.949  15.761  12.489
61289W        W27830  19.742   4.970  13.421
61290W        W27831  43.127   8.228   2.170
61291W        W27832  25.263  27.191   2.079
61292W        W27833  41.982   2.484  13.866
61293W        W27834  42.570  41.385  12.226
61294W        W27835  35.507  25.399   3.209
61295W        W27836  18.555  36.634   0.014
61296W        W27837  35.935  26.594  11.799
61297W        W27838  31.456  37.327  10.771
61298W        W27839  37.412  42.838   4.833
61299W        W27840  26.725  18.661   1.839
61300W        W27841  26.218  12.880  12.634
61301W        W27842  33.607  31.003  14.827
61302W        W27843  27.672   2.777  13.275
61303W        W27844  33.544  14.859   3.344
61304W        W27845  40.100  18.540  14.009
61305W        W27846  20.224  38.154   1.005
61306W        W27847   2.453  19.466  12.552
61307W        W27848  15.597  20.598   3.355
61308W        W27849  42.418  42.479  11.437
61309W        W27850  31.410  32.976   1.327
61310W        W27851  38.789  39.554   2.737
61311W        W27852  14.785  36.450  11.140
61312W        W27853  19.282  34.768  11.557
61313W        W27854   7.831  44.817   0.809
61314W        W27855  26.559  44.076   1.807
61315W        W27856  27.983   5.853  14.750
61316W        W27857   3.661  33.550  14.469
61317W        W27858  41.349  32.350   2.773
61318W        W27859  37.866   2.922   0.385
61319W        W27860  41.821  43.988   2.703
61320W        W27861  22.683  32.393  14.862
61321W        W27862  17.012   5.505  13.528
61322W        W27863  24.632  34.066  13.482
61323W        W27864   5.806  44.744  12.115
61324W        W27865   1.946  39.659  13.636
61325W        W27866  32.005   4.874   4.557
61326W        W27867  12.103  39.594  12.523
61327W        W27868  21.698   3.315   1.855
61328W        W27869  28.989   3.830  10.778
61329W        W27870  36.437  34.089  14.309
61330W        W27871  24.847  31.384   4.218
61331W        W27872  37.167   2.282   9.703
61332W        W27873  40.693  23.312   4.905
61333W        W27874  19.465  17.281  10.162
61334W        W27875  17.170  34.916  12.524
61335W        W27876   8.418  20.728   3.912
61336W        W27877  43.940   4.792  11.099
61337W        W27878  11.337  10.129   3.980
61338W        W27879   6.319   9.601  13.420
61339W        W27880  38.402   2.369   4.065
61340W        W27881  33.068  37.392  13.882
61341W        W27882  36.188  30.570  14.452
61342W        W27883  13.002  29.095   0.912
61343W        W27884  42.396  26.646   2.818
61344W        W27885  24.038  18.491  14.353
61345W        W27886  11.657   4.923   1.757
61346W        W27887  23.696  37.617   1.775
61347W        W27888  22.258  24.639   4.154
61348W        W27889  11.752  10.555   2.337
61349W        W27890  29.499  25.346   9.650
61350W        W27891  21.141  33.516   4.585
61351W        W27892  16.215  40.945   4.064
61352W        W27893  31.122  28.179  11.694
61353W        W27894  10.420   1.151  11.197
61354W        W27895  29.475   7.900   3.588
61355W        W27896   4.108  11.283  14.792
61356W        W27897  41.539   9.243   3.121
61357W        W27898  15.131   6.361  14.753
61358W        W27899  17.284  13.236   0.873
61359W        W27900  28.069  24.492   2.177
61360W        W27901  29.702  21.884   1.914
61361W        W27902  36.041  23.541   2.656
61362W        W27903   9.248  28.985  10.730
61363W        W27904  26.744  43.429  11.676
61364W        W27905  25.695  14.658   2.791
61365W        W27906   5.896  13.716   0.937
61366W        W27907  32.440  44.177  14.816
61367W        W27908  24.033  41.525   1.804
61368W        W27909  39.734  15.857   1.193
61369W        W27910  11.001  13.313   3.187
61370W        W27911  39.498  12.589   4.504
61371W        W27912  27.131  33.478   0.206
61372W        W27913  31.734  28.684   0.712
61373W        W27914  13.357  32.722   0.980
61374W        W27915  19.986  28.627   4.807
61375W        W27916  21.633  22.535   0.970
61376W        W27917  27.386  22.618  12.393
61377W        W27918  40.051  38.042   4.240
61378W        W27919  27.154   3.765   4.862
61379W        W27920  13.825  32.624  12.873
61380W        W27921  42.345  44.338   1.984
61381W        W27922  13.186  41.623   0.115
61382W        W27923  25.475  43.793  11.806
61383W        W27924   4.665  40.000  11.809
61384W        W27925   8.888   6.726   2.200
61385W        W27926   8.565   2.796   4.821
61386W        W27927  30.954  42.028   3.044
61387W        W27928  20.305  13.428  14.800
61388W        W27929  23.839  15.558   2.504
61389W        W27930  17.428  35.611   0.536
61390W        W27931   5.492   9.936  13.817
61391W        W27932   1.886   6.596   3.479
61392W        W27933  34.234  10.165   4.607
61393W        W27934  17.675   8.491  14.815
61394W        W27935   9.507  18.978  14.422
61395W        W27936   7.508  21.010  14.302
61396W        W27937  15.347  39.788  12.876
61397W        W27938  14.892   1.909   4.056
61398W        W27939   3.309   8.383   2.179
61399W        W27940   7.408   4.698  13.564
61400W        W27941  24.506   5.878  13.273
61401W        W27942  35.243  33.393   5.145
61402W        W27943  32.057  30.367  13.267
61403W        W27944  16.827  32.445  11.363
61404W        W27945  16.798  25.733   0.100
61405W        W27946  10.122  44.558  12.440
61406W        W27947  42.795  39.227   4.609
61407W        W27948   9.245  12.767   3.251
61408W        W27949   9.164   6.293   0.878
61409W        W27950  18.929   2.985  11.937
61410W        W27951  40.514   3.267  12.934
61411W        W27952  24.685  40.147  13.652
61412W        W27953   0.534  24.112  14.533
61413W        W27954   7.107   5.422   2.330
61414W        W27955  29.671   7.059   3.152
61415W        W27956  26.634   8.740   1.618
61416W        W27957  35.797  31.854   3.679
61417W        W27958   1.719  10.030   0.774
61418W        W27959  42.745   3.910  13.122
61419W        W27960  10.670  13.813  12.976
61420W        W27961  10.807  39.386   1.926
61421W        W27962  27.490  27.230   1.767
61422W        W27963  31.774  13.105  13.423
61423W        W27964  35.461  30.923  12.556
61424W        W27965  13.244  25.779  13.926
61425W        W27966  14.293  33.989   4.785
61426W        W27967  42.151  34.950  12.853
61427W        W27968  25.335   5.093   0.308
61428W        W27969  25.975  35.995  11.692
61429W        W27970   1.042  34.004  12.877
61430W        W27971  15.521  23.303   4.223
61431W        W27972  12.764  34.526   2.590
61432W        W27973   7.858  31.570  14.002
61433W        W27974  27.943  11.650   2.500
61434W        W27975  22.196  41.570   2.762
61435W        W27976  36.809   7.385   5.037
61436W        W27977  36.955  27.487   0.284
61437W        W27978  43.926  44.928  10.633
61438W        W27979  19.011  43.930  10.455
61439W        W27980  25.182  42.069  11.192
61440W        W27981   3.509  12.867  13.828
61441W        W27982  29.601  36.533  14.552
61442W        W27983   0.384  13.112   0.389
61443W        W27984   0.610  18.633  13.866
61444W        W27985  11.635  19.268   1.906
61445W        W27986  35.610  40.898   4.629
61446W        W27987  17.988   8.329   4.686
61447W        W27988  30.686  19.143  11.621
61448W        W27989  43.795  12.581  11.462
61449W        W27990   7.805  28.203   2.310
61450W        W27991  21.262  30.071   0.347
61451W        W27992  41.032  34.421   2.915
61452W        W27993  29.077  26.062  11.982
61453W        W27994  11.309  30.014  10.845
61454W        W27995  26.891  21.104   4.551
61455W        W27996  18.310  36.871  11.597
61456W        W27997   0.581  42.526  13.907
61457W        W27998  18.997  40.361   0.270
61458W        W27999  13.231  39.365   2.386
61459W        W28000  16.651  42.548  11.982
61460W        W28001  23.141   9.867   0.939
61461W        W28002  35.305  22.607   3.093
61462W        W28003  27.497  30.467   2.316
61463W        W28004   4.913  14.068  13.040
61464W        W28005  13.885  35.002  13.539
61465W        W28006   4.919  19.018   1.798
61466W        W28007  36.644  13.718   2.127
61467W        W28008  22.083  30.047   2.333
61468W        W28009  11.823  10.448  11.521
61469W        W28010  38.106  24.700  13.409
61470W        W28011  26.046   2.945   3.301
61471W        W28012  17.191  16.228  11.459
61472W        W28013  29.413  10.129   4.282
61473W        W28014  43.050  38.542   4.201
61474W        W28015  35.911  39.915   1.122
61475W        W28016  22.931   1.719   2.796
61476W        W28017   4.201  43.959   4.369
61477W        W28018  38.258   1.859   2.374
61478W        W28019  18.726  13.139   9.965
61479W        W28020  28.540   3.805   2.762
61480W        W28021  20.469  20.090  14.429
61481W        W28022  30.467  32.476  14.239
61482W        W28023  28.127  25.185  10.725
61483W        W28024   7.907   9.430  11.655
61484W        W28025  43.952  34.876   1.444
61485W        W28026  11.432  12.748  10.699
61486W        W28027  24.616   8.727   1.808
61487W        W28028  19.174  39.086   4.329
61488W        W28029  36.993  22.845   2.292
61489W        W28030   0.972  34.369   1.368
61490W        W28031  11.138  30.585   3.767
61491W        W28032  24.397  44.181   4.205
61492W        W28033  18.020  26.571   2.114
61493W        W28034  21.202   4.831  14.955
61494W        W28035  13.132  27.609   1.353
61495W        W28036  19.318  44.589  12.378
61496W        W28037  19.827  11.788   2.074
61497W        W28038   9.333  16.671  12.535
61498W        W28039  22.548  21.245   1.845
61499W        W28040  11.540  33.493  13.525
61500W        W28041  20.387  43.611  11.953
61501W        W28042   6.876  12.163  13.741
61502W        W28043  43.560  25.309   1.196
61503W        W28044   6.120  39.604   2.382
61504W        W28045  17.702  19.382  14.839
61505W        W28046   2.336  40.358  12.634
61506W        W28047  35.953  10.006   1.904
61507W        W28048  38.028  16.905  10.287
61508W        W28049  43.113  38.903   4.926
61509W        W28050  40.120  26.119  13.445
61510W        W28051  44.591  11.202   4.464
61511W        W28052  10.559  40.636  14.753
61512W        W28053   4.360  12.708   4.310
61513W        W28054  13.211   6.345  14.990
61514W        W28055  30.134  37.935   4.661
61515W        W28056   2.332  41.285   0.424
61516W        W28057  39.861  16.815   3.696
61517W        W28058  44.520   2.410  12.031
61518W        W28059  36.873  34.901  14.765
61519W        W28060  21.821  21.792   3.958
61520W        W28061  35.953   2.023  10.168
61521W        W28062   7.726  40.473  14.912
61522W        W28063   3.873  32.447  12.095
61523W        W28064   0.893  42.658   4.193
61524W        W28065   3.164  22.465  12.854
61525W        W28066   6.356  10.135  13.407
61526W        W28067   8.707  39.974  12.019
61527W        W28068  41.896  39.405   2.359
61528W        W28069   6.298  20.439  13.836
61529W        W28070   7.898   9.443   4.232
61530W        W28071  15.152  16.712  14.735
61531W        W28072   6.388  25.207   3.260
61532W        W28073  26.444  33.135   1.503
61533W        W28074  35.727   3.525   4.523
61534W        W28075  15.044  25.737  13.907
61535W        W28076  35.984  20.035  13.975
61536W        W28077   5.406  35.514   2.591
61537W        W28078  20.007  12.257  13.442
61538W        W28079  11.156  37.283  12.903
61539W        W28080   0.740  14.073   5.123
61540W        W28081  39.617   1.842   4.495
61541W        W28082   2.514  40.352   0.218
61542W        W28083  14.177  11.494   4.752
61543W        W28084  43.412   7.268   3.404
61544W        W28085   5.215  13.778  14.712
61545W        W28086  13.653  44.306   3.861
61546W        W28087  21.997   7.963   2.433
61547W        W28088   6.624  44.698  11.653
61548W        W28089  42.144  11.550  14.830
61549W        W28090  33.366  13.252  11.676
61550W        W28091  26.153  42.526   0.262
61551W        W28092  25.011  31.132   1.434
61552W        W28093   0.036  13.241   2.292
61553W        W28094  21.451  43.316  11.167
61554W        W28095  27.940  13.982   2.706
61555W        W28096  21.766  22.233  14.733
61556W        W28097   3.477  40.415  11.601
61557W        W28098  38.524  37.876   2.352
61558W        W28099  13.015  15.821  10.544
61559W        W28100  10.173   9.789  10.821
61560W        W28101  30.470   2.500  14.484
61561W        W28102  15.469  36.445   3.251
61562W        W28103  32.180  38.141   2.764
61563W        W28104  42.740  29.321  11.114
61564W        W28105  29.711  20.089   3.338
61565W        W28106  31.461   1.440   3.762
61566W        W28107   2.929  29.941  11.147
61567W        W28108  22.528  43.486   1.803
61568W        W28109  24.093  18.635  11.989
61569W        W28110  13.017  13.282  11.173
61570W        W28111  37.894  13.273  13.941
61571W        W28112  34.905   2.522   3.595
61572W        W28113  10.236  20.465  13.267
61573W        W28114  32.644   9.514   2.866
61574W        W28115  21.704  11.135  11.054
61575W        W28116  32.431  38.394  11.195
61576W        W28117  11.765  27.224   1.365
61577W        W28118  10.659  29.981  12.611
61578W        W28119  31.843  26.104  13.599
61579W        W28120  12.726  21.990   3.790
61580W        W28121   3.035  39.228  11.015
61581W        W28122  35.392  44.850   2.919
61582W        W28123  26.579   9.192  11.334
61583W        W28124  41.098  29.253  11.088
61584W        W28125  42.789  31.874   1.292
61585W        W28126  29.799  14.015   3.873
61586W        W28127  20.594  33.912  11.934
61587W        W28128   5.279  14.902  11.978
61588W        W28129  41.113   8.058   2.685
61589W        W28130  15.073   3.292  10.577
61590W        W28131   9.985  41.408   1.100
61591W        W28132  33.505  21.397  14.276
61592W        W28133   0.844  27.638   1.401
61593W        W28134  14.851  14.099  13.059
61594W        W28135  30.280  26.230   2.413
61595W        W28136  31.605  15.529  13.441
61596W        W28137   8.288  13.479  14.576
61597W        W28138  44.447   8.596   9.972
61598W        W28139  18.839  33.465   3.983
61599W        W28140  12.154   6.245  11.532
61600W        W28141  27.591  41.465  11.514
61601W        W28142  28.103  28.473  14.412
61602W        W28143   0.712  10.332  14.672
61603W        W28144  40.105  13.842   2.332
61604W        W28145   5.485  36.373   2.674
61605W        W28146  13.360  28.933  11.125
61606W        W28147  25.473  18.842  14.013
61607W        W28148   6.110  11.055   0.264
61608W        W28149  35.379  31.474  13.423
61609W        W28150  14.396   5.771   1.369
61610W        W28151  11.659  22.260   1.004
61611W        W28152  32.027   3.760  14.397
61612W        W28153  10.916  29.250   2.079
61613W        W28154   1.777   1.753  12.499
61614W        W28155   5.983  21.018   0.137
61615W        W28156  35.922  20.992   1.823
61616W        W28157  41.765  14.771   3.080
61617W        W28158  36.303  13.862   2.954
61618W        W28159  25.204   3.334  11.514
61619W        W28160  30.447   3.296   3.727
61620W        W28161  16.080  16.626  13.763
61621W        W28162  16.032  12.239  12.625
61622W        W28163  23.730  22.992   4.617
61623W        W28164  23.210  31.540   4.293
61624W        W28165   3.831  11.654  12.076
61625W        W28166  30.023  33.659   3.126
61626W        W28167  18.777  17.742  13.909
61627W        W28168  25.944  32.368  13.587
61628W        W28169   0.770  19.305  14.523
61629W        W28170  25.086  20.140  13.135
61630W        W28171   5.279   7.683  14.395
61631W        W28172  32.538  43.630   2.664
61632W        W28173  26.088  35.139  12.519
61633W        W28174   0.020  26.176   2.873
61634W        W28175  39.664  16.332   3.619
61635W        W28176  33.963  35.069   1.607
61636W        W28177  12.302  35.062   3.126
61637W        W28178   6.370  39.772   2.927
61638W        W28179   5.657  13.356  13.293
61639W        W28180  43.278  32.459  14.950
61640W        W28181   9.442  37.966   2.652
61641W        W28182  44.520  27.186  14.420
61642W        W28183  40.432  39.286  12.618
61643W        W28184  26.127   1.311  11.165
61644W        W28185  15.113  26.651  14.320
61645W        W28186  36.311  25.783  11.193
61646W        W28187   9.969  17.567   2.276
61647W        W28188  44.024   6.805   0.255
61648W        W28189   3.671  14.797   3.701
61649W        W28190  31.860  23.203  13.843
61650W        W28191   0.157   5.525   4.790
61651W        W28192  10.351   0.073   3.268
61652W        W28193  44.472  44.778   3.720
61653W        W28194   4.660  21.735  13.257
61654W        W28195  26.929  33.982  13.445
61655W        W28196  22.376  22.966  13.042
61656W        W28197   2.930  44.020  11.044
61657W        W28198  24.677  44.302  13.480
61658W        W28199  36.697   6.857   5.080
61659W        W28200  25.549  19.229  14.695
61660W        W28201   5.025   8.688  14.315
61661W        W28202  44.014  11.350   1.761
61662W        W28203  11.413  41.298   2.263
61663W        W28204  19.144  10.142   2.802
61664W        W28205   5.929   5.978   4.585
61665W        W28206  22.198  36.124  11.691
61666W        W28207  42.517   3.354   4.681
61667W        W28208   5.736  34.303  14.316
61668W        W28209  13.895   8.628  11.543
61669W        W28210  20.765  42.026  11.131
61670W        W28211  26.453   1.176  12.086
61671W        W28212  21.599  15.026   1.365
61672W        W28213  10.916   6.589  11.138
61673W        W28214  43.430   6.557  14.474
61674W        W28215  14.385  34.833  10.689
61675W        W28216  10.053  38.214   5.405
61676W        W28217  13.094  42.535  12.138
61677W        W28218  39.311  17.105  10.560
61678W        W28219  16.391  10.666  12.134
61679W        W28220  43.839  33.223  12.127
61680W        W28221  28.019   6.023   2.416
61681W        W28222  26.465  38.520   4.796
61682W        W28223  15.219  14.553  13.608
61683W        W28224  40.131  15.086   4.066
61684W        W28225  27.507  24.854   3.303
61685W        W28226   1.673  23.603  10.188
61686W        W28227  27.427   0.134  14.652
61687W        W28228  31.631  29.693  14.069
61688W        W28229  42.809  16.115  14.341
61689W        W28230  37.204  13.081   3.850
61690W        W28231  33.321  26.742   4.162
61691W        W28232   9.827  10.131  13.921
61692W        W28233  33.044  19.125   4.702
61693W        W28234  44.366  21.327  10.574
61694W        W28235  24.201  29.666  12.564
61695W        W28236   0.949  24.576   0.679
61696W        W28237  32.422  28.005   2.697
61697W        W28238  39.273  29.489   2.340
61698W        W28239  19.131   3.025  13.525
61699W        W28240  42.414  39.191  11.108
61700W        W28241  23.540   6.365   1.498
61701W        W28242  42.808  13.176   1.233
61702W        W28243  10.287  20.110  13.687
61703W        W28244  44.943  30.831   1.157
61704W        W28245   6.522   0.946  11.104
61705W        W28246  23.502   7.472  12.975
61706W        W28247  16.129  11.860  12.983
61707W        W28248  33.479   9.552  11.227
61708W        W28249  20.800  11.723   1.812
61709W        W28250  10.060  39.907   4.506
61710W        W28251  37.246  22.156   2.114
61711W        W28252  38.080  43.514  14.309
61712W        W28253  15.209  41.345  11.138
61713W        W28254   0.431  10.207   3.665
61714W        W28255  21.487  19.214   0.370
61715W        W28256  37.855  17.615  13.977
61716W        W28257  42.513   8.188  14.524
61717W        W28258  43.127  21.410  10.117
61718W        W28259  19.415   1.244  12.139
61719W        W28260   1.329   5.663   4.273
61720W        W28261   4.675  22.332   4.970
61721W        W28262  17.129  13.264   2.321
61722W        W28263  42.444  19.558   4.175
61723W        W28264  37.527  19.725  12.147
61724W        W28265   4.636  10.249   1.514
61725W        W28266  40.967   2.334   3.991
61726W        W28267  17.046  14.341  12.000
61727W        W28268   1.990  40.994  14.643
61728W        W28269   2.748  38.415   0.876
61729W        W28270   9.210  42.654   4.116
61730W        W28271  25.621  41.748  12.038
61731W        W28272   1.595  21.344   5.117
61732W        W28273  24.570  20.247   2.889
61733W        W28274  32.896  32.046  11.925
61734W        W28275  20.056  17.847   4.564
61735W        W28276  35.353   8.066   2.399
61736W        W28277  37.660  17.552  11.023
61737W        W28278  30.827  42.370   2.468
61738W        W28279  21.505  40.982   4.305
61739W        W28280   1.327  17.964  12.028
61740W        W28281  25.669  23.147  11.077
61741W        W28282  22.191  30.361  12.908
61742W        W28283  39.493  36.080  10.561
61743W        W28284  42.959  19.926  12.212
61744W        W28285  30.922  32.794   1.400
61745W        W28286  23.732  28.046   3.807
61746W        W28287  24.772  16.588  11.570
61747W        W28288  24.798  25.060   3.665
61748W        W28289   2.543   1.442  14.403
61749W        W28290   9.230  11.355   0.263
61750W        W28291   6.297  19.920   3.288
61751W        W28292  22.437   7.167  14.929
61752W        W28293  28.411   3.943   3.681
61753W        W28294   9.605  35.630  14.527
61754W        W28295  31.539   0.104   4.978
61755W        W28296  17.604  39.909  13.414
61756W        W28297  27.560  29.478   1.928
61757W        W28298  29.337  27.383   2.540
61758W        W28299  35.962  25.041  12.841
61759W        W28300  41.830  12.130  10.888
61760W        W28301  18.771  43.044  13.115
61761W        W28302   9.856  21.294   3.144
61762W        W28303  43.300  11.361  14.431
61763W        W28304   3.513  37.971  11.525
61764W        W28305  37.397  33.557   0.894
61765W        W28306  29.902  17.570   2.868
61766W        W28307  27.039  25.718  12.971
61767W        W28308  17.336  36.124   0.404
61768W        W28309  35.596  26.601   1.799
61769W        W28310  16.381  43.601  11.443
61770W        W28311  24.950  43.885  13.350
61771W        W28312   3.238  39.954   2.165
61772W        W28313   9.375  38.481   2.719
61773W        W28314  22.689  20.528   2.600
61774W        W28315  34.018  15.908  14.401
61775W        W28316  28.449  16.789  14.905
61776W        W28317  32.177   7.357   1.681
61777W        W28318  25.259  20.753  11.458
61778W        W28319  35.536   6.697  13.883
61779W        W28320   7.811  26.687  10.518
61780W        W28321   7.987  41.432   1.373
61781W        W28322   1.780  26.041   5.416
61782W        W28323  36.898  42.469  11.264
61783W        W28324   5.969  27.949   2.293
61784W        W28325  21.021   7.135   0.508
61785W        W28326  25.557  30.860  10.237
61786W        W28327  11.558   0.451  11.093
61787W        W28328  20.630  42.966  12.110
61788W        W28329   7.952  20.253  14.798
61789W        W28330  27.119  22.237  13.417
61790W        W28331  26.663  44.253  11.741
61791W        W28332  35.159  22.736  10.330
61792W        W28333  11.767  34.187   4.062
61793W        W28334  24.732   8.638  13.501
61794W        W28335  17.627   1.756  11.672
61795W        W28336   7.325  19.623  11.176
61796W        W28337  44.230  26.473   0.428
61797W        W28338  41.268   8.341   3.116
61798W        W28339  15.712  17.942  14.323
61799W        W28340  44.862   9.731  12.016
61800W        W28341  40.452  19.486   1.171
61801W        W28342  43.664  23.241  11.611
61802W        W28343  20.073  37.374   3.857
61803W        W28344  38.272  20.861   2.935
61804W        W28345  26.900  20.037  12.203
61805W        W28346  36.466  27.355   0.414
61806W        W28347  11.662  14.845   1.952
61807W        W28348  34.070  12.754  14.712
61808W        W28349   2.847  17.567  14.696
61809W        W28350  22.431  35.482  13.197
61810W        W28351  37.953  27.936  10.815
61811W        W28352   4.855  20.398  13.619
61812W        W28353  41.821  16.737   3.321
61813W        W28354  30.680  11.821  12.942
61814W        W28355   0.302  27.624  13.349
61815W        W28356   3.095  21.050   0.873
61816W        W28357  38.788  44.416   0.484
61817W        W28358  12.865  39.039  10.988
61818W        W28359  20.515   8.773   4.943
61819W        W28360  31.359   4.461   2.053
61820W        W28361  31.053  33.398  10.364
61821W        W28362  31.065   2.004   1.490
61822W        W28363   1.839  38.472   0.374
61823W        W28364  17.463  42.493   1.404
61824W        W28365  10.725   7.120  13.032
61825W        W28366  31.328  25.744   1.818
61826W        W28367   0.822  10.977   3.894
61827W        W28368  39.146   6.739   4.325
61828W        W28369  40.538   5.158  13.605
61829W        W28370  27.145  32.548   0.631
61830W        W28371   8.171   7.539   4.200
61831W        W28372   2.112  21.969   1.178
61832W        W28373  23.058  11.827  12.832
61833W        W28374  15.598  12.232   0.869
61834W        W28375   5.491  37.026   4.796
61835W        W28376  10.601  30.511  11.568
61836W        W28377  31.954   3.467   5.000
61837W        W28378   0.384   6.751  11.474
61838W        W28379  11.424   2.797   4.199
61839W        W28380  34.825   9.210  14.738
61840W        W28381  38.601  21.441   1.749
61841W        W28382  27.490  38.980   4.447
61842W        W28383  28.872  35.792   2.141
61843W        W28384   9.613  35.451   4.644
61844W        W28385  31.011   9.461   0.715
61845W        W28386  29.606  29.411   0.262
61846W        W28387   4.960  34.542   1.886
61847W        W28388   5.095  42.530  10.527
61848W        W28389  28.210  14.956   9.937
61849W        W28390  21.616  19.246  11.985
61850W        W28391  31.033  42.559  14.420
61851W        W28392  34.123  43.881   4.592
61852W        W28393  42.187   6.823   4.150
61853W        W28394  24.922  14.229  14.291
61854W        W28395  33.702  37.544   3.984
61855W        W28396  11.381  29.605  11.594
61856W        W28397  31.760  26.201   0.040
61857W        W28398   0.982  42.212   0.703
61858W        W28399  32.026  12.231   2.408
61859W        W28400  28.856  41.021  10.722
61860W        W28401  25.970   4.365   4.277
61861W        W28402  17.024  13.599   2.719
61862W        W28403  28.774  15.624   2.802
61863W        W28404  13.068  35.921   4.646
61864W        W28405  14.081  40.452   1.116
61865W        W28406  24.512  22.782   2.730
61866W        W28407  26.510  44.520  14.527
61867W        W28408  30.210  30.887   0.323
61868W        W28409  12.898  25.917  11.057
61869W        W28410  19.089  39.771  13.781
61870W        W28411  44.809  40.571  12.129
61871W        W28412  27.101  41.997   1.336
61872W        W28413   3.122  11.567  12.598
61873W        W28414  34.563  30.617   2.182
61874W        W28415   8.302   5.325  13.836
61875W        W28416  30.967  37.609   1.799
61876W        W28417  24.572  41.476   3.331
61877W        W28418  14.008  23.177   3.222
61878W        W28419  23.180  35.909  12.195
61879W        W28420   0.265  34.382   2.128
61880W        W28421  40.336  34.619   3.224
61881W        W28422  20.650  41.412   4.744
61882W        W28423  35.596  23.245  14.015
61883W        W28424  32.905  18.589  14.317
61884W        W28425  29.540  23.728   2.342
61885W        W28426   6.369  11.222  14.358
61886W        W28427  42.323  31.599   3.858
61887W        W28428   2.999  36.026  12.492
61888W        W28429  23.298  35.484  13.475
61889W        W28430  21.531   7.286   1.921
61890W        W28431  17.182  25.638  12.414
61891W        W28432  38.946   3.817  12.446
61892W        W28433   2.502  11.723   2.693
61893W        W28434  39.548  41.987  11.989
61894W        W28435  14.138   7.838   0.448
61895W        W28436  41.893   7.490   1.762
61896W        W28437   5.108  18.779   5.071
61897W        W28438  40.343  29.024   4.543
61898W        W28439   9.310  32.116   3.738
61899W        W28440  19.524   3.708   2.771
61900W        W28441  27.609  34.437  14.190
61901W        W28442  42.951  22.255   3.152
61902W        W28443  34.864   0.475  10.201
61903W        W28444  25.242  43.534  14.850
61904W        W28445  29.110  32.277   3.559
61905W        W28446   7.107  39.145  12.115
61906W        W28447  20.043  22.927   2.555
61907W        W28448   6.442   7.181   4.112
61908W        W28449  23.543   1.807  12.609
61909W        W28450  33.726   9.713   0.959
61910W        W28451   2.695  11.773  14.291
61911W        W28452  22.213  35.430   1.299
61912W        W28453  18.668  29.618  13.879
61913W        W28454  37.960  13.291   5.031
61914W        W28455  44.363  35.568  13.222
61915W        W28456  19.766  15.642   2.444
61916W        W28457   4.560  11.456   1.706
61917W        W28458  12.858  19.321  11.042
61918W        W28459  41.923  16.229   0.350
61919W        W28460  34.048  11.098  14.855
61920W        W28461  33.074   5.613   3.081
61921W        W28462  23.037   1.434  14.896
61922W        W28463  27.156  44.507   2.415
61923W        W28464   6.775   0.371   0.477
61924W        W28465  21.319  18.847  13.022
61925W        W28466  12.841   9.237  13.124
61926W        W28467  32.402  23.169  13.058
61927W        W28468  36.853  34.907  13.888
61928W        W28469  11.815  40.028  13.785
61929W        W28470  13.617  22.633  11.975
61930W        W28471  26.610   0.266  11.745
61931W        W28472   7.806  14.287   2.783
61932W        W28473  39.420  38.528  13.977
61933W        W28474  43.612  26.012   2.791
61934W        W28475  33.454  20.373   4.310
61935W        W28476  17.009   2.048  14.985
61936W        W28477  35.974   2.890   0.140
61937W        W28478  14.840   3.407   0.788
61938W        W28479  22.971  14.659  14.844
61939W        W28480   1.020  31.622  14.297
61940W        W28481  36.048  34.148   0.274
61941W        W28482  22.959  17.350   4.184
61942W        W28483  16.540  41.980  14.809
61943W        W28484  35.373  38.526   2.374
61944W        W28485  11.877  40.027   3.625
61945W        W28486  14.816  39.796   4.028
61946W        W28487  43.997  30.245   1.422
61947W        W28488   0.004   5.701   0.901
61948W        W28489  19.185  17.111  14.240
61949W        W28490  31.997  44.967  10.603
61950W        W28491  18.527  13.719  14.603
61951W        W28492  19.165  30.615  13.814
61952W        W28493  16.428  36.611  11.636
61953W        W28494  20.535   6.287   9.757
61954W        W28495   9.297  32.426   0.233
61955W        W28496   1.226   1.799   3.172
61956W        W28497   7.872  35.915  10.592
61957W        W28498  40.832  25.249   2.269
61958W        W28499   4.356   1.209  12.008
61959W        W28500  15.756   0.251   0.841
61960W        W28501  43.266  31.588   3.839
61961W        W28502  11.384  27.728   4.725
61962W        W28503  19.028   0.674   2.839
61963W        W28504   5.282  13.702   0.238
61964W        W28505  15.098  43.749   4.574
61965W        W28506   4.382   4.007   5.609
61966W        W28507  25.807  33.699   0.938
61967W        W28508  21.852  22.143  11.734
61968W        W28509   6.891  36.257  14.146
61969W        W28510   4.826  38.968   3.842
61970W        W28511  33.639  26.586  13.977
61971W        W28512  33.337  19.537   4.832
61972W        W28513   2.198  34.010   4.538
61973W        W28514  16.634  15.140  13.517
61974W        W28515  14.268  16.973  14.803
61975W        W28516   0.913  29.209  13.802
61976W        W28517  21.643  28.639   0.027
61977W        W28518  42.411  19.504   0.335
61978W        W28519  28.980   0.783  10.591
61979W        W28520   8.856  35.684   3.595
61980W        W28521  14.047  19.265   0.259
61981W        W28522  39.844   3.976  12.398
61982W        W28523  21.501  21.177   4.092
61983W        W28524  30.088  43.281  11.261
61984W        W28525  39.021  29.594  10.305
61985W        W28526  15.793  42.964   1.424
61986W        W28527  21.993   4.803  12.004
61987W        W28528  43.075   4.028   0.818
61988W        W28529   5.640  31.116   2.280
61989W        W28530   1.495   9.925  11.176
61990W        W28531  24.138  15.112   3.725
61991W        W28532   3.809  13.799  14.942
61992W        W28533  34.036  22.089  10.998
61993W        W28534   3.633  29.435  11.333
61994W        W28535  19.486   2.389  14.756
61995W        W28536  31.688  18.635   0.379
61996W        W28537  38.769  10.644   3.736
61997W        W28538  29.487  31.964  11.748
61998W        W28539   0.276  27.647   2.192
61999W        W28540   5.714  25.454  13.609
62000W        W28541  40.449   4.465  13.046
62001W        W28542  32.683  36.254  11.116
62002W        W28543  10.284  17.527   2.704
62003W        W28544  35.941  42.748  12.043
62004W        W28545   0.561  31.907  14.385
62005W        W28546  42.045  19.053  13.843
62006W        W28547   1.452  11.586   0.397
62007W        W28548  11.817  18.941   2.252
62008W        W28549  34.033   1.119   5.433
62009W        W28550  17.205   6.021   5.058
62010W        W28551  32.547  21.275  12.825
62011W        W28552  16.035  27.233   4.604
62012W        W28553   0.454  14.311  10.969
62013W        W28554   9.555   3.187   9.956
62014W        W28555  28.968   7.393  13.747
62015W        W28556   0.786  14.047   3.153
62016W        W28557  23.969  24.413  13.852
62017W        W28558  40.520  20.805   0.555
62018W        W28559  28.181  38.637  14.824
62019W        W28560  34.866  20.677   0.969
62020W        W28561   2.424   7.181   1.702
62021W        W28562  23.459  10.742  12.052
62022W        W28563  29.254  38.906   5.205
62023W        W28564  43.042  44.521  12.390
62024W        W28565  34.322  38.819   0.463
62025W        W28566  29.636  37.378  10.894
62026W        W28567  10.186  16.110  13.460
62027W        W28568  44.252  10.856   4.252
62028W        W28569  19.203   9.709   0.275
62029W        W28570  35.727   6.684   3.851
62030W        W28571   2.855  38.951   3.636
62031W        W28572  32.051   0.506   1.502
62032W        W28573   5.953  22.513  14.375
62033W        W28574  28.195  44.436   2.476
62034W        W28575  17.544  24.021   4.284
62035W        W28576   7.648  30.044  12.319
62036W        W28577  36.448  24.503  10.516
62037W        W28578   5.153  42.938   4.801
62038W        W28579  41.007  44.907  11.517
62039W        W28580   2.677  32.009   3.297
62040W        W28581  10.340  13.048   0.252
62041W        W28582   9.226  36.600  13.113
62042W        W28583  36.169  23.650   4.062
62043W        W28584  29.958  21.671  14.272
62044W        W28585  20.661  34.046  14.719
62045W        W28586  27.423  26.003  11.734
62046W        W28587  44.745  11.190  11.626
62047W        W28588  37.544   9.882  11.577
62048W        W28589  16.633  44.231   3.871
62049W        W28590   0.347  11.187  11.917
62050W        W28591  25.753  26.300  13.081
62051W        W28592  13.633   2.254   3.658
62052W        W28593  24.481   2.327   0.960
62053W        W28594  11.383  28.559   1.629
62054W        W28595  35.036  30.570   4.703
62055W        W28596  32.024   5.200  10.226
62056W        W28597  31.911  14.096   2.429
62057W        W28598  28.169  42.306  11.575
62058W        W28599  15.405  14.618   3.070
62059W        W28600   3.698  42.944   4.691
62060W        W28601  33.950   2.912  13.995
62061W        W28602  32.732  14.794   3.966
62062W        W28603   8.661  28.748  11.984
62063W        W28604  42.185  22.259  13.405
62064W        W28605   4.688  41.951  11.451
62065W        W28606  27.987  35.855  10.833
62066W        W28607  13.051  20.143  10.643
62067W        W28608  24.988  32.696  14.365
62068W        W28609  33.691  37.241  11.259
62069W        W28610   3.712  17.523   3.039
62070W        W28611  36.119  32.294   1.222
62071W        W28612   3.449  36.569   1.883
62072W        W28613  39.221  12.199   4.696
62073W        W28614  24.457   1.886   4.910
62074W        W28615  42.376  43.902  13.132
62075W        W28616  23.585  22.237   1.068
62076W        W28617  32.076  39.356  14.347
62077W        W28618   6.829  24.717   5.242
62078W        W28619  41.967  39.971   1.613
62079W        W28620  16.769   3.354   1.310
62080W        W28621   8.585  15.961   4.674
62081W        W28622  18.595  40.207  12.117
62082W        W28623   2.621  26.268  13.609
62083W        W28624   3.013  24.568   0.434
62084W        W28625  28.575   9.174  13.443
62085W        W28626  17.320   5.785   1.625
62086W        W28627  11.169  43.950  14.432
62087W        W28628  26.887  14.654   3.213
62088W        W28629  38.082  37.793   4.202
62089W        W28630  18.257  32.936  10.433
62090W        W28631  22.954  31.586   2.344
62091W        W28632  20.121  31.658   4.178
62092W        W28633   1.820  10.396  11.143
62093W        W28634  25.422   3.228   4.467
62094W        W28635  23.563  33.809   3.363
62095W        W28636   5.766  40.871  14.256
62096W        W28637   4.249  15.898  13.008
62097W        W28638  40.928  34.160   0.425
62098W        W28639  14.349   3.752   2.182
62099W        W28640  21.658  25.709  11.735
62100W        W28641   5.059  21.910  13.642
62101W        W28642  22.296  29.055   3.150
62102W        W28643  37.061  12.603  11.767
62103W        W28644   2.381  40.343   2.595
62104W        W28645  18.724   6.823   3.780
62105W        W28646   6.404   3.978  10.638
62106W        W28647  25.798  29.931   0.867
62107W        W28648  25.077  18.079   2.112
62108W        W28649  33.071  28.525  12.893
62109W        W28650  22.539   3.148   0.489
62110W        W28651  21.839   7.650  13.431
62111W        W28652   0.398  17.575   2.331
62112W        W28653  40.990   9.673   1.379
62113W        W28654  14.860  28.653  11.176
62114W        W28655  30.508  14.893   3.156
62115W        W28656  21.128  25.089   4.610
62116W        W28657   6.377   8.752   3.925
62117W        W28658  24.205  34.382   0.918
62118W        W28659  16.306  34.596   2.604
62119W        W28660   4.701  28.398  11.773
62120W        W28661   2.107  29.983   4.502
62121W        W28662  39.567  28.478   3.276
62122W        W28663   0.832  37.331   0.397
62123W        W28664  23.504  14.762  10.635
62124W        W28665  43.948   3.835   0.707
62125W        W28666  26.592  24.523   0.924
62126W        W28667  25.921  16.677  12.677
62127W        W28668  22.004   0.014  13.069
62128W        W28669  29.660   6.538   1.203
62129W        W28670   7.346  16.734  11.179
62130W        W28671  26.074  36.134   4.421
62131W        W28672  21.534  35.563  10.627
62132W        W28673  27.574  16.243   2.267
62133W        W28674  41.000  29.116  12.837
62134W        W28675   3.039  28.279   1.198
62135W        W28676  30.776   6.507  11.306
62136W        W28677  15.957  18.386  12.559
62137W        W28678  20.857   8.296  11.746
62138W        W28679  30.331  26.033   0.541
62139W        W28680  23.505  19.767   2.721
62140W        W28681  33.652  12.940  10.687
62141W        W28682  10.318  37.588   4.493
62142W        W28683  14.740  28.357  10.761
62143W        W28684  34.530  41.803  12.162
62144W        W28685  40.591  10.723   2.218
62145W        W28686  36.141  37.956  11.126
62146W        W28687  16.146  38.640  12.593
62147W        W28688  31.244  27.939   0.462
62148W        W28689  33.056   6.798  14.156
62149W        W28690  27.494   8.383   1.765
62150W        W28691  17.666   7.052  11.138
62151W        W28692  29.965   2.674   1.185
62152W        W28693  10.625  11.377  11.529
62153W        W28694   6.371   5.027   3.064
62154W        W28695  19.285  28.115   4.638
62155W        W28696  20.830  22.796   2.740
62156W        W28697   6.689  42.635  13.835
62157W        W28698   6.308  21.676   0.744
62158W        W28699   2.467  23.607  11.193
62159W        W28700  44.621  40.789   1.677
62160W        W28701  39.294  10.448   2.382
62161W        W28702  12.643  17.161  13.240
62162W        W28703  25.899  16.115   2.328
62163W        W28704  26.240  35.705   2.387
62164W        W28705   0.050  21.362  13.617
62165W        W28706  27.632  19.295  10.730
62166W        W28707  35.181  29.546  14.432
62167W        W28708  16.886  12.760  11.126
62168W        W28709  22.764  29.364  12.542
62169W        W28710   5.865   7.884  11.015
62170W        W28711  30.565   6.271  12.822
62171W        W28712  17.018  42.771   1.058
62172W        W28713  36.028  34.063  12.586
62173W        W28714  21.609  18.148  11.548
62174W        W28715  36.263  37.685  12.962
62175W        W28716  25.418   9.240  12.939
62176W        W28717   4.088  28.540  11.192
62177W        W28718  36.243  34.464  13.550
62178W        W28719  31.648  41.314   3.767
62179W        W28720  39.536  11.848  11.113
62180W        W28721  36.864  24.161   3.640
62181W        W28722  37.996  44.437   3.400
62182W        W28723  37.044  22.772  11.139
62183W        W28724  38.587  39.449  14.800
62184W        W28725   4.497  18.729  13.834
62185W        W28726  14.630  22.727   2.789
62186W        W28727  24.959  20.402   0.969
62187W        W28728  43.917   2.193  10.818
62188W        W28729  26.101  43.526   0.337
62189W        W28730  23.790  17.956  14.276
62190W        W28731  11.876  12.045  13.443
62191W        W28732  10.482  15.093  13.473
62192W        W28733  10.376  16.229   3.547
62193W        W28734  22.603  37.956  13.842
62194W        W28735  24.551  30.403  13.973
62195W        W28736   5.430  30.858   9.610
62196W        W28737  30.016  24.429   1.334
62197W        W28738  10.741  27.170   1.295
62198W        W28739  16.187  27.728   4.553
62199W        W28740   0.724  33.137   4.202
62200W        W28741   5.988   4.315  10.596
62201W        W28742   5.313  31.948  14.071
62202W        W28743  33.542  16.260   1.153
62203W        W28744  13.666  16.996   3.305
62204W        W28745  11.805  19.461   2.350
62205W        W28746   5.279  32.663  11.379
62206W        W28747  17.182  28.614   1.330
62207W        W28748  27.064  16.006  12.683
62208W        W28749  24.939  27.212   4.571
62209W        W28750  38.859   5.326  14.016
62210W        W28751  43.425  20.797   0.220
62211W        W28752  37.456  28.204  13.980
62212W        W28753  12.583   1.629   2.517
62213W        W28754   5.689  38.975  13.408
62214W        W28755  30.601  29.068  11.218
62215W        W28756  26.570  14.317  14.254
62216W        W28757  27.105  38.195  14.677
62217W        W28758   6.746  37.561   3.338
62218W        W28759   5.174  27.273   3.696
62219W        W28760  36.253  29.075   2.341
62220W        W28761  12.200  44.521  12.838
62221W        W28762  44.571  41.787   0.369
62222W        W28763  43.888  27.653  14.644
62223W        W28764  13.999  18.618  11.725
62224W        W28765  24.756  23.497  14.751
62225W        W28766   4.317  17.982   1.183
62226W        W28767   8.068   3.129  11.201
62227W        W28768  28.530   3.950  14.032
62228W        W28769  31.002  24.284   3.819
62229W        W28770  39.306  25.740  10.939
62230W        W28771   3.281   8.948  12.894
62231W        W28772  44.378  11.153  12.902
62232W        W28773  21.376  39.983   2.258
62233W        W28774  39.928  26.125   2.162
62234W        W28775  19.707   7.394   4.779
62235W        W28776  39.044   9.663   3.346
62236W        W28777  39.896   4.385   0.208
62237W        W28778  23.576  11.338   2.345
62238W        W28779  32.249  26.129  10.755
62239W        W28780   7.600  34.923  12.899
62240W        W28781   2.346  19.237  13.357
62241W        W28782  23.979  31.613  14.004
62242W        W28783  33.836  26.646   4.023
62243W        W28784  29.734  11.045  11.545
62244W        W28785  20.238  18.370   4.663
62245W        W28786   7.388  14.446   3.714
62246W        W28787  14.196   0.049  14.877
62247W        W28788   9.364  21.521   1.873
62248W        W28789   7.651  17.564  10.509
62249W        W28790   9.459  30.236  11.931
62250W        W28791  26.553  40.702   1.324
62251W        W28792  12.775  36.794  12.656
62252W        W28793  28.082  17.990  11.977
62253W        W28794   4.694  44.087   0.284
62254W        W28795  19.626  44.030   2.748
62255W        W28796  22.004  43.195  13.483
62256W        W28797  43.768  37.810   0.344
62257W        W28798  26.266  22.982  13.987
62258W        W28799  26.152   0.279  14.212
62259W        W28800   6.461  10.762  12.117
62260W        W28801   4.808  22.085   4.546
62261W        W28802  29.137  20.631   2.005
62262W        W28803  36.365  17.221  14.402
62263W        W28804  38.957   6.688   2.954
62264W        W28805  16.186  38.659  14.477
62265W        W28806  38.212  36.473  10.562
62266W        W28807  44.548  27.923   2.949
62267W        W28808   4.776  27.438  11.702
62268W        W28809  19.317  41.373  12.714
62269W        W28810   0.986  15.016  14.503
62270W        W28811  32.517   3.028  11.981
62271W        W28812  18.134  13.315   4.945
62272W        W28813   6.939  42.870   1.790
62273W        W28814  33.458  27.469  11.878
62274W        W28815  34.501   2.404   0.604
62275W        W28816   0.998  13.217   4.477
62276W        W28817  30.563  35.854   2.818
62277W        W28818  41.185  23.601   4.277
62278W        W28819  18.294   0.813   2.893
62279W        W28820  27.142  14.834  11.216
62280W        W28821  28.518  23.003  13.996
62281W        W28822  32.651  39.541   3.170
62282W        W28823  23.483  36.600   1.785
62283W        W28824  19.560  23.243   0.295
62284W        W28825  23.020   5.746  10.773
62285W        W28826  11.185   6.098  11.099
62286W        W28827   0.964  21.239  10.681
62287W        W28828  14.741   6.672  14.052
62288W        W28829  42.410  17.740   2.863
62289W        W28830  33.636  19.198  12.896
62290W        W28831   5.968   5.824   2.233
62291W        W28832  18.383   1.877   3.590
62292W        W28833   4.090   5.413  13.134
62293W        W28834  25.779  41.337  12.492
62294W        W28835  43.206  31.479   2.289
62295W        W28836  40.066  29.669   1.911
62296W        W28837   8.582  20.775  10.642
62297W        W28838  34.180  19.119   2.356
62298W        W28839  41.716  16.775  11.657
62299W        W28840  17.164  11.245   0.909
62300W        W28841  16.859  11.650  12.482
62301W        W28842   6.855  40.108  13.412
62302W        W28843  11.178   8.748   3.556
62303W        W28844  17.213  14.817   5.194
62304W        W28845   0.728   8.330   2.818
62305W        W28846  19.578  36.938  13.478
62306W        W28847  18.159   9.713  13.061
62307W        W28848  17.825  12.758  13.736
62308W        W28849  43.919  43.964   2.850
62309W        W28850  41.652  38.330  12.810
62310W        W28851  12.494   0.855  11.016
62311W        W28852  21.185  35.093   1.709
62312W        W28853   7.965   2.446   2.691
62313W        W28854   4.242  39.560   0.817
62314W        W28855  11.920   7.941   3.919
62315W        W28856  37.990  10.324  11.836
62316W        W28857  37.295  23.090  13.499
62317W        W28858   2.810  28.963   4.076
62318W        W28859  15.763   4.446   2.726
62319W        W28860  10.042  38.609   5.079
62320W        W28861  38.571   5.177   3.401
62321W        W28862  34.246  38.896   2.413
62322W        W28863  35.018  24.479   1.629
62323W        W28864  42.327  24.992  13.006
62324W        W28865  35.563   5.413  11.156
62325W        W28866  27.497  16.625   2.819
62326W        W28867   6.939  24.185   0.259
62327W        W28868   6.489  31.477  14.838
62328W        W28869  36.426  38.855  10.332
62329W        W28870  16.655  12.046   4.929
62330W        W28871  12.452  19.591  14.402
62331W        W28872  36.012  34.320  13.028
62332W        W28873  30.635  10.267   4.562
62333W        W28874  21.093  14.552   0.714
62334W        W28875  30.027  36.356  14.236
62335W        W28876  32.424  20.108  13.950
62336W        W28877  14.275   3.926  11.421
62337W        W28878   9.270  16.234   3.127
62338W        W28879  15.529  35.973   1.658
62339W        W28880  18.469   7.236   2.641
62340W        W28881  23.829   3.120   4.044
62341W        W28882   5.713   5.404   3.764
62342W        W28883  31.975  37.861   5.008
62343W        W28884  18.763  41.495   3.533
62344W        W28885  38.058  28.740  11.077
62345W        W28886  15.209  11.614  13.742
62346W        W28887  34.443  30.939   3.585
62347W        W28888  44.167   0.140   3.094
62348W        W28889  30.160  39.391   2.318
62349W        W28890  32.173  24.702  13.897
62350W        W28891   3.147  41.953   2.398
62351W        W28892  27.931  42.771   4.003
62352W        W28893  30.038  36.851  13.368
62353W        W28894  36.663  12.365  13.997
62354W        W28895  21.601  34.183  14.366
62355W        W28896  33.358   4.233  11.789
62356W        W28897   3.143  33.469  14.396
62357W        W28898   7.014  24.475  12.116
62358W        W28899  39.971   2.778  12.572
62359W        W28900   8.095  17.423   3.407
62360W        W28901  11.246  35.102   4.684
62361W        W28902  28.642   8.343  10.671
62362W        W28903   8.771  22.955  13.539
62363W        W28904   4.303  35.608   2.148
62364W        W28905  16.896  34.490   0.409
62365W        W28906   7.953  16.619  14.379
62366W        W28907   9.909  28.375  12.908
62367W        W28908  42.198  33.083  12.154
62368W        W28909  30.802  10.755  12.434
62369W        W28910  41.380   3.978   1.380
62370W        W28911   1.005  21.539   2.433
62371W        W28912  16.665   7.179   3.287
62372W        W28913  28.454  22.864   4.895
62373W        W28914  25.127  20.643  10.985
62374W        W28915  28.387  14.063  13.786
62375W        W28916  12.374  34.634   0.376
62376W        W28917  28.043  32.985  10.343
62377W        W28918  11.946  40.079  12.422
62378W        W28919  29.378  16.582  11.051
62379W        W28920  11.407  20.927   0.846
62380W        W28921  14.970   3.381   4.898
62381W        W28922   6.875  24.533  10.273
62382W        W28923  35.328  14.290   2.266
62383W        W28924  10.114  32.008  10.973
62384W        W28925  29.720  38.600   3.675
62385W        W28926  22.621  27.427  13.984
62386W        W28927   4.840   3.417  13.837
62387W        W28928  40.220  27.629   4.631
62388W        W28929  30.572  20.778  14.350
62389W        W28930  23.695   8.300   2.953
62390W        W28931  31.634  19.590   4.169
62391W        W28932  11.129   2.420  13.041
62392W        W28933  34.667  13.729  13.990
62393W        W28934  41.403   6.895   2.232
62394W        W28935  15.148  12.269  10.922
62395W        W28936   6.390  43.695   3.494
62396W        W28937  20.178  10.634   1.367
62397W        W28938  40.805  35.534   1.660
62398W        W28939  43.429   0.770  13.864
62399W        W28940  23.224  24.997  13.839
62400W        W28941   1.100   4.170   0.945
62401W        W28942  11.134  40.409   1.792
62402W        W28943  44.636  15.030   3.678
62403W        W28944  13.249  34.025   0.002
62404W        W28945  27.031  23.523   3.776
62405W        W28946   0.725  15.200   4.414
62406W        W28947   7.772  26.993   4.043
62407W        W28948  31.231  10.155  14.407
62408W        W28949  39.520   2.511   4.129
62409W        W28950  37.861  41.011  13.323
62410W        W28951  17.744  25.542  13.795
62411W        W28952  27.480  40.475  12.777
62412W        W28953  36.875  43.521   2.387
62413W        W28954  16.109  33.578  12.322
62414W        W28955   0.010  21.236   4.599
62415W        W28956  11.244   8.153   1.318
62416W        W28957  17.025  26.751  11.050
62417W        W28958   2.283  16.198   1.565
62418W        W28959  40.929  26.475   1.418
62419W        W28960  39.900   0.000  11.505
62420W        W28961  32.546  36.137  13.294
62421W        W28962  29.943  39.081  14.140
62422W        W28963  30.447  26.709  14.076
62423W        W28964  37.524  18.603   5.128
62424W        W28965  12.846  15.237  10.403
62425W        W28966   0.237   4.679   1.443
62426W        W28967  38.045   9.850   0.883
62427W        W28968  40.806  11.798   2.222
62428W        W28969  27.042  38.985  10.042
62429W        W28970  36.205  25.710  13.685
62430W        W28971  32.201  43.731  11.799
62431W        W28972  21.530  30.360   4.029
62432W        W28973  44.820  10.235  11.162
62433W        W28974  30.094  26.500  11.070
62434W        W28975  37.921  34.334   1.717
62435W        W28976  22.943  42.465   2.763
62436W        W28977   0.731  26.515   4.984
62437W        W28978  11.820  40.381  14.368
62438W        W28979  28.109  11.669   1.054
62439W        W28980  33.570  17.825   5.035
62440W        W28981  15.228  28.911   2.434
62441W        W28982  28.142   2.186  11.180
62442W        W28983  31.524  10.606  12.817
62443W        W28984  10.691   8.920  12.544
62444W        W28985  26.473  31.631   2.721
62445W        W28986  13.354  14.628   1.409
62446W        W28987   1.758  20.691   4.633
62447W        W28988   3.484  37.915   0.729
62448W        W28989  31.494  38.262   3.606
62449W        W28990  25.001  32.169  11.158
62450W        W28991  37.944   8.466   1.999
62451W        W28992  17.302  11.856   4.326
62452W        W28993   3.986  24.943  11.428
62453W        W28994  38.864  33.013   1.895
62454W        W28995  30.105  16.815   2.520
62455W        W28996  12.969  27.248  13.012
62456W        W28997   2.737  42.404  14.905
62457W        W28998  10.978  41.075   1.093
62458W        W28999   6.428  16.243  11.993
62459W        W29000  41.374  17.319  14.333
62460W        W29001   4.917  26.110   4.354
62461W        W29002  12.518  15.532   9.930
62462W        W29003   1.132   2.930  14.260
62463W        W29004   3.786  29.126   5.009
62464W        W29005  25.015  35.932  11.481
62465W        W29006  15.787  10.694   0.373
62466W        W29007  22.071  16.461   1.393
62467W        W29008  12.230  29.197   2.019
62468W        W29009  43.872   3.026  12.138
62469W        W29010  16.791  30.951  14.870
62470W        W29011  36.853  25.033   0.218
62471W        W29012  27.556   1.445   1.493
62472W        W29013   6.506  38.624  14.449
62473W        W29014   4.932  14.820  12.553
62474W        W29015   9.185  19.802   5.057
62475W        W29016  17.282  24.021   0.218
62476W        W29017  42.969  43.019  12.050
62477W        W29018  41.401  43.246  14.261
62478W        W29019  20.112  26.836  14.268
62479W        W29020  42.995  18.473  13.076
62480W        W29021  20.574  13.032   3.292
62481W        W29022   4.163  19.656   1.844
62482W        W29023  28.613  33.328   1.556
62483W        W29024  31.409   9.202  10.780
62484W        W29025  30.184  42.191  13.969
62485W        W29026   9.022  12.285  13.777
62486W        W29027  25.219  20.963  13.454
62487W        W29028  42.779  44.458   1.726
62488W        W29029  26.582  16.693   0.023
62489W        W29030  24.515  26.070   3.891
62490W        W29031  21.055  11.625  12.975
62491W        W29032  22.135  32.606  13.713
62492W        W29033  10.407  29.617  12.135
62493W        W29034  20.616   6.334   0.976
62494W        W29035   8.295  36.326  11.119
62495W        W29036  35.485   2.766  11.639
62496W        W29037  20.486  38.705  11.084
62497W        W29038  14.814   4.290   0.342
62498W        W29039  36.402  20.293   0.894
62499W        W29040  44.512  11.301   1.879
62500W        W29041   8.346  10.676   2.227
62501W        W29042  11.838  27.582  12.051
62502W        W29043   3.826  40.203   1.857
62503W        W29044  11.941   8.777  12.819
62504W        W29045  36.128   3.616   1.778
62505W        W29046  42.642  35.489   2.690
62506W        W29047  32.663  20.828  14.405
62507W        W29048   2.810  21.120   3.940
62508W        W29049  21.514  32.361   2.600
62509W        W29050  29.223  11.971   5.236
62510W        W29051  20.639  29.199  11.182
62511W        W29052   3.297  20.642   0.070
62512W        W29053  32.516  31.924  14.062
62513W        W29054  20.661  30.896   2.206
62514W        W29055  26.498  39.335  13.208
62515W        W29056   2.961  43.478  11.877
62516W        W29057  35.371  32.528  13.938
62517W        W29058  35.341  33.662  14.064
62518W        W29059  31.028  19.763   1.470
62519W        W29060  33.748  19.519  10.256
62520W        W29061   8.442   0.318   1.921
62521W        W29062  11.220  13.713   2.752
62522W        W29063  20.234   5.054   4.168
62523W        W29064  12.599  37.863  13.543
62524W        W29065  30.538   1.290   1.035
62525W        W29066  39.261  30.459   1.134
62526W        W29067  43.555   9.334  13.823
62527W        W29068   3.439  38.470   4.184
62528W        W29069  27.221   5.198  11.634
62529W        W29070  35.601  35.006  13.329
62530W        W29071  43.834  20.099   1.467
62531W        W29072  39.332   9.710  12.853
62532W        W29073   0.852  41.538   2.379
62533W        W29074  28.950   0.261   4.154
62534W        W29075   3.051  28.694   2.719
62535W        W29076  33.123  24.458  14.180
62536W        W29077  36.768  23.722   3.895
62537W        W29078  16.522  43.180  13.951
62538W        W29079  30.521  17.240   5.073
62539W        W29080  41.987  13.641   0.503
62540W        W29081  14.117  11.656  12.782
62541W        W29082  14.140  17.496  13.585
62542W        W29083  13.681  34.038   4.014
62543W        W29084  15.004  37.474  13.893
62544W        W29085  42.369  32.872  14.099
62545W        W29086  14.647  17.162  11.099
62546W        W29087   3.654  35.289   2.359
62547W        W29088  20.308   3.395  11.957
62548W        W29089  43.586  11.907  11.154
62549W        W29090  43.317  36.927  14.303
62550W        W29091  41.286  38.310  11.665
62551W        W29092  20.814  41.135  13.959
62552W        W29093  13.626  18.930   2.739
62553W        W29094  41.953  18.550   2.844
62554W        W29095  38.249  37.796  12.944
62555W        W29096  23.163  43.257   0.435
62556W        W29097  39.117  44.958  11.949
62557W        W29098   9.221  34.019  13.712
62558W        W29099  15.846  12.690   3.845
62559W        W29100  24.253  19.485   0.452
62560W        W29101   2.316  35.428   0.966
62561W        W29102  19.048   8.737  10.966
62562W        W29103  16.199  36.107  13.481
62563W        W29104  35.928  22.673  14.799
62564W        W29105   1.251   5.136  10.334
62565W        W29106  37.690  13.201   3.766
62566W        W29107   6.867  40.643  10.352
62567W        W29108  30.600  29.411  12.215
62568W        W29109   5.366  16.225   1.367
62569W        W29110   1.318  20.852  10.689
62570W        W29111  44.537  34.954  10.231
62571W        W29112  39.733   0.337   0.424
62572W        W29113  24.668   3.775  13.654
62573W        W29114  28.163  35.581  12.582
62574W        W29115  29.625  33.349   1.317
62575W        W29116   7.369  31.867  11.185
62576W        W29117  17.669  19.959   2.882
62577W        W29118  30.852  38.514  13.233
62578W        W29119  32.593   1.253  13.116
62579W        W29120  38.071  26.545   2.703
62580W        W29121   9.342   8.642  10.333
62581W        W29122  14.311   1.362  10.997
62582W        W29123  11.730  16.541   3.888
62583W        W29124  43.683   2.468   0.986
62584W        W29125  26.127  38.908  11.427
62585W        W29126   6.439  42.401  13.347
62586W        W29127  30.169  26.312  12.992
62587W        W29128   5.647  15.132  11.717
62588W        W29129  12.105  36.057  10.801
62589W        W29130  10.732  32.019   2.757
62590W        W29131  26.034  36.326  12.251
62591W        W29132  20.620  43.995   0.337
62592W        W29133  10.267   2.237   4.641
62593W        W29134  35.651  31.923  12.293
62594W        W29135  35.088  43.912  11.641
62595W        W29136   7.836  16.276   1.538
62596W        W29137  28.839  13.098  11.367
62597W        W29138  14.051  39.851  10.612
62598W        W29139  33.238  37.355   3.884
62599W        W29140  29.913   8.866   1.291
62600W        W29141  21.423  14.332  12.501
62601W        W29142   6.321   4.317   2.253
62602W        W29143  26.856  44.302  14.221
62603W        W29144  33.305   1.712  13.892
62604W        W29145  19.766  20.119   0.721
62605W        W29146  32.734  26.994   3.487
62606W        W29147  42.752  20.298   4.942
62607W        W29148   2.997   6.713  11.103
62608W        W29149  23.585  12.722   1.364
62609W        W29150  22.023   7.601  13.914
62610W        W29151  14.253  34.746  12.597
62611W        W29152  12.690  28.507   3.485
62612W        W29153   8.369  35.884  10.499
62613W        W29154   7.782  31.875   2.191
62614W        W29155  33.509  23.494   1.904
62615W        W29156  42.952  33.619   2.278
62616W        W29157  42.878   0.194  11.289
62617W        W29158  31.570   7.830  11.629
62618W        W29159  33.017  22.734  13.179
62619W        W29160  41.440   4.309  13.534
62620W        W29161  36.330  36.122  12.101
62621W        W29162  17.244  38.531   0.424
62622W        W29163  43.226  12.243   0.726
62623W        W29164  29.443  44.731  14.839
62624W        W29165  37.909   7.145   2.780
62625W        W29166  31.240  28.987  11.914
62626W        W29167   9.119  36.628   2.740
62627W        W29168  34.536   4.061  12.387
62628W        W29169  26.133   6.828  11.177
62629W        W29170  23.780  19.102  10.731
62630W        W29171   8.200   0.199   2.667
62631W        W29172  23.194   9.272  14.021
62632W        W29173   9.139   9.287  13.338
62633W        W29174  11.338  32.890   2.635
62634W        W29175  28.949   3.513  11.189
62635W        W29176  24.901  40.763  10.604
62636W        W29177   6.426  29.774   0.303
62637W        W29178  23.531   5.496   0.033
62638W        W29179  32.031   8.759   4.427
62639W        W29180  27.093   2.317  12.093
62640W        W29181   0.689  30.010  11.594
62641W        W29182  17.664  42.899  14.257
62642W        W29183   1.771   4.798   2.298
62643W        W29184   9.377  13.425  12.798
62644W        W29185  17.267  41.032   2.777
62645W        W29186  39.439  19.852   2.919
62646W        W29187   3.281  43.699  10.740
62647W        W29188  13.556  39.562  11.415
62648W        W29189  17.276  20.899   2.218
62649W        W29190  26.570   2.346  13.415
62650W        W29191  21.153   7.284  13.124
62651W        W29192  13.888  10.511  14.354
62652W        W29193  35.629   6.730   0.471
62653W        W29194  29.514   3.812   0.959
62654W        W29195  20.536   0.437   3.882
62655W        W29196  37.327   3.733   3.667
62656W        W29197  11.658  19.461  11.418
62657W        W29198  41.940  29.515   2.242
62658W        W29199   1.690  36.975   0.987
62659W        W29200   1.061  15.404   4.054
62660W        W29201  28.725  22.526  14.853
62661W        W29202  22.878  41.103  10.267
62662W        W29203  40.613   8.527  12.128
62663W        W29204   4.502   0.681  10.687
62664W        W29205  22.159   7.273   2.757
62665W        W29206   6.841   2.424   4.513
62666W        W29207   8.430  14.139  12.662
62667W        W29208  28.571  13.587   3.700
62668W        W29209  12.783  38.525  12.016
62669W        W29210  33.292  15.287  14.450
62670W        W29211  30.229   7.732  13.741
62671W        W29212  22.477  39.850  10.702
62672W        W29213  33.469  40.459  12.893
62673W        W29214  11.690  33.027   0.221
62674W        W29215  27.930  39.808   0.352
62675W        W29216   1.938  44.708   3.827
62676W        W29217  38.800  16.222   3.243
62677W        W29218  13.236  35.423   0.107
62678W        W29219  20.199  37.461   0.394
62679W        W29220  14.807  23.248  12.727
62680W        W29221  18.742  38.422  10.482
62681W        W29222  27.812  39.737  13.390
62682W        W29223  10.075  44.810   3.607
62683W        W29224  30.440  19.069   1.372
62684W        W29225  44.901  40.344  10.182
62685W        W29226  17.683  30.139  14.504
62686W        W29227  37.307  38.034   0.886
62687W        W29228  13.155  18.062  12.900
62688W        W29229  34.370  18.770  13.410
62689W        W29230   2.478  22.004   4.442
62690W        W29231  34.722  37.585  13.048
62691W        W29232  25.669  17.397   0.441
62692W        W29233   6.857   2.679   2.259
62693W        W29234  38.488   0.116   1.044
62694W        W29235  29.011   4.534   3.854
62695W        W29236  25.279   5.363   1.675
62696W        W29237  30.108  23.823  12.806
62697W        W29238  29.784  23.809  13.362
62698W        W29239  32.909  42.204   3.086
62699W        W29240  25.741  32.550   3.191
62700W        W29241  12.672  22.526   3.572
62701W        W29242  33.522   6.262   0.770
62702W        W29243   9.594  24.284   0.541
62703W        W29244  39.988  21.654   0.239
62704W        W29245   7.464  14.352   1.371
62705W        W29246  43.379  30.390  11.318
62706W        W29247  39.915  12.396   2.358
62707W        W29248  35.864  34.864  14.730
62708W        W29249  36.958  35.999   2.356
62709W        W29250  31.315  22.166  14.603
62710W        W29251  25.741   1.841   1.351
62711W        W29252  24.471  10.228   1.427
62712W        W29253  28.897  18.134   4.620
62713W        W29254  12.703  29.580   4.214
62714W        W29255  26.812   9.755   1.897
62715W        W29256  44.636  29.423  14.895
62716W        W29257  24.589   9.723   1.730
62717W        W29258   4.113  26.416   4.065
62718W        W29259  29.350  33.991   4.281
62719W        W29260  30.853  28.266   5.055
62720W        W29261  12.182  40.735  10.839
62721W        W29262  13.737  10.292  12.247
62722W        W29263  41.034   1.196   2.255
62723W        W29264  15.731  11.411   2.828
62724W        W29265  14.362  40.777  14.270
62725W        W29266  27.994  42.341   3.397
62726W        W29267  38.540  29.145  14.361
62727W        W29268   3.667  22.679   0.404
62728W        W29269   6.763   6.036   0.543
62729W        W29270  22.926  11.764   2.380
62730W        W29271   6.244  43.451   0.510
62731W        W29272  28.959   8.189  14.383
62732W        W29273  19.710  43.733  13.117
62733W        W29274  26.405  26.825  12.140
62734W        W29275  10.306  14.129  13.992
62735W        W29276   1.387  19.693   0.085
62736W        W29277   8.351  38.521  10.726
62737W        W29278  15.330  37.241  11.851
62738W        W29279  25.940  14.234  14.501
62739W        W29280  30.371  15.355  10.638
62740W        W29281  38.908  32.358   4.453
62741W        W29282  29.369  33.136  14.947
62742W        W29283  14.875  22.278  13.579
62743W        W29284  28.835  18.497   3.250
62744W        W29285  26.216  32.806  12.434
62745W        W29286  12.865  15.202  13.715
62746W        W29287  30.379  31.077   2.683
62747W        W29288  29.554  23.969   3.675
62748W        W29289  10.150  28.397   0.900
62749W        W29290  28.045  19.062  10.909
62750W        W29291  44.507   9.300   3.247
62751W        W29292  38.854  41.288  10.052
62752W        W29293  33.603   7.706   4.475
62753W        W29294   5.983   0.535   1.758
62754W        W29295  24.883  33.135   4.666
62755W        W29296  44.965  42.161  11.180
62756W        W29297   7.139  38.335   0.265
62757W        W29298  38.264  12.930   2.311
62758W        W29299  30.887  15.530   0.755
62759W        W29300  44.954   6.007   4.905
62760W        W29301   1.879  16.912   3.601
62761W        W29302  13.034   2.579   0.750
62762W        W29303  29.129  26.113  14.901
62763W        W29304  19.555  12.348  14.617
62764W        W29305  44.766  41.943   3.178
62765W        W29306  44.988  22.109  13.497
62766W        W29307  33.192  36.587   4.042
62767W        W29308  37.419   2.889   1.176
62768W        W29309  41.249  32.408  14.946
62769W        W29310  32.416   3.429   0.828
62770W        W29311  25.453  41.477  10.773
62771W        W29312  31.534  18.195   1.536
62772W        W29313  21.141   0.242  10.498
62773W        W29314  10.891  32.022   4.522
62774W        W29315   5.960  28.913   4.747
62775W        W29316   2.537   2.881   0.803
62776W        W29317  16.660  34.657  14.293
62777W        W29318   0.342  24.304  12.952
62778W        W29319  41.421  44.915  11.184
62779W        W29320  20.257  29.136  14.485
62780W        W29321  16.525  26.042  14.802
62781W        W29322  43.972   8.567   2.335
62782W        W29323   5.762  25.221   3.587
62783W        W29324  42.117  15.680   3.190
62784W        W29325   6.880  27.196  13.531
62785W        W29326  20.366  16.666  12.013
62786W        W29327   5.699   6.825   0.933
62787W        W29328  12.712   6.493  14.890
62788W        W29329  13.316  22.609  12.427
62789W        W29330   2.305  20.648   3.780
62790W        W29331  16.635  14.658   2.244
62791W        W29332   1.881   9.176   1.792
62792W        W29333  39.933  42.714   3.372
62793W        W29334   0.483   8.370   1.340
62794W        W29335   4.491   3.251   1.984
62795W        W29336  21.287  43.787  11.161
62796W        W29337  38.955  37.792   2.839
62797W        W29338  13.313  34.984  11.614
62798W        W29339  22.560  44.234   3.649
62799W        W29340   4.570  25.629   2.372
62800W        W29341  44.139   6.735  13.902
62801W        W29342  39.489  23.045   1.752
62802W        W29343   4.781  35.896  11.748
62803W        W29344   3.790  38.130  12.920
62804W        W29345  27.668  20.587  12.600
62805W        W29346  18.582  37.390   0.600
62806W        W29347  13.117  28.186   3.472
62807W        W29348  16.607   1.239  13.813
62808W        W29349   6.558  27.900  11.613
62809W        W29350  29.728   6.282  11.231
62810W        W29351  36.389  19.616   4.607
62811W        W29352  12.534   5.169   1.294
62812W        W29353   8.907  21.320   3.260
62813W        W29354   9.862  25.596  12.889
62814W        W29355  25.888  14.531  13.118
62815W        W29356  43.283  28.024   4.938
62816W        W29357  10.127  39.114  14.291
62817W        W29358  43.714   4.837   1.289
62818W        W29359  25.255  28.984   4.638
62819W        W29360  11.085   8.156  11.631
62820W        W29361  19.189   1.237   1.324
62821W        W29362   8.880  11.407   4.047
62822W        W29363   6.434  26.591   1.271
62823W        W29364   1.923   7.052   3.721
62824W        W29365  30.025  36.635   2.547
62825W        W29366  34.138  35.267  14.353
62826W        W29367  16.409  37.399  14.809
62827W        W29368  35.560  11.371   2.733
62828W        W29369  34.859  29.234   4.641
62829W        W29370  25.227  40.485  13.859
62830W        W29371  25.730  13.739   4.849
62831W        W29372  28.976  19.460  14.812
62832W        W29373  19.439  25.752  12.729
62833W        W29374  20.613   5.424   4.317
62834W        W29375  22.603   5.711   3.338
62835W        W29376  27.251  24.614  13.032
62836W        W29377  10.254  25.116   0.027
62837W        W29378  40.465  26.980   2.953
62838W        W29379  37.028   7.636  11.585
62839W        W29380  42.065  23.688   1.338
62840W        W29381   9.349   1.496  12.864
62841W        W29382  20.519  19.715  11.100
62842W        W29383  34.994  21.981  10.521
62843W        W29384  16.368   1.928  13.465
62844W        W29385  11.278   5.738  13.557
62845W        W29386  38.868   6.475   1.905
62846W        W29387  22.704  33.991  11.789
62847W        W29388  41.377  40.434   4.062
62848W        W29389  38.475  23.096  13.588
62849W        W29390   0.988  19.055  14.930
62850W        W29391  20.128  26.640   2.158
62851W        W29392  10.023  41.438   4.202
62852W        W29393   2.116  23.550   2.450
62853W        W29394  19.138  10.445   1.487
62854W        W29395   2.892  21.720  14.451
62855W        W29396  43.796  15.617   2.374
62856W        W29397  16.839  37.258   3.708
62857W        W29398  44.386  11.617   0.800
62858W        W29399  24.052  28.719  13.682
62859W        W29400  43.570  23.541   0.601
62860W        W29401  44.922  13.316   3.174
62861W        W29402  26.982  22.548  12.999
62862W        W29403   3.510  24.728   2.801
62863W        W29404   2.138  37.529  10.947
62864W        W29405   8.173  35.818  14.468
62865W        W29406  31.215  20.735  13.336
62866W        W29407  44.964  37.476  12.401
62867W        W29408   2.780  27.893  12.879
62868W        W29409  19.083  25.890  13.103
62869W        W29410  24.001  32.461  12.042
62870W        W29411  27.032  35.184  12.967
62871W        W29412  26.970  16.256  14.101
62872W        W29413  35.217  30.425   2.951
62873W        W29414  43.771  34.046   1.951
62874W        W29415  27.915  27.476   4.601
62875W        W29416   5.251   8.241  11.038
62876W        W29417  32.522  12.399   2.083
62877W        W29418   0.991  30.818   1.281
62878W        W29419  28.118  10.152  11.540
62879W        W29420  17.418  21.748   0.271
62880W        W29421  41.297  34.869   0.054
62881W        W29422  35.258  32.388   0.345
62882W        W29423  42.618  31.715  11.135
62883W        W29424  34.735  25.731   2.341
62884W        W29425  33.674   5.756   5.013
62885W        W29426  17.483  13.136  13.914
62886W        W29427   0.951  26.515  12.144
62887W        W29428   8.211  20.653   4.843
62888W        W29429  22.627   4.727   9.562
62889W        W29430  28.493  25.207  13.304
62890W        W29431  14.881  10.920  14.928
62891W        W29432   5.211  38.385  14.785
62892W        W29433  27.259  33.429   2.180
62893W        W29434  30.371   4.274   4.104
62894W        W29435  39.676  19.859   1.914
62895W        W29436  31.375  41.008   3.356
62896W        W29437  41.737  36.009   0.384
62897W        W29438  38.086   5.928   1.685
62898W        W29439  35.869   5.591  10.033
62899W        W29440  43.018   4.744  14.845
62900W        W29441  12.305  41.887   2.790
62901W        W29442   3.865  11.876   3.084
62902W        W29443  36.597   0.288  11.086
62903W        W29444  19.130  26.311  13.921
62904W        W29445   1.911  34.095  13.834
62905W        W29446  12.776  11.534   4.296
62906W        W29447  12.912   1.805  11.227
62907W        W29448   4.352  41.078  14.711
62908W        W29449  30.114  35.073   2.854
62909W        W29450  29.254  25.405  13.462
62910W        W29451  39.246  40.733  12.388
62911W        W29452  27.664  36.488  10.991
62912W        W29453  17.817  28.676   3.687
62913W        W29454  12.158  42.892   2.573
62914W        W29455  44.945  25.985  11.230
62915W        W29456  16.194   2.307  14.964
62916W        W29457   7.364  40.894   3.381
62917W        W29458  10.855  36.655   3.597
62918W        W29459  19.883  22.221  13.965
62919W        W29460  44.321  20.569  11.117
62920W        W29461  14.617  36.970  11.936
62921W        W29462  25.977  39.025  12.487
62922W        W29463   4.487   8.107   2.748
62923W        W29464  22.728  33.165   5.368
62924W        W29465  20.346   1.948   3.213
62925W        W29466  26.525  28.445  14.771
62926W        W29467   8.961  33.992  11.474
62927W        W29468  33.074   6.359   3.707
62928W        W29469   0.224  41.159  12.859
62929W        W29470  20.185  39.388  13.964
62930W        W29471  37.525  34.788   2.349
62931W        W29472  29.828   1.438  11.381
62932W        W29473   6.480  11.452   3.596
62933W        W29474  41.464  10.463  13.336
62934W        W29475  18.564  33.393  11.140
62935W        W29476  25.745  13.672   2.868
62936W        W29477  27.741  37.380   4.534
62937W        W29478  14.038  24.219   0.043
62938W        W29479  38.319  25.440  12.162
62939W        W29480  21.208  27.594   3.726
62940W        W29481  12.479   6.881   0.723
62941W        W29482  13.024  25.784   1.125
62942W        W29483  29.677  30.551   2.668
62943W        W29484  16.049  27.871  11.612
62944W        W29485  33.361  38.586   0.299
62945W        W29486   4.703   1.491   2.389
62946W        W29487  41.739  25.111  14.600
62947W        W29488  30.969  36.337  14.825
62948W        W29489   8.844  19.685  11.283
62949W        W29490  12.183  43.737  14.500
62950W        W29491   8.228  15.025   2.559
62951W        W29492   4.853   0.214  11.942
62952W        W29493  42.012  15.200  12.534
62953W        W29494  29.606  33.870   4.714
62954W        W29495  29.928   2.544   1.715
62955W        W29496   4.103  33.482  14.998
62956W        W29497   7.791  21.938  12.446
62957W        W29498  44.963  14.111   1.787
62958W        W29499  35.991  27.305   0.716
62959W        W29500  14.089  23.420  14.738
62960W        W29501  43.906  29.157   3.275
62961W        W29502  22.035  30.072  11.133
62962W        W29503  18.786  17.281   1.280
62963W        W29504  38.452   0.236  12.959
62964W        W29505  35.933   4.989  14.038
62965W        W29506   7.176  23.613   3.353
62966W        W29507  27.146  35.344   0.742
62967W        W29508  41.868  30.695   4.127
62968W        W29509  28.493  34.120  10.674
62969W        W29510  40.892  31.422   2.398
62970W        W29511  19.826  29.229  11.558
62971W        W29512  26.064  16.587   0.778
62972W        W29513  13.114  32.203   4.908
62973W        W29514  23.048  29.484  13.411
62974W        W29515   2.172  23.937   1.235
62975W        W29516  42.678  26.279   0.871
62976W        W29517  38.287  34.071  11.590
62977W        W29518   0.918   3.372  14.429
62978W        W29519  34.069  25.902  14.391
62979W        W29520  14.071   6.111   2.759
62980W        W29521  33.397  28.963   4.729
62981W        W29522   1.896   8.417  14.722
62982W        W29523  20.589  36.488  13.053
62983W        W29524  44.171  19.584  12.238
62984W        W29525  12.152  17.173  14.034
62985W        W29526  13.234  12.230   4.103
62986W        W29527  11.101  26.158  12.724
62987W        W29528  36.854  43.010  14.591
62988W        W29529  42.988  13.646   3.361
62989W        W29530  38.198  11.213  14.707
62990W        W29531  25.497  34.144  14.230
62991W        W29532  20.257  39.812   2.845
62992W        W29533   6.780  21.749   1.460
62993W        W29534  35.741  30.851  11.043
62994W        W29535  26.734  16.794  12.110
62995W        W29536  41.309  26.703  14.919
62996W        W29537   1.720  37.259  14.878
62997W        W29538  30.442  22.387   0.711
62998W        W29539  23.085  36.442   4.603
62999W        W29540  15.303  29.289  12.734
63000W        W29541  27.532  11.448   0.412
63001W        W29542  16.518  14.223   5.012
63002W        W29543  11.857  42.342  13.412
63003W        W29544   2.541  30.912  13.975
63004W        W29545  18.789  28.906  14.879
63005W        W29546  37.827  11.127  13.299
63006W        W29547  38.733  25.212   4.634
63007W        W29548  32.931  23.196   1.750
63008W        W29549  37.349   3.900   1.118
63009W        W29550   8.885   3.375  13.881
63010W        W29551  35.994  24.607   1.922
63011W        W29552  38.293   2.748  13.928
63012W        W29553   9.337   3.677   2.307
63013W        W29554  35.306  26.799   4.690
63014W        W29555  24.815  41.057   1.849
63015W        W29556  44.918  27.580  12.954
63016W        W29557  14.199  12.584  12.566
63017W        W29558  34.158  25.738  12.845
63018W        W29559  27.675   7.930  11.178
63019W        W29560  29.969   9.953  14.857
63020W        W29561  39.399  19.534  10.744
63021W        W29562  41.344  35.024   0.543
63022W        W29563  15.233  25.067   4.016
63023W        W29564  36.383   5.275  13.985
63024W        W29565  42.438  31.795  11.658
63025W        W29566  16.120   4.736   4.731
63026W        W29567  26.204  40.763  11.550
63027W        W29568  29.436  16.660   0.211
63028W        W29569   3.844  13.257   3.143
63029W        W29570   6.718  28.388  11.660
63030W        W29571  35.816   0.733   3.188
63031W        W29572  10.185  32.847  11.709
63032W        W29573  13.498  32.677  11.122
63033W        W29574  14.124  33.110   1.238
63034W        W29575  25.412  41.899  13.322
63035W        W29576  36.519  26.573   0.692
63036W        W29577  40.725   6.808   3.601
63037W        W29578  30.327  32.916  12.034
63038W        W29579  12.219  43.247  14.262
63039W        W29580   9.869   3.703   4.163
63040W        W29581   4.385   5.093  12.410
63041W        W29582   5.929  38.737   2.399
63042W        W29583  31.951   4.930  10.708
63043W        W29584  25.403   6.814  10.048
63044W        W29585  22.110  13.635   1.535
63045W        W29586  42.374  17.944  11.227
63046W        W29587  32.920  37.902  10.756
63047W        W29588   3.748  35.346   1.864
63048W        W29589  44.846   1.913  11.749
63049W        W29590  26.190  34.950  10.771
63050W        W29591  37.012   4.968   1.846
63051W        W29592  30.319   2.946  13.004
63052W        W29593   7.429  20.696  11.211
63053W        W29594  34.718   9.523   0.987
63054W        W29595   2.508   4.280  11.945
63055W        W29596  43.022  38.765  13.601
63056W        W29597  20.723   2.760  10.979
63057W        W29598  12.679  14.273   0.437
63058W        W29599  17.812   3.554   0.680
63059W        W29600  16.494  41.968   0.834
63060W        W29601  14.894  43.407   3.696
63061W        W29602  13.876  27.958  13.254
63062W        W29603  22.275  30.698   2.016
63063W        W29604  21.159  16.138  12.518
63064W        W29605  35.745  40.105   4.094
63065W        W29606   0.723   3.682   0.216
63066W        W29607  29.371  40.800  14.737
63067W        W29608  22.004  33.113  13.591
63068W        W29609  29.430  39.894  11.657
63069W        W29610  13.897  14.726   0.216
63070W        W29611  26.657  34.018   4.690
63071W        W29612   0.991  25.480  12.950
63072W        W29613  22.860  21.992  13.861
63073W        W29614  26.930  17.525  12.659
63074W        W29615  40.432  34.192   3.673
63075W        W29616  29.551  39.263   3.150
63076W        W29617   9.703   6.378  11.509
63077W        W29618  20.692  40.938   1.708
63078W        W29619  16.330  11.253  13.724
63079W        W29620  31.422  31.601   0.427
63080W        W29621  30.344  27.953   3.663
63081W        W29622  43.380  22.622   3.884
63082W        W29623  44.443  40.461   5.198
63083W        W29624  25.101   5.167   4.154
63084W        W29625   3.658   1.484  11.520
63085W        W29626  42.370  22.890  12.176
63086W        W29627  23.007  38.558   1.284
63087W        W29628  17.258  17.344  10.559
63088W        W29629   3.699  34.912   3.706
63089W        W29630  32.627  44.958  13.812
63090W        W29631  43.297   6.863  11.341
63091W        W29632  32.942  26.943  10.775
63092W        W29633   0.268  11.272  10.889
63093W        W29634  44.428  34.648   1.511
63094W        W29635  11.221  38.837   0.359
63095W        W29636  19.366   7.682  12.357
63096W        W29637  18.844  22.526   4.498
63097W        W29638  16.491  42.276   1.528
63098W        W29639   7.422  20.819  12.975
63099W        W29640  20.054   8.173   4.912
63100W        W29641  28.508  40.654  10.384
63101W        W29642   1.943  15.206  14.984
63102W        W29643  34.354  24.656  14.106
63103W        W29644  26.207  29.137  10.882
63104W        W29645  10.201   1.565   3.510
63105W        W29646  28.962  17.551   0.331
63106W        W29647  44.332   0.906  14.477
63107W        W29648  33.256  22.673  11.464
63108W        W29649  12.218  23.720   1.415
63109W        W29650  22.764   7.989   2.884
63110W        W29651  11.697  26.483  14.795
63111W        W29652   3.000  24.197  11.020
63112W        W29653  38.911  31.941  10.526
63113W        W29654  31.039  38.737   4.689
63114W        W29655   6.522  42.824   0.819
63115W        W29656   7.175  30.834  12.141
63116W        W29657   6.372  39.991   0.829
63117W        W29658   4.852  34.922   3.668
63118W        W29659  37.766  27.846  13.778
63119W        W29660  30.986  33.138   2.292
63120W        W29661  19.112  43.503  10.741
63121W        W29662  11.925   1.504   4.522
63122W        W29663  42.634   3.629  10.481
63123W        W29664  10.740  36.858   1.846
63124W        W29665  37.597   5.269  14.237
63125W        W29666  32.702  38.634   3.116
63126W        W29667  29.071  33.183   1.833
63127W        W29668  38.411  19.564   0.509
63128W        W29669  28.837  39.780  11.739
63129W        W29670  34.015   4.211   3.805
63130W        W29671  43.333  23.184   1.701
63131W        W29672  36.494   0.671  13.794
63132W        W29673  32.529  40.559  11.980
63133W        W29674  26.459  43.339  12.587
63134W        W29675  27.697  14.672  14.953
63135W        W29676  28.356   5.952   4.632
63136W        W29677  19.669  44.907   0.450
63137W        W29678  20.513  14.762  13.535
63138W        W29679  31.058  23.279   2.873
63139W        W29680  37.914  30.118  14.895
63140W        W29681  14.841   2.862   1.292
63141W        W29682  31.573  26.962  12.026
63142W        W29683  36.028   2.521  14.796
63143W        W29684  42.958  19.818   5.039
63144W        W29685  27.668  42.275  11.643
63145W        W29686  28.206  36.514   4.079
63146W        W29687   3.882  35.492   3.117
63147W        W29688  28.128  40.419  14.493
63148W        W29689  44.191   3.415   0.905
63149W        W29690  20.143  26.663   1.615
63150W        W29691   9.752   1.748   2.591
63151W        W29692  10.183   7.064  14.875
63152W        W29693   9.916  19.622  12.473
63153W        W29694  31.925  20.913   1.791
63154W        W29695   5.404  15.090  13.406
63155W        W29696  26.194   8.692  14.469
63156W        W29697  24.109  20.494  14.921
63157W        W29698  12.557  27.034   0.932
63158W        W29699   3.274   2.739   0.815
63159W        W29700  15.597  31.329  12.521
63160W        W29701  36.847  43.770   1.940
63161W        W29702   7.696  15.306  13.840
63162W        W29703  15.199   9.394  14.710
63163W        W29704  21.419  44.941   3.508
63164W        W29705   2.177  36.648   4.559
63165W        W29706  30.476  11.130  13.827
63166W        W29707  27.413  34.914  11.623
63167W        W29708  43.009  26.753   0.604
63168W        W29709  11.019  16.048   4.609
63169W        W29710   9.564   3.682  14.379
63170W        W29711   6.934  39.529   1.784
63171W        W29712  20.126  16.610   0.733
63172W        W29713   9.416  12.719  14.992
63173W        W29714  36.455   1.422   4.603
63174W        W29715   4.657   4.961   1.265
63175W        W29716  39.016   6.636  10.798
63176W        W29717  22.465   9.618  12.116
63177W        W29718  27.948   2.909  11.500
63178W        W29719  36.409  25.290  13.930
63179W        W29720  23.563  10.078  14.577
63180W        W29721  36.517  38.432  14.243
63181W        W29722  26.480   9.662   2.378
63182W        W29723  37.334  17.195   1.253
63183W        W29724  16.780  20.057  11.915
63184W        W29725   5.305  27.443   4.183
63185W        W29726   2.404  17.755   1.220
63186W        W29727  40.559  33.193   2.267
63187W        W29728  36.433  23.650  12.625
63188W        W29729   5.239  25.300   1.756
63189W        W29730  11.307   3.761   2.282
63190W        W29731   3.401  34.546   1.045
63191W        W29732  36.777  31.416  12.067
63192W        W29733   9.294  42.582  13.435
63193W        W29734  27.891   8.166  13.254
63194W        W29735  18.333  34.408   2.581
63195W        W29736  41.922   1.205   2.181
63196W        W29737  28.241   9.874  11.970
63197W        W29738  11.730  37.013  13.954
63198W        W29739  11.735  41.579   4.561
63199W        W29740  10.537  29.993  13.104
63200W        W29741   8.688  24.028   2.814
63201W        W29742  38.265  34.808  12.033
63202W        W29743  26.243  39.283  12.126
63203W        W29744   4.582  22.556   1.810
63204W        W29745  44.967   1.004   2.237
63205W        W29746  11.941  11.778   0.903
63206W        W29747  15.735  32.549  11.566
63207W        W29748   2.661   7.208  12.072
63208W        W29749  28.289   2.330  12.105
63209W        W29750  31.165  42.056   0.877
63210W        W29751  43.894  19.546   1.503
63211W        W29752  37.078   0.386  14.492
63212W        W29753  32.102  18.566  12.390
63213W        W29754  23.253   2.186  13.385
63214W        W29755  35.909  12.408  13.510
63215W        W29756   3.649  37.619  10.172
63216W        W29757  40.989  36.567  12.113
63217W        W29758  12.311   8.416  11.133
63218W        W29759  37.868  33.365  11.688
63219W        W29760  23.304   3.844  10.539
63220W        W29761  14.854   8.640   3.092
63221W        W29762  43.547  36.190  13.014
63222W        W29763   7.864  26.019  12.231
63223W        W29764   1.787  40.901  10.604
63224W        W29765  26.127  15.663   2.204
63225W        W29766   3.549  44.859  13.984
63226W        W29767  39.959  24.192   2.875
63227W        W29768  15.289  39.467   4.854
63228W        W29769  42.698  39.298  12.602
63229W        W29770  21.196  32.356  12.542
63230W        W29771  21.479  41.883  13.277
63231W        W29772  22.638   4.749   2.217
63232W        W29773  38.383  14.141  10.094
63233W        W29774   3.146  21.387  11.068
63234W        W29775  28.442  30.617  13.905
63235W        W29776  38.414  21.061  12.551
63236W        W29777   4.944  39.112  11.525
63237W        W29778  21.172   1.030   4.393
63238W        W29779   2.481  41.551  12.539
63239W        W29780  23.063   6.277  12.945
63240W        W29781  43.174  20.036   3.684
63241W        W29782   5.373   6.169  11.477
63242W        W29783   2.174  21.949  13.907
63243W        W29784  26.144   5.963  11.783
63244W        W29785  34.344   9.197   2.449
63245W        W29786   7.455  25.922   3.217
63246W        W29787  14.630  28.214   4.435
63247W        W29788  15.285  38.177  12.329
63248W        W29789  18.854  17.619  11.275
63249W        W29790  12.928  40.528  13.605
63250W        W29791  10.521  19.483  10.557
63251W        W29792  40.544  43.359   3.826
63252W        W29793  10.411  33.568   1.858
63253W        W29794  22.966  14.805  13.455
63254W        W29795  44.131  24.127   2.843
63255W        W29796  14.576  10.359   0.626
63256W        W29797  40.757  22.182   0.232
63257W        W29798   6.278  22.707   1.826
63258W        W29799  37.585  18.750   2.137
63259W        W29800  24.556  29.578  14.968
63260W        W29801  34.636  17.590  13.879
63261W        W29802  34.376  22.732   3.917
63262W        W29803  27.695   9.318  12.788
63263W        W29804  22.979   4.475   2.698
63264W        W29805   6.423  17.152   1.185
63265W        W29806  28.612  37.470   4.229
63266W        W29807  30.565   9.634  13.032
63267W        W29808  33.138  38.307  14.394
63268W        W29809  39.089  32.120  14.448
63269W        W29810  33.504  21.458   4.537
63270W        W29811   1.442  40.563   4.033
63271W        W29812   7.194   9.128   4.206
63272W        W29813  41.586  28.654   1.229
63273W        W29814  17.298  23.236  13.758
63274W        W29815  42.711  24.067   3.009
63275W        W29816  39.906  10.718  12.494
63276W        W29817   3.830   8.878  12.930
63277W        W29818   8.821  27.158  13.556
63278W        W29819  21.932  11.678  13.403
63279W        W29820  38.789  41.002  14.303
63280W        W29821  39.089  13.155  12.401
63281W        W29822  24.977  27.534   1.815
63282W        W29823   4.153  36.579   4.749
63283W        W29824  34.181  40.581  10.680
63284W        W29825  30.661  13.637   1.766
63285W        W29826  11.261  33.694  14.369
63286W        W29827  17.644  32.572   0.437
63287W        W29828  13.312  30.186  11.117
63288W        W29829  30.282   1.337  11.637
63289W        W29830  21.211  40.967   1.743
63290W        W29831  37.494  13.556   4.182
63291W        W29832  36.042  23.598  13.127
63292W        W29833  25.138  25.736   0.845
63293W        W29834  28.354  32.114  11.418
63294W        W29835  28.579  38.984   0.522
63295W        W29836  24.833  18.563   0.089
63296W        W29837   2.344  15.219  11.242
63297W        W29838   3.413   1.021   4.479
63298W        W29839  17.114  12.268   4.661
63299W        W29840  42.866  16.096   3.113
63300W        W29841   8.324  31.136  14.435
63301W        W29842  27.718  33.491  14.040
63302W        W29843   2.823  11.165   2.852
63303W        W29844  29.270  17.229  11.464
63304W        W29845  34.715  16.078   2.205
63305W        W29846  22.199  36.023  10.401
63306W        W29847  38.503   0.839   4.288
63307W        W29848  21.679   8.413  13.906
63308W        W29849  15.551  27.090   1.319
63309W        W29850  36.412   7.378   1.642
63310W        W29851   7.377  29.253   0.900
63311W        W29852  19.973  19.952  14.421
63312W        W29853  24.895  43.119   5.352
63313W        W29854  17.188  25.058   2.772
63314W        W29855  39.878  16.615   0.451
63315W        W29856  16.944  43.217   3.744
63316W        W29857  14.368  35.955   4.206
63317W        W29858  10.668  15.783   3.244
63318W        W29859  37.321  43.687  14.682
63319W        W29860  33.643  21.504  11.446
63320W        W29861  42.024  40.751  12.913
63321W        W29862   3.639  10.355  11.635
63322W        W29863  21.649  29.169  14.995
63323W        W29864  42.855   9.613  14.718
63324W        W29865  38.471  21.214  11.671
63325W        W29866   4.944  40.908   1.493
63326W        W29867  30.098  22.228   1.811
63327W        W29868  20.063  16.548  13.894
63328W        W29869  27.793   6.630  14.729
63329W        W29870   0.830  12.722   2.102
63330W        W29871  39.777  19.877  10.769
63331W        W29872  23.843  36.989   0.965
63332W        W29873  20.541  20.610  10.747
63333W        W29874  12.606  24.841  11.952
63334W        W29875  35.300  23.005   2.771
63335W        W29876   5.968  38.116   0.936
63336W        W29877  21.697  39.921   3.331
63337W        W29878  34.043   8.592  13.873
63338W        W29879  23.984  20.891   1.481
63339W        W29880  24.521  44.864  13.900
63340W        W29881  35.508  31.933   0.442
63341W        W29882   7.301   4.333   0.361
63342W        W29883   6.376   5.090  12.346
63343W        W29884  19.083  43.843   2.358
63344W        W29885  39.980   9.820   3.646
63345W        W29886  16.673   9.601  13.366
63346W        W29887  37.088  39.405   2.044
63347W        W29888   8.412  13.981   0.294
63348W        W29889  19.628  13.345   0.419
63349W        W29890  17.449  10.880  11.008
63350W        W29891  31.066  30.418   0.845
63351W        W29892   0.331   9.922  10.603
63352W        W29893  39.470  37.493   1.145
63353W        W29894  37.871  35.244  12.106
63354W        W29895   6.260  11.871  13.459
63355W        W29896   7.216   8.157  12.022
63356W        W29897   8.014  21.951  11.078
63357W        W29898   2.854  23.772  14.391
63358W        W29899   2.368  41.695  10.828
63359W        W29900  22.800  27.138  11.194
63360W        W29901  16.567  29.478   0.327
63361W        W29902  20.977  12.080   3.584
63362W        W29903  43.925  10.827   1.875
63363W        W29904  35.909  35.867   1.161
63364W        W29905  31.198   2.729   2.866
63365W        W29906  13.146  37.348   3.202
63366W        W29907  24.602   6.174   4.468
63367W        W29908  21.810  24.469   2.774
63368W        W29909   6.362  42.782  10.315
63369W        W29910  19.711  29.107  14.371
63370W        W29911   6.342  43.507   4.895
63371W        W29912   9.338  37.482  11.914
63372W        W29913  32.517   2.148  11.680
63373W        W29914  14.741   2.833   2.917
63374W        W29915   6.960   1.332   2.238
63375W        W29916  39.762   9.278  13.545
63376W        W29917   1.830  35.943   1.500
63377W        W29918  31.531  23.809  13.874
63378W        W29919  17.026  40.809  11.160
63379W        W29920   4.177   7.201  11.912
63380W        W29921  31.379  31.918   1.868
63381W        W29922  19.749  11.791  10.637
63382W        W29923  36.885  17.984   4.127
63383W        W29924  12.348  34.266   4.318
63384W        W29925  39.357  26.519  12.834
63385W        W29926  28.963  36.615  10.659
63386W        W29927   0.982  42.765   0.508
63387W        W29928  14.343  16.293  13.982
63388W        W29929  15.709  24.604   2.270
63389W        W29930  28.900  30.534  12.060
63390W        W29931  38.352   4.852  12.082
63391W        W29932   6.495  33.825  12.541
63392W        W29933   1.342  21.423   4.239
63393W        W29934  19.255   5.315   1.703
63394W        W29935   3.372   7.087  13.440
63395W        W29936  25.389  28.448  14.096
63396W        W29937  42.698  41.337   0.270
63397W        W29938  17.562  12.759   2.933
63398W        W29939   0.355  20.235  11.809
63399W        W29940  39.956  35.493  12.180
63400W        W29941   1.973  21.312   2.690
63401W        W29942  18.146   7.737   0.793
63402W        W29943  32.051  43.335  14.540
63403W        W29944   3.039  38.456   0.425
63404W        W29945   6.892  10.704   0.548
63405W        W29946  11.062   7.816   4.124
63406W        W29947  27.309  26.673  13.340
63407W        W29948  28.155  25.420   3.771
63408W        W29949  33.167  13.151  14.400
63409W        W29950  25.201  12.669   1.286
63410W        W29951  11.788  16.663  13.893
63411W        W29952  41.262  19.705   3.119
63412W        W29953  23.066  21.288   1.656
63413W        W29954  30.681  27.838  12.559
63414W        W29955  18.756  11.752   3.499
63415W        W29956  18.100  20.719  11.512
63416W        W29957  10.282  38.506   1.921
63417W        W29958  17.015  20.539  10.762
63418W        W29959  27.328  14.781   0.380
63419W        W29960   0.956  33.367  13.500
63420W        W29961  26.746  17.627   1.880
63421W        W29962  28.421  33.400  12.920
63422W        W29963  29.006  40.630   1.789
63423W        W29964  45.000  44.796   2.921
63424W        W29965  17.232   5.092  13.262
63425W        W29966  21.202   9.387   2.035
63426W        W29967  36.136   8.209  12.717
63427W        W29968  17.002  20.094  13.461
63428W        W29969  28.694   7.622  13.364
63429W        W29970   2.159  32.695  11.096
63430W        W29971  27.740   4.891  14.523
63431W        W29972  12.788  15.841   1.724
63432W        W29973   0.303  32.475   0.207
63433W        W29974  35.130  15.249  10.459
63434W        W29975  20.027  34.968   2.570
63435W        W29976  22.108  30.833  12.027
63436W        W29977   0.631   7.754  12.416
63437W        W29978   5.453  35.416   4.059
63438W        W29979  23.672   4.518  13.526
63439W        W29980  13.641  35.416  13.311
63440W        W29981   0.491  16.784   1.361
63441W        W29982  38.842  33.386  11.530
63442W        W29983  19.266   9.617  12.418
63443W        W29984  24.146  36.866   3.755
63444W        W29985  16.370   1.412   2.532
63445W        W29986  16.769  17.670  10.617
63446W        W29987  11.618  14.268   4.214
63447W        W29988  12.298   1.541   3.741
63448W        W29989  13.609  34.493   0.683
63449W        W29990  35.345  14.496   3.402
63450W        W29991   1.931   3.278  12.430
63451W        W29992   9.699  11.537   3.595
63452W        W29993  21.234  11.290   1.947
63453W        W29994   3.281   1.435  12.748
63454W        W29995  39.763  26.699  14.578
63455W        W29996  43.326   7.397   1.166
63456W        W29997   5.900  20.475   4.081
63457W        W29998  29.483  22.646  13.792
63458W        W29999  13.195   1.465  14.915
63459W        W30000  19.233  16.105   0.864
63460W        W30001  18.558   2.925   3.190
63461W        W30002   6.331  13.653   0.580
63462W        W30003  36.547  34.199   2.997
63463W        W30004  27.188  31.900  13.463
63464W        W30005  25.888  11.228   1.778
63465W        W30006   3.356   2.094   2.282
63466W        W30007  21.053   6.446  12.810
63467W        W30008   7.769  34.399   2.358
63468W        W30009  14.205  29.568   2.674
63469W        W30010  11.820  16.284  14.270
63470W        W30011   5.927  25.856   0.378
63471W        W30012  18.061   7.367   4.126
63472W        W30013  26.819  22.255   5.038
63473W        W30014  21.727  27.236  13.222
63474W        W30015  14.328  25.071   1.712
63475W        W30016  42.307  25.163  11.532
63476W        W30017  28.217  22.669   1.286
63477W        W30018  34.826   7.024   0.882
63478W        W30019  15.002  19.219  14.933
63479W        W30020  40.766  12.114  14.930
63480W        W30021  32.650   3.181  12.502
63481W        W30022   8.426   9.298  11.027
63482W        W30023  24.026  33.978   4.448
63483W        W30024  21.388  28.555   0.490
63484W        W30025  14.336  17.740  11.839
63485W        W30026  18.237   2.200  11.248
63486W        W30027   0.463  18.980  11.145
63487W        W30028  28.921  44.403  10.601
63488W        W30029  18.287   9.715   3.130
63489W        W30030  34.125  19.587   2.698
63490W        W30031  33.424  21.121  11.706
63491W        W30032  14.220  18.182  13.334
63492W        W30033  21.071   9.118  12.016
63493W        W30034  21.046  35.175  13.192
63494W        W30035  31.007   8.396  13.857
63495W        W30036  44.314  41.311  11.936
63496W        W30037  14.754  41.840  12.564
63497W        W30038   5.388  42.454  12.787
63498W        W30039  42.715  15.799   4.020
63499W        W30040  21.961  31.909  11.120
63500W        W30041  34.649   7.210  14.721
63501W        W30042   6.849   6.923  13.045
63502W        W30043   4.004   3.489   4.992
63503W        W30044   8.723  26.927  14.907
63504W        W30045  22.890   3.730   5.024
63505W        W30046  26.512  11.914  14.750
63506W        W30047   0.645  34.457  14.331
63507W        W30048  20.198  10.898   4.235
63508W        W30049  17.936  37.986  10.614
63509W        W30050  33.967  14.189  11.557
63510W        W30051  19.881  39.502   4.141
63511W        W30052  15.911  19.008   3.257
63512W        W30053  10.408   5.685   1.738
63513W        W30054  31.932   7.055  14.720
63514W        W30055   3.704  17.551   0.490
63515W        W30056   0.792  20.634  10.506
63516W        W30057   7.265  10.118   4.422
63517W        W30058  10.399  20.762   0.925
63518W        W30059   1.769  37.349   3.235
63519W        W30060   6.301   2.338   0.252
63520W        W30061  29.889   9.505  10.830
63521W        W30062  32.463  43.043   2.641
63522W        W30063  12.618  16.650   2.414
63523W        W30064  31.635  21.822  13.059
63524W        W30065  16.874  14.692   4.200
63525W        W30066  34.509  27.463  12.862
63526W        W30067  34.929  30.616   5.228
63527W        W30068  33.376  38.825   0.783
63528W        W30069  42.789  15.040  14.939
63529W        W30070  19.292  10.916   1.278
63530W        W30071   4.226  17.333   3.152
63531W        W30072   5.828  21.603  12.390
63532W        W30073  19.683  25.517   1.897
63533W        W30074   9.235  19.273   3.874
63534W        W30075  17.050  15.666   0.787
63535W        W30076  19.574  18.623  12.187
63536W        W30077   1.862  16.244  14.201
63537W        W30078  39.854  31.338  13.681
63538W        W30079  17.696  20.235  11.217
63539W        W30080   8.960  43.192  14.055
63540W        W30081  36.738  22.554  14.335
63541W        W30082   2.851   0.336   2.428
63542W        W30083  12.083  21.027  12.025
63543W        W30084  38.578  39.181   2.436
63544W        W30085  33.702   1.397  13.055
63545W        W30086  13.361  26.459   2.745
63546W        W30087  15.705  20.018   1.635
63547W        W30088  23.734  43.694  13.818
63548W        W30089  28.222  24.659  10.720
63549W        W30090   6.384   8.870  10.647
63550W        W30091  10.476  39.104   2.243
63551W        W30092   7.444   8.822   0.595
63552W        W30093  17.766   0.331   3.359
63553W        W30094  13.650  25.976  13.666
63554W        W30095  20.602   3.033   2.219
63555W        W30096  32.096  38.049  12.067
63556W        W30097  38.863  24.543  14.054
63557W        W30098  17.829  37.793  14.480
63558W        W30099  37.854   1.441  14.353
63559W        W30100  27.687  10.583   0.099
63560W        W30101  28.237  32.648   3.710
63561W        W30102  23.622  10.627   4.385
63562W        W30103  16.644  35.483  13.824
63563W        W30104  30.194  39.403  11.597
63564W        W30105  28.087  42.452  14.839
63565W        W30106  38.644  16.788  13.394
63566W        W30107  16.082   0.457   2.663
63567W        W30108   8.755   8.267   1.029
63568W        W30109  26.020  10.146   0.394
63569W        W30110  11.900  29.297  12.976
63570W        W30111   3.450   1.856   3.569
63571W        W30112   0.385   1.974   1.909
63572W        W30113  28.616  10.494   5.098
63573W        W30114  23.549  20.252   2.909
63574W        W30115   9.984  36.514   2.404
63575W        W30116  31.825  10.239   4.625
63576W        W30117  42.472  33.347  13.966
63577W        W30118  16.506  14.058  11.355
63578W        W30119  13.346  35.867  14.855
63579W        W30120  32.101  11.392   3.122
63580W        W30121  26.232  27.674   3.792
63581W        W30122  14.757   7.377  13.455
63582W        W30123  17.471  37.169  13.586
63583W        W30124  33.374  25.003  10.733
63584W        W30125  31.190  26.695   1.353
63585W        W30126  36.419  10.942  13.421
63586W        W30127   6.130  44.396   1.042
63587W        W30128  12.830  29.432   1.668
63588W        W30129  25.434  27.088   0.701
63589W        W30130   5.992  18.810   2.241
63590W        W30131  12.698  28.036   2.153
63591W        W30132  18.825   7.725   4.580
63592W        W30133  44.226   2.245  12.491
63593W        W30134  25.217  10.189   3.569
63594W        W30135   7.271   2.532  13.477
63595W        W30136   9.770  23.395   0.201
63596W        W30137  23.189  11.621  10.976
63597W        W30138  41.092  36.334  12.913
63598W        W30139  42.788  13.662   1.447
63599W        W30140  25.469  30.169  12.416
63600W        W30141   1.929  37.123  13.489
63601W        W30142  36.054   0.240   1.388
63602W        W30143  19.761   1.857  13.417
63603W        W30144  40.951  23.953   1.039
63604W        W30145  24.588  13.162  14.397
63605W        W30146  32.269  29.983   4.103
63606W        W30147  43.891   4.710   1.760
63607W        W30148  37.468  10.829  14.404
63608W        W30149   7.876  26.200   3.263
63609W        W30150   4.879  36.827  12.001
63610W        W30151  25.187  17.593   2.268
63611W        W30152  39.384  40.363   0.185
63612W        W30153  16.854  17.894   0.906
63613W        W30154  27.631  10.300  13.157
63614W        W30155   6.245  29.087  10.732
63615W        W30156  36.014  25.459  13.163
63616W        W30157  14.231  20.650  12.811
63617W        W30158   8.201  11.792   1.372
63618W        W30159   9.053  43.333  11.173
63619W        W30160  43.826  24.062  13.060
63620W        W30161   4.875  21.662  12.801
63621W        W30162  22.719  41.027   3.184
63622W        W30163  21.437  31.551  12.789
63623W        W30164  33.153  10.719   4.157
63624W        W30165  31.493  18.672   2.293
63625W        W30166  16.860   4.185  13.394
63626W        W30167  34.824  18.746  12.482
63627W        W30168   3.033  32.406   1.666
63628W        W30169   3.424  28.922   4.146
63629W        W30170  19.498  13.174   1.942
63630W        W30171  38.424  24.983   1.987
63631W        W30172  25.969  15.508  12.056
63632W        W30173  43.386  14.131   4.992
63633W        W30174  18.911   0.528  11.169
63634W        W30175  37.931  21.284  12.489
63635W        W30176   7.748  28.724   0.310
63636W        W30177  25.077   9.767   2.668
63637W        W30178  41.967  36.893   0.931
63638W        W30179  34.409  30.855   1.722
63639W        W30180  40.815  40.786   1.375
63640W        W30181  19.069  22.598  10.734
63641W        W30182  26.506  39.285  13.744
63642W        W30183  44.815   1.648   3.294
63643W        W30184  32.527  38.325  12.143
63644W        W30185  15.810  24.207  12.808
63645W        W30186  39.047  14.238  11.495
63646W        W30187  28.970  20.246   1.216
63647W        W30188  16.172  41.661  13.081
63648W        W30189  15.291   4.007  12.848
63649W        W30190  35.290   8.849  11.197
63650W        W30191  21.066  24.515   2.262
63651W        W30192  28.402  37.302   0.824
63652W        W30193  17.946   9.915   5.390
63653W        W30194  44.717  31.161  12.025
63654W        W30195   2.486  40.386  10.656
63655W        W30196  35.040  44.928  11.909
63656W        W30197  10.760   0.354   3.837
63657W        W30198  35.163   5.649   0.826
63658W        W30199  37.961  28.020  12.556
63659W        W30200  17.057  27.697  14.173
63660W        W30201  13.063  28.131   1.357
63661W        W30202  35.551  10.456   1.373
63662W        W30203  23.216   1.399  13.016
63663W        W30204   9.945  33.088  13.454
63664W        W30205  43.994  29.692  10.955
63665W        W30206   0.823  24.627   1.195
63666W        W30207   1.171  41.858   4.129
63667W        W30208  28.588  35.886  14.048
63668W        W30209  31.368  19.856  13.088
63669W        W30210  40.651  31.856   0.460
63670W        W30211  42.338  26.747   4.213
63671W        W30212  35.314   4.600  12.379
63672W        W30213  43.271  18.550   4.089
63673W        W30214  30.358  33.922   3.403
63674W        W30215  14.061  43.367  13.480
63675W        W30216  25.130  10.958  13.470
63676W        W30217  29.923  11.996  14.636
63677W        W30218   5.686  22.649   2.519
63678W        W30219   6.832   9.770  11.066
63679W        W30220  41.779  43.018   2.654
63680W        W30221  19.870   0.355  11.967
63681W        W30222  11.825  25.990  12.962
63682W        W30223  32.440  13.011  13.977
63683W        W30224  26.495  19.782   0.961
63684W        W30225   7.704  22.216  14.107
63685W        W30226  30.557  25.628   0.288
63686W        W30227  14.002  12.855   4.198
63687W        W30228  13.117  25.315  14.062
63688W        W30229   3.882  34.034  14.263
63689W        W30230  18.702  31.902   3.659
63690W        W30231  10.336  40.479   3.182
63691W        W30232  34.412  40.716  13.806
63692W        W30233  14.936  18.632  13.825
63693W        W30234  39.547  28.374  13.262
63694W        W30235   3.217  30.262  11.429
63695W        W30236  33.501  32.142   3.522
63696W        W30237  38.026  14.688   4.615
63697W        W30238  36.523  24.727   0.531
63698W        W30239  34.527  10.502   4.338
63699W        W30240  41.537  23.941   2.418
63700W        W30241  10.186  27.156  14.744
63701W        W30242  34.127  42.897   3.254
63702W        W30243  36.334  27.054  14.417
63703W        W30244  18.056  36.260  10.657
63704W        W30245  16.134  44.428  12.237
63705W        W30246   7.856  44.016   1.740
63706W        W30247  11.210  22.648  10.794
63707W        W30248   6.692  11.132  11.152
63708W        W30249  21.932   3.622  14.801
63709W        W30250  38.855  34.123   2.417
63710W        W30251   1.230   9.334  11.920
63711W        W30252   5.244  35.490   0.224
63712W        W30253   1.316  21.271   1.356
63713W        W30254   0.285  23.556  12.596
63714W        W30255  18.729  19.573   4.968
63715W        W30256  38.088  43.845  11.993
63716W        W30257  17.213  24.674  12.841
63717W        W30258  24.272   5.885  14.950
63718W        W30259   4.730  22.213  11.561
63719W        W30260  43.008  26.963  10.943
63720W        W30261  20.471   0.138  13.300
63721W        W30262   7.611   4.220  13.381
63722W        W30263  19.929   3.530   4.321
63723W        W30264  23.106  41.395  10.649
63724W        W30265  39.039  21.501  10.207
63725W        W30266  27.156  25.896  14.276
63726W        W30267  14.685   8.306  13.512
63727W        W30268   8.802   2.857  13.767
63728W        W30269  26.198  44.410  13.067
63729W        W30270  10.359  25.553   0.960
63730W        W30271  32.553  39.413   0.057
63731W        W30272  43.298   2.661  14.406
63732W        W30273  24.637  12.216  14.838
63733W        W30274  24.434   5.038  10.051
63734W        W30275  26.715  36.794   3.111
63735W        W30276   0.632  32.344  12.160
63736W        W30277  30.492  15.645   2.044
63737W        W30278  30.824   0.863   4.007
63738W        W30279  35.114   1.721   2.181
63739W        W30280  17.728  12.766  11.554
63740W        W30281  19.753  33.550   4.505
63741W        W30282  16.264  41.810   1.506
63742W        W30283  44.763   8.721  12.961
63743W        W30284   4.859  14.109   1.374
63744W        W30285   6.133   8.682  11.065
63745W        W30286  33.026  30.647  13.510
63746W        W30287  25.023  41.660   2.493
63747W        W30288  24.258  41.472   0.431
63748W        W30289  33.935  17.051  14.397
63749W        W30290  41.434  43.977  12.119
63750W        W30291  14.118   7.422   4.225
63751W        W30292  34.026  25.622  14.821
63752W        W30293  21.270  11.785  11.622
63753W        W30294  20.692  19.200  14.480
63754W        W30295  14.467  34.531   2.262
63755W        W30296  44.022  15.424  12.954
63756W        W30297  11.743  31.613   2.916
63757W        W30298  31.865  31.040  11.520
63758W        W30299  26.127  44.497   1.199
63759W        W30300  13.317   9.698   4.350
63760W        W30301  43.816   1.791   3.838
63761W        W30302  24.869  34.960   0.913
63762W        W30303  44.713  16.006  11.259
63763W        W30304   4.884  14.695  11.197
63764W        W30305  43.167  38.898   2.172
63765W        W30306  37.285  21.801  10.887
63766W        W30307  18.089  27.832  12.595
63767W        W30308  20.123  39.360   0.302
63768W        W30309   3.772   0.446  12.908
63769W        W30310  42.952  24.085  11.957
63770W        W30311  40.152  13.076   1.615
63771W        W30312  20.957  23.026   3.243
63772W        W30313  21.572   7.092  12.436
63773W        W30314  12.581  26.495   3.186
63774W        W30315  39.318  11.620  12.912
63775W        W30316  10.907  35.475  10.583
63776W        W30317  16.630  35.615  12.392
63777W        W30318  29.021   1.944   0.718
63778W        W30319   7.031   2.690  10.718
63779W        W30320   5.152   4.801   4.006
63780W        W30321  33.976  26.169  13.942
63781W        W30322  42.802   7.179  11.059
63782W        W30323  40.838  29.999  13.455
63783W        W30324  19.971  14.357  13.346
63784W        W30325  26.717  42.399   2.685
63785W        W30326  11.627   9.790  14.468
63786W        W30327   1.168  35.399  12.714
63787W        W30328  38.918  37.777  13.089
63788W        W30329  42.898  35.061   5.243
63789W        W30330   8.712   2.944  12.347
63790W        W30331  33.450  24.923  14.783
63791W        W30332  22.754   4.178  12.119
63792W        W30333  37.867  43.597   4.824
63793W        W30334  43.981  33.706   0.675
63794W        W30335  34.103  22.398   0.399
63795W        W30336  39.486   8.858  14.319
63796W        W30337  41.609  16.566  13.154
63797W        W30338  13.547  31.836  13.468
63798W        W30339  33.506   6.135   3.546
63799W        W30340   9.415   6.541   4.551
63800W        W30341  26.097  39.867  14.848
63801W        W30342  31.601   0.908  14.424
63802W        W30343  21.118  39.786  14.059
63803W        W30344   4.167   6.902   4.582
63804W        W30345  20.036  18.502   0.023
63805W        W30346  38.175  32.240  12.856
63806W        W30347  25.160  29.107  13.139
63807W        W30348  22.686   8.625   1.758
63808W        W30349   7.327  36.064   3.740
63809W        W30350  33.062  22.289  13.462
63810W        W30351  29.141  22.578   1.642
63811W        W30352   8.709  16.306  13.320
63812W        W30353   6.451   2.103   1.749
63813W        W30354  35.420   5.642  13.654
63814W        W30355  14.052  28.209   3.669
63815W        W30356   7.440   6.281  12.404
63816W        W30357  16.364  11.684   4.636
63817W        W30358  32.693  17.584  14.929
63818W        W30359  32.664  35.381  12.183
63819W        W30360   7.948   8.796   3.264
63820W        W30361  35.524  20.393  11.917
63821W        W30362  17.768  17.798   1.335
63822W        W30363  36.479  44.387  14.288
63823W        W30364  29.023  19.725  12.133
63824W        W30365   1.942  30.947  13.405
63825W        W30366  42.767   7.462   1.369
63826W        W30367   2.232  27.272  12.877
63827W        W30368  21.718  24.478  12.982
63828W        W30369   5.451  17.835   2.428
63829W        W30370   5.276  11.771  13.623
63830W        W30371  17.577  14.101   3.637
63831W        W30372  12.538   0.263   4.138
63832W        W30373   9.613  19.783  10.667
63833W        W30374  14.193  41.669  14.638
63834W        W30375  43.920  15.367   1.929
63835W        W30376   3.444  25.697  12.284
63836W        W30377  40.775   8.719   3.638
63837W        W30378   6.828  42.605  12.014
63838W        W30379  36.173  42.340  12.522
63839W        W30380  14.211  30.593   2.514
63840W        W30381   9.732  15.989   3.147
63841W        W30382  13.563  23.378  14.726
63842W        W30383  35.933  12.765  11.964
63843W        W30384  37.295   5.192   0.135
63844W        W30385  29.440  35.839  13.996
63845W        W30386  11.867   1.796  14.937
63846W        W30387   8.974   2.189   2.707
63847W        W30388  35.642  40.722  12.875
63848W        W30389  28.067  20.534  14.708
63849W        W30390  34.611  24.449  10.733
63850W        W30391  15.046  11.021   1.432
63851W        W30392  34.967  42.244  11.146
63852W        W30393  35.404  19.445  11.087
63853W        W30394   8.200   6.782  10.750
63854W        W30395   4.048  26.751  12.755
63855W        W30396   8.679  19.032  13.169
63856W        W30397  31.968   9.251  14.607
63857W        W30398  35.908  26.324  12.733
63858W        W30399  24.048  20.119  14.458
63859W        W30400  43.156  21.959  13.479
63860W        W30401  24.165  38.933   1.434
63861W        W30402  30.472  17.586  12.625
63862W        W30403   9.241   1.516   2.423
63863W        W30404  38.940   9.205   3.116
63864W        W30405  15.615   9.161  11.557
63865W        W30406  27.703  33.599   0.874
63866W        W30407   7.000  43.035  13.974
63867W        W30408   8.843   7.419  11.167
63868W        W30409   9.475  17.792   2.279
63869W        W30410  22.258  18.252   0.982
63870W        W30411  36.268  30.489  11.642
63871W        W30412  33.767  11.339  14.447
63872W        W30413  41.441  12.447  12.222
63873W        W30414  43.464  41.217  14.971
63874W        W30415  40.655  28.015  10.870
63875W        W30416  22.582  28.148  13.138
63876W        W30417  18.002  25.038  10.660
63877W        W30418  11.169  42.712   2.507
63878W        W30419  18.474  36.481  13.112
63879W        W30420  17.205  38.345  14.330
63880W        W30421  33.822  23.363  13.903
63881W        W30422   3.352   9.785  10.584
63882W        W30423  43.726  23.835  14.583
63883W        W30424  41.948   2.428  11.646
63884W        W30425  30.453  24.280  12.117
63885W        W30426  14.286  28.612   1.178
63886W        W30427  21.144  31.079   2.377
63887W        W30428  24.268   7.623   3.606
63888W        W30429  23.480   9.288   3.212
63889W        W30430  44.904  28.106   0.742
63890W        W30431  10.112  22.760   1.727
63891W        W30432  17.961   2.318  13.811
63892W        W30433  43.398  25.103   0.759
63893W        W30434  38.943  28.038   4.513
63894W        W30435  22.568   4.840  14.125
63895W        W30436  42.688   0.843  11.603
63896W        W30437   1.393  11.566  11.088
63897W        W30438   0.076  18.619   1.434
63898W        W30439  18.181   2.510  14.252
63899W        W30440   6.657  32.752   4.133
63900W        W30441  42.606  41.288  13.385
63901W        W30442  38.129  23.884  11.208
63902W        W30443  44.381  12.885  12.575
63903W        W30444  28.442  35.723  11.582
63904W        W30445  37.004   5.527   0.490
63905W        W30446  28.025  34.168   4.200
63906W        W30447  33.853  30.499  14.875
63907W        W30448  33.555  12.729  12.411
63908W        W30449  28.351   7.077  10.497
63909W        W30450   9.912  30.371   2.710
63910W        W30451   1.931  30.462  11.611
63911W        W30452  31.985  32.208  12.103
63912W        W30453  19.944  40.353   0.417
63913W        W30454   5.925  20.183  14.420
63914W        W30455  31.020  39.642   1.970
63915W        W30456  40.418  10.206  10.378
63916W        W30457  34.950   1.994   1.216
63917W        W30458  17.197   4.985  11.850
63918W        W30459   7.717  22.529   0.414
63919W        W30460  42.382  13.737  13.724
63920W        W30461  25.468  43.148  12.467
63921W        W30462   2.685   0.992   0.703
63922W        W30463  16.792  15.298   1.450
63923W        W30464  42.970  37.536  12.947
63924W        W30465  39.639   7.278  12.259
63925W        W30466  43.472  15.821  13.820
63926W        W30467   2.713  36.498  13.194
63927W        W30468   3.823  37.117  12.908
63928W        W30469  33.479   2.295   0.104
63929W        W30470  36.513  28.032   2.677
63930W        W30471  38.606  19.641   4.087
63931W        W30472  35.316   7.885   4.140
63932W        W30473  22.502  33.830   3.703
63933W        W30474   5.948  20.657   3.607
63934W        W30475  43.906  43.962   3.811
63935W        W30476  11.478   8.814   1.399
63936W        W30477  33.803   9.187  12.161
63937W        W30478  32.827  26.618   0.825
63938W        W30479  13.485  33.102   3.642
63939W        W30480   7.668  10.888  14.042
63940W        W30481  29.691  21.957   0.953
63941W        W30482  31.498  16.587  12.754
63942W        W30483   2.283  32.685   3.448
63943W        W30484  23.443  11.804   4.116
63944W        W30485  14.244  32.808   3.307
63945W        W30486  38.505  35.855  12.006
63946W        W30487  31.438  34.217   1.373
63947W        W30488  22.605  39.096   2.339
63948W        W30489  20.257  44.392  12.341
63949W        W30490  44.337  43.013  13.635
63950W        W30491  37.560  32.690  10.697
63951W        W30492  40.248  18.731   0.028
63952W        W30493  11.180  28.075  10.548
63953W        W30494  31.180  11.374   1.188
63954W        W30495  18.873  21.780  12.929
63955W        W30496  29.681  17.682   1.490
63956W        W30497  31.067  12.765   1.666
63957W        W30498  44.732   0.699  13.547
63958W        W30499   1.208  11.286   3.688
63959W        W30500  32.336  11.321  13.631
63960W        W30501  36.617  21.956  13.048
63961W        W30502  28.170  37.818   1.944
63962W        W30503  12.425  21.576  13.961
63963W        W30504  44.908   0.532   4.162
63964W        W30505  43.826  34.356   3.776
63965W        W30506  16.753   8.414   2.433
63966W        W30507  23.442  22.418   3.707
63967W        W30508  24.166  28.811   3.183
63968W        W30509  26.852   6.355   0.949
63969W        W30510  44.774  16.599  13.399
63970W        W30511  42.546  25.657  12.334
63971W        W30512  15.722  31.616  10.326
63972W        W30513  35.213  19.736   1.721
63973W        W30514  34.780  16.757  14.423
63974W        W30515  43.235   3.619   1.279
63975W        W30516  22.647   9.651   3.124
63976W        W30517   7.763  14.096   3.626
63977W        W30518  43.380   7.761   2.110
63978W        W30519  44.399  26.713   2.355
63979W        W30520   2.599   8.424  11.649
63980W        W30521  12.765  39.176  12.973
63981W        W30522  13.141  16.183   1.905
63982W        W30523   4.897  39.252  11.030
63983W        W30524  44.035  40.775   5.212
63984W        W30525  37.499  12.234  12.702
63985W        W30526  13.612   5.655   0.865
63986W        W30527  26.096   6.860   0.724
63987W        W30528  19.163  13.852   3.731
63988W        W30529  40.592  15.566   1.828
63989W        W30530  29.720   5.788  10.982
63990W        W30531  16.254  11.637  12.468
63991W        W30532  33.408  39.113   0.341
63992W        W30533  21.535   0.890  13.903
63993W        W30534  19.757  15.153   0.373
63994W        W30535  28.446  35.569   1.943
63995W        W30536  25.175   6.330  11.471
63996W        W30537  14.674   7.373   1.966
63997W        W30538  43.973  33.898   1.134
63998W        W30539  28.397  19.536   1.292
63999W        W30540  42.793  15.291  10.984
64000W        W30541   5.677  15.047   1.338
64001W        W30542  13.862  31.439  13.442
64002W        W30543  42.922   0.351   4.410
64003W        W30544  33.641  29.619   3.162
64004W        W30545  14.361  24.548  12.068
64005W        W30546  19.101  10.292  12.018
64006W        W30547  32.921  36.940  11.658
64007W        W30548  40.748  27.062   2.149
64008W        W30549  35.507  40.835  12.388
64009W        W30550   5.093   3.240  14.799
64010W        W30551  42.754  31.932  13.849
64011W        W30552  15.965   3.256   0.780
64012W        W30553  26.750  24.721   4.666
64013W        W30554  32.207  43.719  14.249
64014W        W30555   4.340  29.835  14.728
64015W        W30556  28.412  42.230   1.400
64016W        W30557   6.714  43.042   4.303
64017W        W30558  37.048  37.320  14.958
64018W        W30559  35.636  10.618   4.164
64019W        W30560  39.800  38.812  10.558
64020W        W30561  42.371  35.818   2.327
64021W        W30562  37.019   8.143  11.625
64022W        W30563  15.616  30.101  10.230
64023W        W30564  28.316  12.921  11.215
64024W        W30565   9.746  39.278  14.765
64025W        W30566  36.696  30.961  11.197
64026W        W30567  35.410  31.842  14.572
64027W        W30568  14.565  33.852  11.203
64028W        W30569  13.632  41.099   2.121
64029W        W30570  15.031  35.316   0.823
64030W        W30571   0.690  31.702  13.915
64031W        W30572  27.591  34.512   1.791
64032W        W30573   0.444  43.255   1.197
64033W        W30574  18.412  21.645  13.080
64034W        W30575  18.376  42.301   2.307
64035W        W30576  12.075  25.948   4.136
64036W        W30577  10.281  26.104   1.824
64037W        W30578  10.791  29.521   0.517
64038W        W30579  38.172   2.674   4.409
64039W        W30580  17.734  17.233  12.069
64040W        W30581  29.458  10.733  13.132
64041W        W30582   0.813   7.215   3.154
64042W        W30583  20.630  10.742  14.824
64043W        W30584  34.452  22.534   1.811
64044W        W30585  13.084  38.979   0.339
64045W        W30586  18.715  38.575  11.901
64046W        W30587  16.063  38.069  12.005
64047W        W30588  17.171   2.294  14.489
64048W        W30589  27.406  40.813  14.238
64049W        W30590  17.137  31.951   0.320
64050W        W30591  43.468  30.254  10.812
64051W        W30592  37.865  10.126   1.910
64052W        W30593  25.048  41.702   3.237
64053W        W30594  41.897  25.263   5.096
64054W        W30595  11.096   6.748   4.994
64055W        W30596  41.216   7.043   2.832
64056W        W30597   6.143   7.093  14.356
64057W        W30598  25.993  30.012  13.318
64058W        W30599  33.566  25.370   2.260
64059W        W30600  29.107  40.285  14.856
64060W        W30601  42.046  38.921  14.881
64061W        W30602  20.034  24.946  13.394
64062W        W30603  17.766  15.807  10.483
64063W        W30604  34.338   7.362  14.323
64064W        W30605  16.290   1.392  12.836
64065W        W30606  21.643  23.521  11.883
64066W        W30607   5.433  26.312   2.367
64067W        W30608  17.089  42.438  13.072
64068W        W30609  33.437  11.845  14.421
64069W        W30610  32.083  44.229  12.024
64070W        W30611  22.288  41.917  12.841
64071W        W30612  40.803   5.957  13.835
64072W        W30613  15.448  16.707  13.259
64073W        W30614  30.084  28.688  10.755
64074W        W30615   0.965  16.105  11.961
64075W        W30616  30.346  34.477  13.809
64076W        W30617   2.546   6.037  11.985
64077W        W30618  29.675  36.769  12.965
64078W        W30619  17.500  35.586   1.053
64079W        W30620  20.494  29.666  12.428
64080W        W30621  36.975  43.952   4.601
64081W        W30622  12.903  41.004   4.720
64082W        W30623  24.270   1.351   4.170
64083W        W30624   2.716   1.793   3.078
64084W        W30625   9.488  18.591   3.286
64085W        W30626  17.672  29.377   1.185
64086W        W30627  36.685  36.078   2.803
64087W        W30628  39.766  20.789  14.482
64088W        W30629  19.679  33.132  13.538
64089W        W30630   1.343  21.094  11.445
64090W        W30631  25.873  44.742  11.654
64091W        W30632   2.273   3.212  13.968
64092W        W30633  20.810  14.219  12.889
64093W        W30634  24.812  31.589  13.554
64094W        W30635  25.036  14.137  12.522
64095W        W30636   5.177   6.584   0.805
64096W        W30637   7.920  41.834  13.691
64097W        W30638  16.505  30.145  12.301
64098W        W30639   4.277   3.244   0.456
64099W        W30640   8.899   3.400   2.237
64100W        W30641  35.136   9.757   2.320
64101W        W30642  32.449  25.778  14.576
64102W        W30643  14.563  23.064   3.211
64103W        W30644   8.632  11.170   3.653
64104W        W30645  37.838   6.328  13.968
64105W        W30646  41.412  39.556   0.318
64106W        W30647  10.864   5.861   4.739
64107W        W30648  14.473  18.745  11.527
64108W        W30649  37.014   7.412  10.666
64109W        W30650  23.644  33.199  13.111
64110W        W30651  32.602  42.309   3.869
64111W        W30652  25.335  10.126   1.369
64112W        W30653  35.984  26.979   3.150
64113W        W30654  14.604  34.908   3.844
64114W        W30655  28.405  16.017  13.942
64115W        W30656  28.141  38.217   3.708
64116W        W30657  40.424  35.454   5.053
64117W        W30658   3.356   0.035  14.435
64118W        W30659  43.934  27.888   1.319
64119W        W30660  41.026  35.013  11.553
64120W        W30661   7.279  11.563  14.004
64121W        W30662  38.834  30.119  13.562
64122W        W30663  31.049  37.116   0.395
64123W        W30664  32.797  20.275   3.769
64124W        W30665   0.942  12.536  11.615
64125W        W30666  40.083  16.341  13.513
64126W        W30667   2.724  18.618   0.403
64127W        W30668  23.466  16.464  14.018
64128W        W30669  26.449  11.665  11.222
64129W        W30670   1.016   0.867   3.254
64130W        W30671  24.374  29.738  11.910
64131W        W30672   4.162  44.058  11.944
64132W        W30673  40.881  25.174  12.101
64133W        W30674  19.956  24.158  10.848
64134W        W30675  17.036  36.516   2.306
64135W        W30676   6.502   9.232   1.696
64136W        W30677  28.965  42.553  11.116
64137W        W30678   1.577  23.588   2.372
64138W        W30679  12.777  33.538   4.071
64139W        W30680  44.996  41.108   4.501
64140W        W30681   1.006  26.507  10.513
64141W        W30682  40.865   7.862   0.921
64142W        W30683  36.551  36.957  13.447
64143W        W30684  40.550  31.464  11.548
64144W        W30685   5.958  30.481  14.905
64145W        W30686   6.388   9.380  14.873
64146W        W30687   5.402  26.752   4.533
64147W        W30688  22.284  17.072   0.459
64148W        W30689  39.973  39.633  14.357
64149W        W30690  21.575   7.169  13.413
64150W        W30691   0.282   6.727  14.758
64151W        W30692  14.603  22.032   3.659
64152W        W30693  43.204  20.113   4.693
64153W        W30694  34.125   4.835   1.755
64154W        W30695   2.321  35.631   2.282
64155W        W30696   8.773  31.430   2.855
64156W        W30697  17.626  23.588  14.337
64157W        W30698  32.369  28.075  13.302
64158W        W30699  22.814  15.718   3.315
64159W        W30700  30.402   7.215  14.268
64160W        W30701  38.330   0.321  14.080
64161W        W30702   7.316   8.918   0.083
64162W        W30703  44.295  32.562  12.407
64163W        W30704  34.330  24.701   0.943
64164W        W30705  28.189  31.464  13.030
64165W        W30706  19.213   7.785  13.233
64166W        W30707  31.495  20.560   3.363
64167W        W30708   5.871   8.197   3.255
64168W        W30709  31.623  44.232  11.653
64169W        W30710  23.840   0.959   3.280
64170W        W30711  18.997  20.223   1.883
64171W        W30712  29.492  29.022   1.941
64172W        W30713  35.618   7.002  12.612
64173W        W30714  37.800  30.070  10.747
64174W        W30715  28.541  26.469  10.344
64175W        W30716  27.616  21.530   1.618
64176W        W30717  40.961  21.037   0.688
64177W        W30718  25.020  23.349  12.147
64178W        W30719  22.285  19.639   0.567
64179W        W30720   9.304  39.153   0.956
64180W        W30721  13.135   1.868  11.695
64181W        W30722  19.854  44.712   2.284
64182W        W30723  28.880  40.507  10.715
64183W        W30724  32.109  40.710   3.674
64184W        W30725  38.591   7.411  13.444
64185W        W30726  25.925  13.264  12.525
64186W        W30727  21.342  36.847   2.761
64187W        W30728  42.446   2.551   4.808
64188W        W30729  36.851  27.040   1.244
64189W        W30730  43.982   4.916  12.061
64190W        W30731  41.832  39.196   4.522
64191W        W30732   1.025  27.148   1.247
64192W        W30733   4.014   9.079  11.753
64193W        W30734   5.429  28.871  13.893
64194W        W30735   5.941  19.446   0.658
64195W        W30736  39.438  39.440   0.424
64196W        W30737   4.259  40.340   3.796
64197W        W30738  34.715  27.832   1.942
64198W        W30739  38.978  39.218  12.935
64199W        W30740  12.321   1.445  14.385
64200W        W30741  35.469  32.545   3.685
64201W        W30742  32.728  12.930  12.470
64202W        W30743   8.627  30.402  11.517
64203W        W30744  16.766   4.659   3.726
64204W        W30745   8.676   7.317  13.536
64205W        W30746   7.371  20.531  13.424
64206W        W30747  29.941  18.198   4.739
64207W        W30748   6.296  33.431  14.983
64208W        W30749   8.243   6.900  14.977
64209W        W30750  24.618  31.200  14.371
64210W        W30751  27.103  27.621   1.307
64211W        W30752   1.444  17.845  13.460
64212W        W30753  18.527  24.969   2.219
64213W        W30754  35.583  43.327   1.672
64214W        W30755   4.661  38.809   2.388
64215W        W30756  29.188  34.119  11.208
64216W        W30757  20.442   6.119  13.892
64217W        W30758  20.800  16.693  14.219
64218W        W30759  42.530  22.017   2.234
64219W        W30760  21.481  12.631  12.646
64220W        W30761  36.504  16.981  13.967
64221W        W30762  39.261  18.771  11.086
64222W        W30763  43.768  13.172   3.593
64223W        W30764  10.167  25.280  13.995
64224W        W30765  14.659  37.798  12.119
64225W        W30766   4.879  32.349  11.398
64226W        W30767  15.404  21.190  12.156
64227W        W30768   2.743  32.019   3.805
64228W        W30769  43.308  34.423  11.621
64229W        W30770  20.601  24.445   4.964
64230W        W30771   9.818   5.440   3.696
64231W        W30772  26.675  10.443   2.628
64232W        W30773  39.758  33.034   3.166
64233W        W30774   8.740  16.109   0.848
64234W        W30775   7.448  44.380  11.572
64235W        W30776  10.380  13.570   0.238
64236W        W30777  42.384  23.143   2.591
64237W        W30778  23.245  17.237   1.411
64238W        W30779  19.752  29.072   2.673
64239W        W30780  11.071   2.535  12.047
64240W        W30781  12.950  36.427   4.091
64241W        W30782  19.280  22.789   2.328
64242W        W30783   0.578  21.694   2.782
64243W        W30784  19.062  27.997   1.457
64244W        W30785  36.449  14.983  13.572
64245W        W30786  18.608  39.272  10.717
64246W        W30787  15.616  43.221   4.159
64247W        W30788  36.638  10.861   0.901
64248W        W30789   6.530   4.509  11.252
64249W        W30790  26.721  39.808  13.319
64250W        W30791  44.253  22.689   3.886
64251W        W30792  31.189  28.732  10.235
64252W        W30793  18.217  34.505  14.894
64253W        W30794  18.552  38.094   2.167
64254W        W30795  33.411   8.742  13.113
64255W        W30796  17.654  29.991   3.282
64256W        W30797  26.062  17.100   4.265
64257W        W30798   9.120   0.006   0.494
64258W        W30799  17.034  40.590  14.828
64259W        W30800  39.554   6.054   3.170
64260W        W30801  28.509  43.374  11.320
64261W        W30802  38.754  34.059   4.317
64262W        W30803  13.363  13.355  13.961
64263W        W30804   7.697  21.922   3.289
64264W        W30805  13.349   7.574   4.982
64265W        W30806  21.024  19.028   3.680
64266W        W30807  42.050  44.225  11.585
64267W        W30808   3.175   6.908   0.887
64268W        W30809  14.207  10.275   0.168
64269W        W30810  23.717  23.773  13.917
64270W        W30811  30.408  17.510  12.099
64271W        W30812   4.201  22.791  10.543
64272W        W30813  27.584  29.921   2.333
64273W        W30814  24.450  30.583  13.499
64274W        W30815  20.344  38.726  10.577
64275W        W30816  11.121  17.308   2.106
64276W        W30817  22.776  30.492  12.930
64277W        W30818  19.524  34.073   2.795
64278W        W30819   2.838  34.432   1.225
64279W        W30820  26.136  36.001   3.409
64280W        W30821   4.833  38.479  13.770
64281W        W30822  30.130   8.362  11.125
64282W        W30823  16.458  22.991   3.015
64283W        W30824  11.650   0.873   2.607
64284W        W30825  26.577  29.167   0.516
64285W        W30826  35.905  18.502   2.828
64286W        W30827  40.384   7.365   1.737
64287W        W30828   1.220  12.597   0.845
64288W        W30829  16.871  21.431  13.401
64289W        W30830  25.918  26.044   3.056
64290W        W30831  27.616  33.856  14.483
64291W        W30832  15.624  14.764  12.208
64292W        W30833  28.211  32.909  13.015
64293W        W30834  36.796  22.426  11.484
64294W        W30835  15.665  41.810   4.689
64295W        W30836  30.825  16.475   1.136
64296W        W30837  39.797   9.353   1.005
64297W        W30838   7.706   1.872  12.430
64298W        W30839  11.873   0.316  10.717
64299W        W30840  20.234   2.813  11.157
64300W        W30841   3.698  15.727   4.606
64301W        W30842  25.645  15.848   0.379
64302W        W30843  41.476  43.216  12.213
64303W        W30844  28.950  38.513  14.442
64304W        W30845  23.064  13.920  13.745
64305W        W30846  27.678  30.337   0.764
64306W        W30847   3.399   6.574   2.896
64307W        W30848  20.029  27.819   1.201
64308W        W30849   1.164  10.043   0.846
64309W        W30850  43.465  39.061  13.570
64310W        W30851  12.492  15.368   3.948
64311W        W30852  13.887  23.876   2.762
64312W        W30853  35.951  17.922   0.940
64313W        W30854  14.333  16.111  14.999
64314W        W30855  31.423  23.451   2.261
64315W        W30856   0.219  37.802  14.276
64316W        W30857  41.837  23.162   0.291
64317W        W30858  28.747  22.602  12.402
64318W        W30859  26.817  44.841  12.532
64319W        W30860  29.699   5.772   2.723
64320W        W30861  42.257  13.283   5.044
64321W        W30862  38.216  44.338   4.271
64322W        W30863  16.387   9.187   0.222
64323W        W30864  12.341  41.630   3.221
64324W        W30865  36.250  42.586   1.320
64325W        W30866  29.167   9.103  12.403
64326W        W30867  30.417  13.409   3.532
64327W        W30868   9.829  22.456  11.069
64328W        W30869  31.387  38.580   2.790
64329W        W30870  17.109  36.189   4.526
64330W        W30871  21.241  19.097   4.539
64331W        W30872   6.936   4.490  12.962
64332W        W30873  26.710  26.487  10.724
64333W        W30874  30.195  30.908  11.215
64334W        W30875  43.365  43.031   3.618
64335W        W30876  14.760  27.506  14.776
64336W        W30877   4.343   4.031   5.084
64337W        W30878  23.452  31.030  11.900
64338W        W30879  29.996   7.188   4.395
64339W        W30880   6.871  19.678  10.956
64340W        W30881  29.053   1.759  11.593
64341W        W30882   6.164  23.955  13.953
64342W        W30883  31.591  44.703   3.026
64343W        W30884  16.693  40.972   2.367
64344W        W30885  16.326   0.077   0.043
64345W        W30886  23.477   8.348   3.398
64346W        W30887  44.904  21.703   0.918
64347W        W30888  24.177  43.238   2.858
64348W        W30889  30.548  44.632  11.822
64349W        W30890  27.365  11.416  10.196
64350W        W30891  38.603   7.768  11.627
64351W        W30892  17.107  25.039  14.637
64352W        W30893  42.800  37.349   2.892
64353W        W30894  34.410  11.758   1.522
64354W        W30895   0.362   9.088  14.424
64355W        W30896  36.896  22.612   4.183
64356W        W30897  39.806  43.584  13.992
64357W        W30898  12.921  42.418   1.344
64358W        W30899  37.343  42.933   1.180
64359W        W30900   3.392  37.036   2.144
64360W        W30901  20.295  34.436   0.454
64361W        W30902  25.158  29.567  13.385
64362W        W30903  20.505  32.891   3.607
64363W        W30904  20.003  21.259  12.344
64364W        W30905  26.538  42.245  11.095
64365W        W30906   9.853   1.497   4.762
64366W        W30907  33.914  18.124   2.796
64367W        W30908  13.679  18.919  11.465
64368W        W30909   6.790  38.954   1.123
64369W        W30910  42.660  24.015   0.338
64370W        W30911   7.339  31.955   1.410
64371W        W30912  34.096   5.896   0.247
64372W        W30913  16.131  39.516  12.364
64373W        W30914  33.365  22.410  13.900
64374W        W30915  38.449  35.092   0.962
64375W        W30916  35.168  10.599  14.400
64376W        W30917  31.921  27.710   3.292
64377W        W30918  35.036   7.218  10.983
64378W        W30919   4.883  29.371   3.241
64379W        W30920   8.227  24.252   1.400
64380W        W30921  40.899  15.661  11.651
64381W        W30922  11.615  38.396   5.441
64382W        W30923  35.988   7.255  10.693
64383W        W30924  42.250  40.485   0.298
64384W        W30925   2.865  19.690  12.356
64385W        W30926   4.705  26.043  14.426
64386W        W30927  38.899  12.861  14.025
64387W        W30928  40.584  18.859  12.136
64388W        W30929   0.381  38.065  11.379
64389W        W30930   0.674  25.254  11.056
64390W        W30931  20.756  43.011   0.476
64391W        W30932   4.650  14.531   3.748
64392W        W30933  21.073  29.233  12.969
64393W        W30934  43.378  28.883  13.410
64394W        W30935   2.697   6.232   2.851
64395W        W30936  14.838   8.278   1.058
64396W        W30937  25.767  35.807  14.921
64397W        W30938  15.966  24.514  14.968
64398W        W30939  31.118  41.811  10.661
64399W        W30940   6.918   6.897   2.347
64400W        W30941  10.880  34.372  11.313
64401W        W30942  28.464   9.864  13.043
64402W        W30943  35.901  39.485   2.385
64403W        W30944  43.904  29.937  14.106
64404W        W30945  26.988  36.400   1.425
64405W        W30946  28.215  24.544  11.498
64406W        W30947   9.156  30.904  10.774
64407W        W30948  21.108  41.791   1.316
64408W        W30949   0.039  44.381   2.183
64409W        W30950  14.550  26.769   3.764
64410W        W30951  41.797  11.538  14.444
64411W        W30952  42.951   9.780   2.857
64412W        W30953  37.032  24.046  14.455
64413W        W30954  43.262  25.665   1.875
64414W        W30955  34.033  33.137   1.406
64415W        W30956  20.041  13.070   1.593
64416W        W30957  41.895  40.548   4.320
64417W        W30958  30.045   2.726  13.408
64418W        W30959  32.456  10.935  10.731
64419W        W30960  15.333  13.700  10.740
64420W        W30961  22.749   4.950   2.675
64421W        W30962  16.518  13.528   4.718
64422W        W30963  38.698   8.663   0.450
64423W        W30964  36.003   9.648  13.076
64424W        W30965  44.804  39.817   0.282
64425W        W30966  35.543  44.405  14.395
64426W        W30967  14.099  43.443  12.973
64427W        W30968  31.288  39.847  12.021
64428W        W30969   2.940  28.968  13.618
64429W        W30970  11.527  35.592   4.143
64430W        W30971  44.699   2.564   0.658
64431W        W30972   5.958  35.395   3.907
64432W        W30973  18.537  39.423   3.769
64433W        W30974   8.094  25.541  13.407
64434W        W30975   6.015  38.598   4.644
64435W        W30976   5.734   7.828   0.686
64436W        W30977  32.023   2.589  12.621
64437W        W30978  12.530  15.710   1.286
64438W        W30979   4.844  15.255  14.306
64439W        W30980  23.760   8.686  14.438
64440W        W30981  16.728  17.130  12.364
64441W        W30982  38.103   8.935   4.046
64442W        W30983  26.977  42.249   1.788
64443W        W30984  20.044  38.738  12.385
64444W        W30985  31.602  31.869  14.986
64445W        W30986  14.111  27.691  12.457
64446W        W30987  25.765  27.485   0.829
64447W        W30988   8.636  37.054   0.471
64448W        W30989  15.494  12.191   4.220
64449W        W30990  32.559  26.573  10.751
64450W        W30991  34.189   1.845   1.861
64451W        W30992  32.158   4.848   1.707
64452W        W30993  35.385  28.236  10.718
64453W        W30994  25.708  22.843   1.384
64454W        W30995  39.570  10.139  13.969
64455W        W30996  30.174   9.640   0.283
64456W        W30997  16.646  34.027  10.621
64457W        W30998  13.203   6.620  14.539
64458W        W30999  17.658   6.765   3.580
64459W        W31000  32.760  25.779  12.018
64460W        W31001  30.037  21.475  14.752
64461W        W31002  32.139   0.331   4.149
64462W        W31003  39.573  21.608   1.917
64463W        W31004  34.136  29.123  12.354
64464W        W31005  39.384  25.055   0.316
64465W        W31006  23.144  15.065  13.057
64466W        W31007  44.566   7.414   3.729
64467W        W31008   7.331  35.069   4.274
64468W        W31009  39.079  38.991  11.543
64469W        W31010  22.566  27.674  12.929
64470W        W31011   1.826   8.315  13.840
64471W        W31012  30.532  40.123  13.005
64472W        W31013   9.686  39.656   2.352
64473W        W31014   2.294  38.896  11.136
64474W        W31015   3.245  23.431  14.500
64475W        W31016  32.929  38.570   0.001
64476W        W31017  12.779   6.967  12.126
64477W        W31018  17.865  20.017   4.222
64478W        W31019   9.340  27.384  11.976
64479W        W31020  11.629   5.785   0.566
64480W        W31021   9.794   2.255   1.947
64481W        W31022  29.294  12.919  11.608
64482W        W31023   8.264  22.658   0.692
64483W        W31024  21.316  41.292  11.228
64484W        W31025  19.321  16.456   3.599
64485W        W31026   3.197  33.563  13.416
64486W        W31027   4.891  12.477   4.953
64487W        W31028  24.827  22.297  14.946
64488W        W31029  24.157  14.907   1.784
64489W        W31030  33.180  25.909  10.731
64490W        W31031  29.459  41.427  10.683
64491W        W31032  26.617  41.495  10.599
64492W        W31033  17.120  28.419   3.736
64493W        W31034  11.607  41.509  11.040
64494W        W31035   1.419  14.963   1.184
64495W        W31036  19.784  34.466  12.870
64496W        W31037  11.496  26.114  13.570
64497W        W31038  13.738  42.915   4.210
64498W        W31039  34.421   8.961   4.114
64499W        W31040  37.998  29.129   0.898
64500W        W31041  26.998   4.403   2.806
64501W        W31042  13.509   2.964   4.070
64502W        W31043  10.834  38.053   1.182
64503W        W31044  15.358  37.162   2.917
64504W        W31045  35.259  41.767  13.994
64505W        W31046   5.379  15.065  12.492
64506W        W31047  28.607  26.001  11.562
64507W        W31048  30.024  44.279   1.341
64508W        W31049  15.126   4.324   1.683
64509W        W31050  12.200  28.695   2.167
64510W        W31051   2.045  30.239  13.781
64511W        W31052  32.606   9.451   1.492
64512W        W31053  15.230  10.392  14.351
64513W        W31054  19.060  41.867  11.727
64514W        W31055  10.834  27.984  11.392
64515W        W31056  31.086  16.650  14.292
64516W        W31057  16.231   9.762  12.597
64517W        W31058   3.632  29.563   2.911
64518W        W31059  31.568  38.788   3.642
64519W        W31060  32.479  23.007  11.117
64520W        W31061  18.111   1.004   0.806
64521W        W31062  19.076  10.598   1.983
64522W        W31063   8.803  16.883   3.295
64523W        W31064  14.973  19.150  13.716
64524W        W31065  36.752   5.928   2.270
64525W        W31066  28.418  18.780   3.082
64526W        W31067  10.256  20.650   4.472
64527W        W31068  38.820   8.376   0.884
64528W        W31069  40.111   3.933  11.943
64529W        W31070  42.272  35.012  11.172
64530W        W31071  16.134  41.799  11.141
64531W        W31072  22.840  24.236  11.131
64532W        W31073  13.815  37.388  14.867
64533W        W31074   0.160  31.013  13.891
64534W        W31075  17.225  44.029   3.863
64535W        W31076  18.746   6.961  10.674
64536W        W31077  22.099  16.860   2.408
64537W        W31078  31.334   4.909   0.429
64538W        W31079  30.173  19.574   2.818
64539W        W31080  13.748  19.498  13.945
64540W        W31081  35.538  24.063  10.800
64541W        W31082  13.754  43.942   3.475
64542W        W31083  26.430  33.883  14.242
64543W        W31084  40.997   7.375   4.206
64544W        W31085   3.611  16.667  12.512
64545W        W31086   5.697  36.963   0.968
64546W        W31087  18.038  21.303  12.514
64547W        W31088  41.970  14.617  10.776
64548W        W31089  32.219  14.736   3.813
64549W        W31090  42.728   6.106  14.900
64550W        W31091  20.156  31.928  11.423
64551W        W31092  32.887  14.475   2.615
64552W        W31093  11.712  27.139   4.583
64553W        W31094  14.114   0.238   0.565
64554W        W31095   9.735  38.292   0.004
64555W        W31096   0.822   9.589  14.933
64556W        W31097  28.194  11.804  13.969
64557W        W31098  10.690  14.848  11.915
64558W        W31099  14.886  13.024   4.033
64559W        W31100  14.270   6.490  13.750
64560W        W31101  22.001  15.819  10.662
64561W        W31102   0.871  43.570  11.029
64562W        W31103  38.575   1.846   4.379
64563W        W31104  16.480   1.343  11.044
64564W        W31105  22.825  29.615  11.977
64565W        W31106  13.204  27.970   2.355
64566W        W31107   6.739   1.142  13.473
64567W        W31108   5.171  41.394  11.970
64568W        W31109   0.512  38.587  10.682
64569W        W31110  32.970   2.103  12.957
64570W        W31111   3.653  24.076  11.824
64571W        W31112  35.552  42.989  12.702
64572W        W31113  16.209   1.532   2.057
64573W        W31114   9.137  10.692   3.739
64574W        W31115  23.795  27.963   4.752
64575W        W31116  18.694  22.938  14.867
64576W        W31117  27.350  12.652  14.464
64577W        W31118  21.941  32.626   0.345
64578W        W31119   4.216   3.430   3.259
64579W        W31120  20.303  32.060   4.459
64580W        W31121  22.097   4.673  14.428
64581W        W31122  38.482  29.083   1.118
64582W        W31123   0.587   8.759   4.487
64583W        W31124  27.499  40.988   4.311
64584W        W31125  42.280   1.856  11.277
64585W        W31126  36.568  25.617   3.257
64586W        W31127  34.535  30.162   1.216
64587W        W31128  44.242  19.036   0.581
64588W        W31129   9.218  39.328  12.632
64589W        W31130   8.101  32.311   1.804
64590W        W31131  43.522  16.924  11.965
64591W        W31132  17.970   9.912  13.480
64592W        W31133  20.405   5.304  11.757
64593W        W31134  15.422  34.022  13.285
64594W        W31135  25.203   0.248   0.111
64595W        W31136   8.204  17.861   0.905
64596W        W31137  19.059  25.748   3.262
64597W        W31138   5.847  15.297  12.485
64598W        W31139  44.802  42.249  13.597
64599W        W31140   7.816  43.080   3.143
64600W        W31141  11.675  12.584  12.954
64601W        W31142  20.036  34.916   0.650
64602W        W31143  31.837  33.022   4.222
64603W        W31144  39.273  36.218   1.784
64604W        W31145  44.199  37.485  10.247
64605W        W31146  41.019   5.194  13.449
64606W        W31147   4.414   7.019  12.816
64607W        W31148  41.723   5.835   3.765
64608W        W31149   4.193  13.182  10.791
64609W        W31150  39.399   2.044  13.461
64610W        W31151  23.191  24.426  12.965
64611W        W31152  37.444  17.543   3.561
64612W        W31153  42.054   3.229  11.974
64613W        W31154  11.383  18.295   3.566
64614W        W31155   4.916   5.515   4.982
64615W        W31156  22.150  33.403   2.937
64616W        W31157  11.603  28.884  11.482
64617W        W31158  33.423  10.582   4.552
64618W        W31159   3.425  13.664   4.220
64619W        W31160  39.293  25.164  13.084
64620W        W31161  39.338  42.144   2.287
64621W        W31162  18.196  29.936  10.489
64622W        W31163  41.800   2.381  10.758
64623W        W31164  19.607  33.488   3.520
64624W        W31165  18.191   6.873   0.465
64625W        W31166  35.040   1.427   1.640
64626W        W31167  26.750  25.110  12.439
64627W        W31168   5.982  31.214   0.333
64628W        W31169   1.783  37.801   4.185
64629W        W31170  19.007   7.379   1.056
64630W        W31171  21.574   2.038  10.801
64631W        W31172  38.679  20.461  10.741
64632W        W31173  18.748  14.875   3.533
64633W        W31174   3.885  18.234   1.719
64634W        W31175  10.297  39.605  14.181
64635W        W31176  34.649  31.960  11.325
64636W        W31177  18.988  21.526  14.813
64637W        W31178  27.499  22.419   4.100
64638W        W31179   3.432  10.762   2.824
64639W        W31180  11.782  19.967   3.639
64640W        W31181   4.822   4.553  10.221
64641W        W31182  33.485  34.629  13.831
64642W        W31183   6.301  36.017  13.879
64643W        W31184  36.086  21.055  13.951
64644W        W31185  13.033  15.660  10.040
64645W        W31186  26.201  44.125   2.177
64646W        W31187   9.821   6.823   2.401
64647W        W31188  24.769  21.772   0.837
64648W        W31189  38.059  43.454   3.328
64649W        W31190  34.071  26.954   1.361
64650W        W31191  31.581  30.030  10.748
64651W        W31192  27.508   4.230   4.595
64652W        W31193  30.713  10.129  12.996
64653W        W31194  19.251  34.038   2.315
64654W        W31195  24.227  44.276   3.282
64655W        W31196   5.400  30.564  12.781
64656W        W31197   8.389  11.183  11.930
64657W        W31198  35.622  31.762  13.070
64658W        W31199   3.362  14.162   4.303
64659W        W31200  41.517  17.095   3.598
64660W        W31201  13.276  19.664   3.643
64661W        W31202  44.548  17.310  11.225
64662W        W31203  19.635  37.962   4.638
64663W        W31204  42.417  39.879   4.544
64664W        W31205   8.276  29.081  13.947
64665W        W31206  35.462  15.779  13.936
64666W        W31207   2.764  13.241   3.078
64667W        W31208  26.670  31.493   1.863
64668W        W31209   4.659  27.950   2.163
64669W        W31210  19.312  42.259  11.415
64670W        W31211  41.813  10.958  10.728
64671W        W31212  12.152  21.553  11.227
64672W        W31213  41.254  35.230   3.859
64673W        W31214  15.881   0.327   3.144
64674W        W31215  44.371  30.069   3.218
64675W        W31216  12.440  43.454  10.757
64676W        W31217  34.671  24.537   4.369
64677W        W31218  38.813  25.935  13.029
64678W        W31219  24.959   3.115   2.170
64679W        W31220  44.970  11.466   1.726
64680W        W31221  32.138   0.812  13.420
64681W        W31222  21.510  25.499  14.985
64682W        W31223  16.183   1.882   0.553
64683W        W31224  20.494  13.280  11.132
64684W        W31225  10.944   6.464  12.054
64685W        W31226  44.123  16.655   4.726
64686W        W31227  10.546  29.130  12.931
64687W        W31228  31.334  20.766  13.837
64688W        W31229  21.789  17.038   4.542
64689W        W31230  43.829  28.394   1.404
64690W        W31231  26.264   6.839  14.829
64691W        W31232   8.705   7.799  12.113
64692W        W31233   8.852  20.566  11.430
64693W        W31234  40.044   1.529  12.151
64694W        W31235  31.640  36.963   0.978
64695W        W31236  39.575  40.002   2.294
64696W        W31237  15.559  29.561   4.606
64697W        W31238  11.161  41.301   1.750
64698W        W31239  21.184  33.380  13.453
64699W        W31240  14.263  22.333   2.755
64700W        W31241  16.101  13.500   0.494
64701W        W31242  15.623  26.003   1.499
64702W        W31243   1.685  40.029   1.450
64703W        W31244  23.738  44.240   1.815
64704W        W31245  25.024  33.536  14.696
64705W        W31246  11.394  36.146   4.795
64706W        W31247  34.896  19.473  13.945
64707W        W31248  20.168   7.019  10.366
64708W        W31249   1.167   3.656   3.686
64709W        W31250  22.103  28.789  14.059
64710W        W31251  42.086  30.025   2.195
64711W        W31252  29.883  15.253   2.200
64712W        W31253  39.253  36.364  13.035
64713W        W31254  33.821  27.995  10.721
64714W        W31255  30.455  15.184   0.723
64715W        W31256  30.036   2.942   3.644
64716W        W31257  27.205  28.219  12.421
64717W        W31258  38.526   7.386   4.760
64718W        W31259  37.167  44.009   4.130
64719W        W31260  39.443   0.268  11.437
64720W        W31261  35.136  13.572  12.524
64721W        W31262   5.760   1.780  13.960
64722W        W31263  15.973  26.654   2.315
64723W        W31264  11.187  11.549   0.450
64724W        W31265   3.731  36.282   2.208
64725W        W31266  24.212  16.304   0.314
64726W        W31267  21.621  36.092   2.352
64727W        W31268   4.402  21.710  14.263
64728W        W31269  21.061  23.518  11.137
64729W        W31270   5.955  11.901   1.251
64730W        W31271  13.636  31.164  13.829
64731W        W31272  38.145  35.594   1.284
64732W        W31273  19.678  25.404   0.434
64733W        W31274   3.933   5.654   3.063
64734W        W31275   1.820   2.384   0.715
64735W        W31276  14.350  10.601  13.758
64736W        W31277  40.196  22.433  12.849
64737W        W31278  37.832   5.175   3.577
64738W        W31279   4.263  41.209   0.841
64739W        W31280  24.339  10.407  10.206
64740W        W31281   1.806  34.567   0.241
64741W        W31282   7.307  14.131  11.970
64742W        W31283  40.395  17.075  14.842
64743W        W31284   0.187  32.927  11.675
64744W        W31285  24.191  13.851   1.835
64745W        W31286  35.973  15.696  10.719
64746W        W31287   0.375  16.233   0.300
64747W        W31288  33.140   2.881  14.329
64748W        W31289  23.234  35.373  12.101
64749W        W31290  39.983  26.776   2.831
64750W        W31291  17.555  41.654   0.495
64751W        W31292  32.555  41.917  12.506
64752W        W31293  17.092  40.848  14.374
64753W        W31294  14.104  42.330   2.751
64754W        W31295  30.087  11.807   9.525
64755W        W31296  26.690   2.656  13.030
64756W        W31297  33.495  33.669  13.966
64757W        W31298  34.022   1.296  14.415
64758W        W31299  11.425   2.184  13.385
64759W        W31300  18.124   8.750  10.935
64760W        W31301  42.887   1.013   0.793
64761W        W31302  16.764  32.161   2.183
64762W        W31303  41.362  20.779  14.059
64763W        W31304  44.111  25.975  13.044
64764W        W31305  19.696  33.600   2.706
64765W        W31306   9.676  36.764   2.799
64766W        W31307  34.341  41.849   1.252
64767W        W31308  27.519  10.702   2.838
64768W        W31309   6.213  29.506   3.239
64769W        W31310  23.474   2.763   4.125
64770W        W31311   1.265  29.172  12.824
64771W        W31312   3.256  22.974  12.846
64772W        W31313   2.286  31.222  13.667
64773W        W31314  36.221  27.828  12.133
64774W        W31315   0.734  43.268  14.837
64775W        W31316  16.186   1.288  12.338
64776W        W31317   7.742  32.191  11.963
64777W        W31318  35.306  30.981  10.739
64778W        W31319  39.137   7.228  12.116
64779W        W31320  25.857  41.236   9.708
64780W        W31321  40.945  16.972  11.140
64781W        W31322  23.484  41.893  13.531
64782W        W31323   0.780  22.367   4.152
64783W        W31324  25.676   2.374  13.899
64784W        W31325  10.841  25.583  12.075
64785W        W31326  14.488  19.176   4.133
64786W        W31327  36.673   3.441   5.007
64787W        W31328  38.096   8.659   4.474
64788W        W31329  13.649  26.267   1.508
64789W        W31330  29.551  34.394   4.578
64790W        W31331  18.766  13.914   1.245
64791W        W31332  18.570  40.416  13.651
64792W        W31333  20.677   4.343   2.762
64793W        W31334  28.988  24.806   1.814
64794W        W31335   1.473  29.161   3.319
64795W        W31336  36.628  27.511   2.814
64796W        W31337   0.970  22.143  11.256
64797W        W31338  14.845  43.764   2.655
64798W        W31339  34.526  14.618   3.912
64799W        W31340  12.619  11.178   1.279
64800W        W31341  23.504  12.574   1.871
64801W        W31342  41.840  42.524   1.755
64802W        W31343  20.325   0.828  14.047
64803W        W31344  35.645   4.250   1.147
64804W        W31345  11.187   4.610   1.070
64805W        W31346   6.455  18.849   4.029
64806W        W31347   6.714  33.915   1.271
64807W        W31348  30.193  18.628   4.432
64808W        W31349   0.968   2.065   0.287
64809W        W31350   1.474  23.708  14.375
64810W        W31351  29.848  41.270  13.636
64811W        W31352  11.449  19.981   0.992
64812W        W31353  17.506  24.111  10.683
64813W        W31354  21.789  14.361  10.796
64814W        W31355  20.289  23.686  14.067
64815W        W31356  15.542  12.639  14.905
64816W        W31357  36.818  30.641   0.687
64817W        W31358   9.779  28.886   0.754
64818W        W31359  38.573   4.200   3.714
64819W        W31360  21.975   0.257  11.575
64820W        W31361   0.360  42.826   2.151
64821W        W31362  35.981   4.058  11.362
64822W        W31363  37.035  33.461  11.266
64823W        W31364  27.484  19.983   1.294
64824W        W31365  42.429  34.103   1.056
64825W        W31366  28.222  21.699  11.480
64826W        W31367  22.078   2.393   3.317
64827W        W31368   5.997  19.622  10.458
64828W        W31369  35.817  37.796   4.817
64829W        W31370  39.575  12.593   0.326
64830W        W31371  26.145  12.366   1.470
64831W        W31372  32.382  40.462   2.774
64832W        W31373  22.825   5.214   0.894
64833W        W31374  31.492  40.008  13.321
64834W        W31375   3.741   0.528   2.966
64835W        W31376  38.879   9.212   4.037
64836W        W31377  28.847   8.650  12.510
64837W        W31378   7.819  40.757  14.275
64838W        W31379  19.155  12.501   3.259
64839W        W31380  20.311  21.116   3.593
64840W        W31381  30.520   7.068   3.128
64841W        W31382   7.596  38.294  13.498
64842W        W31383  33.865  15.148   3.675
64843W        W31384  44.945   7.189   2.400
64844W        W31385  30.646   0.486   4.308
64845W        W31386  28.152   6.720  12.594
64846W        W31387   6.431  17.570   2.314
64847W        W31388  11.808   3.159  10.307
64848W        W31389  38.505  22.355  13.043
64849W        W31390  17.170   6.792   0.558
64850W        W31391  24.697  38.102   3.297
64851W        W31392   0.831  38.088   3.705
64852W        W31393   8.969  40.599   4.462
64853W        W31394  23.536  33.696  12.984
64854W        W31395  41.070  25.722  14.827
64855W        W31396  25.066  28.659  12.878
64856W        W31397  23.673   7.803  13.826
64857W        W31398  17.822   4.383  14.344
64858W        W31399  31.723  21.143  14.584
64859W        W31400  16.339  27.699   0.002
64860W        W31401  30.331   9.208   4.241
64861W        W31402   9.127   1.889  14.899
64862W        W31403  14.277   4.200   2.783
64863W        W31404   0.971  12.232   1.328
64864W        W31405  39.436  13.805  13.519
64865W        W31406  29.018  23.985  12.330
64866W        W31407  33.561   1.460   5.496
64867W        W31408  40.073  19.632   1.671
64868W        W31409   8.305   6.367  13.857
64869W        W31410  10.184  16.047   0.390
64870W        W31411  32.131  44.141  11.512
64871W        W31412  12.868  25.066   2.406
64872W        W31413  23.593  39.525  14.795
64873W        W31414  41.770  15.313  12.966
64874W        W31415  40.346  38.827  11.694
64875W        W31416   6.138  18.435  10.281
64876W        W31417  16.698  22.608   1.875
64877W        W31418   3.745  27.197  12.872
64878W        W31419  15.325  23.831  13.633
64879W        W31420  24.531  21.315  11.622
64880W        W31421   3.936  15.681  14.060
64881W        W31422  40.481  16.843  13.847
64882W        W31423  11.150  44.424  11.964
64883W        W31424  44.209   2.221   2.165
64884W        W31425  34.445  41.100   1.791
64885W        W31426  21.714   4.223   2.341
64886W        W31427  20.677  28.396  12.897
64887W        W31428  40.534   5.936  14.290
64888W        W31429  32.153  12.699  14.886
64889W        W31430   2.551   7.705   0.794
64890W        W31431  43.985   4.731   2.717
64891W        W31432  33.394  38.416  12.255
64892W        W31433  21.269  14.330  14.445
64893W        W31434  20.844   1.772  11.302
64894W        W31435  35.331   6.389   0.192
64895W        W31436  12.772  44.203   4.929
64896W        W31437   3.357  22.828   4.344
64897W        W31438  25.009  27.552   1.291
64898W        W31439  22.159  33.385   3.475
64899W        W31440  28.567  26.538  14.320
64900W        W31441   5.355  14.130   4.995
64901W        W31442   4.960  38.907  14.884
64902W        W31443   6.163  15.871   0.347
64903W        W31444  26.522  44.924  12.125
64904W        W31445   4.988  36.965   4.887
64905W        W31446  22.616  13.714   3.368
64906W        W31447  33.513   9.309   1.244
64907W        W31448   6.396  40.206   1.297
64908W        W31449  15.406  34.504  11.593
64909W        W31450  25.841  25.809   4.296
64910W        W31451  12.818   2.130  11.994
64911W        W31452  41.039  13.054  14.056
64912W        W31453  35.308  31.979  10.842
64913W        W31454  36.483  13.246  13.281
64914W        W31455  35.913  37.283  13.611
64915W        W31456  31.914   9.706  10.239
64916W        W31457  11.352   2.304   2.327
64917W        W31458   3.164  15.785   0.416
64918W        W31459  29.058  43.395   0.225
64919W        W31460  42.734   3.433  12.682
64920W        W31461  40.780  23.826   0.092
64921W        W31462  27.387  31.201   3.847
64922W        W31463  18.891  16.010  14.358
64923W        W31464  41.049  31.888   2.695
64924W        W31465  37.015  18.753  11.611
64925W        W31466  16.275  27.247  12.896
64926W        W31467  11.814  35.098   0.898
64927W        W31468  35.152  22.495  11.340
64928W        W31469  35.483  13.068   3.809
64929W        W31470  37.801  26.119  12.253
64930W        W31471  34.130  19.732  13.460
64931W        W31472   3.242  11.440   3.721
64932W        W31473   7.326  22.289   3.359
64933W        W31474  34.455  24.200  12.493
64934W        W31475   4.314   4.484  13.575
64935W        W31476  18.994   8.319  11.279
64936W        W31477  18.384  28.035   4.156
64937W        W31478  24.985  43.849   4.650
64938W        W31479  30.636  15.017  10.939
64939W        W31480  26.613   3.260   2.858
64940W        W31481   5.490  24.160  11.976
64941W        W31482  12.445   5.296   4.681
64942W        W31483   4.796  14.572  12.982
64943W        W31484  37.906  15.469  13.209
64944W        W31485   6.885  21.569   4.138
64945W        W31486  34.620  23.248  13.573
64946W        W31487  30.149   7.699  14.259
64947W        W31488   6.768  17.334  12.200
64948W        W31489  15.868  27.720  14.822
64949W        W31490   9.485  43.199  14.387
64950W        W31491  18.159  32.824   1.351
64951W        W31492  40.934  30.916   2.297
64952W        W31493   6.765   2.771   4.126
64953W        W31494  24.690  43.740   2.303
64954W        W31495  25.056   5.394  14.900
64955W        W31496  11.633  30.574   2.417
64956W        W31497  32.033  12.893   1.264
64957W        W31498  32.784  39.968   3.783
64958W        W31499  10.899  25.306   3.376
64959W        W31500  12.444   5.121   3.827
64960W        W31501  42.473  27.592  10.762
64961W        W31502  16.683  16.096   2.795
64962W        W31503  21.216   7.418  12.630
64963W        W31504  24.516   8.166  13.590
64964W        W31505   1.382   7.063  12.504
64965W        W31506  28.078   4.009   2.764
64966W        W31507  42.728   4.332  11.903
64967W        W31508  38.857  22.560   3.269
64968W        W31509   4.736  22.671  10.472
64969W        W31510  16.698   8.381  12.529
64970W        W31511   8.218  24.818   3.040
64971W        W31512  21.119  27.551   0.795
64972W        W31513   7.158  43.236  11.243
64973W        W31514  33.998   8.684   4.265
64974W        W31515  16.751  42.729   5.064
64975W        W31516  10.637   0.524  14.863
64976W        W31517  34.486  31.288   0.605
64977W        W31518  31.479  22.060  14.105
64978W        W31519  37.769  13.601  13.155
64979W        W31520   0.928  29.144   0.180
64980W        W31521  42.841  17.345  13.767
64981W        W31522  27.660  18.086  11.629
64982W        W31523  13.882  20.560  13.826
64983W        W31524   3.243  44.610  13.651
64984W        W31525  29.194   4.898   4.900
64985W        W31526  30.570  15.246   3.517
64986W        W31527   8.802  41.081   4.287
64987W        W31528  25.230  19.420  13.524
64988W        W31529  18.123  20.774  13.315
64989W        W31530  24.997  25.253   4.121
64990W        W31531  22.020  30.384  14.462
64991W        W31532  10.339   7.922  12.144
64992W        W31533   5.712  43.599  12.185
64993W        W31534   2.752  27.919  14.594
64994W        W31535   9.204  11.332   3.078
64995W        W31536   6.197  38.370  11.486
64996W        W31537  17.139   2.472  12.997
64997W        W31538  23.211   4.444   4.507
64998W        W31539  18.273  37.766   2.875
64999W        W31540  38.873  26.335  11.539
65000W        W31541   9.811  34.743   0.322
65001W        W31542  14.795  17.780  12.136
65002W        W31543  39.100  23.647  11.143
65003W        W31544  42.552  18.741  12.994
65004W        W31545  13.820  12.690   2.629
65005W        W31546  42.583  37.478  10.698
65006W        W31547  42.999  17.787  14.673
65007W        W31548  34.366   4.968   5.329
65008W        W31549  12.070   7.441  11.214
65009W        W31550  27.214  23.153  11.009
65010W        W31551  17.018  18.841  12.979
65011W        W31552   3.152   9.409   3.589
65012W        W31553  38.429  13.525   1.249
65013W        W31554  28.107   4.694   1.521
65014W        W31555  26.261   9.419  13.937
65015W        W31556  34.010  24.279  11.267
65016W        W31557  30.653  13.622  11.023
65017W        W31558  40.994  34.372  11.227
65018W        W31559  35.630  43.988  13.453
65019W        W31560  11.767  24.592   1.381
65020W        W31561  34.201  36.407  12.030
65021W        W31562   1.495  36.498   1.141
65022W        W31563  14.320  40.102  13.510
65023W        W31564  10.674  18.706   0.353
65024W        W31565  17.059  31.474   0.537
65025W        W31566  16.192  28.761  13.118
65026W        W31567  43.987   1.026  13.905
65027W        W31568  27.607  12.584  13.066
65028W        W31569  33.368  33.503  10.385
65029W        W31570  33.988  30.959   4.706
65030W        W31571  30.470  16.349   4.577
65031W        W31572  23.997  15.684  10.784
65032W        W31573  23.949  35.822  14.133
65033W        W31574  18.387   2.252  10.770
65034W        W31575  41.872  33.941   0.310
65035W        W31576  16.678  13.414  11.979
65036W        W31577  29.153  34.788   2.144
65037W        W31578  26.886  34.581   4.491
65038W        W31579  17.854  27.393  12.460
65039W        W31580  35.025  43.739  11.137
65040W        W31581   4.078  23.121   1.371
65041W        W31582  10.882  14.145   0.039
65042W        W31583  39.479  33.969  14.535
65043W        W31584  15.694  25.558   0.276
65044W        W31585  34.378  17.908   1.718
65045W        W31586   6.939  15.218   2.118
65046W        W31587  21.303  40.209  14.326
65047W        W31588  31.064   5.660   2.916
65048W        W31589  44.026  25.502   3.713
65049W        W31590   2.236   3.470   1.805
65050W        W31591   0.931  37.503   2.738
65051W        W31592  28.862  20.101   3.654
65052W        W31593  20.627  42.125   1.730
65053W        W31594   6.163  31.661  11.077
65054W        W31595  44.268  28.450  11.797
65055W        W31596  31.923  37.448  14.422
65056W        W31597  34.059   2.494   3.068
65057W        W31598  31.605   1.725  11.923
65058W        W31599  43.692  13.834  10.934
65059W        W31600  11.948   1.293   2.743
65060W        W31601  16.321  44.255   1.744
65061W        W31602  38.189  38.070   1.746
65062W        W31603  44.189  28.656  13.132
65063W        W31604  40.278  12.286  14.880
65064W        W31605   0.940  43.496   1.309
65065W        W31606  24.508  38.061   2.762
65066W        W31607  24.445  34.037   4.149
65067W        W31608  13.393  12.818  14.489
65068W        W31609  31.050  29.726   3.071
65069W        W31610   1.807  24.680  14.268
65070W        W31611  16.567  23.478   1.296
65071W        W31612   6.986  16.681   4.281
65072W        W31613   1.730   7.740   3.255
65073W        W31614  32.627  29.484   4.872
65074W        W31615  19.119  38.012   3.313
65075W        W31616   0.744   6.268  12.207
65076W        W31617  34.655  14.252  12.909
65077W        W31618  36.362  42.832   4.941
65078W        W31619  39.300  16.295   1.693
65079W        W31620  12.933  15.315  14.223
65080W        W31621  29.101  31.649  11.590
65081W        W31622  39.352  37.552   9.928
65082W        W31623   8.333  17.574  11.069
65083W        W31624  44.277  43.690  14.893
65084W        W31625  31.038   6.124  11.502
65085W        W31626  12.367  38.861  12.226
65086W        W31627  36.390  43.778  11.772
65087W        W31628  34.571  15.560   4.913
65088W        W31629  26.964  11.292  12.909
65089W        W31630   7.646  30.159  11.038
65090W        W31631  27.697  41.500   0.874
65091W        W31632  20.564  17.276   0.903
65092W        W31633   4.791  38.042  14.720
65093W        W31634  17.132  13.845  13.254
65094W        W31635  36.517  18.296   2.127
65095W        W31636   8.257  26.936   1.249
65096W        W31637  12.741  39.416   1.154
65097W        W31638  37.818   2.796  12.938
65098W        W31639  18.613  40.019   2.864
65099W        W31640  15.231   4.356   4.562
65100W        W31641  22.667  42.931  13.060
65101W        W31642  38.226  22.260   0.847
65102W        W31643  15.997  43.009  10.692
65103W        W31644  18.218  30.447   4.691
65104W        W31645   3.509   3.941  13.952
65105W        W31646   9.337  23.175   1.328
65106W        W31647   8.562  18.127  13.765
65107W        W31648  12.369   3.247  11.559
65108W        W31649  19.594   7.499  11.565
65109W        W31650   2.239  10.377   0.228
65110W        W31651  23.621  22.796   2.928
65111W        W31652  30.380  24.822  14.153
65112W        W31653  44.862  34.816  14.403
65113W        W31654   5.352  44.749  12.973
65114W        W31655   7.104  35.411  14.795
65115W        W31656  27.904  23.249   3.330
65116W        W31657   2.376  34.453   4.747
65117W        W31658  36.837  32.453   3.196
65118W        W31659  16.020  12.411  13.942
65119W        W31660  41.931  10.235  11.439
65120W        W31661  10.617   2.350   3.861
65121W        W31662  24.427  19.782   5.155
65122W        W31663  30.917   3.274  13.064
65123W        W31664  35.960  16.559   0.490
65124W        W31665  23.567   9.972  13.110
65125W        W31666  16.349  24.111  12.085
65126W        W31667  15.058  10.313   0.413
65127W        W31668   4.286  43.030   0.586
65128W        W31669  15.720  13.734  12.055
65129W        W31670  43.851  12.286   5.075
65130W        W31671   1.234  15.186   1.662
65131W        W31672  17.143  24.517  10.609
65132W        W31673   8.424   6.949  14.484
65133W        W31674  33.370  15.923   0.531
65134W        W31675  20.260  10.831  11.570
65135W        W31676  30.052  30.146  10.814
65136W        W31677  32.928  30.621  10.688
65137W        W31678  26.683   9.275  12.331
65138W        W31679  36.127  39.161   4.186
65139W        W31680  23.505  12.512   0.870
65140W        W31681   4.335  19.198   4.153
65141W        W31682  22.011   9.856  13.870
65142W        W31683  36.509   6.944   3.642
65143W        W31684   9.774  38.585  13.461
65144W        W31685  36.227  11.475   4.001
65145W        W31686  22.520  39.935  12.487
65146W        W31687  38.062  10.256  13.297
65147W        W31688  14.727  20.750   3.212
65148W        W31689  43.212  24.460  12.584
65149W        W31690  39.059  31.887  11.000
65150W        W31691  22.203  16.048  14.424
65151W        W31692  38.498   4.115  12.592
65152W        W31693  41.803  27.385   2.878
65153W        W31694  36.369  17.158   0.697
65154W        W31695  32.058  14.247  11.934
65155W        W31696  28.973  22.112  12.569
65156W        W31697  40.005  16.820  10.762
65157W        W31698   7.864  29.015   4.480
65158W        W31699   0.730  42.000  14.837
65159W        W31700   9.722  24.780   0.713
65160W        W31701  22.037  22.990  12.588
65161W        W31702  27.627  36.894  13.602
65162W        W31703  19.577   9.232   4.064
65163W        W31704   5.786  36.677   5.053
65164W        W31705   8.415  39.522   1.849
65165W        W31706  43.390   4.870   3.682
65166W        W31707  44.838  35.188  10.907
65167W        W31708  33.913   0.356   0.714
65168W        W31709  34.457  35.590  11.586
65169W        W31710  27.845  42.055  11.194
65170W        W31711  18.300  29.949   1.723
65171W        W31712  22.414  33.912  12.664
65172W        W31713   0.780  17.259  11.297
65173W        W31714  24.173  18.163   2.191
65174W        W31715  11.765  13.254   4.712
65175W        W31716  14.802  33.398  11.090
65176W        W31717   6.301   6.209   9.800
65177W        W31718  28.761  30.805  14.284
65178W        W31719  22.161  18.331   0.165
65179W        W31720  40.107  18.775   3.291
65180W        W31721  37.852  34.988  14.274
65181W        W31722  18.261  21.107   3.709
65182W        W31723  31.946   1.692   0.836
65183W        W31724  25.911  26.542  10.826
65184W        W31725  26.150  14.021   3.689
65185W        W31726  31.567   3.022   0.806
65186W        W31727  43.913  13.511   2.929
65187W        W31728  30.954  31.407   1.293
65188W        W31729  36.814   7.668   2.751
65189W        W31730  34.784  10.736   1.164
65190W        W31731  35.787  30.055  10.761
65191W        W31732  12.012  36.561   4.137
65192W        W31733   1.419  29.085   3.835
65193W        W31734  25.027  38.298   2.152
65194W        W31735   6.197  25.484  12.377
65195W        W31736   6.886  41.203  11.741
65196W        W31737   3.332  27.704   4.376
65197W        W31738  40.954   9.636   3.686
65198W        W31739  17.155  14.377   1.493
65199W        W31740   0.278  13.214   3.827
65200W        W31741  44.984  34.609   3.691
65201W        W31742  16.141  14.560  12.074
65202W        W31743  24.359  23.524   4.450
65203W        W31744  42.912  29.468  14.832
65204W        W31745  14.001   2.877   4.152
65205W        W31746  27.781  39.027   1.279
65206W        W31747  30.054   4.949   0.001
65207W        W31748  30.521   9.567  11.159
65208W        W31749  32.025  28.823  13.095
65209W        W31750  10.641   2.373  14.869
65210W        W31751  34.443  19.757  14.030
65211W        W31752   3.180  12.372  14.532
65212W        W31753  20.427   9.140  14.267
65213W        W31754  37.490  36.865  13.410
65214W        W31755  11.711   6.447   1.823
65215W        W31756   7.843  19.992  12.085
65216W        W31757   0.809   8.653  12.146
65217W        W31758   7.526  41.827  13.350
65218W        W31759  21.093  42.759   5.052
65219W        W31760   9.161  26.442   1.216
65220W        W31761   8.480  18.077  12.090
65221W        W31762  21.821  42.044   3.263
65222W        W31763   8.797  37.275  14.091
65223W        W31764   9.910  13.164   1.054
65224W        W31765   5.337   1.059   0.942
65225W        W31766   5.527  26.627   2.776
65226W        W31767  20.385  40.530  13.703
65227W        W31768  44.345   0.727   5.248
65228W        W31769   4.729   0.805  11.141
65229W        W31770  25.501  37.721  11.536
65230W        W31771  39.596  31.029   2.330
65231W        W31772  37.190  43.873   3.282
65232W        W31773  10.658  29.128   0.192
65233W        W31774  31.024  38.019  13.972
65234W        W31775  30.319  17.423  13.474
65235W        W31776   7.246  10.227   2.627
65236W        W31777  22.916  12.272   2.310
65237W        W31778  14.258  36.941   4.103
65238W        W31779   8.944  18.339   0.429
65239W        W31780  14.005  15.384   1.945
65240W        W31781  17.089  33.812  10.814
65241W        W31782  43.885  39.809   4.324
65242W        W31783   5.943  37.966   2.855
65243W        W31784   1.126   5.553  11.148
65244W        W31785   0.973  34.565   0.328
65245W        W31786  35.546  28.110   0.821
65246W        W31787  10.327   0.519  10.163
65247W        W31788   8.955  31.510   0.871
65248W        W31789  43.418  38.376   1.597
65249W        W31790  37.327  23.586  12.754
65250W        W31791  25.983  43.012   0.330
65251W        W31792  24.713   4.509   4.184
65252W        W31793  20.925  34.884   1.292
65253W        W31794   6.504  14.600   0.870
65254W        W31795  22.556  28.504   1.501
65255W        W31796  13.909  35.328  12.836
65256W        W31797   8.492  34.913  14.300
65257W        W31798   3.864  41.037  12.820
65258W        W31799  19.177  33.527   1.386
65259W        W31800   6.322  34.800   0.456
65260W        W31801  12.290  35.796   4.535
65261W        W31802   3.185  25.497  14.822
65262W        W31803   1.716  32.251   3.034
65263W        W31804  30.075  31.404  11.087
65264W        W31805  36.475   8.907   2.004
65265W        W31806  41.452  36.397  14.771
65266W        W31807  39.642  31.081   3.731
65267W        W31808   0.402   9.164  11.591
65268W        W31809  36.075  33.134  11.220
65269W        W31810   2.399  31.615   1.293
65270W        W31811  17.888  30.057   4.782
65271W        W31812  30.427  11.364   5.082
65272W        W31813  35.063  31.775  14.197
65273W        W31814  42.403  33.453   4.538
65274W        W31815  32.903  23.830   3.700
65275W        W31816   5.769  39.371  11.559
65276W        W31817   0.092   7.604   2.086
65277W        W31818  11.518  38.838   3.726
65278W        W31819  28.906  23.009  13.174
65279W        W31820  39.249   5.659  13.938
65280W        W31821  17.991   8.243  14.455
65281W        W31822  29.064   5.980  10.716
65282W        W31823  33.432  23.036  12.489
65283W        W31824  22.813  27.418  12.559
65284W        W31825  44.895   0.489   0.975
65285W        W31826  17.820  24.366   2.640
65286W        W31827  17.561  13.298   3.207
65287W        W31828  34.142  14.534  11.217
65288W        W31829  33.029   5.955  11.030
65289W        W31830   4.352  16.820   3.127
65290W        W31831  29.438   0.558   2.793
65291W        W31832   4.689  39.154   1.386
65292W        W31833  15.745   1.748   0.861
65293W        W31834  12.712  34.879   1.267
65294W        W31835  39.918   9.704   1.361
65295W        W31836   5.664  26.921   1.439
65296W        W31837  29.639  38.304   3.122
65297W        W31838  43.303   0.328   1.162
65298W        W31839  26.494  16.861   4.074
65299W        W31840  33.283  27.560   3.814
65300W        W31841   4.230  39.915   3.061
65301W        W31842  39.881  34.033   0.090
65302W        W31843  24.193  23.595   2.697
65303W        W31844  23.698  12.196   1.252
65304W        W31845  33.343  32.573   3.728
65305W        W31846  18.246  31.073   0.296
65306W        W31847  22.690  30.688   1.258
65307W        W31848  34.472  20.685  12.019
65308W        W31849  13.315  28.427  11.148
65309W        W31850   6.794  21.112  11.755
65310W        W31851  44.370  11.812  10.666
65311W        W31852  16.177  15.093   3.148
65312W        W31853   2.233  27.578  13.864
65313W        W31854   0.639   2.869  14.163
65314W        W31855   5.500   7.075   4.186
65315W        W31856   8.791  10.158   2.620
65316W        W31857  32.902   0.560  14.821
65317W        W31858  13.700   8.771   0.538
65318W        W31859  21.744  28.380   4.161
65319W        W31860   3.020  13.168  14.861
65320W        W31861  18.319  17.921  13.797
65321W        W31862  10.601  42.024  10.424
65322W        W31863  33.092  28.737  11.502
65323W        W31864  33.894   2.816  13.490
65324W        W31865  34.511  44.622   1.887
65325W        W31866   0.420  14.255   0.477
65326W        W31867  19.589  18.543   3.317
65327W        W31868   4.376  30.109  12.015
65328W        W31869  23.351  27.782  11.299
65329W        W31870  21.189  24.570   3.180
65330W        W31871  20.982  33.097   4.965
65331W        W31872  29.101   6.284  13.544
65332W        W31873  30.967  15.363  12.015
65333W        W31874  10.938  39.918   4.546
65334W        W31875   9.868  14.888   2.159
65335W        W31876  18.231  31.392  12.123
65336W        W31877   4.401  12.207   1.711
65337W        W31878  44.446  24.962   1.706
65338W        W31879   0.528  15.838   1.782
65339W        W31880  27.919  20.947   3.169
65340W        W31881   3.781  24.570   2.374
65341W        W31882  26.108   2.365   0.522
65342W        W31883  44.924  27.834  10.686
65343W        W31884  18.714  43.401   1.179
65344W        W31885  11.315  27.147   2.828
65345W        W31886  10.264  16.730  12.061
65346W        W31887   0.892  31.606   1.711
65347W        W31888  30.441  11.798  12.498
65348W        W31889  30.348  38.920   2.249
65349W        W31890  40.589  24.485   3.067
65350W        W31891  40.860  31.230   3.275
65351W        W31892  39.010  14.820   0.241
65352W        W31893  44.264  20.218  14.314
65353W        W31894   1.433  24.051  10.174
65354W        W31895  32.045  28.461  13.465
65355W        W31896   9.379   3.561  10.845
65356W        W31897  17.427  32.391  10.563
65357W        W31898   6.158  24.120  14.922
65358W        W31899  18.862  28.069   3.997
65359W        W31900   7.824  40.329   2.651
65360W        W31901  27.899  41.055   1.625
65361W        W31902   9.143  27.183  12.604
65362W        W31903   9.815  17.645  14.939
65363W        W31904   8.759   1.044  12.620
65364W        W31905  10.641   5.291  10.681
65365W        W31906  29.286  17.915  12.565
65366W        W31907  44.420   9.340   4.066
65367W        W31908   3.727  19.225   0.771
65368W        W31909  13.402  19.936  12.526
65369W        W31910  33.715  34.404   0.536
65370W        W31911  32.148   4.905  11.184
65371W        W31912  20.630   7.427   1.842
65372W        W31913   3.005   0.262  12.472
65373W        W31914  10.308   6.619  12.453
65374W        W31915  30.861  23.093   0.748
65375W        W31916  24.035   3.687  11.096
65376W        W31917  37.101  32.514  14.271
65377W        W31918  17.222  12.759  12.971
65378W        W31919  35.968   4.691   2.614
65379W        W31920   8.390  23.925  11.002
65380W        W31921  25.010   5.435  10.691
65381W        W31922  32.914  30.716   2.849
65382W        W31923   9.084  44.111   3.076
65383W        W31924  41.711  25.806  11.142
65384W        W31925  24.682  29.993  11.561
65385W        W31926  21.726   0.586   4.812
65386W        W31927  21.591  12.637  14.875
65387W        W31928  26.033  31.345   3.285
65388W        W31929  29.007  36.020  12.789
65389W        W31930  44.317  32.979   0.456
65390W        W31931   8.915  28.893   0.841
65391W        W31932  16.169  40.404   0.332
65392W        W31933   9.447  17.313   3.451
65393W        W31934  34.642  26.337   4.460
65394W        W31935  11.152  32.009   1.330
65395W        W31936   8.734  15.122   2.616
65396W        W31937  40.890  30.088  10.770
65397W        W31938  28.679  11.861   1.755
65398W        W31939  34.661  24.972  12.801
65399W        W31940  43.303  34.215  14.726
65400W        W31941   8.900  22.114   2.818
65401W        W31942  10.336  15.617  13.465
65402W        W31943  15.257  25.248  13.959
65403W        W31944   3.515  38.305  11.144
65404W        W31945  34.065  42.830   0.444
65405W        W31946   4.496  27.412  14.597
65406W        W31947  33.370  35.771   4.994
65407W        W31948  32.458  33.083   4.536
65408W        W31949  42.815  37.327   1.239
65409W        W31950   9.366  24.075  12.864
65410W        W31951   5.547  43.628  11.210
65411W        W31952   8.143  17.730  11.526
65412W        W31953  35.572  39.273   4.294
65413W        W31954  35.014  26.045   0.959
65414W        W31955   5.855  22.417   0.709
65415W        W31956  25.615  17.621  11.187
65416W        W31957  17.722  16.276  10.690
65417W        W31958  13.702  44.938   2.992
65418W        W31959   2.293  40.562  14.806
65419W        W31960  17.556  22.177   3.269
65420W        W31961  42.048  18.655   3.365
65421W        W31962  12.372  12.227  11.413
65422W        W31963  39.638  16.727   5.354
65423W        W31964   1.514   2.894  13.080
65424W        W31965  29.425   1.905   4.564
65425W        W31966  19.185  37.831   3.804
65426W        W31967  32.073  25.448   4.489
65427W        W31968  37.854  21.837   2.222
65428W        W31969  32.922  26.517  11.725
65429W        W31970  16.732  34.977   2.597
65430W        W31971  41.094   3.553  12.014
65431W        W31972  25.958  27.382   1.316
65432W        W31973   5.813   7.464  10.750
65433W        W31974  14.680  44.949   4.117
65434W        W31975   1.406  34.392   0.554
65435W        W31976  32.793  22.464  10.993
65436W        W31977   2.968  30.626  13.996
65437W        W31978   8.872  20.579   2.602
65438W        W31979  17.225  23.281  14.276
65439W        W31980   8.557  25.760  13.489
65440W        W31981   3.391  34.642   3.356
65441W        W31982  40.463  12.246   9.862
65442W        W31983  22.551  37.612  10.737
65443W        W31984  35.289  31.635   1.908
65444W        W31985  32.522  12.900   2.287
65445W        W31986  36.192   5.839  13.248
65446W        W31987  38.050  40.866   2.397
65447W        W31988  25.283   1.477  14.761
65448W        W31989  39.922   5.703  14.505
65449W        W31990  38.194  29.597  11.979
65450W        W31991  16.180  43.061  12.572
65451W        W31992  26.593  42.468   4.626
65452W        W31993  41.871  29.015   2.364
65453W        W31994  12.737  34.167  14.920
65454W        W31995  31.574  10.572  14.323
65455W        W31996  20.489  31.338  14.714
65456W        W31997   6.185  36.313   2.174
65457W        W31998  12.101  38.233  14.891
65458W        W31999  39.421  24.043  10.934
65459W        W32000  11.757  32.934   4.465
65460W        W32001  35.411  42.473  10.996
65461W        W32002   0.503  25.553   0.769
65462W        W32003  41.231  36.891   0.385
65463W        W32004  39.942   3.136  12.979
65464W        W32005  26.038  30.577  13.442
65465W        W32006  42.438   9.484  12.524
65466W        W32007  27.124  12.464   4.088
65467W        W32008   0.715  33.622  12.835
65468W        W32009  17.307  32.979   4.108
65469W        W32010  24.266  36.286  12.618
65470W        W32011  37.836  23.123   1.261
65471W        W32012  25.256   3.185  14.717
65472W        W32013  42.426  18.825   3.756
65473W        W32014   0.249  16.619  10.996
65474W        W32015  42.350  38.882   0.827
65475W        W32016  28.471  38.841   2.825
65476W        W32017  41.350  24.881   4.568
65477W        W32018  22.696  36.953  14.981
65478W        W32019  26.701  15.468  10.597
65479W        W32020  28.607  34.830  12.881
65480W        W32021  44.369  26.145   4.562
65481W        W32022  20.702   7.466   3.571
65482W        W32023  32.282  28.731   0.753
65483W        W32024  29.093  16.203  10.816
65484W        W32025  20.228  11.471   4.950
65485W        W32026  41.872  20.945  14.018
65486W        W32027  42.737  21.924   2.702
65487W        W32028   2.290   3.682  11.384
65488W        W32029  31.910   4.986  13.396
65489W        W32030  40.418  33.913  14.731
65490W        W32031  29.929  43.556  10.709
65491W        W32032   4.198  38.225  10.822
65492W        W32033  20.707  10.481  13.491
65493W        W32034  27.904  34.476   1.328
65494W        W32035  36.543  12.742  13.009
65495W        W32036  35.259  26.074   0.230
65496W        W32037  30.388  28.610   4.753
65497W        W32038  32.475  19.167  10.738
65498W        W32039   3.712  28.663  13.389
65499W        W32040   8.218  44.093  10.507
65500W        W32041  13.895  42.386   0.462
65501W        W32042  44.499  30.719   0.646
65502W        W32043  34.047  23.175   0.770
65503W        W32044  37.434   0.049  14.256
65504W        W32045  35.869  38.992   4.628
65505W        W32046  23.782   4.222   3.900
65506W        W32047  30.877  11.795   1.239
65507W        W32048  31.878  26.541  11.567
65508W        W32049   6.002   6.941   4.219
65509W        W32050  40.994   2.288  14.859
65510W        W32051  17.124   3.875  12.940
65511W        W32052  44.218  28.350  13.565
65512W        W32053  14.113  35.049   3.949
65513W        W32054  13.470  44.428   4.361
65514W        W32055  24.032  32.993   4.543
65515W        W32056  40.588   8.593  14.312
65516W        W32057  34.001  24.576   2.235
65517W        W32058  28.594  16.135   3.771
65518W        W32059  34.597  38.391   0.672
65519W        W32060  43.099  42.112  12.345
65520W        W32061  38.872  17.745  11.313
65521W        W32062  23.739  23.287  11.076
65522W        W32063   4.215  21.597  11.853
65523W        W32064  32.379   5.918   2.684
65524W        W32065  10.290   4.152   3.479
65525W        W32066  28.152  27.356  10.338
65526W        W32067  17.531  26.387   3.887
65527W        W32068   9.805  36.273   2.811
65528W        W32069  19.167  22.069  10.649
65529W        W32070  41.314  14.367   1.296
65530W        W32071  43.034  33.114  12.782
65531W        W32072  14.168  38.389   3.395
65532W        W32073   2.613  40.398   4.850
65533W        W32074  22.006   9.239   3.667
65534W        W32075   1.746  23.150   3.684
65535W        W32076  42.245  26.687  10.473
65536W        W32077  29.085  31.651   0.203
65537W        W32078   2.267  21.157  14.262
65538W        W32079  15.737  43.292  12.629
65539W        W32080  17.759  31.999  13.159
65540W        W32081   8.676  31.536  11.258
65541W        W32082   0.169  12.225   0.740
65542W        W32083  36.040  25.380   0.890
65543W        W32084   0.563  31.125   3.382
65544W        W32085  40.980  40.292   4.384
65545W        W32086  23.244   9.369   0.943
65546W        W32087  44.352  26.389  13.316
65547W        W32088  41.446  29.163   1.103
65548W        W32089  21.976  11.790   1.368
65549W        W32090  16.779   8.253   1.947
65550W        W32091   4.176  28.807  14.960
65551W        W32092  38.603  20.919  13.870
65552W        W32093  29.171  16.191   1.463
65553W        W32094  42.964  24.665   1.834
65554W        W32095  32.059  20.201  13.543
65555W        W32096   2.919  28.501  12.873
65556W        W32097  17.008   4.534  13.973
65557W        W32098   2.818  41.541  14.309
65558W        W32099  26.285  30.587   3.642
65559W        W32100   3.353  22.530  13.754
65560W        W32101  10.231  31.136  11.073
65561W        W32102   1.904  20.092  13.523
65562W        W32103  35.003  37.697   0.008
65563W        W32104  22.196  36.377   1.505
65564W        W32105   8.781  17.637  13.705
65565W        W32106   7.928  42.338   1.403
65566W        W32107  13.752   3.191   0.924
65567W        W32108  19.110  26.246   3.392
65568W        W32109  28.768   5.877   9.764
65569W        W32110   8.958  36.399   3.166
65570W        W32111  34.652  42.936  10.464
65571W        W32112  14.749  29.939  11.556
65572W        W32113  25.646  15.176  14.604
65573W        W32114  17.723  12.379   0.742
65574W        W32115  17.120  18.622  10.552
65575W        W32116  42.820  20.047  11.728
65576W        W32117   4.334  10.910  12.380
65577W        W32118   3.696  42.977   1.221
65578W        W32119  25.183   0.510   4.207
65579W        W32120  20.596   8.901  10.470
65580W        W32121   7.508  27.965  11.485
65581W        W32122  23.130  14.586  14.332
65582W        W32123  22.883  34.557  12.838
65583W        W32124  28.221   9.641  11.504
65584W        W32125  18.216  37.383  14.701
65585W        W32126   9.644   8.156   2.467
65586W        W32127   3.612  21.533  12.991
65587W        W32128  26.911   2.428   3.805
65588W        W32129  37.171  33.247   2.901
65589W        W32130  44.919  39.511   3.415
65590W        W32131  13.848  37.295   3.635
65591W        W32132  40.906   2.457  12.623
65592W        W32133  25.937   1.719   4.726
65593W        W32134   7.388  13.841   3.850
65594W        W32135   3.662  23.652  12.147
65595W        W32136  32.579  37.195   3.109
65596W        W32137  28.232  28.357  14.900
65597W        W32138   6.894   5.211  13.896
65598W        W32139  22.182  35.796  13.546
65599W        W32140  11.852  40.305  13.335
65600W        W32141  28.019  12.237   1.796
65601W        W32142  44.622   5.459   2.718
65602W        W32143   5.874  19.174  13.415
65603W        W32144  42.467  37.661   3.140
65604W        W32145  42.742  29.989  14.986
65605W        W32146  18.062   4.781   1.301
65606W        W32147  41.030  34.775   1.190
65607W        W32148   5.369  27.284   0.789
65608W        W32149  10.683   8.738   0.313
65609W        W32150  35.986  17.786  11.527
65610W        W32151   0.227  21.032  12.463
65611W        W32152  31.248  27.853  14.938
65612W        W32153   9.695  18.748   0.501
65613W        W32154  38.617  41.889  14.426
65614W        W32155  31.739  15.795   2.268
65615W        W32156  31.088   5.916   0.335
65616W        W32157  24.051  14.052  11.706
65617W        W32158  12.268  29.478  13.320
65618W        W32159  35.795   4.455  12.525
65619W        W32160  30.655  22.628  11.648
65620W        W32161  18.754  32.175   4.594
65621W        W32162  18.602  11.588  11.309
65622W        W32163  24.827  35.598   0.420
65623W        W32164  17.617  39.639   3.652
65624W        W32165  43.432  44.546  11.374
65625W        W32166  10.169   3.008  13.820
65626W        W32167  31.499   3.691  10.577
65627W        W32168  30.526   6.452   2.735
65628W        W32169  22.811   5.286  10.916
65629W        W32170  13.655  21.994   4.108
65630W        W32171   4.190  23.253   3.225
65631W        W32172  14.319   9.815   1.405
65632W        W32173  21.536  40.124  11.062
65633W        W32174   8.164  27.371  13.939
65634W        W32175  17.143  38.703  10.637
65635W        W32176  34.562  31.028   2.616
65636W        W32177  14.687  36.509  12.165
65637W        W32178  20.149  32.537   2.425
65638W        W32179  33.986  32.068   1.933
65639W        W32180  32.906   9.355  11.559
65640W        W32181  21.597  38.336   3.257
65641W        W32182  35.667  27.656   3.710
65642W        W32183  37.011  36.046   0.584
65643W        W32184   2.645  42.473   4.961
65644W        W32185   5.776  16.789  14.369
65645W        W32186  43.323  39.177  14.463
65646W        W32187  15.302  22.179  11.330
65647W        W32188  10.203  15.172   0.836
65648W        W32189  17.909   2.740   3.595
65649W        W32190  29.341  27.633  14.805
65650W        W32191  40.262  14.722   2.852
65651W        W32192  13.710  44.507   2.221
65652W        W32193   8.799  32.434   1.384
65653W        W32194  25.267  36.369   0.988
65654W        W32195  15.544  44.452   2.962
65655W        W32196   4.062  29.529   0.979
65656W        W32197  13.164  27.257  12.509
65657W        W32198  16.900  30.259   0.871
65658W        W32199  26.175  13.254  14.175
65659W        W32200  22.206  12.314   0.456
65660W        W32201  23.464  31.965  11.073
65661W        W32202  15.279  13.494  12.107
65662W        W32203   8.109  18.377   0.903
65663W        W32204   8.482   6.164  12.026
65664W        W32205  18.037  34.933  11.188
65665W        W32206  27.693  44.975   4.542
65666W        W32207  36.193  19.135   4.541
65667W        W32208  12.807  40.777   2.259
65668W        W32209  24.553  30.652   2.308
65669W        W32210   5.096  11.507   3.705
65670W        W32211  27.596  38.177  10.833
65671W        W32212  31.056  31.677   2.850
65672W        W32213   7.852  38.303   0.908
65673W        W32214  24.009   0.471   0.852
65674W        W32215  23.876  18.086   0.855
65675W        W32216   1.385  17.044   3.734
65676W        W32217   7.276  31.590   3.179
65677W        W32218  32.152  38.918   4.108
65678W        W32219   4.348   6.178   3.271
65679W        W32220   3.209  33.690  12.077
65680W        W32221  18.078   3.521  11.500
65681W        W32222  20.679  33.143  14.431
65682W        W32223  27.230  11.184   1.876
65683W        W32224  34.106  29.833  13.414
65684W        W32225  43.451   3.711  11.475
65685W        W32226  23.767   4.210  12.931
65686W        W32227  43.490  10.864  11.989
65687W        W32228   2.410   7.731   3.867
65688W        W32229  41.961  19.046  12.097
65689W        W32230  37.510  11.884   0.742
65690W        W32231   2.953   4.400   2.853
65691W        W32232   2.914  22.937   0.672
65692W        W32233   3.742   4.715   2.627
65693W        W32234  30.600  42.448  13.165
65694W        W32235  44.135  43.258  11.211
65695W        W32236   1.913  39.621  11.692
65696W        W32237  32.645  44.429  13.503
65697W        W32238  44.862  16.320   3.824
65698W        W32239  11.232   6.153  12.355
65699W        W32240  17.242  16.881  14.441
65700W        W32241   6.696   9.605   3.153
65701W        W32242   1.356  11.121   4.144
65702W        W32243  17.227  41.356  14.481
65703W        W32244   2.980  17.817  10.695
65704W        W32245   1.732  15.138  14.028
65705W        W32246  12.699   3.423   0.529
65706W        W32247  41.051  43.532   2.264
65707W        W32248  39.846  27.082   1.048
65708W        W32249  25.463  11.608  12.989
65709W        W32250   6.439  32.967   0.775
65710W        W32251  14.549  21.810   2.685
65711W        W32252   4.250  18.550   0.379
65712W        W32253  29.400  19.608  13.987
65713W        W32254  20.747  37.542  11.311
65714W        W32255  11.353  37.886   4.610
65715W        W32256   5.253  43.354   1.645
65716W        W32257  12.292  24.092  12.313
65717W        W32258  41.810   0.771  14.560
65718W        W32259  23.028  12.749   2.151
65719W        W32260  20.345  12.614   0.245
65720W        W32261  10.756   2.144   0.543
65721W        W32262  37.886  28.032  10.310
65722W        W32263   9.653   3.653   1.892
65723W        W32264  37.993  35.330   0.862
65724W        W32265  12.356  41.514   1.324
65725W        W32266   0.132  11.083   0.491
65726W        W32267  40.945  39.426   4.448
65727W        W32268   6.664  35.176  14.958
65728W        W32269   8.640  36.012   3.257
65729W        W32270  10.331  23.660   2.353
65730W        W32271  15.253  28.785  12.875
65731W        W32272  20.771  44.250  13.035
65732W        W32273  28.213  43.597   2.748
65733W        W32274  12.175  30.368  10.674
65734W        W32275  19.733  15.105  13.087
65735W        W32276  23.249  17.542   3.796
65736W        W32277   6.640  23.536   3.170
65737W        W32278  13.670  26.104   4.239
65738W        W32279  16.613  15.451   0.983
65739W        W32280  14.675  12.403  11.087
65740W        W32281   0.373  36.379   0.624
65741W        W32282  20.506  35.953   0.891
65742W        W32283  41.967  33.672  14.858
65743W        W32284  16.107  34.959   2.932
65744W        W32285  24.741  28.033   3.300
65745W        W32286   3.844  43.259   4.300
65746W        W32287  35.939  25.033  11.956
65747W        W32288  42.806   6.203   1.721
65748W        W32289  11.775  31.850   2.179
65749W        W32290  15.819   0.026  12.030
65750W        W32291  42.705   1.181   4.610
65751W        W32292   5.776  30.016  10.618
65752W        W32293   7.707  16.143  11.669
65753W        W32294   9.237  39.131  14.845
65754W        W32295  40.303   6.125   1.105
65755W        W32296  25.483  16.597  12.934
65756W        W32297  36.565  18.470  11.581
65757W        W32298  34.861  32.650  12.018
65758W        W32299  30.975   8.638   0.996
65759W        W32300   3.430  32.892   0.458
65760W        W32301  13.585  12.800   5.021
65761W        W32302   9.685  25.925   3.786
65762W        W32303  28.095  18.387  11.150
65763W        W32304  40.163   6.803  14.791
65764W        W32305  36.085  24.139   3.107
65765W        W32306  25.383  38.521   2.774
65766W        W32307  14.805  20.675  13.831
65767W        W32308   3.286  30.078   1.295
65768W        W32309  30.403  43.358  14.376
65769W        W32310  31.144  35.907   4.203
65770W        W32311  15.416  11.220   4.062
65771W        W32312  34.602  25.077  12.008
65772W        W32313  11.191  43.222   1.701
65773W        W32314  12.354   8.254   0.204
65774W        W32315  16.388  27.514   1.460
65775W        W32316  16.116  34.954  11.060
65776W        W32317   5.428  14.104  12.596
65777W        W32318  31.698  40.947   1.253
65778W        W32319   6.399  28.627   4.728
65779W        W32320   3.545  41.396   4.615
65780W        W32321   8.474  42.868  11.490
65781W        W32322   0.462  39.941   3.509
65782W        W32323  37.392  44.564  14.474
65783W        W32324  15.189  21.659  11.337
65784W        W32325  41.845  36.369  11.599
65785W        W32326   6.207   2.135   9.889
65786W        W32327  14.815   5.459  14.334
65787W        W32328  28.761  17.987  14.782
65788W        W32329  35.138  33.369   1.613
65789W        W32330  18.756  37.491   2.836
65790W        W32331  31.744   9.811   0.465
65791W        W32332  43.038   3.452  13.106
65792W        W32333  30.547  10.946   0.834
65793W        W32334  37.365  15.217  11.557
65794W        W32335  33.920  17.708   0.795
65795W        W32336  10.125  39.873  12.691
65796W        W32337  34.172  20.589   2.728
65797W        W32338  16.832  19.802   1.208
65798W        W32339  13.811   7.540  13.057
65799W        W32340  32.198  39.373  12.428
65800W        W32341  14.081  12.705  11.555
65801W        W32342  23.092  19.554  14.361
65802W        W32343  31.877  24.670   1.376
65803W        W32344  42.742  21.683  10.434
65804W        W32345  30.110  32.862   0.455
65805W        W32346  13.693  29.974   3.653
65806W        W32347  42.155  21.576  10.739
65807W        W32348   0.804  19.803  13.009
65808W        W32349  30.139   4.633  11.624
65809W        W32350  28.349  12.099   0.821
65810W        W32351   0.498  12.073   1.439
65811W        W32352  28.261  30.011  14.059
65812W        W32353  33.964  25.445   0.302
65813W        W32354   1.757  38.400  14.412
65814W        W32355  13.384   1.530   0.800
65815W        W32356  10.392   1.511   2.989
65816W        W32357  38.027  27.076  14.918
65817W        W32358  22.199  38.945  10.714
65818W        W32359   6.200  10.482  10.809
65819W        W32360  20.667  29.674   0.899
65820W        W32361  37.045  12.147   1.813
65821W        W32362  11.811  23.436   2.739
65822W        W32363   4.875   8.811  13.848
65823W        W32364  26.991   6.020   3.695
65824W        W32365  40.740   7.304   1.158
65825W        W32366   0.932  32.910   1.347
65826W        W32367  36.967  17.673   3.691
65827W        W32368  12.074  16.891   0.555
65828W        W32369  10.920  27.942  13.425
65829W        W32370  10.143   2.930   0.980
65830W        W32371  34.497  17.849  14.315
65831W        W32372  38.529  38.815  12.425
65832W        W32373  34.859  26.414   3.755
65833W        W32374  11.065  11.033  11.583
65834W        W32375   0.160  29.541  14.918
65835W        W32376  40.282  28.732  11.426
65836W        W32377   7.821  20.537   2.707
65837W        W32378   6.860  34.866   4.092
65838W        W32379  35.557  15.243  12.526
65839W        W32380  19.265  30.637   1.232
65840W        W32381   3.457  37.773  12.009
65841W        W32382  21.697  30.469  11.997
65842W        W32383   6.819  36.503   4.186
65843W        W32384  19.151  43.678   1.392
65844W        W32385  43.830   5.266   1.035
65845W        W32386   4.733  40.318   4.616
65846W        W32387  19.770  31.165   2.851
65847W        W32388   0.887   1.973  12.628
65848W        W32389  28.612  25.958  12.383
65849W        W32390   7.016  43.693   0.238
65850W        W32391  10.429  28.473   0.360
65851W        W32392  44.442  27.136   4.637
65852W        W32393  19.493   6.306   3.830
65853W        W32394   6.283  17.667   0.866
65854W        W32395  13.311   3.503   4.547
65855W        W32396  24.473  34.931  14.121
65856W        W32397  32.813   8.835  10.873
65857W        W32398  19.436  29.528   0.298
65858W        W32399   0.916  30.893   9.770
65859W        W32400  19.537  33.987  13.542
65860W        W32401  17.748  22.153   0.091
65861W        W32402   8.723  18.583  14.670
65862W        W32403  38.482  35.450   4.201
65863W        W32404   7.249  43.197  12.655
65864W        W32405  30.903  23.505   2.143
65865W        W32406  10.784  13.478   4.437
65866W        W32407   7.861   4.319  10.668
65867W        W32408  28.906  36.668  12.352
65868W        W32409  36.938  36.285  10.317
65869W        W32410  34.596  18.057   1.216
65870W        W32411  13.145   6.950   3.292
65871W        W32412  25.377  19.925  11.483
65872W        W32413  38.548   8.705  14.787
65873W        W32414   6.323  43.278  14.902
65874W        W32415   1.243  32.964  14.310
65875W        W32416  26.592  38.348   1.186
65876W        W32417  15.173  28.366   0.670
65877W        W32418  35.453   9.760   3.708
65878W        W32419  18.780  26.527  14.383
65879W        W32420  30.567  25.488  13.426
65880W        W32421   0.760  36.848   4.140
65881W        W32422  23.613  40.685  11.917
65882W        W32423  18.986  38.564   1.369
65883W        W32424   1.883   9.507   4.719
65884W        W32425  34.004  24.940  14.432
65885W        W32426  34.022   0.827   0.984
65886W        W32427  15.718  37.579  10.653
65887W        W32428  36.415  33.442  13.305
65888W        W32429  17.922  10.260  11.619
65889W        W32430  39.461   9.176   4.077
65890W        W32431  39.057  12.288   4.205
65891W        W32432  44.963  43.925   1.380
65892W        W32433  42.732   3.861   1.183
65893W        W32434  31.715   7.886   4.170
65894W        W32435   0.693  42.500  10.711
65895W        W32436   4.940  25.518  14.528
65896W        W32437  18.393  33.414  14.002
65897W        W32438  14.487   5.225  13.161
65898W        W32439  14.666  30.439  13.398
65899W        W32440  25.478  19.335   2.173
65900W        W32441  18.504   0.486  11.690
65901W        W32442  19.474  10.681   0.850
65902W        W32443  15.284  13.845   0.686
65903W        W32444   3.523  26.703   1.236
65904W        W32445  31.023  36.100   2.729
65905W        W32446  38.794  39.869  10.977
65906W        W32447  23.436  20.477   2.238
65907W        W32448  41.382   1.310  11.010
65908W        W32449   2.956  17.760  12.784
65909W        W32450  43.240   0.717  13.395
65910W        W32451  29.597  40.586   0.608
65911W        W32452  29.306  27.470  12.042
65912W        W32453  12.019  31.720   4.052
65913W        W32454  22.009  11.296   1.155
65914W        W32455  34.996   4.141  13.120
65915W        W32456  42.742  22.031   0.381
65916W        W32457  19.708  12.264   1.915
65917W        W32458  16.242  33.182   2.745
65918W        W32459  12.664  10.696  13.998
65919W        W32460  21.617   4.456  14.916
65920W        W32461  27.524  17.450   2.299
65921W        W32462  28.616   6.910   3.740
65922W        W32463  22.549  13.080   4.052
65923W        W32464  20.197  21.555   0.417
65924W        W32465  40.588  31.558   3.626
65925W        W32466  25.216  36.068  13.508
65926W        W32467  39.938  38.769  11.052
65927W        W32468   9.832  35.929  12.571
65928W        W32469  29.392  32.601  12.554
65929W        W32470  22.894  38.918   3.126
65930W        W32471  33.465  23.573  13.576
65931W        W32472  28.881  31.963  12.990
65932W        W32473  17.004  40.396   3.274
65933W        W32474  25.484  25.839   3.331
65934W        W32475  28.441  42.404  14.423
65935W        W32476  37.098  42.018  12.389
65936W        W32477  33.420  43.273  14.873
65937W        W32478  27.630  21.045   3.609
65938W        W32479  14.069  21.065  12.550
65939W        W32480  38.876   5.662   4.997
65940W        W32481  39.308   9.429  13.306
65941W        W32482  27.498  11.849   9.529
65942W        W32483   2.668  25.672   2.208
65943W        W32484  39.013  23.554  13.533
65944W        W32485  38.913  41.904   4.423
65945W        W32486  42.784  14.637   3.108
65946W        W32487  25.232  34.000   2.736
65947W        W32488  43.812  19.414   4.125
65948W        W32489  44.291   6.624  13.365
65949W        W32490  16.100  36.094  14.957
65950W        W32491  31.133  12.600  12.923
65951W        W32492  23.444  43.993   2.181
65952W        W32493  44.898  23.188   0.836
65953W        W32494  14.734   0.695  14.996
65954W        W32495   4.985   1.758   1.948
65955W        W32496  12.241  15.835  10.241
65956W        W32497  33.041  22.492   2.334
65957W        W32498  40.488  38.072  12.054
65958W        W32499  26.533   7.910   2.393
65959W        W32500  13.316  15.798  11.130
65960W        W32501  26.223  13.714  11.549
65961W        W32502  35.386  24.914   3.260
65962W        W32503   2.355  24.189   2.702
65963W        W32504  28.040  39.875  12.938
65964W        W32505  28.948   5.471  10.740
65965W        W32506   9.904  17.206   2.791
65966W        W32507  38.425  31.471  11.324
65967W        W32508  33.948  31.653  13.115
65968W        W32509   9.459   2.696  14.367
65969W        W32510  32.947  15.411  14.822
65970W        W32511  42.371   1.389  13.314
65971W        W32512  11.135  43.684   1.428
65972W        W32513  44.302  36.003   3.866
65973W        W32514   9.830  32.504   3.261
65974W        W32515  24.234  23.944  13.875
65975W        W32516   2.755   5.412  10.980
65976W        W32517   9.793  21.321   4.079
65977W        W32518  41.079  38.948   4.892
65978W        W32519  22.533  34.582   0.870
65979W        W32520  25.073  16.387  14.751
65980W        W32521  37.844  19.518  11.191
65981W        W32522  24.164  44.324  14.521
65982W        W32523   7.727  42.378   5.017
65983W        W32524  31.085   4.253   0.183
65984W        W32525  12.887   8.891   3.418
65985W        W32526  22.944  25.172  12.541
65986W        W32527  35.421   8.699   4.587
65987W        W32528   4.513   5.257  12.878
65988W        W32529  13.088  13.266  12.946
65989W        W32530  40.919  11.823  14.281
65990W        W32531  34.523  28.910  11.637
65991W        W32532  11.644  39.368  12.348
65992W        W32533   2.538   8.344  10.648
65993W        W32534   5.389   5.912   4.517
65994W        W32535  25.559  31.160  10.649
65995W        W32536  33.445  34.853   3.800
65996W        W32537   4.917  34.342  12.323
65997W        W32538  27.755   3.848  13.465
65998W        W32539   7.888  27.966  11.151
65999W        W32540  30.596  25.074   3.523
66000W        W32541  38.795  40.533  12.531
66001W        W32542  31.088   5.319   4.617
66002W        W32543  29.659  26.440   3.747
66003W        W32544   0.287   5.875  10.889
66004W        W32545  25.621  39.834  12.629
66005W        W32546  16.067  42.994   1.900
66006W        W32547  44.249  26.128   9.954
66007W        W32548  19.519   2.816  14.463
66008W        W32549  35.085  41.486   4.414
66009W        W32550   3.893  41.725  10.468
66010W        W32551  21.093  30.326   4.601
66011W        W32552  23.520  20.725  11.883
66012W        W32553  28.916  11.784   3.069
66013W        W32554  44.122   4.951   3.223
66014W        W32555  30.565  14.063   4.163
66015W        W32556  42.537  13.143   5.448
66016W        W32557  38.425  23.441   1.993
66017W        W32558  43.378  18.671   1.673
66018W        W32559  13.847  44.920   0.250
66019W        W32560  15.733   9.728   4.709
66020W        W32561  32.137  16.152   2.254
66021W        W32562  36.676   5.687  13.178
66022W        W32563  35.883   1.830   4.868
66023W        W32564  43.413  41.728  12.161
66024W        W32565  16.036  16.813  12.022
66025W        W32566  42.624  39.314   1.094
66026W        W32567   8.106  40.626   0.504
66027W        W32568  31.043   5.813   3.875
66028W        W32569  30.152  43.593  13.587
66029W        W32570  18.140  14.112   1.284
66030W        W32571  41.388  44.433  12.878
66031W        W32572  35.041  44.733   4.034
66032W        W32573   5.846   8.894  10.712
66033W        W32574  11.180   6.920  12.855
66034W        W32575  44.921  43.070   3.971
66035W        W32576   3.381   7.570   4.542
66036W        W32577  24.478  29.712   3.364
66037W        W32578  13.180  32.410   1.938
66038W        W32579  17.809  27.801  12.128
66039W        W32580  35.835  12.624   0.716
66040W        W32581   2.369  27.395  11.249
66041W        W32582  27.538  24.344  14.360
66042W        W32583  39.728  42.737   4.178
66043W        W32584  35.114  32.885   3.468
66044W        W32585   4.563  40.882   3.344
66045W        W32586  25.103   0.311   2.813
66046W        W32587  12.908  40.573  13.090
66047W        W32588  12.432   7.847   4.069
66048W        W32589  25.143  33.099  12.785
66049W        W32590  24.464   6.300   1.894
66050W        W32591  43.352   8.332  14.538
66051W        W32592  19.213  36.594  11.097
66052W        W32593   7.463   2.419   2.644
66053W        W32594  40.443  29.962   0.676
66054W        W32595   6.654  28.487  13.347
66055W        W32596  26.959  42.797  13.513
66056W        W32597   5.153  11.331  13.357
66057W        W32598   3.806  27.730   1.343
66058W        W32599  16.178  15.327  13.344
66059W        W32600  28.018   0.394   3.306
66060W        W32601   4.848  37.963  13.402
66061W        W32602  20.285  37.113  14.006
66062W        W32603  38.881   1.426   0.751
66063W        W32604   9.264  32.401  12.492
66064W        W32605  36.016  21.787  14.471
66065W        W32606  29.616  21.180   3.369
66066W        W32607  18.733   3.068   1.391
66067W        W32608   1.825  25.527   1.772
66068W        W32609  30.130  19.251  11.974
66069W        W32610  18.767  32.970   0.627
66070W        W32611  41.563  38.275   1.751
66071W        W32612  44.739  21.148  11.547
66072W        W32613   3.641  18.868  11.666
66073W        W32614  29.199  22.626  13.349
66074W        W32615  44.668  24.729   4.551
66075W        W32616  23.742  27.099  14.401
66076W        W32617  14.388  27.935  12.040
66077W        W32618  28.988  37.938  13.141
66078W        W32619   8.345  13.081  13.851
66079W        W32620  37.464  30.547   1.452
66080W        W32621  15.061  41.207   1.167
66081W        W32622  23.955  41.046  12.614
66082W        W32623  31.257   7.079  12.052
66083W        W32624  25.100  15.281   0.740
66084W        W32625  34.006  31.192  12.884
66085W        W32626   9.301  12.711  14.492
66086W        W32627  38.462   5.539  13.731
66087W        W32628  10.339  15.185  12.097
66088W        W32629   7.650  30.384   4.306
66089W        W32630  39.835   3.348   1.820
66090W        W32631  34.637  44.824  11.610
66091W        W32632   0.914   0.046  11.657
66092W        W32633  34.932   5.252  14.886
66093W        W32634  18.678  18.199   3.673
66094W        W32635  10.714  42.829   4.112
66095W        W32636  21.529  11.018   2.267
66096W        W32637  19.073  16.767   3.222
66097W        W32638  29.180  23.844  11.833
66098W        W32639  31.251  13.923   4.676
66099W        W32640  43.258   3.389  11.154
66100W        W32641   1.211  38.364  11.580
66101W        W32642   9.848  27.625   3.212
66102W        W32643  41.440  25.820   3.683
66103W        W32644  42.975  36.296   1.372
66104W        W32645  38.180  11.196  11.589
66105W        W32646  42.886  15.820  13.340
66106W        W32647  20.509  41.885  11.541
66107W        W32648  33.705  16.770   2.942
66108W        W32649  15.675   3.940   2.638
66109W        W32650  39.390  27.120   0.770
66110W        W32651  33.511  25.493  10.660
66111W        W32652  18.777  34.232   2.397
66112W        W32653  38.748   6.297   2.660
66113W        W32654  41.197  25.626  11.933
66114W        W32655  28.138  12.618   2.174
66115W        W32656  35.584  15.614   2.833
66116W        W32657  25.510   5.200   4.495
66117W        W32658   1.403  43.799  14.420
66118W        W32659  42.841  30.523   1.460
66119W        W32660  41.033  12.742   3.549
66120W        W32661  26.511   6.617  12.965
66121W        W32662  25.094   0.784  14.385
66122W        W32663  31.081  43.444  12.129
66123W        W32664  29.750  44.056  10.279
66124W        W32665  16.995  26.012  11.702
66125W        W32666  12.286  31.237   0.633
66126W        W32667  16.500  16.841  14.003
66127W        W32668  39.909  19.625   2.882
66128W        W32669   2.454  25.493  12.565
66129W        W32670  39.855  34.543  13.164
66130W        W32671  42.843  27.192  13.181
66131W        W32672  21.032  11.868  12.512
66132W        W32673   0.963  23.546  10.924
66133W        W32674  16.611   7.180  14.575
66134W        W32675  29.043   7.086   0.247
66135W        W32676  42.797  14.591   1.706
66136W        W32677   7.193  29.677   1.619
66137W        W32678  38.910   7.487  10.490
66138W        W32679  20.500  39.020   1.256
66139W        W32680  42.961  12.647  12.022
66140W        W32681  20.552   7.906   4.357
66141W        W32682  25.405  34.621   2.183
66142W        W32683  39.606  27.082   4.298
66143W        W32684  19.646   0.425   0.450
66144W        W32685  13.698   1.523  14.396
66145W        W32686  26.625  40.496  14.441
66146W        W32687  16.863  18.902   0.165
66147W        W32688  39.899   8.274   0.707
66148W        W32689  19.671  27.993   2.680
66149W        W32690  26.246   0.337  12.939
66150W        W32691  42.552  33.580  11.250
66151W        W32692  31.893  40.477   4.117
66152W        W32693  20.771   4.830  13.430
66153W        W32694  25.971  24.067   1.346
66154W        W32695  19.275  39.695   0.659
66155W        W32696  23.719  39.917   4.237
66156W        W32697  26.042  13.603  13.832
66157W        W32698  14.231  20.165  13.629
66158W        W32699  25.217   3.677  10.840
66159W        W32700  27.474  36.913  14.105
66160W        W32701  39.394   5.303   0.948
66161W        W32702  38.089   9.156   3.568
66162W        W32703  26.907  24.022   0.298
66163W        W32704  13.649  37.909  11.999
66164W        W32705  39.758  36.808  14.062
66165W        W32706  36.072  38.346   3.045
66166W        W32707  30.447  15.701   0.532
66167W        W32708   4.670  25.471  10.820
66168W        W32709   3.413   8.532   4.865
66169W        W32710  18.501  28.287   1.783
66170W        W32711   3.463  18.800   0.612
66171W        W32712  19.009  21.138   1.896
66172W        W32713   8.642  19.091  14.069
66173W        W32714  25.091  14.516  11.533
66174W        W32715  13.215  15.527   2.713
66175W        W32716  34.527  40.317  14.897
66176W        W32717  42.559  19.248   1.113
66177W        W32718  13.609  41.319  10.668
66178W        W32719  27.601  25.582  10.426
66179W        W32720   5.343   7.784   2.409
66180W        W32721  24.262  14.762   4.599
66181W        W32722   8.053  18.087  11.167
66182W        W32723  20.699  24.109   1.344
66183W        W32724  10.661   4.009   9.754
66184W        W32725  10.528  31.251  13.836
66185W        W32726  41.638  24.302   1.500
66186W        W32727  10.179  14.814   3.083
66187W        W32728  31.527   3.851   4.133
66188W        W32729  29.473  37.798   2.354
66189W        W32730  14.813  18.722  10.641
66190W        W32731  43.514  40.761  13.673
66191W        W32732  28.513  19.844  12.977
66192W        W32733  35.087  37.912   0.861
66193W        W32734   9.896  34.434  11.202
66194W        W32735  18.765   5.431  14.975
66195W        W32736  40.160  25.339   1.845
66196W        W32737  12.348  14.562  13.058
66197W        W32738  17.341   2.203  11.643
66198W        W32739  20.505  31.354   2.421
66199W        W32740  13.326   4.188   1.825
66200W        W32741  16.126  24.029  13.454
66201W        W32742  16.138  17.631  14.017
66202W        W32743  27.597  36.179   2.471
66203W        W32744   5.391  24.007   0.362
66204W        W32745   3.617  36.374  11.138
66205W        W32746  19.205  32.795  10.715
66206W        W32747  39.472  27.275  12.526
66207W        W32748  37.762  41.047   1.831
66208W        W32749  33.852   2.261  13.468
66209W        W32750   4.191   9.604   2.854
66210W        W32751  32.468  39.235   4.880
66211W        W32752   9.930  24.672   2.863
66212W        W32753  25.095  40.536   1.322
66213W        W32754  30.434   6.885   1.563
66214W        W32755  17.235  12.376  14.317
66215W        W32756  38.432  19.136   4.967
66216W        W32757  17.529   7.764  11.606
66217W        W32758  40.538   6.990  12.008
66218W        W32759   6.695  33.859  13.908
66219W        W32760  37.046  36.237   3.196
66220W        W32761  41.581   4.726   3.102
66221W        W32762  20.619  43.775  11.520
66222W        W32763   5.870  37.317  10.147
66223W        W32764  27.642   1.907  12.329
66224W        W32765  13.840  13.364   0.158
66225W        W32766   6.986  13.038   1.920
66226W        W32767   7.370  44.943  13.930
66227W        W32768  17.540   5.478  13.436
66228W        W32769  19.714  37.061   2.650
66229W        W32770  31.000  38.383  14.714
66230W        W32771  24.491  14.100  14.036
66231W        W32772  41.426   1.451   4.104
66232W        W32773   3.426   2.716   3.207
66233W        W32774  19.004  32.607   4.517
66234W        W32775  39.983  34.054   3.374
66235W        W32776  41.891   5.956  13.626
66236W        W32777   6.688   4.805  12.631
66237W        W32778  14.033  21.234   3.520
66238W        W32779   7.554  20.051  13.411
66239W        W32780  12.322  13.118  11.592
66240W        W32781   9.166  44.733   1.941
66241W        W32782  26.227  44.787  13.419
66242W        W32783  35.549  13.134  14.417
66243W        W32784  25.962  12.929  13.825
66244W        W32785  20.049  10.134   1.203
66245W        W32786  10.146  13.107  14.379
66246W        W32787   1.602  19.413   4.122
66247W        W32788   9.808  43.866  10.670
66248W        W32789  44.807  31.950   3.364
66249W        W32790  14.315  42.800  11.611
66250W        W32791  36.726  18.649  12.062
66251W        W32792  29.957   8.993  12.255
66252W        W32793  12.127  22.198  11.375
66253W        W32794   2.372  26.238   4.060
66254W        W32795   0.924  26.763  10.972
66255W        W32796  29.361  26.264   1.215
66256W        W32797  14.096  30.956  12.225
66257W        W32798  32.429  30.900   4.050
66258W        W32799  31.892  23.350   2.959
66259W        W32800  27.884  15.829   2.418
66260W        W32801   8.274  23.031  13.310
66261W        W32802  12.519  28.849   0.892
66262W        W32803   0.311   6.373   4.880
66263W        W32804   4.277  20.584   1.850
66264W        W32805  23.624  23.143   1.135
66265W        W32806  16.710  39.289  13.064
66266W        W32807  11.292  42.931  14.111
66267W        W32808  21.067   7.808   0.934
66268W        W32809   5.270  18.280  11.847
66269W        W32810   7.964  30.926   3.075
66270W        W32811  12.157  41.982  13.870
66271W        W32812  18.033  12.344  10.255
66272W        W32813   9.928  19.963   0.800
66273W        W32814  24.225  42.007   0.744
66274W        W32815   4.721   2.342  13.525
66275W        W32816  38.399  40.108  11.684
66276W        W32817  19.862  25.047  14.683
66277W        W32818   3.383  28.954   2.018
66278W        W32819  23.001  37.458  12.972
66279W        W32820  29.035  28.982  12.505
66280W        W32821  19.794  14.333   0.024
66281W        W32822  24.751   1.264  11.192
66282W        W32823  37.887  20.017   4.081
66283W        W32824  37.968   1.272  10.606
66284W        W32825  30.975  34.635   0.684
66285W        W32826  31.932   1.459  14.949
66286W        W32827  25.232   1.922   1.303
66287W        W32828  23.041   3.631   2.531
66288W        W32829  35.170  30.436  14.496
66289W        W32830  10.466  14.789  11.096
66290W        W32831  11.859  31.787  11.666
66291W        W32832  28.300  26.904  10.130
66292W        W32833  31.914  24.769   3.174
66293W        W32834  43.203  30.700  10.948
66294W        W32835  19.238   6.783   2.720
66295W        W32836  33.568  33.262   4.477
66296W        W32837  12.616  37.210   3.152
66297W        W32838   0.385  10.060  13.378
66298W        W32839  18.618  41.916  14.075
66299W        W32840  40.239  37.579  14.324
66300W        W32841  39.921  18.637   1.766
66301W        W32842  20.423  13.646   5.250
66302W        W32843  41.447   1.999   2.342
66303W        W32844  20.958  21.867   0.811
66304W        W32845  25.783   9.118   4.119
66305W        W32846  38.527  16.762  10.356
66306W        W32847  32.523   7.284   2.650
66307W        W32848  27.125  11.656   2.889
66308W        W32849  12.347   0.740   1.837
66309W        W32850   6.943   0.997  10.248
66310W        W32851  11.446   4.068   2.863
66311W        W32852  30.710  38.124  13.550
66312W        W32853   6.405   7.806  10.949
66313W        W32854  28.402  39.125  11.884
66314W        W32855  30.979  20.283  10.789
66315W        W32856  41.822  22.596  10.674
66316W        W32857  42.330  10.678  13.816
66317W        W32858  32.953  28.400  11.137
66318W        W32859  30.445  32.615   0.776
66319W        W32860  13.033   2.305  13.547
66320W        W32861  38.662  40.076   2.735
66321W        W32862  26.989   0.027  11.500
66322W        W32863  27.797  30.574  13.093
66323W        W32864  40.038  28.648   2.323
66324W        W32865  14.258  35.285  13.851
66325W        W32866  19.659  25.938  10.569
66326W        W32867   2.466  11.415  11.560
66327W        W32868  31.416  11.930   2.238
66328W        W32869  27.529  20.946   2.318
66329W        W32870   9.200  33.422   1.129
66330W        W32871  18.804  11.314  10.633
66331W        W32872   3.596   8.720  11.561
66332W        W32873  30.492  20.727   4.278
66333W        W32874  33.987  13.336  10.753
66334W        W32875  17.763  36.295   1.908
66335W        W32876  36.325  44.240   3.684
66336W        W32877  21.092  29.449   5.004
66337W        W32878  32.145  11.420   1.236
66338W        W32879   1.444  36.684  12.814
66339W        W32880   9.658  29.483   2.848
66340W        W32881   2.392  20.337  13.712
66341W        W32882  24.267  12.106   0.442
66342W        W32883  33.589  25.012   2.677
66343W        W32884   2.303  37.696  14.202
66344W        W32885   0.889  17.116   1.490
66345W        W32886  31.544  11.197  12.999
66346W        W32887  29.905   4.002   1.924
66347W        W32888  37.176  15.415   5.000
66348W        W32889   8.951   2.520  14.334
66349W        W32890  17.372  37.229  14.089
66350W        W32891  33.335  18.126  12.472
66351W        W32892  35.149  29.004   4.127
66352W        W32893   9.727  35.299   4.149
66353W        W32894  20.934  17.646  11.463
66354W        W32895   5.227  42.503  13.752
66355W        W32896  21.044   2.203   2.197
66356W        W32897   2.356  35.486  14.079
66357W        W32898   7.280  20.155  10.385
66358W        W32899  20.934   9.286  10.653
66359W        W32900   9.741   9.593  13.056
66360W        W32901  23.181   1.661  13.455
66361W        W32902  33.050   4.063   2.119
66362W        W32903  22.985   7.518   4.579
66363W        W32904   8.166  11.241   1.883
66364W        W32905  37.321  32.556  11.161
66365W        W32906  39.017  20.254  11.198
66366W        W32907   2.259  11.658   3.137
66367W        W32908  40.585  28.456  11.125
66368W        W32909  22.977  39.811  10.659
66369W        W32910  43.800  17.647  11.358
66370W        W32911  33.803  30.588  12.483
66371W        W32912   0.454  15.764   4.278
66372W        W32913   7.034  42.697  10.317
66373W        W32914  42.603   0.985  13.019
66374W        W32915   6.551  11.005   1.885
66375W        W32916  25.541  39.003  14.071
66376W        W32917  26.377  34.686  11.978
66377W        W32918   1.438  23.047  10.999
66378W        W32919  27.001   7.193  13.977
66379W        W32920  40.224  17.548   0.044
66380W        W32921  13.802   4.496  11.717
66381W        W32922   5.287  34.111  11.587
66382W        W32923  32.752  37.530   3.849
66383W        W32924  43.036  21.487  14.798
66384W        W32925  10.112   9.408  12.477
66385W        W32926   6.911  41.422   4.325
66386W        W32927  37.803  25.146   0.194
66387W        W32928  34.451  11.397   1.133
66388W        W32929   9.632  10.387   4.128
66389W        W32930   2.736  41.340  12.007
66390W        W32931  38.016  15.706  10.645
66391W        W32932  36.841  15.177   2.834
66392W        W32933  21.276   2.576  11.189
66393W        W32934  24.288  26.928  11.131
66394W        W32935  32.091   8.645  12.334
66395W        W32936  37.354  11.649  11.451
66396W        W32937  37.310  40.076  12.566
66397W        W32938   7.178  32.117   4.177
66398W        W32939  16.092   4.205  10.452
66399W        W32940  18.962   1.108  11.974
66400W        W32941   7.898  15.747   0.623
66401W        W32942  11.893   7.486   3.654
66402W        W32943   9.886  30.667  14.995
66403W        W32944   6.497  30.527  12.904
66404W        W32945   5.727  22.887   3.804
66405W        W32946  34.023  42.490   3.572
66406W        W32947  33.365   9.218  13.450
66407W        W32948   2.396  32.962   4.141
66408W        W32949   0.451  23.482  13.405
66409W        W32950  42.273  42.436  13.803
66410W        W32951  33.322  43.270   4.619
66411W        W32952  22.227  39.415  14.814
66412W        W32953  22.040  20.242   4.271
66413W        W32954  20.226  44.626   3.177
66414W        W32955  14.584  27.413  11.000
66415W        W32956  32.499  40.763  14.895
66416W        W32957  44.051   1.755   1.465
66417W        W32958  31.506  37.010   4.671
66418W        W32959  37.888  23.575   3.298
66419W        W32960  40.356  43.119   1.868
66420W        W32961  20.311  20.837  13.486
66421W        W32962  34.718  11.236   0.711
66422W        W32963   1.141  44.688  11.314
66423W        W32964   4.426  28.352   4.287
66424W        W32965  18.058  22.315   0.533
66425W        W32966  28.554  25.685   2.914
66426W        W32967  38.989  37.430  13.452
66427W        W32968  29.089  38.921  13.825
66428W        W32969  32.206  19.249   2.675
66429W        W32970  14.373  25.284   3.705
66430W        W32971  38.292  43.489   1.876
66431W        W32972  22.062  42.572  11.112
66432W        W32973  16.768   9.670  11.441
66433W        W32974  43.893  44.006  11.666
66434W        W32975  28.942  10.252   1.478
66435W        W32976  35.228   3.303  12.952
66436W        W32977   2.674  42.329   0.412
66437W        W32978  29.565  23.027  12.641
66438W        W32979  35.466  11.151   3.674
66439W        W32980  32.925  40.893   3.256
66440W        W32981   4.088   5.490   3.757
66441W        W32982   4.834  14.108   2.265
66442W        W32983  23.570   0.137  14.736
66443W        W32984  41.869  13.490   2.841
66444W        W32985   0.568  43.999  12.955
66445W        W32986  10.373  18.092   3.611
66446W        W32987   1.479   1.718  11.497
66447W        W32988   7.955   6.999  11.132
66448W        W32989   9.343  44.648  12.744
66449W        W32990  40.493  44.712   3.096
66450W        W32991  41.607  26.144  12.623
66451W        W32992  36.872  10.398   1.767
66452W        W32993  20.258  42.827   0.580
66453W        W32994  43.310  28.686  10.734
66454W        W32995   7.931  36.603  14.421
66455W        W32996  36.780  35.603   1.282
66456W        W32997   0.356  26.204  13.429
66457W        W32998  32.698  42.134  12.063
66458W        W32999   2.704  38.888   3.146
66459W        W33000  15.575  18.807   2.302
66460W        W33001  13.175  30.233  12.379
66461W        W33002  41.259  32.150  14.459
66462W        W33003  21.020  18.307   2.193
66463W        W33004   3.221  41.621  11.885
66464W        W33005   9.940  19.513   1.946
66465W        W33006  16.594  38.369   3.267
66466W        W33007  17.282  30.438  10.806
66467W        W33008  27.986  10.910  11.118
66468W        W33009  42.969  15.557  13.771
66469W        W33010  31.406   8.847   2.697
66470W        W33011  17.145  29.531  14.498
66471W        W33012  34.093  42.594  14.054
66472W        W33013   0.371  26.125  11.516
66473W        W33014  22.507  16.410  11.624
66474W        W33015  40.788  14.719  13.428
66475W        W33016  22.255  21.266  14.378
66476W        W33017   7.355  10.808   0.331
66477W        W33018  13.352  18.317  13.305
66478W        W33019  27.159  35.602  10.732
66479W        W33020  30.013  37.413  12.383
66480W        W33021   0.317  20.194   2.142
66481W        W33022  20.301  21.194  14.938
66482W        W33023  23.110   2.036   4.672
66483W        W33024  14.100   0.468  13.738
66484W        W33025  11.233  43.917   4.778
66485W        W33026   4.863  42.717   3.188
66486W        W33027  38.721  11.882  12.103
66487W        W33028  11.181  21.419   1.911
66488W        W33029   4.234  33.689   1.845
66489W        W33030  23.767   5.965   0.050
66490W        W33031  23.656  38.175  14.447
66491W        W33032  29.924  27.201  12.465
66492W        W33033   6.138  33.620  11.111
66493W        W33034  23.094  21.996  11.179
66494W        W33035  11.127  23.454  13.409
66495W        W33036  17.333  24.563   2.738
66496W        W33037  36.045  29.991  12.091
66497W        W33038   0.396  27.496   4.625
66498W        W33039  29.072  39.592   1.805
66499W        W33040  36.007  29.322   2.757
66500W        W33041  29.827  18.974  10.584
66501W        W33042  35.930   4.865   3.870
66502W        W33043  21.476  37.604   2.288
66503W        W33044   5.580   5.897   1.261
66504W        W33045  41.875  18.083  11.202
66505W        W33046  29.650   8.451   2.244
66506W        W33047  17.333  37.638  14.932
66507W        W33048   1.210  11.862   4.214
66508W        W33049   2.724   3.537   0.987
66509W        W33050  39.978  15.110   0.006
66510W        W33051  35.393  33.061  14.046
66511W        W33052  37.396   0.723  12.504
66512W        W33053   4.188   4.774   1.023
66513W        W33054  16.590  24.123  14.555
66514W        W33055  26.051  41.517  11.102
66515W        W33056  44.383  25.784  14.401
66516W        W33057   8.130  16.397  14.830
66517W        W33058  31.847  32.530   2.945
66518W        W33059  36.705  37.044   3.330
66519W        W33060  41.894  37.667  12.114
66520W        W33061  14.769  41.419  13.554
66521W        W33062  43.553  17.214  11.138
66522W        W33063  26.426  38.812  12.251
66523W        W33064   8.171  44.566   1.308
66524W        W33065  23.536   0.231   3.783
66525W        W33066   4.907  35.415  11.650
66526W        W33067  20.576  24.952   1.896
66527W        W33068  28.623  44.805  10.990
66528W        W33069  22.050  12.608  11.034
66529W        W33070  16.125  40.022   4.101
66530W        W33071  11.139   1.075   3.421
66531W        W33072  39.994  32.423   0.915
66532W        W33073  37.443  39.385  11.959
66533W        W33074  22.536  30.229  10.259
66534W        W33075  26.049   6.625   5.433
66535W        W33076  39.586  15.354   3.602
66536W        W33077  19.606  10.117  14.859
66537W        W33078   9.204  23.216   4.135
66538W        W33079  16.558  37.238   4.146
66539W        W33080  20.031  18.911   0.346
66540W        W33081  24.808  15.378  13.941
66541W        W33082  12.714  41.263  14.768
66542W        W33083  33.316  20.497  12.819
66543W        W33084  38.624  37.675   0.954
66544W        W33085  30.012  20.503  11.525
66545W        W33086  24.145  32.977  14.828
66546W        W33087  42.077  34.541   1.864
66547W        W33088   7.129   0.022  12.206
66548W        W33089  35.941   2.851   0.641
66549W        W33090  30.067  37.341  13.599
66550W        W33091  14.994  32.425   4.871
66551W        W33092  24.537  36.613  13.876
66552W        W33093  38.897  32.810  12.731
66553W        W33094  19.771  26.227   2.281
66554W        W33095  25.729   7.624  14.854
66555W        W33096  19.094   9.670  11.192
66556W        W33097  39.460   1.339   1.951
66557W        W33098  27.619  27.989  13.237
66558W        W33099   8.165  14.707   1.870
66559W        W33100   7.264  22.331  14.848
66560W        W33101  35.420  18.304   0.514
66561W        W33102   2.760   5.422  13.283
66562W        W33103  35.316  21.172  13.513
66563W        W33104   0.242   1.272   1.883
66564W        W33105  36.039  25.617   1.640
66565W        W33106   4.505  12.635   2.429
66566W        W33107  25.388  19.102  10.692
66567W        W33108  22.676  27.918  12.451
66568W        W33109  42.483  22.357  11.247
66569W        W33110  34.204  18.141   0.878
66570W        W33111  17.690  21.668   4.120
66571W        W33112  38.066  32.240  14.438
66572W        W33113  29.516  38.855  12.593
66573W        W33114  20.117  35.440   4.847
66574W        W33115  28.643  27.388  13.821
66575W        W33116  23.634  25.468   3.734
66576W        W33117  23.064  10.833   3.099
66577W        W33118  37.427  21.137   2.391
66578W        W33119  34.528   6.860  11.541
66579W        W33120  19.049  16.570   2.218
66580W        W33121   7.909  41.414   2.692
66581W        W33122   3.705  30.478   2.782
66582W        W33123  13.142  19.268   4.412
66583W        W33124   0.818  22.592  10.556
66584W        W33125  15.836  40.910   1.390
66585W        W33126  44.451  37.081   1.756
66586W        W33127  18.050   1.796  14.483
66587W        W33128  12.383  23.518  14.531
66588W        W33129   4.349  40.137  14.916
66589W        W33130  11.951  11.706  13.056
66590W        W33131  34.425  30.103  14.523
66591W        W33132  34.189  11.302  10.596
66592W        W33133   0.067  10.819  12.985
66593W        W33134  28.671  30.956  11.133
66594W        W33135  35.422  41.526  11.344
66595W        W33136  13.418   3.492   3.990
66596W        W33137  38.380  42.938   2.625
66597W        W33138  31.432   3.179  14.987
66598W        W33139  42.070   4.774   3.265
66599W        W33140  33.523  16.940   4.584
66600W        W33141  26.791  37.763  14.808
66601W        W33142   3.559   1.965  11.389
66602W        W33143   5.698  28.424  12.607
66603W        W33144  19.537  14.247   1.448
66604W        W33145  30.612  10.563  12.011
66605W        W33146  21.694  24.916  12.088
66606W        W33147  13.377  19.846  14.081
66607W        W33148   9.372  36.619   1.733
66608W        W33149  28.565  14.850  11.564
66609W        W33150  21.764  28.215  14.716
66610W        W33151  19.597  17.151  12.714
66611W        W33152  41.332  15.143  14.198
66612W        W33153  20.941  19.534  13.392
66613W        W33154  10.699  31.657   4.828
66614W        W33155   2.773  23.717  11.931
66615W        W33156  24.202  14.328   1.277
66616W        W33157  10.125  35.958   0.969
66617W        W33158   3.058   8.483  10.243
66618W        W33159  36.542  24.687  14.957
66619W        W33160  20.575   0.886  12.142
66620W        W33161  13.773  21.004   5.068
66621W        W33162   1.251  20.122   2.205
66622W        W33163  41.450   8.459  14.001
66623W        W33164   8.753  24.409  11.645
66624W        W33165  35.211  40.413  13.820
66625W        W33166   4.392   7.167  14.226
66626W        W33167  16.837   6.308  13.107
66627W        W33168  22.106  40.879  12.256
66628W        W33169  33.350   2.568   1.803
66629W        W33170  33.358  16.934  11.278
66630W        W33171  35.505  22.991   2.270
66631W        W33172   9.404   7.013   0.408
66632W        W33173  35.369  22.217  14.245
66633W        W33174  27.167   0.944  11.975
66634W        W33175  19.644  34.158  11.122
66635W        W33176  43.876  10.312   0.370
66636W        W33177  16.641   9.717  11.929
66637W        W33178  41.351  31.192   2.448
66638W        W33179  34.543  38.410  11.580
66639W        W33180   1.293   1.555  14.974
66640W        W33181  41.256  33.527  11.529
66641W        W33182  38.638  29.461  12.177
66642W        W33183  44.929  11.406   2.630
66643W        W33184   1.024  14.864  11.416
66644W        W33185  40.074  18.425   3.670
66645W        W33186  10.149  37.887  13.441
66646W        W33187   5.512  33.037  10.546
66647W        W33188  28.653  18.174   1.725
66648W        W33189  18.188  36.420  12.118
66649W        W33190  35.386  38.017  10.676
66650W        W33191  20.299  11.570   1.933
66651W        W33192  15.177  14.533   3.607
66652W        W33193  42.630   9.940   1.349
66653W        W33194  35.832  38.466   0.936
66654W        W33195  11.020  35.133  12.008
66655W        W33196  19.522   4.751   4.636
66656W        W33197  21.575   5.835  12.169
66657W        W33198  28.804  35.596   2.933
66658W        W33199  20.701  16.792  12.374
66659W        W33200  37.474  40.366  11.004
66660W        W33201  34.982   6.327  14.816
66661W        W33202  28.862  36.445  11.530
66662W        W33203  21.368  21.591   3.761
66663W        W33204   6.815   4.244   1.396
66664W        W33205  36.001   2.268   1.282
66665W        W33206  42.418   5.519  14.535
66666W        W33207  16.739  26.205   2.119
66667W        W33208  23.735   2.350   1.357
66668W        W33209  39.709  28.698   2.837
66669W        W33210  28.003  25.583  14.727
66670W        W33211  15.646   0.988   1.248
66671W        W33212  41.335  30.792   4.948
66672W        W33213  43.367  34.249   3.558
66673W        W33214  21.728  36.104   0.132
66674W        W33215  36.492  39.298  13.028
66675W        W33216  19.292  21.153   0.022
66676W        W33217  19.524   7.683   1.786
66677W        W33218  41.458   4.236   3.757
66678W        W33219  39.039  10.147   4.928
66679W        W33220  18.478  17.326  13.992
66680W        W33221  17.546  42.943  13.750
66681W        W33222  23.185  17.276   3.344
66682W        W33223  34.426  21.881  11.628
66683W        W33224  37.959  37.870   2.856
66684W        W33225  42.397  24.296   4.148
66685W        W33226  15.035  31.200  11.911
66686W        W33227  40.031  16.709  14.052
66687W        W33228  37.805  43.570  12.643
66688W        W33229  20.876  32.289  14.727
66689W        W33230  25.500  27.581   1.789
66690W        W33231  25.553  44.863   0.225
66691W        W33232  19.663  15.245   2.789
66692W        W33233  16.682  44.222  12.672
66693W        W33234  33.137  23.346  14.456
66694W        W33235  22.201  40.548  13.362
66695W        W33236  41.350  11.296   1.305
66696W        W33237  40.684  25.233   1.753
66697W        W33238  37.967   1.062   1.804
66698W        W33239  14.379  24.541  11.153
66699W        W33240  24.571  39.075   4.853
66700W        W33241  16.307  42.772   1.467
66701W        W33242  23.203  34.120  12.934
66702W        W33243  31.375  15.647   0.939
66703W        W33244  36.476  28.614   0.917
66704W        W33245   7.758   9.730  14.615
66705W        W33246  42.334   4.957  10.772
66706W        W33247  16.763  38.006  14.268
66707W        W33248  30.193  27.298   0.914
66708W        W33249  33.291  31.406   4.171
66709W        W33250  21.418   9.730   4.040
66710W        W33251  34.139  20.028   0.354
66711W        W33252  40.245  13.581  14.424
66712W        W33253  25.897  23.436   4.549
66713W        W33254  36.986  10.755  11.163
66714W        W33255  25.687   1.583  11.096
66715W        W33256  27.218  32.147   3.166
66716W        W33257  30.370  34.017  10.602
66717W        W33258  17.018  12.271  14.786
66718W        W33259  13.742  18.491   2.945
66719W        W33260  31.401  17.841   4.860
66720W        W33261  39.276  12.309   2.802
66721W        W33262  41.873   3.785   2.262
66722W        W33263   9.650  15.392  10.548
66723W        W33264  22.456   3.745  14.847
66724W        W33265  41.953  23.764   2.212
66725W        W33266   4.188  25.598   1.868
66726W        W33267  30.579  38.027   3.909
66727W        W33268  14.325  28.361  13.032
66728W        W33269  35.620   1.474  13.545
66729W        W33270  15.985   2.731   3.187
66730W        W33271   9.911  13.438  13.442
66731W        W33272  16.822   4.743  13.366
66732W        W33273  27.092  36.674  13.548
66733W        W33274  33.318  26.916  14.894
66734W        W33275  41.843  35.601   3.210
66735W        W33276  28.920  28.582  10.717
66736W        W33277  24.077  27.028  13.307
66737W        W33278  11.335  11.842  12.215
66738W        W33279  20.743  34.095   4.971
66739W        W33280  18.129   5.698  13.907
66740W        W33281  41.561  30.860   1.534
66741W        W33282  38.880  18.551   0.268
66742W        W33283  14.116  17.449  14.950
66743W        W33284  31.205  36.140   1.152
66744W        W33285  11.595  40.971  10.121
66745W        W33286  30.929  25.239  14.272
66746W        W33287  26.759  25.356   0.439
66747W        W33288  19.670  31.086   2.357
66748W        W33289  27.444  38.667  10.724
66749W        W33290  23.181  25.222   1.627
66750W        W33291   0.771   7.871  10.578
66751W        W33292  36.048   9.413   0.723
66752W        W33293  31.071   3.215  12.543
66753W        W33294  11.126  23.663   3.702
66754W        W33295  29.877  26.577   2.422
66755W        W33296  23.937  14.761   1.318
66756W        W33297  26.109   4.919  11.633
66757W        W33298  36.952  28.733   1.732
66758W        W33299   6.690  14.496   1.820
66759W        W33300  33.480   6.181  11.178
66760W        W33301  12.096   3.855   3.603
66761W        W33302   7.318  18.728   2.739
66762W        W33303  42.437  22.686  13.560
66763W        W33304  41.058   2.816   4.255
66764W        W33305  23.188  31.188   3.702
66765W        W33306  10.175  44.244  11.994
66766W        W33307  27.024   2.899   2.933
66767W        W33308  21.970  10.339  11.833
66768W        W33309  15.479   2.703   1.241
66769W        W33310  32.617  31.131  14.949
66770W        W33311  11.809  42.562   3.552
66771W        W33312  32.962   8.938  12.895
66772W        W33313  30.664  29.609   2.760
66773W        W33314  32.405   7.663  14.352
66774W        W33315  26.373  25.924   4.062
66775W        W33316  18.775   5.703   1.350
66776W        W33317   3.383  16.719   0.821
66777W        W33318  38.735  40.282   4.900
66778W        W33319  36.045  14.990   3.248
66779W        W33320  12.809  17.230   1.662
66780W        W33321  30.570  15.118   4.012
66781W        W33322  34.986   9.212   3.227
66782W        W33323  30.193  19.260  11.474
66783W        W33324  37.915  39.129   4.504
66784W        W33325  29.620   8.947  14.187
66785W        W33326  42.484  33.994   3.665
66786W        W33327  23.757   5.910   2.365
66787W        W33328  17.474  41.621   1.435
66788W        W33329  39.518  41.750  13.358
66789W        W33330  27.373  37.792  10.548
66790W        W33331  21.169  11.138  13.063
66791W        W33332   3.156  11.120   1.192
66792W        W33333  26.425  32.514  14.852
66793W        W33334  32.072  34.931  13.454
66794W        W33335  25.652   0.221   3.409
66795W        W33336  24.738  13.303   3.177
66796W        W33337   5.375  15.515   0.475
66797W        W33338   7.297  17.452   4.903
66798W        W33339   2.706  29.387   4.347
66799W        W33340  26.755   5.850   1.454
66800W        W33341  30.613  22.083  10.996
66801W        W33342   6.245  44.811  12.866
66802W        W33343  24.329  41.118  11.651
66803W        W33344  37.846  31.934  12.406
66804W        W33345   3.831   8.440   4.086
66805W        W33346  18.623   1.518   2.603
66806W        W33347  22.070   8.883  14.812
66807W        W33348  34.954  43.397  11.723
66808W        W33349  31.753  19.612  10.445
66809W        W33350  24.605  20.238  12.548
66810W        W33351   9.323  35.804  11.669
66811W        W33352   5.293  39.088   0.225
66812W        W33353  15.258  16.169   3.206
66813W        W33354  30.528  22.131  12.449
66814W        W33355  28.968  10.369  14.910
66815W        W33356  27.762  29.705   1.488
66816W        W33357  44.848  36.779   4.357
66817W        W33358  34.489  42.482   3.818
66818W        W33359  36.850  18.112   0.309
66819W        W33360   8.313  21.783   4.571
66820W        W33361  24.229  16.852  10.419
66821W        W33362  28.753  29.804  12.805
66822W        W33363  31.880   2.200   0.836
66823W        W33364  11.814  30.894  11.966
66824W        W33365  39.447  10.923   3.286
66825W        W33366   9.746   5.752   0.023
66826W        W33367   4.839  10.851   2.968
66827W        W33368  26.023   7.758  12.116
66828W        W33369  14.019  30.849   1.260
66829W        W33370  19.144   3.548   0.244
66830W        W33371  20.686   8.820   0.483
66831W        W33372  40.320  17.558   0.629
66832W        W33373  43.998  17.100   0.493
66833W        W33374   1.517   4.784  13.350
66834W        W33375  12.151  18.992   1.820
66835W        W33376  28.093   9.428   0.515
66836W        W33377  30.245  17.610  14.567
66837W        W33378  24.735  19.507   1.751
66838W        W33379  25.817  14.394  14.989
66839W        W33380   9.133  37.475   3.344
66840W        W33381  34.490  40.031  14.464
66841W        W33382  42.207  27.120   2.744
66842W        W33383  30.410  34.891   3.248
66843W        W33384   0.844  18.996   2.356
66844W        W33385  36.362  22.679  11.677
66845W        W33386  19.308  26.019   2.494
66846W        W33387  24.845  29.999   3.574
66847W        W33388  22.793  40.893  11.103
66848W        W33389  28.839   9.161  12.007
66849W        W33390  31.748  37.276  11.184
66850W        W33391  38.158   3.260  10.063
66851W        W33392  38.571  33.945  14.681
66852W        W33393  28.147  43.399   1.005
66853W        W33394  30.166  16.302   1.212
66854W        W33395  26.521  28.466   2.182
66855W        W33396  32.857   7.267  10.507
66856W        W33397  38.225  42.982   4.298
66857W        W33398  15.093  15.367  12.843
66858W        W33399  36.590  29.384  13.383
66859W        W33400   8.301  40.344  12.579
66860W        W33401   3.685  31.122   1.275
66861W        W33402  19.221  11.285  10.959
66862W        W33403  41.508   7.119  12.072
66863W        W33404   5.857  40.719   4.557
66864W        W33405  34.988   2.567   2.573
66865W        W33406  11.729  19.217  13.486
66866W        W33407  25.503  14.286   1.669
66867W        W33408   2.852  42.068   1.593
66868W        W33409  15.780   4.925  13.497
66869W        W33410  39.499   2.831  12.319
66870W        W33411  27.402   4.689  14.880
66871W        W33412  24.504  41.677  13.269
66872W        W33413   8.759  40.828   2.400
66873W        W33414  42.449  38.826   1.861
66874W        W33415  19.843  27.451   2.778
66875W        W33416  35.417   0.739  14.850
66876W        W33417  20.093  29.126  14.000
66877W        W33418  31.928  29.537   1.270
66878W        W33419  21.819  43.411  14.827
66879W        W33420   4.730  41.081  10.744
66880W        W33421  44.419   6.711   3.280
66881W        W33422   4.855  34.570  14.878
66882W        W33423  42.510  32.858  14.784
66883W        W33424  32.626  41.609  13.815
66884W        W33425  32.701  13.885   1.800
66885W        W33426  28.595   6.244   3.294
66886W        W33427   4.422  23.078  12.632
66887W        W33428   2.283   7.633  14.082
66888W        W33429  19.777   3.440  11.091
66889W        W33430   0.932  24.112   4.160
66890W        W33431  15.576   1.091  11.157
66891W        W33432  15.243  44.580  12.571
66892W        W33433  15.577   8.689  12.975
66893W        W33434   6.958  12.497   4.266
66894W        W33435   3.633  17.274  14.297
66895W        W33436   1.459  18.264  10.476
66896W        W33437  36.881  17.241  14.296
66897W        W33438   8.331  28.168   4.432
66898W        W33439  16.956  33.450  12.079
66899W        W33440  17.068  32.478   3.353
66900W        W33441  24.083  24.057  14.960
66901W        W33442  43.398   2.373   3.758
66902W        W33443   9.894  33.077   4.128
66903W        W33444  18.878  18.871   1.471
66904W        W33445  37.648  14.840  13.172
66905W        W33446  38.417   4.794  10.503
66906W        W33447  11.706   9.640  10.647
66907W        W33448  18.122  42.533   2.716
66908W        W33449  16.998  38.451  11.539
66909W        W33450  33.569   8.652  10.507
66910W        W33451  26.182  19.146   0.241
66911W        W33452   3.504  39.480  11.028
66912W        W33453  40.497  13.730   4.045
66913W        W33454  15.145   7.293  12.722
66914W        W33455  34.595  29.068  13.475
66915W        W33456  22.437   0.009  11.524
66916W        W33457  12.166  34.409  11.075
66917W        W33458  32.043   5.188   3.696
66918W        W33459  26.268  16.155   1.912
66919W        W33460   4.402  42.506   0.354
66920W        W33461  37.885  39.008   0.869
66921W        W33462  22.437  17.652   2.339
66922W        W33463  40.584  30.291   5.073
66923W        W33464   5.308  43.406  14.723
66924W        W33465   2.368  22.389   4.067
66925W        W33466  10.167   2.339   4.149
66926W        W33467  10.929  29.561   4.106
66927W        W33468  17.551  33.787  14.706
66928W        W33469  17.068  41.918  14.818
66929W        W33470   0.143  18.748   4.606
66930W        W33471  24.658  39.961   3.230
66931W        W33472   8.346  40.860   4.207
66932W        W33473  14.145  24.700   2.392
66933W        W33474  27.502  16.285  13.936
66934W        W33475   6.304   0.061   2.455
66935W        W33476   7.850  14.056   1.200
66936W        W33477   7.886  23.559   2.700
66937W        W33478  34.822  27.144  14.772
66938W        W33479  27.718   5.251   4.761
66939W        W33480  35.610   3.300  13.936
66940W        W33481  16.527  40.029   1.274
66941W        W33482  18.505  15.020  11.687
66942W        W33483  23.102  35.907   4.611
66943W        W33484  31.776  39.781   3.645
66944W        W33485   2.451  44.576  14.549
66945W        W33486  33.934   8.970  10.674
66946W        W33487  32.939   8.966  11.865
66947W        W33488  11.753  17.652  13.499
66948W        W33489  21.037  18.252  14.893
66949W        W33490   3.000  20.707  14.486
66950W        W33491  29.181  44.872  13.530
66951W        W33492  25.066  30.520  12.432
66952W        W33493  11.023  35.645   4.232
66953W        W33494  14.493  34.870   1.071
66954W        W33495  33.645  10.389   4.969
66955W        W33496   7.749   0.721   1.042
66956W        W33497  35.171  28.909   0.879
66957W        W33498  34.552   2.284   0.108
66958W        W33499  28.181  23.177   3.768
66959W        W33500  38.764  44.492   2.480
66960W        W33501   1.931  15.281  11.660
66961W        W33502  35.782   0.426  10.649
66962W        W33503  32.618  38.242  14.410
66963W        W33504  27.628   0.217  10.421
66964W        W33505  18.795  40.504   2.848
66965W        W33506   8.687  25.934   1.882
66966W        W33507   5.297  24.226   3.954
66967W        W33508  15.045  34.629  14.929
66968W        W33509  17.690  16.544  12.723
66969W        W33510   0.930  43.787   0.887
66970W        W33511  37.835  22.288   1.202
66971W        W33512  20.746   8.335  11.235
66972W        W33513  23.561  18.779  12.096
66973W        W33514  16.763  36.553  14.599
66974W        W33515  13.260  21.217   3.704
66975W        W33516   0.905   4.869   4.680
66976W        W33517  39.830  29.468   4.663
66977W        W33518  36.416  29.998   0.080
66978W        W33519  13.577  15.771   1.258
66979W        W33520  15.451  35.877   3.574
66980W        W33521  19.734  44.287  12.426
66981W        W33522  10.306   3.797  11.182
66982W        W33523  29.983  37.170  12.961
66983W        W33524   4.944  39.422  14.758
66984W        W33525  17.199  11.767  12.096
66985W        W33526  36.444  37.950   1.423
66986W        W33527   6.589   5.139  14.336
66987W        W33528  32.357   9.340  10.486
66988W        W33529  13.054  37.785  11.322
66989W        W33530  21.530  32.674   1.712
66990W        W33531  30.499  10.426  13.387
66991W        W33532  17.119   0.025  12.037
66992W        W33533  25.646  17.206  11.552
66993W        W33534  16.830  12.408  12.949
66994W        W33535  30.799  18.424  11.151
66995W        W33536  12.372  30.658  10.244
66996W        W33537  15.546  19.156  14.890
66997W        W33538   2.494   9.912   4.641
66998W        W33539  21.655   0.211  14.316
66999W        W33540  28.844  29.841   0.779
67000W        W33541  23.445   3.747   5.114
67001W        W33542   9.753  31.428  14.396
67002W        W33543  35.945   2.949   9.800
67003W        W33544  11.375  29.871   3.217
67004W        W33545  35.072   0.576   3.612
67005W        W33546  21.055   9.344  13.380
67006W        W33547  19.108  19.714   3.621
67007W        W33548   6.027  24.610  13.275
67008W        W33549  26.295  25.588   4.453
67009W        W33550  15.853  36.083   3.347
67010W        W33551  28.486  26.610   3.241
67011W        W33552  16.434  11.067   1.850
67012W        W33553  26.718  17.173  11.084
67013W        W33554   2.264  23.588  12.602
67014W        W33555  31.035  38.905   0.955
67015W        W33556   2.392  11.257   0.438
67016W        W33557   8.800   7.423   1.279
67017W        W33558  33.196   5.834   1.489
67018W        W33559  15.618  42.242   0.910
67019W        W33560  42.979   1.959  13.017
67020W        W33561  16.803   5.337  12.666
67021W        W33562  41.039  29.568  12.503
67022W        W33563  38.915  31.154  10.308
67023W        W33564  44.884  32.098   0.945
67024W        W33565   6.060  36.038   1.390
67025W        W33566  24.742  44.225   3.236
67026W        W33567  18.130  32.960  13.951
67027W        W33568   9.622   9.507   0.864
67028W        W33569  20.791  21.295   3.613
67029W        W33570   4.871  10.275  11.768
67030W        W33571  19.768   7.865   2.800
67031W        W33572  22.965  29.109   1.805
67032W        W33573  31.480  11.143   1.795
67033W        W33574  24.828  37.436  12.141
67034W        W33575  19.777   8.349   4.073
67035W        W33576   8.682  35.935   1.743
67036W        W33577   8.400  23.104   1.492
67037W        W33578  11.748  33.629   1.941
67038W        W33579  27.551  13.761  14.964
67039W        W33580  23.539  18.936  11.178
67040W        W33581  36.804  15.335   3.686
67041W        W33582  40.580   3.463   1.897
67042W        W33583  37.813  33.640   0.085
67043W        W33584  19.968  15.731  14.881
67044W        W33585  25.276  28.950   2.414
67045W        W33586  41.436  26.864  11.025
67046W        W33587  36.411   8.477  12.305
67047W        W33588   3.020  29.619  12.384
67048W        W33589  41.272  32.404  14.000
67049W        W33590  35.532  12.745   1.930
67050W        W33591  29.197  33.546   2.744
67051W        W33592  31.609   8.389  11.922
67052W        W33593  35.938  27.437  11.997
67053W        W33594   2.672  30.997   0.239
67054W        W33595   3.115   3.936   2.713
67055W        W33596   2.802  43.534  13.763
67056W        W33597  13.264  18.197  14.261
67057W        W33598   2.642  31.584   0.808
67058W        W33599  20.724  12.843   0.522
67059W        W33600  36.672  42.197  12.578
67060W        W33601  27.232   1.821  12.002
67061W        W33602  41.116  37.435   1.908
67062W        W33603  30.375   2.396   0.911
67063W        W33604  14.690  30.184  10.246
67064W        W33605  22.581  22.072  13.405
67065W        W33606  26.572  11.035   1.256
67066W        W33607  37.461   1.276   0.221
67067W        W33608  15.645  21.020  11.662
67068W        W33609  20.094  21.603  11.647
67069W        W33610   3.019  30.613   4.513
67070W        W33611   5.868  11.318  14.105
67071W        W33612  41.899  39.651   0.964
67072W        W33613  36.645  32.361  14.491
67073W        W33614  27.653   2.293  14.917
67074W        W33615  20.599  32.641  13.481
67075W        W33616   5.408  11.818  11.203
67076W        W33617  14.870  41.714   4.086
67077W        W33618  24.674  30.553   1.443
67078W        W33619  39.761  20.113  13.173
67079W        W33620  42.250  16.557   3.628
67080W        W33621  34.941  14.044   0.892
67081W        W33622  41.594  16.070  13.870
67082W        W33623   2.160  32.601  14.514
67083W        W33624  13.911  12.712  10.639
67084W        W33625  20.841  10.963   1.220
67085W        W33626  44.013  43.525  12.603
67086W        W33627   8.378  36.061  11.546
67087W        W33628  29.500  26.419  12.638
67088W        W33629   6.470  13.621   4.269
67089W        W33630  17.841  44.497  10.408
67090W        W33631  32.964   3.831   2.895
67091W        W33632  31.413  13.628   5.492
67092W        W33633  10.725  13.686   1.785
67093W        W33634   1.142  12.385  10.450
67094W        W33635  30.479  37.731  14.774
67095W        W33636  17.808  27.041   1.749
67096W        W33637  12.888  18.469  13.118
67097W        W33638  18.336   3.457   1.020
67098W        W33639  10.958  14.564  10.595
67099W        W33640  37.601   9.894  12.510
67100W        W33641  30.913  18.007  10.738
67101W        W33642  28.710  38.771   3.334
67102W        W33643   4.215  26.958  14.598
67103W        W33644  10.856  28.944  13.446
67104W        W33645   9.627   4.838   4.727
67105W        W33646  15.779  29.384   4.173
67106W        W33647   1.923  43.639   2.858
67107W        W33648  20.947  23.172  10.617
67108W        W33649  13.448  30.679  11.122
67109W        W33650  35.475  26.575  12.927
67110W        W33651  17.317   3.983   1.775
67111W        W33652  15.697  20.710   0.145
67112W        W33653  36.222  12.468   3.401
67113W        W33654  36.314  29.126   3.750
67114W        W33655  43.229   0.063  12.539
67115W        W33656  44.425  35.182  11.193
67116W        W33657  10.834  41.568   0.778
67117W        W33658  28.459  34.095  14.498
67118W        W33659  39.568  11.411   4.951
67119W        W33660   6.858  33.645  12.193
67120W        W33661  22.150  15.007  14.558
67121W        W33662  19.729  33.504  11.855
67122W        W33663  41.717  41.379  14.357
67123W        W33664   7.729  18.707   3.110
67124W        W33665  13.680  31.858  14.709
67125W        W33666  32.792  42.845   1.687
67126W        W33667  41.952  22.906   3.351
67127W        W33668  18.517  18.705   2.789
67128W        W33669   0.703  39.678   1.769
67129W        W33670   2.083  13.747  10.796
67130W        W33671  24.115   4.384   2.194
67131W        W33672  18.242  42.882   1.726
67132W        W33673  26.530   6.215  13.756
67133W        W33674  18.101  17.577   2.180
67134W        W33675  10.674  10.483   3.256
67135W        W33676   9.846   9.204   3.037
67136W        W33677  23.069  13.033   0.286
67137W        W33678  43.266  29.656   3.233
67138W        W33679   2.666   2.283   0.454
67139W        W33680  32.303  19.084  12.478
67140W        W33681  27.685  29.021   3.200
67141W        W33682  11.711  38.384  10.949
67142W        W33683  17.932  14.976  14.262
67143W        W33684  28.052  25.038  12.478
67144W        W33685  15.761  31.564   1.700
67145W        W33686  12.654  25.080  14.776
67146W        W33687  44.521   0.135   0.862
67147W        W33688  39.522  43.852   0.522
67148W        W33689  40.795  31.612   0.911
67149W        W33690   7.373   3.622   3.282
67150W        W33691  39.772  24.719   0.437
67151W        W33692   4.772  29.958  14.980
67152W        W33693   3.477  42.384   3.724
67153W        W33694  35.427   6.763   4.984
67154W        W33695   8.987  40.892  11.683
67155W        W33696  14.604  39.083  11.070
67156W        W33697  43.775  39.263   2.583
67157W        W33698  42.747  15.069   3.812
67158W        W33699   6.137   7.293  13.512
67159W        W33700  21.617  30.173  14.970
67160W        W33701   9.880  17.195   3.735
67161W        W33702  37.214  15.309   5.506
67162W        W33703   6.709  30.341  12.464
67163W        W33704  30.656  35.398   0.446
67164W        W33705  42.302  31.694   4.866
67165W        W33706  29.526  28.910   0.463
67166W        W33707  27.550  14.212   0.714
67167W        W33708  39.071  34.374  11.606
67168W        W33709  30.159  44.480   2.386
67169W        W33710   4.220  12.576   2.854
67170W        W33711  41.886  20.109  11.131
67171W        W33712  44.748  30.607   2.761
67172W        W33713  40.773  11.585  12.540
67173W        W33714   2.695  26.088   4.533
67174W        W33715   7.854   1.046   1.468
67175W        W33716  33.019  35.864  13.914
67176W        W33717   3.139  37.486  10.705
67177W        W33718  24.460  14.950  10.981
67178W        W33719  22.273  43.040   0.806
67179W        W33720   9.630  13.070  14.252
67180W        W33721   1.434  24.442  11.105
67181W        W33722   5.615  14.069  13.912
67182W        W33723  43.560  42.352  12.232
67183W        W33724   0.817  11.156  12.188
67184W        W33725  13.364  26.955   3.318
67185W        W33726  23.969  44.575   1.448
67186W        W33727  17.241  33.323   2.364
67187W        W33728  30.867   5.383   1.102
67188W        W33729  40.894  23.230   3.392
67189W        W33730  22.326  15.007  14.065
67190W        W33731  35.845   5.299   0.342
67191W        W33732   9.170  28.317  10.881
67192W        W33733  31.048  10.531   4.133
67193W        W33734  36.899  24.573   1.989
67194W        W33735  24.843   3.406  10.587
67195W        W33736  38.722  12.629   2.338
67196W        W33737   3.765  13.173  13.010
67197W        W33738  27.059  43.025   2.197
67198W        W33739  34.583   9.397  13.778
67199W        W33740  39.203   0.284   4.971
67200W        W33741  42.301  23.765   4.183
67201W        W33742  27.466   4.916   1.789
67202W        W33743  42.397   1.834   2.624
67203W        W33744  29.978  29.866  14.443
67204W        W33745  33.883   4.368   4.881
67205W        W33746  10.646  11.002   2.342
67206W        W33747  36.921  43.938  13.995
67207W        W33748  29.500  39.549  12.054
67208W        W33749  41.957  41.465  13.894
67209W        W33750  21.336   2.392  12.493
67210W        W33751   9.069  36.839   0.287
67211W        W33752  40.104  24.539   0.815
67212W        W33753  40.422  11.880  10.281
67213W        W33754  19.227  27.191  13.844
67214W        W33755  12.647  23.376   0.707
67215W        W33756  36.531   0.262   3.648
67216W        W33757  15.549   9.892   3.849
67217W        W33758  12.359   6.276  14.529
67218W        W33759  26.401  43.545  12.113
67219W        W33760   5.643  42.358   3.223
67220W        W33761   9.862  17.891   0.408
67221W        W33762  24.431   8.376  10.542
67222W        W33763  21.466  30.423  14.559
67223W        W33764  32.006  10.769  12.947
67224W        W33765  35.945  15.871   1.026
67225W        W33766  36.377  14.123  11.165
67226W        W33767  19.112  39.414  11.595
67227W        W33768  12.948  43.053   2.681
67228W        W33769   3.735  23.106   1.760
67229W        W33770  12.855  28.548  12.795
67230W        W33771  19.936  25.609  11.358
67231W        W33772  36.647  24.502  11.482
67232W        W33773  21.686  15.259  14.464
67233W        W33774   5.100  14.668   0.743
67234W        W33775  24.007  32.663   1.656
67235W        W33776  27.269   7.466  11.199
67236W        W33777  21.632  18.257   0.053
67237W        W33778  23.223  16.624  10.694
67238W        W33779  14.755  16.099   3.247
67239W        W33780  41.024  39.117  14.853
67240W        W33781  40.562  36.791   0.440
67241W        W33782  28.871  32.044  10.687
67242W        W33783  20.811   7.322  12.308
67243W        W33784   6.567  15.490   4.431
67244W        W33785  21.378  29.277   4.165
67245W        W33786  13.644  11.263   4.787
67246W        W33787  26.087  17.286   4.787
67247W        W33788  25.725   7.212   0.422
67248W        W33789  42.355  10.379  14.305
67249W        W33790  18.186   2.991  10.701
67250W        W33791  41.997  21.789  13.526
67251W        W33792  11.733  25.279   4.538
67252W        W33793  27.595  27.623   1.457
67253W        W33794  20.687   4.111  10.189
67254W        W33795  27.836  24.855  11.606
67255W        W33796  16.544  13.689  13.268
67256W        W33797  23.501  38.958  10.307
67257W        W33798  38.877  13.357  13.896
67258W        W33799  22.711   8.126   1.534
67259W        W33800  19.688  12.826  14.815
67260W        W33801  24.516  30.891   3.671
67261W        W33802   8.095  11.630  14.371
67262W        W33803  13.711  23.729  11.129
67263W        W33804  19.630   1.463   0.364
67264W        W33805  22.040  36.905  10.982
67265W        W33806  26.007   2.234  12.652
67266W        W33807  42.524  33.813  13.049
67267W        W33808  41.999   0.959   2.641
67268W        W33809  44.065  23.152  10.760
67269W        W33810  22.101  17.374  12.094
67270W        W33811  39.502  41.303  14.784
67271W        W33812   7.267  38.517  13.820
67272W        W33813  26.111  33.927  11.606
67273W        W33814   5.721  29.334   3.409
67274W        W33815  20.577  43.317  14.799
67275W        W33816  13.236   1.636   1.732
67276W        W33817   6.138  35.092   5.059
67277W        W33818  33.968  34.416  12.940
67278W        W33819  33.537  41.225  11.171
67279W        W33820  21.672  23.965  13.075
67280W        W33821  37.527  15.548   0.823
67281W        W33822   1.453   1.209   2.240
67282W        W33823  35.368  41.005   0.949
67283W        W33824  31.633  40.913   4.771
67284W        W33825  39.569  19.371   1.316
67285W        W33826  42.886  41.947  12.821
67286W        W33827  37.885  32.034  11.473
67287W        W33828  23.111  12.810   1.638
67288W        W33829  27.547  19.153   3.680
67289W        W33830  20.579  23.067  11.159
67290W        W33831  39.090  20.154  14.542
67291W        W33832  44.926  28.312  12.497
67292W        W33833  27.753  17.762  10.641
67293W        W33834  38.047  31.503   1.388
67294W        W33835  26.588  40.361   4.034
67295W        W33836  33.883  10.610  14.894
67296W        W33837  19.086  20.470  13.286
67297W        W33838   1.711   1.117   2.684
67298W        W33839  35.012   0.726  13.471
67299W        W33840  25.424  22.154  11.077
67300W        W33841  39.854  44.985  10.995
67301W        W33842  18.947  22.104  11.126
67302W        W33843  36.374  30.450   4.796
67303W        W33844   2.374   3.717   2.255
67304W        W33845  36.723   2.313   2.755
67305W        W33846  21.016  21.698  11.617
67306W        W33847  39.889  39.732  13.232
67307W        W33848  18.046  38.736  14.908
67308W        W33849  41.887  23.663   0.852
67309W        W33850  27.098  36.448   4.149
67310W        W33851  22.676  20.975  14.430
67311W        W33852  18.046  24.291  10.877
67312W        W33853  31.124  39.980   1.022
67313W        W33854  30.150  32.799  13.171
67314W        W33855  27.084   7.240  12.611
67315W        W33856  38.229  10.180  10.765
67316W        W33857  29.440  23.602  13.720
67317W        W33858  34.159   7.479   0.893
67318W        W33859  15.093   1.929  14.452
67319W        W33860  24.656  18.277   2.340
67320W        W33861  11.930  28.912  10.628
67321W        W33862  44.696  40.313   1.510
67322W        W33863  25.564  38.769  13.557
67323W        W33864  24.221  43.321   2.276
67324W        W33865  10.715  32.340  12.625
67325W        W33866  19.686   5.595  14.706
67326W        W33867  19.049  16.085  14.837
67327W        W33868   1.503   2.791   0.811
67328W        W33869  23.393  15.721   1.273
67329W        W33870   0.205   7.185   4.380
67330W        W33871  31.251  14.664   3.580
67331W        W33872  22.697  15.360  11.008
67332W        W33873  20.711  20.808   1.852
67333W        W33874  15.647  24.506   0.390
67334W        W33875  11.538  27.041  10.701
67335W        W33876  31.658  37.923   4.191
67336W        W33877   5.312  37.131  12.035
67337W        W33878  18.617  20.542  14.958
67338W        W33879  43.243  41.347   4.318
67339W        W33880   5.774  41.218  12.554
67340W        W33881  28.716  37.439   1.215
67341W        W33882  11.126  44.444   4.565
67342W        W33883  18.048  11.357   2.649
67343W        W33884  23.241   0.132  12.495
67344W        W33885  13.384  27.753   1.788
67345W        W33886  20.947  31.957   0.927
67346W        W33887  41.502  11.446   2.558
67347W        W33888  13.034  32.122   0.379
67348W        W33889   4.977   6.801   0.361
67349W        W33890  43.304   0.816   1.974
67350W        W33891   1.338  31.130   0.031
67351W        W33892  26.905  23.913  11.679
67352W        W33893  39.617  11.799  10.390
67353W        W33894  35.806  23.579   0.837
67354W        W33895   2.290  30.646   0.393
67355W        W33896  32.962  35.043  13.454
67356W        W33897   1.228  23.432   4.257
67357W        W33898  26.207   6.658   4.949
67358W        W33899  13.114  33.469   3.561
67359W        W33900  11.765   7.469  14.790
67360W        W33901   4.064  42.884   1.549
67361W        W33902  13.042  43.917   2.710
67362W        W33903  27.243  42.246  12.554
67363W        W33904  36.811   7.133  14.541
67364W        W33905  12.142  31.119  11.092
67365W        W33906   0.602   2.090  13.959
67366W        W33907  18.783  36.468  12.600
67367W        W33908  42.819   0.582   5.203
67368W        W33909   8.684  33.547   3.150
67369W        W33910  33.140  12.217  10.622
67370W        W33911  29.210   0.273   1.342
67371W        W33912  16.029  34.613   9.769
67372W        W33913  38.216  43.567  13.812
67373W        W33914  28.563  19.076   4.404
67374W        W33915  37.952  30.169  13.567
67375W        W33916  39.445  25.758  13.949
67376W        W33917  17.253   3.192   1.389
67377W        W33918  20.683  31.575  13.384
67378W        W33919  12.824   6.454   2.922
67379W        W33920  25.694   6.780   3.686
67380W        W33921  42.757  13.221   2.214
67381W        W33922   1.080  39.039  11.289
67382W        W33923  31.376  34.439  13.950
67383W        W33924  17.334  15.793  11.673
67384W        W33925  42.818   5.890   1.297
67385W        W33926  34.831  27.709  11.559
67386W        W33927  11.100  34.337  12.170
67387W        W33928  27.165   6.451  11.123
67388W        W33929   9.994  26.337   3.863
67389W        W33930  23.352  21.874  12.023
67390W        W33931   8.780   1.535  10.723
67391W        W33932   4.556  21.396  14.967
67392W        W33933  18.141  40.496   4.229
67393W        W33934  31.470  35.590   3.686
67394W        W33935  23.606  26.996   4.866
67395W        W33936  28.789   6.662   0.381
67396W        W33937  30.473  16.196   0.332
67397W        W33938  40.290  22.719   4.979
67398W        W33939   3.617  11.108   3.611
67399W        W33940  26.214  29.113  14.588
67400W        W33941  19.727  16.737   1.037
67401W        W33942   8.631   2.694   1.864
67402W        W33943   8.323  38.336   4.234
67403W        W33944  41.084  20.529   1.969
67404W        W33945  38.657  32.197  11.020
67405W        W33946  28.701  12.915   5.257
67406W        W33947   2.837  43.758  14.236
67407W        W33948  26.554  23.930   3.248
67408W        W33949  40.471  38.460   1.315
67409W        W33950  35.870   8.029   1.082
67410W        W33951  15.037  37.913  11.157
67411W        W33952  34.904  37.765   2.208
67412W        W33953  24.705  42.131  13.101
67413W        W33954  18.967  22.315   2.815
67414W        W33955  14.661  24.600   2.577
67415W        W33956  38.053   8.378  11.262
67416W        W33957  16.043   3.696  10.611
67417W        W33958  14.851  16.244  14.988
67418W        W33959  22.764  10.166  10.348
67419W        W33960  39.494   8.640  12.046
67420W        W33961  16.265   4.658  12.147
67421W        W33962  22.945  37.866  14.909
67422W        W33963   5.015  32.926  13.407
67423W        W33964  33.372  38.079   0.258
67424W        W33965  26.996  11.162  12.386
67425W        W33966  35.194   1.525  13.857
67426W        W33967  13.776  14.612   1.806
67427W        W33968  44.910  42.777   1.882
67428W        W33969   5.194  13.349   3.334
67429W        W33970  21.393   0.241   4.107
67430W        W33971   4.266  43.099   2.924
67431W        W33972  17.582  18.310   2.230
67432W        W33973  14.352   5.767  13.054
67433W        W33974   1.195  20.246  14.428
67434W        W33975   5.881   7.818   2.664
67435W        W33976  37.141  33.297   1.447
67436W        W33977   2.380  40.285  14.352
67437W        W33978  14.092  32.119  14.952
67438W        W33979  16.175  16.329   2.713
67439W        W33980  42.086  14.735  12.137
67440W        W33981  41.585  26.905   1.902
67441W        W33982  43.976  17.816   0.704
67442W        W33983  19.168  11.728  11.560
67443W        W33984   5.762  38.423   0.015
67444W        W33985   2.646  24.611   9.835
67445W        W33986   7.448  23.341  13.006
67446W        W33987  19.859   1.520  11.261
67447W        W33988  44.546  11.520  11.060
67448W        W33989  11.153  11.400   3.342
67449W        W33990  37.863   9.662   4.497
67450W        W33991  43.772  10.623  14.017
67451W        W33992  40.791  40.167  11.644
67452W        W33993   6.527  22.948  12.060
67453W        W33994  25.068  41.047   0.382
67454W        W33995  36.040  12.919  13.767
67455W        W33996  43.677   3.889   4.256
67456W        W33997  20.168  23.013   0.724
67457W        W33998   7.440   6.846   2.431
67458W        W33999  35.653  28.539   2.867
67459W        W34000  28.737  28.087   4.513
67460W        W34001  13.670  36.670   1.879
67461W        W34002   0.071  17.650  14.997
67462W        W34003  34.206   7.232  13.506
67463W        W34004  30.708  12.311  11.121
67464W        W34005   0.243  14.638   3.719
67465W        W34006   4.981  28.103   4.523
67466W        W34007   9.597  10.453   4.985
67467W        W34008  44.831  43.749  13.087
67468W        W34009  16.025  27.819   2.669
67469W        W34010  13.273  14.831  13.912
67470W        W34011   2.434  43.882  10.990
67471W        W34012   0.602  33.957   2.836
67472W        W34013  36.356  39.810  13.479
67473W        W34014   8.675  33.537  10.739
67474W        W34015  41.282  26.527   0.991
67475W        W34016  18.288  19.423  11.167
67476W        W34017  17.536  25.143  14.073
67477W        W34018  16.984  43.275  13.231
67478W        W34019  22.720  24.620  13.325
67479W        W34020  44.684  30.817  13.798
67480W        W34021  19.187   0.699   1.328
67481W        W34022  11.953   9.439  14.198
67482W        W34023  13.099  35.327   1.327
67483W        W34024  43.052  41.535  13.492
67484W        W34025  25.234   8.297   1.496
67485W        W34026  25.648  38.136   3.232
67486W        W34027  36.483  21.379   4.445
67487W        W34028  26.183  42.361   3.816
67488W        W34029  35.697  24.578  11.972
67489W        W34030  15.603  29.027   1.955
67490W        W34031   4.819   3.293   0.667
67491W        W34032  43.747  35.688   4.154
67492W        W34033   8.194  30.054   0.908
67493W        W34034  43.937  37.529   1.443
67494W        W34035  28.669  35.399   2.440
67495W        W34036  43.086  19.462  12.851
67496W        W34037  19.490  44.079  13.471
67497W        W34038   6.981  28.966  14.958
67498W        W34039  42.522   3.469  13.685
67499W        W34040   2.999  10.298   3.091
67500W        W34041  23.520  35.467  14.881
67501W        W34042  44.457  30.784   4.404
67502W        W34043  17.804  15.118  13.023
67503W        W34044  37.455  19.416   3.365
67504W        W34045  31.710   9.287   2.847
67505W        W34046  38.934  23.882   2.465
67506W        W34047  31.808   3.748   3.658
67507W        W34048  26.025   6.625  14.330
67508W        W34049   2.267  32.097  10.273
67509W        W34050  23.429  16.834   3.175
67510W        W34051  44.272  36.601  13.394
67511W        W34052  44.160  43.673   4.143
67512W        W34053  30.232  29.257  13.040
67513W        W34054  26.665  32.830   1.093
67514W        W34055  42.518  35.314  14.749
67515W        W34056  32.643  15.734  14.465
67516W        W34057   3.713  36.234   4.716
67517W        W34058  12.968  42.234  14.055
67518W        W34059  31.626   5.712   4.548
67519W        W34060  38.899  23.247  13.980
67520W        W34061   1.624   6.037   4.086
67521W        W34062  40.580  11.922  12.115
67522W        W34063   0.834  26.619   2.517
67523W        W34064  12.695  31.573  14.716
67524W        W34065  13.323  25.923  14.948
67525W        W34066  32.605  16.630  14.461
67526W        W34067  33.157  36.907   0.809
67527W        W34068  17.261  20.767   3.250
67528W        W34069  15.161  44.247   0.458
67529W        W34070  21.037   0.780  12.346
67530W        W34071  22.174   4.347   4.490
67531W        W34072   4.285  21.098  12.549
67532W        W34073  37.065  23.124   4.265
67533W        W34074  26.882   1.447   1.886
67534W        W34075  15.741  39.331   0.995
67535W        W34076  32.588  26.026   3.833
67536W        W34077  23.911  19.653  12.320
67537W        W34078  34.095   7.137  10.478
67538W        W34079  29.458  21.173  10.396
67539W        W34080   7.944  12.092   0.448
67540W        W34081  27.501   5.183  14.898
67541W        W34082  38.396  35.092   3.209
67542W        W34083  35.996  41.465   4.046
67543W        W34084  41.933  16.230   1.173
67544W        W34085  16.620   2.740   0.682
67545W        W34086  37.827  42.770  13.952
67546W        W34087  29.714  11.244   2.306
67547W        W34088   4.986  39.924  14.942
67548W        W34089  16.726   6.775   1.665
67549W        W34090  36.301  25.172   4.568
67550W        W34091   0.265  40.844  12.034
67551W        W34092  16.721   1.467  12.538
67552W        W34093  34.359  31.971  13.045
67553W        W34094  41.506   6.458   3.672
67554W        W34095  25.637  25.119   0.162
67555W        W34096  26.976  29.187   2.639
67556W        W34097  33.953   3.457   1.308
67557W        W34098  34.339  40.827   4.083
67558W        W34099  16.194  16.809  10.658
67559W        W34100  13.748   3.712   3.611
67560W        W34101  24.711  13.541  11.470
67561W        W34102  19.917  26.046  11.049
67562W        W34103   9.321  41.981   3.578
67563W        W34104   4.379  33.953   4.741
67564W        W34105  14.102   1.942   1.898
67565W        W34106  15.810   5.493   4.106
67566W        W34107  12.901   5.028  11.845
67567W        W34108  12.639  15.163   1.919
67568W        W34109  43.234  40.748   9.880
67569W        W34110  13.611   6.327   1.453
67570W        W34111  44.750  44.735  14.953
67571W        W34112  16.265  11.931   3.334
67572W        W34113  11.654  17.028  10.948
67573W        W34114  24.715  27.395   2.770
67574W        W34115  40.028  32.175   2.780
67575W        W34116   2.748  30.352   0.831
67576W        W34117   6.865  39.994   2.002
67577W        W34118  39.542  20.465  12.015
67578W        W34119  21.866  26.655   4.245
67579W        W34120   3.898  30.697   0.039
67580W        W34121   3.990  31.846   3.153
67581W        W34122  10.789   9.664   2.837
67582W        W34123  31.409  27.129  11.045
67583W        W34124  31.017  15.089   3.311
67584W        W34125  35.402  17.064  12.994
67585W        W34126   6.487  24.084  11.655
67586W        W34127  40.792  34.414   3.363
67587W        W34128  36.071   0.463   0.414
67588W        W34129  38.101  35.090   1.353
67589W        W34130   0.497   1.389   4.190
67590W        W34131  17.867  27.976   4.210
67591W        W34132  16.677   3.831   1.443
67592W        W34133  12.556  18.626   1.460
67593W        W34134  20.034  20.756  10.732
67594W        W34135  10.870  29.389  14.280
67595W        W34136  40.265  28.039   3.605
67596W        W34137  14.688  32.668   3.002
67597W        W34138  10.250   1.394  14.424
67598W        W34139  19.602  24.476  11.684
67599W        W34140  20.577   6.904   0.294
67600W        W34141  31.916  22.547   4.563
67601W        W34142  19.293  33.502   4.258
67602W        W34143  27.467  22.227  11.910
67603W        W34144  10.713   6.893   4.676
67604W        W34145  33.099  27.668   0.867
67605W        W34146  20.013  23.974  12.547
67606W        W34147   9.921  41.893  14.728
67607W        W34148  29.064   5.514  14.004
67608W        W34149  31.898   6.193  12.428
67609W        W34150  36.630  13.208   2.379
67610W        W34151  21.120   4.119   2.567
67611W        W34152  44.559  31.119   2.788
67612W        W34153  15.809  42.904  13.565
67613W        W34154  12.349  40.887  14.858
67614W        W34155  34.806  43.184   4.225
67615W        W34156  42.800  35.941   3.297
67616W        W34157  16.934  36.933   0.319
67617W        W34158  22.658  44.261  13.566
67618W        W34159  27.584  25.279  14.941
67619W        W34160  15.300  11.074   0.985
67620W        W34161  12.344  36.410   2.633
67621W        W34162  11.122   1.316  10.749
67622W        W34163   3.872  27.226  13.806
67623W        W34164  29.184  35.452   2.612
67624W        W34165  11.228  29.663   4.538
67625W        W34166  39.408  36.919  10.639
67626W        W34167  33.931   1.049   2.657
67627W        W34168  16.299   5.769   0.009
67628W        W34169  10.890  20.544   2.261
67629W        W34170   8.774  25.703  14.383
67630W        W34171  44.224   2.182  11.662
67631W        W34172  19.901   2.685   4.188
67632W        W34173   5.867  15.692  12.837
67633W        W34174   6.237   6.252   0.596
67634W        W34175  17.728  13.506  12.596
67635W        W34176   8.522  11.932   4.669
67636W        W34177   3.198  27.042   3.078
67637W        W34178   3.323   4.496  11.464
67638W        W34179  29.165  36.575  11.119
67639W        W34180  30.290  42.054  13.228
67640W        W34181   4.455  22.546  12.218
67641W        W34182  27.032  19.163  13.432
67642W        W34183  41.406   0.423   1.517
67643W        W34184  42.307   0.672   1.898
67644W        W34185   1.224   7.614   3.182
67645W        W34186  36.889  15.602   0.212
67646W        W34187   2.970  21.121  12.448
67647W        W34188  14.135   0.801   2.163
67648W        W34189   6.696  31.998  12.844
67649W        W34190  17.797  36.532   4.845
67650W        W34191   9.533  22.260   0.399
67651W        W34192  28.152  38.356  11.888
67652W        W34193   7.397  36.266  10.531
67653W        W34194  26.199   3.205  12.455
67654W        W34195   3.991  44.743   1.300
67655W        W34196   3.407  11.873  11.852
67656W        W34197  43.746  32.589  13.502
67657W        W34198  30.916  44.252   3.656
67658W        W34199  37.760   1.936  14.482
67659W        W34200  44.463  10.554   4.616
67660W        W34201   8.587  18.326   4.363
67661W        W34202   5.978   2.040   2.618
67662W        W34203  30.362  20.020   0.268
67663W        W34204  44.713   7.188  10.951
67664W        W34205   8.172  10.146  11.190
67665W        W34206  33.022  41.321  12.033
67666W        W34207   1.994  27.525   2.848
67667W        W34208  31.965   1.143   3.800
67668W        W34209   1.284  23.182  13.790
67669W        W34210  37.849  39.694  13.818
67670W        W34211  14.120  25.437   3.146
67671W        W34212  34.309   9.632  13.413
67672W        W34213  26.630   2.421   0.712
67673W        W34214   5.454  31.592   2.251
67674W        W34215  17.187  25.833  11.268
67675W        W34216  40.542  11.524   3.568
67676W        W34217  27.933   7.031  13.090
67677W        W34218  22.781  24.379   1.943
67678W        W34219  40.893  19.321   1.440
67679W        W34220  36.070   4.503   1.789
67680W        W34221  40.523  25.976   1.426
67681W        W34222   0.064  42.643   0.838
67682W        W34223   6.146  39.262   0.356
67683W        W34224   1.903   5.900   1.309
67684W        W34225  25.831  41.513   3.809
67685W        W34226  34.934  31.979   1.689
67686W        W34227  42.773   2.837   3.143
67687W        W34228  14.287  43.206   1.363
67688W        W34229   6.890  26.101   3.849
67689W        W34230  43.253  17.255   0.992
67690W        W34231   9.361  17.076  14.679
67691W        W34232  22.034  12.344  14.950
67692W        W34233  26.965   3.543   3.625
67693W        W34234  11.678  35.065   3.356
67694W        W34235   0.111  38.651   3.507
67695W        W34236  40.992  32.105   0.777
67696W        W34237  25.653  36.162  12.548
67697W        W34238   3.156  31.907   3.471
67698W        W34239  38.462  18.445  11.627
67699W        W34240  32.610   9.021  11.297
67700W        W34241  27.936  35.229   5.113
67701W        W34242  20.529   3.661   9.989
67702W        W34243  34.456   5.540  12.604
67703W        W34244  28.448  11.271   1.209
67704W        W34245  33.676  13.410   3.255
67705W        W34246  15.817   5.984  10.856
67706W        W34247  24.917  28.435   4.100
67707W        W34248   6.083  38.333   3.210
67708W        W34249  38.761  41.821   1.177
67709W        W34250   9.766  20.479   4.526
67710W        W34251   9.381   6.616   2.172
67711W        W34252  40.605  15.841   5.046
67712W        W34253   0.799  11.152   2.403
67713W        W34254  44.444  26.518   0.889
67714W        W34255  29.898  42.825   4.165
67715W        W34256  42.484  30.262   3.944
67716W        W34257   9.543  43.383   2.321
67717W        W34258   8.737  30.971   1.226
67718W        W34259  43.697   5.210   0.528
67719W        W34260  29.285  36.150  13.613
67720W        W34261  34.935  39.809   3.814
67721W        W34262  25.973  10.360  12.885
67722W        W34263  26.567  25.207   4.684
67723W        W34264   5.123  23.641   3.369
67724W        W34265   6.772  21.879   3.745
67725W        W34266  28.232  19.479   5.001
67726W        W34267  37.527  27.842   1.329
67727W        W34268  40.958  30.188  13.952
67728W        W34269  14.313  10.778   1.887
67729W        W34270   8.663  41.640  14.384
67730W        W34271  16.541  27.849   2.766
67731W        W34272  22.839  19.102   2.328
67732W        W34273  33.480   9.446   3.210
67733W        W34274  31.721  11.728   3.997
67734W        W34275   8.024  16.341  10.853
67735W        W34276  24.796  34.009   3.777
67736W        W34277  29.918  21.934   1.436
67737W        W34278  13.645  43.290  12.071
67738W        W34279  29.366   8.195  13.165
67739W        W34280  16.714  12.869   0.325
67740W        W34281  14.696  41.782   2.765
67741W        W34282  15.707   8.361   2.560
67742W        W34283   7.726  36.830   5.434
67743W        W34284  10.601  30.717   1.194
67744W        W34285  13.318  26.543   3.634
67745W        W34286  38.068  18.181  11.442
67746W        W34287  38.018  27.366  11.456
67747W        W34288  30.252  13.208  13.543
67748W        W34289  42.845   4.774   0.328
67749W        W34290   1.210  35.882  11.473
67750W        W34291  28.837  41.972   1.930
67751W        W34292   6.479  32.696  13.824
67752W        W34293   1.511  22.676   3.776
67753W        W34294  24.948  37.093   4.154
67754W        W34295  24.806  21.436  12.061
67755W        W34296   1.374   0.316   2.677
67756W        W34297  33.045  15.106   0.232
67757W        W34298  12.259  34.453   2.740
67758W        W34299   0.112   1.276  14.294
67759W        W34300  21.465   4.509  11.719
67760W        W34301  39.934  28.454  14.067
67761W        W34302  32.129  23.198   0.328
67762W        W34303  32.136   8.891  11.415
67763W        W34304  19.366  38.470  13.148
67764W        W34305   7.323  25.664  11.125
67765W        W34306   2.196  15.715  14.398
67766W        W34307  34.572  28.079  14.434
67767W        W34308  22.563   2.654  12.978
67768W        W34309   1.858  31.977  10.608
67769W        W34310   0.898  35.536  11.730
67770W        W34311  16.809  41.991  12.882
67771W        W34312  13.836  25.619  11.094
67772W        W34313  20.553   1.312  11.414
67773W        W34314   9.418  33.633  14.582
67774W        W34315  23.517  29.166  12.948
67775W        W34316   9.932  10.264   3.701
67776W        W34317  34.061  43.749   2.200
67777W        W34318  27.165   2.765  12.382
67778W        W34319   3.319  12.921   2.396
67779W        W34320  17.126  36.497  12.038
67780W        W34321  31.024  13.721   2.198
67781W        W34322   6.076   4.827   4.552
67782W        W34323   5.394  25.667   2.637
67783W        W34324   7.129  13.829  12.672
67784W        W34325   6.926  30.520   0.032
67785W        W34326  22.220   8.941  10.562
67786W        W34327  28.308  26.223  11.228
67787W        W34328  33.974  34.573   4.305
67788W        W34329  21.093  23.535   2.331
67789W        W34330   8.837  17.274  11.751
67790W        W34331   5.564   1.061  10.788
67791W        W34332  34.156  28.202   3.252
67792W        W34333  14.243  20.802  10.440
67793W        W34334  33.490  43.807   3.837
67794W        W34335  42.272   0.512  11.809
67795W        W34336  37.521  15.557   1.744
67796W        W34337  30.465  14.652  11.973
67797W        W34338  34.379  36.011  12.846
67798W        W34339  28.515  10.547  10.451
67799W        W34340   4.311  33.668  12.426
67800W        W34341   0.973  16.650   1.250
67801W        W34342  20.785   1.841  12.601
67802W        W34343  13.740  28.978  10.736
67803W        W34344   9.876   7.808   4.974
67804W        W34345  21.895   4.587   4.898
67805W        W34346  18.274  17.748   0.177
67806W        W34347  31.002   1.010  12.068
67807W        W34348  22.543   2.028   2.279
67808W        W34349  40.129   6.343   2.387
67809W        W34350  16.740   5.750   3.738
67810W        W34351  39.864  24.571  11.640
67811W        W34352  43.441  13.730   2.151
67812W        W34353  19.178  38.432  11.745
67813W        W34354  13.850  39.748  14.831
67814W        W34355   7.330  16.106   3.160
67815W        W34356  31.154  18.186   3.362
67816W        W34357  34.657  23.979  12.064
67817W        W34358  41.472  21.545   0.530
67818W        W34359  11.276   5.340  10.394
67819W        W34360  37.901  18.618   0.004
67820W        W34361  21.323  44.310  10.360
67821W        W34362  27.200  21.988  11.498
67822W        W34363  18.537  36.834  11.155
67823W        W34364  10.913  30.522  12.014
67824W        W34365  25.823   5.835   9.843
67825W        W34366  27.958  32.470  12.734
67826W        W34367  43.730   0.282   1.486
67827W        W34368  14.741  10.561   3.257
67828W        W34369   8.859  21.507  12.829
67829W        W34370  30.944   0.527   0.714
67830W        W34371  29.684  43.943  14.512
67831W        W34372  44.835  42.910  13.363
67832W        W34373  20.522  32.592  11.256
67833W        W34374  42.596  12.617  12.392
67834W        W34375  40.063  11.767   2.686
67835W        W34376   0.372  15.229   0.414
67836W        W34377   2.484  11.403   4.183
67837W        W34378  40.332  29.414   2.521
67838W        W34379  34.392   7.303  13.029
67839W        W34380  29.583  23.504   4.539
67840W        W34381   9.252   8.978   3.071
67841W        W34382  34.535  26.683   1.419
67842W        W34383  25.141  23.737   2.170
67843W        W34384  41.451   2.485  11.147
67844W        W34385   2.343  33.995   0.698
67845W        W34386  21.032  37.965   4.807
67846W        W34387  26.723  13.530   5.122
67847W        W34388   3.276  14.594  14.001
67848W        W34389  19.215  23.794   2.244
67849W        W34390  18.893  40.630  14.014
67850W        W34391  17.720  17.729   4.501
67851W        W34392  23.894  39.079   9.979
67852W        W34393  34.912  32.474  13.363
67853W        W34394  35.529  25.427  11.005
67854W        W34395   9.406  26.516  10.848
67855W        W34396  12.820  17.790  11.202
67856W        W34397  38.807  27.869   2.318
67857W        W34398  40.903  34.141  14.489
67858W        W34399  14.436  26.900  12.948
67859W        W34400  33.033   7.715   1.096
67860W        W34401  24.688   3.329   3.879
67861W        W34402  43.511  27.617  11.527
67862W        W34403  28.656  44.865  14.451
67863W        W34404   3.509  29.383  12.522
67864W        W34405  34.041  23.078  11.335
67865W        W34406   2.160  32.111  13.910
67866W        W34407  26.629  23.992   4.159
67867W        W34408  18.540  11.976  10.976
67868W        W34409  34.420  36.648   3.731
67869W        W34410  25.027  11.969   3.243
67870W        W34411  14.349  14.403  11.265
67871W        W34412   7.925  44.576  11.802
67872W        W34413   5.864  43.084   2.218
67873W        W34414  37.283  41.741  11.913
67874W        W34415  29.115  23.175   0.770
67875W        W34416   8.123  23.144   1.977
67876W        W34417   1.714  38.578   1.885
67877W        W34418   7.189  21.112  11.430
67878W        W34419  22.173  15.347   5.043
67879W        W34420  41.993  10.259  14.712
67880W        W34421  10.139   1.926  12.483
67881W        W34422  16.036   8.835   1.848
67882W        W34423  24.190  35.523   4.473
67883W        W34424   4.826   2.462   3.055
67884W        W34425  37.470  40.028   0.279
67885W        W34426  29.129  35.142  11.205
67886W        W34427   5.815  25.694   2.317
67887W        W34428   8.915  30.439  14.203
67888W        W34429  12.288   9.836  10.697
67889W        W34430  33.565  28.503  13.990
67890W        W34431  42.479  36.557  12.185
67891W        W34432  41.276  36.600  13.335
67892W        W34433  38.166  10.433   3.045
67893W        W34434  18.006   3.708   3.621
67894W        W34435  32.346  11.840  13.626
67895W        W34436   3.901   7.134  10.677
67896W        W34437  21.571   8.153   2.190
67897W        W34438   0.530  44.377   1.807
67898W        W34439   7.258  18.304  11.683
67899W        W34440  14.300  30.095   2.302
67900W        W34441  23.123  32.501   2.733
67901W        W34442  27.641  43.707   2.280
67902W        W34443  35.043  29.096   2.696
67903W        W34444  10.673  19.883   1.079
67904W        W34445   4.758  26.176   0.673
67905W        W34446   2.497  25.245  13.012
67906W        W34447  25.246  31.976   0.939
67907W        W34448  26.532  42.524   1.781
67908W        W34449  44.912  15.827   0.849
67909W        W34450  16.746  29.942   0.097
67910W        W34451  22.905  44.703   2.804
67911W        W34452  13.749  27.262   0.468
67912W        W34453  33.599  28.123   4.170
67913W        W34454  31.400  16.637  13.272
67914W        W34455   1.846  11.555  13.874
67915W        W34456  39.772  17.293  11.644
67916W        W34457  32.073  42.324   4.820
67917W        W34458  43.946   3.638   4.605
67918W        W34459   1.340  25.541  12.065
67919W        W34460  26.953  25.801   0.272
67920W        W34461   8.391  37.468  14.538
67921W        W34462  17.231  23.079   4.503
67922W        W34463  12.370   2.753   3.124
67923W        W34464  14.336  43.608  11.143
67924W        W34465  37.955  17.273   0.272
67925W        W34466   5.709   9.874  10.544
67926W        W34467  30.388  12.762  13.342
67927W        W34468  32.515  15.315   1.740
67928W        W34469  25.116  20.044  12.638
67929W        W34470   6.435  35.825   3.664
67930W        W34471  35.711  34.258   1.938
67931W        W34472  40.815  23.839   1.806
67932W        W34473  41.488   7.037   0.366
67933W        W34474   6.631  25.660  13.308
67934W        W34475  23.574   1.333   3.791
67935W        W34476   1.489  36.409   2.635
67936W        W34477  16.240   0.934  14.514
67937W        W34478  33.889  28.775   4.650
67938W        W34479  20.788  18.042   3.965
67939W        W34480  13.791  10.022   1.411
67940W        W34481   8.158   4.846   1.309
67941W        W34482  44.218  27.589   4.435
67942W        W34483  43.009  24.019   3.938
67943W        W34484  14.055  15.201  11.850
67944W        W34485  33.512  43.748   2.670
67945W        W34486  33.843  23.518  12.066
67946W        W34487  15.668  40.531   0.351
67947W        W34488   6.453   3.548  14.832
67948W        W34489  10.402  42.210   1.987
67949W        W34490   9.069  26.583   3.594
67950W        W34491  39.991  21.694  14.726
67951W        W34492  13.800  41.306   1.248
67952W        W34493  41.973   1.521   3.599
67953W        W34494   9.422  19.345   2.154
67954W        W34495   2.789  23.502   0.426
67955W        W34496  22.409  33.425  13.610
67956W        W34497  12.226  11.866  11.086
67957W        W34498  32.630  22.734  12.831
67958W        W34499  44.371  23.171  14.365
67959W        W34500  24.763  12.643  11.607
67960W        W34501  43.665  12.355  13.899
67961W        W34502   6.099  32.673  12.854
67962W        W34503  37.980   6.294   0.450
67963W        W34504   3.798  24.989   1.551
67964W        W34505  38.834  38.705  12.824
67965W        W34506  35.600  33.084   3.591
67966W        W34507   3.270  28.129  11.159
67967W        W34508  18.635  23.522   2.678
67968W        W34509  40.898  16.488   3.713
67969W        W34510   5.153  34.972  11.616
67970W        W34511   6.770   5.417   4.514
67971W        W34512  28.714  42.430   3.888
67972W        W34513  42.254  37.656  10.323
67973W        W34514  16.665   0.481  14.367
67974W        W34515  34.595  21.258   3.213
67975W        W34516  42.340  14.668   0.918
67976W        W34517  37.891  42.390   2.153
67977W        W34518  30.841  44.486  14.976
67978W        W34519   5.178   1.461   0.254
67979W        W34520  26.098   6.426   3.664
67980W        W34521  43.426  19.278  11.112
67981W        W34522  41.348  39.665  12.420
67982W        W34523  14.233  29.453  11.142
67983W        W34524  44.883   9.118   1.434
67984W        W34525  14.835  30.438   0.812
67985W        W34526  22.207  10.236  12.777
67986W        W34527  37.652  36.859   0.151
67987W        W34528  33.581  41.208   3.691
67988W        W34529  13.538  17.082   0.922
67989W        W34530  27.936   9.424   1.028
67990W        W34531  21.639  37.548   4.461
67991W        W34532   6.860  28.204  10.708
67992W        W34533  10.804   4.911  14.791
67993W        W34534  34.514  31.625  11.705
67994W        W34535   7.726  20.691   4.163
67995W        W34536  36.256  13.271   5.083
67996W        W34537  24.568  40.430  12.943
67997W        W34538  10.218  29.202  11.875
67998W        W34539  38.691   7.759   2.942
67999W        W34540  15.805  25.606  14.316
68000W        W34541  17.116   5.446  14.047
68001W        W34542  14.836  10.089  14.310
68002W        W34543   6.110   2.901   1.239
68003W        W34544   9.435  26.772   2.502
68004W        W34545  21.014  40.962  14.828
68005W        W34546   1.403  13.893  12.609
68006W        W34547   1.912  43.712  14.373
68007W        W34548   1.919  28.074   0.865
68008W        W34549   9.529  41.304   2.566
68009W        W34550   4.181   4.590   0.534
68010W        W34551  36.056   9.914   3.319
68011W        W34552  43.938  19.111  12.298
68012W        W34553  39.408  23.269   4.470
68013W        W34554  26.206  33.763  14.685
68014W        W34555  20.063   7.274  11.580
68015W        W34556  44.956  24.375  14.897
68016W        W34557  13.384  14.087  11.110
68017W        W34558  37.360  30.465  12.399
68018W        W34559  11.651   5.389   0.221
68019W        W34560  42.153  13.911   2.718
68020W        W34561  18.781  27.709  12.658
68021W        W34562  37.860  22.694   3.405
68022W        W34563  14.691   7.660   4.345
68023W        W34564  35.397  17.906  12.323
68024W        W34565  29.947  36.596   0.688
68025W        W34566  39.342  42.880  11.155
68026W        W34567  39.295  42.463  12.026
68027W        W34568  28.195  28.097  12.403
68028W        W34569  24.134  36.281  13.987
68029W        W34570  16.117  16.230   0.960
68030W        W34571  35.798   0.815  11.545
68031W        W34572  26.543   9.239   0.761
68032W        W34573  37.866  34.488   4.659
68033W        W34574   9.189  35.736   2.402
68034W        W34575  12.390  29.084  13.024
68035W        W34576  31.620  41.765  13.343
68036W        W34577  36.995  19.555   4.276
68037W        W34578  28.745   1.732   2.469
68038W        W34579  27.031  16.854  14.229
68039W        W34580  34.476  32.052   4.118
68040W        W34581  24.047  27.399  10.761
68041W        W34582  38.328  22.045   0.388
68042W        W34583  35.361   4.405   4.260
68043W        W34584   2.362  29.358   2.609
68044W        W34585  15.986   1.320  10.945
68045W        W34586  20.691  22.177   4.775
68046W        W34587  31.967  16.122  12.435
68047W        W34588  21.051  28.076   1.989
68048W        W34589  42.409  42.418  14.761
68049W        W34590  33.553   6.219   4.049
68050W        W34591  31.951  23.375   2.227
68051W        W34592  20.037   4.855   4.595
68052W        W34593  10.060  35.819   1.467
68053W        W34594  12.431  18.685  12.992
68054W        W34595  17.121  11.012  14.902
68055W        W34596  23.085  30.393  13.509
68056W        W34597  29.428   7.714   0.475
68057W        W34598   8.768  43.295  13.557
68058W        W34599  42.553  35.024   1.450
68059W        W34600  39.347   3.638   2.729
68060W        W34601  25.207  30.991  12.372
68061W        W34602  17.715  24.900   2.660
68062W        W34603  24.688  15.233   1.436
68063W        W34604  21.966   4.475   2.753
68064W        W34605   5.673  16.772   0.237
68065W        W34606  34.934  36.499  10.711
68066W        W34607  17.235  44.332   2.616
68067W        W34608  10.137  17.806  10.562
68068W        W34609  43.852  18.791   0.840
68069W        W34610  44.936  36.384  13.480
68070W        W34611  13.566   6.478  11.490
68071W        W34612  34.554   2.350  11.684
68072W        W34613  17.242   9.719   2.958
68073W        W34614  21.416  12.423  14.306
68074W        W34615  30.542  24.670  11.017
68075W        W34616  42.515  44.743  12.041
68076W        W34617   0.279   4.329  14.692
68077W        W34618   0.517  36.663   2.285
68078W        W34619   6.051   6.390  12.259
68079W        W34620   1.271  26.303  13.539
68080W        W34621  19.237  29.964  13.219
68081W        W34622  16.070  37.120   3.319
68082W        W34623   2.085  31.082  11.935
68083W        W34624  14.615  39.367   1.850
68084W        W34625  38.315  11.708  10.672
68085W        W34626  15.580  13.730  13.506
68086W        W34627  30.341  14.280   0.454
68087W        W34628  17.599   8.743   1.745
68088W        W34629  20.053  28.284   3.966
68089W        W34630  42.335  27.406  13.234
68090W        W34631   5.191  27.470  12.661
68091W        W34632  32.386  23.764   4.326
68092W        W34633  42.034   7.413   2.257
68093W        W34634  12.256  16.588   4.549
68094W        W34635  42.776   5.523  14.087
68095W        W34636  30.933   7.211  10.580
68096W        W34637  31.018   9.412  13.057
68097W        W34638   8.661   7.212  10.669
68098W        W34639  34.259  29.730   1.192
68099W        W34640   8.305  38.359   1.769
68100W        W34641  22.814  43.298  14.811
68101W        W34642  40.071   1.712   3.591
68102W        W34643  35.327  38.099   0.133
68103W        W34644  12.489  31.926   4.141
68104W        W34645  28.643  31.535  10.660
68105W        W34646  36.943   7.777   3.546
68106W        W34647  41.222  19.952   3.655
68107W        W34648   4.065   3.721  12.897
68108W        W34649  40.506  25.574  12.971
68109W        W34650  15.669  23.054   3.304
68110W        W34651   2.639  33.036  11.067
68111W        W34652  21.450  43.488   1.676
68112W        W34653  32.579  30.726   0.252
68113W        W34654  25.665  39.396  10.826
68114W        W34655  22.649  14.596  10.852
68115W        W34656  31.685  44.943  11.021
68116W        W34657  23.646  21.709   1.058
68117W        W34658  44.677   9.615  14.327
68118W        W34659   8.522  16.239   3.804
68119W        W34660  12.738  36.408  10.735
68120W        W34661  17.807  39.357   1.401
68121W        W34662  42.517   3.491   0.106
68122W        W34663   6.306   9.266   2.607
68123W        W34664   6.774  42.265  14.197
68124W        W34665  34.359  36.610   1.213
68125W        W34666   5.603   3.540  10.396
68126W        W34667  26.145  14.465   4.822
68127W        W34668   6.333   1.895   4.305
68128W        W34669  26.695  33.457   0.501
68129W        W34670  23.665  41.133   3.699
68130W        W34671  20.963  40.311  12.088
68131W        W34672  39.716  21.004  12.398
68132W        W34673  36.830  41.156   4.032
68133W        W34674  12.798  44.405   2.650
68134W        W34675   2.701  13.676  13.536
68135W        W34676  16.905  11.953   0.447
68136W        W34677  30.152  34.679  11.176
68137W        W34678  30.158  32.002  12.505
68138W        W34679  40.734  12.630  14.923
68139W        W34680  36.348  36.365   3.797
68140W        W34681   0.978  34.196  14.938
68141W        W34682  36.864  17.277   1.463
68142W        W34683  15.352  39.464  11.941
68143W        W34684  27.635  23.712   4.184
68144W        W34685  27.059  31.703  11.592
68145W        W34686  43.994  10.341  12.381
68146W        W34687   8.332  27.921  12.914
68147W        W34688  30.743   8.668  12.063
68148W        W34689  15.368  16.322  12.898
68149W        W34690  13.610   7.815  13.471
68150W        W34691   0.845  33.977  14.463
68151W        W34692  17.284  28.674  14.987
68152W        W34693   9.862   7.769   2.750
68153W        W34694   1.431  30.586   3.181
68154W        W34695  12.295   3.178   1.734
68155W        W34696  30.761   4.243   2.397
68156W        W34697  25.529  19.068  13.229
68157W        W34698   3.428  42.418  12.481
68158W        W34699   0.739  24.927   4.517
68159W        W34700  10.638  40.801  10.743
68160W        W34701  40.919   8.368   0.837
68161W        W34702  31.636   0.859   1.031
68162W        W34703  10.786  33.906  14.313
68163W        W34704  14.285  13.651   0.385
68164W        W34705  11.778  17.001  10.429
68165W        W34706  16.585  33.149  11.097
68166W        W34707   7.449  36.852  14.607
68167W        W34708  30.019   4.803  10.732
68168W        W34709   6.278  25.506   0.212
68169W        W34710  43.612  43.241  12.792
68170W        W34711  27.550  40.074  13.098
68171W        W34712  10.929  24.557   2.720
68172W        W34713  34.495  16.490   2.003
68173W        W34714  43.307  25.216  10.238
68174W        W34715   0.052  23.588  13.086
68175W        W34716  10.147  28.052   3.296
68176W        W34717   4.169   3.571   0.059
68177W        W34718  21.771  44.973  11.183
68178W        W34719  28.235   8.889   3.656
68179W        W34720  39.592  29.255   4.215
68180W        W34721  33.877  23.930  11.608
68181W        W34722  38.829  15.887   0.860
68182W        W34723  11.573   2.276   1.416
68183W        W34724  22.335  21.678   4.910
68184W        W34725  16.130   6.381  11.605
68185W        W34726   7.096   0.680   0.230
68186W        W34727   6.440  43.906  13.352
68187W        W34728   4.069  31.583  12.126
68188W        W34729  39.010  41.614   1.930
68189W        W34730  26.074  40.247   4.125
68190W        W34731  12.091  18.101   4.791
68191W        W34732  37.305   7.782   0.223
68192W        W34733  17.604   6.424   4.181
68193W        W34734   7.189   5.375   4.129
68194W        W34735   1.393  35.342   0.583
68195W        W34736  28.906  31.165  11.573
68196W        W34737  29.044  24.710  11.122
68197W        W34738  34.195  39.607   3.131
68198W        W34739  44.926  39.280  10.472
68199W        W34740   9.607  21.347  13.972
68200W        W34741  32.882  29.868   3.185
68201W        W34742  32.421  31.213   2.180
68202W        W34743  12.689  40.714   1.749
68203W        W34744  44.975  29.430   1.756
68204W        W34745  13.132  22.265  14.051
68205W        W34746  11.530  17.577   1.929
68206W        W34747   4.700   3.868  14.524
68207W        W34748  10.246  10.751   0.741
68208W        W34749   1.211  36.947   1.182
68209W        W34750  16.342   8.885   3.167
68210W        W34751  37.564   0.044  13.762
68211W        W34752  35.862  19.779   1.028
68212W        W34753  14.290  25.502  14.165
68213W        W34754  34.070  34.985  14.961
68214W        W34755   7.215   1.558  13.681
68215W        W34756  41.938  14.671  12.627
68216W        W34757  36.002   4.172  14.311
68217W        W34758  21.086  24.469  12.537
68218W        W34759  16.235  32.486  13.548
68219W        W34760  28.180  37.302   3.596
68220W        W34761  13.517   1.813   4.593
68221W        W34762   2.356   5.688  13.012
68222W        W34763  39.834  21.685   1.060
68223W        W34764   1.219   0.972   1.831
68224W        W34765  35.899  34.475  13.967
68225W        W34766  37.806   9.900  10.875
68226W        W34767  40.909  36.885  13.589
68227W        W34768  13.025  13.865   0.969
68228W        W34769  42.022   8.655   3.405
68229W        W34770  27.899  38.445  14.425
68230W        W34771   9.745  19.760   1.301
68231W        W34772  39.039   6.123  10.771
68232W        W34773  32.075   8.251   2.739
68233W        W34774  41.697  32.050   0.347
68234W        W34775  26.511  40.578   4.955
68235W        W34776  38.548  15.002  12.125
68236W        W34777  41.763  43.260  13.889
68237W        W34778  21.517  32.525  11.598
68238W        W34779  20.568   0.759  12.634
68239W        W34780  37.288   7.879  11.199
68240W        W34781  34.112  42.093  12.264
68241W        W34782  30.567  25.458   1.287
68242W        W34783   6.119  13.643   4.710
68243W        W34784  14.141  27.480   3.229
68244W        W34785   6.282  16.549  14.447
68245W        W34786   4.755  37.131  12.970
68246W        W34787  10.546  30.071  14.052
68247W        W34788   9.764   7.204   2.024
68248W        W34789  33.067  44.417   1.170
68249W        W34790  10.445  36.959   3.684
68250W        W34791  26.240   7.179   0.266
68251W        W34792  20.756  21.150  10.761
68252W        W34793  27.715   4.215   0.651
68253W        W34794  11.098  13.633  12.082
68254W        W34795  14.169  26.630   4.080
68255W        W34796  34.145   7.173   3.174
68256W        W34797  20.041  21.028   0.405
68257W        W34798   9.825  25.351  14.428
68258W        W34799  41.285  25.070  11.294
68259W        W34800   9.752  37.604  12.200
68260W        W34801  15.823  22.081  13.395
68261W        W34802  40.578  20.309   3.187
68262W        W34803  22.716   1.466   0.346
68263W        W34804  16.238  16.074   4.081
68264W        W34805  13.446   7.448  11.730
68265W        W34806  11.211  41.985  14.046
68266W        W34807   1.132  42.415   1.970
68267W        W34808   7.103   6.314   3.526
68268W        W34809  24.397  24.041   0.419
68269W        W34810   9.237  34.233   2.209
68270W        W34811  11.629  39.270   2.827
68271W        W34812  38.982  11.241  10.487
68272W        W34813  16.077   9.918   3.939
68273W        W34814  19.038   6.292   2.643
68274W        W34815  24.772   1.259  13.449
68275W        W34816   3.000  29.807   4.182
68276W        W34817  15.558  21.649   0.508
68277W        W34818  19.555   1.286   3.189
68278W        W34819  24.448  40.352   4.143
68279W        W34820  20.482  22.468  11.978
68280W        W34821  27.205  22.709  13.926
68281W        W34822  39.542  35.917  12.994
68282W        W34823  31.422  26.761   0.876
68283W        W34824   6.340  25.607   1.593
68284W        W34825  33.176  42.687  13.073
68285W        W34826   6.553  23.746   2.280
68286W        W34827  23.067  37.691  13.940
68287W        W34828  11.709  41.989   1.819
68288W        W34829  15.830  15.267   2.254
68289W        W34830  19.539   1.225   4.085
68290W        W34831  33.461  17.582   2.819
68291W        W34832  41.833  16.045   2.934
68292W        W34833  28.235  36.280  13.905
68293W        W34834   2.420  18.829   4.616
68294W        W34835  38.007  13.297   0.999
68295W        W34836   2.887  33.431   3.735
68296W        W34837  27.563  36.514  14.457
68297W        W34838  40.931  13.309   2.122
68298W        W34839  41.708  40.408  12.056
68299W        W34840  28.576  21.826   4.790
68300W        W34841  24.057   6.776   3.885
68301W        W34842  11.891  17.689  11.195
68302W        W34843   7.848  43.031   1.889
68303W        W34844  41.759  43.405  11.045
68304W        W34845  30.800  30.054  11.519
68305W        W34846   2.285  20.771   4.692
68306W        W34847  29.298  19.997  11.684
68307W        W34848  35.126   0.245   4.967
68308W        W34849  36.897  36.177  12.461
68309W        W34850   3.962   6.400   3.763
68310W        W34851  10.799  27.676   3.312
68311W        W34852  10.617  38.653  14.872
68312W        W34853  28.895  21.570   3.730
68313W        W34854   6.490  25.255   2.461
68314W        W34855  30.956  27.587  13.789
68315W        W34856   7.973  39.377  12.150
68316W        W34857  38.941  38.053  14.928
68317W        W34858   3.623  17.253  10.458
68318W        W34859  12.259  10.684  11.525
68319W        W34860   9.317  35.487   3.811
68320W        W34861  42.846   7.774  13.300
68321W        W34862  12.659  15.180   0.811
68322W        W34863  32.637   4.277  13.402
68323W        W34864   2.499  44.009   1.203
68324W        W34865  22.430  43.092  10.101
68325W        W34866  17.696   8.486  10.537
68326W        W34867  40.819  14.318   0.389
68327W        W34868  35.870  27.202   1.220
68328W        W34869   4.216   2.889   1.690
68329W        W34870  12.860  10.157  10.784
68330W        W34871  31.069  14.646  12.544
68331W        W34872  28.532  44.845  13.061
68332W        W34873  13.593  24.109  12.057
68333W        W34874  19.146  15.082   2.343
68334W        W34875  35.887  33.569   1.653
68335W        W34876  37.896  38.289   4.147
68336W        W34877  36.372  26.921   3.943
68337W        W34878  16.075  37.323  14.382
68338W        W34879  34.741  18.327  12.823
68339W        W34880  44.260  18.232   3.697
68340W        W34881  19.352  23.521   4.153
68341W        W34882  19.548  22.878   3.593
68342W        W34883  31.971   3.982  14.864
68343W        W34884  14.481  12.255  14.273
68344W        W34885   1.913  36.159   2.883
68345W        W34886  13.257  36.443   1.660
68346W        W34887  26.184   3.969   0.413
68347W        W34888  24.698  20.252   0.013
68348W        W34889  41.008   4.339   2.818
68349W        W34890  17.476  25.076  13.111
68350W        W34891   4.167  31.442   1.908
68351W        W34892  13.703  15.807  12.856
68352W        W34893   5.725  32.029   2.195
68353W        W34894  19.160  14.363  11.992
68354W        W34895   0.397  21.150   2.721
68355W        W34896   2.871  18.496  13.490
68356W        W34897  41.782  12.272  11.893
68357W        W34898   3.297   6.640   4.367
68358W        W34899  35.594  16.224  13.113
68359W        W34900   3.253  43.172   4.963
68360W        W34901  23.523   8.101  10.705
68361W        W34902  20.179  42.558  14.812
68362W        W34903  26.001  28.679   3.592
68363W        W34904  38.814  43.004  10.317
68364W        W34905  32.653  13.750  13.544
68365W        W34906  38.911   6.011   4.618
68366W        W34907  19.988  28.267   3.419
68367W        W34908  19.308  41.863  12.995
68368W        W34909   4.341  31.109   9.995
68369W        W34910  19.611  41.810  10.661
68370W        W34911  44.977   0.178   1.430
68371W        W34912  43.783  23.151   0.315
68372W        W34913  21.298  40.589  13.349
68373W        W34914  10.069  26.005   0.540
68374W        W34915  14.355  26.963  11.069
68375W        W34916  26.504  15.345   3.206
68376W        W34917  28.922  20.521   4.591
68377W        W34918  11.677  33.174   1.737
68378W        W34919  30.411   8.644   0.214
68379W        W34920  11.405  43.331  14.774
68380W        W34921   7.257  22.220   0.399
68381W        W34922  35.933  33.896   2.945
68382W        W34923  12.813   2.140  12.924
68383W        W34924   6.159  10.147  12.133
68384W        W34925  38.998  19.235  14.887
68385W        W34926   1.804  19.645  10.879
68386W        W34927   6.887  15.120  13.556
68387W        W34928   3.862   2.397  14.784
68388W        W34929  14.932  40.905   3.762
68389W        W34930  29.094  42.503  13.676
68390W        W34931  11.201  30.554   4.376
68391W        W34932   8.719  14.944   4.156
68392W        W34933  21.189   1.865  14.925
68393W        W34934  16.348  31.087  11.646
68394W        W34935  15.348  38.284   3.585
68395W        W34936  42.864  18.529   2.851
68396W        W34937  37.476  18.950  12.920
68397W        W34938  18.555  39.809  10.748
68398W        W34939  28.835  43.670  13.019
68399W        W34940  24.637  17.257  13.263
68400W        W34941  21.687   5.879  13.104
68401W        W34942   8.124   0.450  12.842
68402W        W34943   8.886  27.575  11.875
68403W        W34944  44.663  39.957   3.274
68404W        W34945  40.088  43.465   3.589
68405W        W34946  14.050   6.363   3.241
68406W        W34947  24.037  22.482  10.134
68407W        W34948  32.580  23.285   0.029
68408W        W34949  32.286  11.642   4.505
68409W        W34950  19.088  28.161  14.439
68410W        W34951  27.729  42.995  11.008
68411W        W34952  28.555  35.608   1.425
68412W        W34953  13.771   9.092   1.466
68413W        W34954  33.790  22.647  10.710
68414W        W34955  20.556  33.513  12.458
68415W        W34956   3.155  14.383  14.448
68416W        W34957   9.919  15.104   3.423
68417W        W34958  22.892  38.708  12.436
68418W        W34959  16.295  20.189  11.747
68419W        W34960  30.985  27.672   2.348
68420W        W34961  32.118  24.453   3.715
68421W        W34962  24.554   1.436   1.644
68422W        W34963   1.482   4.369   2.408
68423W        W34964   3.314  42.826  13.764
68424W        W34965  17.255   4.959  11.077
68425W        W34966  28.941  15.172  11.709
68426W        W34967  29.941   8.276   5.026
68427W        W34968   9.384   4.432  12.980
68428W        W34969   0.505  23.012  10.582
68429W        W34970  16.293   5.283  11.431
68430W        W34971  38.522  13.892   0.304
68431W        W34972  12.876  37.132   0.000
68432W        W34973  34.417   7.961  12.931
68433W        W34974  30.233  33.538   2.672
68434W        W34975  20.103  20.682   3.751
68435W        W34976   9.604  40.068   3.742
68436W        W34977  32.313  37.212   2.644
68437W        W34978  40.477  38.808   3.686
68438W        W34979  24.585   6.378  13.142
68439W        W34980  15.091  42.429   4.585
68440W        W34981  14.029   9.476   1.683
68441W        W34982   6.995  37.580   1.373
68442W        W34983   6.904   3.209   9.829
68443W        W34984   5.393  22.731   2.015
68444W        W34985  21.877  18.056   1.290
68445W        W34986  11.977   4.874  11.512
68446W        W34987  44.293  26.240   2.195
68447W        W34988  23.570  18.352  14.547
68448W        W34989  32.815  10.710   1.954
68449W        W34990  11.194   6.359   4.070
68450W        W34991  12.761   5.314   2.367
68451W        W34992  22.055   4.260  11.096
68452W        W34993  18.651  41.921   3.253
68453W        W34994  14.824   2.878  10.781
68454W        W34995   1.296  28.140  12.569
68455W        W34996   0.661   8.674   0.945
68456W        W34997  14.213  12.051   0.954
68457W        W34998   8.414   9.648   4.225
68458W        W34999  27.030  37.903   4.431
68459W        W35000   5.912  10.045   1.004
68460W        W35001  16.214   7.481   0.886
68461W        W35002  33.832  40.898   0.789
68462W        W35003  16.610  41.180   1.891
68463W        W35004  22.492  17.042  13.005
68464W        W35005  18.498  34.850   1.800
68465W        W35006  44.406  32.919  12.967
68466W        W35007  26.887  36.551   4.603
68467W        W35008  26.442  10.083   5.202
68468W        W35009   0.527  18.147  14.742
68469W        W35010  33.935  36.059   4.525
68470W        W35011  24.181   6.103   0.402
68471W        W35012  34.234  13.894   4.217
68472W        W35013  30.957   9.326   3.061
68473W        W35014   4.168  24.775  13.417
68474W        W35015   5.706  15.774   4.609
68475W        W35016  38.513  24.594  14.914
68476W        W35017  30.614   1.328   4.265
68477W        W35018  43.282  38.912  14.028
68478W        W35019  33.792  16.826  12.593
68479W        W35020  40.944  16.287   0.321
68480W        W35021   1.801  33.561   0.413
68481W        W35022   9.809  13.708  11.747
68482W        W35023  20.332  32.531   4.246
68483W        W35024  33.385  26.739  10.594
68484W        W35025  40.995  26.686   4.493
68485W        W35026  28.094  44.101   1.431
68486W        W35027  18.228   6.823   1.457
68487W        W35028   9.839   6.159   1.877
68488W        W35029  34.991  27.825   2.395
68489W        W35030   8.214  42.423  11.619
68490W        W35031  14.916  40.296   0.843
68491W        W35032  37.520  21.597  13.253
68492W        W35033  17.052  33.782  11.325
68493W        W35034   0.430  15.747   9.988
68494W        W35035  38.002  18.707   3.209
68495W        W35036  33.349   8.728  13.640
68496W        W35037  29.912   8.272   0.938
68497W        W35038  13.608   5.300   4.546
68498W        W35039  35.535  42.967  13.494
68499W        W35040  44.791   3.815  14.899
68500W        W35041   6.645  30.275   3.306
68501W        W35042  21.341  27.887  12.452
68502W        W35043   6.291   6.383   2.831
68503W        W35044   2.773  39.507  13.482
68504W        W35045   2.986  36.120  12.995
68505W        W35046  24.575  16.726   4.596
68506W        W35047  31.874   1.711  13.992
68507W        W35048   1.413   1.892  12.859
68508W        W35049  30.770   3.338   5.104
68509W        W35050  22.558  41.363  10.652
68510W        W35051   9.909  20.589  11.130
68511W        W35052  16.122  15.441  12.345
68512W        W35053  32.050  15.147   0.848
68513W        W35054  17.852  21.262  13.498
68514W        W35055  23.531  16.609  12.003
68515W        W35056  34.916   8.632  14.027
68516W        W35057   9.362  44.262  14.213
68517W        W35058   6.382   2.912  10.654
68518W        W35059  10.646  43.846  11.155
68519W        W35060  23.736  13.959  11.289
68520W        W35061  13.249  43.322  10.964
68521W        W35062  10.385   9.755   1.182
68522W        W35063   7.690  34.326   1.082
68523W        W35064  17.595  15.307  14.481
68524W        W35065  17.294  32.890   3.103
68525W        W35066  12.296  14.837  11.228
68526W        W35067  14.613  17.346   3.627
68527W        W35068  18.770  24.107   4.391
68528W        W35069  43.996   5.127   5.010
68529W        W35070  44.920   5.881  13.305
68530W        W35071  29.624  12.192   2.748
68531W        W35072  31.156  29.499   2.608
68532W        W35073  13.849  37.928  12.468
68533W        W35074  21.074   0.253   3.251
68534W        W35075  34.656  13.776   1.488
68535W        W35076  39.047  35.624   1.370
68536W        W35077   7.461  44.075  12.120
68537W        W35078  18.665  32.098  10.108
68538W        W35079  21.204  30.377  10.747
68539W        W35080  40.776   9.900   4.151
68540W        W35081  21.959  13.641  10.064
68541W        W35082  23.504  29.019   2.639
68542W        W35083   4.334  20.901   1.194
68543W        W35084  14.111  17.771   1.871
68544W        W35085   4.226  40.657  14.975
68545W        W35086   3.654  42.518   3.019
68546W        W35087  41.826  28.926  13.487
68547W        W35088  28.869  34.380   2.371
68548W        W35089   4.548   3.380  14.663
68549W        W35090  25.098   0.294   3.726
68550W        W35091  30.946   1.599   5.486
68551W        W35092   9.121  37.451   2.320
68552W        W35093  10.768  24.082   1.102
68553W        W35094   5.224  38.541   3.139
68554W        W35095   7.850  43.875  13.125
68555W        W35096  20.865  40.101  11.646
68556W        W35097   0.823   4.886   2.723
68557W        W35098  39.963  16.329   5.448
68558W        W35099  28.367  25.419   3.305
68559W        W35100  27.558  12.697   3.428
68560W        W35101   7.982  43.810  13.648
68561W        W35102   1.160   4.661  11.514
68562W        W35103  10.891  14.266  14.531
68563W        W35104  29.745   9.775  10.405
68564W        W35105  18.308  38.532   2.328
68565W        W35106  25.275  43.691   0.756
68566W        W35107  25.649   7.241  10.541
68567W        W35108  10.762  44.790   3.226
68568W        W35109  13.513  40.393   1.936
68569W        W35110   6.652  36.754   2.804
68570W        W35111  25.778  35.027   1.991
68571W        W35112  29.195   3.238   4.092
68572W        W35113  30.613  11.093  11.977
68573W        W35114  43.305  19.146  11.602
68574W        W35115  34.079  34.054   4.506
68575W        W35116  36.065  26.214  13.680
68576W        W35117   9.321  19.621   0.147
68577W        W35118  28.949  13.367   1.266
68578W        W35119  22.546  31.204   3.152
68579W        W35120  13.423  22.083   3.163
68580W        W35121  18.164  33.357   1.390
68581W        W35122   3.447   0.666  10.701
68582W        W35123  15.815  29.550   3.259
68583W        W35124  20.209  10.861  14.517
68584W        W35125   2.769  14.003  12.590
68585W        W35126  36.291  11.666   1.690
68586W        W35127   7.755  12.871   4.264
68587W        W35128  38.871  37.561  10.127
68588W        W35129  13.599  42.468   2.912
68589W        W35130  16.683  16.999   4.009
68590W        W35131  44.802  23.635  11.493
68591W        W35132  44.252  39.788   2.918
68592W        W35133  10.913  40.166  13.300
68593W        W35134  19.796  44.763  14.440
68594W        W35135  19.678   0.291  14.528
68595W        W35136  38.576   2.956   1.676
68596W        W35137  27.147  15.028   1.207
68597W        W35138  17.761  26.062  14.974
68598W        W35139  29.579  38.203  14.937
68599W        W35140  38.976  11.603  11.769
68600W        W35141   7.772  27.397  12.367
68601W        W35142  20.925  27.975  13.960
68602W        W35143  16.900   9.307   2.901
68603W        W35144   5.269  12.561  12.165
68604W        W35145  11.402  39.430  13.457
68605W        W35146  13.155  42.780  12.579
68606W        W35147  26.400  18.522  12.422
68607W        W35148   8.151  32.495  13.443
68608W        W35149  28.806  16.876  11.845
68609W        W35150  26.564  28.792   0.152
68610W        W35151  30.165   8.433   3.261
68611W        W35152  25.628  38.859  11.611
68612W        W35153   3.303  15.665  13.191
68613W        W35154  11.646  39.283  10.401
68614W        W35155   8.902  33.647  14.533
68615W        W35156   1.189  10.202  10.421
68616W        W35157   0.881   5.245   0.989
68617W        W35158  43.375  24.816   1.200
68618W        W35159  17.750  36.376  12.661
68619W        W35160   5.945  29.675   1.808
68620W        W35161  22.966  43.745   2.257
68621W        W35162  33.486   5.601  14.811
68622W        W35163   3.973  27.683   0.439
68623W        W35164   0.619   1.678   4.613
68624W        W35165  41.291   5.763  14.766
68625W        W35166   5.914   5.400  12.983
68626W        W35167  11.427  14.806  10.731
68627W        W35168  29.502  17.601  13.790
68628W        W35169  44.307  13.950   3.294
68629W        W35170   2.608   6.164   5.023
68630W        W35171  44.818  42.944   0.196
68631W        W35172  19.927  32.960  14.817
68632W        W35173  18.192   7.116   4.887
68633W        W35174  38.883   0.361  12.171
68634W        W35175  38.477   8.828   0.893
68635W        W35176  33.006  33.971  11.392
68636W        W35177   4.713  24.138  12.652
68637W        W35178  36.577   4.265  13.031
68638W        W35179  19.818  11.550  11.933
68639W        W35180  23.103   2.644  10.144
68640W        W35181  25.698  22.547   0.042
68641W        W35182  32.582   0.676   1.417
68642W        W35183   5.355  12.840   3.337
68643W        W35184  18.796  23.037   2.491
68644W        W35185  21.030  38.976  13.549
68645W        W35186  22.268   3.088   4.814
68646W        W35187  10.805  34.565   0.056
68647W        W35188   1.132  29.534   3.252
68648W        W35189  25.666   5.287  12.779
68649W        W35190  29.928  32.620   3.440
68650W        W35191  40.296   8.218   2.121
68651W        W35192  24.409   0.388  12.569
68652W        W35193  16.534   1.948   0.157
68653W        W35194  31.188  39.228   0.584
68654W        W35195   5.834  29.748   4.347
68655W        W35196  23.649  12.259  13.194
68656W        W35197  35.790  35.858  13.824
68657W        W35198  44.449  23.578  13.936
68658W        W35199  25.949  41.461   3.289
68659W        W35200  23.462  28.293  12.713
68660W        W35201   7.957   6.113  11.979
68661W        W35202   2.225  18.107  11.117
68662W        W35203  15.011  32.628   1.198
68663W        W35204  25.011  22.994   2.731
68664W        W35205  26.776  24.575  12.468
68665W        W35206   5.439   5.758   2.236
68666W        W35207  44.712  37.066   0.794
68667W        W35208  30.875  30.124  13.532
68668W        W35209  17.143  14.756   0.271
68669W        W35210  13.022  15.465   4.029
68670W        W35211  38.682  22.060   4.327
68671W        W35212  43.940  21.365   2.679
68672W        W35213  24.003  26.527   2.409
68673W        W35214   7.108   3.788  12.114
68674W        W35215  37.338  34.447   3.295
68675W        W35216   1.804  37.204   1.889
68676W        W35217  28.340   7.382  11.401
68677W        W35218  17.346  21.320  13.552
68678W        W35219  19.204  19.948   2.509
68679W        W35220  42.354  11.090   4.539
68680W        W35221   0.854  17.150  14.084
68681W        W35222  27.252  12.538   2.456
68682W        W35223  32.905   1.599  12.937
68683W        W35224  18.857  25.774   0.696
68684W        W35225   1.409  30.522   9.945
68685W        W35226  17.580  15.707   0.736
68686W        W35227  32.618   3.505  11.725
68687W        W35228  20.500  36.578  14.855
68688W        W35229  31.430  14.924   4.420
68689W        W35230   9.260  35.349   0.643
68690W        W35231  19.532  39.041  13.141
68691W        W35232  44.704  31.368   5.283
68692W        W35233   4.604  43.973  12.248
68693W        W35234  23.328  43.344   4.373
68694W        W35235  44.720  19.652   1.064
68695W        W35236  31.352   6.704  13.985
68696W        W35237  25.348  21.639   1.084
68697W        W35238  27.787   9.886  10.253
68698W        W35239  37.543  28.508   3.735
68699W        W35240  15.531  42.250  10.720
68700W        W35241   5.641  28.600   5.021
68701W        W35242  36.409   4.804  14.196
68702W        W35243  44.905  12.671   1.593
68703W        W35244  31.117  20.825  10.713
68704W        W35245  26.131   0.696   1.736
68705W        W35246  35.103  32.568   1.140
68706W        W35247  28.878  31.014  14.746
68707W        W35248   9.461  26.490  11.698
68708W        W35249  27.921  13.171  10.273
68709W        W35250   7.889   4.635   2.623
68710W        W35251  24.403   6.426  12.130
68711W        W35252  43.832   4.198   2.732
68712W        W35253  31.425  30.448  10.425
68713W        W35254  30.553  32.158  11.055
68714W        W35255  39.648  23.971  12.467
68715W        W35256  20.375  38.873   3.712
68716W        W35257  22.167  15.528  14.462
68717W        W35258  11.706   0.193  14.436
68718W        W35259  30.923   4.632   3.821
68719W        W35260  28.275  16.628  11.902
68720W        W35261  30.728  36.376   2.388
68721W        W35262  33.681  14.701  13.551
68722W        W35263  43.472  20.092   2.681
68723W        W35264   1.337  44.038   0.666
68724W        W35265  11.704  13.996  10.166
68725W        W35266   8.602  40.327  14.355
68726W        W35267  35.080  16.147   4.109
68727W        W35268   2.696   3.288   5.442
68728W        W35269  35.303   7.052   2.637
68729W        W35270  16.888  40.045  12.003
68730W        W35271  16.124   4.471   1.061
68731W        W35272   6.780  25.607   1.865
68732W        W35273  26.427  15.944   5.018
68733W        W35274  27.368  31.065   2.561
68734W        W35275  14.828  15.600   2.693
68735W        W35276  40.685  40.005  12.599
68736W        W35277  17.607   9.880   0.806
68737W        W35278  20.518  16.707  12.855
68738W        W35279  34.382  43.755   2.844
68739W        W35280  29.405  42.561   3.253
68740W        W35281  39.051  14.384  13.962
68741W        W35282  39.464   8.926   2.295
68742W        W35283  34.250  41.098  10.605
68743W        W35284  22.742  35.375   3.959
68744W        W35285  26.139  32.907  10.687
68745W        W35286  17.748  44.937   2.160
68746W        W35287  39.013  34.033   1.423
68747W        W35288  30.064  16.956   3.513
68748W        W35289  23.456  31.627  14.332
68749W        W35290  23.233  13.304  14.878
68750W        W35291   8.875  36.844   3.413
68751W        W35292  25.189   4.389   0.146
68752W        W35293  33.926  37.688  11.348
68753W        W35294  36.167   3.392  10.638
68754W        W35295  33.062  30.133  14.937
68755W        W35296  43.889   0.866   0.812
68756W        W35297   0.890  41.876   4.595
68757W        W35298  18.127  39.853   0.010
68758W        W35299   2.791  41.067   3.253
68759W        W35300  24.041  39.561  13.357
68760W        W35301  36.771  10.811  13.047
68761W        W35302   7.880  37.419  11.586
68762W        W35303  25.123  38.567  11.658
68763W        W35304   3.220  37.054  12.462
68764W        W35305  22.608  30.505   0.277
68765W        W35306  18.753  33.866   2.047
68766W        W35307  12.631   6.713  13.116
68767W        W35308   0.178   4.393   0.803
68768W        W35309  38.483  16.933   0.066
68769W        W35310  27.541  36.456  13.371
68770W        W35311  17.560  20.797   4.533
68771W        W35312  41.912  18.781  11.628
68772W        W35313  39.017  25.036  14.024
68773W        W35314   4.065  41.320  10.728
68774W        W35315  28.965  10.827  12.931
68775W        W35316  31.142   6.283  11.014
68776W        W35317  25.260  33.250   0.248
68777W        W35318  26.094  12.944   2.236
68778W        W35319  24.120  36.897   2.789
68779W        W35320  18.334   8.000   4.439
68780W        W35321  11.179  13.681  13.837
68781W        W35322   1.436  11.823  14.931
68782W        W35323  44.532  26.108   1.185
68783W        W35324  35.516  10.094   4.107
68784W        W35325   8.887  31.506  13.998
68785W        W35326   1.938  15.531  10.329
68786W        W35327  30.724  26.194   4.343
68787W        W35328   3.872  31.165   4.191
68788W        W35329  28.370  34.513   2.408
68789W        W35330  15.102   0.805  11.877
68790W        W35331  40.758  28.478   1.758
68791W        W35332  44.787   3.814   2.206
68792W        W35333   0.692  41.681   4.050
68793W        W35334  22.445  14.034   5.478
68794W        W35335  22.237  13.324  11.641
68795W        W35336  28.219  30.604   0.451
68796W        W35337  40.247  19.438  11.619
68797W        W35338  14.761  35.645  12.841
68798W        W35339  44.661   8.345   1.965
68799W        W35340   1.707  33.697  14.894
68800W        W35341   7.969   6.181   3.596
68801W        W35342  16.525  22.711  12.455
68802W        W35343  43.931  12.060   3.649
68803W        W35344   8.733   5.148  12.479
68804W        W35345  10.636  42.900  10.531
68805W        W35346  42.784  43.844   3.404
68806W        W35347  43.038  35.414  14.685
68807W        W35348  36.840   3.449   4.524
68808W        W35349  31.395  18.008  12.920
68809W        W35350  29.227   4.292  12.257
68810W        W35351   7.315   0.981   1.620
68811W        W35352  21.991  31.996   0.831
68812W        W35353  35.893  40.089  12.852
68813W        W35354  44.609  32.937   2.388
68814W        W35355  42.461  29.116  14.864
68815W        W35356  44.137  28.419   2.747
68816W        W35357  12.234  42.463  10.793
68817W        W35358  22.029  16.296   3.339
68818W        W35359  30.022  11.632  10.529
68819W        W35360  18.081   6.851  12.820
68820W        W35361  28.557  33.904   3.118
68821W        W35362  36.819  19.644   1.461
68822W        W35363  28.589  22.036   3.782
68823W        W35364  28.148  34.450  14.113
68824W        W35365  34.386  29.431  12.916
68825W        W35366  12.936   7.190   0.886
68826W        W35367  11.054  19.272  12.308
68827W        W35368   9.825  24.962  14.785
68828W        W35369  13.825  32.489   0.886
68829W        W35370  37.849  34.990   4.844
68830W        W35371  29.985   2.169   4.624
68831W        W35372  37.779  15.970   3.199
68832W        W35373  32.013  21.024  12.949
68833W        W35374  21.548  12.117  12.478
68834W        W35375  24.644  21.993   4.558
68835W        W35376  28.223  18.500   1.696
68836W        W35377   9.704  29.779   0.374
68837W        W35378   1.821  13.662  12.427
68838W        W35379  24.202  39.393   3.230
68839W        W35380   2.325  41.496   2.220
68840W        W35381  33.087  22.120   1.903
68841W        W35382   4.136  28.588   3.921
68842W        W35383  32.827  42.377  12.504
68843W        W35384  14.857   5.447  13.437
68844W        W35385   5.113  14.790   3.700
68845W        W35386  34.871  29.918   3.939
68846W        W35387  33.114  13.833  12.581
68847W        W35388  38.609  22.966   1.871
68848W        W35389  40.189  37.955   1.897
68849W        W35390  16.967  22.254  12.974
68850W        W35391  20.190  35.847   0.400
68851W        W35392   6.191  16.796  14.006
68852W        W35393  37.322  34.576   2.773
68853W        W35394  33.967  25.489  10.420
68854W        W35395  21.631  38.038  14.023
68855W        W35396  15.834   3.395   3.819
68856W        W35397   8.524  21.983  11.118
68857W        W35398  40.718  29.161   4.908
68858W        W35399   4.960  11.005   3.727
68859W        W35400  13.257  28.005   0.297
68860W        W35401  21.613  40.611   1.373
68861W        W35402  42.330  21.134  13.858
68862W        W35403  19.335  10.831  11.145
68863W        W35404  30.742  33.019  10.609
68864W        W35405  41.829  25.621   3.231
68865W        W35406   7.754  38.997   3.268
68866W        W35407  25.479  40.710  12.076
68867W        W35408  38.615  12.758  11.529
68868W        W35409  14.818  16.512  11.694
68869W        W35410  43.005  34.668   2.276
68870W        W35411  18.312   9.274  13.289
68871W        W35412  12.741  42.039  12.961
68872W        W35413  38.867   0.894  10.879
68873W        W35414   7.826   5.139  11.927
68874W        W35415  38.376  14.208  13.982
68875W        W35416  42.247  31.506  14.824
68876W        W35417  20.974  42.852  11.688
68877W        W35418  20.116   2.788   1.315
68878W        W35419   5.074  40.667  10.100
68879W        W35420  31.540  23.687   3.825
68880W        W35421  37.533  12.623   1.289
68881W        W35422  42.224  44.473   1.515
68882W        W35423  23.737  39.410   2.258
68883W        W35424  10.326  10.784   1.242
68884W        W35425  16.252   3.159   2.994
68885W        W35426  38.325   5.439   3.804
68886W        W35427  33.438  38.369   3.567
68887W        W35428   6.064   7.208   1.237
68888W        W35429  41.432  17.136  11.398
68889W        W35430  17.077   0.735  11.453
68890W        W35431  11.814   0.410   2.844
68891W        W35432  40.577  10.618   0.279
68892W        W35433  21.221  36.920   4.268
68893W        W35434  17.021  18.152   4.415
68894W        W35435  21.296  13.163  13.934
68895W        W35436  31.180  42.418   3.845
68896W        W35437  36.276  19.348  11.999
68897W        W35438  43.411  15.239   3.246
68898W        W35439   1.772  19.631   2.405
68899W        W35440  18.577  16.735   2.450
68900W        W35441  19.731   0.940  10.613
68901W        W35442  25.085  28.144  12.974
68902W        W35443   1.799  18.885   0.816
68903W        W35444  29.913   0.334   2.978
68904W        W35445  12.408   2.739  13.718
68905W        W35446  44.390   6.409  10.817
68906W        W35447  28.693  40.615   0.885
68907W        W35448  11.600  22.263   2.002
68908W        W35449  12.731  39.492  11.160
68909W        W35450  23.362  26.839  12.728
68910W        W35451  41.425   9.326   4.467
68911W        W35452  34.976  30.918   2.947
68912W        W35453  41.068   5.715  13.461
68913W        W35454  24.378  12.826   4.958
68914W        W35455   1.700  19.598   4.586
68915W        W35456  34.146  30.733   2.457
68916W        W35457  21.658  32.600   3.429
68917W        W35458  32.705   9.739  10.539
68918W        W35459  18.960  44.495  11.137
68919W        W35460  25.948  40.886  12.109
68920W        W35461  28.482  28.942   3.498
68921W        W35462   5.827  18.688   2.737
68922W        W35463  39.447   9.415   4.533
68923W        W35464  33.735  41.381   2.249
68924W        W35465  21.383  43.611  12.055
68925W        W35466  18.445  16.325   4.114
68926W        W35467   9.162  15.117  11.575
68927W        W35468   3.964   6.645   5.230
68928W        W35469  32.660   4.936  13.072
68929W        W35470  20.720   4.967  11.948
68930W        W35471   1.776  22.992  14.509
68931W        W35472   5.377   7.779  10.776
68932W        W35473  31.189  12.356  10.923
68933W        W35474  27.489  40.459   1.828
68934W        W35475  23.939  35.422  12.444
68935W        W35476  35.710   9.396   4.962
68936W        W35477  42.467  29.024   1.154
68937W        W35478  20.579  42.632   1.844
68938W        W35479  13.626  33.929  11.110
68939W        W35480   6.804   0.333   3.635
68940W        W35481   9.312  11.682   2.710
68941W        W35482  31.984  30.501   1.274
68942W        W35483  35.036  21.483  10.307
68943W        W35484   2.284  32.046  14.835
68944W        W35485  15.116  43.907  10.935
68945W        W35486  42.307  40.399  14.779
68946W        W35487  29.149  13.595   2.965
68947W        W35488  19.730   0.301  13.635
68948W        W35489  20.404  44.685   4.417
68949W        W35490  15.161   4.837   3.356
68950W        W35491   1.805   1.140   1.081
68951W        W35492  24.201  17.279   3.690
68952W        W35493  14.503   4.944   1.494
68953W        W35494  23.001  33.084  10.635
68954W        W35495  19.648  18.150   1.645
68955W        W35496  40.940  43.074  11.945
68956W        W35497  18.634  11.480   2.195
68957W        W35498   8.213   2.094   2.389
68958W        W35499   9.980  36.561   3.209
68959W        W35500  43.763  11.761  13.017
68960W        W35501  24.049  24.278   3.704
68961W        W35502   0.391   4.515  12.579
68962W        W35503  27.650  15.611   3.662
68963W        W35504  14.674  25.126  12.892
68964W        W35505  36.590   6.221   0.026
68965W        W35506  27.005  18.520   4.674
68966W        W35507  34.548   9.732  12.187
68967W        W35508  19.053  34.389   1.638
68968W        W35509  14.340  28.932   2.805
68969W        W35510  43.827  19.876  11.126
68970W        W35511  24.751  23.805  12.990
68971W        W35512  23.138  33.782  11.957
68972W        W35513  21.516  20.948  14.277
68973W        W35514   4.526  20.119  13.918
68974W        W35515   4.850   0.361  14.503
68975W        W35516  11.641  23.162   4.828
68976W        W35517  31.637  21.419   3.864
68977W        W35518  21.307  30.038   3.669
68978W        W35519  22.981  17.328   1.861
68979W        W35520  40.405   0.040  11.503
68980W        W35521   9.261  20.525  14.077
68981W        W35522  33.884   1.755  11.711
68982W        W35523  16.174  23.903  12.562
68983W        W35524  18.097  27.165   0.919
68984W        W35525  11.527   1.861   2.054
68985W        W35526   3.716  22.962   3.229
68986W        W35527  23.453  25.142  12.497
68987W        W35528  40.384  25.954   4.534
68988W        W35529  25.062  30.527  13.941
68989W        W35530  35.155  35.075  13.107
68990W        W35531   3.924   3.888   5.354
68991W        W35532  36.760   1.760   2.263
68992W        W35533  18.778  42.770   3.602
68993W        W35534  20.614  12.177   4.050
68994W        W35535  29.633   9.829   4.670
68995W        W35536  23.202  31.145   2.197
68996W        W35537   9.748  34.923   4.489
68997W        W35538  36.411   8.765   1.336
68998W        W35539  12.324   9.334  11.998
68999W        W35540  23.239   1.572  11.010
69000W        W35541  11.401  13.835  10.602
69001W        W35542   4.223  21.738   4.307
69002W        W35543   2.416  34.104  14.699
69003W        W35544   8.738  20.998   1.310
69004W        W35545  20.090   1.410  14.985
69005W        W35546  26.523  36.413   2.806
69006W        W35547  41.540  39.786   1.817
69007W        W35548  40.839   0.937  12.625
69008W        W35549  14.724   1.781   0.035
69009W        W35550  12.440  40.753  12.766
69010W        W35551  34.426  28.599  11.032
69011W        W35552  37.115  16.742  14.804
69012W        W35553   3.109  26.027   0.617
69013W        W35554  35.432  17.269   0.522
69014W        W35555  39.841  21.859   3.759
69015W        W35556   6.907   4.250  11.976
69016W        W35557   8.119   8.846  12.636
69017W        W35558  35.825  20.824  11.916
69018W        W35559   7.563   2.353   0.841
69019W        W35560  19.799  37.875   1.147
69020W        W35561  25.620  22.658  12.009
69021W        W35562  14.382  28.556   5.000
69022W        W35563  34.339  32.057  10.544
69023W        W35564  42.401   6.819  10.862
69024W        W35565  38.902  18.839  13.948
69025W        W35566  10.979  12.734  11.485
69026W        W35567   7.284  31.967  13.498
69027W        W35568  12.840  39.245   3.223
69028W        W35569  30.545  37.365  13.826
69029W        W35570  36.889  38.250   0.219
69030W        W35571   4.603   4.683  14.549
69031W        W35572  17.312  23.548  10.658
69032W        W35573  41.482  11.291   4.669
69033W        W35574  16.084   0.476   1.173
69034W        W35575  11.185   1.427  12.532
69035W        W35576   6.302  28.435   0.879
69036W        W35577  32.325  17.214  13.959
69037W        W35578  20.650  20.483  11.527
69038W        W35579  44.447  26.639   3.338
69039W        W35580  27.649  21.903  13.849
69040W        W35581   1.829  18.532   3.099
69041W        W35582  40.923  40.497  11.002
69042W        W35583  37.868   0.559   4.511
69043W        W35584  15.821   3.396  11.942
69044W        W35585  40.854  19.111  11.762
69045W        W35586  31.810  23.362  10.459
69046W        W35587  11.657  37.539   4.091
69047W        W35588  14.845   9.770   1.398
69048W        W35589  17.900  29.060   2.754
69049W        W35590  40.130  19.489  13.972
69050W        W35591  36.317   4.372  13.459
69051W        W35592  41.578   1.253   2.811
69052W        W35593  26.332   9.783   3.341
69053W        W35594  26.929   7.141  14.500
69054W        W35595  40.079  11.231   2.813
69055W        W35596  11.621   8.260   0.916
69056W        W35597  12.417  33.761  12.183
69057W        W35598   5.205  32.608   4.055
69058W        W35599  40.805   5.232   3.146
69059W        W35600  44.413  11.803  13.724
69060W        W35601  17.030  13.704   3.975
69061W        W35602   5.952  11.470  13.613
69062W        W35603   6.972  19.321   2.363
69063W        W35604   7.016   1.918   4.358
69064W        W35605  34.469  34.631  14.991
69065W        W35606   8.161  30.607  13.803
69066W        W35607  35.657  28.028   4.064
69067W        W35608  25.594  34.982  12.530
69068W        W35609  29.093  32.172  12.069
69069W        W35610  42.162  13.716  11.360
69070W        W35611  12.138  33.046  11.003
69071W        W35612  31.603  30.517   4.407
69072W        W35613   7.530  37.368   1.275
69073W        W35614  44.722  13.569  11.938
69074W        W35615  16.680  29.100  11.584
69075W        W35616  34.892  13.795   0.255
69076W        W35617  15.276  11.741  14.743
69077W        W35618  31.052  15.188   1.972
69078W        W35619  30.298  32.000   1.796
69079W        W35620  33.669  31.059   0.741
69080W        W35621   3.409   1.324   3.609
69081W        W35622  44.857  41.969   0.804
69082W        W35623  41.585   4.735   0.503
69083W        W35624  25.677  37.775   2.177
69084W        W35625  35.989   4.616   1.277
69085W        W35626  30.270   7.343  11.875
69086W        W35627  20.510  31.127   0.633
69087W        W35628  38.680  17.572   3.262
69088W        W35629  44.509   5.651  13.571
69089W        W35630   1.305   2.896  10.410
69090W        W35631   6.166   4.191  12.077
69091W        W35632  39.092  29.752  12.109
69092W        W35633   5.767  43.382   0.287
69093W        W35634  33.655  22.371   4.121
69094W        W35635  27.936  33.666   5.192
69095W        W35636   9.974  12.127  14.341
69096W        W35637  36.925   0.322   3.333
69097W        W35638  30.713  38.465   1.461
69098W        W35639  23.019  30.318  11.207
69099W        W35640   8.178  31.928  12.117
69100W        W35641  41.982  13.084  11.618
69101W        W35642  37.364   2.219   4.037
69102W        W35643  44.516  33.988   0.344
69103W        W35644   2.839   8.705   0.061
69104W        W35645  42.373  39.034   0.277
69105W        W35646  18.165   9.332   2.214
69106W        W35647  11.623  17.493   3.040
69107W        W35648  28.280   1.144  12.606
69108W        W35649  26.693  33.042   4.227
69109W        W35650  25.673  11.261  14.699
69110W        W35651  32.555  36.370  14.709
69111W        W35652   2.687  36.486   4.700
69112W        W35653  26.181  42.484  13.818
69113W        W35654  38.164  37.394  10.589
69114W        W35655  28.606  12.879  12.896
69115W        W35656  17.267  30.601  12.251
69116W        W35657   5.434  28.169  14.922
69117W        W35658  34.468  41.138   3.261
69118W        W35659  18.489   3.730  14.030
69119W        W35660  44.519  29.503   1.982
69120W        W35661  11.257  29.752   0.457
69121W        W35662  31.884   4.705   3.713
69122W        W35663   9.885  14.733  14.873
69123W        W35664  15.168  43.669  11.562
69124W        W35665  44.951   2.232   2.882
69125W        W35666   8.385  23.983   0.761
69126W        W35667  34.638   8.430  10.739
69127W        W35668  39.095  17.677  12.326
69128W        W35669   6.700  13.786   1.814
69129W        W35670  27.379  23.965   2.681
69130W        W35671  15.289  34.654  14.060
69131W        W35672   9.725  20.273   1.332
69132W        W35673   0.983  32.408  13.591
69133W        W35674   9.760  27.224   1.737
69134W        W35675  12.838   7.950   4.357
69135W        W35676  42.794  31.607   3.567
69136W        W35677  14.079  26.237  13.506
69137W        W35678  41.735  38.471  14.985
69138W        W35679  17.014   6.769  12.964
69139W        W35680  12.227  39.937  10.526
69140W        W35681  19.045  32.788  14.802
69141W        W35682  18.299  44.796   3.597
69142W        W35683   5.057  13.359   0.962
69143W        W35684  21.806  22.655  13.469
69144W        W35685  28.683  44.036   4.423
69145W        W35686   1.726  24.011   0.374
69146W        W35687   8.327  24.982   1.979
69147W        W35688  35.831   0.378  11.897
69148W        W35689   0.775  34.975   4.464
69149W        W35690  20.094  25.103   3.586
69150W        W35691  35.559  41.301   4.285
69151W        W35692  29.881  31.050  12.503
69152W        W35693  31.442  42.779  12.558
69153W        W35694  41.282   3.361   4.185
69154W        W35695  24.622   0.883  11.559
69155W        W35696  14.713   7.754   1.125
69156W        W35697   2.486  37.265  13.616
69157W        W35698   4.038  19.621   0.845
69158W        W35699  30.848   8.860   2.816
69159W        W35700  28.448  24.083   4.263
69160W        W35701  31.570  24.648  11.441
69161W        W35702  38.792  25.612  10.988
69162W        W35703   1.068  28.462   2.316
69163W        W35704  15.874   7.857   4.845
69164W        W35705   1.257   8.968  12.875
69165W        W35706  31.852   0.318  11.818
69166W        W35707  42.000  22.508  11.154
69167W        W35708   2.819   5.915  13.016
69168W        W35709  34.101   6.141   1.710
69169W        W35710  40.922  27.333  12.529
69170W        W35711  13.279  27.657  14.312
69171W        W35712  38.955  34.409  13.641
69172W        W35713  42.317   3.137  12.728
69173W        W35714  41.328  11.567   0.868
69174W        W35715  43.786  18.201  10.762
69175W        W35716  19.306  34.124  14.434
69176W        W35717  40.133  40.509   4.554
69177W        W35718  34.400   3.290   2.698
69178W        W35719  42.543  13.103  14.850
69179W        W35720  13.141   4.297  12.506
69180W        W35721  19.163  23.255   4.560
69181W        W35722  23.186  25.006  14.722
69182W        W35723  43.394  29.411  12.495
69183W        W35724  20.501  12.019  13.452
69184W        W35725   4.806  19.335   1.386
69185W        W35726  10.668  30.080  12.100
69186W        W35727  19.119  14.304  14.255
69187W        W35728  41.292  19.139   1.876
69188W        W35729  21.376  36.755  11.486
69189W        W35730   6.681  26.160  10.711
69190W        W35731  15.784  44.070   2.681
69191W        W35732  29.593  33.444   0.305
69192W        W35733  31.480  44.777   3.518
69193W        W35734   6.337  28.165  10.710
69194W        W35735  33.136  44.894  11.470
69195W        W35736   2.159  41.341   4.146
69196W        W35737  14.383  42.754   2.988
69197W        W35738   8.098  30.820  12.413
69198W        W35739  17.055  37.333   2.415
69199W        W35740  30.018   9.025  10.666
69200W        W35741   8.806  28.002   2.262
69201W        W35742  23.494   1.358   4.700
69202W        W35743  28.288  22.064  11.113
69203W        W35744  25.105  21.372   0.703
69204W        W35745  27.763  10.382  14.589
69205W        W35746  36.806  19.560  11.175
69206W        W35747   4.871  44.962  12.937
69207W        W35748  20.285  44.073  14.375
69208W        W35749  24.581   0.287   1.753
69209W        W35750  18.461  39.841   4.052
69210W        W35751  40.620  42.950   2.303
69211W        W35752  24.320  35.560   0.488
69212W        W35753  33.389   8.744   2.767
69213W        W35754  35.923   4.128   5.056
69214W        W35755  38.804  18.043  10.351
69215W        W35756  23.147  11.238  14.523
69216W        W35757  35.052  24.198  10.654
69217W        W35758  37.111  11.110  12.003
69218W        W35759  42.774  11.314  14.439
69219W        W35760  43.743  25.146  14.107
69220W        W35761  22.408  31.238  10.472
69221W        W35762  20.465  18.854   0.775
69222W        W35763  20.484  18.524  11.306
69223W        W35764  38.835  27.382   1.189
69224W        W35765  41.576  34.833   3.670
69225W        W35766   9.350  42.484  10.650
69226W        W35767   4.386   7.913   3.718
69227W        W35768  44.148  24.705   4.598
69228W        W35769  24.631  22.693   0.319
69229W        W35770  22.633  15.772   1.750
69230W        W35771  44.069  37.403   3.378
69231W        W35772  16.684  15.118   2.504
69232W        W35773  22.037  17.624   1.927
69233W        W35774   7.413  44.810  12.633
69234W        W35775  30.434  37.517  10.573
69235W        W35776  16.194   9.803   1.394
69236W        W35777  37.106   6.772   2.540
69237W        W35778  37.962  40.364  14.263
69238W        W35779  25.040  36.086   0.185
69239W        W35780  36.405  17.895   0.479
69240W        W35781  15.288  34.340   4.821
69241W        W35782  14.241  10.274  10.930
69242W        W35783  26.994  42.482   0.330
69243W        W35784  36.036  34.388   3.720
69244W        W35785  33.664  17.264   0.767
69245W        W35786  21.774  38.330  14.491
69246W        W35787  20.348   1.867   1.719
69247W        W35788   8.768  11.738  13.851
69248W        W35789  32.467  38.759  14.433
69249W        W35790  34.571  40.145   3.954
69250W        W35791   4.079  25.980   3.584
69251W        W35792  37.063  11.849   5.064
69252W        W35793  18.809  27.469  14.369
69253W        W35794   4.651  30.571  14.499
69254W        W35795   2.305   4.722   2.406
69255W        W35796  18.505  23.753   1.763
69256W        W35797  41.355  22.592  14.560
69257W        W35798  18.836  42.441   3.202
69258W        W35799  42.453  43.865  13.637
69259W        W35800  24.627   0.780   0.482
69260W        W35801  32.876  42.241  13.015
69261W        W35802  26.591  21.769  13.978
69262W        W35803  41.714   0.007  12.662
69263W        W35804  15.834  42.262  12.383
69264W        W35805  18.704  21.605   1.290
69265W        W35806  23.656  30.945   2.644
69266W        W35807  10.905  13.887   4.054
69267W        W35808  24.292  17.103  12.881
69268W        W35809   6.454  14.409  14.018
69269W        W35810   8.257  13.833  11.630
69270W        W35811  18.211  24.771  11.493
69271W        W35812  27.627   7.273   1.316
69272W        W35813   4.364   1.751  12.009
69273W        W35814  30.903   0.856   0.311
69274W        W35815  32.585   6.077   3.641
69275W        W35816  14.603  28.554  13.445
69276W        W35817   4.250  20.647  11.244
69277W        W35818   0.707  38.220  10.984
69278W        W35819  18.291   5.715   1.159
69279W        W35820  34.103   2.885  11.311
69280W        W35821  30.202  28.181  10.747
69281W        W35822  26.921  41.409  14.109
69282W        W35823   9.366   8.046   3.928
69283W        W35824  44.779  27.619  13.467
69284W        W35825  31.074  35.102   0.473
69285W        W35826  25.881  38.010  13.983
69286W        W35827   7.847  43.950  14.500
69287W        W35828   8.622  17.695  12.427
69288W        W35829  32.588  32.472  10.670
69289W        W35830   4.528  10.666  13.196
69290W        W35831   1.855  32.326   1.317
69291W        W35832   9.667  19.260  12.165
69292W        W35833  40.865  14.326  11.980
69293W        W35834  40.849  15.802   4.199
69294W        W35835  28.337  27.005   2.675
69295W        W35836   1.853  32.410  10.295
69296W        W35837  26.625  27.418   4.717
69297W        W35838  20.484  16.578   0.206
69298W        W35839  18.260  31.544   1.876
69299W        W35840  14.668  30.514  13.923
69300W        W35841  44.383   7.169   1.910
69301W        W35842  15.531  10.138   1.654
69302W        W35843  33.935  31.063   1.196
69303W        W35844   7.450  27.816   2.290
69304W        W35845  16.392  33.956   4.083
69305W        W35846  36.013  16.185   1.431
69306W        W35847  30.957  27.452   1.862
69307W        W35848  10.384  44.264   1.871
69308W        W35849  39.259  36.791  13.902
69309W        W35850  28.089  10.312   2.368
69310W        W35851  44.492  39.881  12.611
69311W        W35852   9.674  35.622  10.727
69312W        W35853   2.370   3.769   1.356
69313W        W35854  26.641  37.702   3.201
69314W        W35855   0.527  42.637  11.564
69315W        W35856  42.368  17.817   1.356
69316W        W35857   9.668  17.805  11.528
69317W        W35858  20.312  11.929  13.990
69318W        W35859  42.912  16.273  12.491
69319W        W35860  21.654  18.255  12.439
69320W        W35861   8.279  27.370  10.734
69321W        W35862   3.774  19.157   4.731
69322W        W35863  25.973   9.715  14.465
69323W        W35864  31.904   0.438  10.817
69324W        W35865  44.965  44.975   0.405
69325W        W35866  37.476  21.626   0.856
69326W        W35867  42.967  40.123   4.152
69327W        W35868  24.792  43.314   1.433
69328W        W35869  41.875   2.980  13.946
69329W        W35870   5.606   4.773   1.185
69330W        W35871  10.699  32.290   1.316
69331W        W35872  20.216  26.521  11.823
69332W        W35873  14.741  33.564   3.481
69333W        W35874  27.413  17.250   0.825
69334W        W35875   6.188  32.786  14.320
69335W        W35876  37.472  38.239  11.187
69336W        W35877  22.059  41.034  13.577
69337W        W35878  17.092  44.454   5.068
69338W        W35879  32.628  14.738   3.441
69339W        W35880  39.552  11.239   0.919
69340W        W35881  32.708  32.493  12.832
69341W        W35882  35.035  40.502   4.550
69342W        W35883  25.318   7.745  11.128
69343W        W35884  41.976   4.975   4.602
69344W        W35885   1.973   1.996   2.589
69345W        W35886  12.918  38.561  13.755
69346W        W35887  31.519   7.362  13.622
69347W        W35888   4.942   5.673  14.759
69348W        W35889  10.406  24.126  10.864
69349W        W35890  22.579   6.444   2.819
69350W        W35891  31.697  36.727  12.021
69351W        W35892  20.575  35.036   0.881
69352W        W35893  33.037   6.415  11.310
69353W        W35894  33.518  35.769  14.835
69354W        W35895  44.259  26.993  14.877
69355W        W35896  19.565  41.361  13.694
69356W        W35897   0.887  14.042   0.320
69357W        W35898  39.807  42.374  14.448
69358W        W35899  36.044  38.540   0.444
69359W        W35900   9.170  13.609   0.050
69360W        W35901  44.753   4.672   4.141
69361W        W35902  21.050  41.387  10.428
69362W        W35903  41.151   1.671  13.072
69363W        W35904  17.564  23.083   1.561
69364W        W35905  10.839  43.759  14.799
69365W        W35906   0.771  37.285  11.938
69366W        W35907  43.217   9.662  10.576
69367W        W35908  38.397   8.198   2.816
69368W        W35909   3.407   0.931   1.292
69369W        W35910  15.762  33.367  12.642
69370W        W35911  36.124  36.730   3.233
69371W        W35912  35.913  35.149   3.567
69372W        W35913  17.615  24.559  11.590
69373W        W35914  34.105   0.153  11.235
69374W        W35915   8.847  42.676   2.379
69375W        W35916  32.585  22.143   1.746
69376W        W35917  31.949   5.392   1.887
69377W        W35918  16.148  15.818   4.523
69378W        W35919  30.570  42.391   0.262
69379W        W35920   8.484  39.576  14.390
69380W        W35921  29.462  11.890  14.943
69381W        W35922  17.979  11.693  14.443
69382W        W35923  38.026  16.316  11.155
69383W        W35924  17.031  39.669  12.932
69384W        W35925  33.397  25.987   0.686
69385W        W35926  32.718   5.428  13.631
69386W        W35927  44.214   6.765  10.353
69387W        W35928  37.096   5.392   3.171
69388W        W35929  42.546  31.933   4.176
69389W        W35930  40.240  35.657  10.974
69390W        W35931   3.444  39.250   3.190
69391W        W35932  15.665  21.064   4.682
69392W        W35933   9.456   5.118  11.981
69393W        W35934  26.554  44.744  11.650
69394W        W35935  12.365  40.833   3.990
69395W        W35936   9.930  12.009   3.745
69396W        W35937  37.084  26.084   1.282
69397W        W35938  24.092  20.235  11.876
69398W        W35939  35.138  35.303   3.183
69399W        W35940  28.903  28.574   4.643
69400W        W35941   3.210  12.356  14.021
69401W        W35942  11.783   5.517  10.020
69402W        W35943  40.011  34.943   0.765
69403W        W35944  17.513  24.062   1.555
69404W        W35945  41.068   9.694   2.315
69405W        W35946  29.430   8.950  13.698
69406W        W35947  31.678   4.836  14.761
69407W        W35948  41.545  16.045  13.340
69408W        W35949  11.119  11.593  13.686
69409W        W35950  41.846   7.478   0.765
69410W        W35951  21.465   4.433   2.733
69411W        W35952  43.288  39.444  11.521
69412W        W35953   5.259  40.495   3.464
69413W        W35954  37.539  28.696   0.255
69414W        W35955   9.875  41.396   2.112
69415W        W35956  20.626  20.626   0.792
69416W        W35957  25.984  37.290   3.272
69417W        W35958   6.270  21.938  12.153
69418W        W35959  35.435   5.238   0.642
69419W        W35960  44.002  21.899   4.612
69420W        W35961   9.297   9.717  11.902
69421W        W35962  34.159  21.064  11.907
69422W        W35963   7.780  40.748  12.232
69423W        W35964  39.933  22.216  11.106
69424W        W35965   5.105  19.652   4.649
69425W        W35966  18.027  18.238  14.430
69426W        W35967  42.905  34.098  11.625
69427W        W35968  29.063  15.142   1.718
69428W        W35969  28.417  36.554  12.126
69429W        W35970  27.025   9.154   4.350
69430W        W35971   1.396  15.763   4.184
69431W        W35972  41.660  37.962  11.515
69432W        W35973  20.153  24.520   1.803
69433W        W35974  11.778  21.518   3.798
69434W        W35975  31.648  41.842   0.788
69435W        W35976  42.716  28.659  14.400
69436W        W35977   4.592  18.844  12.448
69437W        W35978  42.620  14.178  14.699
69438W        W35979   8.807   1.580  14.599
69439W        W35980  10.705  31.895  14.514
69440W        W35981  33.208   6.800   1.432
69441W        W35982  12.311  20.663   1.053
69442W        W35983  29.343  30.059   3.681
69443W        W35984  17.005  44.802   2.676
69444W        W35985  28.152  35.918   1.671
69445W        W35986  23.240  20.710  10.727
69446W        W35987  40.004  16.288  14.474
69447W        W35988  31.510   4.431  14.052
69448W        W35989  31.993   9.639   0.012
69449W        W35990   8.570  33.912  12.396
69450W        W35991  29.676  40.810   2.466
69451W        W35992  26.859  34.358  12.583
69452W        W35993  19.095  23.504   1.800
69453W        W35994   2.339  20.124  13.237
69454W        W35995  29.028  27.646  12.491
69455W        W35996  42.962  29.173  13.477
69456W        W35997  16.489  12.210  13.885
69457W        W35998   9.620   7.341  13.498
69458W        W35999  23.463  20.713   4.775
69459W        W36000   7.079   5.881   1.523
69460W        W36001   4.243  16.544  14.491
69461W        W36002  44.170   9.599  14.401
69462W        W36003  20.618  30.137   0.650
69463W        W36004  40.329  13.435  13.060
69464W        W36005  18.107   3.981  12.280
69465W        W36006  25.198  28.859   0.264
69466W        W36007  13.193  24.548  11.261
69467W        W36008  35.258  23.629   0.808
69468W        W36009   5.736  28.236   4.214
69469W        W36010  26.127  44.293  14.824
69470W        W36011  39.393  29.636   0.970
69471W        W36012   7.660   7.064   9.860
69472W        W36013  40.479  38.004  14.074
69473W        W36014   1.459  16.654   1.404
69474W        W36015  34.693   6.221  11.098
69475W        W36016  31.481  24.993   2.304
69476W        W36017  31.657   2.776  13.345
69477W        W36018   0.654   0.653  13.874
69478W        W36019  19.960   3.487   3.810
69479W        W36020  21.242  40.508  11.642
69480W        W36021  36.359  28.390  13.579
69481W        W36022  15.752  38.492   3.340
69482W        W36023  31.042  23.760  12.081
69483W        W36024  13.281   0.818  13.896
69484W        W36025   0.891   1.442  11.334
69485W        W36026  36.546   9.341   2.792
69486W        W36027   6.669  44.780   4.453
69487W        W36028  30.383  34.163  12.904
69488W        W36029   8.691  40.883   1.359
69489W        W36030  19.731  25.583  14.699
69490W        W36031  30.850   5.413   4.152
69491W        W36032  16.548  16.426   3.180
69492W        W36033  20.175  14.633  14.122
69493W        W36034  37.853   8.172  14.344
69494W        W36035   0.968   2.397   3.280
69495W        W36036  20.656  22.776   0.749
69496W        W36037  23.175  40.330   4.973
69497W        W36038  39.439  42.840   3.281
69498W        W36039  22.026  15.910   0.472
69499W        W36040  34.111   4.701   3.611
69500W        W36041  14.128  14.443   0.977
69501W        W36042  31.987  33.813   3.553
69502W        W36043  34.806   4.898  10.976
69503W        W36044   2.894  32.298  13.099
69504W        W36045  23.712  18.695   0.229
69505W        W36046   5.892  11.676  14.905
69506W        W36047  25.190  16.891  14.609
69507W        W36048  32.564  42.883   2.151
69508W        W36049  44.779  30.167   4.409
69509W        W36050   9.691  19.184  12.675
69510W        W36051  20.388  43.027  12.547
69511W        W36052  42.446   2.308   3.640
69512W        W36053  41.098   1.481   2.687
69513W        W36054  36.639  20.458   1.755
69514W        W36055   2.773  33.318   2.388
69515W        W36056  40.339  21.613   0.921
69516W        W36057  35.855  41.507  10.716
69517W        W36058   1.420   5.707  13.199
69518W        W36059   8.696  13.671  10.364
69519W        W36060  11.888  33.541   1.438
69520W        W36061  26.192  25.185   4.111
69521W        W36062  29.514  18.523   3.565
69522W        W36063   4.829   4.836  11.084
69523W        W36064  44.695  12.036   0.444
69524W        W36065  32.915   6.072   0.532
69525W        W36066  27.952   6.745   4.617
69526W        W36067  39.409   2.028   1.775
69527W        W36068  39.543  37.250   4.701
69528W        W36069  33.143  30.730  11.141
69529W        W36070  18.362  40.714  14.041
69530W        W36071   8.854  40.225   4.805
69531W        W36072  11.668   8.341   0.047
69532W        W36073  10.966   8.604   1.240
69533W        W36074  11.382   2.744  13.374
69534W        W36075   8.640  44.940   2.848
69535W        W36076  26.628  11.783   0.253
69536W        W36077   4.685  25.988  10.711
69537W        W36078   6.488  20.545   2.717
69538W        W36079  14.785  42.748  11.783
69539W        W36080  42.901  43.012   3.363
69540W        W36081   9.944  28.573   2.045
69541W        W36082  13.066  14.168   4.235
69542W        W36083  40.633   1.635   2.831
69543W        W36084  31.480  32.881  13.974
69544W        W36085  17.303  38.276  11.907
69545W        W36086  27.530   3.698  13.002
69546W        W36087   0.380  30.102   1.428
69547W        W36088  43.621   0.532  12.553
69548W        W36089  23.653  18.852  14.405
69549W        W36090  44.447  39.561  13.459
69550W        W36091  31.527   9.286   5.153
69551W        W36092  25.504   2.452   4.008
69552W        W36093   5.624  28.823   1.634
69553W        W36094  20.760   8.898  13.914
69554W        W36095   8.123   2.730  14.782
69555W        W36096   8.217  30.481  10.682
69556W        W36097   8.678  17.957   2.724
69557W        W36098  34.386   4.339  14.451
69558W        W36099  23.122   3.393   3.282
69559W        W36100   2.966  37.922   0.823
69560W        W36101  20.784  24.241   2.752
69561W        W36102  44.424  21.569   2.591
69562W        W36103  25.587  21.799  14.100
69563W        W36104  15.757  10.560   3.149
69564W        W36105   2.688  12.213  14.555
69565W        W36106  18.639   5.978  14.045
69566W        W36107  18.715  23.426  12.868
69567W        W36108  16.565   6.218   0.132
69568W        W36109   0.923  17.647   2.656
69569W        W36110  36.440  34.510   3.403
69570W        W36111  28.687  24.064   0.765
69571W        W36112  32.537  18.663  12.657
69572W        W36113  11.666  15.745  12.393
69573W        W36114  35.989  23.272   2.235
69574W        W36115   6.293  12.152   3.023
69575W        W36116  30.649   8.848  14.786
69576W        W36117  16.331   1.423  10.562
69577W        W36118  43.611  22.181  13.579
69578W        W36119   0.109  38.357   3.087
69579W        W36120  37.393  16.739  13.840
69580W        W36121  17.135   6.772   1.998
69581W        W36122  19.592  27.114   4.619
69582W        W36123  28.860  39.647  13.492
69583W        W36124   1.054  34.174   2.642
69584W        W36125   8.967  36.386  12.105
69585W        W36126  32.939  44.573  13.058
69586W        W36127   9.850   4.304  10.760
69587W        W36128  30.145  26.690   0.486
69588W        W36129  41.565  19.099   4.495
69589W        W36130   1.252  37.323  11.581
69590W        W36131  12.399  30.037   3.091
69591W        W36132  34.815  25.835   1.398
69592W        W36133  29.631  20.442   4.163
69593W        W36134  42.324  37.530   2.650
69594W        W36135  37.242  32.988  14.431
69595W        W36136  34.698  33.363   2.603
69596W        W36137  22.134  38.897  11.967
69597W        W36138  44.159  41.896   2.549
69598W        W36139  24.162  28.352   0.680
69599W        W36140   3.385  11.427  13.922
69600W        W36141  35.401   4.061  12.405
69601W        W36142  25.234   5.346  14.057
69602W        W36143   5.483   8.102  11.755
69603W        W36144   8.653  31.543  14.472
69604W        W36145  13.374  27.119   2.502
69605W        W36146  24.364  33.122   3.217
69606W        W36147  44.286   3.390   2.697
69607W        W36148  28.995  15.586   2.019
69608W        W36149  28.044  39.356  13.055
69609W        W36150   8.158  32.701   3.127
69610W        W36151  36.557  44.704   0.225
69611W        W36152  33.719  42.841   1.914
69612W        W36153  24.636   4.163   5.023
69613W        W36154  25.507  17.856  14.050
69614W        W36155  21.019  12.383  12.593
69615W        W36156  35.537  27.279   4.621
69616W        W36157   4.116  23.246  10.838
69617W        W36158   3.802   3.763   0.381
69618W        W36159  32.275  40.415  11.531
69619W        W36160  23.988  35.318   4.011
69620W        W36161  31.443  21.588   0.500
69621W        W36162  31.679   2.795   4.562
69622W        W36163  17.650  44.454   2.898
69623W        W36164  42.920  44.332   1.239
69624W        W36165   0.072   6.844  12.017
69625W        W36166  30.598  14.227  10.485
69626W        W36167  18.028   4.975  10.671
69627W        W36168  34.444   4.202  10.687
69628W        W36169  40.218  31.690  13.534
69629W        W36170  44.491  34.123  13.968
69630W        W36171  32.870   0.212   1.875
69631W        W36172  17.620  11.147  13.374
69632W        W36173  16.683  43.143   2.377
69633W        W36174  11.672  12.045   1.295
69634W        W36175   7.347  10.857   3.274
69635W        W36176  41.697  43.555   1.698
69636W        W36177  32.984  10.901   4.622
69637W        W36178   0.065  42.415  14.011
69638W        W36179  22.057  31.624   0.484
69639W        W36180  29.392  10.336  11.110
69640W        W36181  25.138  26.040  14.814
69641W        W36182  19.025  21.165   3.192
69642W        W36183  44.022  42.467  12.609
69643W        W36184   7.871   2.749   0.426
69644W        W36185  26.560  13.246  12.690
69645W        W36186  10.335  18.604  12.416
69646W        W36187  20.770   4.997   1.652
69647W        W36188  26.990  19.633   1.075
69648W        W36189  24.367  15.899   1.611
69649W        W36190  16.249  35.100   2.442
69650W        W36191  28.751   7.728   2.816
69651W        W36192  40.433   1.725   1.896
69652W        W36193   8.012  16.924   3.573
69653W        W36194  25.269   2.791  11.036
69654W        W36195  30.649  12.143   2.710
69655W        W36196  36.886  33.419  13.102
69656W        W36197  26.718  25.205  11.146
69657W        W36198   8.467  20.378  13.519
69658W        W36199  24.621  30.509  12.091
69659W        W36200  35.926  14.249  14.048
69660W        W36201  12.037  39.590  12.008
69661W        W36202  14.266  20.300  10.614
69662W        W36203  38.550  17.420   1.354
69663W        W36204  12.642  27.241  13.616
69664W        W36205  35.585  20.090   4.814
69665W        W36206   8.924   2.634  13.311
69666W        W36207  34.942  12.153  10.772
69667W        W36208  35.925   6.310   2.219
69668W        W36209  29.710  10.042  10.837
69669W        W36210  19.012  40.444  14.767
69670W        W36211  34.538  43.077  10.946
69671W        W36212   3.400  18.135  10.990
69672W        W36213   8.160  12.150  14.665
69673W        W36214  27.003   4.242   4.719
69674W        W36215  38.228  13.273   1.890
69675W        W36216  30.434   1.397   1.540
69676W        W36217   7.273  33.054   0.483
69677W        W36218   2.195  36.387  14.428
69678W        W36219  42.065  18.194   3.692
69679W        W36220  27.815  28.030  13.716
69680W        W36221  33.050  11.180  13.404
69681W        W36222  30.868  28.916   1.822
69682W        W36223  39.253  40.328  12.703
69683W        W36224  43.557  20.721  10.845
69684W        W36225  12.042  18.091   2.208
69685W        W36226   0.886  32.851   3.076
69686W        W36227  38.940  28.825  10.749
69687W        W36228   7.867  41.975  12.986
69688W        W36229  43.498   5.988   0.642
69689W        W36230  27.999  31.497  13.899
69690W        W36231  25.510  20.215   4.156
69691W        W36232  39.814  20.037  14.042
69692W        W36233   6.890  41.396   0.486
69693W        W36234  32.537   2.434   0.294
69694W        W36235   3.379   9.147  10.970
69695W        W36236   4.338  32.021  13.858
69696W        W36237  33.306   9.697  11.689
69697W        W36238   1.278  25.049  12.952
69698W        W36239   1.880  40.329   3.260
69699W        W36240  44.109  40.451  14.217
69700W        W36241  39.572  20.873  14.011
69701W        W36242  10.490   0.364  12.619
69702W        W36243  22.434  16.162  10.646
69703W        W36244  26.021  27.602   0.170
69704W        W36245  10.224  30.280   0.895
69705W        W36246  17.809  44.542   1.845
69706W        W36247   8.860   2.298   4.029
69707W        W36248   3.022  41.314  10.684
69708W        W36249   4.636  25.170   1.213
69709W        W36250  37.622  18.244   0.561
69710W        W36251  38.561  32.442   0.939
69711W        W36252  15.155  25.577   0.327
69712W        W36253  32.894  38.587   1.818
69713W        W36254  15.908  26.242  11.652
69714W        W36255  43.193  10.635  13.263
69715W        W36256   3.201  21.689   0.385
69716W        W36257   0.465  18.465  14.344
69717W        W36258  27.768  13.817   0.474
69718W        W36259   4.318  14.217  10.767
69719W        W36260  43.792  24.978   3.776
69720W        W36261   1.186  18.093   4.589
69721W        W36262  41.304  31.501  12.517
69722W        W36263  16.475   0.907  11.665
69723W        W36264  11.854  24.248   3.001
69724W        W36265  41.885  20.171   4.283
69725W        W36266  20.127  10.368   3.100
69726W        W36267  12.310  14.384   3.069
69727W        W36268  15.314  39.269  11.194
69728W        W36269  44.056   6.214  14.127
69729W        W36270  11.290  32.917   4.120
69730W        W36271  39.380  10.920   4.928
69731W        W36272  12.848  17.595   0.398
69732W        W36273   1.337  31.549   3.632
69733W        W36274   0.167   2.435  10.639
69734W        W36275  36.974  36.976  10.973
69735W        W36276  38.407  32.067  10.560
69736W        W36277  13.823  14.316   3.860
69737W        W36278  24.053  41.464  13.120
69738W        W36279  26.283  22.496   3.439
69739W        W36280   4.622   1.312   9.782
69740W        W36281   4.794  30.890  11.734
69741W        W36282  43.920  27.002  10.807
69742W        W36283  33.530  41.520   4.338
69743W        W36284  23.925  15.977  10.370
69744W        W36285  29.554  14.204  11.164
69745W        W36286  37.704   4.754  13.518
69746W        W36287  17.627  26.443  13.767
69747W        W36288  18.961  44.198   4.116
69748W        W36289  39.785  41.008   4.521
69749W        W36290  23.186  43.952  10.771
69750W        W36291  29.923  23.153  10.740
69751W        W36292  39.630  40.467   4.365
69752W        W36293  32.487   0.965   1.827
69753W        W36294  33.553   7.687  10.364
69754W        W36295   4.375  28.046  13.712
69755W        W36296  38.522  44.873  13.369
69756W        W36297  23.803  31.512   4.852
69757W        W36298  17.273  18.136   5.602
69758W        W36299  39.967  24.993  11.333
69759W        W36300  33.589  23.995   4.797
69760W        W36301  13.337   0.544   0.788
69761W        W36302  19.175  38.337  12.624
69762W        W36303  34.858  28.338  10.129
69763W        W36304  26.545  18.295   2.623
69764W        W36305   6.892  14.702  11.888
69765W        W36306  14.508  43.487   1.739
69766W        W36307   5.125   8.783   4.378
69767W        W36308  41.779  44.387  12.019
69768W        W36309  16.113  36.485  13.833
69769W        W36310   5.687  20.862   1.131
69770W        W36311  14.376   4.681  13.818
69771W        W36312  21.540  19.702  12.206
69772W        W36313  43.699  10.576  11.615
69773W        W36314  14.266  33.818  14.267
69774W        W36315  32.584  21.251   3.151
69775W        W36316  26.768  10.177  10.079
69776W        W36317   4.809  13.625   0.410
69777W        W36318  28.931  24.312  11.912
69778W        W36319  23.192   8.362   0.845
69779W        W36320   8.264  44.534  13.637
69780W        W36321  17.679   1.206   3.706
69781W        W36322  12.421  22.647   2.262
69782W        W36323   4.946  36.512   4.562
69783W        W36324  13.905  41.453   3.773
69784W        W36325   7.599  36.731   4.541
69785W        W36326  35.370  14.834  11.609
69786W        W36327   1.207   6.908  14.877
69787W        W36328  36.925   2.627  11.358
69788W        W36329  38.869   3.261  14.872
69789W        W36330  11.710  42.585  12.963
69790W        W36331  21.210  11.840   4.596
69791W        W36332  26.684  29.529   4.742
69792W        W36333  22.625  15.530  11.926
69793W        W36334   2.278  43.838  10.505
69794W        W36335  12.291   9.650   2.675
69795W        W36336  30.602  30.815   3.634
69796W        W36337  11.347  31.525   0.917
69797W        W36338   3.820  42.694  13.408
69798W        W36339  18.001   2.331   1.831
69799W        W36340   5.219  30.067   0.760
69800W        W36341  19.422   2.968  11.735
69801W        W36342  25.981  24.760  10.733
69802W        W36343  30.443  42.303  11.226
69803W        W36344   1.953   4.545  14.381
69804W        W36345  36.957  16.772   3.479
69805W        W36346  37.109  41.535  13.632
69806W        W36347  23.978  28.877  12.025
69807W        W36348  18.548  17.681   2.898
69808W        W36349  17.248  22.238  12.140
69809W        W36350   9.749  23.199  10.631
69810W        W36351  32.727   1.451   0.377
69811W        W36352  41.957   2.662  11.168
69812W        W36353  43.952  33.362   2.533
69813W        W36354   2.370  33.494   0.533
69814W        W36355  20.360  37.586  12.406
69815W        W36356  41.068  39.760   2.022
69816W        W36357  30.615  35.037   4.635
69817W        W36358  28.547  40.848  13.516
69818W        W36359   9.710  35.020   3.222
69819W        W36360  17.985  10.571  12.030
69820W        W36361  10.275   4.500   3.850
69821W        W36362  12.910   8.742  14.869
69822W        W36363  33.493  21.465   5.328
69823W        W36364  31.602  21.940   3.750
69824W        W36365  31.345   2.415  14.533
69825W        W36366  20.716   0.992   4.637
69826W        W36367  11.889  11.942  13.989
69827W        W36368   5.287  10.668  11.184
69828W        W36369  14.157  38.879  11.140
69829W        W36370   7.749  22.297  12.100
69830W        W36371   4.369  40.314  11.524
69831W        W36372  30.904  17.244   9.979
69832W        W36373  28.681  37.073  13.265
69833W        W36374  37.850  13.765  11.258
69834W        W36375  26.053  10.577  12.417
69835W        W36376  11.239   3.718  11.879
69836W        W36377  44.410  29.359   2.502
69837W        W36378   9.305  18.813   1.435
69838W        W36379   5.228   5.702  13.986
69839W        W36380  23.039  13.226   1.941
69840W        W36381  28.226  17.093   1.287
69841W        W36382  20.112  32.339   1.853
69842W        W36383  27.718   6.692  14.204
69843W        W36384  11.755  38.621  11.953
69844W        W36385  30.586  37.897  11.551
69845W        W36386  26.998  15.749   1.904
69846W        W36387  25.491   3.675  14.731
69847W        W36388  37.291   3.571   0.707
69848W        W36389  13.565  27.449   4.056
69849W        W36390  38.936  25.903   3.126
69850W        W36391   5.687  30.228   4.992
69851W        W36392  13.836   9.868  12.521
69852W        W36393  12.812  42.537  11.410
69853W        W36394  14.536  28.137   2.305
69854W        W36395   1.434  44.546   0.760
69855W        W36396  16.731  16.055   4.203
69856W        W36397  43.902   8.359   1.835
69857W        W36398  22.086  29.232   2.688
69858W        W36399  32.580   4.212  10.635
69859W        W36400  22.551  30.201   1.264
69860W        W36401  18.592  25.852  13.869
69861W        W36402   7.282  44.971   1.618
69862W        W36403  43.233   9.251   1.080
69863W        W36404  43.985  24.641  11.562
69864W        W36405   4.122  41.652   3.805
69865W        W36406  29.846  18.713   4.819
69866W        W36407   3.949  32.631   4.387
69867W        W36408  43.292  24.967   3.662
69868W        W36409   9.021   3.155   4.185
69869W        W36410  23.011   3.416  14.498
69870W        W36411   8.906  27.002   1.720
69871W        W36412  23.244  30.685   2.826
69872W        W36413  25.601  28.691   1.396
69873W        W36414  40.981  24.626   4.010
69874W        W36415  38.826  17.166   3.731
69875W        W36416  18.530  28.215   0.276
69876W        W36417   7.302   4.129   3.333
69877W        W36418  33.690  42.328  13.925
69878W        W36419   0.191   3.593  12.511
69879W        W36420  33.663  42.776  12.834
69880W        W36421  22.402  22.623  10.685
69881W        W36422  21.733  17.697  14.496
69882W        W36423  12.194  13.101   0.017
69883W        W36424  17.971  28.534  10.585
69884W        W36425  11.183  18.326   2.051
69885W        W36426  33.628   3.275   3.193
69886W        W36427   8.269  38.511  12.179
69887W        W36428  10.128  13.758  14.786
69888W        W36429  11.664  40.051  12.863
69889W        W36430  28.052  21.267   1.435
69890W        W36431  42.746  23.579   1.908
69891W        W36432  21.799   8.208   0.842
69892W        W36433  17.161  12.700   2.614
69893W        W36434  12.541   3.442  12.568
69894W        W36435  37.728  10.342  10.593
69895W        W36436   1.316  43.444   2.962
69896W        W36437  35.072  12.180   0.846
69897W        W36438  35.076   1.563  11.049
69898W        W36439  13.370   2.009  10.263
69899W        W36440  21.884  25.688  14.095
69900W        W36441  30.070  24.400  13.054
69901W        W36442  21.637  15.080  13.473
69902W        W36443  28.966  32.722  10.880
69903W        W36444   2.349  44.342   0.741
69904W        W36445  34.366   6.135  10.276
69905W        W36446  39.445   6.104   4.346
69906W        W36447  43.909  23.495  14.949
69907W        W36448  20.615   3.255  14.459
69908W        W36449  38.198  44.224   2.167
69909W        W36450  40.946  10.950   3.452
69910W        W36451  22.302  40.834  11.738
69911W        W36452  35.490  21.714  14.426
69912W        W36453  43.773  29.660   3.177
69913W        W36454  25.652  20.748  10.913
69914W        W36455   6.869  37.033  13.656
69915W        W36456  25.155   5.130  13.501
69916W        W36457  11.789  43.334  12.471
69917W        W36458  29.985   9.396   1.369
69918W        W36459  24.359  12.793  11.892
69919W        W36460   6.733  19.214   3.726
69920W        W36461   2.398   9.055   3.262
69921W        W36462  19.974   7.381   2.852
69922W        W36463   1.866  17.604   0.348
69923W        W36464   3.617  42.537  14.960
69924W        W36465  41.493  30.246   4.154
69925W        W36466  24.941  26.202  11.626
69926W        W36467   8.601   0.310  12.074
69927W        W36468  43.926  16.625   3.326
69928W        W36469  25.250   0.912  11.516
69929W        W36470  36.320   6.846   1.808
69930W        W36471  15.126  18.966   1.963
69931W        W36472  28.697  18.299  11.035
69932W        W36473  43.808  40.417  10.637
69933W        W36474   2.422  40.429   1.584
69934W        W36475   3.307  23.509   4.616
69935W        W36476  29.428  33.931   0.298
69936W        W36477  34.478  34.865   2.744
69937W        W36478  31.188  20.061  14.912
69938W        W36479  33.290  20.095  13.592
69939W        W36480  29.715   6.811   2.680
69940W        W36481  35.317  12.763  11.496
69941W        W36482   0.041  11.714   0.684
69942W        W36483  32.752  21.291   1.001
69943W        W36484  30.968  29.152   4.889
69944W        W36485  35.984  20.757   2.344
69945W        W36486   8.682  18.534   4.991
69946W        W36487   7.414   5.941   3.660
69947W        W36488  40.384   1.960  13.428
69948W        W36489  35.313  20.108   4.361
69949W        W36490   3.802   5.488   4.215
69950W        W36491  10.298   7.344   1.192
69951W        W36492  25.181   5.663   2.096
69952W        W36493  26.285   1.297   4.815
69953W        W36494   6.282  24.572  14.627
69954W        W36495  31.652  18.155   0.575
69955W        W36496  23.626   0.978   0.419
69956W        W36497  42.918  17.959   4.637
69957W        W36498  13.684  27.412  14.068
69958W        W36499  21.080  35.634   4.881
69959W        W36500  29.241  25.208   3.310
69960W        W36501  13.033  40.068  12.952
69961W        W36502  39.002  34.651   1.180
69962W        W36503  41.331  15.110  14.693
69963W        W36504  14.891  35.424  14.248
69964W        W36505  14.669  37.611  14.472
69965W        W36506  17.827  18.549  10.937
69966W        W36507  26.774  32.591   0.256
69967W        W36508  41.469  14.012   2.169
69968W        W36509  37.672  34.071   3.395
69969W        W36510   9.729  42.483   1.418
69970W        W36511  35.251  30.858  13.775
69971W        W36512  41.594  35.930  11.628
69972W        W36513  21.333   2.733   4.847
69973W        W36514  10.080  18.854   0.136
69974W        W36515  12.714   9.221   1.807
69975W        W36516   4.325   1.901   1.907
69976W        W36517  34.434  37.652   3.652
69977W        W36518   6.243  32.973   3.805
69978W        W36519  35.091  32.483   2.222
69979W        W36520   9.172   5.102   1.222
69980W        W36521  33.616  25.015  10.269
69981W        W36522  30.949  11.305  10.195
69982W        W36523  12.944  17.244   2.174
69983W        W36524  36.780  18.711   2.943
69984W        W36525  44.865  20.736   4.649
69985W        W36526  26.945  31.699   3.274
69986W        W36527  40.505   6.411  14.508
69987W        W36528  27.225  23.010  11.503
69988W        W36529  18.686  22.547  12.674
69989W        W36530  10.774  27.225   2.198
69990W        W36531  23.587  42.469  14.352
69991W        W36532   3.450  28.090   3.608
69992W        W36533  15.144  12.943   2.351
69993W        W36534  37.066  23.527  14.520
69994W        W36535  27.982  15.705   0.964
69995W        W36536  29.547  20.890  11.476
69996W        W36537   8.775   4.870   2.631
69997W        W36538   4.373  41.066   2.624
69998W        W36539  16.288  37.394   4.566
69999W        W36540  12.793  19.207  14.467
70000W        W36541  36.514  31.853  13.506
70001W        W36542  28.323  11.514  13.064
70002W        W36543  24.915  35.695  14.860
70003W        W36544  44.686  25.575  11.076
70004W        W36545   6.594  19.135   0.003
70005W        W36546  18.129  42.969  14.605
70006W        W36547  31.056  30.117   4.645
70007W        W36548  15.592   9.915  14.025
70008W        W36549  21.589  13.067   1.571
70009W        W36550  41.410  42.026  10.673
70010W        W36551  42.925  38.495  11.200
70011W        W36552  14.838  26.974  10.886
70012W        W36553   6.946  44.509   2.351
70013W        W36554   5.839   1.609  11.512
70014W        W36555  17.652  38.851  10.692
70015W        W36556  17.612  30.600   0.381
70016W        W36557   3.220  24.643  11.551
70017W        W36558  32.233  24.071   0.272
70018W        W36559   3.866   1.353  14.936
70019W        W36560   6.737  35.885   2.727
70020W        W36561  41.110  11.614   4.468
70021W        W36562  18.153  13.257   1.915
70022W        W36563  19.491  43.782  11.577
70023W        W36564  43.805  21.717  12.954
70024W        W36565  35.052  37.413  12.177
70025W        W36566  37.526  44.991   1.207
70026W        W36567  13.270  26.466  12.163
70027W        W36568  30.019  40.321  13.881
70028W        W36569   2.980  18.211  11.337
70029W        W36570  10.913  20.755   0.842
70030W        W36571   9.693  35.266  13.956
70031W        W36572  33.744  17.363  12.444
70032W        W36573  23.067  36.544   3.753
70033W        W36574   7.163  36.538  10.924
70034W        W36575   7.663  19.090  12.955
70035W        W36576  28.466   0.840  10.717
70036W        W36577  32.954  34.631  13.147
70037W        W36578   8.236  19.285  14.353
70038W        W36579  32.648   5.000   0.073
70039W        W36580  39.239  22.529   2.338
70040W        W36581  26.984  43.368  10.744
70041W        W36582  33.613  18.721  11.575
70042W        W36583  43.369  34.473  10.724
70043W        W36584  16.663  43.191   0.816
70044W        W36585  24.137  27.001  12.359
70045W        W36586  16.355  17.084   2.025
70046W        W36587  11.694   9.215  13.343
70047W        W36588  39.876   0.637  12.542
70048W        W36589   7.188  13.203  10.768
70049W        W36590  15.746   9.856  13.513
70050W        W36591  36.827  21.058  10.493
70051W        W36592  36.942  26.012  14.740
70052W        W36593   9.949  25.671   4.177
70053W        W36594  32.254  25.973   0.023
70054W        W36595   6.303  43.176  11.648
70055W        W36596  10.316   4.601  14.371
70056W        W36597  20.596  44.866   1.653
70057W        W36598  26.945  36.883   0.814
70058W        W36599  11.609  24.626  13.763
70059W        W36600   8.749  30.382  12.570
70060W        W36601  30.928   2.484  11.431
70061W        W36602  12.375   6.715  11.904
70062W        W36603  19.090  19.422   0.249
70063W        W36604  40.095  39.694  11.187
70064W        W36605  16.508   8.381  13.005
70065W        W36606  41.972  14.351   3.294
70066W        W36607  25.382  37.777   3.868
70067W        W36608   3.161   7.352  14.167
70068W        W36609  37.670   9.598  12.095
70069W        W36610  37.283  17.343  10.746
70070W        W36611  21.570  16.064   4.232
70071W        W36612  26.389   5.862  10.718
70072W        W36613  33.521  13.312   3.724
70073W        W36614  27.842  41.406  11.998
70074W        W36615  42.451   4.780  12.012
70075W        W36616  31.511   4.865  13.735
70076W        W36617  44.886  28.150   0.214
70077W        W36618  18.877   7.648   3.158
70078W        W36619  33.723   4.318   3.366
70079W        W36620  23.998  33.524  10.001
70080W        W36621  12.257  23.682   4.182
70081W        W36622  32.482  15.151   1.227
70082W        W36623  43.349  32.425   4.940
70083W        W36624   8.387   2.381   4.510
70084W        W36625   6.462   2.950  13.444
70085W        W36626  32.665   7.765  10.626
70086W        W36627  15.441  34.152  13.791
70087W        W36628  39.138  31.081   3.738
70088W        W36629  40.268   0.737   5.402
70089W        W36630  38.582  12.918   5.418
70090W        W36631   6.815  18.521  10.695
70091W        W36632  11.717  11.835  11.125
70092W        W36633  28.939  33.537  12.040
70093W        W36634  39.056  32.334  12.882
70094W        W36635  24.202  20.595  13.807
70095W        W36636  20.728  18.054   3.466
70096W        W36637   0.266  40.410  12.350
70097W        W36638  38.763  20.216   5.011
70098W        W36639  39.949  40.314  12.073
70099W        W36640   6.313  22.734  10.297
70100W        W36641  43.230  28.921   0.273
70101W        W36642  20.992   8.994   4.917
70102W        W36643  37.549   3.698   4.553
70103W        W36644  22.577  28.421  12.449
70104W        W36645  26.009  12.871   1.518
70105W        W36646  15.413  28.095   4.068
70106W        W36647  10.750  22.711   2.867
70107W        W36648  34.811  31.929  12.094
70108W        W36649  10.162  42.225  11.095
70109W        W36650  29.067  23.515   2.179
70110W        W36651  13.823  27.273  14.950
70111W        W36652  30.233  34.819   2.425
70112W        W36653  24.972  10.646  13.048
70113W        W36654  17.791   7.248  12.988
70114W        W36655  17.080  21.469  11.687
70115W        W36656  10.917   5.630  13.145
70116W        W36657  30.752  25.438   2.670
70117W        W36658   7.300   5.729  13.575
70118W        W36659  17.273  23.265   4.029
70119W        W36660   3.173  12.449   1.232
70120W        W36661  42.420  11.205  11.865
70121W        W36662  26.582   2.522  10.782
70122W        W36663   5.292  27.226   4.667
70123W        W36664   8.238  37.130  12.624
70124W        W36665  42.902   9.997   0.757
70125W        W36666  20.704  31.263   0.175
70126W        W36667   2.876  25.546  11.458
70127W        W36668  12.121  32.462  10.489
70128W        W36669  15.138  32.137   1.381
70129W        W36670  37.629  10.598  12.119
70130W        W36671   0.302   9.146   1.734
70131W        W36672  24.182  22.011  11.939
70132W        W36673  27.255  37.639  13.962
70133W        W36674   7.086  36.120   2.418
70134W        W36675   1.441  41.848   3.687
70135W        W36676  30.121  18.871   1.796
70136W        W36677  33.674  36.938  13.441
70137W        W36678   6.914  14.915   2.942
70138W        W36679  18.909   0.600  11.983
70139W        W36680  35.536  24.047   1.933
70140W        W36681   5.339  39.625   3.111
70141W        W36682   3.256  38.377   0.912
70142W        W36683   8.892  10.235  11.627
70143W        W36684  13.620  42.593   4.610
70144W        W36685  25.701  21.783   1.729
70145W        W36686  38.664  20.732  11.671
70146W        W36687  17.730   5.450   3.214
70147W        W36688  37.502  35.930   3.193
70148W        W36689  37.523  15.023   0.841
70149W        W36690  18.250  34.036   2.228
70150W        W36691  27.242  17.804   2.761
70151W        W36692  28.585  23.456   2.908
70152W        W36693   6.431  34.803  10.747
70153W        W36694   9.584  33.794  11.116
70154W        W36695  41.779   2.649  14.343
70155W        W36696  37.380  17.605  12.396
70156W        W36697   7.442  28.447  12.047
70157W        W36698  18.182  35.023  12.548
70158W        W36699  33.917  23.569  11.168
70159W        W36700  25.959   3.910  12.979
70160W        W36701  35.397  23.492  14.909
70161W        W36702  16.622   0.885  13.456
70162W        W36703  15.224  33.593   3.640
70163W        W36704  30.614   5.525   4.601
70164W        W36705  14.736  40.365  12.447
70165W        W36706  12.867   3.715   1.443
70166W        W36707  44.162  39.426   1.962
70167W        W36708  31.571   1.767  10.670
70168W        W36709  13.232  10.860   3.167
70169W        W36710   2.485   1.694  11.728
70170W        W36711  13.633  23.767   0.556
70171W        W36712  31.324   9.788   5.196
70172W        W36713  32.958   8.227  14.340
70173W        W36714  22.526  19.695   1.486
70174W        W36715   5.146  40.346  13.877
70175W        W36716  29.591  39.850  10.764
70176W        W36717   6.657  40.916  14.248
70177W        W36718   0.206   2.005   3.281
70178W        W36719  18.223   7.506   2.249
70179W        W36720  40.273  15.477   4.950
70180W        W36721  22.551  21.049  13.384
70181W        W36722  40.031  28.962   0.787
70182W        W36723  36.399  36.400   0.424
70183W        W36724   8.038  22.877   3.286
70184W        W36725  32.953  29.371   4.062
70185W        W36726  44.363  37.351  11.702
70186W        W36727   7.963  26.523  12.445
70187W        W36728  21.007  20.935   2.297
70188W        W36729  11.820  31.652  12.630
70189W        W36730  27.629  38.159   0.965
70190W        W36731  24.121  20.294   0.830
70191W        W36732  40.830  27.285   0.902
70192W        W36733  30.055  17.138   4.810
70193W        W36734  10.147  28.457   4.064
70194W        W36735  37.838  30.263  12.442
70195W        W36736  24.828   9.787   5.309
70196W        W36737  42.093  26.998   3.315
70197W        W36738   2.360  33.967   9.991
70198W        W36739   8.621  31.372  12.648
70199W        W36740  10.701  41.074   1.533
70200W        W36741  34.017  23.149  14.869
70201W        W36742   0.043  16.783   0.592
70202W        W36743  10.406  32.514  14.992
70203W        W36744  20.167   1.535  11.687
70204W        W36745  39.653  37.232   4.194
70205W        W36746  32.584   3.474  10.746
70206W        W36747  27.098  30.029   3.657
70207W        W36748  27.376   6.920   4.309
70208W        W36749  13.597  25.444  11.519
70209W        W36750   9.120  16.879  12.090
70210W        W36751  17.720  30.975  12.932
70211W        W36752  16.055   4.414   3.179
70212W        W36753  24.239  31.637   0.262
70213W        W36754  12.818  35.007  13.429
70214W        W36755   9.276  22.741   3.486
70215W        W36756   5.628   8.751  11.175
70216W        W36757  42.950   3.059   3.661
70217W        W36758  40.486  20.437   0.198
70218W        W36759  21.932  14.355  12.552
70219W        W36760  23.523  26.909   1.778
70220W        W36761   2.206  32.639   0.445
70221W        W36762  16.844  14.994   0.995
70222W        W36763  31.599  38.126  11.491
70223W        W36764  21.695  38.731  10.700
70224W        W36765  25.459  21.812  14.599
70225W        W36766  39.007  27.510  12.444
70226W        W36767   3.519  26.184   0.370
70227W        W36768  13.569   9.848  11.154
70228W        W36769  28.352  16.618  11.010
70229W        W36770  26.616   7.684   0.038
70230W        W36771  44.822  33.560  11.105
70231W        W36772  20.231   7.838  12.226
70232W        W36773  37.137  26.537  10.674
70233W        W36774  21.108  21.939  13.364
70234W        W36775  14.046   6.722  11.538
70235W        W36776  44.488  34.567   3.590
70236W        W36777  10.908  38.015  14.219
70237W        W36778  25.703  15.303   4.441
70238W        W36779  13.894  20.063   4.138
70239W        W36780  24.428   9.661   3.896
70240W        W36781  18.076  12.176  14.287
70241W        W36782  31.960  30.056   3.640
70242W        W36783  42.006  39.845   2.636
70243W        W36784  27.749  17.507   4.439
70244W        W36785  28.129  17.217  12.433
70245W        W36786  40.343  42.958  10.729
70246W        W36787   5.759   1.834   3.938
70247W        W36788   1.899  37.880   4.689
70248W        W36789  37.857   4.066  10.606
70249W        W36790  14.110  32.661  13.555
70250W        W36791  19.647  43.530   2.770
70251W        W36792  37.989   7.701   1.319
70252W        W36793  30.336  36.960   0.803
70253W        W36794   3.756  23.246   4.548
70254W        W36795  13.317  12.409  13.470
70255W        W36796  17.865  37.270  12.040
70256W        W36797  21.762   4.814   2.437
70257W        W36798  42.007  40.076   0.637
70258W        W36799  16.616  29.974  10.323
70259W        W36800  25.420  13.793  10.977
70260W        W36801  38.990  17.720  11.815
70261W        W36802   6.442  14.006  14.408
70262W        W36803  20.817   3.847   0.906
70263W        W36804   2.387  43.578  14.519
70264W        W36805  19.938   7.338   1.249
70265W        W36806  41.481  11.230  10.454
70266W        W36807   1.893   2.422  11.831
70267W        W36808   5.563  43.738   1.480
70268W        W36809  12.349  24.669  13.478
70269W        W36810   9.765  37.284  13.078
70270W        W36811  11.589  19.972  12.856
70271W        W36812  35.962  20.085   1.793
70272W        W36813   0.463  38.009  14.696
70273W        W36814  10.285  20.055   2.782
70274W        W36815  29.595  39.421   4.822
70275W        W36816  16.316  13.891  10.879
70276W        W36817  23.067  10.312  14.464
70277W        W36818   5.234  44.220   3.805
70278W        W36819  23.180  13.484  13.995
70279W        W36820  32.906  19.007  13.361
70280W        W36821  43.530   4.344   1.743
70281W        W36822  27.722  14.101   4.710
70282W        W36823   4.610   7.952   0.724
70283W        W36824  39.440  40.043  11.707
70284W        W36825  19.654  41.012  11.169
70285W        W36826  29.589  15.047   0.474
70286W        W36827  33.009  41.952  14.967
70287W        W36828  31.242  11.901   4.078
70288W        W36829  28.834  12.833  14.201
70289W        W36830  17.353  21.243  11.255
70290W        W36831  22.105  10.793   2.859
70291W        W36832   6.252  17.312  13.940
70292W        W36833  28.076  21.047  11.096
70293W        W36834  21.121  37.825   2.618
70294W        W36835  23.579  23.179  13.483
70295W        W36836  13.581  28.213   1.636
70296W        W36837  15.266  31.100  12.868
70297W        W36838  12.212  21.057   2.968
70298W        W36839  27.558  32.768   0.444
70299W        W36840   4.249  22.486   2.210
70300W        W36841  30.839  18.191  13.507
70301W        W36842  10.562  34.034   0.028
70302W        W36843  31.445  10.327   1.328
70303W        W36844  27.798   8.671  10.669
70304W        W36845  17.057  36.013   4.045
70305W        W36846  20.057   0.672  12.728
70306W        W36847   3.746  17.229   4.884
70307W        W36848  26.622  42.212   3.165
70308W        W36849   8.292   3.400   0.567
70309W        W36850  20.499   6.506   4.163
70310W        W36851  41.357  24.052   1.956
70311W        W36852  33.668   6.067  14.923
70312W        W36853  39.820  16.184  13.032
70313W        W36854  28.511   5.404  11.432
70314W        W36855  27.806   0.322   0.842
70315W        W36856   6.736  31.125   1.288
70316W        W36857   4.483   1.029   3.165
70317W        W36858  11.364  34.510  14.852
70318W        W36859   4.091  30.697  10.231
70319W        W36860   2.712  14.030   1.774
70320W        W36861  30.349  14.766   1.853
70321W        W36862  24.269  33.550  11.095
70322W        W36863  20.707  27.763   3.667
70323W        W36864   3.352   2.602   2.224
70324W        W36865  12.687  13.128   0.824
70325W        W36866   5.284  16.182  14.852
70326W        W36867  21.647  27.677  14.965
70327W        W36868  12.797   9.398   4.470
70328W        W36869  24.736   7.631   2.622
70329W        W36870  30.587   3.902  12.555
70330W        W36871   8.816  31.474   3.378
70331W        W36872  26.145  24.472  11.138
70332W        W36873  11.011  29.333   0.984
70333W        W36874   0.995  43.472  14.438
70334W        W36875  11.386  30.646   0.300
70335W        W36876  41.474  14.990  13.219
70336W        W36877  37.639  25.988   2.016
70337W        W36878   3.881   5.714   4.961
70338W        W36879  16.987  25.211   1.375
70339W        W36880  33.357   0.304  14.826
70340W        W36881  29.629  19.660  12.524
70341W        W36882   2.769  36.409  12.202
70342W        W36883  29.005  28.885  14.226
70343W        W36884   5.771   0.039  13.057
70344W        W36885  41.331  29.172  11.978
70345W        W36886   1.367   0.710   1.375
70346W        W36887  33.122  17.582  14.007
70347W        W36888   6.805  26.699  14.833
70348W        W36889   8.344  29.753   2.771
70349W        W36890  42.542  14.115   1.803
70350W        W36891   4.886  28.438  10.475
70351W        W36892  33.029  41.552   4.139
70352W        W36893  31.453   9.172  13.960
70353W        W36894  14.316  33.864  10.496
70354W        W36895   7.704  12.995   0.291
70355W        W36896  29.798  15.220  13.545
70356W        W36897  16.678   1.814  10.689
70357W        W36898  13.606  43.779   0.905
70358W        W36899  40.564  26.169  11.939
70359W        W36900  28.542   4.767   0.178
70360W        W36901   6.210  38.243  13.488
70361W        W36902   2.059  20.576   3.338
70362W        W36903  38.065  25.982   3.286
70363W        W36904  28.154  17.793   4.258
70364W        W36905  39.339  10.748  14.789
70365W        W36906  38.399   1.813  12.916
70366W        W36907   4.861  24.000   3.082
70367W        W36908   9.245   3.519  12.662
70368W        W36909  10.032   4.950   3.702
70369W        W36910  18.564  29.679  12.019
70370W        W36911  22.750  26.451   1.263
70371W        W36912  41.247   0.636   4.664
70372W        W36913  42.926  30.643  12.927
70373W        W36914   0.520   4.889  10.728
70374W        W36915  37.920  40.989   0.454
70375W        W36916  41.743  20.253   0.793
70376W        W36917   2.936   7.426   4.790
70377W        W36918  39.730  30.143  14.500
70378W        W36919  42.849  14.527   0.057
70379W        W36920  27.803  29.101   4.087
70380W        W36921   7.291  24.782  10.113
70381W        W36922   5.517  12.860  11.850
70382W        W36923  29.022   9.103   2.693
70383W        W36924  30.714   5.467  12.812
70384W        W36925  15.084   9.897  12.905
70385W        W36926   4.292  27.133   1.502
70386W        W36927  14.250  10.465  10.459
70387W        W36928  11.773  41.975   2.715
70388W        W36929   3.899   4.711  13.865
70389W        W36930   1.062  41.817  13.609
70390W        W36931  10.534  30.010   4.302
70391W        W36932  12.544  24.215   0.009
70392W        W36933  37.571  11.364   2.951
70393W        W36934  43.483   9.709   0.399
70394W        W36935  32.300  15.079   2.166
70395W        W36936  17.211  22.505  11.662
70396W        W36937  39.372  27.959   4.844
70397W        W36938  26.988  24.857  11.488
70398W        W36939  24.989   2.211  12.544
70399W        W36940  19.260   8.125  12.603
70400W        W36941  36.659  15.598   4.127
70401W        W36942  13.366  14.857  12.957
70402W        W36943  14.276  43.962   1.757
70403W        W36944  22.630  36.373  11.579
70404W        W36945  22.524  23.924   1.971
70405W        W36946  20.903  21.458  13.346
70406W        W36947   7.447   7.294  12.292
70407W        W36948  12.771  21.429   0.728
70408W        W36949   2.825   6.788   2.232
70409W        W36950  21.228  17.166  11.748
70410W        W36951  37.352  17.245  14.551
70411W        W36952  14.697  19.162   3.661
70412W        W36953  31.529  42.711  14.735
70413W        W36954  29.070  40.312   2.328
70414W        W36955  19.772  41.603   4.185
70415W        W36956  18.584   9.291  14.198
70416W        W36957  15.763  10.694  12.966
70417W        W36958   7.939  14.262   1.687
70418W        W36959   5.817  33.747  14.388
70419W        W36960  14.301  32.685   0.785
70420W        W36961  19.179   6.849   5.207
70421W        W36962  14.661   6.892   1.718
70422W        W36963  30.435   2.968   2.410
70423W        W36964  29.575  44.246  13.541
70424W        W36965  20.983  38.842  11.206
70425W        W36966   9.669  10.053  12.190
70426W        W36967  32.072  18.422  13.891
70427W        W36968  21.037  29.302   2.058
70428W        W36969  12.601  38.077   0.384
70429W        W36970  34.400  20.165  10.618
70430W        W36971  22.338  37.858   2.212
70431W        W36972   8.585  28.367  14.978
70432W        W36973  36.089  17.659  14.379
70433W        W36974  18.648  42.582  12.917
70434W        W36975  33.021  36.874   1.320
70435W        W36976   2.909   6.300  13.843
70436W        W36977  21.116   0.708  13.616
70437W        W36978  25.305   5.186   3.660
70438W        W36979   4.182   8.319   0.864
70439W        W36980   5.716   0.786  11.192
70440W        W36981   8.151  43.913   4.161
70441W        W36982  32.720  44.282   3.299
70442W        W36983   3.867   5.944  11.257
70443W        W36984  23.393  20.837  13.610
70444W        W36985  20.397  17.655  11.431
70445W        W36986  29.729  33.599   2.673
70446W        W36987  43.920  23.929  11.115
70447W        W36988   2.521  31.123  14.760
70448W        W36989  33.099  34.586   1.316
70449W        W36990  30.782   1.692   0.359
70450W        W36991  32.359   3.876   1.377
70451W        W36992  34.171  36.835   1.659
70452W        W36993  31.228  21.264  14.532
70453W        W36994  31.514  12.400   0.444
70454W        W36995  24.227  42.976  11.957
70455W        W36996  26.156  20.254   3.713
70456W        W36997   3.594  40.395  10.816
70457W        W36998  28.394  44.736  14.861
70458W        W36999  34.474  23.121   1.068
70459W        W37000  43.453   4.391   3.459
70460W        W37001  31.966  29.067  12.416
70461W        W37002  40.975  35.661  14.124
70462W        W37003  28.589   2.002   3.371
70463W        W37004  15.755   7.328  11.553
70464W        W37005   0.481  23.478  10.793
70465W        W37006  43.427  36.804   2.427
70466W        W37007  18.448   6.443   1.756
70467W        W37008  10.083  26.172  11.146
70468W        W37009  38.846   0.198  13.646
70469W        W37010  44.794   1.763   2.749
70470W        W37011  32.048   1.047  14.676
70471W        W37012   1.503  22.118   4.658
70472W        W37013  34.420  18.844   0.187
70473W        W37014   0.857  12.247   2.956
70474W        W37015  27.089  33.995   0.283
70475W        W37016   3.879  28.255   1.249
70476W        W37017  12.848   8.139   3.798
70477W        W37018  27.047  10.804   2.666
70478W        W37019  23.680   1.491   0.521
70479W        W37020  12.345  30.617  11.981
70480W        W37021   1.454  33.829   3.293
70481W        W37022  20.134  40.500   2.255
70482W        W37023  25.702  15.108   1.510
70483W        W37024  40.498  15.464   5.449
70484W        W37025  39.906  13.064   3.077
70485W        W37026  25.176  32.446  10.768
70486W        W37027   8.139  22.642  12.502
70487W        W37028  44.967   1.708   1.859
70488W        W37029  14.278   9.836  10.655
70489W        W37030  38.627   7.569  12.102
70490W        W37031  36.821  39.549   3.005
70491W        W37032  36.343  28.688  14.442
70492W        W37033  16.473  20.075  12.760
70493W        W37034  44.361   0.721  10.253
70494W        W37035  24.213  21.763   1.822
70495W        W37036  34.903  38.914  13.141
70496W        W37037   1.840  22.175  12.532
70497W        W37038  22.693   3.535   3.064
70498W        W37039   4.773  13.264   4.237
70499W        W37040  38.305  37.265  14.662
70500W        W37041  34.583  23.687  12.509
70501W        W37042  30.811  20.547  12.048
70502W        W37043  32.908  21.098  14.046
70503W        W37044  16.875   3.875   4.285
70504W        W37045  23.212  14.105  11.113
70505W        W37046  32.949  43.510  14.920
70506W        W37047   3.342  39.628   4.542
70507W        W37048   0.305  42.037  13.398
70508W        W37049  20.901  42.785   2.276
70509W        W37050  18.500  43.123   0.804
70510W        W37051  38.431  39.861   1.822
70511W        W37052  40.301  25.678   3.231
70512W        W37053  28.656   9.146  11.094
70513W        W37054   3.935  11.125  13.730
70514W        W37055  44.512  13.962  10.085
70515W        W37056   0.373  41.401   3.765
70516W        W37057   2.244   5.957  14.383
70517W        W37058  17.219   1.924   2.840
70518W        W37059  22.009  26.334  12.949
70519W        W37060  34.551  12.356   4.659
70520W        W37061  24.660   4.849   2.621
70521W        W37062  13.284  37.367  14.770
70522W        W37063  34.003  26.124  14.896
70523W        W37064   1.451  28.429   4.948
70524W        W37065   1.762  21.088  13.770
70525W        W37066  11.314   1.372  13.041
70526W        W37067  23.137  14.627  11.006
70527W        W37068   3.883  31.245  14.931
70528W        W37069   1.360  16.806   3.247
70529W        W37070  43.207  10.444  12.786
70530W        W37071  18.764  34.826   3.204
70531W        W37072  32.028   2.258   5.057
70532W        W37073  38.080  15.211   3.826
70533W        W37074   4.274  20.248   0.307
70534W        W37075  33.014   6.859   0.669
70535W        W37076  40.433  14.064   3.616
70536W        W37077  17.304  35.914  10.767
70537W        W37078  17.701  38.825   2.297
70538W        W37079  11.077  38.018   1.662
70539W        W37080  13.127   9.148  12.404
70540W        W37081   4.469   1.509   1.618
70541W        W37082  23.250  21.765   0.718
70542W        W37083  17.777  11.135   4.786
70543W        W37084  21.443  10.903   2.801
70544W        W37085   4.792  37.575   1.646
70545W        W37086  12.772  38.228   4.156
70546W        W37087  18.990  20.187   3.373
70547W        W37088  31.895  19.225   3.908
70548W        W37089  27.456   3.925  12.516
70549W        W37090  35.588  20.983  14.822
70550W        W37091  22.654   6.331  11.187
70551W        W37092  23.717  37.760  13.127
70552W        W37093  27.972  43.366  14.503
70553W        W37094  30.745  32.867   3.218
70554W        W37095  22.647   6.584  10.729
70555W        W37096  28.724  25.237  11.929
70556W        W37097  31.396  15.338  10.870
70557W        W37098   6.874  15.959  11.180
70558W        W37099  17.328  28.725   0.500
70559W        W37100  17.623   4.676  10.774
70560W        W37101  12.302  12.818   1.982
70561W        W37102  41.541  27.033   4.740
70562W        W37103  30.970   4.696   2.831
70563W        W37104  26.887  22.657  12.505
70564W        W37105  36.082  18.688   2.368
70565W        W37106  44.845  33.604   0.521
70566W        W37107  31.625  41.221  14.975
70567W        W37108  13.974  27.124  12.933
70568W        W37109   7.163  23.797  14.975
70569W        W37110  11.941  34.408   1.228
70570W        W37111  43.135  42.494  11.958
70571W        W37112  20.988  16.537  12.940
70572W        W37113  23.203  13.236  10.745
70573W        W37114   3.779  13.672  14.429
70574W        W37115  17.012  39.868   2.010
70575W        W37116   0.396  35.455   3.766
70576W        W37117   7.856  21.328  13.455
70577W        W37118  43.301  15.488   2.341
70578W        W37119  14.819  29.090  12.899
70579W        W37120  15.348   8.718  13.621
70580W        W37121  19.494  35.075   4.105
70581W        W37122  21.508  23.056  12.678
70582W        W37123  14.336   1.994   1.362
70583W        W37124  10.119  26.573  13.546
70584W        W37125  35.502  13.203  11.234
70585W        W37126  44.953  23.967   2.493
70586W        W37127   6.187   8.835   1.281
70587W        W37128  15.854   5.844   2.396
70588W        W37129   8.322  26.416  12.911
70589W        W37130   4.867  41.350   2.589
70590W        W37131  14.239  32.524  11.839
70591W        W37132  16.838  27.847   3.219
70592W        W37133  44.337   8.557  14.228
70593W        W37134  24.034   8.279  10.901
70594W        W37135  35.009  26.766   3.381
70595W        W37136  24.683  39.965  12.630
70596W        W37137   8.646  11.122  13.063
70597W        W37138   6.236  16.307  13.350
70598W        W37139  31.157  19.326   0.799
70599W        W37140  22.569  30.040  13.835
70600W        W37141  24.048  13.265  14.482
70601W        W37142   7.472   0.363  14.809
70602W        W37143   2.469   9.191  13.910
70603W        W37144   8.195  21.698  13.565
70604W        W37145   8.901   4.360  12.098
70605W        W37146  40.498  10.532  14.241
70606W        W37147  20.835  27.313   1.310
70607W        W37148  17.011  44.868  12.584
70608W        W37149  14.300  28.068   0.994
70609W        W37150  29.735  41.487   0.748
70610W        W37151  28.148  21.088  12.088
70611W        W37152  10.220  17.612   3.707
70612W        W37153  25.411  12.617   0.806
70613W        W37154  34.052  24.493  12.150
70614W        W37155  19.174  35.285  11.614
70615W        W37156  25.275  28.121   4.876
70616W        W37157  10.816  19.280  14.578
70617W        W37158   2.805  16.152   1.329
70618W        W37159  28.669  28.616  14.521
70619W        W37160  21.196  44.464  13.771
70620W        W37161  30.243  17.540  11.586
70621W        W37162  25.165  32.587  12.907
70622W        W37163  44.413  37.253  11.204
70623W        W37164  35.363  31.370  14.350
70624W        W37165  37.458   8.381  11.455
70625W        W37166  27.670  35.203   2.238
70626W        W37167   9.117  41.871   5.080
70627W        W37168  28.597   4.895  11.368
70628W        W37169  18.994  34.942   2.714
70629W        W37170  19.447  33.911   0.412
70630W        W37171  30.051  21.020   3.137
70631W        W37172   6.631  39.276  12.232
70632W        W37173  38.039   1.895   2.857
70633W        W37174  43.929   0.368   3.733
70634W        W37175   6.145   3.508  13.799
70635W        W37176  14.847  12.067  10.103
70636W        W37177  30.109  41.773   0.939
70637W        W37178  31.205  36.082   3.721
70638W        W37179  44.367   0.950   4.721
70639W        W37180   8.937   3.204  12.988
70640W        W37181  38.527  31.639  11.844
70641W        W37182   7.841  32.568   3.534
70642W        W37183  13.196  35.436   4.556
70643W        W37184  44.829  30.633  12.424
70644W        W37185  12.189  13.969   3.587
70645W        W37186  18.302  31.559   2.937
70646W        W37187  12.875  26.046   0.192
70647W        W37188   9.403   1.994  11.261
70648W        W37189  32.399  16.097  10.737
70649W        W37190  41.319  40.474   0.134
70650W        W37191  42.482   9.369  13.422
70651W        W37192  28.079  13.683  14.040
70652W        W37193  33.594  21.792  13.116
70653W        W37194  31.127  15.545  10.203
70654W        W37195  34.619   7.799  14.308
70655W        W37196  38.127  13.040  14.571
70656W        W37197  32.913  27.435   3.311
70657W        W37198  11.281   4.726  12.631
70658W        W37199  39.938  25.792  14.749
70659W        W37200  10.105  25.182   4.512
70660W        W37201  20.749  29.921  10.691
70661W        W37202   0.067   0.216  13.564
70662W        W37203   5.893  39.815   5.438
70663W        W37204   7.174  40.282  14.031
70664W        W37205  44.853  19.764   2.777
70665W        W37206  35.270   6.413  11.994
70666W        W37207   9.658  38.855   1.202
70667W        W37208  23.805  12.605   2.661
70668W        W37209  38.806  38.374  12.427
70669W        W37210  14.313  15.111   2.372
70670W        W37211  32.519  11.387   0.867
70671W        W37212  34.249  25.286   1.925
70672W        W37213  24.583   9.951  14.413
70673W        W37214  29.665  31.143  13.349
70674W        W37215  36.349   1.901   9.839
70675W        W37216  34.941  38.849   1.721
70676W        W37217  22.444  38.822  13.722
70677W        W37218  36.638  42.378   3.712
70678W        W37219  11.740  16.732   2.016
70679W        W37220  27.592  42.743  11.442
70680W        W37221  23.040  39.737  14.304
70681W        W37222  21.005   0.676  14.506
70682W        W37223  27.239  21.193   1.721
70683W        W37224  13.153  42.386  12.942
70684W        W37225  26.295  29.547   3.488
70685W        W37226  34.030  33.017   4.580
70686W        W37227  36.308  41.160  11.582
70687W        W37228  33.696  18.626   3.223
70688W        W37229  24.545  38.383   0.412
70689W        W37230   3.458  44.897  13.235
70690W        W37231  27.992   2.956   2.766
70691W        W37232  31.521  32.216  11.904
70692W        W37233  34.172   3.892  12.083
70693W        W37234  25.168   5.570   1.221
70694W        W37235  41.574  22.166   3.267
70695W        W37236  44.155  11.726  12.255
70696W        W37237  27.558   2.181  11.051
70697W        W37238  38.974  12.830  10.685
70698W        W37239  41.977  12.929  14.958
70699W        W37240  18.854  29.993   3.803
70700W        W37241  41.484  41.933   3.414
70701W        W37242  29.571  21.154  12.361
70702W        W37243  20.214   7.763   3.597
70703W        W37244   2.843  34.797  14.306
70704W        W37245   0.433  22.211  12.882
70705W        W37246  36.565  40.509  10.504
70706W        W37247  34.082  32.139   0.215
70707W        W37248  25.247  36.654  12.650
70708W        W37249  16.565  15.798   1.403
70709W        W37250  13.312  36.824  11.559
70710W        W37251  37.241  16.082   0.859
70711W        W37252  35.575  36.892   1.781
70712W        W37253  40.797  32.039  14.259
70713W        W37254  39.762  44.445   3.331
70714W        W37255  21.471  16.616   4.661
70715W        W37256  40.788  39.355   2.248
70716W        W37257  10.790  13.327  13.119
70717W        W37258  18.046  37.502   4.165
70718W        W37259  24.195  39.655  11.835
70719W        W37260  11.208  42.719  12.260
70720W        W37261  38.921  10.827  11.585
70721W        W37262  36.972   2.307  10.200
70722W        W37263  24.122   4.764  13.370
70723W        W37264   8.699  40.359   2.071
70724W        W37265   1.200  42.574  10.596
70725W        W37266  41.481  22.286   0.787
70726W        W37267  42.820  36.548   0.868
70727W        W37268  14.090  11.730  10.592
70728W        W37269   4.421   0.793  12.454
70729W        W37270   4.265  26.177   3.134
70730W        W37271  43.507  40.957   0.440
70731W        W37272  41.562  14.837   3.939
70732W        W37273  18.322  13.619   1.381
70733W        W37274   8.199  15.856  10.794
70734W        W37275  36.826  13.683  13.516
70735W        W37276   2.393  14.498   4.168
70736W        W37277   9.744  23.595  10.960
70737W        W37278  42.046  32.877  14.490
70738W        W37279   4.872  41.590  13.442
70739W        W37280  36.815  13.404   3.739
70740W        W37281  18.801  36.816  12.183
70741W        W37282  15.658  20.948  14.067
70742W        W37283  43.365  44.739  13.941
70743W        W37284  21.989  38.196  13.289
70744W        W37285  20.207  22.394  10.272
70745W        W37286  43.547  18.083   0.926
70746W        W37287  24.585  37.581   1.466
70747W        W37288   0.277  31.584  12.504
70748W        W37289  21.036  39.521  10.711
70749W        W37290  23.440   3.273  13.162
70750W        W37291  44.330   0.756   3.665
70751W        W37292  29.269  40.028  13.468
70752W        W37293  34.737  12.911  10.420
70753W        W37294   9.750   5.920  12.462
70754W        W37295  25.618  16.261  11.135
70755W        W37296  13.628   8.826  12.010
70756W        W37297  13.514  20.167  14.898
70757W        W37298   7.244  13.808   2.430
70758W        W37299  16.322  20.479  13.027
70759W        W37300  15.640   4.299   0.813
70760W        W37301  27.163  28.492  14.166
70761W        W37302  29.369  20.531   1.045
70762W        W37303   5.298  24.267   1.712
70763W        W37304   6.944  24.286  10.742
70764W        W37305  29.310  26.672  13.045
70765W        W37306   6.132   3.594  10.287
70766W        W37307   5.371  43.927   2.345
70767W        W37308  30.651  21.024  11.647
70768W        W37309  30.778  17.558  10.504
70769W        W37310  40.601  13.851   0.336
70770W        W37311  17.347   7.722   2.351
70771W        W37312  18.558  22.724  10.743
70772W        W37313  25.273  12.736  11.552
70773W        W37314  28.376  14.369   4.114
70774W        W37315  13.014  30.180  11.528
70775W        W37316  22.072  44.415  10.419
70776W        W37317  11.595  21.406   4.280
70777W        W37318   8.940  31.541   1.909
70778W        W37319  40.828  17.044  13.162
70779W        W37320  44.142  21.987   0.350
70780W        W37321   0.914  44.326  13.336
70781W        W37322  21.583  15.346   0.867
70782W        W37323   6.431   1.227  14.804
70783W        W37324  22.812  44.531   3.308
70784W        W37325  17.690   2.221   3.550
70785W        W37326  10.783  11.391   1.247
70786W        W37327  42.754  36.595   1.748
70787W        W37328  17.290  37.715  14.411
70788W        W37329  35.442  18.047  13.836
70789W        W37330  40.983  31.743   3.243
70790W        W37331   9.882  27.116   2.315
70791W        W37332  44.349  36.814   4.557
70792W        W37333  40.598  40.857   3.266
70793W        W37334  23.160   0.946  14.754
70794W        W37335   7.692  18.583  11.866
70795W        W37336  12.312  30.869   0.225
70796W        W37337  12.895   5.519  14.049
70797W        W37338  18.611  32.978  10.059
70798W        W37339   4.820  19.236  10.498
70799W        W37340   6.313  19.419   3.368
70800W        W37341  40.808  40.395   0.346
70801W        W37342  29.021   9.973  11.108
70802W        W37343  15.515   8.398  14.416
70803W        W37344  27.202  10.676  10.575
70804W        W37345  31.552  19.057  13.814
70805W        W37346  29.374  11.715  13.790
70806W        W37347  10.119  26.566  14.460
70807W        W37348  21.053  36.883   0.240
70808W        W37349  12.197  28.094  10.722
70809W        W37350  40.908  15.923   2.078
70810W        W37351  21.686  21.798  12.058
70811W        W37352  27.618  14.386  12.638
70812W        W37353  27.193   5.935   2.640
70813W        W37354  31.407  40.865  10.757
70814W        W37355  28.194  22.620   2.744
70815W        W37356   2.293   5.453  12.512
70816W        W37357  37.504  12.320  13.643
70817W        W37358   2.724  25.934   3.126
70818W        W37359  28.426  31.125   4.117
70819W        W37360  41.961  20.711  10.643
70820W        W37361  26.460   6.441   2.347
70821W        W37362  19.987  44.810  13.893
70822W        W37363  35.974   9.513   2.031
70823W        W37364  25.127  41.063   1.290
70824W        W37365   4.288  17.025  14.733
70825W        W37366  32.016  18.421   5.079
70826W        W37367  21.103  39.059   3.098
70827W        W37368  11.197   4.388  10.677
70828W        W37369  25.821  28.974   0.986
70829W        W37370  17.504  30.247  12.527
70830W        W37371  31.343  20.046   4.265
70831W        W37372  30.585   1.233   0.515
70832W        W37373  16.576  39.025  14.428
70833W        W37374   9.258   9.202   3.890
70834W        W37375  38.300   8.420  12.098
70835W        W37376  32.909  28.500   4.095
70836W        W37377  17.251  21.917   0.752
70837W        W37378   9.263   2.703   0.252
70838W        W37379  12.585  28.037   1.143
70839W        W37380  10.252  39.006   0.795
70840W        W37381  26.456  34.634  14.866
70841W        W37382  35.952   0.183   1.913
70842W        W37383  31.879  25.550   2.718
70843W        W37384  15.101  41.007  14.853
70844W        W37385  33.352  16.718   3.328
70845W        W37386  14.399   8.594  11.527
70846W        W37387  27.179  22.500  11.528
70847W        W37388   1.468   9.187   0.845
70848W        W37389  26.359  27.794  10.665
70849W        W37390  38.276   1.875  13.423
70850W        W37391  23.041  37.581  11.966
70851W        W37392  36.908  32.729   0.779
70852W        W37393   5.467  22.550   1.508
70853W        W37394  15.055  11.352  14.505
70854W        W37395   0.721   5.884  11.234
70855W        W37396  31.644  33.807  11.087
70856W        W37397  43.278  42.893  11.641
70857W        W37398  31.008  16.863   3.678
70858W        W37399  22.539   4.893  11.149
70859W        W37400  18.307  37.061   2.337
70860W        W37401  32.108  41.839   4.537
70861W        W37402  22.420  22.827   1.272
70862W        W37403  20.480  22.940   0.295
70863W        W37404  32.100  32.694   4.543
70864W        W37405  21.434  43.367   0.786
70865W        W37406  34.064  25.086   4.573
70866W        W37407  15.065  26.892   3.640
70867W        W37408  14.727  40.884  12.348
70868W        W37409  38.803  27.915  12.876
70869W        W37410  32.567  19.518   4.141
70870W        W37411  15.981  21.010   1.498
70871W        W37412  21.376  33.857  13.544
70872W        W37413  35.815  24.162   1.255
70873W        W37414  27.242   0.418  11.236
70874W        W37415  37.300  27.059   1.512
70875W        W37416  31.411  23.382   0.418
70876W        W37417  22.486  20.551   2.094
70877W        W37418  22.934  25.632   2.394
70878W        W37419   2.496  11.743  11.981
70879W        W37420   0.125  10.650   1.324
70880W        W37421   7.684  42.920  14.545
70881W        W37422  23.316  26.413   4.126
70882W        W37423   7.527  36.000  10.953
70883W        W37424  29.430  42.768  13.377
70884W        W37425  24.114  25.725   1.859
70885W        W37426  40.960  26.039   1.130
70886W        W37427   1.480  18.936  11.045
70887W        W37428  15.233  22.234  11.815
70888W        W37429   1.687  27.918   0.416
70889W        W37430  25.609  41.409  14.092
70890W        W37431   5.998   6.410  14.718
70891W        W37432  35.456   5.009  14.866
70892W        W37433  34.941  22.637   2.708
70893W        W37434  29.762  42.315  14.942
70894W        W37435  24.606  32.186  14.477
70895W        W37436  42.813  38.088   4.181
70896W        W37437  21.633  23.562   4.119
70897W        W37438  19.507  36.876   1.836
70898W        W37439   0.821   2.334   0.800
70899W        W37440  32.901  18.875   1.583
70900W        W37441  13.077  21.224   3.207
70901W        W37442  39.535  32.392  14.494
70902W        W37443   3.383  33.506  13.945
70903W        W37444  30.239   5.439  12.635
70904W        W37445  24.293  44.003  14.933
70905W        W37446   6.097  12.788  12.100
70906W        W37447  18.614  10.353   1.319
70907W        W37448  34.053   0.911   1.508
70908W        W37449  44.564   6.379  10.329
70909W        W37450  41.575  36.791  11.725
70910W        W37451   2.698  20.056  11.580
70911W        W37452  37.993  35.882   2.883
70912W        W37453  33.060   4.396  10.805
70913W        W37454  41.791  40.433   1.434
70914W        W37455   3.287   7.233   3.688
70915W        W37456   7.229  19.486   3.265
70916W        W37457  34.599  30.471  11.092
70917W        W37458  36.105  25.520   4.138
70918W        W37459  39.660  11.678  13.308
70919W        W37460   8.236  12.654   3.111
70920W        W37461  29.145  23.820   4.533
70921W        W37462  20.996  41.875   4.104
70922W        W37463  11.650   0.734  13.422
70923W        W37464  17.222  27.150   0.237
70924W        W37465  31.743  16.817   4.629
70925W        W37466   1.875   9.758   1.320
70926W        W37467  25.104  29.368   0.279
70927W        W37468  14.371  32.306  12.315
70928W        W37469   7.325   4.944  14.012
70929W        W37470  20.212  19.236  12.030
70930W        W37471  26.431  37.001   1.703
70931W        W37472   2.898   2.388  12.899
70932W        W37473  12.022   0.292   4.201
70933W        W37474  16.610  29.590   2.757
70934W        W37475  20.282  27.417   4.051
70935W        W37476  14.432  16.882  12.553
70936W        W37477  11.422  29.650   0.943
70937W        W37478  24.986  42.631  11.211
70938W        W37479  40.438  13.183   4.011
70939W        W37480  24.254  39.467   2.311
70940W        W37481  23.179  20.495  13.969
70941W        W37482   3.391  29.036  11.094
70942W        W37483  39.389  40.118   1.637
70943W        W37484   8.135  27.666  14.380
70944W        W37485  23.805   7.833  14.688
70945W        W37486   2.974  11.778  14.763
70946W        W37487  29.148  34.358   1.188
70947W        W37488  36.671  11.312   1.725
70948W        W37489  21.665  20.483  14.072
70949W        W37490  21.649   7.401  11.998
70950W        W37491  12.543  31.142  10.744
70951W        W37492   1.494   3.259   3.616
70952W        W37493   2.907  11.137  11.632
70953W        W37494   0.983  20.753  11.480
70954W        W37495  27.623  19.657   3.804
70955W        W37496  36.513  42.025   0.186
70956W        W37497  27.759  39.358   3.407
70957W        W37498  18.146  20.970   2.406
70958W        W37499  33.400  29.424  12.152
70959W        W37500  39.954  38.825   2.611
70960W        W37501  18.272  24.275   3.065
70961W        W37502  30.955  22.413  10.281
70962W        W37503  16.279  43.229   0.320
70963W        W37504  25.175  32.700   4.580
70964W        W37505  11.870  38.928  13.675
70965W        W37506  30.085  40.416   0.727
70966W        W37507  21.019   9.519   3.532
70967W        W37508  30.565  32.286   4.170
70968W        W37509  21.784  29.203  13.977
70969W        W37510  24.737  11.593  11.578
70970W        W37511   1.533   2.375  12.203
70971W        W37512  16.063   6.832  14.363
70972W        W37513  36.165  17.636   2.628
70973W        W37514  16.545   7.617   0.473
70974W        W37515  41.861  22.862   1.603
70975W        W37516   0.585  38.839   1.200
70976W        W37517  44.752  12.443  11.156
70977W        W37518   6.230  32.152   4.974
70978W        W37519  34.465  29.953   4.238
70979W        W37520   8.819   3.900  10.827
70980W        W37521   6.651  42.432   1.884
70981W        W37522   9.392  31.814   1.834
70982W        W37523  12.135  42.265   0.720
70983W        W37524  34.873  19.727   0.392
70984W        W37525  24.563  23.771   4.047
70985W        W37526  27.460  20.040  11.736
70986W        W37527  13.995   0.302  10.430
70987W        W37528  31.587  19.777   4.649
70988W        W37529   4.711  30.951  14.863
70989W        W37530  43.824  27.493  12.018
70990W        W37531  20.705  37.994   4.365
70991W        W37532  16.201  29.026  13.579
70992W        W37533   1.790  35.457   4.651
70993W        W37534  22.961  17.494   1.086
70994W        W37535  22.001  35.619  12.571
70995W        W37536  39.556   1.121   3.448
70996W        W37537  23.833   8.751   2.207
70997W        W37538  43.217   9.203  12.130
70998W        W37539   4.313  28.068  14.244
70999W        W37540   4.625  23.345   2.320
71000W        W37541  34.571  10.057  12.673
71001W        W37542   5.586  42.451  11.452
71002W        W37543   3.823  27.231   1.857
71003W        W37544  10.702  42.776  12.076
71004W        W37545  34.318  33.922   1.728
71005W        W37546  42.802  16.393   2.162
71006W        W37547  25.910  29.398   3.075
71007W        W37548  23.298  31.520   1.771
71008W        W37549  23.162  15.888  11.796
71009W        W37550   5.330  33.867   4.584
71010W        W37551  31.488  30.914   3.649
71011W        W37552  34.956   4.884   4.651
71012W        W37553  44.530  10.602   1.686
71013W        W37554  17.766   8.785  11.317
71014W        W37555  15.677  27.497  14.395
71015W        W37556   6.544  25.141  14.863
71016W        W37557  17.494  41.639   4.117
71017W        W37558  23.506  43.280   1.656
71018W        W37559  17.020  28.089   2.784
71019W        W37560  10.880  22.585   3.354
71020W        W37561   3.437  17.035   4.098
71021W        W37562   0.778   9.148   1.104
71022W        W37563   5.402   0.163   0.292
71023W        W37564  38.864  15.328   4.921
71024W        W37565  44.807   0.921  10.464
71025W        W37566  43.362  29.036   2.017
71026W        W37567  16.971  22.271   4.128
71027W        W37568  27.536  43.712  12.615
71028W        W37569  14.025  20.201   2.677
71029W        W37570   1.373  37.930   4.489
71030W        W37571   6.911   3.257   2.814
71031W        W37572   8.214  13.630   2.736
71032W        W37573   8.234   0.939  11.931
71033W        W37574  43.815  31.082  11.638
71034W        W37575  37.654  30.023   3.717
71035W        W37576  27.018  23.478  11.349
71036W        W37577  10.405  39.436  12.728
71037W        W37578   2.086  44.297  10.583
71038W        W37579  32.161  35.516  14.354
71039W        W37580  24.872  19.740  12.292
71040W        W37581  27.707  20.763  10.740
71041W        W37582   8.093  42.899   3.556
71042W        W37583   8.682  26.233  10.849
71043W        W37584  36.355   8.816  12.702
71044W        W37585  24.108  32.174   1.901
71045W        W37586  38.897  15.388  10.614
71046W        W37587  10.315   4.377   1.025
71047W        W37588  37.842  26.631  12.271
71048W        W37589  40.944  44.752  10.975
71049W        W37590   9.935  44.602   4.398
71050W        W37591   7.922  29.453  14.538
71051W        W37592  28.335   8.232   1.844
71052W        W37593   0.912  16.180   1.997
71053W        W37594  30.427  43.586  14.865
71054W        W37595  12.089  15.978   1.181
71055W        W37596   2.686   4.301  12.938
71056W        W37597  32.435  10.418   3.155
71057W        W37598   5.349  22.537   4.280
71058W        W37599  11.967  11.971  11.588
71059W        W37600  15.247   5.274   2.666
71060W        W37601   2.916   8.439  12.045
71061W        W37602  37.317  25.179   4.398
71062W        W37603   3.385  33.747   0.792
71063W        W37604   9.588  42.492  12.002
71064W        W37605  22.582  40.712   0.575
71065W        W37606  36.420  27.618  10.730
71066W        W37607  39.906  41.519   1.928
71067W        W37608  15.900  43.099  13.078
71068W        W37609  29.010  30.412   0.928
71069W        W37610  20.688  24.940   4.818
71070W        W37611  25.591   6.138   1.938
71071W        W37612  22.050  43.261  14.383
71072W        W37613  32.135  29.526   2.235
71073W        W37614  13.765   4.229  14.528
71074W        W37615  34.121  26.701  13.865
71075W        W37616  33.562   6.726   2.039
71076W        W37617  37.450   4.134   1.968
71077W        W37618  15.753  13.126  10.737
71078W        W37619  30.795  24.692   1.325
71079W        W37620   4.433  38.834   0.312
71080W        W37621  15.007  42.054  14.885
71081W        W37622   5.743  28.738   4.104
71082W        W37623   7.438  24.779   3.933
71083W        W37624  10.726  11.691   3.715
71084W        W37625   2.680  44.646  12.907
71085W        W37626   4.857  38.093  10.224
71086W        W37627  18.755  11.773  13.279
71087W        W37628  19.128  13.848   0.404
71088W        W37629  43.872  35.464  13.384
71089W        W37630  23.656   1.178   2.805
71090W        W37631  21.189   3.144   3.182
71091W        W37632  14.811  11.235   3.614
71092W        W37633  37.938  36.155   0.392
71093W        W37634  23.957   2.331  11.008
71094W        W37635  31.931   3.417   1.953
71095W        W37636  35.328  33.585  11.022
71096W        W37637   5.309  24.661  13.738
71097W        W37638   4.939  16.745  10.655
71098W        W37639   4.281  27.594  10.933
71099W        W37640  43.374  24.205  14.365
71100W        W37641  40.315  17.113   0.965
71101W        W37642  34.576  10.328  10.513
71102W        W37643  23.247  42.835   4.248
71103W        W37644  19.100  19.300  13.977
71104W        W37645  41.146  32.054  10.301
71105W        W37646  13.776  20.287   3.117
71106W        W37647  30.149  12.807  12.036
71107W        W37648  40.968  30.463   4.720
71108W        W37649  35.568  15.569  14.502
71109W        W37650  28.630  33.556   2.683
71110W        W37651  16.192  10.872  11.723
71111W        W37652  14.193  29.355   3.150
71112W        W37653  37.269   0.153   1.808
71113W        W37654   7.350  43.888  11.629
71114W        W37655  26.896  20.811   1.817
71115W        W37656  29.040   3.768   4.160
71116W        W37657  38.057  28.712   0.278
71117W        W37658  30.348  19.729   4.154
71118W        W37659   6.019  28.511   1.750
71119W        W37660  12.924  24.190   1.637
71120W        W37661   4.336  24.551   4.568
71121W        W37662  21.615  14.789   0.894
71122W        W37663  23.125  38.309  14.294
71123W        W37664   1.097  20.091   1.318
71124W        W37665  22.436  21.747   1.833
71125W        W37666  29.016  12.866   3.586
71126W        W37667  11.932  24.237   1.873
71127W        W37668   7.959   4.831   4.143
71128W        W37669  17.651  40.246  11.286
71129W        W37670  16.849  42.326   0.056
71130W        W37671  13.763  19.788  11.203
71131W        W37672  30.610  34.944  13.817
71132W        W37673  28.116  32.935  13.889
71133W        W37674  41.318  33.390  14.550
71134W        W37675  40.407  26.846   4.649
71135W        W37676   3.651  11.487  13.492
71136W        W37677   8.228  28.640  11.680
71137W        W37678  37.090   1.336   4.035
71138W        W37679   0.431   7.192   1.892
71139W        W37680  22.784  34.410  11.288
71140W        W37681   0.367  39.456  13.503
71141W        W37682  28.423  24.051   0.330
71142W        W37683  15.719   9.634   2.951
71143W        W37684   5.565  38.444   5.371
71144W        W37685  33.585   5.891  14.395
71145W        W37686  10.351  32.895   2.560
71146W        W37687  43.651  15.102   2.309
71147W        W37688  28.148  26.143   0.491
71148W        W37689   5.264  39.403   4.519
71149W        W37690  33.523  30.507   3.208
71150W        W37691   1.344  24.180   4.984
71151W        W37692  30.124  20.922  12.510
71152W        W37693  44.201  19.070   1.719
71153W        W37694  37.954   0.378  12.160
71154W        W37695  32.139  23.126  14.786
71155W        W37696  10.870  40.020   9.826
71156W        W37697  38.065  29.410  10.734
71157W        W37698   4.664  24.556  12.357
71158W        W37699  11.377  32.938  13.913
71159W        W37700  24.010  25.517  13.059
71160W        W37701  20.452  12.123   2.689
71161W        W37702  44.265   7.965   2.681
71162W        W37703  35.383   5.739   4.234
71163W        W37704  18.709   6.742   4.322
71164W        W37705   3.764  22.533  10.702
71165W        W37706  16.643  17.357  12.932
71166W        W37707  14.641  38.660   3.201
71167W        W37708   5.911  22.339   3.443
71168W        W37709  35.155   1.231   2.279
71169W        W37710  37.376   9.697   4.314
71170W        W37711  21.257   0.352   2.757
71171W        W37712  24.664   7.041  11.092
71172W        W37713  24.673  15.221  14.770
71173W        W37714   7.236  21.627   1.085
71174W        W37715  15.417  17.943  11.033
71175W        W37716  33.833  44.849  12.613
71176W        W37717  29.778  31.156  14.225
71177W        W37718  17.023  12.787   0.816
71178W        W37719  26.550  21.578   1.676
71179W        W37720  36.073  32.081  13.402
71180W        W37721  19.108  13.124  10.304
71181W        W37722  31.380  27.239  12.456
71182W        W37723  24.743  27.747  14.449
71183W        W37724  11.256  26.397   2.260
71184W        W37725  11.125   6.665   0.323
71185W        W37726   0.343   1.515   3.277
71186W        W37727  13.846   7.875   4.494
71187W        W37728  43.424  25.002   4.638
71188W        W37729  22.707  27.965  14.117
71189W        W37730  42.740  22.600   1.071
71190W        W37731  25.888  44.612   4.074
71191W        W37732  32.429  32.139  13.099
71192W        W37733  44.467  23.741   2.913
71193W        W37734   4.872  33.375  11.079
71194W        W37735  43.757  12.870  13.919
71195W        W37736  12.025  17.820  12.511
71196W        W37737  26.574  39.217   0.092
71197W        W37738  38.841  38.821  11.085
71198W        W37739  11.952   9.321  12.906
71199W        W37740  44.738  41.111   1.245
71200W        W37741  31.594  11.258   3.164
71201W        W37742  34.245  37.796  12.376
71202W        W37743  34.411  29.618  14.905
71203W        W37744  13.204  18.082  13.754
71204W        W37745   5.192   1.203  13.915
71205W        W37746  27.713  18.102  13.895
71206W        W37747  21.800  28.035  12.607
71207W        W37748   0.317  31.636  11.627
71208W        W37749  43.918  39.319   3.071
71209W        W37750  34.529  32.659  12.435
71210W        W37751   0.296   8.151  12.494
71211W        W37752   2.072   3.691  12.680
71212W        W37753  15.806  25.060  10.401
71213W        W37754  18.143  29.065  10.793
71214W        W37755   0.889   8.085  13.722
71215W        W37756  17.773  13.581  13.960
71216W        W37757  40.863  29.554  10.716
71217W        W37758  43.324  19.800  14.308
71218W        W37759  12.052  10.100  13.741
71219W        W37760  10.160   3.266  14.500
71220W        W37761   3.768  30.157   0.356
71221W        W37762  37.826  43.789   3.973
71222W        W37763  23.525  28.050   2.365
71223W        W37764  10.860  18.537  12.553
71224W        W37765  31.068  29.385  11.015
71225W        W37766  15.345  14.520  14.134
71226W        W37767   5.275  12.121   2.802
71227W        W37768  22.994  42.021   4.745
71228W        W37769   5.791   1.733  12.012
71229W        W37770   0.309  20.914   4.887
71230W        W37771  22.738  41.081   2.683
71231W        W37772  16.263  42.235  13.918
71232W        W37773  18.308  24.175   4.614
71233W        W37774  16.772   8.389   0.001
71234W        W37775  13.325   3.112  13.007
71235W        W37776  31.224  23.028   1.386
71236W        W37777   7.266  37.606   0.932
71237W        W37778  12.458  10.856  14.531
71238W        W37779  32.509  20.200   3.352
71239W        W37780   8.193  31.528   4.071
71240W        W37781  27.305  21.759  13.494
71241W        W37782  30.470  42.978   3.676
71242W        W37783  24.548  21.170  11.137
71243W        W37784  44.768  39.718   2.818
71244W        W37785  20.760  42.792   3.135
71245W        W37786   1.268  27.963  14.504
71246W        W37787  28.117   8.209  11.472
71247W        W37788  14.877  13.804   1.913
71248W        W37789  18.761   5.163  11.906
71249W        W37790  32.600  18.557   3.176
71250W        W37791  21.509  10.124   0.030
71251W        W37792   6.245  37.728   0.380
71252W        W37793  21.811  36.822  12.748
71253W        W37794  16.698  23.309   1.766
71254W        W37795   2.760   1.417   0.413
71255W        W37796  21.183  14.823   0.258
71256W        W37797  28.024   9.894   2.691
71257W        W37798  22.495  17.718  12.092
71258W        W37799  21.148  32.400  14.300
71259W        W37800  11.138  20.965  12.000
71260W        W37801  42.561  43.617  11.695
71261W        W37802   9.115  12.173   2.775
71262W        W37803  32.451  38.650  11.728
71263W        W37804  32.857  41.432   0.334
71264W        W37805  30.882  42.242  10.471
71265W        W37806  13.419  42.548   0.346
71266W        W37807  39.836  19.801  13.582
71267W        W37808  13.952  42.334  14.044
71268W        W37809   9.739  26.238   3.376
71269W        W37810  14.903  40.961  11.849
71270W        W37811   4.784   9.683   1.495
71271W        W37812  38.550  16.720   1.710
71272W        W37813  37.411  17.331   0.389
71273W        W37814  25.061  20.627  10.483
71274W        W37815  41.885  19.134   2.023
71275W        W37816  15.110  10.102   1.952
71276W        W37817  33.354  11.603   3.430
71277W        W37818  39.897  40.970   0.705
71278W        W37819  22.047  16.210  11.445
71279W        W37820  42.092  19.963   3.380
71280W        W37821  41.443   2.716  11.603
71281W        W37822  15.571  17.968  11.544
71282W        W37823  23.486  17.750  12.054
71283W        W37824  20.027  42.715  14.318
71284W        W37825   9.989   8.672  12.056
71285W        W37826   6.265  38.931   1.202
71286W        W37827   5.768  44.792  12.623
71287W        W37828   5.449  19.746   3.523
71288W        W37829  32.201  18.740   0.397
71289W        W37830  44.924  39.940   1.261
71290W        W37831   6.480  28.094   3.135
71291W        W37832  17.919  34.622   0.311
71292W        W37833  31.217   3.055  13.429
71293W        W37834  43.541   9.287  11.744
71294W        W37835   9.450  15.836  12.776
71295W        W37836   7.978   1.870   3.915
71296W        W37837  31.051  13.933   5.714
71297W        W37838  44.482  39.854   2.056
71298W        W37839   5.770  10.833   1.429
71299W        W37840  16.252  36.959   2.170
71300W        W37841   9.660   0.537   4.539
71301W        W37842  28.044  29.794   4.018
71302W        W37843  25.135  43.116   2.584
71303W        W37844   0.478   8.658   3.609
71304W        W37845  11.050  21.180  10.670
71305W        W37846  41.001  15.412  12.469
71306W        W37847  30.208  33.427   3.570
71307W        W37848  19.554  28.668   1.214
71308W        W37849  31.675  19.125  14.930
71309W        W37850  44.344  29.194   3.037
71310W        W37851  32.289  44.213   1.099
71311W        W37852   4.793  27.959   2.716
71312W        W37853  31.922   7.519   3.237
71313W        W37854  24.072  42.599  14.278
71314W        W37855  25.477  31.402  12.478
71315W        W37856   2.281   0.444   3.644
71316W        W37857  30.799  32.606  13.844
71317W        W37858  26.250   9.857  11.416
71318W        W37859  14.788  12.788   2.715
71319W        W37860  29.232  27.369  11.184
71320W        W37861  11.756  11.872  14.943
71321W        W37862  10.171  39.409  13.383
71322W        W37863  17.905  34.350   2.854
71323W        W37864  33.274  41.300  14.434
71324W        W37865  18.686   0.145  12.030
71325W        W37866  44.437  15.018   4.894
71326W        W37867  43.008  16.790  14.754
71327W        W37868  35.138   4.975  10.593
71328W        W37869  36.391  22.708   4.094
71329W        W37870   1.214  17.461  14.287
71330W        W37871   7.813   4.974  10.919
71331W        W37872   3.147  15.288  10.322
71332W        W37873  25.325  26.912   4.856
71333W        W37874   0.855  35.080   2.668
71334W        W37875  11.935  30.436   0.319
71335W        W37876   5.231  36.059  11.581
71336ION    NA+37877  22.037  39.079  12.897
71337ION    NA+37878  13.036  11.169   4.069
71338ION    NA+37879  38.341  42.047  14.844
71339ION    NA+37880  34.741  32.120  13.973
71340ION    NA+37881  38.790  20.456   2.699
71341ION    NA+37882  44.191   3.907   4.989
71342ION    NA+37883  31.020   9.449  13.913
71343ION    NA+37884  32.188   0.829  11.105
71344ION    NA+37885  38.492  31.455   4.734
71345ION    NA+37886  42.040   0.235   4.198
71346ION    NA+37887  18.819  23.355  11.918
71347ION    NA+37888  13.306  22.326  13.253
71348ION    NA+37889  18.037  42.732  11.096
71349ION    NA+37890  15.565  22.053  14.859
71350ION    NA+37891  40.982   6.222   3.379
71351ION    NA+37892   8.945  31.544  14.896
71352ION    NA+37893  32.300  35.852   2.019
71353ION    NA+37894   6.441  33.723   4.529
71354ION    NA+37895  12.725  20.656  14.580
71355ION    NA+37896  43.018  34.127   2.339
71356ION    NA+37897  16.841   9.131   0.564
71357ION    NA+37898   8.855   1.984  14.263
71358ION    NA+37899   4.301  14.158   4.418
71359ION    NA+37900  11.690  43.639   4.354
71360ION    NA+37901  34.430  43.350   2.461
71361ION    NA+37902  18.961  29.706   0.360
71362ION    NA+37903  33.482  28.115   1.656
71363ION    NA+37904  12.343  17.650  13.919
71364ION    NA+37905  42.452  23.095   3.101
71365ION    NA+37906  34.406  40.436   1.215
71366ION    NA+37907  40.671  24.393  11.092
71367ION    NA+37908  29.521   0.681  14.904
71368ION    NA+37909  10.142  12.674   9.804
71369ION    NA+37910  39.835   2.291  11.202
71370ION    NA+37911  30.890   2.480  14.783
71371ION    NA+37912  37.302  42.141   3.299
71372ION    NA+37913   4.711   6.576   1.359
71373ION    NA+37914  29.913  14.543  12.975
71374ION    NA+37915  23.480  39.830  10.790
71375ION    NA+37916   0.052  30.975   2.570
71376ION    NA+37917  30.616  38.562   0.939
71377ION    NA+37918  25.165  20.665   1.358
71378ION    NA+37919  17.439  39.875   4.105
71379ION    NA+37920  41.266  16.227  12.944
71380ION    NA+37921  44.444  25.219   1.236
71381ION    NA+37922  44.142  44.480  10.796
71382ION    NA+37923  40.127  35.916  12.400
71383ION    NA+37924   6.557  34.841   1.296
71384ION    NA+37925   7.689  21.618  13.848
71385ION    NA+37926  41.885  17.422   4.307
71386ION    NA+37927  15.078   3.903   3.287
71387ION    NA+37928  42.858  23.199  12.439
71388ION    NA+37929  27.587  23.306  11.696
71389ION    NA+37930   1.815   1.454   0.202
71390ION    NA+37931  28.473  24.769  14.985
71391ION    NA+37932  28.021  32.771  10.830
71392ION    NA+37933  36.984   5.966   0.861
71393ION    NA+37934  42.920   6.305   2.210
71394ION    NA+37935  38.855   0.887   9.606
71395ION    NA+37936  31.629  43.751  13.543
71396ION    NA+37937  21.665  44.804   2.406
71397ION    NA+37938  15.845  29.149   2.923
71398ION    NA+37939  44.081  13.627  12.331
71399ION    NA+37940  38.234  24.610   3.001
71400ION    NA+37941  19.462  29.566  14.403
71401ION    NA+37942  13.480   4.290  11.406
71402ION    NA+37943  23.104  36.217  11.781
71403ION    NA+37944  29.996  36.988  11.634
71404ION    NA+37945  19.576  18.702   0.121
71405ION    NA+37946   4.658  24.511  14.259
71406ION    NA+37947  39.036   4.918  11.390
71407ION    NA+37948  10.750  11.901  10.926
71408ION    NA+37949   8.233   3.604  14.580
71409ION    NA+37950  42.457  32.098  10.831
71410ION    NA+37951  19.079  26.967  14.394
71411ION    NA+37952  26.077  31.909   4.157
71412ION    NA+37953  36.005  43.424   4.392
71413ION    NA+37954   9.059   2.848   4.659
71414ION    NA+37955  32.498  22.212  12.661
71415ION    NA+37956  37.609   7.841  13.372
71416ION    NA+37957  15.615  12.581   0.446
71417ION    NA+37958  44.080  26.139   3.045
71418ION    NA+37959  22.970  28.781   1.312
71419ION    NA+37960  35.382  35.738  11.403
71420ION    NA+37961   1.360   9.799   1.538
71421ION    NA+37962  15.533  44.098  14.288
71422ION    NA+37963  20.420  22.961   3.319
71423ION    NA+37964  36.405  41.880   0.747
71424ION    NA+37965  31.020  40.183  14.056
71425ION    NA+37966  16.306  14.028   1.464
71426ION    NA+37967  13.096  12.744  11.792
71427ION    NA+37968  26.175  20.935   0.276
71428ION    NA+37969  27.473   2.486  14.341
71429ION    NA+37970  40.960   7.637   4.660
71430ION    NA+37971  38.445  20.679   0.145
71431ION    NA+37972  14.364  44.968   1.775
71432ION    NA+37973  44.073  39.360   5.521
71433ION    NA+37974   5.964   6.953  13.849
71434ION    NA+37975  26.302   2.207  14.673
71435ION    NA+37976  40.602  36.292   0.624
71436ION    NA+37977  44.793  21.812  12.678
71437ION    NA+37978  17.953  26.641   4.837
71438ION    NA+37979  43.265  39.297  12.702
71439ION    NA+37980  14.306   1.676   4.219
71440ION    NA+37981  20.692  15.386  12.351
71441ION    NA+37982  16.866  16.968   0.698
71442ION    NA+37983  38.572  22.134   3.402
71443ION    NA+37984  21.815  39.861  11.393
71444ION    NA+37985  13.691  16.389  12.803
71445ION    NA+37986  41.496   2.057  12.954
71446ION    NA+37987  29.710  12.309  13.592
71447ION    NA+37988  36.441  44.496   4.142
71448ION    NA+37989  24.667   4.172   3.777
71449ION    NA+37990  29.533  11.363  11.202
71450ION    NA+37991  44.877  10.935   2.809
71451ION    NA+37992  18.051   6.911  13.317
71452ION    NA+37993  19.121  39.381   2.697
71453ION    NA+37994  41.487   6.277  11.570
71454ION    NA+37995   8.826  37.330  12.895
71455ION    NA+37996   6.643  18.615   0.104
71456ION    NA+37997  11.723  12.876   0.370
71457ION    NA+37998  14.764  18.036  12.622
71458ION    NA+37999  10.669   2.414  11.747
71459ION    NA+38000  26.501  15.154   4.132
71460ION    NA+38001  19.948  16.344   5.455
71461ION    NA+38002  22.655  35.623   0.616
71462ION    NA+38003  14.212  40.501  12.454
71463ION    NA+38004  26.847  36.910  13.964
71464ION    NA+38005  21.359  22.671   4.688
71465ION    NA+38006  41.379  44.777   3.788
71466ION    NA+38007   4.693  11.696  12.355
71467ION    NA+38008  37.164  39.254   4.182
71468ION    NA+38009  41.343   4.793  14.496
71469ION    NA+38010  27.742   9.374   1.605
71470ION    NA+38011  25.109  38.992  10.287
71471ION    NA+38012  34.757  26.863  12.215
71472ION    NA+38013  31.833  40.388   2.594
71473ION    NA+38014  43.112  40.031   1.278
71474ION    NA+38015  36.988   1.839   4.040
71475ION    NA+38016   0.807  25.007   0.060
71476ION    NA+38017  35.431  34.156   2.330
71477ION    NA+38018   1.151  27.052   2.535
71478ION    NA+38019  36.105  29.160   0.310
71479ION    NA+38020  33.106   4.273  14.710
71480ION    NA+38021  18.806   8.407   1.705
71481ION    NA+38022  36.859  44.956  13.419
71482ION    NA+38023  28.007   0.420   2.215
71483ION    NA+38024  25.319  35.590   4.417
71484ION    NA+38025  34.332  44.466  10.694
71485ION    NA+38026  29.144  24.516   1.397
71486ION    NA+38027  15.278  36.651   2.820
71487ION    NA+38028  24.809  28.983   1.053
71488ION    NA+38029  34.391  35.436  12.572
71489ION    NA+38030   2.645  13.208  13.885
71490ION    NA+38031  14.353  34.802   3.128
71491ION    NA+38032  14.281   4.246   2.077
71492ION    NA+38033  25.650   9.990  11.672
71493ION    NA+38034   3.787  26.329   1.481
71494ION    NA+38035   4.174   3.671   4.540
71495ION    NA+38036  25.446  35.054  11.828
71496ION    NA+38037   1.996   3.335   3.647
71497ION    NA+38038  26.573   6.134   1.913
71498ION    NA+38039  22.923  21.634   4.703
71499ION    NA+38040  41.959  26.052   2.907
71500ION    NA+38041   2.320  43.965   2.447
71501ION    NA+38042   1.940  33.103   0.846
71502ION    NA+38043  18.286  41.526   0.779
71503ION    NA+38044  33.290   1.792   0.321
71504ION    NA+38045  19.270  14.810  12.963
71505ION    NA+38046  44.535  33.432  11.526
71506ION    NA+38047  16.324  20.665   1.364
71507ION    NA+38048  22.243  22.384  14.882
71508ION    NA+38049  44.367   3.754   1.600
71509ION    NA+38050  15.742  10.872   4.748
71510ION    NA+38051  33.208  40.892  11.557
71511ION    NA+38052  32.584   9.886  13.056
71512ION    NA+38053  19.873  36.927   4.120
71513ION    NA+38054  13.080  31.987   1.458
71514ION    NA+38055  13.137  36.098  13.944
71515ION    NA+38056  42.029  10.407  11.934
71516ION    NA+38057  43.536  32.775   0.803
71517ION    NA+38058   9.197  24.590   1.224
71518ION    NA+38059   1.655   2.637  12.649
71519ION    NA+38060  30.093   6.387  14.070
71520ION    NA+38061  23.889  34.452  14.250
71521ION    NA+38062  26.785   1.170   4.045
71522ION    NA+38063  28.757  37.044  12.767
71523ION    NA+38064  19.117  28.343   1.910
71524ION    NA+38065   8.611  39.889   2.305
71525ION    NA+38066   7.333  16.031   2.201
71526ION    NA+38067  26.664  12.446   2.111
71527ION    NA+38068  12.604  12.987  14.629
71528ION    NA+38069   1.953  11.866  11.944
71529ION    NA+38070  30.376  24.700  12.444
71530ION    NA+38071  20.919  28.174  14.643
71531ION    NA+38072   2.249  29.065   4.846
71532ION    NA+38073   4.203  38.614   2.146
71533ION    NA+38074   8.425  10.115  14.174
71534ION    NA+38075   3.899  35.120   2.784
71535ION    NA+38076  30.386  42.734   2.049
71536ION    NA+38077   5.330   6.926  12.997
71537ION    NA+38078  26.248  40.818   3.453
71538ION    NA+38079  33.060  24.906  13.916
71539ION    NA+38080  33.134  17.278   4.375
71540ION    NA+38081  11.109  10.565   0.230
71541ION    NA+38082   7.962   1.640   1.571
71542ION    NA+38083  14.632  10.261   4.243
71543ION    NA+38084  22.103  19.800   2.642
71544ION    NA+38085  30.214  25.260  13.099
71545ION    NA+38086   0.240  35.356  12.299
71546ION    NA+38087   5.225  29.542   3.632
71547ION    NA+38088  30.849  16.014  13.321
71548ION    NA+38089  40.279  14.753   2.061
71549ION    NA+38090  34.721  14.122   4.086
71550ION    NA+38091  37.422  26.050  13.208
71551ION    NA+38092  31.230   7.167   4.629
71552ION    NA+38093  22.957   4.886  13.764
71553ION    NA+38094  44.838  35.053  14.900
71554ION    NA+38095  21.616  34.401   3.585
71555ION    NA+38096  40.034  25.049  11.848
71556ION    NA+38097  23.056  31.103   4.552
71557ION    NA+38098  28.451  14.087   3.647
71558ION    NA+38099   3.195  18.308  14.779
71559ION    NA+38100  32.788   6.885   1.183
71560ION    NA+38101  19.592  29.158  11.027
71561ION    NA+38102  43.930   9.381  13.193
71562ION    NA+38103  29.790  43.134  11.801
71563ION    NA+38104   5.475  11.064   4.480
71564ION    NA+38105   7.743  23.001  12.569
71565ION    NA+38106  40.839  38.532   3.379
71566ION    NA+38107  44.420  42.598  13.342
71567ION    NA+38108  30.538  30.821  10.375
71568ION    NA+38109  32.020   4.176  14.041
71569ION    NA+38110   5.927  34.726   2.263
71570ION    NA+38111  25.219  23.529  11.650
71571ION    NA+38112  38.175   5.923  14.649
71572ION    NA+38113  43.888  23.235  12.554
71573ION    NA+38114   4.066  34.151   2.552
71574ION    NA+38115  15.001   3.102   4.113
71575ION    NA+38116  44.577  21.580  14.923
71576ION    NA+38117   4.832  25.459  12.113
71577ION    NA+38118  14.994  32.265  13.691
71578ION    NA+38119  12.424  32.434   0.849
71579ION    NA+38120   7.217  33.354  11.274
71580ION    NA+38121  23.120  32.885   0.884
71581ION    NA+38122   7.400   1.063  14.302
71582ION    NA+38123  39.792  29.746   4.180
71583ION    NA+38124  12.994  23.042  11.149
71584ION    NA+38125  26.712  30.794  14.596
71585ION    NA+38126  32.154  34.962  11.506
71586ION    NA+38127   7.318  40.628   4.690
71587ION    NA+38128  42.418  43.285   4.563
71588ION    NA+38129  16.328  18.557  13.881
71589ION    NA+38130  36.114  33.067   4.196
71590ION    NA+38131   4.352  13.217   3.919
71591ION    NA+38132  20.749  42.434  11.492
71592ION    NA+38133  14.399  35.097   1.549
71593ION    NA+38134  20.154  41.745  11.905
71594ION    NA+38135   0.400  34.496  11.235
71595ION    NA+38136  19.457  32.108   4.129
71596ION    NA+38137   5.550   9.565  11.452
71597ION    NA+38138  14.244   9.101  11.616
71598ION    NA+38139  42.398   5.729   4.535
71599ION    NA+38140   9.654  44.774   1.707
71600ION    NA+38141  44.031   6.938   1.579
71601ION    NA+38142  42.077  14.211  14.775
71602ION    NA+38143  14.490  14.391  11.769
71603ION    NA+38144   5.827  10.303  11.756
71604ION    NA+38145   7.324  36.481   4.050
71605ION    NA+38146   8.318   5.513  13.358
71606ION    NA+38147  35.543  31.681   0.924
71607ION    NA+38148  12.221  13.818  14.521
71608ION    NA+38149  20.920  27.794   1.527
71609ION    NA+38150   7.523  26.367   2.771
71610ION    NA+38151  43.775  21.012  14.736
71611ION    NA+38152  34.344  32.610  11.955
71612ION    NA+38153  13.528  24.660  12.537
71613ION    NA+38154  18.837  21.855  11.635
71614ION    NA+38155  29.103   7.308  13.249
71615ION    NA+38156  16.560  21.706  12.463
71616ION    NA+38157  44.996   4.736  13.410
71617ION    NA+38158  40.336  23.063  14.069
71618ION    NA+38159  15.853  15.288   0.507
71619ION    NA+38160  41.525  22.156  11.926
71620ION    NA+38161  15.656  15.305  12.593
71621ION    NA+38162  23.540  41.062   3.094
71622ION    NA+38163  13.531  14.123  11.601
71623ION    NA+38164  36.438  26.345   3.449
71624ION    NA+38165  10.322  13.363  12.348
71625ION    NA+38166  34.706   0.193   1.340
71626ION    NA+38167  23.529  30.423   0.294
71627ION    NA+38168   6.049  18.600   3.820
71628ION    NA+38169  44.032  15.063  11.663
71629ION    NA+38170  15.610  35.023  14.517
71630ION    NA+38171  33.649  28.285  14.497
71631ION    NA+38172   8.179  25.888   1.459
71632ION    NA+38173  22.301   8.490  12.963
71633ION    NA+38174  30.376  13.205   2.590
71634ION    NA+38175  22.238   6.441   0.421
71635ION    NA+38176   7.462  32.128   0.915
71636ION    NA+38177  35.179  30.293   3.438
71637ION    NA+38178  21.692  35.454   1.350
71638ION    NA+38179  14.705  41.876  11.075
71639ION    NA+38180  37.458  23.029  11.352
71640ION    NA+38181  12.747  20.582  12.435
71641ION    NA+38182  40.500  24.893   0.748
71642ION    NA+38183  29.025  28.387   2.408
71643ION    NA+38184   2.786  23.136  13.382
71644ION    NA+38185  32.721  20.046  12.483
71645ION    NA+38186  18.090  40.014   1.969
71646ION    NA+38187  29.907   6.025   3.541
71647ION    NA+38188  36.952  41.570  13.139
71648ION    NA+38189  36.431  10.469   0.582
71649ION    NA+38190  18.657  41.491  14.401
71650ION    NA+38191   3.996   8.310   3.595
71651ION    NA+38192  35.493  42.365  12.025
71652ION    NA+38193  42.754  18.134   2.169
71653ION    NA+38194   4.384  28.994   1.241
71654ION    NA+38195   6.841   2.033   3.448
71655ION    NA+38196   2.215  36.850  13.801
71656ION    NA+38197   5.265  27.182  14.470
71657ION    NA+38198  37.798  41.328  10.711
71658ION    NA+38199  19.508  44.453   3.587
71659ION    NA+38200  36.959   3.257  13.650
71660ION    NA+38201  14.868  18.935   4.412
71661ION    NA+38202  13.043   2.550  11.881
71662ION    NA+38203   1.992  43.087   3.458
71663ION    NA+38204  25.269  24.473  13.402
71664ION    NA+38205  13.383  10.981  12.571
71665ION    NA+38206  10.505  26.523   5.155
71666ION    NA+38207  42.720  28.306  11.230
71667ION    NA+38208  23.694  26.044   5.189
71668ION    NA+38209  14.380  31.879   1.823
71669ION    NA+38210  34.628   5.986   1.735
71670ION    NA+38211  42.084  23.307  11.448
71671ION    NA+38212  10.949  13.602   3.610
71672ION    NA+38213   2.300   4.323   0.333
71673ION    NA+38214   4.800  31.066   0.392
71674ION    NA+38215   9.837  30.744  13.676
71675ION    NA+38216  22.186   5.714  13.298
71676ION    NA+38217  41.999   7.511   3.280
71677ION    NA+38218  10.100  13.886   3.165
71678ION    NA+38219   9.596  33.210  14.356
71679ION    NA+38220  29.616  34.932   4.358
71680ION    NA+38221  26.546  17.961   0.088
71681ION    NA+38222  32.022  14.827   1.272
71682ION    NA+38223   8.929   4.917  10.385
71683ION    NA+38224  26.271  26.414  13.689
71684ION    NA+38225  21.605  30.176  12.957
71685ION    NA+38226   5.598  22.387   3.841
71686ION    NA+38227  32.985  18.070  14.304
71687ION    NA+38228  31.562  39.572   4.165
71688ION    NA+38229  38.859  41.328   0.090
71689ION    NA+38230  34.153  14.943   4.146
71690ION    NA+38231  20.131  16.176  11.383
71691ION    NA+38232  14.895  42.058   3.178
71692ION    NA+38233  31.659  29.235  12.824
71693ION    NA+38234  17.587  10.417   0.775
71694ION    NA+38235  17.268  43.774   1.237
71695ION    NA+38236  38.314  40.404   1.380
71696ION    NA+38237  17.397   9.327  13.006
71697ION    NA+38238  19.962  44.321  11.947
71698ION    NA+38239  33.716   5.800   2.098
71699ION    NA+38240  20.654  22.875  14.306
71700ION    NA+38241  38.527  42.705  10.654
71701ION    NA+38242  16.362  23.502   3.099
71702ION    NA+38243   8.471  16.677  14.338
71703ION    NA+38244  18.103  21.079   1.897
71704ION    NA+38245  20.174   5.253   1.215
71705ION    NA+38246   0.999  43.392   0.270
71706ION    NA+38247   6.344  34.849  12.379
71707ION    NA+38248   4.793   4.201   5.353
71708ION    NA+38249   7.001   3.026  13.346
71709ION    NA+38250  35.613  17.970  12.809
71710ION    NA+38251  19.870  40.298  11.847
71711ION    NA+38252   3.490  22.658   1.779
71712ION    NA+38253  23.764  18.754  11.616
71713ION    NA+38254  28.644  16.277  12.166
71714ION    NA+38255  36.817  36.051  10.817
71715ION    NA+38256  28.529  18.950  14.484
71716ION    NA+38257   6.380  21.800  10.104
71717ION    NA+38258   6.147  13.698  12.042
71718ION    NA+38259  30.978   8.147  11.166
71719ION    NA+38260  15.443  17.127  14.603
71720ION    NA+38261  15.592   0.319   0.163
71721ION    NA+38262  17.515  34.858  13.859
71722ION    NA+38263   1.406  43.674   1.144
71723ION    NA+38264  14.158   0.204   3.179
71724ION    NA+38265   6.668  43.475  11.895
71725ION    NA+38266  34.539   8.705  12.044
71726ION    NA+38267  11.841  30.604   5.221
71727ION    NA+38268  21.907  26.467   3.601
71728ION    NA+38269   0.590  21.105  10.327
71729ION    NA+38270  35.318   0.561  11.770
71730ION    NA+38271  39.350  32.810   4.083
71731ION    NA+38272   1.465  14.632   4.221
71732ION    NA+38273  31.107   0.194   4.071
71733ION    NA+38274  26.633  33.166  10.753
71734ION    NA+38275  20.497  37.694   3.972
71735ION    NA+38276  20.119  33.555   3.424
71736ION    NA+38277  22.478  12.288  11.073
71737ION    NA+38278  29.819  23.948   3.222
71738ION    NA+38279  40.634  23.325  14.987
71739ION    NA+38280  18.070  42.432   4.685
71740ION    NA+38281  14.141  12.425  11.115
71741ION    NA+38282  21.219   7.478   3.613
71742ION    NA+38283  31.705   6.519   3.282
71743ION    NA+38284  19.479  32.941   2.857
71744ION    NA+38285   3.602  28.979  10.621
71745ION    NA+38286  10.758  23.804   0.218
71746ION    NA+38287  23.448  32.582  12.635
71747ION    NA+38288  16.378  24.083   3.671
71748ION    NA+38289  22.112  22.055  10.975
71749ION    NA+38290   2.390  42.236   1.393
71750ION    NA+38291  39.141  32.328  11.267
71751ION    NA+38292   5.737   3.211   0.477
71752ION    NA+38293  27.873  44.333   0.584
71753ION    NA+38294  15.917  14.347  12.475
71754ION    NA+38295  26.544  39.019   0.536
71755ION    NA+38296  32.373  15.492  11.253
71756ION    NA+38297  26.109  29.878   3.099
71757ION    NA+38298  30.693  21.104   0.814
71758ION    NA+38299  42.811  10.502  10.232
71759ION    NA+38300  40.149   7.763   4.339
71760ION    NA+38301   4.388   9.037  13.015
71761ION    NA+38302  39.132  42.479   1.828
71762ION    NA+38303  11.100  23.407  12.248
71763ION    NA+38304  40.707   0.190  11.130
71764ION    NA+38305  12.042  22.607   0.938
71765ION    NA+38306  28.117  21.889   3.451
71766ION    NA+38307   3.220  43.219  10.987
71767ION    NA+38308  35.606  35.783   4.179
71768ION    NA+38309  16.546  10.180   0.359
71769ION    NA+38310  34.817  22.677   3.248
71770ION    NA+38311  30.123   4.382  12.069
71771ION    NA+38312   4.569   8.069  12.837
71772ION    NA+38313  33.554  41.860  11.579
71773ION    NA+38314  10.081   1.504  14.909
71774ION    NA+38315  28.898  16.834  12.730
71775ION    NA+38316  19.118  16.106   2.851
71776ION    NA+38317  13.209  32.406  13.300
71777ION    NA+38318  42.791  24.095  14.430
71778ION    NA+38319  15.710  25.006  14.084
71779ION    NA+38320   5.613  32.256  13.493
71780ION    NA+38321  15.586  31.982  12.936
71781ION    NA+38322  19.827  14.933  10.272
71782ION    NA+38323  16.718  15.068  14.487
71783ION    NA+38324  28.728  25.971  13.837
71784ION    NA+38325  37.803  21.211   3.722
71785ION    NA+38326  28.177  15.696  10.635
71786ION    NA+38327  20.787  16.193  14.348
71787ION    NA+38328  27.649   9.557   2.490
71788ION    NA+38329   4.930  43.971   2.681
71789ION    NA+38330  43.198  16.117   0.698
71790ION    NA+38331  20.636   0.910  13.535
71791ION    NA+38332  11.626  34.005  11.595
71792ION    NA+38333  37.293  31.963   1.847
71793ION    NA+38334   9.693  41.710  12.448
71794ION    NA+38335  15.580  25.145  11.876
71795ION    NA+38336  10.029  20.354   4.101
71796ION    NA+38337   4.478  28.478  10.805
71797ION    NA+38338  31.443  16.233  10.636
71798ION    NA+38339   6.769  30.895   1.923
71799ION    NA+38340  30.658  20.150  12.553
71800ION    NA+38341  32.296  16.779  11.634
71801ION    NA+38342  30.995  25.571  13.821
71802ION    NA+38343  29.183   9.269  11.619
71803ION    NA+38344  17.775  44.025   2.610
71804ION    NA+38345  35.075  18.283  11.620
71805ION    NA+38346   8.906  37.911   3.538
71806ION    NA+38347  10.856  25.562  12.933
71807ION    NA+38348  10.200  31.851  11.956
71808ION    NA+38349  37.115   1.230   1.479
71809ION    NA+38350  37.533  11.607   2.047
71810ION    NA+38351  34.487  27.338   2.060
71811ION    NA+38352  19.984   0.474   1.801
71812ION    NA+38353   4.251  10.246   1.175
71813ION    NA+38354  39.563  42.630  14.836
71814ION    NA+38355  24.445   1.010   4.927
71815ION    NA+38356  10.856  38.169   2.697
71816ION    NA+38357  32.162  25.944   3.573
71817ION    NA+38358  43.156  42.224  13.607
71818ION    NA+38359   7.057  42.914  10.803
71819ION    NA+38360   1.649   6.842  12.099
71820ION    NA+38361  28.508  18.644  11.352
71821ION    NA+38362  26.916  13.784  14.543
71822ION    NA+38363  37.400  10.204  13.008
71823ION    NA+38364  36.808  17.032  11.630
71824ION    NA+38365  19.695  32.152  11.577
71825ION    NA+38366  26.989  40.188  11.506
71826ION    NA+38367  20.208  11.856   1.249
71827ION    NA+38368  13.390   5.483  14.151
71828ION    NA+38369   3.375  16.541   4.323
71829ION    NA+38370   3.015  42.167   3.703
71830ION    NA+38371  25.413   3.874  12.998
71831ION    NA+38372  26.659  16.210  11.090
71832ION    NA+38373  32.176  43.076   0.399
71833ION    NA+38374  23.036  21.764  10.724
71834ION    NA+38375  40.506  32.695   2.055
71835ION    NA+38376  41.874  19.094   2.546
71836ION    NA+38377  11.896   5.350   4.515
71837ION    NA+38378   4.302  33.319   3.055
71838ION    NA+38379  37.249  22.846  12.313
71839ION    NA+38380   5.590  33.851   1.915
71840ION    NA+38381   0.832  17.729  11.508
71841ION    NA+38382  24.919  25.541   0.405
71842ION    NA+38383  13.168  19.374  13.909
71843ION    NA+38384   2.386   7.359  10.759
71844ION    NA+38385  23.678  11.075   3.710
71845ION    NA+38386  19.335  25.035   4.042
71846ION    NA+38387  41.727  29.220   5.194
71847ION    NA+38388  35.490  42.816  10.101
71848ION    NA+38389  37.696  27.313   1.301
71849ION    NA+38390  15.836  42.216  13.246
71850ION    NA+38391  11.213  19.825  10.588
71851ION    NA+38392  30.422  32.026  12.939
71852ION    NA+38393  35.824  32.714  11.055
71853ION    NA+38394   1.810  31.067  14.344
71854ION    NA+38395  44.738  16.677  10.775
71855ION    NA+38396  33.883  37.154   5.165
71856ION    NA+38397   9.779  34.445  12.717
71857ION    NA+38398  35.894  13.715   3.864
71858ION    NA+38399  18.338  32.141  14.326
71859ION    NA+38400   9.211  21.909   3.216
71860ION    NA+38401   9.983  36.666   0.405
71861ION    NA+38402  14.055  37.992   4.051
71862ION    NA+38403  39.324   8.062   4.118
71863ION    NA+38404  13.223   5.045   0.034
71864ION    NA+38405   7.231  44.321  13.475
71865ION    NA+38406  43.498  22.030  11.405
71866ION    NA+38407  10.208  20.043   1.419
71867ION    NA+38408  34.103  29.238   1.782
71868ION    NA+38409  24.450  29.155  10.695
71869ION    NA+38410  25.016  35.856  12.687
71870ION    NA+38411  30.205  18.467  14.192
71871ION    NA+38412  11.911  12.445  13.737
71872ION    NA+38413   0.088   5.618   2.540
71873ION    NA+38414   7.212  29.379  14.714
71874ION    NA+38415   8.776  12.812  11.349
71875ION    NA+38416   7.541  11.352  13.582
71876ION    NA+38417  33.374  43.836  13.839
71877ION    NA+38418  22.711  10.258   1.532
71878ION    NA+38419  16.246  42.555  12.513
71879ION    NA+38420  15.134   1.419  14.287
71880ION    NA+38421   7.363  34.403  14.841
71881ION    NA+38422  30.427  19.985   1.979
71882ION    NA+38423  20.651  29.412  10.716
71883ION    NA+38424  39.469   4.088  10.945
71884ION    NA+38425  12.685  11.744   3.459
71885ION    NA+38426  37.991  44.428  12.550
71886ION    NA+38427  42.488   8.922   3.311
71887ION    NA+38428  13.058   2.202   1.113
71888ION    NA+38429  30.908   8.398  14.817
71889ION    NA+38430  38.327  12.502  14.662
71890ION    NA+38431   1.317  30.070  13.317
71891ION    NA+38432  43.551  29.279   2.909
71892ION    NA+38433  13.231  44.000  10.621
71893ION    NA+38434  34.096  37.843   0.604
71894ION    NA+38435  29.886  21.340   5.144
71895ION    NA+38436  44.490   6.482   2.212
71896ION    NA+38437  33.039   0.691   1.702
71897ION    NA+38438  24.652  10.402   0.342
71898ION    NA+38439  40.852  24.736  14.089
71899ION    NA+38440  29.607  15.680  11.297
71900ION    NA+38441  13.859  38.765  12.586
71901ION    NA+38442  21.515   8.459   3.118
71902ION    NA+38443  22.432   7.255   1.322
71903ION    NA+38444  11.192  22.833  14.983
71904ION    NA+38445  26.547  31.658  14.751
71905ION    NA+38446  27.134  16.065  13.642
71906ION    NA+38447  30.358   8.727  11.421
71907ION    NA+38448  12.799  21.439   3.674
71908ION    NA+38449  16.998  17.529  12.575
71909ION    NA+38450  43.616   7.941  14.267
71910ION    NA+38451  16.843  19.071  12.052
71911ION    NA+38452  33.020  25.059  12.802
71912ION    NA+38453  10.501  11.892  11.776
71913ION    NA+38454   6.905   5.959   1.042
71914ION    NA+38455  18.217   3.967  10.629
71915ION    NA+38456  31.085   7.868   2.208
71916ION    NA+38457   4.428  25.877   0.345
71917ION    NA+38458   7.190  16.554   0.626
71918ION    NA+38459  25.061  34.637  14.943
71919ION    NA+38460   0.085  14.644  11.226
71920ION    NA+38461  24.265  34.942   4.228
71921ION    NA+38462   0.891  19.222   1.254
71922ION    NA+38463  30.102  15.204   1.722
71923ION    NA+38464  43.605  27.765  10.288
71924ION    NA+38465  14.180  26.294   4.450
71925ION    NA+38466  30.067   6.900   3.436
71926ION    NA+38467  24.236  23.953  12.925
71927ION    NA+38468  39.446  38.492   3.404
71928ION    NA+38469  35.451  20.948  11.073
71929ION    NA+38470  12.443   7.776  14.027
71930ION    NA+38471  11.498   5.020  12.241
71931ION    NA+38472   3.635  42.020   3.175
71932ION    NA+38473  40.225  17.465   2.440
71933ION    NA+38474  36.184  23.730   5.298
71934ION    NA+38475  39.503  16.100  14.405
71935ION    NA+38476   4.869  13.440  14.477
71936ION    NA+38477  10.256  42.966   5.141
71937ION    NA+38478  25.596  37.972  12.111
71938ION    NA+38479  35.553  35.045   4.551
71939ION    NA+38480  20.516  33.712  13.729
71940ION    NA+38481  30.033   1.964  14.773
71941ION    NA+38482   6.279  26.498  12.608
71942ION    NA+38483  31.182  39.287  13.985
71943ION    NA+38484   9.981  37.043  14.479
71944ION    NA+38485  27.855  17.574   0.135
71945ION    NA+38486   4.827  20.757   1.307
71946ION    NA+38487  23.636  40.731   0.033
71947ION    NA+38488  21.477  18.013   0.992
71948ION    NA+38489  36.087  23.089   0.880
71949ION    NA+38490  24.966  40.221  11.055
71950ION    NA+38491  36.044  24.954  14.112
71951ION    NA+38492  16.956  12.773   2.152
71952ION    NA+38493  36.128  28.219  11.844
71953ION    NA+38494  12.679  35.337   2.284
71954ION    NA+38495  42.426  33.816  11.759
71955ION    NA+38496  20.508   2.768   4.762
71956ION    NA+38497  23.768   9.603  13.499
71957ION    NA+38498   1.304  36.713  12.316
71958ION    NA+38499  32.750  18.839   0.426
71959ION    NA+38500  39.485  14.229  12.610
71960ION    NA+38501   4.289  17.379   4.130
71961ION    NA+38502  12.754   1.723  14.746
71962ION    NA+38503  32.979  15.086   1.409
71963ION    NA+38504   7.720  36.283   2.383
71964ION    NA+38505  44.639  41.748   2.698
71965ION    NA+38506  16.827   5.680  13.064
71966ION    NA+38507   6.893  44.948   0.179
71967ION    NA+38508   1.599  25.478   4.534
71968ION    NA+38509  28.210  11.377  11.228
71969ION    NA+38510  17.917  11.882   2.648
71970ION    NA+38511  37.353  38.039  14.176
71971ION    NA+38512  20.211   8.739   2.634
71972ION    NA+38513  30.970  18.554   3.068
71973ION    NA+38514  14.646  14.994   0.595
71974ION    NA+38515   7.393  21.938  10.642
71975ION    NA+38516  19.049  15.616   0.068
71976ION    NA+38517   4.636  11.696   5.224
71977ION    NA+38518  33.933  30.958  11.400
71978ION    NA+38519  43.425   7.069  14.401
71979ION    NA+38520  43.152   8.117   0.170
71980ION    NA+38521  35.523  10.878   5.129
71981ION    NA+38522   3.108   4.288   4.616
71982ION    NA+38523  20.723  41.958  14.213
71983ION    NA+38524  34.119  11.929  12.435
71984ION    NA+38525  13.865  38.176  14.483
71985ION    NA+38526  36.423  34.011  10.585
71986ION    NA+38527  16.780  35.042   3.750
71987ION    NA+38528  35.555  29.471  13.630
71988ION    NA+38529  37.362   0.554   1.025
71989ION    NA+38530  11.207   9.961   1.771
71990ION    NA+38531  44.815  35.606   1.756
71991ION    NA+38532  32.766  25.891  11.035
71992ION    NA+38533  44.262  10.424   1.289
71993ION    NA+38534  32.208  40.914  11.573
71994ION    NA+38535  40.393  20.757  10.659
71995ION    NA+38536  20.268  19.804   4.562
71996ION    NA+38537   8.321  10.768  13.354
71997ION    NA+38538  36.794  10.886  12.525
71998ION    NA+38539  27.432  41.614   3.045
71999ION    NA+38540  13.842  38.271  11.667
72000ION    NA+38541  25.586  34.589  11.077
72001ION    NA+38542  10.446  27.438   2.573
72002ION    NA+38543  41.370   3.358   3.093
72003ION    NA+38544  26.480   0.234   3.089
72004ION    NA+38545  21.862  15.180  11.458
72005ION    NA+38546  17.241   8.385  12.485
72006ION    NA+38547  31.078  36.733   4.460
72007ION    NA+38548   8.705  18.750   2.092
72008ION    NA+38549   4.337  21.607   2.443
72009ION    NA+38550  39.322  25.502   2.131
72010ION    NA+38551  17.251  13.324  13.153
72011ION    NA+38552   7.863   9.717   3.757
72012ION    NA+38553  28.321  17.355   0.844
72013ION    NA+38554  21.520  13.184   1.061
72014ION    NA+38555  32.278  43.223   9.757
72015ION    NA+38556   0.717  37.784  13.165
72016ION    NA+38557   0.015  41.092   3.563
72017ION    NA+38558  38.070  22.766   0.009
72018ION    NA+38559  14.040  13.420  11.104
72019ION    NA+38560  31.466  14.153   5.480
72020ION    NA+38561  26.044  18.941  11.741
72021ION    NA+38562  21.398  23.419  13.918
72022ION    NA+38563   9.410  22.757   3.975
72023ION    NA+38564  33.692  34.402  12.479
72024ION    NA+38565  26.392  21.315   4.022
72025ION    NA+38566  44.352  43.984   1.543
72026ION    NA+38567   4.760   7.907   4.099
72027ION    NA+38568  44.774  15.174   2.548
72028ION    NA+38569  39.580  25.718  11.610
72029ION    NA+38570   5.329  16.414  12.064
72030ION    NA+38571  12.756  16.593   0.733
72031ION    NA+38572  28.504  35.521  14.437
72032ION    NA+38573  28.548  18.711  10.274
72033ION    NA+38574  13.464   1.439   4.254
72034ION    NA+38575  19.638  38.291  11.517
72035ION    NA+38576  22.213   2.135   1.863
72036ION    NA+38577  20.160  23.275   2.155
72037ION    NA+38578  35.156   3.755   0.800
72038ION    NA+38579  27.401  38.701  12.550
72039ION    NA+38580  30.659  22.833  10.277
72040ION    NA+38581  44.472   1.710  11.009
72041ION    NA+38582  27.590   9.399  14.426
72042ION    NA+38583  38.856  17.745  14.877
72043ION    NA+38584   0.591   3.717   5.176
72044ION    NA+38585  11.657  14.617   3.095
72045ION    NA+38586  29.619  13.542  11.964
72046ION    NA+38587  44.819  15.476  10.738
72047ION    NA+38588  13.633  27.912  12.418
72048ION    NA+38589  33.826  23.558   2.326
72049ION    NA+38590   5.301  19.349  12.959
72050ION    NA+38591   7.904  15.062   1.398
72051ION    NA+38592  34.310  34.810   0.983
72052ION    NA+38593   4.367  41.322   0.185
72053ION    NA+38594  29.968  23.176   0.771
72054ION    NA+38595  34.799  31.521   0.275
72055ION    NA+38596  29.400  34.338   2.298
72056ION    NA+38597  17.286   5.932  14.821
72057ION    NA+38598  39.807  24.236   3.362
72058ION    NA+38599   1.538  27.526   4.582
72059ION    NA+38600  34.468  29.917   4.749
72060ION    NA+38601   5.158  15.729   3.636
72061ION    NA+38602  21.776  18.463   4.745
72062ION    NA+38603  15.337  39.965   0.799
72063ION    NA+38604  40.789  33.583  10.679
72064ION    NA+38605  35.846  11.664   1.953
72065ION    NA+38606   8.125  20.851   2.958
72066ION    NA+38607  35.600  36.759  12.173
72067ION    NA+38608  12.113  19.577  11.115
72068ION    NA+38609   9.088  15.489   2.468
72069ION    NA+38610  27.111  43.570   1.290
72070ION    NA+38611  31.927  35.136   1.569
72071ION    NA+38612  44.130  27.269  12.756
72072ION    NA+38613  28.881  24.464  13.160
72073ION    NA+38614  37.533  11.027   4.556
72074ION    NA+38615  10.596   3.368  11.304
72075ION    NA+38616  16.288  11.239   0.970
72076ION    NA+38617  33.913  24.521  13.480
72077ION    NA+38618  20.096  37.564  13.855
72078ION    NA+38619  12.047  32.156  12.691
72079ION    NA+38620  35.792  21.446   3.710
72080ION    NA+38621  21.336  29.050   9.753
72081ION    NA+38622  25.841   9.548  10.744
72082ION    NA+38623  11.867   8.049   3.405
72083ION    NA+38624  40.892  22.264   4.648
72084ION    NA+38625  26.468  19.714   2.338
72085ION    NA+38626   7.118   5.260  10.583
72086ION    NA+38627  20.926  35.955   3.114
72087ION    NA+38628  42.013   0.598  11.135
72088ION    NA+38629  37.454  31.400  11.022
72089ION    NA+38630  15.076  13.080   3.535
72090ION    NA+38631  19.703  22.405   1.669
72091ION    NA+38632  35.438  32.355  12.492
72092ION    NA+38633   7.089  15.295  14.397
72093ION    NA+38634  19.843  26.795   4.969
72094ION    NA+38635   6.781  19.806  14.120
72095ION    NA+38636  38.540  33.343  12.000
72096ION    NA+38637  17.003  20.573  13.822
72097ION    NA+38638  28.998  21.330  11.074
72098ION    NA+38639  33.585   5.708  10.247
72099ION    NA+38640  38.841   3.503   2.683
72100ION    NA+38641  15.613  41.958   1.336
72101ION    NA+38642  15.646  18.288   0.317
72102ION    NA+38643   1.047   9.606   2.468
72103ION    NA+38644  24.288  30.763  11.480
72104ION    NA+38645  23.716  41.350   4.250
72105ION    NA+38646  32.138  16.215   4.071
72106ION    NA+38647  15.197   2.331   2.074
72107ION    NA+38648  24.716  31.203   3.290
72108ION    NA+38649  19.572  36.182  11.267
72109ION    NA+38650  22.389   8.583   4.207
72110ION    NA+38651   6.892  23.047   2.666
72111ION    NA+38652  41.876   1.169   3.228
72112ION    NA+38653  34.928   3.559  11.701
72113ION    NA+38654  22.087   7.162  12.095
72114ION    NA+38655  25.421   7.920  12.634
72115ION    NA+38656  16.205  32.653   1.002
72116ION    NA+38657   2.087  39.301  14.602
72117ION    NA+38658  31.802   8.397  12.665
72118ION    NA+38659   7.380  37.215   4.726
72119ION    NA+38660  23.004  20.066   0.294
72120ION    NA+38661  25.450  30.858  11.045
72121ION    NA+38662  16.300  36.480   1.373
72122ION    NA+38663   3.263  31.380   1.570
72123ION    NA+38664  43.794  40.687   3.255
72124ION    NA+38665  17.528   7.212  11.623
72125ION    NA+38666   8.518  33.265   5.097
72126ION    NA+38667  33.757  10.386   3.580
72127ION    NA+38668  21.725  22.782   2.335
72128ION    NA+38669   9.642  36.894  12.515
72129ION    NA+38670  10.304  28.118  12.063
72130ION    NA+38671  17.734  31.005   3.348
72131ION    NA+38672  19.845  34.786   1.879
72132ION    NA+38673  37.478  32.514   4.176
72133ION    NA+38674  37.408   5.134  11.938
72134ION    NA+38675   0.589  43.462   1.685
72135ION    NA+38676  34.351  25.191  14.128
72136ION    NA+38677  18.663  26.720   1.784
72137ION    NA+38678  23.477  12.308  11.108
72138ION    NA+38679  37.875   5.251  13.481
72139ION    NA+38680   4.027  30.455   4.668
72140ION    NA+38681  31.709   7.784   0.810
72141ION    NA+38682  30.231  32.126  14.917
72142ION    NA+38683   6.869  15.647   4.059
72143ION    NA+38684  18.561  26.568  13.378
72144ION    NA+38685  26.920  14.536  13.880
72145ION    NA+38686  15.190   5.130   1.144
72146ION    NA+38687  25.106  37.625   2.879
72147ION    NA+38688   6.960   0.669  13.495
72148ION    NA+38689  35.883  31.359   4.192
72149ION    NA+38690   6.282  30.071  14.860
72150ION    NA+38691  20.440  38.554   1.471
72151ION    NA+38692   0.092   3.662  10.210
72152ION    NA+38693  38.434  39.496  10.935
72153ION    NA+38694   5.479   4.507   0.743
72154ION    NA+38695   4.328  29.067   3.800
72155ION    NA+38696  34.632  10.549   2.093
72156ION    NA+38697  39.326  40.465  13.188
72157ION    NA+38698   1.671  16.014   2.574
72158ION    NA+38699  36.007  14.179  13.538
72159ION    NA+38700  44.740  18.661   1.057
72160ION    NA+38701  27.022  22.460  12.025
72161ION    NA+38702  44.415  39.293  10.975
72162ION    NA+38703  14.763  36.804   4.135
72163ION    NA+38704  43.082  35.159   2.425
72164ION    NA+38705   5.534   0.665   1.170
72165ION    NA+38706  23.126  29.630   2.821
72166ION    NA+38707  15.926  42.424  14.293
72167ION    NA+38708   8.437  17.509   2.954
72168ION    NA+38709  17.760  21.089   3.572
72169ION    NA+38710  44.238   2.490   9.904
72170ION    NA+38711   8.027  41.969  10.502
72171ION    NA+38712  14.025   2.859   1.698
72172ION    NA+38713   0.604  33.674   1.020
72173ION    NA+38714  30.024  25.302   0.010
72174ION    NA+38715  18.068  21.901  10.997
72175ION    NA+38716  17.306  23.614   0.969
72176ION    NA+38717  31.093  34.707  12.627
72177ION    NA+38718  22.694  18.227  11.208
72178ION    NA+38719  12.292  36.793   3.249
72179ION    NA+38720  11.483   1.579  13.955
72180ION    NA+38721  39.498  39.326  14.892
72181ION    NA+38722  31.129  14.939  11.096
72182ION    NA+38723   3.456   5.846  11.557
72183ION    NA+38724  25.650   6.853   1.500
72184ION    NA+38725  28.533  11.880   1.260
72185ION    NA+38726  22.997   6.939   5.291
72186ION    NA+38727   5.979   8.621  11.548
72187ION    NA+38728  37.899   2.771   2.410
72188ION    NA+38729   2.888  28.002   4.198
72189ION    NA+38730  25.223  18.578  12.622
72190ION    NA+38731  12.443   2.259   1.732
72191ION    NA+38732  39.151  44.621   2.158
72192ION    NA+38733  14.315  14.514  13.574
72193ION    NA+38734  44.749  32.037   0.424
72194ION    NA+38735  24.584   1.859   4.416
72195ION    NA+38736  39.386  34.839   2.317
72196ION    NA+38737  22.171  11.925  12.997
72197ION    NA+38738   4.392  18.795  14.356
72198ION    NA+38739  20.309  29.308   1.972
72199ION    NA+38740  41.537   1.712   0.974
72200ION    NA+38741  22.171   5.234   3.765
72201ION    NA+38742  13.735  35.002   4.289
72202ION    NA+38743  18.559  30.413  14.398
72203ION    NA+38744  10.158  38.835  12.454
72204ION    NA+38745   9.899  12.376  11.148
72205ION    NA+38746  17.182  29.466   2.370
72206ION    NA+38747  29.656  17.171  11.087
72207ION    NA+38748   3.296   5.480   1.927
72208ION    NA+38749   8.643  12.028   2.558
72209ION    NA+38750  41.310  25.297   2.813
72210ION    NA+38751  43.493  28.330   2.597
72211ION    NA+38752  43.114   3.835  12.761
72212ION    NA+38753  41.531  33.888   3.659
72213ION    NA+38754  39.762  28.377   4.138
72214ION    NA+38755  29.210  16.926   0.999
72215ION    NA+38756  36.862   0.484   1.746
72216ION    NA+38757  41.337  26.752   0.509
72217ION    NA+38758  19.894  31.122  11.775
72218ION    NA+38759  39.969  37.675  13.852
72219ION    NA+38760  36.803  27.604  13.997
72220ION    NA+38761  43.451  32.750   1.493
72221ION    NA+38762   8.079  14.259   5.252
72222ION    NA+38763  43.526  13.798  14.347
72223ION    NA+38764  39.501  29.166  11.913
72224ION    NA+38765  31.193   2.700  11.866
72225ION    NA+38766   0.834  18.523   2.147
72226ION    NA+38767  29.450  44.217  11.159
72227ION    NA+38768  28.944  30.535  11.151
72228ION    NA+38769  23.669   1.914  14.068
72229ION    NA+38770  29.681  31.685  10.809
72230ION    NA+38771   2.683  37.438  12.160
72231ION    NA+38772  20.551  23.321   0.896
72232ION    NA+38773  10.215  19.789   3.272
72233ION    NA+38774  22.837   7.795  13.443
72234ION    NA+38775  17.626  10.650  14.078
72235ION    NA+38776   0.484   1.152  13.514
72236ION    NA+38777   1.839   0.093  10.650
72237ION    NA+38778   1.739  31.184   0.436
72238ION    NA+38779   9.788   7.282   4.478
72239ION    NA+38780   2.865  26.398   3.313
72240ION    NA+38781  23.937  10.891  14.775
72241ION    NA+38782   7.450  17.218   1.424
72242ION    NA+38783  40.593  34.750   4.566
72243ION    NA+38784  12.718   4.396  14.031
72244ION    NA+38785   4.859  41.328  14.315
72245ION    NA+38786  37.630  41.535   4.379
72246ION    NA+38787  29.057  11.909  12.439
72247ION    NA+38788  31.498  19.579  11.102
72248ION    NA+38789  36.682  21.956   3.604
72249ION    NA+38790  10.807  25.523   1.417
72250ION    NA+38791  29.235  26.814   1.567
72251ION    NA+38792  28.857  42.293  14.083
72252ION    NA+38793  31.973  44.470  10.752
72253ION    NA+38794   5.042  43.727   1.352
72254ION    NA+38795  36.527  38.682   1.848
72255ION    NA+38796  25.949  18.922   0.848
72256ION    NA+38797   1.701  11.318  14.365
72257ION    NA+38798  27.355  30.352  13.285
72258ION    NA+38799  41.435  39.841  13.864
72259ION    NA+38800  15.995   4.300  10.953
72260ION    NA+38801   0.622  41.909   2.784
72261ION    NA+38802   4.530  34.138   1.754
72262ION    NA+38803   3.367  14.922   0.409
72263ION    NA+38804  13.985   8.311  10.243
72264ION    NA+38805  20.102  24.289  14.249
72265ION    NA+38806  21.972   9.863  12.117
72266ION    NA+38807  36.162  43.915   3.226
72267ION    NA+38808  41.522   7.458  13.000
72268ION    NA+38809  41.755  17.097  12.605
72269ION    NA+38810  27.581  29.524   3.319
72270ION    NA+38811  21.213  35.367   0.452
72271ION    NA+38812  12.246  10.448   3.110
72272ION    NA+38813  16.784  43.985   0.388
72273ION    NA+38814   8.241  41.013   4.690
72274ION    NA+38815  39.721  34.089  13.383
72275ION    NA+38816   2.917  41.448   0.475
72276ION    NA+38817  23.066  38.201  13.814
72277ION    NA+38818  12.229  25.209   4.378
72278ION    NA+38819   4.945  15.975   1.067
72279ION    NA+38820  17.082  34.643  11.182
72280ION    NA+38821  12.278  15.632   0.840
72281ION    NA+38822  20.643   3.912   4.582
72282ION    NA+38823  11.221  39.568   2.679
72283ION    NA+38824  15.330  15.594   2.535
72284ION    NA+38825  28.453   5.645   4.225
72285ION    NA+38826  23.242   2.950  14.636
72286ION    NA+38827  41.673  22.173   3.957
72287ION    NA+38828  32.067  28.329  12.945
72288ION    NA+38829  21.030  44.757   0.783
72289ION    NA+38830   6.502  29.536   0.896
72290ION    NA+38831  37.304  40.757   3.740
72291ION    NA+38832   7.455  41.502   3.351
72292ION    NA+38833   1.200   6.238   3.825
72293ION    NA+38834   3.518  23.427  10.285
72294ION    NA+38835  25.329  39.302  11.212
72295ION    NA+38836  12.453  38.754  10.872
72296ION    NA+38837  39.925  43.428  11.144
72297ION    NA+38838  42.878  13.307  12.920
72298ION    NA+38839  32.873  22.034  14.444
72299ION    NA+38840   1.804  35.981   0.144
72300ION    NA+38841  33.577  26.307  11.454
72301ION    NA+38842   5.567  34.596   1.247
72302ION    NA+38843   9.907  14.677   4.257
72303ION    NA+38844  40.534  29.091   4.041
72304ION    NA+38845  16.680  29.236  10.664
72305ION    NA+38846  10.730   5.461   2.613
72306ION    NA+38847  43.353  41.736   0.710
72307ION    NA+38848  26.215   2.795   0.794
72308ION    NA+38849  13.745  43.484   3.066
72309ION    NA+38850  42.807  26.093   2.378
72310ION    NA+38851   0.567  11.377   0.081
72311ION    NA+38852  20.684  23.953   4.104
72312ION    NA+38853  15.403  14.309   4.041
72313ION    NA+38854  14.768  10.042   2.343
72314ION    NA+38855  20.238   7.897  12.734
72315ION    NA+38856  39.525   5.604  13.522
72316ION    NA+38857  15.424  27.245   1.855
72317ION    NA+38858  26.526   2.781   3.089
72318ION    NA+38859  38.435  15.699   3.885
72319ION    NA+38860   8.466  28.265  11.940
72320ION    NA+38861  13.065  10.724   1.341
72321ION    NA+38862  11.165  31.468   1.440
72322ION    NA+38863  23.546   8.474  13.097
72323ION    NA+38864  14.937   6.457   9.801
72324ION    NA+38865   5.460  39.228   1.018
72325ION    NA+38866  35.039  39.299  11.453
72326ION    NA+38867  10.482  21.337   2.831
72327ION    NA+38868   2.867  32.526  14.163
72328ION    NA+38869  38.305  27.932   2.418
72329ION    NA+38870   8.191  11.146   0.029
72330ION    NA+38871  18.176  28.423  11.093
72331ION    NA+38872   0.684   3.132   1.644
72332ION    NA+38873   8.401  28.841   0.062
72333ION    NA+38874  41.817  29.162   0.291
72334ION    NA+38875  25.865   5.811  10.725
72335ION    NA+38876  17.809  28.884   1.296
72336ION    NA+38877  39.976  29.452   0.646
72337ION    NA+38878  29.007  40.117   1.820
72338ION    NA+38879  34.669  25.001   1.786
72339ION    NA+38880  21.335   6.717   4.953
72340ION    NA+38881  15.955  35.605   3.700
72341ION    NA+38882  32.106  10.022  12.279
72342ION    NA+38883   6.799  18.508   2.531
72343ION    NA+38884  33.606  39.281  10.538
72344ION    NA+38885  28.823  30.749   3.626
72345ION    NA+38886   6.261  43.937   0.746
72346ION    NA+38887   2.412   0.051  14.765
72347ION    NA+38888  11.591  16.588   3.390
72348ION    NA+38889  26.676   7.853   2.885
72349ION    NA+38890  36.843  20.705  11.991
72350ION    NA+38891  39.704  37.727   4.049
72351ION    NA+38892  10.996  27.297  10.848
72352ION    NA+38893  27.523  27.679  14.386
72353ION    NA+38894  13.485  36.728  10.704
72354ION    NA+38895  16.098  12.192   2.184
72355ION    NA+38896  15.160  36.882  10.654
72356ION    NA+38897  21.593  15.386  10.123
72357ION    NA+38898  31.958  18.104  14.774
72358ION    NA+38899  39.782  22.172  14.731
72359ION    NA+38900  18.395  40.168   9.815
72360ION    NA+38901   5.545  12.238   1.197
72361ION    NA+38902  14.921   7.170  11.300
72362ION    NA+38903  17.763   3.898  13.514
72363ION    NA+38904  33.106  42.411   4.074
72364ION    NA+38905   8.372   7.487  11.346
72365ION    NA+38906  40.762  10.884   1.649
72366ION    NA+38907  10.471  28.532   4.457
72367ION    NA+38908  23.590  21.745  11.556
72368ION    NA+38909  31.480   9.610  12.975
72369ION    NA+38910  22.001   9.331   2.180
72370ION    NA+38911  19.121   0.591   3.349
72371ION    NA+38912  14.408  11.690  12.363
72372ION    NA+38913  20.260  30.427   1.222
72373ION    NA+38914  44.455  10.676   3.678
72374ION    NA+38915  43.154   1.027   3.817
72375ION    NA+38916  42.063  15.069  11.684
72376ION    NA+38917  19.692  20.550  14.036
72377ION    NA+38918  10.346  14.625   5.154
72378ION    NA+38919  21.561  10.383   1.497
72379ION    NA+38920  14.091   3.385  14.465
72380ION    NA+38921  39.250  20.400   4.573
72381ION    NA+38922  22.330   8.873   0.599
72382ION    NA+38923  20.427   6.519  11.836
72383ION    NA+38924  12.108  42.035   2.312
72384ION    NA+38925  41.840  13.227  12.123
72385ION    NA+38926  24.081   7.939  12.444
72386ION    NA+38927  44.886  29.053   0.637
72387ION    NA+38928  16.026   6.506   3.154
72388ION    NA+38929   9.291   5.378  13.545
72389ION    NA+38930   2.393  13.255   0.288
72390ION    NA+38931   7.915  11.308  10.749
72391ION    NA+38932  30.664  31.769   0.641
72392ION    NA+38933  30.822  39.483   3.498
72393ION    NA+38934  28.951  33.256  10.754
72394ION    NA+38935  26.381  19.122  10.905
72395ION    NA+38936  22.129   3.508   4.118
72396ION    NA+38937  36.574  30.499   1.299
72397ION    NA+38938  25.035   7.747   4.110
72398ION    NA+38939  37.487  42.951   2.657
72399ION    NA+38940  33.163   9.306   1.692
72400ION    NA+38941  16.339  35.755   2.061
72401ION    NA+38942  29.614  18.760   5.298
72402ION    NA+38943  24.468   6.740   2.195
72403ION    NA+38944  27.125   6.978   0.156
72404ION    NA+38945  39.926  43.238   1.189
72405ION    NA+38946  31.734  28.460   1.601
72406ION    NA+38947  15.563  14.505  11.041
72407ION    NA+38948  17.831  43.360  13.025
72408ION    NA+38949   1.170   8.642   1.853
72409ION    NA+38950  42.076   1.798   4.480
72410ION    NA+38951  22.289  43.942   2.798
72411ION    NA+38952  24.716   0.807  12.422
72412ION    NA+38953  38.265  36.463  13.974
72413ION    NA+38954  26.533   3.348  13.338
72414ION    NA+38955  43.769  15.859   4.184
72415ION    NA+38956  28.900  39.482   4.001
72416ION    NA+38957  38.197  17.575   2.054
72417ION    NA+38958  25.158  42.569  12.092
72418ION    NA+38959  16.503  18.341   2.192
72419ION    NA+38960   8.425  33.087  10.642
72420ION    NA+38961  41.251  41.932   2.940
72421ION    NA+38962   2.979  40.803   2.832
72422ION    NA+38963   4.807  20.916  13.513
72423ION    NA+38964   7.979  38.201  10.960
72424ION    NA+38965   2.861  26.976   4.130
72425ION    NA+38966   2.410  23.290  11.595
72426ION    NA+38967  31.736  20.828  13.366
72427ION    NA+38968  36.922  27.455   2.391
72428ION    NA+38969  29.584  17.885   0.950
72429ION    NA+38970  34.606  44.885   0.287
72430ION    NA+38971  24.871  41.215   0.846
72431ION    NA+38972  12.169  29.947   1.128
72432ION    NA+38973  10.901  33.712  14.773
72433ION    NA+38974   2.643  42.068  11.043
72434ION    NA+38975  20.045  23.419  10.448
72435ION    NA+38976  32.930  41.118   2.150
72436ION    NA+38977  41.585   0.721   1.103
72437ION    NA+38978  27.216  11.099  13.390
72438ION    NA+38979  40.271  21.832  11.997
72439ION    NA+38980  21.505  19.848   0.968
72440ION    NA+38981   1.418  19.414  11.885
72441ION    NA+38982  21.144  21.796   1.687
72442ION    NA+38983  23.895  13.033  13.581
72443ION    NA+38984  43.446  27.431   2.161
72444ION    NA+38985   9.249  15.249   0.851
72445ION    NA+38986  18.283  39.230   0.752
72446ION    NA+38987  27.600   9.757   3.556
72447ION    NA+38988  30.139  15.737   3.834
72448ION    NA+38989  44.049  38.985  11.853
72449ION    NA+38990   4.742  41.211  11.730
72450ION    NA+38991   9.305  10.239  12.607
72451ION    NA+38992  17.164  37.126   5.331
72452ION    NA+38993  41.522  10.724   1.159
72453ION    NA+38994  12.694  27.456  12.573
72454ION    NA+38995  30.369  27.444  14.584
72455ION    NA+38996  20.957  29.684  12.197
72456ION    NA+38997  21.014  32.684   5.316
72457ION    NA+38998  43.060   9.646   3.772
72458ION    NA+38999  27.228  26.613  10.669
72459ION    NA+39000   2.856  17.149   1.349
72460ION    NA+39001  41.516   8.827  11.119
72461ION    NA+39002  19.238  34.807   4.466
72462ION    NA+39003   3.339  29.816   0.395
72463ION    NA+39004  36.462  12.733  10.730
72464ION    NA+39005  43.531  38.479  13.919
72465ION    NA+39006   1.635  13.998  12.061
72466ION    NA+39007   7.925  43.970   0.376
72467ION    NA+39008   8.217  21.991   3.146
72468ION    NA+39009   5.291  38.050   3.695
72469ION    NA+39010  13.729   8.284   0.689
72470ION    NA+39011  33.578  23.850   3.816
72471ION    NA+39012  29.462  13.679   0.646
72472ION    NA+39013  39.183  11.577   1.702
72473ION    NA+39014  18.570  12.859   1.236
72474ION    NA+39015  25.258  13.805   2.712
72475ION    NA+39016  30.368  36.491  13.860
72476ION    NA+39017   0.337   1.233   4.648
72477ION    NA+39018  33.606  21.069   0.177
72478ION    NA+39019  33.381   8.588   3.684
72479ION    NA+39020  13.156   7.751   4.012
72480ION    NA+39021   9.415   1.620   4.454
72481ION    NA+39022  26.454  38.738   1.497
72482ION    NA+39023  27.891   1.716  11.287
72483ION    NA+39024  33.980   7.375   0.377
72484ION    NA+39025   3.869  17.091   0.249
72485ION    NA+39026  15.595   8.803   4.498
72486ION    NA+39027   6.673  39.351   2.802
72487ION    NA+39028  10.835   4.136  13.809
72488ION    NA+39029  31.903  28.569  14.835
72489ION    NA+39030   8.596  20.378   3.568
72490ION    NA+39031  21.452   7.269   0.215
72491ION    NA+39032   5.449  18.347  12.990
72492ION    NA+39033  10.240  11.216  12.465
72493ION    NA+39034   2.459   0.917  10.570
72494ION    NA+39035   8.883   1.799  12.979
72495ION    NA+39036  31.682  39.333   2.284
72496ION    NA+39037   4.747  16.660   0.499
72497ION    NA+39038  36.680  32.612  11.562
72498ION    NA+39039  29.868  38.639  13.757
72499ION    NA+39040  24.398  24.722  13.826
72500ION    NA+39041  14.283   7.348  14.668
72501ION    NA+39042  35.890  36.599   3.895
72502ION    NA+39043  23.180  42.083  13.023
72503ION    NA+39044  16.142   7.955  11.980
72504ION    NA+39045   2.467  31.584  13.242
72505ION    NA+39046   9.736  18.371  11.503
72506ION    NA+39047   2.748  21.106  14.802
72507ION    NA+39048  16.871  43.574   2.134
72508ION    NA+39049  42.364  12.893   1.235
72509ION    NA+39050  31.583  15.808   5.509
72510ION    NA+39051   2.310  14.763  14.999
72511ION    NA+39052   4.934  44.709  11.964
72512ION    NA+39053  13.380  10.074  12.607
72513ION    NA+39054  22.063   8.799  12.257
72514ION    NA+39055  16.741   6.143  12.288
72515ION    NA+39056  12.679  39.022  11.898
72516ION    NA+39057  38.135  26.064  13.683
72517ION    NA+39058  39.284  37.836  13.488
72518ION    NA+39059   8.441  41.994   2.489
72519ION    NA+39060  13.255  19.512   1.095
72520ION    NA+39061  40.538  32.491   4.397
72521ION    NA+39062  16.989  18.077  13.305
72522ION    NA+39063  10.885  42.875  14.916
72523ION    NA+39064  23.080  14.710  11.505
72524ION    NA+39065  42.296   2.289  10.976
72525ION    NA+39066  30.858  14.870  12.959
72526ION    NA+39067  15.931  33.597   9.876
72527ION    NA+39068  20.663  34.553   4.038
72528ION    NA+39069  24.023  14.941  11.268
72529ION    NA+39070  36.757  20.603   4.574
72530ION    NA+39071   3.393  38.248   3.045
72531ION    NA+39072  32.997  32.752   2.894
72532ION    NA+39073  22.155  20.327  10.284
72533ION    NA+39074  39.375  36.141   0.928
72534ION    NA+39075  39.841   1.751   1.311
72535ION    NA+39076  36.659  10.066  11.613
72536ION    NA+39077   0.330  37.027   4.359
72537ION    NA+39078  22.044  12.857  14.856
72538ION    NA+39079  34.862   0.577   2.631
72539ION    NA+39080  26.743  21.697  12.762
72540ION    NA+39081  36.200  39.216  11.956
72541ION    NA+39082  40.613  38.217   1.762
72542ION    NA+39083   6.283  25.572   2.107
72543ION    NA+39084  43.405  12.137   3.081
72544ION    NA+39085  19.307  26.483  12.442
72545ION    NA+39086  26.339  35.894  13.214
72546ION    NA+39087  35.768  42.797  11.165
72547ION    NA+39088  20.087  13.492   4.105
72548ION    NA+39089   8.367  37.050   2.516
72549ION    NA+39090  10.594   8.251   2.789
72550ION    NA+39091   5.094  23.596  11.040
72551ION    NA+39092  19.905  17.281  10.801
72552ION    NA+39093  19.977   9.904   2.868
72553ION    NA+39094   2.205   8.137   0.703
72554ION    NA+39095   7.940  23.069   4.768
72555ION    NA+39096  30.260  43.617  12.416
72556ION    NA+39097  29.537  11.617  14.486
72557ION    NA+39098  30.621   3.506  12.187
72558ION    NA+39099  11.798  40.695  11.575
72559ION    NA+39100  40.280  28.843  10.936
72560ION    NA+39101  34.167   1.713   0.859
72561ION    NA+39102  14.040   2.282   5.054
72562ION    NA+39103   8.925  16.335   2.569
72563ION    NA+39104   8.408   1.103   2.103
72564ION    NA+39105   8.331  21.606  13.082
72565ION    NA+39106  31.779  30.109   4.112
72566ION    NA+39107   6.533  14.186  14.876
72567ION    NA+39108   7.629   0.575  12.896
72568ION    NA+39109  39.740  25.449   0.411
72569ION    NA+39110  24.166   8.779  10.772
72570ION    NA+39111  25.152  13.023   3.327
72571ION    NA+39112  31.477  30.860  13.024
72572ION    NA+39113  37.191  36.105   0.087
72573ION    NA+39114  22.085  13.833   3.470
72574ION    NA+39115  40.079   4.935  13.699
72575ION    NA+39116  12.083  21.543   1.873
72576ION    NA+39117   2.536  20.715   3.109
72577ION    NA+39118   5.930  19.500  14.181
72578ION    NA+39119  34.384   8.896  14.733
72579ION    NA+39120   3.901  17.371  11.838
72580ION    NA+39121   2.537  24.378  14.962
72581ION    NA+39122  22.133  40.748   0.287
72582ION    NA+39123  14.634  41.541   1.310
72583ION    NA+39124  14.274   5.229   1.894
72584ION    NA+39125  12.812  19.682  14.791
72585ION    NA+39126   5.629  36.274   3.821
72586ION    NA+39127  39.438  39.936   3.162
72587ION    NA+39128   3.660  16.067  11.769
72588ION    NA+39129   2.173  24.201  12.062
72589ION    NA+39130  44.076  31.688   2.815
72590ION    NA+39131  25.236  19.518   1.730
72591ION    NA+39132  17.689   1.147  10.040
72592ION    NA+39133  22.571  13.338   4.811
72593ION    NA+39134   8.375  25.344  13.790
72594ION    NA+39135  44.368  27.958   4.026
72595ION    NA+39136  44.784  41.443  14.343
72596ION    NA+39137  31.294   8.268  13.380
72597ION    NA+39138  27.396  15.539  14.328
72598ION    NA+39139  25.457   9.578   4.118
72599ION    NA+39140  29.048   1.851   1.615
72600ION    NA+39141   3.872  14.238   3.518
72601ION    NA+39142  31.238   4.374   2.542
72602ION    NA+39143   1.282  13.053  13.569
72603ION    NA+39144  38.593  36.778  11.598
72604ION    NA+39145  38.662  33.675  13.002
72605ION    NA+39146  16.222  35.136   4.594
72606ION    NA+39147   6.661  31.655   1.282
72607ION    NA+39148   9.065  26.748   4.617
72608ION    NA+39149  24.441  43.809   3.169
72609ION    NA+39150  11.649  20.127   0.124
72610ION    NA+39151   8.986   8.589   4.191
72611ION    NA+39152  42.639  11.958  14.180
72612ION    NA+39153  12.657  37.929  11.613
72613ION    NA+39154  26.359   8.089  10.718
72614ION    NA+39155  27.670  28.980  13.449
72615ION    NA+39156  16.670  38.359   4.676
72616ION    NA+39157  21.664  28.720   0.942
72617ION    NA+39158  11.216  20.543   1.200
72618ION    NA+39159  34.733  41.288   3.696
72619ION    NA+39160  27.911  24.465  13.027
72620ION    NA+39161   7.586  13.213  13.335
72621ION    NA+39162  21.629  12.696   5.322
72622ION    NA+39163   7.223   9.121  14.610
72623ION    NA+39164  43.071   3.687   2.627
72624ION    NA+39165  18.491  14.055   1.671
72625ION    NA+39166   3.370   1.073  12.393
72626ION    NA+39167  32.917  16.794  10.720
72627ION    NA+39168  22.178  43.526   0.305
72628ION    NA+39169   7.944   8.682   0.605
72629ION    NA+39170  19.378   2.795   2.850
72630ION    NA+39171  10.152  10.524  11.432
72631ION    NA+39172  12.858   8.312   0.174
72632ION    NA+39173  15.550  33.794   4.935
72633ION    NA+39174  37.744  11.599  13.537
72634ION    NA+39175   3.327  24.597   3.628
72635ION    NA+39176   0.470  29.846  13.477
72636ION    NA+39177  16.974  43.493  12.763
72637ION    NA+39178  42.133  38.501  14.610
72638ION    NA+39179  35.312  29.428  11.412
72639ION    NA+39180  17.143   4.484  12.017
72640ION    NA+39181  38.661  41.475   4.175
72641ION    NA+39182  42.211  24.203  12.441
72642ION    NA+39183  38.263  10.815  13.962
72643ION    NA+39184  37.033   7.124  11.513
72644ION    NA+39185  31.097  23.551   0.785
72645ION    NA+39186   5.865  10.116  10.959
72646ION    NA+39187  31.317   1.833  12.348
72647ION    NA+39188  25.552  36.396   3.872
72648ION    NA+39189   0.837  11.250   1.036
72649ION    NA+39190  28.867  10.875  14.140
72650ION    NA+39191  40.903  32.229   3.058
72651ION    NA+39192  26.001  36.033   1.277
72652ION    NA+39193  29.559  19.658   1.603
72653ION    NA+39194   9.680  29.856  10.822
72654ION    NA+39195  13.184  13.525   3.383
72655ION    NA+39196   5.478  33.186  13.152
72656ION    NA+39197  21.604  19.565   4.342
72657ION    NA+39198  17.532  40.689  10.988
72658ION    NA+39199  39.642  38.768  13.558
72659ION    NA+39200  38.424  24.128   4.433
72660ION    NA+39201  38.889   1.521   3.167
72661ION    NA+39202  14.803  27.813   1.316
72662ION    NA+39203   6.259   6.201  11.815
72663ION    NA+39204  21.568   8.321  12.798
72664ION    NA+39205  28.784  19.774   0.577
72665ION    NA+39206  13.206  13.114   1.415
72666ION    NA+39207   1.792  27.278   3.269
72667ION    NA+39208  11.811  43.563   2.931
72668ION    NA+39209  20.936  27.958  12.956
72669ION    NA+39210  27.433  12.990  14.863
72670ION    NA+39211  26.423   4.777  12.026
72671ION    NA+39212  28.567   5.338  13.935
72672ION    NA+39213  38.882  18.171  11.606
72673ION    NA+39214  38.552  43.943   4.495
72674ION    NA+39215   6.859  18.616   1.081
72675ION    NA+39216   3.646  14.333  12.123
72676ION    NA+39217  37.720  26.430   1.110
72677ION    NA+39218   8.924  32.421  11.197
72678ION    NA+39219   9.071   8.866  13.066
72679ION    NA+39220  38.051  18.194   0.273
72680ION    NA+39221  35.451  19.568   1.256
72681ION    NA+39222  43.515  32.143  13.730
72682ION    NA+39223  28.722  29.339   2.352
72683ION    NA+39224  41.549  27.212   1.448
72684ION    NA+39225  11.023   8.557   4.922
72685ION    NA+39226  12.777   2.689  13.327
72686ION    NA+39227  10.003  13.970  13.481
72687ION    NA+39228  32.422  43.916  12.824
72688ION    NA+39229   6.199  41.571   2.816
72689ION    NA+39230  13.593  15.767  13.416
72690ION    NA+39231  21.648  30.494   5.298
72691ION    NA+39232  20.219  42.655   3.276
72692ION    NA+39233   6.079  25.317  11.901
72693ION    NA+39234   0.033  43.733  11.150
72694ION    NA+39235  35.349  19.662   4.657
72695ION    NA+39236   1.620  15.755  13.490
72696ION    NA+39237  12.528  22.606  11.919
72697ION    NA+39238  33.685  41.287   2.783
72698ION    NA+39239   1.086   8.881   4.472
72699ION    NA+39240   5.017   7.839  11.761
72700ION    NA+39241  27.148  26.659   4.760
72701ION    NA+39242   0.033  30.744   0.638
72702ION    NA+39243   0.349   1.421  10.602
72703ION    NA+39244   4.158   0.878   5.040
72704ION    NA+39245  24.146  38.070   0.287
72705ION    NA+39246  33.162  14.808  13.602
72706ION    NA+39247  13.184  41.862   2.767
72707ION    NA+39248  39.843  19.555  12.090
72708ION    NA+39249  27.657  31.462  13.097
72709ION    NA+39250  25.849  12.766  12.336
72710ION    NA+39251  10.133  31.813  14.353
72711ION    NA+39252   1.242  42.342   3.835
72712ION    NA+39253  30.931  32.702   0.885
72713ION    NA+39254  33.089  21.200  12.094
72714ION    NA+39255  38.261   6.939   4.088
72715ION    NA+39256  12.209  44.273  13.350
72716ION    NA+39257  27.279  26.476  11.924
72717ION    NA+39258  11.601  23.085  13.525
72718ION    NA+39259  37.352  18.994   1.169
72719ION    NA+39260  39.259   7.280  11.272
72720ION    NA+39261  21.252  16.007   1.958
72721ION    NA+39262  39.792  28.011   2.388
72722ION    NA+39263  30.475  25.982  10.838
72723ION    NA+39264   5.891  32.483   0.462
72724ION    NA+39265  28.477  15.793   1.909
72725ION    NA+39266  15.826  11.224   2.355
72726ION    NA+39267   1.460  21.187   3.760
72727ION    NA+39268  33.653  28.419  12.372
72728ION    NA+39269  33.654   0.331   0.249
72729ION    NA+39270   1.663  38.743   4.219
72730ION    NA+39271  27.684  43.488   4.133
72731ION    NA+39272  26.896  37.411   0.870
72732ION    NA+39273   4.075  21.410  13.322
72733ION    NA+39274  13.593   9.773   2.581
72734ION    NA+39275  28.570  22.329  11.732
72735ION    NA+39276   6.068  32.012   1.797
72736ION    NA+39277  39.963  44.614   2.863
72737ION    NA+39278  39.577   7.519   0.418
72738ION    NA+39279   8.638   0.669   3.740
72739ION    NA+39280  32.355  12.979   0.837
72740ION    NA+39281  17.319   2.425   2.229
72741ION    NA+39282  34.071  42.761   5.072
72742ION    NA+39283  23.279   2.964   5.448
72743ION    NA+39284  34.917  18.476   2.757
72744ION    NA+39285  38.412  18.541   2.303
72745ION    NA+39286  16.549  26.954  11.231
72746ION    NA+39287  21.853  44.383   9.920
72747ION    NA+39288  15.962  13.263  13.823
72748ION    NA+39289  21.995  12.948   3.231
72749ION    NA+39290  37.785  11.795   3.423
72750ION    NA+39291   2.954  42.394   2.921
72751ION    NA+39292  39.850  23.848   1.957
72752ION    NA+39293   4.260  42.232   1.148
72753ION    NA+39294  17.711  22.731  11.685
72754ION    NA+39295   6.004   9.791   1.499
72755ION    NA+39296  20.716   7.191  13.392
72756ION    NA+39297  26.694  32.153   2.267
72757ION    NA+39298  44.966  23.190  13.433
72758ION    NA+39299  24.062  30.590  13.865
72759ION    NA+39300  39.043  10.664  13.013
72760ION    NA+39301   1.928  18.559   4.335
72761ION    NA+39302  16.684  41.599   0.532
72762ION    NA+39303  39.471  38.128  14.297
72763ION    NA+39304  42.081  31.674   0.331
72764ION    NA+39305  24.796  24.287  14.464
72765ION    NA+39306  31.938  23.638   4.133
72766ION    NA+39307  18.072  16.643  12.378
72767ION    NA+39308   7.130  12.079   4.550
72768ION    NA+39309  15.556  21.508   2.734
72769ION    NA+39310  13.096   9.910   4.915
72770ION    NA+39311  24.835   3.100  14.979
72771ION    NA+39312  44.622  43.118   1.603
72772ION    NA+39313  22.091  29.186   3.619
72773ION    NA+39314  30.309  33.611  10.912
72774ION    NA+39315  11.377  11.359   4.683
72775ION    NA+39316  35.635  22.676   0.226
72776ION    NA+39317  40.218  17.940   4.383
72777ION    NA+39318  11.676  33.812   4.869
72778ION    NA+39319  19.183   8.823  14.925
72779ION    NA+39320  27.201  13.070   0.833
72780ION    NA+39321  24.523  27.576   0.446
72781ION    NA+39322  21.538  23.139  10.848
72782ION    NA+39323  39.481   3.951   3.308
72783ION    NA+39324  26.161  27.983  11.514
72784ION    NA+39325  37.591  21.438   5.213
72785ION    NA+39326  14.899  29.174   1.509
72786ION    NA+39327   8.721  34.085  13.609
72787ION    NA+39328  14.469  21.196   3.250
72788ION    NA+39329  27.511  37.869   2.366
72789ION    NA+39330   1.611  19.033  13.988
72790ION    NA+39331  21.575  33.694   4.303
72791ION    NA+39332  22.335  26.978   4.346
72792ION    NA+39333  35.709   7.095  11.746
72793ION    NA+39334   3.186  19.303  14.883
72794ION    NA+39335  30.372   5.213  13.098
72795ION    NA+39336   5.658   0.172  13.531
72796ION    NA+39337   8.744  13.545   0.404
72797ION    NA+39338  13.129   6.417   5.146
72798ION    NA+39339  33.308   4.504   3.107
72799ION    NA+39340   9.832  25.283   1.570
72800ION    NA+39341  11.311  22.741   4.100
72801ION    NA+39342  17.224  22.417  14.479
72802ION    NA+39343  31.908   6.999  13.107
72803ION    NA+39344   8.490  25.171   3.341
72804ION    NA+39345  28.692  33.218  13.950
72805ION    NA+39346  16.494  35.372   2.851
72806ION    NA+39347  14.120   4.446   3.205
72807ION    NA+39348  19.224  34.577   0.196
72808ION    NA+39349  39.615  37.648   0.635
72809ION    NA+39350  43.010  38.551   3.294
72810ION    NA+39351  30.746  10.826   3.755
72811ION    NA+39352  26.556  35.553   3.735
72812ION    NA+39353   5.450  24.047  13.082
72813ION    NA+39354  30.564  28.023  10.244
72814ION    NA+39355   3.434  42.057  11.701
72815ION    NA+39356  17.629  21.961   9.879
72816ION    NA+39357  24.703  33.529   2.154
72817ION    NA+39358  43.487  12.957   1.407
72818ION    NA+39359   0.977  34.473   0.847
72819ION    NA+39360  32.942   0.854  13.842
72820ION    NA+39361  10.497  32.824  14.555
72821ION    NA+39362   4.099  35.037   0.971
72822ION    NA+39363  38.011  38.812  11.595
72823ION    NA+39364   0.473  15.162   3.381
72824ION    NA+39365  10.318   5.807  13.593
72825ION    NA+39366  24.082   5.793  12.974
72826ION    NA+39367  34.671   0.734  10.606
72827ION    NA+39368  14.531  25.090  14.375
72828ION    NA+39369  22.257  41.641   0.124
72829ION    NA+39370  42.933  28.172  14.371
72830ION    NA+39371  19.024  20.060   4.802
72831ION    NA+39372  33.836  21.823   2.764
72832ION    NA+39373  21.203  23.987   1.424
72833ION    NA+39374  19.283  25.555  10.554
72834ION    NA+39375  13.406  21.023   2.821
72835ION    NA+39376   5.206  43.971  11.048
72836ION    NA+39377  39.804  26.406   4.091
72837ION    NA+39378   6.938  15.451  11.200
72838ION    NA+39379  41.437  25.867  14.464
72839ION    NA+39380  44.899  12.991  12.521
72840ION    NA+39381   2.268   9.004  11.218
72841ION    NA+39382  38.013   2.242   5.333
72842ION    NA+39383  43.156   7.206   1.627
72843ION    NA+39384  31.579   3.759  12.057
72844ION    NA+39385  41.088   9.131   3.627
72845ION    NA+39386  36.323  33.964   3.807
72846ION    NA+39387  42.437  29.669   2.311
72847ION    NA+39388  38.300  39.495  14.315
72848ION    NA+39389  31.623  22.042   0.716
72849ION    NA+39390  18.648  12.130   1.757
72850ION    NA+39391  30.500   3.714   5.338
72851ION    NA+39392  40.495   6.344   0.530
72852ION    NA+39393  31.050   5.264  14.258
72853ION    NA+39394   2.333  39.961  12.302
72854ION    NA+39395  40.278   4.876   4.519
72855ION    NA+39396  24.473  18.760   4.364
72856ION    NA+39397  38.315  41.144  14.449
72857ION    NA+39398  38.447  28.757  12.877
72858ION    NA+39399   7.785   1.129   2.734
72859ION    NA+39400  39.472  36.798   4.338
72860ION    NA+39401  11.117  37.668  10.159
72861ION    NA+39402  37.617  26.187  11.481
72862ION    NA+39403   3.710   3.691   9.915
72863ION    NA+39404  30.474  27.970  13.333
72864ION    NA+39405   7.422  25.112   1.983
72865ION    NA+39406   1.339  16.478  14.374
72866ION    NA+39407  26.795  12.259   2.991
72867ION    NA+39408  24.960  21.088   2.006
72868ION    NA+39409  22.180  39.809   1.398
72869ION    NA+39410  34.562   1.074  11.573
72870ION    NA+39411  10.627  14.274   4.278
72871ION    NA+39412  24.067  23.430   3.973
72872ION    NA+39413   0.385  22.226   4.520
72873ION    NA+39414  33.614   0.169  12.239
72874ION    NA+39415   6.031   3.643  11.166
72875ION    NA+39416   5.131  26.959   2.785
72876ION    NA+39417  38.939  24.815   0.931
72877ION    NA+39418  20.564   0.937   1.289
72878ION    NA+39419  33.446  38.006  11.938
72879ION    NA+39420  28.842  13.910   2.041
72880ION    NA+39421  12.244   2.913  12.036
72881ION    NA+39422  33.932  13.050   3.925
72882ION    NA+39423  43.593  34.393   3.113
72883ION    NA+39424  17.698  36.421  14.001
72884ION    NA+39425  25.288   2.980   2.782
72885ION    NA+39426  26.710  38.751   3.723
72886ION    NA+39427  37.151   2.276  13.427
72887ION    NA+39428  42.398  41.606  13.030
72888ION    NA+39429  40.582   0.103   4.057
72889ION    NA+39430  34.676  11.704   2.894
72890ION    NA+39431  15.457   8.026   1.082
72891ION    NA+39432  22.551  24.414   4.572
72892ION    NA+39433   0.548  10.367   1.406
72893ION    NA+39434  35.016   9.111  13.819
72894ION    NA+39435   9.846  41.679  14.178
72895ION    NA+39436  30.372  35.332  11.328
72896ION    NA+39437  37.220  10.055   3.957
72897ION    NA+39438  31.678  29.121   2.229
72898ION    NA+39439  20.759  16.206   0.462
72899ION    NA+39440   9.169  12.733   3.762
72900ION    NA+39441  40.757  17.744  13.707
72901ION    NA+39442  14.343  20.161   4.412
72902ION    NA+39443  33.206  43.268   1.948
72903ION    NA+39444  19.493  27.103   3.731
72904ION    NA+39445  19.648  18.755   1.129
72905ION    NA+39446  17.552  27.216   2.612
72906ION    NA+39447  12.850  42.523  10.614
72907ION    NA+39448   3.998   1.836  13.531
72908ION    NA+39449  12.469  13.001   3.576
72909ION    NA+39450  32.988  37.398  10.638
72910ION    NA+39451  40.664   6.348   2.383
72911ION    NA+39452  18.203  31.853   1.346
72912ION    NA+39453  30.063  25.707   3.396
72913ION    NA+39454  29.949  27.539   0.486
72914ION    NA+39455  39.312   1.325   0.473
72915ION    NA+39456  15.540  14.370   0.754
72916ION    NA+39457  40.835  39.785  12.002
72917ION    NA+39458  19.977  35.870  13.411
72918ION    NA+39459   6.636  32.206   2.012
72919ION    NA+39460  11.188  23.742   1.014
72920ION    NA+39461  15.816  19.573  12.975
72921ION    NA+39462  40.861  18.473   4.311
72922ION    NA+39463  44.759   4.607  10.393
72923ION    NA+39464   2.251  27.428  14.803
72924ION    NA+39465  21.451  28.286  13.804
72925ION    NA+39466  17.908  25.172   0.076
72926ION    NA+39467  10.993  38.939  14.651
72927ION    NA+39468   9.657  29.674   4.389
72928ION    NA+39469  43.378   0.241   4.228
72929ION    NA+39470  12.167  30.732   0.709
72930ION    NA+39471  17.442  37.569  13.198
72931ION    NA+39472  41.296   9.092   1.403
72932ION    NA+39473  38.624  12.123   2.162
72933ION    NA+39474   1.227  23.940  12.876
72934ION    NA+39475  30.377  30.773  13.145
72935ION    NA+39476  22.645  44.047  11.035
72936ION    NA+39477   9.864  44.843   3.133
72937ION    NA+39478   3.714  42.852  10.372
72938ION    NA+39479   3.543  23.880   1.307
72939ION    NA+39480  36.716  12.921   2.801
72940ION    NA+39481  31.014   2.779  10.570
72941ION    NA+39482  14.988  11.065  13.830
72942ION    NA+39483   3.440  28.080   1.452
72943ION    NA+39484  42.786  31.399  11.477
72944ION    NA+39485  28.321  26.500   1.827
72945ION    NA+39486  23.758  21.500   1.931
72946ION    NA+39487   0.690  17.279  14.545
72947ION    NA+39488  12.102  32.492   3.650
72948ION    NA+39489  21.112  38.497   4.864
72949ION    NA+39490  33.613  22.303  11.212
72950ION    NA+39491  40.403   3.978  14.418
72951ION    NA+39492   8.800  11.088   2.189
72952ION    NA+39493  11.278  26.617  11.285
72953ION    NA+39494   6.606  38.088  12.455
72954ION    NA+39495  18.595  24.568   2.634
72955ION    NA+39496  37.840  21.497  14.943
72956ION    NA+39497  14.144  28.222   1.948
72957ION    NA+39498  34.290   6.168  10.787
72958ION    NA+39499  40.657  39.096  11.408
72959ION    NA+39500  28.137  40.073  11.547
72960ION    NA+39501  27.954   6.021  12.929
72961ION    NA+39502  20.386  27.885   3.268
72962ION    NA+39503  26.023   0.708  13.574
72963ION    NA+39504  43.038  15.480   0.736
72964ION    NA+39505  19.373  33.068  12.581
72965ION    NA+39506  44.946   5.435   9.864
72966ION    NA+39507  25.800  22.715   3.329
72967ION    NA+39508   1.252   8.333   2.800
72968ION    NA+39509  31.935  24.101   0.713
72969ION    NA+39510  32.153  43.934   3.347
72970ION    NA+39511  20.191  31.982  12.428
72971ION    NA+39512  40.814  23.579   1.368
72972ION    NA+39513  33.868  43.033  14.980
72973ION    NA+39514  15.078  44.690  14.747
72974ION    NA+39515   0.397   8.252  10.552
72975ION    NA+39516  16.474  17.543   1.813
72976ION    NA+39517  40.790  26.474  10.205
72977ION    NA+39518  32.016  38.873  10.865
72978ION    NA+39519  17.029  22.758  12.531
72979ION    NA+39520   1.466  30.183   4.106
72980ION    NA+39521  41.503  23.082   2.613
72981ION    NA+39522  12.547  33.085  11.814
72982ION    NA+39523   0.295   0.954   2.692
72983ION    NA+39524   8.547  26.326  13.722
72984ION    NA+39525  11.777   1.474  11.727
72985ION    NA+39526  18.324   3.683  11.930
72986ION    NA+39527  38.544  38.537  14.461
72987ION    NA+39528  27.759  32.531  14.707
72988ION    NA+39529  27.576  38.922   3.199
72989ION    NA+39530  32.583  10.323   1.178
72990ION    NA+39531  19.231  12.068   0.531
72991ION    NA+39532   3.658  31.521  11.356
72992ION    NA+39533  35.381  42.655  13.076
72993ION    NA+39534  12.835  42.621   3.832
72994ION    NA+39535  38.276  15.327  11.200
72995ION    NA+39536   4.694  15.615  12.950
72996ION    NA+39537   1.897  24.025   2.489
72997ION    NA+39538   6.615  31.440  14.332
72998ION    NA+39539  10.529  25.789   0.494
72999ION    NA+39540  27.165   8.051   0.162
73000ION    NA+39541  30.236  30.729  12.284
73001ION    NA+39542   0.110   7.776   1.565
73002ION    NA+39543  29.402  14.161   1.358
73003ION    NA+39544  38.934   6.513   4.751
73004ION    NA+39545  18.313   3.036   4.794
73005ION    NA+39546   3.355  37.328  12.892
73006ION    NA+39547  41.157   3.005   1.701
73007ION    NA+39548  43.604  26.060   1.756
73008ION    NA+39549  10.030  40.712   0.413
73009ION    NA+39550  37.406  43.934   2.824
73010ION    NA+39551  27.551  38.391   4.635
73011ION    NA+39552  44.823   1.061   0.221
73012ION    NA+39553   4.302  11.465  10.493
73013ION    NA+39554  32.808  19.729  13.913
73014ION    NA+39555   8.994  26.700  12.410
73015ION    NA+39556   7.183  44.956  10.899
73016ION    NA+39557   9.082  10.689  11.742
73017ION    NA+39558  11.481   4.658   2.569
73018ION    NA+39559  25.231  32.329  12.453
73019ION    NA+39560  23.912  17.010  12.127
73020ION    NA+39561  39.390  25.251  13.738
73021ION    NA+39562  32.280   4.363   3.043
73022ION    NA+39563  31.292  18.308  11.171
73023ION    NA+39564  34.240   6.802   2.812
73024ION    NA+39565   8.148  42.967   2.758
73025ION    NA+39566   2.181  16.174  12.776
73026ION    NA+39567  31.920  19.448  12.475
73027ION    NA+39568  12.486   1.155   3.225
73028ION    NA+39569   9.207  29.172  13.785
73029ION    NA+39570  14.980  10.488  12.145
73030ION    NA+39571  39.814  30.897  13.420
73031ION    NA+39572  18.382  34.932   0.172
73032ION    NA+39573  40.925  42.922   5.034
73033ION    NA+39574   1.724  25.417   1.265
73034ION    NA+39575  22.970  42.812   2.375
73035ION    NA+39576  44.863  44.341   3.145
73036ION    NA+39577  15.041   7.177  12.200
73037ION    NA+39578  12.799   4.952  13.205
73038ION    NA+39579   8.555  22.347  12.446
73039ION    NA+39580  10.594  35.391  12.161
73040ION    NA+39581  25.091  11.583  10.746
73041ION    NA+39582  16.857  16.582  11.664
73042ION    NA+39583  31.325  20.651  12.001
73043ION    NA+39584  42.879   2.737   4.478
73044ION    NA+39585  19.953  43.824   4.244
73045ION    NA+39586  32.817  30.835  13.028
73046ION    NA+39587  44.755  17.806   3.562
73047ION    NA+39588  31.965  31.591  13.777
73048ION    NA+39589  19.152   3.766  12.484
73049ION    NA+39590  25.671   0.789   4.809
73050ION    NA+39591   3.927   0.278   2.133
73051ION    NA+39592  39.776  13.661   0.814
73052ION    NA+39593   5.128  18.932   3.025
73053ION    NA+39594  42.742  34.674   3.557
73054ION    NA+39595  11.962   9.042   1.325
73055ION    NA+39596   9.467  39.163   2.371
73056ION    NA+39597  20.616  18.319   4.348
73057ION    NA+39598  44.735  40.700  14.859
73058ION    NA+39599  18.692  44.357  12.429
73059ION    NA+39600  37.613  12.550  11.799
73060ION    NA+39601  26.655  26.175   2.333
73061ION    NA+39602  14.370  44.223   3.319
73062ION    NA+39603  36.224  44.548   1.415
73063ION    NA+39604  26.514  10.660  14.560
73064ION    NA+39605   9.980  15.186  13.407
73065ION    NA+39606  20.970  36.857  11.134
73066ION    NA+39607  11.377  35.010  13.472
73067ION    NA+39608   7.168  35.634  10.974
73068ION    NA+39609  27.078  22.429   3.789
73069ION    NA+39610  24.888  21.420   1.245
73070ION    NA+39611   5.010  36.521   0.278
73071ION    NA+39612  32.649   9.790  14.470
73072ION    NA+39613   0.017  40.601   4.435
73073ION    NA+39614  23.166  24.956  10.891
73074ION    NA+39615  19.358  42.731   2.636
73075ION    NA+39616  18.172  25.394   4.539
73076ION    NA+39617  38.815  28.000  12.337
73077ION    NA+39618  27.480  23.340   3.878
73078ION    NA+39619  43.400  38.875   1.716
73079ION    NA+39620  29.618  42.073  14.520
73080ION    NA+39621  33.510  21.290  12.997
73081ION    NA+39622  36.488  35.006  10.660
73082ION    NA+39623  20.312  28.776   2.819
73083ION    NA+39624   1.212   0.402   3.601
73084ION    NA+39625   1.550  40.131   2.681
73085ION    NA+39626   5.292   1.607   4.058
73086ION    NA+39627  15.221  13.462   1.026
73087ION    NA+39628  28.494   3.506  11.435
73088ION    NA+39629  25.624   5.164   0.757
73089ION    NA+39630  40.613   3.449   2.447
73090ION    NA+39631  15.653  31.965   0.530
73091ION    NA+39632  44.949   3.311  11.624
73092ION    NA+39633  33.648  37.893  13.516
73093ION    NA+39634  19.254   3.374  11.052
73094ION    NA+39635   0.767  41.045  12.097
73095ION    NA+39636  37.333  37.314   3.941
73096ION    NA+39637  44.812  19.279   0.274
73097ION    NA+39638  31.180  28.720   3.152
73098ION    NA+39639  13.558  18.263  10.817
73099ION    NA+39640   7.205   1.661  14.946
73100ION    NA+39641   8.320   4.594  14.464
73101ION    NA+39642   7.342   9.685  11.137
73102ION    NA+39643  30.136  25.172  11.797
73103ION    NA+39644  12.121  23.083  14.432
73104ION    NA+39645   2.313  41.343   3.346
73105ION    NA+39646  13.778   9.038  12.733
73106ION    NA+39647  29.890   2.271  10.442
73107ION    NA+39648   2.822  29.131   0.085
73108ION    NA+39649  31.637   8.804  11.548
73109ION    NA+39650  16.924  23.501   3.717
73110ION    NA+39651  31.088  43.104   0.813
73111ION    NA+39652  12.363  26.628   1.236
73112ION    NA+39653  22.582  36.081  13.373
73113ION    NA+39654  16.563  15.974   0.919
73114ION    NA+39655  28.870  40.120  12.683
73115ION    NA+39656  11.691  19.267  12.084
73116ION    NA+39657  20.555  32.839   1.187
73117ION    NA+39658   5.072  40.394   1.418
73118ION    NA+39659  18.298  37.691  13.707
73119ION    NA+39660  35.211  40.506  10.224
73120ION    NA+39661  42.741  26.271   4.946
73121ION    NA+39662  23.609  24.711  12.744
73122ION    NA+39663   3.805   6.367   3.212
73123ION    NA+39664  32.386  22.043   2.669
73124ION    NA+39665  36.008  41.799   2.569
73125ION    NA+39666  33.555  44.518   0.948
73126ION    NA+39667   4.932   0.642  14.034
73127ION    NA+39668  16.512  11.624  10.719
73128ION    NA+39669   2.077  30.455   4.709
73129ION    NA+39670   9.008  36.368  12.689
73130ION    NA+39671  29.046  33.128  11.742
73131ION    NA+39672  39.803  21.203  11.333
73132ION    NA+39673  22.076  14.796   2.609
73133ION    NA+39674  27.843  40.179   2.604
73134ION    NA+39675  14.076   7.713  11.177
73135ION    NA+39676  33.594  24.766  11.999
73136ION    NA+39677  25.814  36.472  11.817
73137ION    NA+39678   8.108  17.417   3.932
73138ION    NA+39679  21.596  29.746   4.055
73139ION    NA+39680  33.034  22.747  13.697
73140ION    NA+39681  38.997  17.753   0.884
73141ION    NA+39682  40.878  39.067   0.346
73142ION    NA+39683  42.083  11.837   4.398
73143ION    NA+39684  29.092   3.750  14.564
73144ION    NA+39685  17.758  44.858   1.322
73145ION    NA+39686  33.930   1.549  11.101
73146ION    NA+39687  17.212  29.327  13.471
73147ION    NA+39688  14.335  35.912   0.254
73148ION    NA+39689  27.663  32.840  12.948
73149ION    NA+39690  28.986  16.748  13.965
73150ION    NA+39691  14.113  22.063   0.933
73151ION    NA+39692  21.786  10.640   2.485
73152ION    NA+39693  36.457  37.147   1.972
73153ION    NA+39694  44.822   0.128   3.857
73154ION    NA+39695  37.430  37.876  10.756
73155ION    NA+39696  17.397  10.055  14.849
73156ION    NA+39697  20.282  22.617  11.154
73157ION    NA+39698  13.965  19.210   4.081
73158ION    NA+39699   4.295  25.233   2.602
73159ION    NA+39700  17.103  30.599   1.616
73160ION    NA+39701   4.854   8.920   1.935
73161ION    CL-39702  28.411  21.942  11.897
73162ION    CL-39703  31.139  13.702  13.589
73163ION    CL-39704  15.792  37.761  14.704
73164ION    CL-39705  17.251   3.286   0.398
73165ION    CL-39706  34.335  16.811   1.019
73166ION    CL-39707  22.082  12.135  12.613
73167ION    CL-39708   9.704   1.408   4.187
73168ION    CL-39709  10.268  20.940  13.496
73169ION    CL-39710  25.679   7.019   1.075
73170ION    CL-39711  39.382  27.104   2.778
73171ION    CL-39712   7.235   0.302   4.884
73172ION    CL-39713  25.025  30.886   3.317
73173ION    CL-39714  35.517  17.551  12.682
73174ION    CL-39715  10.558  44.832   0.452
73175ION    CL-39716  29.169   9.346   2.267
73176ION    CL-39717  31.678  43.309  13.602
73177ION    CL-39718   9.133   8.778  13.509
73178ION    CL-39719  44.233  23.345   1.993
73179ION    CL-39720  18.982   6.402  11.938
73180ION    CL-39721   9.002  13.361   1.618
73181ION    CL-39722  35.929  25.960   2.473
73182ION    CL-39723  12.388  33.936   2.740
73183ION    CL-39724  21.568  38.582   0.660
73184ION    CL-39725  16.408  35.638   2.494
73185ION    CL-39726  26.160  19.058  11.301
73186ION    CL-39727  12.632  30.622  10.696
73187ION    CL-39728  42.879  38.971   3.215
73188ION    CL-39729   2.393  33.417  13.688
73189ION    CL-39730  38.749  31.509   4.368
73190ION    CL-39731  18.518  41.708  12.322
73191ION    CL-39732  15.610  27.561   2.948
73192ION    CL-39733  18.399  34.405  10.809
73193ION    CL-39734  14.738   1.694  10.782
73194ION    CL-39735  23.172  29.934   1.448
73195ION    CL-39736  33.028  36.264   0.426
73196ION    CL-39737  41.168  21.601  11.026
73197ION    CL-39738  30.766  32.344   1.095
73198ION    CL-39739  21.961   8.550  12.647
73199ION    CL-39740   4.294   7.341   2.389
73200ION    CL-39741  11.295  26.516  14.422
73201ION    CL-39742  17.413  43.466  12.876
73202ION    CL-39743  28.088   0.853  11.895
73203ION    CL-39744  18.574  39.008   0.493
73204ION    CL-39745  38.571  41.450  14.747
73205ION    CL-39746  42.419  23.221  13.809
73206ION    CL-39747   9.095  26.453  12.051
73207ION    CL-39748   7.870  44.079  11.692
73208ION    CL-39749   4.187  34.541  14.349
73209ION    CL-39750   0.442  29.858  11.149
73210ION    CL-39751   3.196  21.766   4.274
73211ION    CL-39752  17.911  11.731  12.688
73212ION    CL-39753  12.318  38.927  10.473
73213ION    CL-39754  16.877  27.087  13.491
73214ION    CL-39755   4.364   2.394   1.731
73215ION    CL-39756   7.711  17.298   3.743
73216ION    CL-39757  12.192  32.793   3.965
73217ION    CL-39758  30.094  18.222  13.828
73218ION    CL-39759  25.126  28.005   1.990
73219ION    CL-39760  34.348  19.577   2.139
73220ION    CL-39761   0.213  12.712  12.676
73221ION    CL-39762  35.489  12.548   4.520
73222ION    CL-39763  20.684  19.479  10.435
73223ION    CL-39764  33.285  16.938   4.126
73224ION    CL-39765  39.254   4.936  11.787
73225ION    CL-39766   9.430  16.331  10.176
73226ION    CL-39767  23.196  41.294   2.922
73227ION    CL-39768  36.069  28.326  12.283
73228ION    CL-39769  33.366  35.876   2.962
73229ION    CL-39770  38.033   1.038  11.543
73230ION    CL-39771  19.777   1.665   4.023
73231ION    CL-39772   3.768  15.183  13.846
73232ION    CL-39773  26.933  20.164  11.714
73233ION    CL-39774  12.977  36.226   5.035
73234ION    CL-39775  39.620   9.646   0.561
73235ION    CL-39776  17.539   9.248   1.715
73236ION    CL-39777  20.692  10.999  13.365
73237ION    CL-39778  35.905  26.385  10.640
73238ION    CL-39779  44.454  39.164  14.734
73239ION    CL-39780  16.506  17.879   2.120
73240ION    CL-39781  23.180  43.317  13.889
73241ION    CL-39782  32.343  24.122  10.724
73242ION    CL-39783  41.506  43.936  13.641
73243ION    CL-39784  11.669  15.297   1.664
73244ION    CL-39785  12.976  31.654   1.179
73245ION    CL-39786   5.825  21.736  13.929
73246ION    CL-39787  29.193   2.044   1.225
73247ION    CL-39788  30.369  24.823  11.998
73248ION    CL-39789  36.239  40.921  11.138
73249ION    CL-39790  19.036  11.828   0.854
73250ION    CL-39791  18.498   6.868  13.338
73251ION    CL-39792  22.235  15.517   3.734
73252ION    CL-39793   1.445  20.722  14.560
73253ION    CL-39794  25.727  17.352   3.075
73254ION    CL-39795   6.051  35.117  12.579
73255ION    CL-39796  25.721   6.948  13.918
73256ION    CL-39797   5.777  34.957   4.087
73257ION    CL-39798  17.552   2.600   1.888
73258ION    CL-39799  10.750   1.486   1.522
73259ION    CL-39800  25.577   6.672   1.913
73260ION    CL-39801  28.061   1.624  12.617
73261ION    CL-39802  22.190  41.198   0.220
73262ION    CL-39803  28.281  43.104   2.747
73263ION    CL-39804  23.944  13.583   0.246
73264ION    CL-39805  28.131  27.998  13.223
73265ION    CL-39806  14.755  35.326   1.724
73266ION    CL-39807  32.369   9.982  12.665
73267ION    CL-39808  15.825   8.778  13.429
73268ION    CL-39809  21.789  42.128  11.168
73269ION    CL-39810   2.788   8.714   3.286
73270ION    CL-39811   2.712  13.494  12.624
73271ION    CL-39812  34.904  20.728   3.225
73272ION    CL-39813  36.150  21.741   4.980
73273ION    CL-39814  26.534  12.567  12.818
73274ION    CL-39815  13.563  26.651  14.460
73275ION    CL-39816   7.389  32.296  13.877
73276ION    CL-39817  18.244   3.755   3.158
73277ION    CL-39818  14.317  14.695   0.552
73278ION    CL-39819  25.001  21.068   1.538
73279ION    CL-39820  44.486  16.149  14.511
73280ION    CL-39821  27.519  29.704  11.350
73281ION    CL-39822  11.562  40.322  11.511
73282ION    CL-39823  36.159   6.308  11.154
73283ION    CL-39824  24.626  19.028   4.029
73284ION    CL-39825   6.034  41.873  12.183
73285ION    CL-39826  30.860  27.568   0.911
73286ION    CL-39827  43.186  32.751   1.121
73287ION    CL-39828  39.489  32.059  11.179
73288ION    CL-39829  41.325  17.670   1.829
73289ION    CL-39830  28.165  15.870   5.062
73290ION    CL-39831   2.290  11.202   2.852
73291ION    CL-39832  23.985  30.261  13.574
73292ION    CL-39833  10.526  11.948  11.322
73293ION    CL-39834  42.796   3.013   0.848
73294ION    CL-39835  27.190   2.954   1.695
73295ION    CL-39836  26.737   4.686   4.812
73296ION    CL-39837  19.019  35.506  12.501
73297ION    CL-39838  22.447  18.102  14.358
73298ION    CL-39839  35.687  43.438   4.076
73299ION    CL-39840   3.431   9.397  12.597
73300ION    CL-39841  40.312   9.347   1.303
73301ION    CL-39842   4.859  40.509   3.135
73302ION    CL-39843  40.611  10.812   4.284
73303ION    CL-39844  38.723  44.258   4.226
73304ION    CL-39845  35.132   0.721   2.307
73305ION    CL-39846   2.723   6.941   3.780
73306ION    CL-39847  14.952   7.204  11.754
73307ION    CL-39848   3.260  32.045   0.744
73308ION    CL-39849  23.627   1.847  13.628
73309ION    CL-39850   2.677  35.261   4.577
73310ION    CL-39851  11.090  33.923  12.521
73311ION    CL-39852  38.691  31.436  14.003
73312ION    CL-39853  43.050  34.371   1.192
73313ION    CL-39854  28.874   1.634   1.978
73314ION    CL-39855  35.827  17.274   2.849
73315ION    CL-39856  15.827  24.410  11.039
73316ION    CL-39857   1.416  18.319  14.734
73317ION    CL-39858  20.098  13.272   0.655
73318ION    CL-39859  23.595  21.151   1.705
73319ION    CL-39860  36.909  42.024   3.477
73320ION    CL-39861  39.764  25.414  11.904
73321ION    CL-39862  37.066   8.157  12.515
73322ION    CL-39863  28.063  44.365  12.286
73323ION    CL-39864  12.562  27.015   3.793
73324ION    CL-39865   0.806  34.615   3.404
73325ION    CL-39866  39.843  22.633  10.073
73326ION    CL-39867  23.728  18.442  12.873
73327ION    CL-39868  12.656  15.690   3.574
73328ION    CL-39869  33.845  37.806   0.226
73329ION    CL-39870  31.120  39.735  14.052
73330ION    CL-39871   7.265  21.199  11.951
73331ION    CL-39872  12.079  37.841   2.768
73332ION    CL-39873  25.222  23.437  11.212
73333ION    CL-39874   6.816  36.025   0.225
73334ION    CL-39875  33.844  36.811  11.581
73335ION    CL-39876  24.467  36.567  14.828
73336ION    CL-39877  44.482  18.347   1.239
73337ION    CL-39878  36.309  14.357   0.186
73338ION    CL-39879  29.579   9.877  13.694
73339ION    CL-39880  15.625   7.212  14.205
73340ION    CL-39881  38.991  39.847   3.148
73341ION    CL-39882  32.843  12.566  12.106
73342ION    CL-39883  20.827   6.649  11.658
73343ION    CL-39884  34.438  37.932   0.892
73344ION    CL-39885  19.290   9.149  13.537
73345ION    CL-39886   8.383   5.919  14.630
73346ION    CL-39887  16.291  20.888   0.966
73347ION    CL-39888   9.667  36.997  14.803
73348ION    CL-39889  27.213  28.315   2.238
73349ION    CL-39890  24.387  24.883  11.992
73350ION    CL-39891   9.579   6.341   5.000
73351ION    CL-39892  39.094  16.658  10.424
73352ION    CL-39893  34.049  29.910   2.827
73353ION    CL-39894  22.172  26.686   4.669
73354ION    CL-39895  19.149   8.160  13.559
73355ION    CL-39896  44.506  43.557   1.568
73356ION    CL-39897   5.762  20.751   5.032
73357ION    CL-39898  31.065  21.009  11.959
73358ION    CL-39899  13.590  13.303   1.281
73359ION    CL-39900  26.907   7.137   9.926
73360ION    CL-39901  34.768   8.968  12.340
73361ION    CL-39902  17.955   9.945   4.119
73362ION    CL-39903  14.256  11.904   3.348
73363ION    CL-39904  40.670  32.752   4.746
73364ION    CL-39905  22.744  26.975   4.535
73365ION    CL-39906   1.517  39.781   2.403
73366ION    CL-39907   4.195  33.528  13.550
73367ION    CL-39908  15.135  40.989  10.641
73368ION    CL-39909  13.893  42.609  11.396
73369ION    CL-39910  22.545  43.608  11.045
73370ION    CL-39911  12.605  10.707   2.994
73371ION    CL-39912  21.364  41.368  13.962
73372ION    CL-39913  23.931  44.298   2.298
73373ION    CL-39914   1.911  35.599  10.365
73374ION    CL-39915  38.989  11.889   1.974
73375ION    CL-39916  31.677  31.645  14.119
73376ION    CL-39917   2.256   7.651   3.242
73377ION    CL-39918  15.392   4.755   1.008
73378ION    CL-39919  32.709  43.618  11.670
73379ION    CL-39920  37.400  33.345  13.866
73380ION    CL-39921   3.834  43.773   2.226
73381ION    CL-39922   4.448  44.815  10.575
73382ION    CL-39923   1.573  25.255   4.947
73383ION    CL-39924  41.082  19.006  12.207
73384ION    CL-39925  31.090  26.271  13.004
73385ION    CL-39926  38.533   3.824   2.731
73386ION    CL-39927  29.427  41.435   0.343
73387ION    CL-39928  42.118  22.169   4.002
73388ION    CL-39929  14.709  19.193  11.739
73389ION    CL-39930  39.103   1.160  12.902
73390ION    CL-39931  11.328  44.526   2.757
73391ION    CL-39932  29.950   6.463   3.416
73392ION    CL-39933   7.969  42.022  10.941
73393ION    CL-39934  27.885  13.616   4.610
73394ION    CL-39935   5.264   7.836  12.136
73395ION    CL-39936   7.034  20.165  14.238
73396ION    CL-39937   8.148  35.418  13.384
73397ION    CL-39938   0.013  31.633  12.056
73398ION    CL-39939  17.479   4.539   2.342
73399ION    CL-39940   4.515  42.035   4.626
73400ION    CL-39941  30.151  32.665   2.942
73401ION    CL-39942   3.549   5.579   2.280
73402ION    CL-39943  43.090  18.210  14.027
73403ION    CL-39944  31.907  12.845  14.349
73404ION    CL-39945   6.070  33.476   4.624
73405ION    CL-39946  44.336   7.628  13.016
73406ION    CL-39947  35.952   7.208  14.380
73407ION    CL-39948  35.984   2.931   3.180
73408ION    CL-39949  15.180   2.967   4.509
73409ION    CL-39950  30.688   7.157  12.756
73410ION    CL-39951  19.132  28.584   1.524
73411ION    CL-39952  13.854  28.560   1.956
73412ION    CL-39953  36.083  15.682  13.673
73413ION    CL-39954  27.862  37.105  14.957
73414ION    CL-39955  43.964   2.742  12.575
73415ION    CL-39956  31.280  37.358   0.829
73416ION    CL-39957  24.681  30.968  14.837
73417ION    CL-39958   4.843   8.489   2.052
73418ION    CL-39959  21.816  31.828  12.081
73419ION    CL-39960   2.661  13.525   0.054
73420ION    CL-39961  29.332  39.582   3.944
73421ION    CL-39962  36.749  13.620   0.774
73422ION    CL-39963   5.742   9.994  11.401
73423ION    CL-39964  26.380  35.811   1.191
73424ION    CL-39965  43.536  22.219  14.422
73425ION    CL-39966  32.445  11.614   4.990
73426ION    CL-39967   1.416   5.024  11.835
73427ION    CL-39968  15.193  44.279  14.557
73428ION    CL-39969   0.598  40.814  12.442
73429ION    CL-39970  27.237   6.547   0.110
73430ION    CL-39971  12.853   7.461   4.172
73431ION    CL-39972  44.365  25.128  14.791
73432ION    CL-39973  40.902  32.772  11.906
73433ION    CL-39974  18.706   0.730   3.244
73434ION    CL-39975   7.792   2.039   1.722
73435ION    CL-39976  21.351  16.044   1.524
73436ION    CL-39977  35.069  15.578   2.664
73437ION    CL-39978  26.618  31.211  14.766
73438ION    CL-39979  40.640  17.627  13.292
73439ION    CL-39980  42.608  29.592   1.899
73440ION    CL-39981   1.224   8.647   4.120
73441ION    CL-39982   4.669  42.039  12.858
73442ION    CL-39983   7.626   6.497  11.963
73443ION    CL-39984   8.066  20.250  11.528
73444ION    CL-39985  25.921  28.937  12.440
73445ION    CL-39986  25.869   2.306  14.722
73446ION    CL-39987  35.757  34.573   0.140
73447ION    CL-39988  18.212  35.331   0.017
73448ION    CL-39989  22.755  19.222   1.404
73449ION    CL-39990  23.175  39.950   4.130
73450ION    CL-39991  16.561   8.442  14.035
73451ION    CL-39992  20.061   8.308  14.484
73452ION    CL-39993  18.486  44.181   0.818
73453ION    CL-39994  12.805  11.438   3.776
73454ION    CL-39995  43.818   1.868   4.359
73455ION    CL-39996  44.769   7.102   0.618
73456ION    CL-39997  19.914   7.584  11.142
73457ION    CL-39998  17.037   8.406   3.342
73458ION    CL-39999  44.884  12.885   4.945
73459ION    CL-40000  38.490  37.064  12.362
73460ION    CL-40001  37.978  43.572  11.211
73461ION    CL-40002  13.858   7.273  14.781
73462ION    CL-40003  28.618  19.408   0.774
73463ION    CL-40004  42.894  33.023  13.274
73464ION    CL-40005  25.305  36.687   4.101
73465ION    CL-40006  38.079  42.112  12.048
73466ION    CL-40007  38.269  23.035   0.305
73467ION    CL-40008  23.994  42.228  13.847
73468ION    CL-40009  20.134  35.443  13.460
73469ION    CL-40010  28.296  18.594  11.741
73470ION    CL-40011  24.052  36.362  11.091
73471ION    CL-40012  25.237  12.688   5.057
73472ION    CL-40013  22.440   8.906   0.165
73473ION    CL-40014  22.084  34.180   2.628
73474ION    CL-40015  35.445  14.025  11.952
73475ION    CL-40016  25.655  17.832   2.172
73476ION    CL-40017   7.394  41.954  12.291
73477ION    CL-40018  39.081  31.678   2.231
73478ION    CL-40019  26.725  23.017   1.824
73479ION    CL-40020   7.061  10.827   1.967
73480ION    CL-40021  37.720   3.769   3.310
73481ION    CL-40022  22.689  33.656   3.242
73482ION    CL-40023  40.683  35.944   0.358
73483ION    CL-40024  38.264  12.397   2.225
73484ION    CL-40025  27.658   9.487   2.039
73485ION    CL-40026   2.516   2.968  14.799
73486ION    CL-40027   9.662  17.608   0.823
73487ION    CL-40028   0.400  28.064  10.753
73488ION    CL-40029  39.575  37.949  13.850
73489ION    CL-40030  19.172  34.639   4.061
73490ION    CL-40031  20.036  21.095   4.082
73491ION    CL-40032  14.241  22.718   4.225
73492ION    CL-40033  41.714   4.292  11.153
73493ION    CL-40034  11.118  26.869  10.943
73494ION    CL-40035  33.983  25.418  14.237
73495ION    CL-40036   2.388  38.949  10.635
73496ION    CL-40037  44.561  23.886   4.893
73497ION    CL-40038  27.749  42.451  12.560
73498ION    CL-40039   3.216  42.214   3.268
73499ION    CL-40040  42.639  43.675   4.634
73500ION    CL-40041   2.107  24.255  14.961
73501ION    CL-40042  33.377   9.129  10.661
73502ION    CL-40043   9.580  16.297  11.349
73503ION    CL-40044  30.418  23.500  11.572
73504ION    CL-40045  25.318  41.187   0.822
73505ION    CL-40046  21.328  27.970   1.587
73506ION    CL-40047  34.194  10.355   3.679
73507ION    CL-40048  25.093   3.092  10.127
73508ION    CL-40049  18.908   3.095  11.014
73509ION    CL-40050   0.292  14.320  11.457
73510ION    CL-40051  41.814  21.868  11.742
73511ION    CL-40052  19.174  19.564  11.730
73512ION    CL-40053  38.363  15.388   4.210
73513ION    CL-40054  44.398   8.801   2.146
73514ION    CL-40055   3.758  15.965  11.346
73515ION    CL-40056  43.536   7.510  14.393
73516ION    CL-40057   2.039  11.608   4.037
73517ION    CL-40058  43.336  42.603  13.768
73518ION    CL-40059  38.854   3.249   0.811
73519ION    CL-40060  11.627  39.007  13.188
73520ION    CL-40061  28.842   6.344  14.530
73521ION    CL-40062  29.283  44.755   4.524
73522ION    CL-40063   5.686  14.812   3.188
73523ION    CL-40064  24.901  20.736   4.141
73524ION    CL-40065  21.140   4.094   2.058
73525ION    CL-40066   8.795   3.221   4.628
73526ION    CL-40067  23.763  25.842   0.364
73527ION    CL-40068   5.167  13.306   2.402
73528ION    CL-40069  11.205  39.059  14.276
73529ION    CL-40070  17.517  10.684  13.646
73530ION    CL-40071  18.712  25.528  11.896
73531ION    CL-40072  39.026   9.288   1.282
73532ION    CL-40073   3.175  23.624   1.302
73533ION    CL-40074   5.850   0.750   0.855
73534ION    CL-40075   0.599  20.644  14.034
73535ION    CL-40076  32.031   5.348   1.000
73536ION    CL-40077   0.531  18.373   2.438
73537ION    CL-40078  12.213  10.969  14.088
73538ION    CL-40079  19.632  26.214  12.591
73539ION    CL-40080  17.710  22.578   1.379
73540ION    CL-40081  17.784  16.264   2.319
73541ION    CL-40082  38.331  26.464  12.265
73542ION    CL-40083  12.204  27.206   2.878
73543ION    CL-40084  37.511  11.839  13.833
73544ION    CL-40085  40.421  31.414   4.900
73545ION    CL-40086  33.163  36.760   1.836
73546ION    CL-40087  32.713  35.895   2.205
73547ION    CL-40088  17.212   1.367   3.560
73548ION    CL-40089   9.213  36.771  12.622
73549ION    CL-40090  11.437  23.552   1.347
73550ION    CL-40091  32.184  41.122  11.181
73551ION    CL-40092   5.830  39.588   0.071
73552ION    CL-40093  40.798  17.208   0.826
73553ION    CL-40094  42.998   2.478   2.808
73554ION    CL-40095  41.369  35.693   3.541
73555ION    CL-40096   4.066  34.704   2.798
73556ION    CL-40097  23.078  33.486  14.638
73557ION    CL-40098  17.250  19.818   3.202
73558ION    CL-40099  35.359  16.572  12.814
73559ION    CL-40100  27.018  18.144   2.415
73560ION    CL-40101  29.074  24.248  12.794
73561ION    CL-40102  16.985  17.794  12.945
73562ION    CL-40103  15.755  10.929   4.300
73563ION    CL-40104   2.852  20.282  14.035
73564ION    CL-40105  42.572   3.975  13.736
73565ION    CL-40106  39.722  29.961   4.567
73566ION    CL-40107  19.241  18.445   2.380
73567ION    CL-40108  15.193  24.443   5.065
73568ION    CL-40109  17.115  27.133   2.587
73569ION    CL-40110   2.371  42.006   4.999
73570ION    CL-40111  16.367  13.619   3.390
73571ION    CL-40112  21.420  18.216   1.391
73572ION    CL-40113  16.686   4.949   2.793
73573ION    CL-40114   9.086   8.986   4.371
73574ION    CL-40115  32.058  13.158   0.556
73575ION    CL-40116  18.676  18.845   4.731
73576ION    CL-40117  21.587   2.484   3.458
73577ION    CL-40118  20.931  37.801   3.932
73578ION    CL-40119   6.985  16.292   0.326
73579ION    CL-40120  22.338  37.660  12.521
73580ION    CL-40121   8.649   5.040   1.217
73581ION    CL-40122  41.493  36.383   2.245
73582ION    CL-40123  11.925  10.197   3.310
73583ION    CL-40124  18.578   6.231  10.675
73584ION    CL-40125  33.422   4.115   2.917
73585ION    CL-40126  31.368  14.574  10.960
73586ION    CL-40127  42.429  34.850   3.287
73587ION    CL-40128   7.964  10.149   3.707
73588ION    CL-40129  27.871   2.685  14.346
73589ION    CL-40130  13.312   7.016   0.578
73590ION    CL-40131  30.303  24.874  12.875
73591ION    CL-40132  10.913  18.602   4.189
73592ION    CL-40133  35.974  32.402   3.137
73593ION    CL-40134  43.488  22.233   0.421
73594ION    CL-40135   1.227  35.591   4.202
73595ION    CL-40136  43.327   7.522  13.367
73596ION    CL-40137   9.774   7.166   3.170
73597ION    CL-40138  10.544  33.577   0.956
73598ION    CL-40139  33.301  18.296  14.527
73599ION    CL-40140  18.111  37.808   3.777
73600ION    CL-40141  35.376   7.113   0.192
73601ION    CL-40142  14.711  13.330   3.607
73602ION    CL-40143  25.623  42.059   1.887
73603ION    CL-40144  41.850  43.759  11.435
73604ION    CL-40145  38.752  20.919   9.847
73605ION    CL-40146  42.878  30.357   0.950
73606ION    CL-40147  22.389  35.806   3.899
73607ION    CL-40148  16.423  26.661   1.317
73608ION    CL-40149  23.996  42.590   3.672
73609ION    CL-40150  12.102  30.301   0.835
73610ION    CL-40151  36.573  17.466  14.821
73611ION    CL-40152  41.512  11.394  12.959
73612ION    CL-40153   9.826  31.538   1.737
73613ION    CL-40154  11.116  43.288  12.859
73614ION    CL-40155  27.667   3.503   3.234
73615ION    CL-40156  22.005  10.308   2.686
73616ION    CL-40157  23.119  16.082  14.281
73617ION    CL-40158  35.533   3.531  14.438
73618ION    CL-40159  17.188  19.501  10.761
73619ION    CL-40160   4.634   0.057  14.919
73620ION    CL-40161  12.514  19.584  11.323
73621ION    CL-40162  37.744  26.860   1.259
73622ION    CL-40163   5.067  39.404   1.140
73623ION    CL-40164  38.058   9.060   2.731
73624ION    CL-40165  39.818  10.167   4.337
73625ION    CL-40166   4.962   6.678   1.715
73626ION    CL-40167  10.957   7.579  13.577
73627ION    CL-40168  12.838   2.257   1.506
73628ION    CL-40169  39.325  36.134   3.014
73629ION    CL-40170  43.836  23.259  13.971
73630ION    CL-40171   1.108  17.402  11.663
73631ION    CL-40172  42.177  29.841  11.110
73632ION    CL-40173  42.227  12.038  11.665
73633ION    CL-40174  14.449  36.339   0.316
73634ION    CL-40175  18.239  25.597  13.062
73635ION    CL-40176  20.547  17.955   4.633
73636ION    CL-40177  33.995  22.519  11.302
73637ION    CL-40178   3.895  36.942   2.245
73638ION    CL-40179  21.281   3.335  10.924
73639ION    CL-40180   9.910   8.255   0.364
73640ION    CL-40181  42.484  41.514  11.749
73641ION    CL-40182  15.539  37.538   3.297
73642ION    CL-40183   2.199   9.359   3.773
73643ION    CL-40184   7.028  36.000  10.756
73644ION    CL-40185   5.021  43.571  11.112
73645ION    CL-40186  43.944  16.203   3.958
73646ION    CL-40187  11.795   3.984   0.658
73647ION    CL-40188   0.337  16.325   1.202
73648ION    CL-40189  39.378  33.404   2.812
73649ION    CL-40190  28.113  17.364   5.168
73650ION    CL-40191   8.604  41.845   1.193
73651ION    CL-40192  26.323  40.391  14.861
73652ION    CL-40193   5.518  11.229   1.783
73653ION    CL-40194  38.136  30.105  12.051
73654ION    CL-40195   6.324  38.478  12.391
73655ION    CL-40196  23.938  23.679  12.737
73656ION    CL-40197  26.107  39.332   0.032
73657ION    CL-40198  43.512   2.514   0.205
73658ION    CL-40199  39.534  28.497   1.483
73659ION    CL-40200  38.230  36.980  11.400
73660ION    CL-40201   2.627  44.160   2.188
73661ION    CL-40202  25.136   3.356   0.206
73662ION    CL-40203  18.600   9.650  11.017
73663ION    CL-40204  15.867  29.503   0.789
73664ION    CL-40205   4.428  41.463  11.538
73665ION    CL-40206  40.511  22.470   4.520
73666ION    CL-40207  41.001  23.478  14.781
73667ION    CL-40208  16.299   2.295  12.643
73668ION    CL-40209  16.309  20.621   1.819
73669ION    CL-40210  23.132  32.455   2.212
73670ION    CL-40211  10.441   2.818   3.377
73671ION    CL-40212  44.021  26.163  11.249
73672ION    CL-40213  21.841  19.795   2.279
73673ION    CL-40214  23.753  25.650  12.090
73674ION    CL-40215  31.862  34.194  13.840
73675ION    CL-40216  37.559  39.052   4.130
73676ION    CL-40217  23.309  36.132  14.855
73677ION    CL-40218  12.503   0.105   1.433
73678ION    CL-40219  15.149  25.946   3.634
73679ION    CL-40220  42.214  11.869   3.973
73680ION    CL-40221  30.093   4.185  14.341
73681ION    CL-40222  16.553  23.687   3.493
73682ION    CL-40223   3.371  25.967  14.928
73683ION    CL-40224  30.213  36.911  13.848
73684ION    CL-40225   4.018  36.005   2.574
73685ION    CL-40226  44.256  29.563  14.005
73686ION    CL-40227  19.529  36.868   0.596
73687ION    CL-40228  22.850  35.357   0.312
73688ION    CL-40229  38.990  10.165  10.760
73689ION    CL-40230  27.533  31.883  12.971
73690ION    CL-40231  13.575   5.238  10.347
73691ION    CL-40232  26.573  36.664  14.219
73692ION    CL-40233  36.261  39.645  12.070
73693ION    CL-40234  13.920   1.500   4.399
73694ION    CL-40235  10.572  32.330   4.243
73695ION    CL-40236  19.946  19.100  13.936
73696ION    CL-40237  24.721  30.646   9.815
73697ION    CL-40238  27.459  32.469   0.034
73698ION    CL-40239  32.136  17.107   2.490
73699ION    CL-40240  34.850  10.512  11.775
73700ION    CL-40241  30.002  41.285   4.177
73701ION    CL-40242  31.461   8.349  12.960
73702ION    CL-40243  18.445  22.128  12.883
73703ION    CL-40244  43.143  28.456  11.171
73704ION    CL-40245  24.097   8.330  12.230
73705ION    CL-40246  10.517  35.067  11.847
73706ION    CL-40247  13.795  16.976  10.677
73707ION    CL-40248   8.422   3.069   1.546
73708ION    CL-40249  13.586   6.656  12.925
73709ION    CL-40250  20.772  38.969  12.668
73710ION    CL-40251   7.169  33.275  13.934
73711ION    CL-40252  32.403  17.531   0.877
73712ION    CL-40253  14.216   2.385  13.110
73713ION    CL-40254  44.883  21.388  12.794
73714ION    CL-40255  34.670  21.535   5.105
73715ION    CL-40256  25.177   5.630  13.617
73716ION    CL-40257   0.344  36.585   4.301
73717ION    CL-40258  14.838  16.600   2.402
73718ION    CL-40259  40.287  12.157   4.588
73719ION    CL-40260  39.019  42.909   1.866
73720ION    CL-40261  14.858  13.278   1.205
73721ION    CL-40262  11.786  28.534   1.931
73722ION    CL-40263   9.848   5.881  11.530
73723ION    CL-40264   2.222  31.897   1.714
73724ION    CL-40265  37.688   0.320   0.807
73725ION    CL-40266   8.367  32.688  13.876
73726ION    CL-40267  34.305  43.700  12.726
73727ION    CL-40268  22.567  24.327   5.021
73728ION    CL-40269  19.119  42.449  12.005
73729ION    CL-40270  27.466  39.983   2.458
73730ION    CL-40271  22.602  34.698   3.644
73731ION    CL-40272  39.012  25.187  13.511
73732ION    CL-40273  18.460  29.076  13.000
73733ION    CL-40274  16.053   7.221   1.332
73734ION    CL-40275  27.071   9.829  12.783
73735ION    CL-40276   1.066   6.647   3.943
73736ION    CL-40277  40.603   7.673   4.366
73737ION    CL-40278  28.315  39.694  11.709
73738ION    CL-40279   1.586  18.813  13.590
73739ION    CL-40280  28.415  18.622  14.200
73740ION    CL-40281   9.745  23.195  13.377
73741ION    CL-40282  22.508   0.323   1.265
73742ION    CL-40283  12.856  43.927   3.234
73743ION    CL-40284  27.721  30.074  13.287
73744ION    CL-40285  22.015  14.938  11.114
73745ION    CL-40286   8.711  29.658   1.430
73746ION    CL-40287  44.430  42.898  13.001
73747ION    CL-40288  28.710  16.445  12.585
73748ION    CL-40289   3.475  25.216  12.113
73749ION    CL-40290  23.948  12.467  12.189
73750ION    CL-40291  43.805  18.326  11.973
73751ION    CL-40292  20.864  44.971   4.543
73752ION    CL-40293  30.613  22.132  11.537
73753ION    CL-40294  35.319  26.154   1.704
73754ION    CL-40295   9.671  12.751  11.071
73755ION    CL-40296  20.233   0.687   1.481
73756ION    CL-40297  17.803  11.670   4.883
73757ION    CL-40298  41.063  40.056  12.289
73758ION    CL-40299   4.515  37.599  14.885
73759ION    CL-40300  31.654  29.995   4.529
73760ION    CL-40301  20.757  44.348  14.434
73761ION    CL-40302  13.165  11.116  11.270
73762ION    CL-40303  29.469  18.317   0.926
73763ION    CL-40304  44.785  18.944   5.075
73764ION    CL-40305  28.230  10.961   3.778
73765ION    CL-40306  34.337  41.619  14.256
73766ION    CL-40307  27.700  28.130  10.719
73767ION    CL-40308  10.439  19.161   0.389
73768ION    CL-40309  21.030  39.619  11.607
73769ION    CL-40310  11.549   4.990  14.743
73770ION    CL-40311  28.703   1.052  11.132
73771ION    CL-40312  32.188  22.395   2.469
73772ION    CL-40313  27.755  31.073  13.317
73773ION    CL-40314  11.635  35.982   0.442
73774ION    CL-40315  18.609  19.257  13.750
73775ION    CL-40316  41.031  30.266  11.244
73776ION    CL-40317  34.792  37.004   2.627
73777ION    CL-40318  13.635   4.682  11.251
73778ION    CL-40319  10.005  34.323   0.564
73779ION    CL-40320  22.175  18.783  12.957
73780ION    CL-40321  24.523  20.810  14.747
73781ION    CL-40322  12.552  24.168  10.809
73782ION    CL-40323   1.625   2.794  14.378
73783ION    CL-40324   3.878  26.012   1.780
73784ION    CL-40325  35.890  39.484  13.502
73785ION    CL-40326  19.475  42.658   5.051
73786ION    CL-40327  15.146  39.201   2.171
73787ION    CL-40328  37.644  34.359  11.436
73788ION    CL-40329  22.864   8.212   2.022
73789ION    CL-40330  28.444   3.289   2.643
73790ION    CL-40331  24.137  16.591   3.812
73791ION    CL-40332   1.733  30.352   4.433
73792ION    CL-40333  14.670   0.427   5.010
73793ION    CL-40334  18.782   5.329   4.802
73794ION    CL-40335   1.864  43.498  13.387
73795ION    CL-40336  44.518  32.217   0.085
73796ION    CL-40337  19.625  18.954   1.529
73797ION    CL-40338  10.763   5.831  13.580
73798ION    CL-40339  10.619   3.720   3.770
73799ION    CL-40340  15.851  33.704   0.750
73800ION    CL-40341  22.773   0.406   4.791
73801ION    CL-40342  34.044   4.956  12.048
73802ION    CL-40343  15.619  25.292  11.460
73803ION    CL-40344  24.167  23.042   3.774
73804ION    CL-40345   0.432   7.307   3.481
73805ION    CL-40346  27.425  33.334  14.498
73806ION    CL-40347  12.287   1.044   3.611
73807ION    CL-40348   7.305  15.384  11.461
73808ION    CL-40349  31.851  10.156  11.928
73809ION    CL-40350  31.395  40.294   2.567
73810ION    CL-40351  30.933  43.443  14.256
73811ION    CL-40352  44.913   8.151   3.342
73812ION    CL-40353  18.560  12.464   1.461
73813ION    CL-40354  26.846  26.455  11.811
73814ION    CL-40355  36.788  16.281   1.779
73815ION    CL-40356   4.272  10.005  14.849
73816ION    CL-40357  28.379  15.770  10.237
73817ION    CL-40358  36.292   0.893  13.336
73818ION    CL-40359  18.661  18.602   3.268
73819ION    CL-40360  36.973  28.781  14.727
73820ION    CL-40361  27.870   8.979   0.385
73821ION    CL-40362  30.602  13.451   2.283
73822ION    CL-40363   4.060  43.006   5.084
73823ION    CL-40364  21.660  32.773   4.899
73824ION    CL-40365  40.122  25.542   0.629
73825ION    CL-40366  26.834  33.825   0.869
73826ION    CL-40367   3.817  44.751  14.409
73827ION    CL-40368  42.608  40.528   4.105
73828ION    CL-40369  26.436  36.996   2.210
73829ION    CL-40370  10.200  18.273   4.925
73830ION    CL-40371   6.440  41.905  14.909
73831ION    CL-40372  33.227  16.662   0.116
73832ION    CL-40373  12.950  33.332   0.596
73833ION    CL-40374  18.774  24.755  12.988
73834ION    CL-40375  14.165   1.547  11.589
73835ION    CL-40376  11.048   1.669  14.007
73836ION    CL-40377  23.957  23.461  11.655
73837ION    CL-40378  34.371  27.215   2.476
73838ION    CL-40379  11.538  12.521  13.485
73839ION    CL-40380  25.737  16.204   3.816
73840ION    CL-40381  10.941  23.862   0.633
73841ION    CL-40382  26.865  23.077   0.732
73842ION    CL-40383  43.815  35.864   1.672
73843ION    CL-40384  36.494  42.995  13.893
73844ION    CL-40385  14.290  29.690  14.859
73845ION    CL-40386  33.872  24.014  10.833
73846ION    CL-40387  38.157   3.570  12.330
73847ION    CL-40388  34.792  30.470   3.264
73848ION    CL-40389  36.391  11.754   0.755
73849ION    CL-40390  19.832  36.288  13.289
73850ION    CL-40391   4.752  36.622  12.954
73851ION    CL-40392  11.339   1.770  14.958
73852ION    CL-40393   4.134  23.298  14.880
73853ION    CL-40394  37.080   0.760   1.426
73854ION    CL-40395  35.137  40.462  10.670
73855ION    CL-40396  43.413   0.253  13.855
73856ION    CL-40397  10.860  36.885   4.564
73857ION    CL-40398  28.379   2.710   4.045
73858ION    CL-40399  31.457  17.894  11.218
73859ION    CL-40400   0.426  13.791   3.410
73860ION    CL-40401  36.212  11.508   2.179
73861ION    CL-40402  27.366  35.534   1.900
73862ION    CL-40403   5.066  29.742   9.391
73863ION    CL-40404  28.556  12.140   2.548
73864ION    CL-40405  33.921  17.102   3.320
73865ION    CL-40406  10.684  32.605  13.070
73866ION    CL-40407  27.058   7.976   3.083
73867ION    CL-40408  10.720  24.487  10.710
73868ION    CL-40409   4.249  34.148   2.110
73869ION    CL-40410   3.458  22.659   5.187
73870ION    CL-40411   2.514  22.719  14.298
73871ION    CL-40412  37.347  12.185   0.346
73872ION    CL-40413  14.840  11.423  14.052
73873ION    CL-40414  40.020  22.324   3.625
73874ION    CL-40415  36.891  37.847   0.585
73875ION    CL-40416  26.020  25.504  12.637
73876ION    CL-40417   6.376  19.584  14.148
73877ION    CL-40418  30.404  31.905   0.272
73878ION    CL-40419  24.870  43.745  14.325
73879ION    CL-40420  17.602   7.849   3.996
73880ION    CL-40421  33.894   4.236   0.945
73881ION    CL-40422  41.144  26.132  14.256
73882ION    CL-40423  29.562   5.087   4.564
73883ION    CL-40424  31.230  15.799  13.230
73884ION    CL-40425  40.252   4.891   0.877
73885ION    CL-40426   0.453  32.591   3.093
73886ION    CL-40427   6.259  27.303  11.187
73887ION    CL-40428  42.474  34.252  11.853
73888ION    CL-40429  32.864   2.441  14.480
73889ION    CL-40430  28.045  23.051  13.667
73890ION    CL-40431   1.890  28.990   4.579
73891ION    CL-40432  10.758   0.945   0.603
73892ION    CL-40433  33.353  19.029  12.489
73893ION    CL-40434  21.463  33.544  11.147
73894ION    CL-40435  40.931  44.855   3.900
73895ION    CL-40436  27.367  43.773   4.267
73896ION    CL-40437  44.165  14.845  10.313
73897ION    CL-40438  40.912   2.186  12.136
73898ION    CL-40439   9.202   9.257   0.567
73899ION    CL-40440   8.440  33.039   3.416
73900ION    CL-40441   8.205  44.205   2.986
73901ION    CL-40442   8.647  12.728  11.770
73902ION    CL-40443  28.410   0.050   4.045
73903ION    CL-40444  24.671  44.372   0.568
73904ION    CL-40445  42.750  30.641  12.378
73905ION    CL-40446  39.601  42.796  13.513
73906ION    CL-40447   6.112   7.665   1.647
73907ION    CL-40448  12.554  19.107  12.591
73908ION    CL-40449  38.467  44.023  10.465
73909ION    CL-40450  10.342  21.418   3.250
73910ION    CL-40451   5.986  22.200   3.973
73911ION    CL-40452  13.042  42.212  11.743
73912ION    CL-40453  12.562  34.557   3.856
73913ION    CL-40454  26.037  34.809  13.872
73914ION    CL-40455  41.967  17.787  13.443
73915ION    CL-40456  35.112   0.069   3.654
73916ION    CL-40457  24.865   6.578  13.556
73917ION    CL-40458  25.032   9.442   4.090
73918ION    CL-40459  36.488  13.114  10.963
73919ION    CL-40460  16.026  42.414  12.884
73920ION    CL-40461  22.622  11.736   3.627
73921ION    CL-40462  22.533   6.876  13.726
73922ION    CL-40463   8.435   5.062   3.935
73923ION    CL-40464   1.684  15.607   2.388
73924ION    CL-40465   5.766   5.383   1.973
73925ION    CL-40466  22.998  16.480   1.647
73926ION    CL-40467   6.565   6.531   4.755
73927ION    CL-40468  24.735  27.653   3.684
73928ION    CL-40469   9.557  44.387   1.911
73929ION    CL-40470  24.514  21.728  13.550
73930ION    CL-40471  25.860   1.122  13.515
73931ION    CL-40472  32.377  24.085   0.793
73932ION    CL-40473   7.338   1.041   2.706
73933ION    CL-40474  28.489  31.666  13.977
73934ION    CL-40475  13.435  26.420   5.271
73935ION    CL-40476  30.102  24.175  13.561
73936ION    CL-40477  32.079  11.631  14.021
73937ION    CL-40478  13.073  32.756  13.042
73938ION    CL-40479   3.307  19.714  12.632
73939ION    CL-40480   3.999  27.174  13.305
73940ION    CL-40481  12.587  33.200  11.384
73941ION    CL-40482  10.902   6.384   0.727
73942ION    CL-40483  43.584  32.646   0.353
73943ION    CL-40484   6.995   2.027   0.121
73944ION    CL-40485  43.456  34.181  12.985
73945ION    CL-40486  19.015   1.008   1.753
73946ION    CL-40487  42.576  32.164   4.672
73947ION    CL-40488  19.819   6.205   4.761
73948ION    CL-40489  26.458  28.175   5.194
73949ION    CL-40490  18.678  31.478  11.895
73950ION    CL-40491  34.528  11.718   0.555
73951ION    CL-40492  19.096  39.806   2.834
73952ION    CL-40493  28.685  25.086   0.215
73953ION    CL-40494  19.631  42.893  10.792
73954ION    CL-40495  21.667  10.770  13.766
73955ION    CL-40496  26.513   7.751  10.437
73956ION    CL-40497  34.664  31.693  13.858
73957ION    CL-40498  11.253  42.258   0.785
73958ION    CL-40499  23.200  28.863  11.122
73959ION    CL-40500  43.206  41.820   5.018
73960ION    CL-40501  28.953  39.409  13.980
73961ION    CL-40502  40.573  18.187   4.533
73962ION    CL-40503  12.609  25.930   2.706
73963ION    CL-40504  24.718  24.509  14.072
73964ION    CL-40505  35.593  21.282  13.935
73965ION    CL-40506  41.512  18.733  13.069
73966ION    CL-40507  14.293  13.106   0.396
73967ION    CL-40508  16.678   1.719   4.329
73968ION    CL-40509   0.247  43.855  10.778
73969ION    CL-40510  12.483  38.837  12.698
73970ION    CL-40511  30.930  31.416   0.760
73971ION    CL-40512  37.883  18.743   4.070
73972ION    CL-40513   9.227  37.541   1.790
73973ION    CL-40514  19.393  16.428   3.002
73974ION    CL-40515  30.059  12.961   2.804
73975ION    CL-40516   1.180  40.312   3.659
73976ION    CL-40517  37.374  29.285   4.631
73977ION    CL-40518  42.031  38.356  13.165
73978ION    CL-40519  39.491   5.639  14.805
73979ION    CL-40520  42.798  21.415   2.809
73980ION    CL-40521  24.129  33.016   4.020
73981ION    CL-40522  29.530  21.312  14.858
73982ION    CL-40523  12.242  37.262   1.239
73983ION    CL-40524  42.844  17.808   1.874
73984ION    CL-40525  30.813   4.795   9.974
73985ION    CL-40526  25.085  18.057  11.533
73986ION    CL-40527  31.558  23.509   4.327
73987ION    CL-40528  44.073  27.963   3.693
73988ION    CL-40529  28.046   2.189   2.289
73989ION    CL-40530  14.319  32.698  12.654
73990ION    CL-40531  39.131  44.188   2.266
73991ION    CL-40532   3.997  18.997  12.529
73992ION    CL-40533  16.828  10.008  10.426
73993ION    CL-40534  20.042  10.508  14.187
73994ION    CL-40535  35.658   9.953  12.854
73995ION    CL-40536   8.342  15.076  12.046
73996ION    CL-40537  39.328  44.151   0.904
73997ION    CL-40538   7.022  44.973  10.474
73998ION    CL-40539   2.262  35.729  11.731
73999ION    CL-40540  44.395  10.950  11.079
74000ION    CL-40541  17.738   2.408  11.365
74001ION    CL-40542   7.583   5.305   0.433
74002ION    CL-40543   0.887   2.639  10.234
74003ION    CL-40544  38.491   9.900  11.983
74004ION    CL-40545  23.932   3.728   1.804
74005ION    CL-40546  43.785   9.290  14.586
74006ION    CL-40547  18.969  30.610   1.806
74007ION    CL-40548   8.659  17.479   2.566
74008ION    CL-40549   1.800   7.513   2.361
74009ION    CL-40550  24.628  28.680   1.325
74010ION    CL-40551  13.467  44.706  14.958
74011ION    CL-40552  14.851  32.535  11.624
74012ION    CL-40553  25.030  40.028   0.333
74013ION    CL-40554  24.245   6.344   3.138
74014ION    CL-40555  10.729  35.779  12.361
74015ION    CL-40556  13.676  38.536  14.278
74016ION    CL-40557   4.721  27.545  11.206
74017ION    CL-40558  34.908  18.146   2.457
74018ION    CL-40559   2.738  36.903   4.154
74019ION    CL-40560  37.236  36.097  10.971
74020ION    CL-40561  19.603  43.421   1.380
74021ION    CL-40562  16.760  41.578   0.093
74022ION    CL-40563  39.729  23.102  11.555
74023ION    CL-40564   8.451  37.204  13.103
74024ION    CL-40565  42.909  37.609   1.898
74025ION    CL-40566   1.769  23.971   4.046
74026ION    CL-40567  40.278  23.859   4.196
74027ION    CL-40568  30.176   3.384   5.109
74028ION    CL-40569  14.080  32.324  14.482
74029ION    CL-40570   9.420   4.439   1.008
74030ION    CL-40571  40.252   7.481   1.230
74031ION    CL-40572   3.131  23.627  10.385
74032ION    CL-40573  39.895  39.935   3.186
74033ION    CL-40574   6.789  29.266  11.425
74034ION    CL-40575   3.436  44.147   4.040
74035ION    CL-40576  18.039  25.109   4.872
74036ION    CL-40577  28.165  21.481   3.264
74037ION    CL-40578  42.582  16.503  14.861
74038ION    CL-40579  44.655  42.439  10.840
74039ION    CL-40580   9.974   1.906   0.077
74040ION    CL-40581  21.065  26.795   3.057
74041ION    CL-40582  29.108   2.692   3.138
74042ION    CL-40583   3.984  19.774  11.898
74043ION    CL-40584   9.384   8.957   2.574
74044ION    CL-40585   8.828  34.522   5.141
74045ION    CL-40586  16.471   4.098   3.273
74046ION    CL-40587  18.396   9.894   1.598
74047ION    CL-40588  23.124  28.619   4.121
74048ION    CL-40589  19.505   6.669   0.715
74049ION    CL-40590  13.048   5.773  11.055
74050ION    CL-40591  14.865  17.289   1.677
74051ION    CL-40592   6.506  31.922   1.636
74052ION    CL-40593  35.418  35.483   4.481
74053ION    CL-40594  15.297  25.974  13.505
74054ION    CL-40595  22.952  15.399  12.711
74055ION    CL-40596  40.515  42.938  13.037
74056ION    CL-40597  44.312  44.845  10.994
74057ION    CL-40598  26.625  14.785   0.445
74058ION    CL-40599   3.371  38.074   3.456
74059ION    CL-40600  18.663  21.872  13.903
74060ION    CL-40601   9.234   7.883   2.729
74061ION    CL-40602  39.346  39.096   1.414
74062ION    CL-40603  16.541  15.025   4.457
74063ION    CL-40604  34.111  17.723  13.940
74064ION    CL-40605   1.725  19.315  14.328
74065ION    CL-40606  37.965   9.418   5.115
74066ION    CL-40607  32.773  34.208  13.429
74067ION    CL-40608  34.511  27.550  14.531
74068ION    CL-40609  26.220  28.133  14.459
74069ION    CL-40610   6.011  37.592  12.731
74070ION    CL-40611  12.384   0.954   0.919
74071ION    CL-40612   0.196  29.860  13.841
74072ION    CL-40613  40.106   6.150   0.430
74073ION    CL-40614  17.489   5.075   0.359
74074ION    CL-40615  34.922   0.762  11.646
74075ION    CL-40616  44.451   1.755  11.454
74076ION    CL-40617   0.559  18.007  11.273
74077ION    CL-40618   0.252  32.530  14.314
74078ION    CL-40619  32.883  35.278   0.209
74079ION    CL-40620  14.248  26.361   4.911
74080ION    CL-40621  31.684  28.768   1.935
74081ION    CL-40622  15.595  40.918  13.087
74082ION    CL-40623   0.825  22.723  11.460
74083ION    CL-40624  21.801  19.729   1.282
74084ION    CL-40625   4.253   9.929   4.614
74085ION    CL-40626  40.622  20.625   1.776
74086ION    CL-40627  34.779  41.625   3.989
74087ION    CL-40628  42.318  27.127  12.027
74088ION    CL-40629  22.033  20.696   4.984
74089ION    CL-40630  29.726  25.354  11.733
74090ION    CL-40631  40.591  43.566  13.812
74091ION    CL-40632  40.546  29.137  13.075
74092ION    CL-40633   7.743  41.309   3.644
74093ION    CL-40634  19.305  41.600   3.432
74094ION    CL-40635  17.556  42.776   2.288
74095ION    CL-40636   4.642  19.159  14.272
74096ION    CL-40637   2.294  40.371   4.072
74097ION    CL-40638  28.702  35.119  14.425
74098ION    CL-40639  38.276   7.176   1.320
74099ION    CL-40640  21.493  19.983  12.646
74100ION    CL-40641  14.114  31.107  14.987
74101ION    CL-40642  24.715   2.805  14.656
74102ION    CL-40643   1.980  39.713  12.185
74103ION    CL-40644  40.202   8.736  11.534
74104ION    CL-40645  15.350  18.147   1.846
74105ION    CL-40646  21.872  40.131   1.378
74106ION    CL-40647  42.295  35.028  14.317
74107ION    CL-40648  14.676   3.369  10.972
74108ION    CL-40649  18.773  34.663   0.201
74109ION    CL-40650  39.903  24.587   3.622
74110ION    CL-40651  33.809   7.797   2.011
74111ION    CL-40652  11.407   3.295  13.075
74112ION    CL-40653   4.463  21.192  13.415
74113ION    CL-40654  13.286  23.358  11.269
74114ION    CL-40655  27.287  10.034   3.722
74115ION    CL-40656  25.329  14.538   4.531
74116ION    CL-40657  15.147   7.800   0.852
74117ION    CL-40658  32.375  26.183   3.263
74118ION    CL-40659  14.810  17.826   2.683
74119ION    CL-40660  38.401   9.525  13.553
74120ION    CL-40661  12.708  23.684   1.665
74121ION    CL-40662  33.815  28.567  14.807
74122ION    CL-40663  26.489  16.626   1.855
74123ION    CL-40664   6.448  23.088   2.651
74124ION    CL-40665  20.543  33.145   0.864
74125ION    CL-40666  14.328   5.381   4.138
74126ION    CL-40667  29.535  14.023   0.934
74127ION    CL-40668  30.908  22.102   2.363
74128ION    CL-40669   4.250  14.238  10.028
74129ION    CL-40670   0.678  38.195   0.130
74130ION    CL-40671  42.965  31.479  11.876
74131ION    CL-40672  43.920  28.638   0.686
74132ION    CL-40673  40.432  18.735   1.675
74133ION    CL-40674  30.363   2.248   2.673
74134ION    CL-40675  14.265  35.323  10.691
74135ION    CL-40676   4.032  12.559  13.797
74136ION    CL-40677  15.339  19.633  14.848
74137ION    CL-40678   7.282   1.432  14.541
74138ION    CL-40679  33.291  33.480   4.849
74139ION    CL-40680   4.493   5.248   2.318
74140ION    CL-40681   7.423   4.880   4.104
74141ION    CL-40682  38.286   4.329   1.800
74142ION    CL-40683  16.448  18.794   2.187
74143ION    CL-40684  14.075   6.425   2.347
74144ION    CL-40685   4.804  16.302   0.778
74145ION    CL-40686  17.554  35.054   2.700
74146ION    CL-40687  33.504  10.194  11.745
74147ION    CL-40688  43.475  42.065  10.712
74148ION    CL-40689  29.553   2.462  10.666
74149ION    CL-40690   3.118   1.864  14.807
74150ION    CL-40691   6.895  38.069  12.832
74151ION    CL-40692  24.982   7.661  14.428
74152ION    CL-40693  20.232  15.217  13.509
74153ION    CL-40694  30.448  31.798   3.347
74154ION    CL-40695  25.723  43.930  14.820
74155ION    CL-40696  38.902  24.459  10.096
74156ION    CL-40697  43.453  43.394  14.466
74157ION    CL-40698  34.517  17.408  13.082
74158ION    CL-40699  30.812  31.931  11.601
74159ION    CL-40700   6.376   3.821   2.154
74160ION    CL-40701  42.323  34.120   0.553
74161ION    CL-40702  12.675  19.536   2.327
74162ION    CL-40703  19.205  11.226  10.294
74163ION    CL-40704  37.897  16.118   0.292
74164ION    CL-40705  10.059   0.128   2.849
74165ION    CL-40706  31.637  10.599   0.919
74166ION    CL-40707  13.151  40.423   0.021
74167ION    CL-40708  26.030   4.046   3.673
74168ION    CL-40709  33.183  31.707   5.187
74169ION    CL-40710  31.452  14.166  14.419
74170ION    CL-40711   3.553  42.952  10.799
74171ION    CL-40712   5.101   0.579   1.286
74172ION    CL-40713  29.240  43.062   3.291
74173ION    CL-40714  15.356  31.404   3.306
74174ION    CL-40715  39.383  10.039  14.673
74175ION    CL-40716  28.764  10.130   3.621
74176ION    CL-40717  43.221  21.031  13.828
74177ION    CL-40718  15.924  13.733   5.353
74178ION    CL-40719   8.376   7.556  11.787
74179ION    CL-40720  39.864  41.367  13.883
74180ION    CL-40721  39.339   5.636   3.746
74181ION    CL-40722  40.838  16.236  13.071
74182ION    CL-40723  16.798   5.956  12.704
74183ION    CL-40724  34.065  13.217   3.534
74184ION    CL-40725   2.343   3.170  11.247
74185ION    CL-40726  20.911  42.304  14.421
74186ION    CL-40727  25.708  42.652   0.035
74187ION    CL-40728  41.164   6.067  10.633
74188ION    CL-40729   6.960  20.647   0.111
74189ION    CL-40730  18.833  16.951  13.844
74190ION    CL-40731   7.251  43.879   4.077
74191ION    CL-40732  38.968  27.059  11.732
74192ION    CL-40733  44.090  13.979  12.608
74193ION    CL-40734  30.228  34.018  11.112
74194ION    CL-40735  32.038  35.519   1.813
74195ION    CL-40736  14.702  10.242  10.691
74196ION    CL-40737  27.969  20.075   1.609
74197ION    CL-40738  40.161  33.800   0.964
74198ION    CL-40739   0.184  23.449  11.212
74199ION    CL-40740  28.398  11.028  11.434
74200ION    CL-40741   2.929  26.369  14.043
74201ION    CL-40742  18.903  12.641  10.621
74202ION    CL-40743  11.481  23.303  12.015
74203ION    CL-40744  20.636  26.310   1.376
74204ION    CL-40745   4.949  41.130  13.169
74205ION    CL-40746  32.895  26.083   0.843
74206ION    CL-40747  23.002   9.756  11.374
74207ION    CL-40748   3.087  29.462   0.256
74208ION    CL-40749  13.877  37.808   3.685
74209ION    CL-40750  12.402  10.222   0.342
74210ION    CL-40751  29.984  20.019   4.908
74211ION    CL-40752  34.164  34.486  10.305
74212ION    CL-40753  10.412  40.776   0.638
74213ION    CL-40754  26.941  18.018  14.889
74214ION    CL-40755   9.361   9.405  11.488
74215ION    CL-40756  26.793  31.719   2.311
74216ION    CL-40757  39.707   7.893   4.288
74217ION    CL-40758  32.552   1.461  12.247
74218ION    CL-40759  14.219  18.519   0.689
74219ION    CL-40760  10.058  41.776   5.247
74220ION    CL-40761  14.913  40.062   4.934
74221ION    CL-40762  40.313  10.913   1.735
74222ION    CL-40763  15.420  36.855   2.451
74223ION    CL-40764  29.982  43.418  12.120
74224ION    CL-40765   0.159  11.510   0.206
74225ION    CL-40766   0.691   4.585   1.731
74226ION    CL-40767  26.489  35.773  13.620
74227ION    CL-40768  22.458  22.628  14.564
74228ION    CL-40769  32.911   0.708  11.159
74229ION    CL-40770   4.401  38.080   4.996
74230ION    CL-40771  27.282  15.811  13.986
74231ION    CL-40772   2.445  12.138   1.995
74232ION    CL-40773  16.798  26.035   4.379
74233ION    CL-40774  36.924  36.423   0.252
74234ION    CL-40775  14.875  42.040  10.698
74235ION    CL-40776  26.704  26.441  13.579
74236ION    CL-40777  14.051  34.892   1.338
74237ION    CL-40778  39.421   5.959  13.260
74238ION    CL-40779  24.077  13.101  13.179
74239ION    CL-40780  10.426  17.687   9.859
74240ION    CL-40781  30.361  30.880  12.695
74241ION    CL-40782  28.094  35.556   1.214
74242ION    CL-40783   2.452  19.758  12.041
74243ION    CL-40784  44.860  35.157  12.424
74244ION    CL-40785   0.292  33.929   2.418
74245ION    CL-40786  34.722  18.537  13.899
74246ION    CL-40787  37.616  12.425  12.230
74247ION    CL-40788  26.369  12.657   1.834
74248ION    CL-40789  41.499  40.049  10.289
74249ION    CL-40790   6.950  43.037   4.750
74250ION    CL-40791  31.506  27.462   3.522
74251ION    CL-40792  44.231  37.061  12.479
74252ION    CL-40793  22.970   9.396  14.473
74253ION    CL-40794  38.097   5.530  14.874
74254ION    CL-40795   1.489  38.328   3.168
74255ION    CL-40796  21.058  40.083  10.721
74256ION    CL-40797  27.992  17.489   0.558
74257ION    CL-40798  23.957  41.101   4.549
74258ION    CL-40799  35.269  33.929   1.968
74259ION    CL-40800  18.437  37.428  13.374
74260ION    CL-40801  24.067  23.073   2.727
74261ION    CL-40802  28.203  12.312   9.708
74262ION    CL-40803  15.306   0.027  14.969
74263ION    CL-40804  15.927  38.730  14.931
74264ION    CL-40805  37.106   4.162  13.034
74265ION    CL-40806  15.298  26.975  10.648
74266ION    CL-40807  14.100  24.184   1.350
74267ION    CL-40808  13.197   1.586   3.907
74268ION    CL-40809  23.779  32.304  12.794
74269ION    CL-40810  44.644   1.685  12.580
74270ION    CL-40811  28.877  30.310   3.701
74271ION    CL-40812   1.577   6.416  11.983
74272ION    CL-40813   3.785   0.549   2.460
74273ION    CL-40814   9.439  15.195   2.500
74274ION    CL-40815  24.650   0.134   2.319
74275ION    CL-40816  41.489   2.705  13.742
74276ION    CL-40817  22.978  39.549   2.302
74277ION    CL-40818  43.069  11.765  11.113
74278ION    CL-40819  35.872  44.772   1.581
74279ION    CL-40820   4.400  28.904  13.670
74280ION    CL-40821  40.969  24.650   5.059
74281ION    CL-40822  30.946  15.352  11.164
74282ION    CL-40823  38.505  20.289   2.394
74283ION    CL-40824   5.195  40.537  12.393
74284ION    CL-40825  38.467  25.223   9.940
74285ION    CL-40826  18.263  28.201  14.005
74286ION    CL-40827   8.911  20.442  10.436
74287ION    CL-40828  36.239   6.533   5.049
74288ION    CL-40829  21.466  17.936  12.057
74289ION    CL-40830  44.146  32.131   2.791
74290ION    CL-40831  26.057  40.428  13.897
74291ION    CL-40832   0.276   5.426  14.392
74292ION    CL-40833  37.990  22.194   1.740
74293ION    CL-40834  23.071  32.813  12.511
74294ION    CL-40835  11.247  16.563   1.240
74295ION    CL-40836  18.791   8.979   0.073
74296ION    CL-40837   5.172  23.880   4.362
74297ION    CL-40838  23.516  16.567  11.112
74298ION    CL-40839  38.667  17.674  14.478
74299ION    CL-40840  40.065  37.462   4.065
74300ION    CL-40841   6.326  36.887   0.359
74301ION    CL-40842  31.119  20.196   0.645
74302ION    CL-40843  32.525  38.612   0.348
74303ION    CL-40844   1.595   9.644   1.884
74304ION    CL-40845  26.371  17.116  13.418
74305ION    CL-40846  37.850  24.837   3.035
74306ION    CL-40847  33.416   8.388  14.917
74307ION    CL-40848  23.630  34.961   2.883
74308ION    CL-40849  38.165   5.532  13.279
74309ION    CL-40850   4.105  10.360   1.590
74310ION    CL-40851  36.254  27.984  11.479
74311ION    CL-40852  36.771  22.372  10.975
74312ION    CL-40853  34.502  12.822  14.386
74313ION    CL-40854  35.354  12.630   0.903
74314ION    CL-40855  22.025  13.387   3.403
74315ION    CL-40856  34.147  23.487  11.637
74316ION    CL-40857  29.258  42.227  14.288
74317ION    CL-40858  41.892  11.101  14.172
74318ION    CL-40859   2.883   7.855  13.532
74319ION    CL-40860  32.884  18.916  10.191
74320ION    CL-40861  38.967  36.523  11.669
74321ION    CL-40862   9.175  22.327   1.408
74322ION    CL-40863  20.662  29.391  12.030
74323ION    CL-40864   7.255   3.393  13.393
74324ION    CL-40865  30.285  33.183  10.753
74325ION    CL-40866  37.107  33.818  12.082
74326ION    CL-40867  14.760  43.555   1.249
74327ION    CL-40868  28.340  15.542   2.288
74328ION    CL-40869  11.212  11.660   2.237
74329ION    CL-40870  29.098   7.523   4.424
74330ION    CL-40871   0.610  23.488   1.933
74331ION    CL-40872  38.836   7.403  11.187
74332ION    CL-40873  38.944   8.153   2.182
74333ION    CL-40874  27.078   0.951   0.700
74334ION    CL-40875  35.400  34.463   2.661
74335ION    CL-40876   8.654  21.008  11.246
74336ION    CL-40877  34.223   1.394  11.430
74337ION    CL-40878  21.703   9.369   1.847
74338ION    CL-40879  28.340  24.557  13.180
74339ION    CL-40880  37.803  29.164  11.996
74340ION    CL-40881  29.114  14.081   1.718
74341ION    CL-40882  23.749  27.495   3.749
74342ION    CL-40883   0.219  40.046   2.629
74343ION    CL-40884  12.297  12.235  13.857
74344ION    CL-40885   9.779  29.903  10.360
74345ION    CL-40886  31.663  35.012  14.777
74346ION    CL-40887   0.965  24.132  13.182
74347ION    CL-40888  24.628  40.409  14.479
74348ION    CL-40889   1.247   4.597   2.830
74349ION    CL-40890  36.268  24.556   0.946
74350ION    CL-40891  14.642  26.037  12.752
74351ION    CL-40892  38.483  15.900   3.479
74352ION    CL-40893  11.550   5.136   4.317
74353ION    CL-40894   6.139  30.017  11.547
74354ION    CL-40895  44.930   1.459   0.045
74355ION    CL-40896  43.529  25.254  12.447
74356ION    CL-40897  12.832  39.844  13.416
74357ION    CL-40898   1.293  36.289  12.169
74358ION    CL-40899  26.610   9.746  13.667
74359ION    CL-40900  11.558  34.884   2.821
74360ION    CL-40901  29.181  24.560  13.509
74361ION    CL-40902  40.515  18.398   0.345
74362ION    CL-40903   2.234  43.377   0.481
74363ION    CL-40904  25.968  24.224  10.717
74364ION    CL-40905  23.000   2.851   2.404
74365ION    CL-40906   3.484   8.682   2.568
74366ION    CL-40907  30.431  22.580   1.626
74367ION    CL-40908  19.512  40.737   2.416
74368ION    CL-40909  21.364  37.403  14.459
74369ION    CL-40910  22.274  23.466   1.741
74370ION    CL-40911  33.885  27.758   3.233
74371ION    CL-40912   2.538  41.078  13.372
74372ION    CL-40913   6.232  12.172  13.020
74373ION    CL-40914   2.099  37.256  13.954
74374ION    CL-40915  11.190   4.743  10.148
74375ION    CL-40916   7.593   8.474  11.850
74376ION    CL-40917  35.821  35.190   4.895
74377ION    CL-40918  17.945  44.188   4.263
74378ION    CL-40919  36.673  10.369  11.286
74379ION    CL-40920  13.906   4.258  13.159
74380ION    CL-40921   0.302   7.396   1.427
74381ION    CL-40922  17.758   3.552   2.308
74382ION    CL-40923  10.879  10.211   1.945
74383ION    CL-40924   4.091  15.043  11.148
74384ION    CL-40925  40.646  14.249   4.045
74385ION    CL-40926  35.513  15.001   0.997
74386ION    CL-40927   6.290   1.714  13.936
74387ION    CL-40928  18.884   4.005  12.752
74388ION    CL-40929  25.202  42.375  14.218
74389ION    CL-40930  35.508  37.473  14.996
74390ION    CL-40931  34.071  32.472  12.281
74391ION    CL-40932  24.536   8.794  13.961
74392ION    CL-40933   2.102   1.217   1.510
74393ION    CL-40934  22.528  11.198  11.686
74394ION    CL-40935  35.403  14.076   0.633
74395ION    CL-40936  14.945   2.144   1.752
74396ION    CL-40937  13.283  28.631  14.546
74397ION    CL-40938  19.321  20.631   3.291
74398ION    CL-40939  43.692   1.390  12.656
74399ION    CL-40940  40.582  29.524  12.042
74400ION    CL-40941   1.492  38.335   4.168
74401ION    CL-40942  41.281  34.009  12.619
74402ION    CL-40943  11.153  11.927   3.199
74403ION    CL-40944  13.846  22.852   5.165
74404ION    CL-40945  38.961  35.366  11.564
74405ION    CL-40946  32.034   0.050  14.993
74406ION    CL-40947  12.614   2.650  11.997
74407ION    CL-40948  10.537  26.235   0.452
74408ION    CL-40949  13.581  17.207  11.626
74409ION    CL-40950  34.425   1.966  14.033
74410ION    CL-40951  17.032  32.926   2.131
74411ION    CL-40952   3.505  12.693  12.036
74412ION    CL-40953  11.439   4.155   4.142
74413ION    CL-40954  23.746  16.158   0.071
74414ION    CL-40955  13.705  20.532   0.512
74415ION    CL-40956  23.170  32.547   1.174
74416ION    CL-40957   7.123  29.038  14.438
74417ION    CL-40958  34.726  37.535  11.374
74418ION    CL-40959  17.325  40.142  12.914
74419ION    CL-40960  23.225  18.281   0.001
74420ION    CL-40961  35.520  20.685  12.345
74421ION    CL-40962   4.440  32.585  11.498
74422ION    CL-40963  13.994  37.878  14.802
74423ION    CL-40964   1.707  15.771   9.891
74424ION    CL-40965  32.544  41.065   1.928
74425ION    CL-40966  26.780  12.302   2.540
74426ION    CL-40967   2.395  33.745  11.184
74427ION    CL-40968  20.764   0.466   2.895
74428ION    CL-40969  19.229  28.184   2.323
74429ION    CL-40970   2.817  35.027  11.069
74430ION    CL-40971  13.362  10.526  12.555
74431ION    CL-40972   6.586  13.727  12.122
74432ION    CL-40973  30.729  18.176   3.075
74433ION    CL-40974  13.101  35.089  11.143
74434ION    CL-40975  32.220  31.916   3.512
74435ION    CL-40976  21.143  13.781   4.567
74436ION    CL-40977   4.698  13.842  14.387
74437ION    CL-40978   8.844  24.414   5.115
74438ION    CL-40979  32.333  33.191   0.788
74439ION    CL-40980   4.805  19.639  10.850
74440ION    CL-40981  42.404  31.368   0.279
74441ION    CL-40982   6.411  38.204  10.974
74442ION    CL-40983  43.572  37.961   4.780
74443ION    CL-40984  42.717  27.597  12.895
74444ION    CL-40985  25.599  21.781   2.677
74445ION    CL-40986   6.278  16.683   1.922
74446ION    CL-40987  27.116  28.678  12.216
74447ION    CL-40988  22.362  42.798  13.459
74448ION    CL-40989  24.453  29.436   4.486
74449ION    CL-40990  13.445   0.418   1.312
74450ION    CL-40991  10.864  34.460  10.392
74451ION    CL-40992  24.492  18.369   4.630
74452ION    CL-40993  34.654   3.748  11.406
74453ION    CL-40994  27.090  42.347  13.728
74454ION    CL-40995  30.497  19.753  12.436
74455ION    CL-40996  23.112  12.699   1.145
74456ION    CL-40997   1.818   1.332  11.434
74457ION    CL-40998  13.471  32.313  13.661
74458ION    CL-40999   7.212  41.747   3.058
74459ION    CL-41000  43.033  15.794   0.403
74460ION    CL-41001   2.263   9.449  11.203
74461ION    CL-41002  40.380   4.430   4.578
74462ION    CL-41003  27.223   6.191  10.687
74463ION    CL-41004   0.219   9.432  11.202
74464ION    CL-41005   3.143  15.516   2.036
74465ION    CL-41006  39.990  18.362  10.745
74466ION    CL-41007  12.129  15.843  12.179
74467ION    CL-41008  27.110  13.195  10.511
74468ION    CL-41009  34.450  38.588   4.561
74469ION    CL-41010  19.017  32.179   4.168
74470ION    CL-41011   0.309  39.912   0.297
74471ION    CL-41012   2.312  19.484   2.404
74472ION    CL-41013   1.159  23.688  11.487
74473ION    CL-41014  30.404  26.984  12.363
74474ION    CL-41015  35.163  26.600   2.893
74475ION    CL-41016  23.170   0.390   2.030
74476ION    CL-41017  18.000   3.960  11.796
74477ION    CL-41018   6.204  14.667  12.466
74478ION    CL-41019  12.552  23.082   3.247
74479ION    CL-41020  15.371  16.535   3.827
74480ION    CL-41021  16.978  25.556  11.950
74481ION    CL-41022  15.156  23.069  11.436
74482ION    CL-41023   5.636  36.701   3.961
74483ION    CL-41024  18.174   4.260   1.387
74484ION    CL-41025  44.407   6.036  12.524
74485ION    CL-41026  17.486  25.030   1.470
74486ION    CL-41027  29.439   6.257   2.001
74487ION    CL-41028  44.711  37.364   2.145
74488ION    CL-41029  15.572  30.021  13.157
74489ION    CL-41030  25.798  27.144   4.588
74490ION    CL-41031  39.827  33.405  11.877
74491ION    CL-41032  14.784  42.032   0.393
74492ION    CL-41033  32.037  11.476  11.076
74493ION    CL-41034  10.730  23.570  12.460
74494ION    CL-41035  30.799  40.741  12.527
74495ION    CL-41036  16.355  39.663   3.371
74496ION    CL-41037   1.521   3.069  12.606
74497ION    CL-41038   0.660  21.851   4.615
74498ION    CL-41039  30.656  14.523   2.702
74499ION    CL-41040  31.694  32.077   0.445
74500ION    CL-41041  13.600  15.702   2.150
74501ION    CL-41042  25.185  29.571  12.820
74502ION    CL-41043   6.204  32.284   2.140
74503ION    CL-41044  22.317  10.845   0.423
74504ION    CL-41045  36.375  26.788   3.435
74505ION    CL-41046   7.672  13.759  12.107
74506ION    CL-41047  41.247   6.004   3.666
74507ION    CL-41048  40.464  39.289   4.201
74508ION    CL-41049   9.501  29.745  11.229
74509ION    CL-41050  26.922  21.311  12.625
74510ION    CL-41051  30.649   5.441   2.709
74511ION    CL-41052  30.395  34.007  14.843
74512ION    CL-41053  16.267  35.430  11.149
74513ION    CL-41054  22.397   7.015  12.380
74514ION    CL-41055   4.818  18.841   2.714
74515ION    CL-41056  27.865  41.546   2.949
74516ION    CL-41057  31.403  22.957  11.979
74517ION    CL-41058  18.033   9.322   3.341
74518ION    CL-41059   6.730  37.818  12.074
74519ION    CL-41060   3.808  31.824  11.651
74520ION    CL-41061   1.380   3.811  14.805
74521ION    CL-41062  25.922   9.268  13.085
74522ION    CL-41063  18.513  40.907   2.524
74523ION    CL-41064   0.887  29.932  13.294
74524ION    CL-41065  40.129  43.636   1.210
74525ION    CL-41066  24.625  38.000  12.956
74526ION    CL-41067   2.259  40.074   0.587
74527ION    CL-41068  34.757   7.863   1.700
74528ION    CL-41069  17.952  33.221   5.463
74529ION    CL-41070  10.730  42.628   2.203
74530ION    CL-41071   5.181  17.963   4.738
74531ION    CL-41072  20.228   9.869  10.758
74532ION    CL-41073   9.967  41.260  14.062
74533ION    CL-41074  37.857  25.991  13.332
74534ION    CL-41075  32.723  10.751  11.135
74535ION    CL-41076  41.777   2.735  12.018
74536ION    CL-41077  18.939  19.080  10.614
74537ION    CL-41078  25.611  34.841  11.460
74538ION    CL-41079  36.118  36.997  11.125
74539ION    CL-41080  17.691  12.318  11.120
74540ION    CL-41081   5.402  17.915  13.100
74541ION    CL-41082   3.085   3.358   1.325
74542ION    CL-41083   4.179  33.729   2.888
74543ION    CL-41084  22.052  22.054   0.136
74544ION    CL-41085  16.103   7.752  13.388
74545ION    CL-41086  35.690   3.517  12.834
74546ION    CL-41087  23.775  12.622  11.216
74547ION    CL-41088  32.000  38.037   0.976
74548ION    CL-41089  21.095   7.237  13.624
74549ION    CL-41090  40.206  32.832  12.621
74550ION    CL-41091  44.005   9.823   0.420
74551ION    CL-41092  18.679  36.260   3.128
74552ION    CL-41093   5.675  33.119  12.753
74553ION    CL-41094   6.780   3.956   0.966
74554ION    CL-41095  26.508  25.675   4.927
74555ION    CL-41096   5.620  18.673   5.288
74556ION    CL-41097  17.454  40.682  11.425
74557ION    CL-41098  35.583  23.058  10.280
74558ION    CL-41099   4.913  39.627  11.419
74559ION    CL-41100  25.260  16.175   0.716
74560ION    CL-41101  22.377  16.822  11.190
74561ION    CL-41102  24.803  28.610  12.403
74562ION    CL-41103   3.039  27.967   1.611
74563ION    CL-41104   9.045   9.025  12.639
74564ION    CL-41105  32.340  29.336   2.652
74565ION    CL-41106  14.535  23.905  11.148
74566ION    CL-41107   4.910  41.678   2.172
74567ION    CL-41108  13.957  28.139  12.207
74568ION    CL-41109  25.187  25.202   3.321
74569ION    CL-41110   6.261   7.475   2.618
74570ION    CL-41111  20.388  38.899   1.755
74571ION    CL-41112  12.242  30.391   5.338
74572ION    CL-41113  15.336  23.464  12.345
74573ION    CL-41114  10.552  31.764  11.691
74574ION    CL-41115  24.209  28.759  13.193
74575ION    CL-41116   7.448   7.268   2.114
74576ION    CL-41117  30.648   8.455  11.202
74577ION    CL-41118  42.328  14.479   0.026
74578ION    CL-41119  20.801  25.720  13.368
74579ION    CL-41120  36.257  27.318   5.128
74580ION    CL-41121  25.871   4.939   0.461
74581ION    CL-41122  40.359  10.020  14.291
74582ION    CL-41123  13.293  29.990   4.740
74583ION    CL-41124  19.993  39.917  11.645
74584ION    CL-41125  40.245  20.795  13.289
74585ION    CL-41126  41.575  34.512   1.690
74586ION    CL-41127   4.147  40.413  12.391
74587ION    CL-41128  44.303  42.353  13.708
74588ION    CL-41129  28.312  14.922   4.780
74589ION    CL-41130  23.721  31.221   2.206
74590ION    CL-41131  29.081  29.593   2.449
74591ION    CL-41132  42.148   0.179  11.039
74592ION    CL-41133   1.834  23.731   2.822
74593ION    CL-41134   1.807   2.218  12.741
74594ION    CL-41135   3.298  33.130  14.980
74595ION    CL-41136  34.239   8.474  11.788
74596ION    CL-41137  42.864  10.963   9.936
74597ION    CL-41138  18.130  21.841   2.610
74598ION    CL-41139  33.162   0.305   4.201
74599ION    CL-41140  14.046  42.749   1.313
74600ION    CL-41141  36.198  34.025   3.380
74601ION    CL-41142  34.938  18.514  11.978
74602ION    CL-41143  33.456   3.143  13.346
74603ION    CL-41144  38.927  15.229   2.447
74604ION    CL-41145  43.792  32.864   1.205
74605ION    CL-41146   4.160  38.930  14.493
74606ION    CL-41147  37.514   5.179  13.747
74607ION    CL-41148  41.136  42.324   2.758
74608ION    CL-41149   2.890   3.060  13.876
74609ION    CL-41150  44.715  41.083  14.612
74610ION    CL-41151  24.773  29.107   2.409
74611ION    CL-41152  31.713  37.250   2.661
74612ION    CL-41153  23.964  22.058   3.057
74613ION    CL-41154   7.334   3.366   1.561
74614ION    CL-41155  15.292  21.800  14.608
74615ION    CL-41156   3.214  12.939   2.936
74616ION    CL-41157   8.239  28.544  12.205
74617ION    CL-41158   0.981  18.874  11.010
74618ION    CL-41159  30.828   9.734   2.599
74619ION    CL-41160  42.560  16.277  13.887
74620ION    CL-41161   0.397   8.927  12.047
74621ION    CL-41162  34.981   1.118   3.669
74622ION    CL-41163   3.602  19.798  13.583
74623ION    CL-41164  13.150  41.231  11.585
74624ION    CL-41165   8.819  20.165   5.221
74625ION    CL-41166  35.761  36.171   3.975
74626ION    CL-41167  34.995  17.722  14.410
74627ION    CL-41168  31.142  32.589   3.054
74628ION    CL-41169  10.933   7.330   0.403
74629ION    CL-41170  42.785  43.459  13.725
74630ION    CL-41171   5.958  26.716  12.830
74631ION    CL-41172   8.252   1.301   1.711
74632ION    CL-41173  19.620  25.321   3.854
74633ION    CL-41174   6.027  25.216   2.191
74634ION    CL-41175  43.247   0.634   4.037
74635ION    CL-41176   3.426  25.584  13.042
74636ION    CL-41177  29.016  36.127  10.873
74637ION    CL-41178  10.872  16.018  10.521
74638ION    CL-41179  19.382  19.145  12.897
74639ION    CL-41180  32.476  29.027   5.021
74640ION    CL-41181   5.447   1.947  14.421
74641ION    CL-41182  13.048   1.410   4.880
74642ION    CL-41183  38.534  10.025   0.374
74643ION    CL-41184   0.228  22.495   4.189
74644ION    CL-41185  20.107  43.815   2.914
74645ION    CL-41186  31.829  34.750   1.344
74646ION    CL-41187  36.149  10.732   0.807
74647ION    CL-41188  13.595  12.152   0.390
74648ION    CL-41189   7.822  18.982  14.238
74649ION    CL-41190  44.293  25.749   2.992
74650ION    CL-41191   1.164   6.083  11.023
74651ION    CL-41192   1.275  12.665  13.346
74652ION    CL-41193  14.593   8.942  11.852
74653ION    CL-41194  18.706  21.550  11.336
74654ION    CL-41195   8.661  33.641  13.612
74655ION    CL-41196  12.243  17.570   4.735
74656ION    CL-41197  11.591  27.434   3.635
74657ION    CL-41198  10.114  14.640   0.765
74658ION    CL-41199  21.857  28.451  13.708
74659ION    CL-41200  12.389  29.885   1.523
74660ION    CL-41201  35.127   1.999  12.145
74661ION    CL-41202   7.286  35.493  14.313
74662ION    CL-41203   1.654  39.256  14.498
74663ION    CL-41204  12.374  17.968  14.231
74664ION    CL-41205  41.675   3.828   0.922
74665ION    CL-41206   2.345  19.647  13.034
74666ION    CL-41207   5.671  41.327  11.095
74667ION    CL-41208  27.636  19.727  13.031
74668ION    CL-41209  43.409   3.571   2.356
74669ION    CL-41210  10.293  33.412   3.362
74670ION    CL-41211  33.671  26.739  11.512
74671ION    CL-41212  11.704   4.429   1.580
74672ION    CL-41213  23.956  10.915   4.021
74673ION    CL-41214   9.900  21.442  10.264
74674ION    CL-41215   7.140  30.476  11.731
74675ION    CL-41216  21.848  29.380   3.952
74676ION    CL-41217  16.825  39.416   1.791
74677ION    CL-41218  17.362  20.839  13.807
74678ION    CL-41219  20.612  25.230   3.770
74679ION    CL-41220  24.981  32.132  12.768
74680ION    CL-41221  17.761  36.548   1.080
74681ION    CL-41222  28.587  32.430   1.919
74682ION    CL-41223   0.651  43.117   0.327
74683ION    CL-41224  33.559   0.607  12.315
74684ION    CL-41225  35.852  22.822   0.598
74685ION    CL-41226  24.461  32.924  10.707
74686ION    CL-41227  19.288  13.615  10.315
74687ION    CL-41228  27.477   5.711  14.018
74688ION    CL-41229  43.137   0.550  12.785
74689ION    CL-41230  12.357  13.383  14.612
74690ION    CL-41231  13.028  20.708  14.257
74691ION    CL-41232  27.547  28.152   3.720
74692ION    CL-41233  23.419  10.932  12.750
74693ION    CL-41234  17.496  30.792   1.525
74694ION    CL-41235  22.303  41.035  11.007
74695ION    CL-41236  23.199  32.023  11.524
74696ION    CL-41237  11.295   9.738  11.592
74697ION    CL-41238  26.387  21.108   4.423
74698ION    CL-41239   9.409  18.514  11.232
74699ION    CL-41240   6.867  24.743   9.795
74700ION    CL-41241   9.459  16.164  14.228
74701ION    CL-41242  32.619  15.219  11.504
74702ION    CL-41243   4.667  40.315   1.243
74703ION    CL-41244  10.731  39.061  11.537
74704ION    CL-41245   6.282  32.041  11.965
74705ION    CL-41246  40.606  24.964  13.794
74706ION    CL-41247   7.784   3.503   0.679
74707ION    CL-41248  17.985  12.409   4.571
74708ION    CL-41249  18.086  38.078   0.344
74709ION    CL-41250  24.873  19.832  14.778
74710ION    CL-41251   1.185  34.093   4.711
74711ION    CL-41252   8.877  20.685   4.667
74712ION    CL-41253  11.457  44.026   4.350
74713ION    CL-41254  16.571  10.310   2.652
74714ION    CL-41255   3.468  18.814   3.565
74715ION    CL-41256  18.282  13.636  11.461
74716ION    CL-41257  19.833  23.615  10.083
74717ION    CL-41258  30.095  41.843  12.711
74718ION    CL-41259   1.984   3.708   3.408
74719ION    CL-41260  18.823  11.056   5.097
74720ION    CL-41261   6.818  12.011   4.235
74721ION    CL-41262  28.126  23.575   2.715
74722ION    CL-41263  24.163   5.838  12.538
74723ION    CL-41264   2.125  38.027  11.072
74724ION    CL-41265  17.297  30.700  12.758
74725ION    CL-41266  36.043  11.869   3.189
74726ION    CL-41267  24.122  22.696  12.754
74727ION    CL-41268  17.178  10.273   4.778
74728ION    CL-41269  38.020  40.881  14.221
74729ION    CL-41270   8.852  15.896   2.466
74730ION    CL-41271  23.602  20.253  11.672
74731ION    CL-41272  31.581  43.947   4.558
74732ION    CL-41273  15.899   0.512   2.148
74733ION    CL-41274  30.533  36.944   0.309
74734ION    CL-41275  23.395   4.972  13.802
74735ION    CL-41276  39.639  26.614   0.877
74736ION    CL-41277  39.434  16.029   2.127
74737ION    CL-41278   1.837  42.875  12.111
74738ION    CL-41279  32.828   6.465   1.340
74739ION    CL-41280  34.409  36.823  10.747
74740ION    CL-41281   4.632  12.348  11.574
74741ION    CL-41282  44.344   6.671   1.824
74742ION    CL-41283  44.446   0.287   4.039
74743ION    CL-41284  12.921  12.660  14.622
74744ION    CL-41285   0.800  40.014   1.165
74745ION    CL-41286  39.254  10.421   1.543
74746ION    CL-41287  23.689  19.430  12.723
74747ION    CL-41288  26.060  19.062  13.371
74748ION    CL-41289  16.479  16.397  11.517
74749ION    CL-41290  27.507   1.400  13.419
74750ION    CL-41291  37.801  11.477  12.491
74751ION    CL-41292  39.921  13.331   0.553
74752ION    CL-41293  31.461   8.232   3.370
74753ION    CL-41294  17.677  39.702  14.762
74754ION    CL-41295  12.632  29.964  12.393
74755ION    CL-41296  36.069  18.324  14.923
74756ION    CL-41297  36.518  18.629  13.227
74757ION    CL-41298  29.218   6.352  11.119
74758ION    CL-41299  21.648  38.218  10.664
74759ION    CL-41300   0.907  44.357  11.625
74760ION    CL-41301  36.062  38.298  13.976
74761ION    CL-41302  34.411   1.337   0.847
74762ION    CL-41303  43.687  12.308  10.382
74763ION    CL-41304  17.260  22.054   3.700
74764ION    CL-41305  25.975  44.868  12.962
74765ION    CL-41306  26.868  25.500  12.107
74766ION    CL-41307  15.022  32.176  14.125
74767ION    CL-41308  44.307  31.361  12.938
74768ION    CL-41309  35.069  34.436  12.886
74769ION    CL-41310  41.019  11.647  12.077
74770ION    CL-41311   8.957  21.760   3.550
74771ION    CL-41312  43.148  15.806   1.036
74772ION    CL-41313  39.731   5.227  13.704
74773ION    CL-41314  33.087   3.461   1.518
74774ION    CL-41315   5.407  30.567  13.310
74775ION    CL-41316  14.769   6.421   0.825
74776ION    CL-41317   8.206   1.108   2.522
74777ION    CL-41318  15.075   2.545  13.869
74778ION    CL-41319  16.433  44.252   4.378
74779ION    CL-41320  15.302  28.982   1.480
74780ION    CL-41321  12.917  22.233  13.054
74781ION    CL-41322  29.318  11.571   2.173
74782ION    CL-41323  40.398   8.653   9.595
74783ION    CL-41324  43.802  13.601  10.468
74784ION    CL-41325  28.181  38.895  14.354
74785ION    CL-41326  44.043  27.139  12.338
74786ION    CL-41327  26.943  35.824  11.601
74787ION    CL-41328   4.812  11.878   2.632
74788ION    CL-41329  28.514   3.427  11.875
74789ION    CL-41330  26.083   6.241   4.679
74790ION    CL-41331   6.876  33.803   4.415
74791ION    CL-41332  27.095  14.887   1.685
74792ION    CL-41333   7.326   0.643  13.228
74793ION    CL-41334  12.840  13.255   3.505
74794ION    CL-41335  30.910  42.450  10.943
74795ION    CL-41336  30.122  44.240   0.310
74796ION    CL-41337  35.618  30.223   3.552
74797ION    CL-41338  12.289   9.632  11.566
74798ION    CL-41339  15.078  11.641   3.853
74799ION    CL-41340  20.090   5.159   0.786
74800ION    CL-41341  34.754  15.291   3.797
74801ION    CL-41342  15.764  44.206  13.906
74802ION    CL-41343  22.332  37.344  13.470
74803ION    CL-41344  15.544  26.827   1.763
74804ION    CL-41345  38.594  17.387   2.137
74805ION    CL-41346  38.718  19.245   4.364
74806ION    CL-41347  16.354  26.961   3.243
74807ION    CL-41348  36.846  14.188   2.302
74808ION    CL-41349  28.742  12.181   4.377
74809ION    CL-41350  32.200  10.907   3.341
74810ION    CL-41351  16.926  27.068  11.448
74811ION    CL-41352  10.084   4.608  11.122
74812ION    CL-41353   9.447  14.221  14.466
74813ION    CL-41354  31.138  33.890   3.789
74814ION    CL-41355  40.715  39.396  11.743
74815ION    CL-41356  41.773  44.979   3.931
74816ION    CL-41357  28.237  15.812   1.508
74817ION    CL-41358   8.338  41.832  12.802
74818ION    CL-41359  26.605  25.194   3.699
74819ION    CL-41360  26.898  27.357   2.863
74820ION    CL-41361  30.478  16.898   5.438
74821ION    CL-41362  38.242   6.331  14.453
74822ION    CL-41363  40.885  40.717   2.178
74823ION    CL-41364  44.905  23.247   3.614
74824ION    CL-41365  26.270  38.826   3.676
74825ION    CL-41366  35.445   1.945   2.519
74826ION    CL-41367  13.370  30.004  13.086
74827ION    CL-41368  10.283  14.509   4.468
74828ION    CL-41369  10.139  39.262  12.319
74829ION    CL-41370  22.354  28.535  11.989
74830ION    CL-41371  37.900  24.182  14.409
74831ION    CL-41372  23.108  27.238  13.111
74832ION    CL-41373  32.174  30.181  11.970
74833ION    CL-41374  14.284  24.727  14.448
74834ION    CL-41375  35.675  32.848  11.453
74835ION    CL-41376  38.731  14.726  14.814
74836ION    CL-41377  26.123   8.363  10.991
74837ION    CL-41378  22.248  16.349  12.062
74838ION    CL-41379  37.342   9.952   2.780
74839ION    CL-41380  19.668  11.414  12.402
74840ION    CL-41381   1.091  24.697   0.209
74841ION    CL-41382  32.180  44.971  13.551
74842ION    CL-41383  42.365  29.976   2.639
74843ION    CL-41384  24.296   0.701   3.063
74844ION    CL-41385  12.246  14.265  14.430
74845ION    CL-41386  35.154  35.589   9.800
74846ION    CL-41387  42.975   9.309  12.608
74847ION    CL-41388  40.771  40.277   1.288
74848ION    CL-41389   3.674  12.624   2.105
74849ION    CL-41390  18.527  16.332  14.567
74850ION    CL-41391  31.509  32.615  14.623
74851ION    CL-41392  14.261  26.029  10.293
74852ION    CL-41393  40.628  20.387  10.748
74853ION    CL-41394  44.661  28.077  13.709
74854ION    CL-41395   0.878   9.873  14.480
74855ION    CL-41396  19.674  34.689   2.290
74856ION    CL-41397  13.118  36.708  10.960
74857ION    CL-41398  28.235  23.795  14.307
74858ION    CL-41399  22.983  29.976  13.205
74859ION    CL-41400  23.757   9.329  11.957
74860ION    CL-41401   3.400  23.237   2.852
74861ION    CL-41402  29.321   4.809   5.413
74862ION    CL-41403  12.553  33.612  13.427
74863ION    CL-41404  16.091   7.780  12.389
74864ION    CL-41405  11.184   9.394  13.336
74865ION    CL-41406  24.651  18.752   1.118
74866ION    CL-41407  20.689   7.661   2.347
74867ION    CL-41408   5.305  27.340  14.052
74868ION    CL-41409   0.862  34.043   0.951
74869ION    CL-41410  26.940  30.513  13.165
74870ION    CL-41411   2.825  42.826  12.506
74871ION    CL-41412  35.371  16.290  14.070
74872ION    CL-41413  19.712  44.237  14.379
74873ION    CL-41414  29.570  42.782  11.626
74874ION    CL-41415   8.488  17.384   4.178
74875ION    CL-41416   8.384  20.440   0.034
74876ION    CL-41417  15.474  14.310  12.445
74877ION    CL-41418  13.604  16.161  13.187
74878ION    CL-41419  28.553   8.511   4.944
74879ION    CL-41420  41.862  17.460   4.763
74880ION    CL-41421  39.855  14.730   1.911
74881ION    CL-41422  30.287  27.249  14.190
74882ION    CL-41423  39.874  29.373   1.075
74883ION    CL-41424  27.903  20.318  11.527
74884ION    CL-41425  42.935  10.057  10.352
74885ION    CL-41426  21.796  30.459   0.346
74886ION    CL-41427   8.822  12.385   2.358
74887ION    CL-41428  35.087  29.769  11.228
74888ION    CL-41429  11.078   4.929  12.117
74889ION    CL-41430  37.088  34.138   2.938
74890ION    CL-41431  29.665  11.263   4.659
74891ION    CL-41432  19.994   6.488  11.976
74892ION    CL-41433  28.369  36.786   0.836
74893ION    CL-41434   6.574  15.250  11.017
74894ION    CL-41435   1.011  37.864  10.730
74895ION    CL-41436  11.003  37.750   2.728
74896ION    CL-41437  42.427  43.908   0.087
74897ION    CL-41438  23.612  39.341   0.320
74898ION    CL-41439  42.535  11.774  14.575
74899ION    CL-41440  40.274  19.952  13.827
74900ION    CL-41441   2.398  28.828   9.972
74901ION    CL-41442   7.099  27.589   2.657
74902ION    CL-41443  36.202  16.690  13.612
74903ION    CL-41444   2.454  15.864  12.604
74904ION    CL-41445  41.472  30.010  12.190
74905ION    CL-41446  37.049  39.227   0.205
74906ION    CL-41447  25.532  19.331  14.187
74907ION    CL-41448  29.493  42.493   4.290
74908ION    CL-41449   3.588   9.582   5.049
74909ION    CL-41450  44.996  18.643   4.106
74910ION    CL-41451  22.527  26.254  14.567
74911ION    CL-41452   7.933  22.137   2.830
74912ION    CL-41453   7.751  26.750   2.702
74913ION    CL-41454  30.346  11.034   3.757
74914ION    CL-41455  25.698  11.967   4.917
74915ION    CL-41456   8.240   6.707   4.663
74916ION    CL-41457   8.325  20.635   3.307
74917ION    CL-41458   0.671  23.933   3.184
74918ION    CL-41459   3.919  19.070  10.789
74919ION    CL-41460  17.754  20.756   0.366
74920ION    CL-41461  39.045  32.706  13.229
74921ION    CL-41462  14.511   6.419   4.972
74922ION    CL-41463  29.158  36.530   2.301
74923ION    CL-41464  30.017  30.599   1.854
74924ION    CL-41465  34.348  16.422  13.082
74925ION    CL-41466  27.212  29.529   3.576
74926ION    CL-41467  15.597  19.963   4.187
74927ION    CL-41468  21.707  32.432   0.773
74928ION    CL-41469  41.197  35.449   2.586
74929ION    CL-41470   0.050   0.758  12.439
74930ION    CL-41471   4.554  10.163   0.847
74931ION    CL-41472   6.661  44.902  14.797
74932ION    CL-41473  10.708  40.537  12.977
74933ION    CL-41474  13.772  29.063  10.023
74934ION    CL-41475  22.599   3.958  10.059
74935ION    CL-41476  11.922   6.208   0.484
74936ION    CL-41477  24.054   8.170   0.279
74937ION    CL-41478  28.073  28.078   1.003
74938ION    CL-41479  43.596   7.119   1.531
74939ION    CL-41480  34.561  16.174   0.232
74940ION    CL-41481  23.430  27.885  10.795
74941ION    CL-41482  31.834  39.133  11.179
74942ION    CL-41483  36.715  13.280   4.784
74943ION    CL-41484  26.203   1.070  11.630
74944ION    CL-41485  19.556  20.311  14.389
74945ION    CL-41486  22.163  38.619  11.547
74946ION    CL-41487  40.190  17.745   2.786
74947ION    CL-41488  11.285   0.510   2.517
74948ION    CL-41489  37.117  15.146   2.398
74949ION    CL-41490  41.180  10.831   1.440
74950ION    CL-41491  13.593  27.006   3.773
74951ION    CL-41492  12.724  24.298  12.020
74952ION    CL-41493   3.652  35.034   1.008
74953ION    CL-41494  42.281  28.411  11.195
74954ION    CL-41495  33.694  33.649  13.480
74955ION    CL-41496  28.863  16.063   1.897
74956ION    CL-41497  27.173   3.434   4.101
74957ION    CL-41498  36.390  19.565  12.898
74958ION    CL-41499   2.874  43.516  11.003
74959ION    CL-41500  35.397  11.689   1.877
74960ION    CL-41501  24.012  12.643   9.940
74961ION    CL-41502  43.689  42.408   2.331
74962ION    CL-41503   2.429  14.925   2.411
74963ION    CL-41504  35.191  29.905  12.421
74964ION    CL-41505  22.114  12.508   3.246
74965ION    CL-41506  17.787   0.291   1.435
74966ION    CL-41507   2.306  34.169  12.085
74967ION    CL-41508  32.560  33.340  13.878
74968ION    CL-41509  23.862   8.250   1.977
74969ION    CL-41510  12.913  36.831   4.477
74970ION    CL-41511   2.191  12.075  12.259
74971ION    CL-41512  19.938  34.710   1.440
74972ION    CL-41513  27.383  10.780  13.122
74973ION    CL-41514   5.256  39.086   3.133
74974ION    CL-41515  20.118   4.940   2.671
74975ION    CL-41516  21.677   7.652   0.272
74976ION    CL-41517  42.657   9.575   0.554
74977ION    CL-41518  44.456  39.698  11.160
74978ION    CL-41519  35.504  35.395   0.771
74979ION    CL-41520   3.133  10.328  14.651
74980ION    CL-41521   2.075  18.513   3.916
74981ION    CL-41522  18.270  34.625  12.976
74982ION    CL-41523  20.743  12.939  13.487
74983ION    CL-41524  16.652  32.647   0.999
74984ION    CL-41525  39.618  17.228   9.961
74985ION    CL-41526  37.486  30.129   5.036
  45.00000  45.00000  15.00000
